<event>
 6    0  0.3667994E+002  0.1257034E+03  0.7546771E-02  0.1233974E+00
         21   -1    0    0  501  502  0.00000000000E+00  0.00000000000E+00  0.16747756447E+03  0.16747756447E+03  0.00000000000E+00 0. -1.
          1   -1    0    0  504    0 -0.00000000000E+00 -0.00000000000E+00 -0.18639059547E+03  0.18639059547E+03  0.00000000000E+00 0. -1.
         21    1    1    2  503  505  0.60272462931E+02 -0.10140654837E+03  0.97025693379E+01  0.11836468093E+03  0.00000000000E+00 0. -1.
         21    1    1    2  504  503 -0.74911337930E+02  0.10734262461E+03 -0.60277550194E+02  0.14410943990E+03  0.00000000000E+00 0. -1.
         21    1    1    2  505  502  0.39035828685E+02  0.11807603919E+02 -0.80033845935E+01  0.41560433063E+02  0.00000000000E+00 0. -1.
          1    1    1    2  501    0 -0.24396953685E+02 -0.17743680159E+02  0.39665334446E+02  0.49833606045E+02  0.00000000000E+00 0. -1.
<scales pt_clust_3="125.70337" pt_clust_4="14000.00000" pt_clust_5="36.91261" pt_clust_6="30.16703"></scales>
<clustering>
<clus scale="   30.167">  1  6  2 -1</clus>
<clus scale="   36.913">  1  5  2 -1</clus>
<clus scale="  125.703">  1  3  2 -1</clus>
<clus scale="   30.167">  1  3  2 -1</clus>
</clustering>
</event>
<event>
 6    0  0.3667994E+002  0.4727069E+03  0.7546771E-02  0.1021159E+00
          2   -1    0    0  503    0 -0.00000000000E+00  0.00000000000E+00  0.17210752372E+04  0.17210752372E+04  0.00000000000E+00 0.  1.
         21   -1    0    0  504  502  0.00000000000E+00 -0.00000000000E+00 -0.32111252079E+03  0.32111252079E+03  0.00000000000E+00 0.  1.
         21    1    1    2  503  505 -0.40103225869E+02  0.23184139937E+02  0.34981291858E+03  0.35286661938E+03  0.00000000000E+00 0. -1.
         21    1    1    2  504  501  0.58016519994E+02 -0.93704314878E+02  0.56659570786E+02  0.12392224248E+03  0.00000000000E+00 0.  1.
         21    1    1    2  505  502  0.28656302948E+03  0.41467007085E+03  0.38391937889E+02  0.50551318323E+03  0.00000000000E+00 0.  1.
          2    1    1    2  501    0 -0.30447632360E+03 -0.34414989591E+03  0.95509828914E+03  0.10598857129E+04  0.00000000000E+00 0.  1.
<scales pt_clust_3="46.32249" pt_clust_4="107.52949" pt_clust_5="14000.00000" pt_clust_6="472.70688"></scales>
<clustering>
<clus scale="   46.322">  1  3  2 -1</clus>
<clus scale="  107.529">  2  4  1 -1</clus>
<clus scale="  472.707">  1  6  2 -1</clus>
<clus scale="  107.529">  2  3  1 -1</clus>
</clustering>
</event>
<event>
 6    0  0.3667994E+002  0.1355862E+03  0.7546771E-02  0.1219395E+00
          2   -1    0    0  503    0 -0.00000000000E+00  0.00000000000E+00  0.28643683361E+03  0.28643683361E+03  0.00000000000E+00 0. -1.
         21   -1    0    0  501  502  0.00000000000E+00 -0.00000000000E+00 -0.18311378443E+04  0.18311378443E+04  0.00000000000E+00 0.  1.
         21    1    1    2  503  504  0.34978273881E+02 -0.22596184835E+02 -0.26510819323E+02  0.49364873685E+02  0.00000000000E+00 0. -1.
         21    1    1    2  504  505 -0.37866913285E+02  0.76618910933E+02  0.79173810735E+02  0.11650258770E+03  0.00000000000E+00 0. -1.
         21    1    1    2  505  502  0.21559513573E+02  0.13306454277E+03 -0.17212659779E+04  0.17265362874E+04  0.00000000000E+00 0.  1.
          2    1    1    2  501    0 -0.18670874169E+02 -0.18708726886E+03  0.12390197578E+03  0.22517092911E+03  0.00000000000E+00 0. -1.
<scales pt_clust_3="41.64213" pt_clust_4="73.14060" pt_clust_5="14000.00000" pt_clust_6="135.58619"></scales>
<clustering>
<clus scale="   41.642">  1  3  2 -1</clus>
<clus scale="   73.141">  1  4  2 -1</clus>
<clus scale="  135.586">  1  6  2 -1</clus>
<clus scale="  135.586">  2  3  1 -1</clus>
</clustering>
</event>
<event>
 6    0  0.3667994E+002  0.1091113E+03  0.7546771E-02  0.1262225E+00
         21   -1    0    0  505  502  0.00000000000E+00  0.00000000000E+00  0.86710412640E+02  0.86710412640E+02  0.00000000000E+00 0.  1.
          2   -1    0    0  503    0 -0.00000000000E+00 -0.00000000000E+00 -0.78668123082E+03  0.78668123082E+03  0.00000000000E+00 0.  1.
         21    1    1    2  503  504 -0.17282370080E+02 -0.11330594672E+03 -0.50742466765E+03  0.52020833444E+03  0.00000000000E+00 0.  1.
         21    1    1    2  504  502  0.63461314490E+02  0.77439791125E+02 -0.81816899499E+02  0.12929912888E+03  0.00000000000E+00 0.  1.
         21    1    1    2  505  501  0.26723380111E+02  0.22914945705E+02  0.41610181326E+02  0.54503586774E+02  0.00000000000E+00 0.  1.
          2    1    1    2  501    0 -0.72902324521E+02  0.12951209891E+02 -0.15233943236E+03  0.16938059337E+03  0.00000000000E+00 0.  1.
<scales pt_clust_3="14000.00000" pt_clust_4="109.11130" pt_clust_5="35.20275" pt_clust_6="69.38759"></scales>
<clustering>
<clus scale="   35.203">  1  5  2 -1</clus>
<clus scale="   69.388">  1  6  2 -1</clus>
<clus scale="  109.111">  1  4  2 -1</clus>
<clus scale="   35.203">  1  3  2 -1</clus>
</clustering>
</event>
<event>
 6    0  0.3667994E+002  0.9293368E+02  0.7546771E-02  0.1295899E+00
         21   -1    0    0  501  502  0.00000000000E+00  0.00000000000E+00  0.92249548684E+03  0.92249548684E+03  0.00000000000E+00 0. -1.
          2   -1    0    0  503    0 -0.00000000000E+00 -0.00000000000E+00 -0.19446690931E+04  0.19446690931E+04  0.00000000000E+00 0. -1.
         21    1    1    2  503  505  0.18447311118E+02  0.34937420793E+02 -0.12569811363E+03  0.13176092907E+03  0.00000000000E+00 0. -1.
         21    1    1    2  504  502 -0.43061226888E+02 -0.12557610006E+02  0.91397039840E+03  0.91507040821E+03  0.00000000000E+00 0. -1.
         21    1    1    2  505  504 -0.63335507346E+02 -0.64041525852E+02 -0.73654392349E+03  0.74203076402E+03  0.00000000000E+00 0. -1.
          2    1    1    2  501    0  0.87949423116E+02  0.41661715066E+02 -0.10739019676E+04  0.10783024787E+04  0.00000000000E+00 0. -1.
<scales pt_clust_3="39.50856" pt_clust_4="44.84658" pt_clust_5="14000.00000" pt_clust_6="92.93368"></scales>
<clustering>
<clus scale="   39.509">  2  3  1 -1</clus>
<clus scale="   44.847">  1  4  2 -1</clus>
<clus scale="   92.934">  1  6  2 -1</clus>
<clus scale="   44.847">  1  3  2 -1</clus>
</clustering>
</event>
<event>
 6    0  0.3667994E+002  0.1529636E+03  0.7546771E-02  0.1196878E+00
         21   -1    0    0  503  502  0.00000000000E+00  0.00000000000E+00  0.30764752585E+03  0.30764752585E+03  0.00000000000E+00 0. -1.
          1   -1    0    0  505    0 -0.00000000000E+00 -0.00000000000E+00 -0.17067424746E+03  0.17067424746E+03  0.00000000000E+00 0.  1.
         21    1    1    2  503  504  0.86201894668E+02 -0.12196981971E+03  0.23308771326E+03  0.27683440111E+03  0.00000000000E+00 0. -1.
         21    1    1    2  504  501 -0.55415898599E+02  0.35606301129E+02 -0.55165631696E+02  0.85918434681E+02  0.00000000000E+00 0.  1.
         21    1    1    2  505  502  0.13903334844E+02  0.31783925971E+02 -0.26271816389E+02  0.43516996752E+02  0.00000000000E+00 0.  1.
          1    1    1    2  501    0 -0.44689330914E+02  0.54579592615E+02 -0.14676986779E+02  0.72051940768E+02  0.00000000000E+00 0.  1.
<scales pt_clust_3="146.54609" pt_clust_4="42.30851" pt_clust_5="34.69180" pt_clust_6="42.30851"></scales>
<clustering>
<clus scale="   34.692">  2  5  1 -1</clus>
<clus scale="   42.309">  4  6 -1 -1</clus>
<clus scale="  146.546">  1  3  2 -1</clus>
<clus scale="  146.546">  1  3  2 -1</clus>
</clustering>
</event>
<event>
 6    0  0.3667994E+002  0.1117120E+03  0.7546771E-02  0.1257432E+00
          2   -1    0    0  505    0 -0.00000000000E+00  0.00000000000E+00  0.83614193134E+03  0.83614193134E+03  0.00000000000E+00 0.  1.
         21   -1    0    0  504  502  0.00000000000E+00 -0.00000000000E+00 -0.27619608327E+03  0.27619608327E+03  0.00000000000E+00 0.  1.
         21    1    1    2  503  501 -0.73020785366E+02  0.12549306825E+03  0.72733418466E+02  0.16239056450E+03  0.00000000000E+00 0.  1.
         21    1    1    2  504  503  0.49228806006E+01 -0.40494631293E+02 -0.21996622208E+03  0.22371676015E+03  0.00000000000E+00 0.  1.
         21    1    1    2  505  502 -0.23903971854E+00 -0.34820631162E+02  0.37373959601E+02  0.51081761429E+02  0.00000000000E+00 0. -1.
          2    1    1    2  501    0  0.68336944484E+02 -0.50177805800E+02  0.66980469208E+03  0.67514892854E+03  0.00000000000E+00 0.  1.
<scales pt_clust_3="14000.00000" pt_clust_4="40.87455" pt_clust_5="34.82145" pt_clust_6="111.71199"></scales>
<clustering>
<clus scale="   34.821">  1  5  2 -1</clus>
<clus scale="   40.875">  2  4  1 -1</clus>
<clus scale="  111.712">  1  6  2 -1</clus>
<clus scale="   40.875">  2  3  1 -1</clus>
</clustering>
</event>
<event>
 6    0  0.3667994E+002  0.1078128E+03  0.7546771E-02  0.1264675E+00
         21   -1    0    0  505  502  0.00000000000E+00  0.00000000000E+00  0.27181483411E+02  0.27181483411E+02  0.00000000000E+00 0.  1.
          2   -1    0    0  503    0 -0.00000000000E+00 -0.00000000000E+00 -0.14851459369E+04  0.14851459369E+04  0.00000000000E+00 0. -1.
         21    1    1    2  503  504 -0.58228332831E+02 -0.33445781128E+01 -0.25625145732E+03  0.26280512614E+03  0.00000000000E+00 0. -1.
         21    1    1    2  504  502  0.94195426838E+02  0.10318096250E+02 -0.89717196153E+02  0.13049297618E+03  0.00000000000E+00 0.  1.
         21    1    1    2  505  501  0.31135714214E+02 -0.14539781046E+02 -0.12240004126E+03  0.12713224624E+03  0.00000000000E+00 0.  1.
          2    1    1    2  501    0 -0.67102808221E+02  0.75662629087E+01 -0.98959575876E+03  0.99189707176E+03  0.00000000000E+00 0. -1.
<scales pt_clust_3="54.37237" pt_clust_4="107.81278" pt_clust_5="34.36332" pt_clust_6="14000.00000"></scales>
<clustering>
<clus scale="   34.363">  1  5  2 -1</clus>
<clus scale="   54.372">  2  3  1 -1</clus>
<clus scale="  107.813">  1  4  2 -1</clus>
<clus scale="   34.363">  1  3  2 -1</clus>
</clustering>
</event>
<event>
 6    0  0.3667994E+002  0.4906441E+03  0.7546771E-02  0.1016250E+00
          2   -1    0    0  505    0 -0.00000000000E+00  0.00000000000E+00  0.47875228081E+03  0.47875228081E+03  0.00000000000E+00 0.  1.
         21   -1    0    0  503  502  0.00000000000E+00 -0.00000000000E+00 -0.11325981309E+04  0.11325981309E+04  0.00000000000E+00 0.  1.
         21    1    1    2  503  504  0.45813375230E+03 -0.20055051691E+02 -0.83278159945E+03  0.95069129189E+03  0.00000000000E+00 0.  1.
         21    1    1    2  504  501  0.22484172757E+02 -0.37202371936E+02 -0.64211135419E+02  0.77541114346E+02  0.00000000000E+00 0. -1.
         21    1    1    2  505  502 -0.67693188240E+02 -0.20280131567E+02  0.13006868381E+03  0.14802538289E+03  0.00000000000E+00 0. -1.
          2    1    1    2  501    0 -0.41292473681E+03  0.77537555193E+02  0.11307820092E+03  0.43509262262E+03  0.00000000000E+00 0.  1.
<scales pt_clust_3="41.75639" pt_clust_4="41.75639" pt_clust_5="70.66577" pt_clust_6="471.52702"></scales>
<clustering>
<clus scale="   41.756">  3  4 -1 -1</clus>
<clus scale="   70.666">  1  5  2 -1</clus>
<clus scale="  471.527">  1  6  2 -1</clus>
<clus scale="  490.644">  2  3  1 -1</clus>
</clustering>
</event>
<event>
 6    0  0.3667994E+002  0.1968814E+03  0.7546771E-02  0.1152397E+00
          1   -1    0    0  505    0 -0.00000000000E+00  0.00000000000E+00  0.21908297848E+03  0.21908297848E+03  0.00000000000E+00 0. -1.
         21   -1    0    0  503  502  0.00000000000E+00 -0.00000000000E+00 -0.21077847190E+03  0.21077847190E+03  0.00000000000E+00 0. -1.
         21    1    1    2  503  501  0.64027802776E+01  0.35340527790E+02 -0.26078959291E+02  0.44385364902E+02  0.00000000000E+00 0.  1.
         21    1    1    2  504  502 -0.41780734182E+01 -0.34661339572E+02 -0.67769021378E+01  0.35563902500E+02  0.00000000000E+00 0. -1.
         21    1    1    2  505  504 -0.15122823862E+03 -0.87655831660E+02  0.15470742050E+02  0.17547896979E+03  0.00000000000E+00 0. -1.
          1    1    1    2  501    0  0.14900353176E+03  0.86976643442E+02  0.25689625961E+02  0.17443321319E+03  0.00000000000E+00 0. -1.
<scales pt_clust_3="35.91585" pt_clust_4="32.69166" pt_clust_5="32.69166" pt_clust_6="182.78780"></scales>
<clustering>
<clus scale="   32.692">  4  5 -1 -1</clus>
<clus scale="   35.916">  2  3  1 -1</clus>
<clus scale="  182.788">  1  6  2 -1</clus>
<clus scale="   35.916">  2  3  1 -1</clus>
</clustering>
</event>
<event>
 6    0  0.3667994E+002  0.1446079E+03  0.7546771E-02  0.1207260E+00
         21   -1    0    0  504  502  0.00000000000E+00  0.00000000000E+00  0.54994630986E+02  0.54994630986E+02  0.00000000000E+00 0. -1.
          2   -1    0    0  505    0 -0.00000000000E+00 -0.00000000000E+00 -0.10673250755E+04  0.10673250755E+04  0.00000000000E+00 0. -1.
         21    1    1    2  503  502 -0.16478009703E+02 -0.41351599169E+02 -0.14687618941E+03  0.15347343279E+03  0.00000000000E+00 0. -1.
         21    1    1    2  504  501  0.10536790774E+03  0.11062948335E+03 -0.89531672893E+02  0.17707964032E+03  0.00000000000E+00 0. -1.
         21    1    1    2  505  503  0.17650672526E+02 -0.31086840424E+02 -0.95023869497E+02  0.10152572907E+03  0.00000000000E+00 0. -1.
          2    1    1    2  501    0 -0.10654057056E+03 -0.38191043753E+02 -0.68089871271E+03  0.69024090430E+03  0.00000000000E+00 0. -1.
<scales pt_clust_3="80.67797" pt_clust_4="14000.00000" pt_clust_5="31.81304" pt_clust_6="144.60790"></scales>
<clustering>
<clus scale="   31.813">  3  5 -1 -1</clus>
<clus scale="   80.678">  2  3  1 -1</clus>
<clus scale="  144.608">  2  6  1 -1</clus>
<clus scale="  144.608">  1  3  2 -1</clus>
</clustering>
</event>
<event>
 6    0  0.3667994E+002  0.1098112E+03  0.7546771E-02  0.1260920E+00
          2   -1    0    0  505    0 -0.00000000000E+00  0.00000000000E+00  0.10452579764E+04  0.10452579764E+04  0.00000000000E+00 0. -1.
         21   -1    0    0  501  502  0.00000000000E+00 -0.00000000000E+00 -0.15406586108E+04  0.15406586108E+04  0.00000000000E+00 0.  1.
         21    1    1    2  503  504 -0.82217355749E+02  0.45600298722E+02  0.76191470494E+03  0.76769336225E+03  0.00000000000E+00 0. -1.
         21    1    1    2  504  502 -0.95251306126E+02 -0.55213676141E+02 -0.14890466773E+04  0.14931113048E+04  0.00000000000E+00 0.  1.
         21    1    1    2  505  503  0.77326551479E+02  0.28410798538E+02  0.12452372437E+02  0.83316448656E+02  0.00000000000E+00 0. -1.
          2    1    1    2  501    0  0.10014211040E+03 -0.18797421119E+02  0.21927896553E+03  0.24179547150E+03  0.00000000000E+00 0. -1.
<scales pt_clust_3="71.17807" pt_clust_4="109.81122" pt_clust_5="82.38064" pt_clust_6="14000.00000"></scales>
<clustering>
<clus scale="   82.381">  1  5  2 -1</clus>
<clus scale="   71.178">  1  3  2 -1</clus>
<clus scale="  109.811">  2  4  1 -1</clus>
<clus scale="  109.811">  2  3  1 -1</clus>
</clustering>
</event>
<event>
 6    0  0.3667994E+002  0.1097872E+03  0.7546771E-02  0.1260964E+00
         21   -1    0    0  505  502  0.00000000000E+00  0.00000000000E+00  0.18631952491E+03  0.18631952491E+03  0.00000000000E+00 0. -1.
          2   -1    0    0  504    0 -0.00000000000E+00 -0.00000000000E+00 -0.23935470394E+04  0.23935470394E+04  0.00000000000E+00 0.  1.
         21    1    1    2  503  502 -0.81826591028E+02  0.75837861934E+02  0.16460600433E+03  0.19885197752E+03  0.00000000000E+00 0. -1.
         21    1    1    2  504  503 -0.29473175765E+02  0.58377370049E+01 -0.22267450797E+03  0.22469242035E+03  0.00000000000E+00 0. -1.
         21    1    1    2  505  501  0.54489712682E+02 -0.41053452777E+02 -0.40051984172E+03  0.40628888538E+03  0.00000000000E+00 0. -1.
          2    1    1    2  501    0  0.56810054111E+02 -0.40622146162E+02 -0.17486391691E+04  0.17500332811E+04  0.00000000000E+00 0.  1.
<scales pt_clust_3="109.78720" pt_clust_4="30.04575" pt_clust_5="14000.00000" pt_clust_6="48.80750"></scales>
<clustering>
<clus scale="   30.046">  2  4  1 -1</clus>
<clus scale="   48.808">  2  6  1 -1</clus>
<clus scale="  109.787">  1  3  2 -1</clus>
<clus scale="  109.787">  1  3  2 -1</clus>
</clustering>
</event>
<event>
 6    0  0.3667994E+002  0.9432153E+02  0.7546771E-02  0.1292712E+00
         21   -1    0    0  503  502  0.00000000000E+00  0.00000000000E+00  0.49442512782E+02  0.49442512782E+02  0.00000000000E+00 0. -1.
          1   -1    0    0  504    0 -0.00000000000E+00 -0.00000000000E+00 -0.20406399046E+04  0.20406399046E+04  0.00000000000E+00 0. -1.
         21    1    1    2  503  501 -0.87954233152E+01  0.47735741139E+02 -0.14009054489E+03  0.14826132746E+03  0.00000000000E+00 0. -1.
         21    1    1    2  504  505  0.29547272568E+02  0.61327968296E+02 -0.54242574589E+03  0.54668075768E+03  0.00000000000E+00 0. -1.
         21    1    1    2  505  502  0.72277565548E+01  0.32198632255E+02  0.32460734250E+02  0.46289217448E+02  0.00000000000E+00 0. -1.
          1    1    1    2  501    0 -0.27979605807E+02 -0.14126234169E+03 -0.13411418353E+04  0.13488511148E+04  0.00000000000E+00 0. -1.
<scales pt_clust_3="61.08387" pt_clust_4="14000.00000" pt_clust_5="32.99988" pt_clust_6="94.32153"></scales>
<clustering>
<clus scale="   33.000">  1  5  2 -1</clus>
<clus scale="   61.084">  1  3  2 -1</clus>
<clus scale="   94.322">  1  6  2 -1</clus>
<clus scale="   33.000">  1  3  2 -1</clus>
</clustering>
</event>
<event>
 6    0  0.3667994E+002  0.1331156E+03  0.7546771E-02  0.1222905E+00
          1   -1    0    0  504    0 -0.00000000000E+00  0.00000000000E+00  0.22123695685E+04  0.22123695685E+04  0.00000000000E+00 0. -1.
         21   -1    0    0  501  502  0.00000000000E+00 -0.00000000000E+00 -0.25170402324E+02  0.25170402324E+02  0.00000000000E+00 0.  1.
         21    1    1    2  503  505  0.10131724922E+03  0.11638794279E+03  0.94220519343E+03  0.95475754239E+03  0.00000000000E+00 0.  1.
         21    1    1    2  504  503 -0.20197369937E+02 -0.40856793327E+02  0.67760330188E+03  0.67913433577E+03  0.00000000000E+00 0. -1.
         21    1    1    2  505  502  0.34696749232E+02 -0.96166568210E+01  0.21957768609E+02  0.42172124656E+02  0.00000000000E+00 0.  1.
          1    1    1    2  501    0 -0.11581662852E+03 -0.65914492644E+02  0.54543290222E+03  0.56147596797E+03  0.00000000000E+00 0. -1.
<scales pt_clust_3="14000.00000" pt_clust_4="45.26883" pt_clust_5="36.00478" pt_clust_6="133.11560"></scales>
<clustering>
<clus scale="   36.005">  2  5  1 -1</clus>
<clus scale="   45.269">  1  4  2 -1</clus>
<clus scale="  133.116">  2  6  1 -1</clus>
<clus scale="   36.005">  2  3  1 -1</clus>
</clustering>
</event>
<event>
 6    0  0.3667994E+002  0.1342071E+03  0.7546771E-02  0.1221343E+00
         21   -1    0    0  501  502  0.00000000000E+00  0.00000000000E+00  0.12477880855E+03  0.12477880855E+03  0.00000000000E+00 0. -1.
          2   -1    0    0  503    0 -0.00000000000E+00 -0.00000000000E+00 -0.32379342460E+04  0.32379342460E+04  0.00000000000E+00 0. -1.
         21    1    1    2  503  505 -0.32716346256E+02  0.28672050499E+02 -0.78863371450E+03  0.78983262875E+03  0.00000000000E+00 0. -1.
         21    1    1    2  504  502 -0.19031646278E+02 -0.36525446700E+02  0.11276133428E+03  0.12004761691E+03  0.00000000000E+00 0. -1.
         21    1    1    2  505  504  0.11524790006E+03  0.10168734469E+03 -0.16948019448E+04  0.17017567472E+04  0.00000000000E+00 0. -1.
          2    1    1    2  501    0 -0.63499907529E+02 -0.93833948489E+02 -0.74248111237E+03  0.75107606164E+03  0.00000000000E+00 0. -1.
<scales pt_clust_3="42.89928" pt_clust_4="41.18631" pt_clust_5="14000.00000" pt_clust_6="134.20705"></scales>
<clustering>
<clus scale="   41.186">  1  4  2 -1</clus>
<clus scale="   42.899">  2  3  1 -1</clus>
<clus scale="  134.207">  1  6  2 -1</clus>
<clus scale="   41.186">  1  3  2 -1</clus>
</clustering>
</event>
<event>
 6    0  0.3667994E+002  0.1122111E+03  0.7546771E-02  0.1256529E+00
          1   -1    0    0  504    0 -0.00000000000E+00  0.00000000000E+00  0.44904904067E+04  0.44904904067E+04  0.00000000000E+00 0. -1.
         21   -1    0    0  503  502  0.00000000000E+00 -0.00000000000E+00 -0.93112536006E+02  0.93112536006E+02  0.00000000000E+00 0.  1.
         21    1    1    2  503  501 -0.14065088488E+03 -0.89564801939E+02  0.50324874470E+03  0.53015452861E+03  0.00000000000E+00 0.  1.
         21    1    1    2  504  505  0.69573551449E+02  0.66120768172E+02  0.46889374401E+03  0.47861652522E+03  0.00000000000E+00 0.  1.
         21    1    1    2  505  502 -0.39264376491E+02  0.26800418886E+02 -0.66283255562E+02  0.81568521389E+02  0.00000000000E+00 0.  1.
          1    1    1    2  501    0  0.11034170992E+03 -0.33563851183E+01  0.34915186376E+04  0.34932633675E+04  0.00000000000E+00 0. -1.
<scales pt_clust_3="112.21107" pt_clust_4="94.18703" pt_clust_5="47.53897" pt_clust_6="14000.00000"></scales>
<clustering>
<clus scale="   47.539">  2  5  1 -1</clus>
<clus scale="   94.187">  2  4  1 -1</clus>
<clus scale="  112.211">  2  3  1 -1</clus>
<clus scale="   47.539">  2  3  1 -1</clus>
</clustering>
</event>
<event>
 6    0  0.3667994E+002  0.1199515E+03  0.7546771E-02  0.1243177E+00
          2   -1    0    0  504    0 -0.00000000000E+00  0.00000000000E+00  0.13802286070E+04  0.13802286070E+04  0.00000000000E+00 0.  1.
         21   -1    0    0  503  502  0.00000000000E+00 -0.00000000000E+00 -0.20834208202E+04  0.20834208202E+04  0.00000000000E+00 0.  1.
         21    1    1    2  503  501  0.23531201878E+02  0.65187801090E+02 -0.19942095753E+04  0.19954134903E+04  0.00000000000E+00 0.  1.
         21    1    1    2  504  505 -0.36624225191E+02  0.11116852331E+03  0.11842094633E+04  0.11899797593E+04  0.00000000000E+00 0.  1.
         21    1    1    2  505  502  0.39679811013E+02  0.68936767724E+01 -0.28139855874E+02  0.49131066243E+02  0.00000000000E+00 0. -1.
          2    1    1    2  501    0 -0.26586787701E+02 -0.18325000117E+03  0.13494775463E+03  0.22912511143E+03  0.00000000000E+00 0.  1.
<scales pt_clust_3="95.10759" pt_clust_4="119.95146" pt_clust_5="40.27419" pt_clust_6="14000.00000"></scales>
<clustering>
<clus scale="   40.274">  2  5  1 -1</clus>
<clus scale="   95.108">  2  3  1 -1</clus>
<clus scale="  119.951">  1  4  2 -1</clus>
<clus scale="   40.274">  2  3  1 -1</clus>
</clustering>
</event>
<event>
 6    0  0.3667994E+002  0.9877628E+02  0.7546771E-02  0.1282890E+00
         21   -1    0    0  505  502  0.00000000000E+00  0.00000000000E+00  0.38429451212E+03  0.38429451212E+03  0.00000000000E+00 0. -1.
          2   -1    0    0  503    0 -0.00000000000E+00 -0.00000000000E+00 -0.31998308398E+04  0.31998308398E+04  0.00000000000E+00 0. -1.
         21    1    1    2  503  504  0.14016751312E+02 -0.29259906750E+02 -0.11713729898E+03  0.12154734992E+03  0.00000000000E+00 0. -1.
         21    1    1    2  504  502  0.19569061877E+02  0.32150530400E+02 -0.43651106169E+03  0.43813070169E+03  0.00000000000E+00 0.  1.
         21    1    1    2  505  501  0.21868565271E+02  0.96299517806E+02  0.37364051040E+03  0.38647000179E+03  0.00000000000E+00 0. -1.
          2    1    1    2  501    0 -0.55454378459E+02 -0.99190141457E+02 -0.26355284774E+04  0.26379772985E+04  0.00000000000E+00 0. -1.
<scales pt_clust_3="32.44397" pt_clust_4="35.33555" pt_clust_5="98.77628" pt_clust_6="14000.00000"></scales>
<clustering>
<clus scale="   32.444">  2  3  1 -1</clus>
<clus scale="   35.336">  2  4  1 -1</clus>
<clus scale="   98.776">  1  5  2 -1</clus>
<clus scale="   98.776">  1  3  2 -1</clus>
</clustering>
</event>
<event>
 6    0  0.3667994E+002  0.2088212E+03  0.7546771E-02  0.1142503E+00
         21   -1    0    0  501  502  0.00000000000E+00  0.00000000000E+00  0.14533968576E+04  0.14533968576E+04  0.00000000000E+00 0. -1.
          1   -1    0    0  504    0 -0.00000000000E+00 -0.00000000000E+00 -0.45260088536E+03  0.45260088536E+03  0.00000000000E+00 0.  1.
         21    1    1    2  503  502 -0.55647111984E+02 -0.16893336155E+02  0.12836999596E+04  0.12850165649E+04  0.00000000000E+00 0. -1.
         21    1    1    2  504  505 -0.65592783287E+02 -0.86563836383E+01 -0.99045131471E+02  0.11911038689E+03  0.00000000000E+00 0.  1.
         21    1    1    2  505  503 -0.10513654649E+03 -0.12625707009E+03  0.14248175207E+02  0.16491680221E+03  0.00000000000E+00 0.  1.
          1    1    1    2  501    0  0.22637644176E+03  0.15180678988E+03 -0.19810703113E+03  0.33695398888E+03  0.00000000000E+00 0.  1.
<scales pt_clust_3="58.15484" pt_clust_4="69.56929" pt_clust_5="208.82125" pt_clust_6="14000.00000"></scales>
<clustering>
<clus scale="   58.155">  1  3  2 -1</clus>
<clus scale="   69.569">  2  4  1 -1</clus>
<clus scale="  208.821">  1  5  2 -1</clus>
<clus scale="   58.155">  1  3  2 -1</clus>
</clustering>
</event>
<event>
 6    0  0.3777031E+002  0.8485264E+02  0.7546771E-02  0.1315818E+00
          2   -1    0    0  505    0 -0.00000000000E+00  0.00000000000E+00  0.11973979749E+04  0.11973979749E+04  0.00000000000E+00 0. -1.
         21   -1    0    0  504  502  0.00000000000E+00 -0.00000000000E+00 -0.31510529255E+03  0.31510529255E+03  0.00000000000E+00 0. -1.
         21    1    1    2  503  502  0.69982141255E+02 -0.48639749635E+02 -0.29065892223E+03  0.30289591350E+03  0.00000000000E+00 0. -1.
         21    1    1    2  504  501 -0.42482838270E+02  0.69659928669E+02  0.15379639119E+03  0.17409947488E+03  0.00000000000E+00 0. -1.
         21    1    1    2  505  503  0.40932410916E+02 -0.23112137614E+02  0.72659132570E+02  0.86538908673E+02  0.00000000000E+00 0. -1.
          2    1    1    2  501    0 -0.68431713902E+02  0.20919585797E+01  0.94649608081E+03  0.94896897038E+03  0.00000000000E+00 0. -1.
<scales pt_clust_3="84.85264" pt_clust_4="14000.00000" pt_clust_5="47.00674" pt_clust_6="37.99853"></scales>
<clustering>
<clus scale="   47.007">  1  5  2 -1</clus>
<clus scale="   37.999">  1  6  2 -1</clus>
<clus scale="   84.853">  2  3  1 -1</clus>
<clus scale="   84.853">  2  3  1 -1</clus>
</clustering>
</event>
<event>
 6    0  0.3667994E+002  0.8599611E+02  0.7546771E-02  0.1312848E+00
         21   -1    0    0  503  502  0.00000000000E+00  0.00000000000E+00  0.44432897968E+03  0.44432897968E+03  0.00000000000E+00 0.  1.
          4   -1    0    0  504    0 -0.00000000000E+00 -0.00000000000E+00 -0.47149906387E+03  0.47149906387E+03  0.00000000000E+00 0.  1.
         21    1    1    2  503  501  0.25541370941E+02 -0.65008077565E+02  0.14687781533E+02  0.71373263234E+02  0.00000000000E+00 0.  1.
         21    1    1    2  504  505 -0.49525806477E+02  0.42175843646E+01 -0.64579192516E+01  0.50122831585E+02  0.00000000000E+00 0.  1.
         21    1    1    2  505  502 -0.98187119128E+02  0.24347119448E+02  0.36258124076E+03  0.37642880966E+03  0.00000000000E+00 0.  1.
          4    1    1    2  501    0  0.12217155466E+03  0.36443373752E+02 -0.39798118724E+03  0.41790313908E+03  0.00000000000E+00 0.  1.
<scales pt_clust_3="68.49572" pt_clust_4="49.70507" pt_clust_5="85.99611" pt_clust_6="14000.00000"></scales>
<clustering>
<clus scale="   49.705">  2  4  1 -1</clus>
<clus scale="   68.496">  1  3  2 -1</clus>
<clus scale="   85.996">  1  5  2 -1</clus>
<clus scale="   68.496">  1  3  2 -1</clus>
</clustering>
</event>
<event>
 6    0  0.3667994E+002  0.9079390E+02  0.7546771E-02  0.1300940E+00
         21   -1    0    0  504  502  0.00000000000E+00  0.00000000000E+00  0.10489216269E+03  0.10489216269E+03  0.00000000000E+00 0.  1.
          1   -1    0    0  505    0 -0.00000000000E+00 -0.00000000000E+00 -0.58300175676E+03  0.58300175676E+03  0.00000000000E+00 0.  1.
         21    1    1    2  503  502 -0.58672638927E+02 -0.90206846540E+02  0.11775439394E+02  0.10825162675E+03  0.00000000000E+00 0.  1.
         21    1    1    2  504  501 -0.10367923301E+02  0.30010848689E+02  0.19247765776E+02  0.37129790735E+02  0.00000000000E+00 0.  1.
         21    1    1    2  505  503  0.78870895624E+02 -0.29536988132E+02 -0.14816488049E+03  0.17042852947E+03  0.00000000000E+00 0. -1.
          1    1    1    2  501    0 -0.98303333961E+01  0.89732985982E+02 -0.36096791875E+03  0.37208397250E+03  0.00000000000E+00 0.  1.
<scales pt_clust_3="14000.00000" pt_clust_4="31.75130" pt_clust_5="81.36119" pt_clust_6="90.79390"></scales>
<clustering>
<clus scale="   31.751">  1  4  2 -1</clus>
<clus scale="   81.361">  2  5  1 -1</clus>
<clus scale="   90.794">  2  6  1 -1</clus>
<clus scale="   31.751">  1  3  2 -1</clus>
</clustering>
</event>
<event>
 6    0  0.3667994E+002  0.1053415E+03  0.7546771E-02  0.1269448E+00
          2   -1    0    0  505    0 -0.00000000000E+00  0.00000000000E+00  0.33847851689E+04  0.33847851689E+04  0.00000000000E+00 0.  1.
         21   -1    0    0  501  502  0.00000000000E+00 -0.00000000000E+00 -0.13202871692E+02  0.13202871692E+02  0.00000000000E+00 0. -1.
         21    1    1    2  503  504  0.17761569493E+02  0.38093739493E+02  0.92841678346E+03  0.92936770449E+03  0.00000000000E+00 0.  1.
         21    1    1    2  504  502 -0.92907365415E+02 -0.48826342882E+02  0.26125363976E+03  0.28154796145E+03  0.00000000000E+00 0. -1.
         21    1    1    2  505  503 -0.36536283317E+02 -0.60232804303E+01  0.58791558326E+03  0.58908056576E+03  0.00000000000E+00 0.  1.
          2    1    1    2  501    0  0.11168207924E+03  0.16755883820E+02  0.15939962907E+04  0.15979918089E+04  0.00000000000E+00 0.  1.
<scales pt_clust_3="36.52852" pt_clust_4="105.34147" pt_clust_5="37.02945" pt_clust_6="14000.00000"></scales>
<clustering>
<clus scale="   37.029">  1  5  2 -1</clus>
<clus scale="   36.529">  1  3  2 -1</clus>
<clus scale="  105.341">  2  4  1 -1</clus>
<clus scale="  105.341">  2  3  1 -1</clus>
</clustering>
</event>
<event>
 6    0  0.3667994E+002  0.9742800E+02  0.7546771E-02  0.1285799E+00
         21   -1    0    0  504  502  0.00000000000E+00  0.00000000000E+00  0.18666832103E+03  0.18666832103E+03  0.00000000000E+00 0.  1.
          2   -1    0    0  502    0 -0.00000000000E+00 -0.00000000000E+00 -0.69714344456E+03  0.69714344456E+03  0.00000000000E+00 0.  1.
         21    1    1    2  503  501 -0.54500252186E+02  0.32678410407E+02 -0.75185942789E+02  0.98443293262E+02  0.00000000000E+00 0.  1.
         21    1    1    2  504  505 -0.14640723110E+02 -0.84389641141E+02  0.15387281024E+03  0.17610452588E+03  0.00000000000E+00 0.  1.
         21    1    1    2  505  503 -0.99019961103E+00  0.40783807702E+02 -0.46000083665E+02  0.61484202549E+02  0.00000000000E+00 0.  1.
          2    1    1    2  501    0  0.70131174907E+02  0.10927423031E+02 -0.54316190732E+03  0.54777974390E+03  0.00000000000E+00 0.  1.
<scales pt_clust_3="39.37389" pt_clust_4="84.12700" pt_clust_5="39.37389" pt_clust_6="70.97739"></scales>
<clustering>
<clus scale="   39.374">  3  5 -1 -1</clus>
<clus scale="   70.977">  2  6  1 -1</clus>
<clus scale="   84.127">  1  4  2 -1</clus>
<clus scale="   84.127">  1  3  2 -1</clus>
</clustering>
</event>
<event>
 6    0  0.3667994E+002  0.8715637E+02  0.7546771E-02  0.1309888E+00
         21   -1    0    0  503  502  0.00000000000E+00  0.00000000000E+00  0.18586659817E+03  0.18586659817E+03  0.00000000000E+00 0. -1.
          2   -1    0    0  505    0 -0.00000000000E+00 -0.00000000000E+00 -0.15487712322E+04  0.15487712322E+04  0.00000000000E+00 0.  1.
         21    1    1    2  503  504 -0.18776889606E+02 -0.74800388534E+02  0.16091423525E+03  0.17844063666E+03  0.00000000000E+00 0. -1.
         21    1    1    2  504  501 -0.62407654130E+02  0.26644652316E+01 -0.14321669891E+03  0.15624608000E+03  0.00000000000E+00 0. -1.
         21    1    1    2  505  502 -0.43455053918E+01  0.30539119273E+02 -0.21676713042E+02  0.37701473597E+02  0.00000000000E+00 0. -1.
          2    1    1    2  501    0  0.85530049128E+02  0.41596804030E+02 -0.13589254574E+04  0.13622496401E+04  0.00000000000E+00 0.  1.
<scales pt_clust_3="51.09565" pt_clust_4="14000.00000" pt_clust_5="30.84674" pt_clust_6="87.15637"></scales>
<clustering>
<clus scale="   30.847">  1  5  2 -1</clus>
<clus scale="   51.096">  1  3  2 -1</clus>
<clus scale="   87.156">  2  6  1 -1</clus>
<clus scale="   30.847">  1  3  2 -1</clus>
</clustering>
</event>
<event>
 6    0  0.3667994E+002  0.2145177E+03  0.7546771E-02  0.1138038E+00
         -4   -1    0    0    0  501 -0.00000000000E+00  0.00000000000E+00  0.34047935237E+03  0.34047935237E+03  0.00000000000E+00 0.  1.
         21   -1    0    0  503  502  0.00000000000E+00 -0.00000000000E+00 -0.25863354822E+03  0.25863354822E+03  0.00000000000E+00 0.  1.
         21    1    1    2  503  505  0.11162434577E+02  0.32284026613E+02 -0.13810389390E+02  0.36845422716E+02  0.00000000000E+00 0. -1.
         21    1    1    2  504  502  0.17061844064E+03 -0.14618883618E+03 -0.26922005035E+01  0.22469774376E+03  0.00000000000E+00 0.  1.
         21    1    1    2  505  501  0.34329411235E+02  0.74045873029E+02  0.84345247585E+02  0.11736873765E+03  0.00000000000E+00 0. -1.
         -4    1    1    2    0  504 -0.21611028645E+03  0.39858936537E+02  0.14003146450E+02  0.22020099646E+03  0.00000000000E+00 0.  1.
<scales pt_clust_3="34.15931" pt_clust_4="214.51772" pt_clust_5="84.02232" pt_clust_6="14000.00000"></scales>
<clustering>
<clus scale="   34.159">  2  3  1 -1</clus>
<clus scale="   84.022">  1  5  2 -1</clus>
<clus scale="  214.518">  2  4  1 -1</clus>
<clus scale="   34.159">  2  3  1 -1</clus>
</clustering>
</event>
<event>
 6    0  0.3667994E+002  0.1291742E+03  0.7546771E-02  0.1228686E+00
         21   -1    0    0  504  502  0.00000000000E+00  0.00000000000E+00  0.34429931532E+03  0.34429931532E+03  0.00000000000E+00 0.  1.
         -3   -1    0    0    0  501 -0.00000000000E+00 -0.00000000000E+00 -0.15466130008E+03  0.15466130008E+03  0.00000000000E+00 0.  1.
         21    1    1    2  503  502  0.10294525194E+01  0.37545106779E+02  0.24492156775E+02  0.44839274738E+02  0.00000000000E+00 0. -1.
         21    1    1    2  504  505  0.41192793416E+02  0.84755128457E+02  0.19910632415E+03  0.22028074439E+03  0.00000000000E+00 0.  1.
         21    1    1    2  505  501  0.29852966589E+02  0.41615400630E+02 -0.17062780669E+02  0.53983142442E+02  0.00000000000E+00 0.  1.
         -3    1    1    2    0  503 -0.72075212524E+02 -0.16391563587E+03 -0.16897685017E+02  0.17985745384E+03  0.00000000000E+00 0.  1.
<scales pt_clust_3="37.55922" pt_clust_4="14000.00000" pt_clust_5="53.08508" pt_clust_6="129.17421"></scales>
<clustering>
<clus scale="   37.559">  1  3  2 -1</clus>
<clus scale="   53.085">  2  5  1 -1</clus>
<clus scale="  129.174">  2  6  1 -1</clus>
<clus scale="   37.559">  1  3  2 -1</clus>
</clustering>
</event>
<event>
 6    0  0.3667994E+002  0.1868092E+03  0.7546771E-02  0.1161371E+00
         21   -1    0    0  503  502  0.00000000000E+00  0.00000000000E+00  0.14440666447E+03  0.14440666447E+03  0.00000000000E+00 0. -1.
          2   -1    0    0  505    0 -0.00000000000E+00 -0.00000000000E+00 -0.91128813400E+03  0.91128813400E+03  0.00000000000E+00 0.  1.
         21    1    1    2  503  501  0.78653181747E+02  0.32602529102E+02 -0.27448553163E+03  0.28738746489E+03  0.00000000000E+00 0. -1.
         21    1    1    2  504  502 -0.12163931986E+03 -0.13014038803E+03  0.66877768746E+02  0.19027685273E+03  0.00000000000E+00 0. -1.
         21    1    1    2  505  504 -0.26059791338E+02  0.19702698947E+02 -0.62998133773E+02  0.70965300881E+02  0.00000000000E+00 0.  1.
          2    1    1    2  501    0  0.69045929446E+02  0.77835159983E+02 -0.49627557287E+03  0.50706517997E+03  0.00000000000E+00 0.  1.
<scales pt_clust_3="48.58146" pt_clust_4="178.40090" pt_clust_5="32.66970" pt_clust_6="48.58146"></scales>
<clustering>
<clus scale="   32.670">  2  5  1 -1</clus>
<clus scale="   48.581">  3  6 -1 -1</clus>
<clus scale="  178.401">  1  4  2 -1</clus>
<clus scale="  178.401">  1  3  2 -1</clus>
</clustering>
</event>
<event>
 6    0  0.3667994E+002  0.9742975E+02  0.7546771E-02  0.1285796E+00
         21   -1    0    0  504  502  0.00000000000E+00  0.00000000000E+00  0.83183822444E+02  0.83183822444E+02  0.00000000000E+00 0.  1.
          2   -1    0    0  503    0 -0.00000000000E+00 -0.00000000000E+00 -0.24076130905E+04  0.24076130905E+04  0.00000000000E+00 0.  1.
         21    1    1    2  503  505 -0.73745152877E+02 -0.16160330829E+02 -0.89037799786E+03  0.89357287501E+03  0.00000000000E+00 0.  1.
         21    1    1    2  504  501 -0.29121791006E+02  0.41134623786E+02  0.52510271219E+02  0.72783683397E+02  0.00000000000E+00 0.  1.
         21    1    1    2  505  502 -0.53650621503E+02 -0.78283035656E+02 -0.14872634067E+03  0.17642603909E+03  0.00000000000E+00 0.  1.
          2    1    1    2  501    0  0.15651756539E+03  0.53308742699E+02 -0.13378352007E+04  0.13480143154E+04  0.00000000000E+00 0.  1.
<scales pt_clust_3="77.10743" pt_clust_4="50.39976" pt_clust_5="14000.00000" pt_clust_6="97.42975"></scales>
<clustering>
<clus scale="   50.400">  1  4  2 -1</clus>
<clus scale="   77.107">  2  3  1 -1</clus>
<clus scale="   97.430">  2  6  1 -1</clus>
<clus scale="   50.400">  1  3  2 -1</clus>
</clustering>
</event>
<event>
 6    0  0.3667994E+002  0.2123039E+03  0.7546771E-02  0.1139754E+00
         21   -1    0    0  503  502  0.00000000000E+00  0.00000000000E+00  0.32787910381E+03  0.32787910381E+03  0.00000000000E+00 0. -1.
          1   -1    0    0  502    0 -0.00000000000E+00 -0.00000000000E+00 -0.60910834992E+03  0.60910834992E+03  0.00000000000E+00 0.  1.
         21    1    1    2  503  505 -0.46817386782E+02 -0.13400192510E+02  0.18671862409E+03  0.19296444607E+03  0.00000000000E+00 0. -1.
         21    1    1    2  504  501  0.99556076090E+02  0.25597812070E+02 -0.19975911744E+03  0.22465610446E+03  0.00000000000E+00 0.  1.
         21    1    1    2  505  504 -0.14462670074E+03 -0.78679784335E+02  0.57578624133E+02  0.17442101074E+03  0.00000000000E+00 0. -1.
          1    1    1    2  501    0  0.91888011437E+02  0.66482164775E+02 -0.32576737689E+03  0.34494589246E+03  0.00000000000E+00 0.  1.
<scales pt_clust_3="48.69736" pt_clust_4="52.93151" pt_clust_5="204.77831" pt_clust_6="52.93151"></scales>
<clustering>
<clus scale="   48.697">  1  3  2 -1</clus>
<clus scale="   52.932">  4  6 -1 -1</clus>
<clus scale="  204.778">  1  5  2 -1</clus>
<clus scale="   48.697">  1  3  2 -1</clus>
</clustering>
</event>
<event>
 6    0  0.3667994E+002  0.6395854E+02  0.7546771E-02  0.1381932E+00
          1   -1    0    0  505    0 -0.00000000000E+00  0.00000000000E+00  0.16518220533E+04  0.16518220533E+04  0.00000000000E+00 0.  1.
         21   -1    0    0  503  502  0.00000000000E+00 -0.00000000000E+00 -0.33411010255E+02  0.33411010255E+02  0.00000000000E+00 0.  1.
         21    1    1    2  503  504  0.56935991728E+02 -0.41263561320E-01  0.10007442579E+02  0.57808803514E+02  0.00000000000E+00 0.  1.
         21    1    1    2  504  501 -0.73925182157E+02 -0.46890345933E+02  0.30078045807E+03  0.31326110684E+03  0.00000000000E+00 0.  1.
         21    1    1    2  505  502  0.65784026319E+02  0.34955990275E+02  0.57271442241E+03  0.57753897619E+03  0.00000000000E+00 0.  1.
          1    1    1    2  501    0 -0.48794835890E+02  0.11975619219E+02  0.73490872000E+03  0.73662417703E+03  0.00000000000E+00 0.  1.
<scales pt_clust_3="55.13130" pt_clust_4="14000.00000" pt_clust_5="63.95854" pt_clust_6="50.24292"></scales>
<clustering>
<clus scale="   50.243">  1  6  2 -1</clus>
<clus scale="   55.131">  2  3  1 -1</clus>
<clus scale="   63.959">  1  5  2 -1</clus>
<clus scale="   55.131">  2  3  1 -1</clus>
</clustering>
</event>
<event>
 6    0  0.3667994E+002  0.7972349E+02  0.7546771E-02  0.1329838E+00
          1   -1    0    0  505    0 -0.00000000000E+00  0.00000000000E+00  0.18342246613E+04  0.18342246613E+04  0.00000000000E+00 0.  1.
         21   -1    0    0  504  502  0.00000000000E+00 -0.00000000000E+00 -0.20005845071E+02  0.20005845071E+02  0.00000000000E+00 0. -1.
         21    1    1    2  503  501  0.14224044300E+03 -0.40628603703E+02  0.62691876195E+03  0.64413520409E+03  0.00000000000E+00 0. -1.
         21    1    1    2  504  503 -0.11824143453E+02  0.44498717263E+02  0.78522951327E+02  0.91026370308E+02  0.00000000000E+00 0. -1.
         21    1    1    2  505  502 -0.62197161804E+02 -0.12874686417E+02  0.26561281370E+03  0.27310146702E+03  0.00000000000E+00 0.  1.
          1    1    1    2  501    0 -0.68219137742E+02  0.90045728562E+01  0.84316428925E+03  0.84596746495E+03  0.00000000000E+00 0.  1.
<scales pt_clust_3="14000.00000" pt_clust_4="46.04287" pt_clust_5="65.42050" pt_clust_6="79.72349"></scales>
<clustering>
<clus scale="   46.043">  2  4  1 -1</clus>
<clus scale="   65.421">  2  5  1 -1</clus>
<clus scale="   79.723">  1  6  2 -1</clus>
<clus scale="   46.043">  2  3  1 -1</clus>
</clustering>
</event>
<event>
 6    0  0.3667994E+002  0.1409350E+03  0.7546771E-02  0.1212076E+00
         -4   -1    0    0    0  501 -0.00000000000E+00  0.00000000000E+00  0.19958143599E+03  0.19958143599E+03  0.00000000000E+00 0.  1.
         21   -1    0    0  505  502  0.00000000000E+00 -0.00000000000E+00 -0.85540685310E+03  0.85540685310E+03  0.00000000000E+00 0.  1.
         21    1    1    2  503  504  0.63546213125E+02  0.67277364146E+02 -0.93283423405E+02  0.13140076869E+03  0.00000000000E+00 0.  1.
         21    1    1    2  504  502  0.73076360265E+02  0.27654823609E+02 -0.68439461367E+03  0.68884027968E+03  0.00000000000E+00 0.  1.
         21    1    1    2  505  501 -0.27091429868E+02  0.19683969368E+02 -0.20298357524E+01  0.33548836873E+02  0.00000000000E+00 0.  1.
         -4    1    1    2    0  503 -0.10953114352E+03 -0.11461615712E+03  0.12388245571E+03  0.20119840384E+03  0.00000000000E+00 0.  1.
<scales pt_clust_3="140.93504" pt_clust_4="77.91273" pt_clust_5="33.48737" pt_clust_6="14000.00000"></scales>
<clustering>
<clus scale="   33.487">  1  5  2 -1</clus>
<clus scale="   77.913">  2  4  1 -1</clus>
<clus scale="  140.935">  2  3  1 -1</clus>
<clus scale="   77.913">  2  3  1 -1</clus>
</clustering>
</event>
<event>
 6    0  0.3667994E+002  0.8798607E+02  0.7546771E-02  0.1307803E+00
          2   -1    0    0  504    0 -0.00000000000E+00  0.00000000000E+00  0.13362318764E+04  0.13362318764E+04  0.00000000000E+00 0.  1.
         21   -1    0    0  503  502  0.00000000000E+00 -0.00000000000E+00 -0.68125958980E+02  0.68125958980E+02  0.00000000000E+00 0.  1.
         21    1    1    2  503  505  0.66843114858E+02 -0.55346626251E+02 -0.21594520475E+02  0.89429158309E+02  0.00000000000E+00 0.  1.
         21    1    1    2  504  502  0.27117536615E+02  0.18685502392E+02  0.17216044470E+03  0.17528185163E+03  0.00000000000E+00 0. -1.
         21    1    1    2  505  501 -0.51809222689E+02  0.11699650251E+03  0.76464592805E+03  0.77527786789E+03  0.00000000000E+00 0.  1.
          2    1    1    2  501    0 -0.42151428784E+02 -0.80335378652E+02  0.35289406512E+03  0.36436895753E+03  0.00000000000E+00 0.  1.
<scales pt_clust_3="14000.00000" pt_clust_4="32.93188" pt_clust_5="87.98607" pt_clust_6="81.86759"></scales>
<clustering>
<clus scale="   32.932">  1  4  2 -1</clus>
<clus scale="   81.868">  1  6  2 -1</clus>
<clus scale="   87.986">  1  5  2 -1</clus>
<clus scale="   87.986">  2  3  1 -1</clus>
</clustering>
</event>
<event>
 6    0  0.3667994E+002  0.1739511E+03  0.7546771E-02  0.1173789E+00
          2   -1    0    0  505    0 -0.00000000000E+00  0.00000000000E+00  0.18273283003E+04  0.18273283003E+04  0.00000000000E+00 0.  1.
         21   -1    0    0  504  502  0.00000000000E+00 -0.00000000000E+00 -0.10023190153E+03  0.10023190153E+03  0.00000000000E+00 0.  1.
         21    1    1    2  503  502 -0.27763660377E+02  0.44054882154E+02 -0.61384225325E+02  0.80496438417E+02  0.00000000000E+00 0.  1.
         21    1    1    2  504  501 -0.64686447281E+02  0.12034346099E+03  0.23229754764E+03  0.26949774712E+03  0.00000000000E+00 0.  1.
         21    1    1    2  505  503  0.29436976248E+02  0.28731515236E+02  0.52204647289E+03  0.52366454472E+03  0.00000000000E+00 0.  1.
          2    1    1    2  501    0  0.63013131410E+02 -0.19312985838E+03  0.10341366036E+04  0.10539014716E+04  0.00000000000E+00 0.  1.
<scales pt_clust_3="52.13746" pt_clust_4="14000.00000" pt_clust_5="41.13436" pt_clust_6="173.95106"></scales>
<clustering>
<clus scale="   41.134">  1  5  2 -1</clus>
<clus scale="   52.137">  2  3  1 -1</clus>
<clus scale="  173.951">  1  6  2 -1</clus>
<clus scale="   52.137">  2  3  1 -1</clus>
</clustering>
</event>
<event>
 6    0  0.3667994E+002  0.1213168E+03  0.7546771E-02  0.1240940E+00
          2   -1    0    0  503    0 -0.00000000000E+00  0.00000000000E+00  0.24055734120E+04  0.24055734120E+04  0.00000000000E+00 0. -1.
         21   -1    0    0  501  502  0.00000000000E+00 -0.00000000000E+00 -0.42544538085E+02  0.42544538085E+02  0.00000000000E+00 0.  1.
         21    1    1    2  503  505  0.24146113904E+02  0.19462076316E+02  0.13920855637E+04  0.13924309764E+04  0.00000000000E+00 0.  1.
         21    1    1    2  504  502 -0.69535253795E+02 -0.42100477278E+02  0.38890432889E+02  0.90111417022E+02  0.00000000000E+00 0.  1.
         21    1    1    2  505  504  0.33744575994E+02 -0.10237683515E+03  0.25290791783E+03  0.27492203929E+03  0.00000000000E+00 0.  1.
          2    1    1    2  501    0  0.11644563896E+02  0.12501523611E+03  0.67914495951E+03  0.69065351745E+03  0.00000000000E+00 0. -1.
<scales pt_clust_3="31.01302" pt_clust_4="79.33120" pt_clust_5="121.31678" pt_clust_6="14000.00000"></scales>
<clustering>
<clus scale="   31.013">  1  3  2 -1</clus>
<clus scale="   79.331">  2  4  1 -1</clus>
<clus scale="  121.317">  2  5  1 -1</clus>
<clus scale="   79.331">  2  3  1 -1</clus>
</clustering>
</event>
<event>
 6    0  0.3667994E+002  0.1418977E+03  0.7546771E-02  0.1210798E+00
         21   -1    0    0  501  502  0.00000000000E+00  0.00000000000E+00  0.38651228311E+03  0.38651228311E+03  0.00000000000E+00 0. -1.
          2   -1    0    0  505    0 -0.00000000000E+00 -0.00000000000E+00 -0.10172471415E+04  0.10172471415E+04  0.00000000000E+00 0. -1.
         21    1    1    2  503  502 -0.14134008765E+03 -0.44245061764E+02  0.35457702944E+03  0.38426490300E+03  0.00000000000E+00 0. -1.
         21    1    1    2  504  503  0.74935778400E+02  0.27304033581E+02 -0.13814878924E+03  0.15951792721E+03  0.00000000000E+00 0.  1.
         21    1    1    2  505  504  0.12443658709E+02 -0.54634019138E+02 -0.25634948370E+03  0.26240194070E+03  0.00000000000E+00 0. -1.
          2    1    1    2  501    0  0.53960650544E+02  0.71575047321E+02 -0.59081361486E+03  0.59757465367E+03  0.00000000000E+00 0. -1.
<scales pt_clust_3="14000.00000" pt_clust_4="141.89769" pt_clust_5="56.03321" pt_clust_6="69.89881"></scales>
<clustering>
<clus scale="   56.033">  2  5  1 -1</clus>
<clus scale="   69.899">  2  6  1 -1</clus>
<clus scale="  141.898">  2  4  1 -1</clus>
<clus scale="  141.898">  1  3  2 -1</clus>
</clustering>
</event>
<event>
 6    0  0.3667994E+002  0.9279254E+02  0.7546771E-02  0.1296227E+00
         -4   -1    0    0    0  501 -0.00000000000E+00  0.00000000000E+00  0.50164504493E+03  0.50164504493E+03  0.00000000000E+00 0.  1.
         21   -1    0    0  504  502  0.00000000000E+00 -0.00000000000E+00 -0.14323611731E+03  0.14323611731E+03  0.00000000000E+00 0. -1.
         21    1    1    2  503  501 -0.33357544779E+02  0.28605135094E+01  0.41740786998E+02  0.53508893003E+02  0.00000000000E+00 0. -1.
         21    1    1    2  504  503 -0.76601964273E+01  0.66645188075E+02  0.34705341063E+02  0.75529599503E+02  0.00000000000E+00 0. -1.
         21    1    1    2  505  502  0.31252078331E+02  0.39171531901E+02 -0.10362924584E+03  0.11510917385E+03  0.00000000000E+00 0. -1.
         -4    1    1    2    0  505  0.97656628753E+01 -0.10867723349E+03  0.38559204539E+03  0.40073349588E+03  0.00000000000E+00 0.  1.
<scales pt_clust_3="33.47997" pt_clust_4="14000.00000" pt_clust_5="49.87739" pt_clust_6="92.79254"></scales>
<clustering>
<clus scale="   33.480">  1  3  2 -1</clus>
<clus scale="   49.877">  2  5  1 -1</clus>
<clus scale="   92.793">  1  6  2 -1</clus>
<clus scale="   49.877">  2  3  1 -1</clus>
</clustering>
</event>
<event>
 6    0  0.3667994E+002  0.9372386E+02  0.7546771E-02  0.1294076E+00
         21   -1    0    0  503  502  0.00000000000E+00  0.00000000000E+00  0.45688072030E+03  0.45688072030E+03  0.00000000000E+00 0.  1.
          2   -1    0    0  505    0 -0.00000000000E+00 -0.00000000000E+00 -0.16904341621E+03  0.16904341621E+03  0.00000000000E+00 0.  1.
         21    1    1    2  503  501 -0.58395557401E+01  0.78551086326E+02  0.80673173498E+02  0.11274987582E+03  0.00000000000E+00 0.  1.
         21    1    1    2  504  502 -0.44972410369E+02  0.63987539929E+01  0.25729315908E+03  0.26127233198E+03  0.00000000000E+00 0.  1.
         21    1    1    2  505  504  0.75139657111E+02  0.38430227509E+02 -0.86641554609E+02  0.12095292242E+03  0.00000000000E+00 0.  1.
          2    1    1    2  501    0 -0.24327691002E+02 -0.12338006783E+03  0.36512526117E+02  0.13094900630E+03  0.00000000000E+00 0.  1.
<scales pt_clust_3="14000.00000" pt_clust_4="45.42534" pt_clust_5="81.20548" pt_clust_6="93.72386"></scales>
<clustering>
<clus scale="   45.425">  1  4  2 -1</clus>
<clus scale="   81.205">  2  5  1 -1</clus>
<clus scale="   93.724">  2  6  1 -1</clus>
<clus scale="   45.425">  1  3  2 -1</clus>
</clustering>
</event>
<event>
 6    0  0.3667994E+002  0.1217699E+03  0.7546771E-02  0.1240206E+00
         21   -1    0    0  503  502  0.00000000000E+00  0.00000000000E+00  0.64317581885E+03  0.64317581885E+03  0.00000000000E+00 0. -1.
          2   -1    0    0  505    0 -0.00000000000E+00 -0.00000000000E+00 -0.46656792918E+03  0.46656792918E+03  0.00000000000E+00 0. -1.
         21    1    1    2  503  504 -0.40600945796E+02  0.10555815557E+03  0.59614557019E+03  0.60677879154E+03  0.00000000000E+00 0. -1.
         21    1    1    2  504  501  0.77318364450E+02 -0.27001657475E+02 -0.20149711648E+03  0.21750472854E+03  0.00000000000E+00 0. -1.
         21    1    1    2  505  502 -0.72872205748E+02 -0.29409380139E+02 -0.24170589805E+02  0.82216101964E+02  0.00000000000E+00 0. -1.
          2    1    1    2  501    0  0.36154787094E+02 -0.49147117957E+02 -0.19386997424E+03  0.20324412598E+03  0.00000000000E+00 0. -1.
<scales pt_clust_3="113.08507" pt_clust_4="38.98129" pt_clust_5="78.58289" pt_clust_6="38.98129"></scales>
<clustering>
<clus scale="   38.981">  4  6 -1 -1</clus>
<clus scale="   78.583">  2  5  1 -1</clus>
<clus scale="  113.085">  1  3  2 -1</clus>
<clus scale="  113.085">  1  3  2 -1</clus>
</clustering>
</event>
<event>
 6    0  0.3667994E+002  0.1758748E+03  0.7546771E-02  0.1171856E+00
          1   -1    0    0  504    0 -0.00000000000E+00  0.00000000000E+00  0.47060826533E+02  0.47060826533E+02  0.00000000000E+00 0.  1.
         21   -1    0    0  503  502  0.00000000000E+00 -0.00000000000E+00 -0.11926634398E+04  0.11926634398E+04  0.00000000000E+00 0.  1.
         21    1    1    2  503  501  0.40684396593E+02  0.53615983565E+02 -0.11937657093E+03  0.13704254634E+03  0.00000000000E+00 0.  1.
         21    1    1    2  504  505  0.25858018819E+02 -0.28939270325E+02 -0.46645181811E+02  0.60678591697E+02  0.00000000000E+00 0.  1.
         21    1    1    2  505  502 -0.10016255101E+03 -0.13380893443E+03 -0.86215480265E+03  0.87820741928E+03  0.00000000000E+00 0.  1.
          1    1    1    2  501    0  0.33620135600E+02  0.10913222119E+03 -0.11742605784E+03  0.16379570897E+03  0.00000000000E+00 0.  1.
<scales pt_clust_3="37.76692" pt_clust_4="38.80874" pt_clust_5="168.85475" pt_clust_6="37.76692"></scales>
<clustering>
<clus scale="   37.767">  3  6 -1 -1</clus>
<clus scale="   38.809">  1  4  2 -1</clus>
<clus scale="  168.855">  2  5  1 -1</clus>
<clus scale="  168.855">  2  3  1 -1</clus>
</clustering>
</event>
<event>
 6    0  0.3667994E+002  0.6469477E+02  0.7546771E-02  0.1379123E+00
         21   -1    0    0  501  502  0.00000000000E+00  0.00000000000E+00  0.78253616142E+01  0.78253616142E+01  0.00000000000E+00 0.  1.
          2   -1    0    0  504    0 -0.00000000000E+00 -0.00000000000E+00 -0.31249809045E+04  0.31249809045E+04  0.00000000000E+00 0.  1.
         21    1    1    2  503  505  0.38845998026E+02  0.88926207228E+02 -0.14925985048E+04  0.14957497045E+04  0.00000000000E+00 0.  1.
         21    1    1    2  504  503 -0.26807248995E+02 -0.40803280105E+02 -0.10883258876E+04  0.10894203844E+04  0.00000000000E+00 0. -1.
         21    1    1    2  505  502 -0.22816927337E+02  0.25581266949E+02 -0.22618530471E+03  0.22876801668E+03  0.00000000000E+00 0.  1.
          2    1    1    2  501    0  0.10778178306E+02 -0.73704194072E+02 -0.31004584576E+03  0.31886816057E+03  0.00000000000E+00 0.  1.
<scales pt_clust_3="14000.00000" pt_clust_4="48.16006" pt_clust_5="34.27847" pt_clust_6="64.69477"></scales>
<clustering>
<clus scale="   34.278">  1  5  2 -1</clus>
<clus scale="   48.160">  2  4  1 -1</clus>
<clus scale="   64.695">  1  6  2 -1</clus>
<clus scale="   34.278">  1  3  2 -1</clus>
</clustering>
</event>
<event>
 6    0  0.3667994E+002  0.2547542E+03  0.7546771E-02  0.1110337E+00
         21   -1    0    0  505  502  0.00000000000E+00  0.00000000000E+00  0.16816135065E+03  0.16816135065E+03  0.00000000000E+00 0. -1.
          2   -1    0    0  504    0 -0.00000000000E+00 -0.00000000000E+00 -0.81194549908E+03  0.81194549908E+03  0.00000000000E+00 0. -1.
         21    1    1    2  503  502  0.86972534487E+02 -0.22960305108E+03 -0.10266485711E+03  0.26612376013E+03  0.00000000000E+00 0. -1.
         21    1    1    2  504  503  0.56821522126E+02 -0.27006841289E+02 -0.23143383019E+03  0.23983259289E+03  0.00000000000E+00 0. -1.
         21    1    1    2  505  501 -0.60177482734E+02  0.26555612810E+03 -0.25994436618E+03  0.37644715447E+03  0.00000000000E+00 0. -1.
          2    1    1    2  501    0 -0.83616573879E+02 -0.89462357331E+01 -0.49741094946E+02  0.97703342254E+02  0.00000000000E+00 0. -1.
<scales pt_clust_3="254.75416" pt_clust_4="62.91307" pt_clust_5="14000.00000" pt_clust_6="77.34850"></scales>
<clustering>
<clus scale="   62.913">  2  4  1 -1</clus>
<clus scale="   77.348">  2  6  1 -1</clus>
<clus scale="  254.754">  1  3  2 -1</clus>
<clus scale="  254.754">  1  3  2 -1</clus>
</clustering>
</event>
<event>
 6    0  0.3667994E+002  0.7636131E+02  0.7546771E-02  0.1339707E+00
          3   -1    0    0  503    0 -0.00000000000E+00  0.00000000000E+00  0.21494607651E+03  0.21494607651E+03  0.00000000000E+00 0.  1.
         21   -1    0    0  505  502  0.00000000000E+00 -0.00000000000E+00 -0.68663192386E+03  0.68663192386E+03  0.00000000000E+00 0. -1.
         21    1    1    2  503  502 -0.69469889316E+02  0.24566192666E+01  0.12327824822E+02  0.70597986973E+02  0.00000000000E+00 0.  1.
         21    1    1    2  504  501  0.45197575352E+02  0.58646943261E+02 -0.13811827132E+02  0.75319661048E+02  0.00000000000E+00 0.  1.
         21    1    1    2  505  504 -0.36485621117E+02 -0.88774864589E+00 -0.59950908679E+03  0.60061895890E+03  0.00000000000E+00 0. -1.
          3    1    1    2  501    0  0.60757935082E+02 -0.60215813882E+02  0.12930724175E+03  0.15504139346E+03  0.00000000000E+00 0.  1.
<scales pt_clust_3="76.36131" pt_clust_4="63.90457" pt_clust_5="36.49642" pt_clust_6="14000.00000"></scales>
<clustering>
<clus scale="   36.496">  2  5  1 -1</clus>
<clus scale="   63.905">  2  4  1 -1</clus>
<clus scale="   76.361">  2  3  1 -1</clus>
<clus scale="   36.496">  2  3  1 -1</clus>
</clustering>
</event>
<event>
 6    0  0.3667994E+002  0.1587289E+03  0.7546771E-02  0.1190139E+00
          1   -1    0    0  504    0 -0.00000000000E+00  0.00000000000E+00  0.78420589454E+03  0.78420589454E+03  0.00000000000E+00 0. -1.
         21   -1    0    0  505  502  0.00000000000E+00 -0.00000000000E+00 -0.73032427232E+03  0.73032427232E+03  0.00000000000E+00 0. -1.
         21    1    1    2  503  502 -0.35206323371E+02  0.13343025994E+03  0.24744986384E+03  0.28332764529E+03  0.00000000000E+00 0.  1.
         21    1    1    2  504  503  0.16429939029E+02 -0.35525639109E+02  0.61126708200E+01  0.39615384324E+02  0.00000000000E+00 0.  1.
         21    1    1    2  505  501 -0.13366052237E+01  0.78372554339E+02 -0.67743401956E+03  0.68195373351E+03  0.00000000000E+00 0. -1.
          1    1    1    2  501    0  0.20112989566E+02 -0.17627717517E+03  0.47775310713E+03  0.50963340374E+03  0.00000000000E+00 0. -1.
<scales pt_clust_3="14000.00000" pt_clust_4="39.14095" pt_clust_5="78.27770" pt_clust_6="158.72889"></scales>
<clustering>
<clus scale="   39.141">  1  4  2 -1</clus>
<clus scale="   78.278">  2  5  1 -1</clus>
<clus scale="  158.729">  2  6  1 -1</clus>
<clus scale="   78.278">  2  3  1 -1</clus>
</clustering>
</event>
<event>
 6    0  0.3667994E+002  0.1018736E+03  0.7546771E-02  0.1276405E+00
         -2   -1    0    0    0  501 -0.00000000000E+00  0.00000000000E+00  0.22175784908E+03  0.22175784908E+03  0.00000000000E+00 0. -1.
         21   -1    0    0  503  502  0.00000000000E+00 -0.00000000000E+00 -0.27862970512E+03  0.27862970512E+03  0.00000000000E+00 0.  1.
         21    1    1    2  503  505  0.40085209722E+02 -0.14543345128E+02 -0.20522316170E+03  0.20960648612E+03  0.00000000000E+00 0.  1.
         21    1    1    2  504  501 -0.31210223235E+02  0.16982672851E+02  0.54343033704E+02  0.64928071924E+02  0.00000000000E+00 0. -1.
         21    1    1    2  505  504 -0.14963523263E+02  0.96381930729E+02  0.79407935911E+02  0.12577362158E+03  0.00000000000E+00 0. -1.
         -2    1    1    2    0  502  0.60885367760E+01 -0.98821258452E+02  0.14600336040E+02  0.10007937457E+03  0.00000000000E+00 0. -1.
<scales pt_clust_3="42.16706" pt_clust_4="35.53152" pt_clust_5="14000.00000" pt_clust_6="101.87355"></scales>
<clustering>
<clus scale="   35.532">  1  4  2 -1</clus>
<clus scale="   42.167">  2  3  1 -1</clus>
<clus scale="  101.874">  2  6  1 -1</clus>
<clus scale="   42.167">  2  3  1 -1</clus>
</clustering>
</event>
<event>
 6    0  0.3667994E+002  0.2962132E+03  0.7546771E-02  0.1087149E+00
          2   -1    0    0  503    0 -0.00000000000E+00  0.00000000000E+00  0.15994235495E+04  0.15994235495E+04  0.00000000000E+00 0. -1.
         21   -1    0    0  501  502  0.00000000000E+00 -0.00000000000E+00 -0.65111926300E+03  0.65111926300E+03  0.00000000000E+00 0. -1.
         21    1    1    2  503  504  0.30062852492E+02  0.12069091671E+01  0.26141300845E+03  0.26313873283E+03  0.00000000000E+00 0. -1.
         21    1    1    2  504  505 -0.17714905394E+02 -0.30634441162E+03  0.95456026721E+03  0.10026694471E+04  0.00000000000E+00 0. -1.
         21    1    1    2  505  502  0.12319920043E+02  0.29783067805E+02 -0.57238839069E+03  0.57329510844E+03  0.00000000000E+00 0. -1.
          2    1    1    2  501    0 -0.24667867141E+02  0.27535443464E+03  0.30471940149E+03  0.41143952410E+03  0.00000000000E+00 0. -1.
<scales pt_clust_3="30.08707" pt_clust_4="296.21317" pt_clust_5="32.23488" pt_clust_6="14000.00000"></scales>
<clustering>
<clus scale="   30.087">  1  3  2 -1</clus>
<clus scale="   32.235">  2  5  1 -1</clus>
<clus scale="  296.213">  1  4  2 -1</clus>
<clus scale="   32.235">  2  3  1 -1</clus>
</clustering>
</event>
<event>
 6    0  0.3667994E+002  0.1310837E+03  0.7546771E-02  0.1225856E+00
          3   -1    0    0  505    0 -0.00000000000E+00  0.00000000000E+00  0.94625815265E+03  0.94625815265E+03  0.00000000000E+00 0.  1.
         21   -1    0    0  503  502  0.00000000000E+00 -0.00000000000E+00 -0.48028604978E+03  0.48028604978E+03  0.00000000000E+00 0.  1.
         21    1    1    2  503  501  0.13347850202E+02  0.13370602126E+03 -0.41857401416E+03  0.43961309188E+03  0.00000000000E+00 0.  1.
         21    1    1    2  504  502  0.29778210766E+02 -0.92775648671E+01 -0.37003260765E+02  0.48394796761E+02  0.00000000000E+00 0.  1.
         21    1    1    2  505  504  0.99532293293E+01 -0.37155514503E+02  0.62169501657E+02  0.73107085624E+02  0.00000000000E+00 0.  1.
          3    1    1    2  501    0 -0.53079290298E+02 -0.87272941894E+02  0.85937987614E+03  0.86542922816E+03  0.00000000000E+00 0.  1.
<scales pt_clust_3="131.08375" pt_clust_4="31.18998" pt_clust_5="38.67526" pt_clust_6="14000.00000"></scales>
<clustering>
<clus scale="   31.190">  2  4  1 -1</clus>
<clus scale="   38.675">  1  5  2 -1</clus>
<clus scale="  131.084">  2  3  1 -1</clus>
<clus scale="   31.190">  2  3  1 -1</clus>
</clustering>
</event>
<event>
 6    0  0.3667994E+002  0.1056153E+03  0.7546771E-02  0.1268912E+00
         -3   -1    0    0    0  501 -0.00000000000E+00  0.00000000000E+00  0.29935944295E+03  0.29935944295E+03  0.00000000000E+00 0.  1.
         21   -1    0    0  503  502  0.00000000000E+00 -0.00000000000E+00 -0.72742263899E+03  0.72742263899E+03  0.00000000000E+00 0.  1.
         21    1    1    2  503  501  0.48889180540E+02  0.68284922031E+02 -0.62341176453E+03  0.62904309129E+03  0.00000000000E+00 0.  1.
         21    1    1    2  504  505  0.10801452490E+03  0.46111526335E+02  0.12449072665E+03  0.17114716321E+03  0.00000000000E+00 0.  1.
         21    1    1    2  505  502 -0.12179464178E+03 -0.93830020756E+02  0.10901899085E+02  0.15413260189E+03  0.00000000000E+00 0.  1.
         -3    1    1    2    0  504 -0.35109063664E+02 -0.20566427610E+02  0.59955942750E+02  0.72459225548E+02  0.00000000000E+00 0.  1.
<scales pt_clust_3="83.53351" pt_clust_4="105.61529" pt_clust_5="14000.00000" pt_clust_6="40.68936"></scales>
<clustering>
<clus scale="   40.689">  1  6  2 -1</clus>
<clus scale="   83.534">  2  3  1 -1</clus>
<clus scale="  105.615">  1  4  2 -1</clus>
<clus scale="   83.534">  2  3  1 -1</clus>
</clustering>
</event>
<event>
 6    0  0.3667994E+002  0.1190582E+03  0.7546771E-02  0.1244659E+00
         21   -1    0    0  503  502  0.00000000000E+00  0.00000000000E+00  0.97451079180E+03  0.97451079180E+03  0.00000000000E+00 0.  1.
          3   -1    0    0  505    0 -0.00000000000E+00 -0.00000000000E+00 -0.18026807955E+03  0.18026807955E+03  0.00000000000E+00 0.  1.
         21    1    1    2  503  501 -0.11213639565E+03 -0.35440887113E+02  0.86893565387E+03  0.87685791225E+03  0.00000000000E+00 0.  1.
         21    1    1    2  504  502 -0.35795922949E+02  0.88532298319E+00  0.19651124024E+02  0.40844810833E+02  0.00000000000E+00 0. -1.
         21    1    1    2  505  504 -0.12362087539E+02  0.31461032613E+02 -0.66157653851E+02  0.74293020833E+02  0.00000000000E+00 0.  1.
          3    1    1    2  501    0  0.16029440614E+03  0.30945315167E+01 -0.28186411791E+02  0.16278312743E+03  0.00000000000E+00 0.  1.
<scales pt_clust_3="14000.00000" pt_clust_4="37.19298" pt_clust_5="33.80263" pt_clust_6="119.05817"></scales>
<clustering>
<clus scale="   33.803">  2  5  1 -1</clus>
<clus scale="   37.193">  2  4  1 -1</clus>
<clus scale="  119.058">  2  6  1 -1</clus>
<clus scale="  119.058">  1  3  2 -1</clus>
</clustering>
</event>
<event>
 6    0  0.3667994E+002  0.8294600E+02  0.7546771E-02  0.1320893E+00
         21   -1    0    0  501  502  0.00000000000E+00  0.00000000000E+00  0.48648474950E+02  0.48648474950E+02  0.00000000000E+00 0. -1.
          2   -1    0    0  505    0 -0.00000000000E+00 -0.00000000000E+00 -0.67036540029E+03  0.67036540029E+03  0.00000000000E+00 0. -1.
         21    1    1    2  503  504 -0.33273015263E+02  0.53700983312E+02 -0.14238096416E+03  0.15576658213E+03  0.00000000000E+00 0. -1.
         21    1    1    2  504  502 -0.59206152021E+02 -0.72872776177E+02 -0.31962802487E+02  0.99183822712E+02  0.00000000000E+00 0. -1.
         21    1    1    2  505  503  0.21596063011E+02  0.42481548545E+02 -0.14552832415E+03  0.15313250809E+03  0.00000000000E+00 0. -1.
          2    1    1    2  501    0  0.70883104272E+02 -0.23309755679E+02 -0.30184483455E+03  0.31093096231E+03  0.00000000000E+00 0. -1.
<scales pt_clust_3="71.21116" pt_clust_4="82.94600" pt_clust_5="47.65576" pt_clust_6="14000.00000"></scales>
<clustering>
<clus scale="   47.656">  2  5  1 -1</clus>
<clus scale="   71.211">  2  3  1 -1</clus>
<clus scale="   82.946">  1  4  2 -1</clus>
<clus scale="   82.946">  1  3  2 -1</clus>
</clustering>
</event>
<event>
 6    0  0.3667994E+002  0.1261120E+03  0.7546771E-02  0.1233342E+00
         21   -1    0    0  503  502  0.00000000000E+00  0.00000000000E+00  0.10813783178E+04  0.10813783178E+04  0.00000000000E+00 0. -1.
          2   -1    0    0  502    0 -0.00000000000E+00 -0.00000000000E+00 -0.24782287468E+03  0.24782287468E+03  0.00000000000E+00 0.  1.
         21    1    1    2  503  505 -0.53579135801E+02  0.20823312170E+01  0.10142164023E+04  0.10156327932E+04  0.00000000000E+00 0. -1.
         21    1    1    2  504  501 -0.17665008083E+02 -0.47277568049E+02 -0.53565031661E+02  0.73596423609E+02  0.00000000000E+00 0.  1.
         21    1    1    2  505  504  0.33579947722E+02  0.11342439077E+03 -0.44426212012E+02  0.12635819571E+03  0.00000000000E+00 0.  1.
          2    1    1    2  501    0  0.37664196161E+02 -0.68229153934E+02 -0.82669715551E+02  0.11361377992E+03  0.00000000000E+00 0.  1.
<scales pt_clust_3="53.61959" pt_clust_4="42.16968" pt_clust_5="114.70938" pt_clust_6="42.16968"></scales>
<clustering>
<clus scale="   42.170">  4  6 -1 -1</clus>
<clus scale="   53.620">  1  3  2 -1</clus>
<clus scale="  114.709">  1  5  2 -1</clus>
<clus scale="   53.620">  1  3  2 -1</clus>
</clustering>
</event>
<event>
 6    0  0.3667994E+002  0.1467066E+03  0.7546771E-02  0.1204579E+00
         -3   -1    0    0    0  501 -0.00000000000E+00  0.00000000000E+00  0.79958387872E+03  0.79958387872E+03  0.00000000000E+00 0. -1.
         21   -1    0    0  505  502  0.00000000000E+00 -0.00000000000E+00 -0.40760057596E+03  0.40760057596E+03  0.00000000000E+00 0. -1.
         21    1    1    2  503  502 -0.12885657259E+03  0.70755372028E+02 -0.29393842706E+03  0.32864895843E+03  0.00000000000E+00 0. -1.
         21    1    1    2  504  503  0.69702082259E+02 -0.16345264851E+03  0.83557715502E+02  0.19635946730E+03  0.00000000000E+00 0. -1.
         21    1    1    2  505  501 -0.69187184571E+02 -0.77031484693E+02  0.15002580219E+03  0.18228674517E+03  0.00000000000E+00 0.  1.
         -3    1    1    2    0  504  0.12834167490E+03  0.16972876118E+03  0.45233821213E+03  0.49988928378E+03  0.00000000000E+00 0. -1.
<scales pt_clust_3="14000.00000" pt_clust_4="146.70661" pt_clust_5="103.54089" pt_clust_6="135.39927"></scales>
<clustering>
<clus scale="  103.541">  1  5  2 -1</clus>
<clus scale="  135.399">  1  6  2 -1</clus>
<clus scale="  146.707">  1  4  2 -1</clus>
<clus scale="  146.707">  2  3  1 -1</clus>
</clustering>
</event>
<event>
 6    0  0.3667994E+002  0.1215096E+03  0.7546771E-02  0.1240627E+00
         21   -1    0    0  505  502  0.00000000000E+00  0.00000000000E+00  0.66224374484E+02  0.66224374484E+02  0.00000000000E+00 0. -1.
          2   -1    0    0  504    0 -0.00000000000E+00 -0.00000000000E+00 -0.12777859861E+04  0.12777859861E+04  0.00000000000E+00 0. -1.
         21    1    1    2  503  502 -0.92040920991E+02  0.65019836351E+02  0.55823218094E+01  0.11282850957E+03  0.00000000000E+00 0. -1.
         21    1    1    2  504  503 -0.10026310830E+02  0.28574769089E+02 -0.41614646289E+03  0.41724683691E+03  0.00000000000E+00 0. -1.
         21    1    1    2  505  501  0.63164359799E+02 -0.48389424597E+02 -0.34517367894E+03  0.35422611620E+03  0.00000000000E+00 0. -1.
          2    1    1    2  501    0  0.38902872023E+02 -0.45205180843E+02 -0.45582379159E+03  0.45970889790E+03  0.00000000000E+00 0. -1.
<scales pt_clust_3="114.23223" pt_clust_4="30.28274" pt_clust_5="33.31570" pt_clust_6="33.31570"></scales>
<clustering>
<clus scale="   30.283">  2  4  1 -1</clus>
<clus scale="   33.316">  5  6 -1 -1</clus>
<clus scale="  114.232">  1  3  2 -1</clus>
<clus scale="  114.232">  1  3  2 -1</clus>
</clustering>
</event>
<event>
 6    0  0.3667994E+002  0.1195771E+03  0.7546771E-02  0.1243796E+00
         21   -1    0    0  504  502  0.00000000000E+00  0.00000000000E+00  0.79529084495E+02  0.79529084495E+02  0.00000000000E+00 0. -1.
          3   -1    0    0  503    0 -0.00000000000E+00 -0.00000000000E+00 -0.22391679543E+04  0.22391679543E+04  0.00000000000E+00 0.  1.
         21    1    1    2  503  505 -0.22701751632E+01 -0.30796794209E+02 -0.34031098735E+03  0.34170918094E+03  0.00000000000E+00 0.  1.
         21    1    1    2  504  501 -0.74035982413E+02 -0.93260544175E+02  0.27121105391E+02  0.12212456816E+03  0.00000000000E+00 0. -1.
         21    1    1    2  505  502  0.29547482177E+02 -0.89765611537E+01 -0.52613382097E+03  0.52703930586E+03  0.00000000000E+00 0. -1.
          3    1    1    2  501    0  0.46758675398E+02  0.13303389954E+03 -0.13203151669E+04  0.13278239839E+04  0.00000000000E+00 0.  1.
<scales pt_clust_3="30.88035" pt_clust_4="119.57713" pt_clust_5="33.81110" pt_clust_6="14000.00000"></scales>
<clustering>
<clus scale="   30.880">  2  3  1 -1</clus>
<clus scale="   33.811">  2  5  1 -1</clus>
<clus scale="  119.577">  1  4  2 -1</clus>
<clus scale="  119.577">  1  3  2 -1</clus>
</clustering>
</event>
<event>
 6    0  0.3667994E+002  0.1818059E+03  0.7546771E-02  0.1166067E+00
          1   -1    0    0  505    0 -0.00000000000E+00  0.00000000000E+00  0.12009492471E+03  0.12009492471E+03  0.00000000000E+00 0. -1.
         21   -1    0    0  501  502  0.00000000000E+00 -0.00000000000E+00 -0.14167349046E+04  0.14167349046E+04  0.00000000000E+00 0. -1.
         21    1    1    2  503  502  0.18704627738E+03  0.12463209361E+03 -0.11046164035E+04  0.11272519096E+04  0.00000000000E+00 0. -1.
         21    1    1    2  504  503 -0.28714680191E+02 -0.10988236491E+03 -0.34072492287E+02  0.11857319136E+03  0.00000000000E+00 0. -1.
         21    1    1    2  505  504 -0.28973584307E+02 -0.26988928244E+02  0.38658424474E+02  0.55338455148E+02  0.00000000000E+00 0. -1.
          1    1    1    2  501    0 -0.12935801288E+03  0.12239199551E+02 -0.19660950856E+03  0.23566627327E+03  0.00000000000E+00 0. -1.
<scales pt_clust_3="181.80588" pt_clust_4="133.46362" pt_clust_5="39.59635" pt_clust_6="14000.00000"></scales>
<clustering>
<clus scale="   39.596">  1  5  2 -1</clus>
<clus scale="  133.464">  1  4  2 -1</clus>
<clus scale="  181.806">  2  3  1 -1</clus>
<clus scale="  181.806">  2  3  1 -1</clus>
</clustering>
</event>
<event>
 6    0  0.3667994E+002  0.1031961E+03  0.7546771E-02  0.1273715E+00
          2   -1    0    0  504    0 -0.00000000000E+00  0.00000000000E+00  0.44271835089E+03  0.44271835089E+03  0.00000000000E+00 0. -1.
         21   -1    0    0  505  502  0.00000000000E+00 -0.00000000000E+00 -0.38367924937E+03  0.38367924937E+03  0.00000000000E+00 0. -1.
         21    1    1    2  503  502 -0.73071053840E+02 -0.24254740509E+01  0.36743255630E+02  0.81824988041E+02  0.00000000000E+00 0. -1.
         21    1    1    2  504  503  0.24179838058E+02  0.54040623949E+02  0.15800751743E+02  0.61275748554E+02  0.00000000000E+00 0.  1.
         21    1    1    2  505  501  0.51495415240E+02 -0.10243241189E+03 -0.32670316242E+03  0.34623566127E+03  0.00000000000E+00 0. -1.
          2    1    1    2  501    0 -0.26041994585E+01  0.50817261991E+02  0.33319825658E+03  0.33706120239E+03  0.00000000000E+00 0. -1.
<scales pt_clust_3="14000.00000" pt_clust_4="75.89156" pt_clust_5="103.19606" pt_clust_6="50.88395"></scales>
<clustering>
<clus scale="   50.884">  1  6  2 -1</clus>
<clus scale="   75.892">  1  4  2 -1</clus>
<clus scale="  103.196">  2  5  1 -1</clus>
<clus scale="  103.196">  2  3  1 -1</clus>
</clustering>
</event>
<event>
 6    0  0.3667994E+002  0.7709505E+02  0.7546771E-02  0.1337503E+00
         21   -1    0    0  501  502  0.00000000000E+00  0.00000000000E+00  0.59768445900E+02  0.59768445900E+02  0.00000000000E+00 0. -1.
          2   -1    0    0  505    0 -0.00000000000E+00 -0.00000000000E+00 -0.86234637397E+03  0.86234637397E+03  0.00000000000E+00 0.  1.
         21    1    1    2  503  502  0.42340429366E+01  0.32010219102E+02 -0.11747655048E+02  0.34359695075E+02  0.00000000000E+00 0. -1.
         21    1    1    2  504  503 -0.37593945797E+02 -0.88513474975E+02 -0.21573903713E+02  0.98556447451E+02  0.00000000000E+00 0. -1.
         21    1    1    2  505  504 -0.41128615425E+02 -0.22752841802E+02 -0.43863531013E+03  0.44114644973E+03  0.00000000000E+00 0.  1.
          2    1    1    2  501    0  0.74488518285E+02  0.79256097675E+02 -0.33062105917E+03  0.34805222761E+03  0.00000000000E+00 0.  1.
<scales pt_clust_3="32.28903" pt_clust_4="77.09505" pt_clust_5="46.51013" pt_clust_6="14000.00000"></scales>
<clustering>
<clus scale="   32.289">  1  3  2 -1</clus>
<clus scale="   46.510">  2  5  1 -1</clus>
<clus scale="   77.095">  1  4  2 -1</clus>
<clus scale="   32.289">  1  3  2 -1</clus>
</clustering>
</event>
<event>
 6    0  0.3667994E+002  0.6673571E+02  0.7546771E-02  0.1371559E+00
         21   -1    0    0  503  502  0.00000000000E+00  0.00000000000E+00  0.17627950540E+03  0.17627950540E+03  0.00000000000E+00 0. -1.
          1   -1    0    0  505    0 -0.00000000000E+00 -0.00000000000E+00 -0.59978826948E+03  0.59978826948E+03  0.00000000000E+00 0. -1.
         21    1    1    2  503  504 -0.53960135861E+02  0.38250408041E+02  0.14479223400E+03  0.15918411040E+03  0.00000000000E+00 0. -1.
         21    1    1    2  504  501  0.10068843067E+03 -0.96390558509E+00 -0.19135387902E+03  0.21622996138E+03  0.00000000000E+00 0. -1.
         21    1    1    2  505  502 -0.44804726185E+02  0.10271225983E+02 -0.41758517972E+02  0.62102619871E+02  0.00000000000E+00 0. -1.
          1    1    1    2  501    0 -0.19235686250E+01 -0.47557728439E+02 -0.33518860109E+03  0.33855108322E+03  0.00000000000E+00 0. -1.
<scales pt_clust_3="66.73571" pt_clust_4="14000.00000" pt_clust_5="45.96696" pt_clust_6="50.69112"></scales>
<clustering>
<clus scale="   45.967">  2  5  1 -1</clus>
<clus scale="   50.691">  2  6  1 -1</clus>
<clus scale="   66.736">  1  3  2 -1</clus>
<clus scale="   66.736">  1  3  2 -1</clus>
</clustering>
</event>
<event>
 6    0  0.3667994E+002  0.1302879E+03  0.7546771E-02  0.1227029E+00
          2   -1    0    0  504    0 -0.00000000000E+00  0.00000000000E+00  0.70239183944E+03  0.70239183944E+03  0.00000000000E+00 0. -1.
         21   -1    0    0  503  502  0.00000000000E+00 -0.00000000000E+00 -0.24095653142E+03  0.24095653142E+03  0.00000000000E+00 0.  1.
         21    1    1    2  503  501  0.18500538347E+02  0.91305394484E+02  0.26871727841E+03  0.28440801799E+03  0.00000000000E+00 0. -1.
         21    1    1    2  504  505  0.15207155870E+02 -0.33880046739E+02  0.73109354820E+02  0.82000566577E+02  0.00000000000E+00 0.  1.
         21    1    1    2  505  502 -0.45003647644E+02 -0.10893802507E+03 -0.21124824688E+03  0.24190626990E+03  0.00000000000E+00 0.  1.
          2    1    1    2  501    0  0.11295953426E+02  0.51512677326E+02  0.33085692167E+03  0.33503351639E+03  0.00000000000E+00 0. -1.
<scales pt_clust_3="37.57350" pt_clust_4="37.13644" pt_clust_5="118.49542" pt_clust_6="37.57350"></scales>
<clustering>
<clus scale="   37.136">  1  4  2 -1</clus>
<clus scale="   37.574">  3  6 -1 -1</clus>
<clus scale="  118.495">  2  5  1 -1</clus>
<clus scale="  118.495">  2  3  1 -1</clus>
</clustering>
</event>
<event>
 6    0  0.3667994E+002  0.8859232E+02  0.7546771E-02  0.1306297E+00
         21   -1    0    0  505  502  0.00000000000E+00  0.00000000000E+00  0.49154249816E+03  0.49154249816E+03  0.00000000000E+00 0. -1.
         -1   -1    0    0    0  501 -0.00000000000E+00 -0.00000000000E+00 -0.17606918128E+03  0.17606918128E+03  0.00000000000E+00 0. -1.
         21    1    1    2  503  502  0.32415074984E+02 -0.80644718152E+01  0.40592921148E+03  0.40730123683E+03  0.00000000000E+00 0. -1.
         21    1    1    2  504  503 -0.46221038006E+02  0.33493506260E+02 -0.12011243723E+02  0.58330689107E+02  0.00000000000E+00 0. -1.
         21    1    1    2  505  501 -0.40474445758E+02 -0.89770578918E+02 -0.22820933200E+02  0.10108280067E+03  0.00000000000E+00 0. -1.
         -1    1    1    2    0  504  0.54280408781E+02  0.64341544473E+02 -0.55623717676E+02  0.10089695283E+03  0.00000000000E+00 0. -1.
<scales pt_clust_3="33.40319" pt_clust_4="48.75147" pt_clust_5="14000.00000" pt_clust_6="88.59232"></scales>
<clustering>
<clus scale="   33.403">  1  3  2 -1</clus>
<clus scale="   48.751">  1  4  2 -1</clus>
<clus scale="   88.592">  2  6  1 -1</clus>
<clus scale="   33.403">  1  3  2 -1</clus>
</clustering>
</event>
<event>
 6    0  0.3667994E+002  0.1589138E+03  0.7546771E-02  0.1189929E+00
         21   -1    0    0  504  502  0.00000000000E+00  0.00000000000E+00  0.35587501344E+03  0.35587501344E+03  0.00000000000E+00 0. -1.
          2   -1    0    0  503    0 -0.00000000000E+00 -0.00000000000E+00 -0.57552977748E+03  0.57552977748E+03  0.00000000000E+00 0. -1.
         21    1    1    2  503  505  0.58628919601E+02  0.21647388945E+02 -0.40924920920E+03  0.41399381021E+03  0.00000000000E+00 0. -1.
         21    1    1    2  504  501  0.18328169195E+02  0.43924750927E+02 -0.10548186836E+02  0.48750074621E+02  0.00000000000E+00 0.  1.
         21    1    1    2  505  502 -0.19259913849E+03 -0.68695089317E+02  0.26602376812E+03  0.33553254484E+03  0.00000000000E+00 0. -1.
          2    1    1    2  501    0  0.11564204969E+03  0.31229494454E+01 -0.65881136117E+02  0.13312836124E+03  0.00000000000E+00 0. -1.
<scales pt_clust_3="62.72645" pt_clust_4="47.59523" pt_clust_5="158.91378" pt_clust_6="14000.00000"></scales>
<clustering>
<clus scale="   47.595">  1  4  2 -1</clus>
<clus scale="   62.726">  2  3  1 -1</clus>
<clus scale="  158.914">  1  5  2 -1</clus>
<clus scale="   47.595">  1  3  2 -1</clus>
</clustering>
</event>
<event>
 6    0  0.3667994E+002  0.1274535E+03  0.7546771E-02  0.1231284E+00
          1   -1    0    0  504    0 -0.00000000000E+00  0.00000000000E+00  0.10209007834E+04  0.10209007834E+04  0.00000000000E+00 0. -1.
         21   -1    0    0  503  502  0.00000000000E+00 -0.00000000000E+00 -0.83456202377E+02  0.83456202377E+02  0.00000000000E+00 0.  1.
         21    1    1    2  503  505  0.46963180067E+02 -0.20040915884E+02 -0.56777392485E+02  0.76360008439E+02  0.00000000000E+00 0.  1.
         21    1    1    2  504  502 -0.11060912286E+03  0.97599777288E+02  0.50184024211E+03  0.52307143221E+03  0.00000000000E+00 0.  1.
         21    1    1    2  505  501  0.92148624729E+01 -0.44391010922E+02  0.15160524017E+03  0.15823913671E+03  0.00000000000E+00 0. -1.
          1    1    1    2  501    0  0.54431080318E+02 -0.33167850482E+02  0.34077649126E+03  0.34668640845E+03  0.00000000000E+00 0. -1.
<scales pt_clust_3="51.06054" pt_clust_4="117.47575" pt_clust_5="41.69251" pt_clust_6="41.69251"></scales>
<clustering>
<clus scale="   41.693">  5  6 -1 -1</clus>
<clus scale="   51.061">  2  3  1 -1</clus>
<clus scale="  117.476">  2  4  1 -1</clus>
<clus scale="   51.061">  2  3  1 -1</clus>
</clustering>
</event>
<event>
 6    0  0.3667994E+002  0.1013250E+03  0.7546771E-02  0.1277534E+00
         21   -1    0    0  505  502  0.00000000000E+00  0.00000000000E+00  0.55031828491E+03  0.55031828491E+03  0.00000000000E+00 0.  1.
         -4   -1    0    0    0  501 -0.00000000000E+00 -0.00000000000E+00 -0.13983291155E+03  0.13983291155E+03  0.00000000000E+00 0.  1.
         21    1    1    2  503  504  0.18223368568E+01  0.68924768550E+02  0.96746509339E+02  0.11880164856E+03  0.00000000000E+00 0.  1.
         21    1    1    2  504  502  0.10679305983E+02 -0.47546225588E+02  0.33242305709E+03  0.33597586227E+03  0.00000000000E+00 0.  1.
         21    1    1    2  505  501 -0.62268329732E+02 -0.87684574222E+02 -0.78496288931E+02  0.13314502176E+03  0.00000000000E+00 0.  1.
         -4    1    1    2    0  503  0.49766686893E+02  0.66306031260E+02  0.59812095869E+02  0.10222866388E+03  0.00000000000E+00 0.  1.
<scales pt_clust_3="45.77594" pt_clust_4="48.73080" pt_clust_5="101.32504" pt_clust_6="14000.00000"></scales>
<clustering>
<clus scale="   48.731">  1  4  2 -1</clus>
<clus scale="   45.776">  1  3  2 -1</clus>
<clus scale="  101.325">  2  5  1 -1</clus>
<clus scale="   48.731">  1  3  2 -1</clus>
</clustering>
</event>
<event>
 6    0  0.3667994E+002  0.8933787E+02  0.7546771E-02  0.1304463E+00
         21   -1    0    0  503  502  0.00000000000E+00  0.00000000000E+00  0.11364398236E+03  0.11364398236E+03  0.00000000000E+00 0. -1.
          2   -1    0    0  504    0 -0.00000000000E+00 -0.00000000000E+00 -0.65522074113E+03  0.65522074113E+03  0.00000000000E+00 0.  1.
         21    1    1    2  503  501 -0.55235512835E+02 -0.24288837482E+02 -0.50305804227E+02  0.78559426190E+02  0.00000000000E+00 0. -1.
         21    1    1    2  504  505  0.84693552669E+02 -0.29001215479E+02 -0.84319012040E+02  0.12297871423E+03  0.00000000000E+00 0. -1.
         21    1    1    2  505  502  0.38947712521E+02 -0.59292196394E+01  0.70832139738E+02  0.81051045496E+02  0.00000000000E+00 0. -1.
          2    1    1    2  501    0 -0.68405752355E+02  0.59219272600E+02 -0.47778408224E+03  0.48627553757E+03  0.00000000000E+00 0.  1.
<scales pt_clust_3="48.52406" pt_clust_4="89.33787" pt_clust_5="39.39645" pt_clust_6="14000.00000"></scales>
<clustering>
<clus scale="   39.396">  1  5  2 -1</clus>
<clus scale="   48.524">  1  3  2 -1</clus>
<clus scale="   89.338">  1  4  2 -1</clus>
<clus scale="   39.396">  1  3  2 -1</clus>
</clustering>
</event>
<event>
 6    0  0.3667994E+002  0.7593431E+02  0.7546771E-02  0.1341002E+00
         21   -1    0    0  505  502  0.00000000000E+00  0.00000000000E+00  0.90102100851E+03  0.90102100851E+03  0.00000000000E+00 0. -1.
         -2   -1    0    0    0  501 -0.00000000000E+00 -0.00000000000E+00 -0.57551647383E+02  0.57551647383E+02  0.00000000000E+00 0.  1.
         21    1    1    2  503  504  0.39100221159E+02  0.73373755424E+02  0.17441108472E+03  0.19321428972E+03  0.00000000000E+00 0. -1.
         21    1    1    2  504  501  0.51311659140E+01 -0.42730339961E+02  0.68440973245E+02  0.80847867229E+02  0.00000000000E+00 0.  1.
         21    1    1    2  505  503  0.43774935267E+02 -0.47549451498E+02  0.59083866870E+03  0.59436312784E+03  0.00000000000E+00 0. -1.
         -2    1    1    2    0  502 -0.88006322340E+02  0.16906036035E+02  0.97786344644E+01  0.90147371111E+02  0.00000000000E+00 0.  1.
<scales pt_clust_3="75.93431" pt_clust_4="43.03732" pt_clust_5="65.83505" pt_clust_6="14000.00000"></scales>
<clustering>
<clus scale="   43.037">  2  4  1 -1</clus>
<clus scale="   65.835">  1  5  2 -1</clus>
<clus scale="   75.934">  1  3  2 -1</clus>
<clus scale="   65.835">  1  3  2 -1</clus>
</clustering>
</event>
<event>
 6    0  0.3667994E+002  0.9499851E+02  0.7546771E-02  0.1291179E+00
          2   -1    0    0  505    0 -0.00000000000E+00  0.00000000000E+00  0.12587027371E+04  0.12587027371E+04  0.00000000000E+00 0. -1.
         21   -1    0    0  504  502  0.00000000000E+00 -0.00000000000E+00 -0.36169649777E+03  0.36169649777E+03  0.00000000000E+00 0. -1.
         21    1    1    2  503  502  0.94879020188E+02 -0.20902853422E+01 -0.33368954737E+03  0.34692234259E+03  0.00000000000E+00 0. -1.
         21    1    1    2  504  501 -0.36569635099E+02  0.57501411858E+02  0.38369343899E+03  0.38969783898E+03  0.00000000000E+00 0. -1.
         21    1    1    2  505  503 -0.97826086561E+02 -0.40319734001E+02  0.13987241915E+03  0.17538505581E+03  0.00000000000E+00 0. -1.
          2    1    1    2  501    0  0.39516701471E+02 -0.15091392515E+02  0.70712992859E+03  0.70839399753E+03  0.00000000000E+00 0. -1.
<scales pt_clust_3="14000.00000" pt_clust_4="47.73352" pt_clust_5="94.99851" pt_clust_6="42.30035"></scales>
<clustering>
<clus scale="   42.300">  1  6  2 -1</clus>
<clus scale="   47.734">  1  4  2 -1</clus>
<clus scale="   94.999">  1  5  2 -1</clus>
<clus scale="   94.999">  2  3  1 -1</clus>
</clustering>
</event>
<event>
 6    0  0.3667994E+002  0.1578557E+03  0.7546771E-02  0.1191139E+00
         21   -1    0    0  505  502  0.00000000000E+00  0.00000000000E+00  0.12495717105E+04  0.12495717105E+04  0.00000000000E+00 0. -1.
          2   -1    0    0  503    0 -0.00000000000E+00 -0.00000000000E+00 -0.61882508399E+03  0.61882508399E+03  0.00000000000E+00 0.  1.
         21    1    1    2  503  504  0.61367212696E+00  0.36729567232E+02 -0.12463573141E+02  0.38791472749E+02  0.00000000000E+00 0.  1.
         21    1    1    2  504  502 -0.80822970218E+02 -0.86252857966E+02 -0.86755437139E+02  0.14662337431E+03  0.00000000000E+00 0.  1.
         21    1    1    2  505  501 -0.69417325539E+02 -0.50306866597E+02  0.11878992169E+04  0.11909887050E+04  0.00000000000E+00 0. -1.
          2    1    1    2  501    0  0.14962662363E+03  0.99830157331E+02 -0.45793358011E+03  0.49199324243E+03  0.00000000000E+00 0.  1.
<scales pt_clust_3="36.73469" pt_clust_4="157.85572" pt_clust_5="85.67211" pt_clust_6="14000.00000"></scales>
<clustering>
<clus scale="   36.735">  2  3  1 -1</clus>
<clus scale="   85.672">  1  5  2 -1</clus>
<clus scale="  157.856">  1  4  2 -1</clus>
<clus scale="   85.672">  1  3  2 -1</clus>
</clustering>
</event>
<event>
 6    0  0.3667994E+002  0.1433481E+03  0.7546771E-02  0.1208894E+00
         21   -1    0    0  503  502  0.00000000000E+00  0.00000000000E+00  0.10347452362E+03  0.10347452362E+03  0.00000000000E+00 0. -1.
          2   -1    0    0  504    0 -0.00000000000E+00 -0.00000000000E+00 -0.17896082969E+04  0.17896082969E+04  0.00000000000E+00 0.  1.
         21    1    1    2  503  501  0.10788016812E+03 -0.14973400691E+03 -0.12292967522E+02  0.18495815891E+03  0.00000000000E+00 0. -1.
         21    1    1    2  504  505  0.40496608656E+02  0.72307925747E+02 -0.31401868847E+03  0.32477091641E+03  0.00000000000E+00 0. -1.
         21    1    1    2  505  502 -0.67930628922E+02  0.68074024483E+01 -0.11355368990E+03  0.13249660963E+03  0.00000000000E+00 0.  1.
          2    1    1    2  501    0 -0.80446147858E+02  0.70618678711E+02 -0.12462684274E+04  0.12508571356E+04  0.00000000000E+00 0.  1.
<scales pt_clust_3="14000.00000" pt_clust_4="81.39594" pt_clust_5="68.27087" pt_clust_6="143.34810"></scales>
<clustering>
<clus scale="   68.271">  1  5  2 -1</clus>
<clus scale="   81.396">  2  4  1 -1</clus>
<clus scale="  143.348">  2  6  1 -1</clus>
<clus scale="   68.271">  1  3  2 -1</clus>
</clustering>
</event>
<event>
 6    0  0.3667994E+002  0.7761938E+02  0.7546771E-02  0.1335946E+00
          2   -1    0    0  504    0 -0.00000000000E+00  0.00000000000E+00  0.37861754917E+03  0.37861754917E+03  0.00000000000E+00 0.  1.
         21   -1    0    0  503  502  0.00000000000E+00 -0.00000000000E+00 -0.54166636806E+03  0.54166636806E+03  0.00000000000E+00 0. -1.
         21    1    1    2  503  505 -0.54572556759E+02 -0.23025419230E+02 -0.49599540950E+03  0.49951954929E+03  0.00000000000E+00 0. -1.
         21    1    1    2  504  502  0.54166288418E+02 -0.20451204469E+01  0.33835449034E+01  0.54310382937E+02  0.00000000000E+00 0.  1.
         21    1    1    2  505  501 -0.57434216462E+02  0.55403255290E+02  0.10088002764E+03  0.12862732950E+03  0.00000000000E+00 0.  1.
          2    1    1    2  501    0  0.57840484803E+02 -0.30332715613E+02  0.22868301807E+03  0.23782665551E+03  0.00000000000E+00 0.  1.
<scales pt_clust_3="58.98389" pt_clust_4="54.20488" pt_clust_5="14000.00000" pt_clust_6="77.61938"></scales>
<clustering>
<clus scale="   54.205">  1  4  2 -1</clus>
<clus scale="   58.984">  2  3  1 -1</clus>
<clus scale="   77.619">  1  6  2 -1</clus>
<clus scale="   58.984">  2  3  1 -1</clus>
</clustering>
</event>
<event>
 6    0  0.3667994E+002  0.3689700E+03  0.7546771E-02  0.1055088E+00
          1   -1    0    0  503    0 -0.00000000000E+00  0.00000000000E+00  0.17583833557E+04  0.17583833557E+04  0.00000000000E+00 0.  1.
         21   -1    0    0  504  502  0.00000000000E+00 -0.00000000000E+00 -0.14024927812E+03  0.14024927812E+03  0.00000000000E+00 0.  1.
         21    1    1    2  503  505  0.27113090410E+03  0.25480722504E+03  0.13674341505E+04  0.14171502549E+04  0.00000000000E+00 0.  1.
         21    1    1    2  504  501 -0.35806107586E+02 -0.80472191069E+02  0.45622137775E+02  0.99192894560E+02  0.00000000000E+00 0. -1.
         21    1    1    2  505  502 -0.58497382838E+02  0.99518372064E+01  0.75111735441E+02  0.95722284049E+02  0.00000000000E+00 0.  1.
          1    1    1    2  501    0 -0.17682741368E+03 -0.18428687117E+03  0.12996605386E+03  0.28656720027E+03  0.00000000000E+00 0.  1.
<scales pt_clust_3="365.33488" pt_clust_4="30.34030" pt_clust_5="59.33787" pt_clust_6="30.34030"></scales>
<clustering>
<clus scale="   30.340">  4  6 -1 -1</clus>
<clus scale="   59.338">  2  5  1 -1</clus>
<clus scale="  365.335">  1  3  2 -1</clus>
<clus scale="   59.338">  2  3  1 -1</clus>
</clustering>
</event>
<event>
 6    0  0.3667994E+002  0.1419147E+03  0.7546771E-02  0.1210776E+00
         21   -1    0    0  505  502  0.00000000000E+00  0.00000000000E+00  0.31005453421E+03  0.31005453421E+03  0.00000000000E+00 0. -1.
          2   -1    0    0  504    0 -0.00000000000E+00 -0.00000000000E+00 -0.61363925863E+03  0.61363925863E+03  0.00000000000E+00 0.  1.
         21    1    1    2  503  502  0.46779002872E+02  0.13063351537E+03  0.25476390152E+02  0.14107599691E+03  0.00000000000E+00 0. -1.
         21    1    1    2  504  503  0.35070801984E+02 -0.22871506198E+02 -0.36708642606E+03  0.36946652236E+03  0.00000000000E+00 0.  1.
         21    1    1    2  505  501 -0.45148069939E+02  0.20780098162E+02  0.19830695813E+03  0.20444023660E+03  0.00000000000E+00 0. -1.
          2    1    1    2  501    0 -0.36701734917E+02 -0.12854210734E+03 -0.16028164664E+03  0.20871103697E+03  0.00000000000E+00 0.  1.
<scales pt_clust_3="141.91470" pt_clust_4="41.86964" pt_clust_5="49.18308" pt_clust_6="14000.00000"></scales>
<clustering>
<clus scale="   41.870">  2  4  1 -1</clus>
<clus scale="   49.183">  1  5  2 -1</clus>
<clus scale="  141.915">  1  3  2 -1</clus>
<clus scale="   49.183">  1  3  2 -1</clus>
</clustering>
</event>
<event>
 6    0  0.3667994E+002  0.8068040E+02  0.7546771E-02  0.1327132E+00
         21   -1    0    0  503  502  0.00000000000E+00  0.00000000000E+00  0.26969201813E+03  0.26969201813E+03  0.00000000000E+00 0.  1.
          2   -1    0    0  505    0 -0.00000000000E+00 -0.00000000000E+00 -0.10668477861E+03  0.10668477861E+03  0.00000000000E+00 0.  1.
         21    1    1    2  503  501  0.43487063940E+02 -0.10219207111E+02  0.34735582342E+02  0.56587256558E+02  0.00000000000E+00 0.  1.
         21    1    1    2  504  502 -0.10397033574E+03  0.54300859807E+02  0.16803367431E+03  0.20492371700E+03  0.00000000000E+00 0.  1.
         21    1    1    2  505  504 -0.13993132260E+02 -0.27502457572E+02 -0.60243170626E+01  0.31440186370E+02  0.00000000000E+00 0.  1.
          2    1    1    2  501    0  0.74476404054E+02 -0.16579195124E+02 -0.33737700069E+02  0.83425636814E+02  0.00000000000E+00 0.  1.
<scales pt_clust_3="43.91916" pt_clust_4="80.68040" pt_clust_5="30.85762" pt_clust_6="14000.00000"></scales>
<clustering>
<clus scale="   30.858">  2  5  1 -1</clus>
<clus scale="   43.919">  1  3  2 -1</clus>
<clus scale="   80.680">  1  4  2 -1</clus>
<clus scale="   43.919">  1  3  2 -1</clus>
</clustering>
</event>
<event>
 6    0  0.3667994E+002  0.1602984E+03  0.7546771E-02  0.1188360E+00
         21   -1    0    0  503  502  0.00000000000E+00  0.00000000000E+00  0.65148885313E+03  0.65148885313E+03  0.00000000000E+00 0.  1.
          2   -1    0    0  505    0 -0.00000000000E+00 -0.00000000000E+00 -0.10178075740E+04  0.10178075740E+04  0.00000000000E+00 0. -1.
         21    1    1    2  503  501 -0.72415810701E+02 -0.54396549113E+02  0.61145491670E+03  0.61812632152E+03  0.00000000000E+00 0.  1.
         21    1    1    2  504  502 -0.76514076501E+00 -0.12920321565E+03 -0.16487388449E+03  0.20946945878E+03  0.00000000000E+00 0.  1.
         21    1    1    2  505  504 -0.53282487898E+01  0.35436739946E+02 -0.56254769477E+02  0.66698964475E+02  0.00000000000E+00 0.  1.
          2    1    1    2  501    0  0.78509200255E+02  0.14816302482E+03 -0.75664498358E+03  0.77500168233E+03  0.00000000000E+00 0. -1.
<scales pt_clust_3="90.51129" pt_clust_4="14000.00000" pt_clust_5="35.83508" pt_clust_6="160.29843"></scales>
<clustering>
<clus scale="   35.835">  2  5  1 -1</clus>
<clus scale="   90.511">  1  3  2 -1</clus>
<clus scale="  160.298">  2  6  1 -1</clus>
<clus scale="   90.511">  1  3  2 -1</clus>
</clustering>
</event>
<event>
 6    0  0.3667994E+002  0.3525479E+03  0.7546771E-02  0.1061574E+00
          3   -1    0    0  502    0 -0.00000000000E+00  0.00000000000E+00  0.46750189828E+03  0.46750189828E+03  0.00000000000E+00 0.  1.
         21   -1    0    0  503  502  0.00000000000E+00 -0.00000000000E+00 -0.63428195074E+03  0.63428195074E+03  0.00000000000E+00 0. -1.
         21    1    1    2  503  505 -0.17235760012E+03  0.28582302160E+03 -0.51016155455E+03  0.60964477669E+03  0.00000000000E+00 0. -1.
         21    1    1    2  504  501  0.48060058331E+02 -0.74616496886E+02  0.13603099007E+03  0.16242481668E+03  0.00000000000E+00 0.  1.
         21    1    1    2  505  504  0.12062541158E+02 -0.89678589908E+02  0.82670394868E+02  0.12256487496E+03  0.00000000000E+00 0.  1.
          3    1    1    2  501    0  0.11223500064E+03 -0.12152793481E+03  0.12468011715E+03  0.20714938068E+03  0.00000000000E+00 0.  1.
<scales pt_clust_3="333.76929" pt_clust_4="48.84945" pt_clust_5="49.86882" pt_clust_6="49.86882"></scales>
<clustering>
<clus scale="   48.849">  4  6 -1 -1</clus>
<clus scale="   49.869">  4  5 -1 -1</clus>
<clus scale="  333.769">  2  3  1 -1</clus>
<clus scale="  333.769">  2  3  1 -1</clus>
</clustering>
</event>
<event>
 6    0  0.3667994E+002  0.9573064E+02  0.7546771E-02  0.1289539E+00
         21   -1    0    0  504  502  0.00000000000E+00  0.00000000000E+00  0.70823495088E+02  0.70823495088E+02  0.00000000000E+00 0. -1.
         -3   -1    0    0    0  501 -0.00000000000E+00 -0.00000000000E+00 -0.19580046269E+04  0.19580046269E+04  0.00000000000E+00 0. -1.
         21    1    1    2  503  502 -0.28274574924E+02 -0.26806674039E+02  0.53279267092E+02  0.66005527511E+02  0.00000000000E+00 0. -1.
         21    1    1    2  504  501 -0.24584681761E+02 -0.21583858891E+02 -0.80281113481E+03  0.80347743447E+03  0.00000000000E+00 0. -1.
         21    1    1    2  505  503  0.11927815056E+03  0.64603036333E+02 -0.50113580653E+03  0.51917042105E+03  0.00000000000E+00 0.  1.
         -3    1    1    2    0  505 -0.66418893872E+02 -0.16212503403E+02 -0.63651345755E+03  0.64017473894E+03  0.00000000000E+00 0. -1.
<scales pt_clust_3="39.14228" pt_clust_4="32.71497" pt_clust_5="95.73064" pt_clust_6="14000.00000"></scales>
<clustering>
<clus scale="   32.715">  2  4  1 -1</clus>
<clus scale="   39.142">  1  3  2 -1</clus>
<clus scale="   95.731">  1  5  2 -1</clus>
<clus scale="   39.142">  1  3  2 -1</clus>
</clustering>
</event>
<event>
 6    0  0.3667994E+002  0.9934224E+02  0.7546771E-02  0.1281685E+00
          1   -1    0    0  505    0 -0.00000000000E+00  0.00000000000E+00  0.22746338857E+03  0.22746338857E+03  0.00000000000E+00 0. -1.
         21   -1    0    0  504  502  0.00000000000E+00 -0.00000000000E+00 -0.21359446656E+03  0.21359446656E+03  0.00000000000E+00 0. -1.
         21    1    1    2  503  502 -0.41963952871E+02 -0.54511836748E+02 -0.77504919628E+02  0.10363168556E+03  0.00000000000E+00 0. -1.
         21    1    1    2  504  501  0.11576856144E+02  0.40385717547E+02 -0.38257514940E+02  0.56821362438E+02  0.00000000000E+00 0. -1.
         21    1    1    2  505  503 -0.58462024272E+02 -0.45085343960E+02  0.15427159192E+03  0.17102695868E+03  0.00000000000E+00 0. -1.
          1    1    1    2  501    0  0.88849120998E+02  0.59211463161E+02 -0.24640235341E+02  0.10957784844E+03  0.00000000000E+00 0. -1.
<scales pt_clust_3="68.79327" pt_clust_4="38.29787" pt_clust_5="78.36636" pt_clust_6="38.29787"></scales>
<clustering>
<clus scale="   38.298">  4  6 -1 -1</clus>
<clus scale="   68.793">  2  3  1 -1</clus>
<clus scale="   78.366">  1  5  2 -1</clus>
<clus scale="   68.793">  2  3  1 -1</clus>
</clustering>
</event>
<event>
 6    0  0.3667994E+002  0.1191115E+03  0.7546771E-02  0.1244570E+00
         21   -1    0    0  504  502  0.00000000000E+00  0.00000000000E+00  0.88521366689E+02  0.88521366689E+02  0.00000000000E+00 0.  1.
          2   -1    0    0  505    0 -0.00000000000E+00 -0.00000000000E+00 -0.60711630835E+03  0.60711630835E+03  0.00000000000E+00 0. -1.
         21    1    1    2  503  502 -0.11935854423E+03 -0.32979677665E+02  0.16006080894E+01  0.12384136291E+03  0.00000000000E+00 0.  1.
         21    1    1    2  504  501  0.22962197499E+02 -0.23487408447E+02 -0.19393292164E+02  0.38144732932E+02  0.00000000000E+00 0.  1.
         21    1    1    2  505  503 -0.35119975433E+02 -0.10633390051E+02 -0.10008239473E+03  0.10659722039E+03  0.00000000000E+00 0. -1.
          2    1    1    2  501    0  0.13151632217E+03  0.67100476163E+02 -0.40071986286E+03  0.42705435882E+03  0.00000000000E+00 0. -1.
<scales pt_clust_3="14000.00000" pt_clust_4="32.84693" pt_clust_5="36.08998" pt_clust_6="119.11148"></scales>
<clustering>
<clus scale="   32.847">  1  4  2 -1</clus>
<clus scale="   36.090">  2  5  1 -1</clus>
<clus scale="  119.111">  2  6  1 -1</clus>
<clus scale="   32.847">  1  3  2 -1</clus>
</clustering>
</event>
<event>
 6    0  0.3667994E+002  0.1068319E+03  0.7546771E-02  0.1266552E+00
          2   -1    0    0  505    0 -0.00000000000E+00  0.00000000000E+00  0.17847366442E+04  0.17847366442E+04  0.00000000000E+00 0.  1.
         21   -1    0    0  504  502  0.00000000000E+00 -0.00000000000E+00 -0.27906730306E+02  0.27906730306E+02  0.00000000000E+00 0. -1.
         21    1    1    2  503  501 -0.66490504648E+02 -0.78615742243E+02  0.11745875383E+04  0.11790917298E+04  0.00000000000E+00 0.  1.
         21    1    1    2  504  503  0.72080737149E+02  0.79422051804E+02  0.10392965895E+03  0.14934814692E+03  0.00000000000E+00 0. -1.
         21    1    1    2  505  502  0.28870762383E+02 -0.20309739784E+02  0.20059967620E+03  0.20368170400E+03  0.00000000000E+00 0. -1.
          2    1    1    2  501    0 -0.34460994884E+02  0.19503430223E+02  0.27771304047E+03  0.28052179382E+03  0.00000000000E+00 0.  1.
<scales pt_clust_3="106.83191" pt_clust_4="14000.00000" pt_clust_5="35.29882" pt_clust_6="33.40719"></scales>
<clustering>
<clus scale="   35.299">  1  5  2 -1</clus>
<clus scale="   33.407">  1  6  2 -1</clus>
<clus scale="  106.832">  1  3  2 -1</clus>
<clus scale="  106.832">  2  3  1 -1</clus>
</clustering>
</event>
<event>
 6    0  0.3667994E+002  0.2250314E+03  0.7546771E-02  0.1130187E+00
          1   -1    0    0  503    0 -0.00000000000E+00  0.00000000000E+00  0.12118185969E+04  0.12118185969E+04  0.00000000000E+00 0.  1.
         21   -1    0    0  505  502  0.00000000000E+00 -0.00000000000E+00 -0.59295697699E+02  0.59295697699E+02  0.00000000000E+00 0.  1.
         21    1    1    2  503  502  0.20869325569E+02  0.55560655202E+02  0.30149093135E+03  0.30727723124E+03  0.00000000000E+00 0.  1.
         21    1    1    2  504  501  0.13814134685E+03  0.55556481027E+01  0.47340458077E+03  0.49317927170E+03  0.00000000000E+00 0.  1.
         21    1    1    2  505  504 -0.21412928234E+03 -0.69580259935E+02  0.30151103617E+03  0.37629996952E+03  0.00000000000E+00 0.  1.
          1    1    1    2  501    0  0.55118609920E+02  0.84639566308E+01  0.76116350879E+02  0.94357822106E+02  0.00000000000E+00 0.  1.
<scales pt_clust_3="59.35078" pt_clust_4="47.86745" pt_clust_5="212.03420" pt_clust_6="47.86745"></scales>
<clustering>
<clus scale="   47.867">  4  6 -1 -1</clus>
<clus scale="   59.351">  1  3  2 -1</clus>
<clus scale="  212.034">  2  5  1 -1</clus>
<clus scale="  212.034">  2  3  1 -1</clus>
</clustering>
</event>
<event>
 6    0  0.3667994E+002  0.1268977E+03  0.7546771E-02  0.1232133E+00
         21   -1    0    0  504  502  0.00000000000E+00  0.00000000000E+00  0.22213559525E+03  0.22213559525E+03  0.00000000000E+00 0. -1.
          2   -1    0    0  503    0 -0.00000000000E+00 -0.00000000000E+00 -0.51191202813E+03  0.51191202813E+03  0.00000000000E+00 0.  1.
         21    1    1    2  503  502  0.22591662142E+02 -0.69064676283E+02 -0.92052664982E+02  0.11727747371E+03  0.00000000000E+00 0.  1.
         21    1    1    2  504  505 -0.10671598657E+03  0.80277396325E+02  0.15369269283E+03  0.20360305985E+03  0.00000000000E+00 0. -1.
         21    1    1    2  505  501  0.12422280350E+03  0.28471750572E+02 -0.12026330226E+03  0.17522901404E+03  0.00000000000E+00 0.  1.
          2    1    1    2  501    0 -0.40098479075E+02 -0.39684470614E+02 -0.23115315848E+03  0.23793807579E+03  0.00000000000E+00 0.  1.
<scales pt_clust_3="84.37022" pt_clust_4="14000.00000" pt_clust_5="126.89774" pt_clust_6="56.41582"></scales>
<clustering>
<clus scale="   56.416">  2  6  1 -1</clus>
<clus scale="   84.370">  2  3  1 -1</clus>
<clus scale="  126.898">  2  5  1 -1</clus>
<clus scale="  126.898">  1  3  2 -1</clus>
</clustering>
</event>
<event>
 6    0  0.3667994E+002  0.1627822E+03  0.7546771E-02  0.1185591E+00
         21   -1    0    0  505  502  0.00000000000E+00  0.00000000000E+00  0.22657373592E+02  0.22657373592E+02  0.00000000000E+00 0. -1.
          2   -1    0    0  504    0 -0.00000000000E+00 -0.00000000000E+00 -0.17738461592E+04  0.17738461592E+04  0.00000000000E+00 0. -1.
         21    1    1    2  503  502  0.95368049268E+01 -0.15350414353E+03 -0.39719131615E+03  0.42592888415E+03  0.00000000000E+00 0. -1.
         21    1    1    2  504  503  0.38018573764E+02 -0.56474071425E+01 -0.18568327206E+03  0.18961957357E+03  0.00000000000E+00 0. -1.
         21    1    1    2  505  501 -0.25246480577E+02  0.49371266738E+02 -0.26637099731E+03  0.27208163292E+03  0.00000000000E+00 0. -1.
          2    1    1    2  501    0 -0.22308898114E+02  0.10978028393E+03 -0.90194320011E+03  0.90887344218E+03  0.00000000000E+00 0. -1.
<scales pt_clust_3="156.17918" pt_clust_4="38.43573" pt_clust_5="32.28801" pt_clust_6="32.28801"></scales>
<clustering>
<clus scale="   32.288">  5  6 -1 -1</clus>
<clus scale="   38.436">  2  4  1 -1</clus>
<clus scale="  156.179">  1  3  2 -1</clus>
<clus scale="  156.179">  1  3  2 -1</clus>
</clustering>
</event>
<event>
 6    0  0.3667994E+002  0.1233887E+03  0.7546771E-02  0.1237609E+00
          1   -1    0    0  504    0 -0.00000000000E+00  0.00000000000E+00  0.84176058218E+03  0.84176058218E+03  0.00000000000E+00 0.  1.
         21   -1    0    0  505  502  0.00000000000E+00 -0.00000000000E+00 -0.12000531359E+03  0.12000531359E+03  0.00000000000E+00 0. -1.
         21    1    1    2  503  502 -0.11066340926E+03  0.31021396833E+02  0.39126210983E+02  0.12140666207E+03  0.00000000000E+00 0. -1.
         21    1    1    2  504  503  0.37369191452E+02 -0.38301529433E+02  0.16127487325E+03  0.16992071200E+03  0.00000000000E+00 0.  1.
         21    1    1    2  505  501 -0.92927750505E+01  0.29491225377E+02 -0.68111378061E+02  0.74801389451E+02  0.00000000000E+00 0. -1.
          1    1    1    2  501    0  0.82586992855E+02 -0.22211092777E+02  0.58946556242E+03  0.59563713224E+03  0.00000000000E+00 0.  1.
<scales pt_clust_3="123.38868" pt_clust_4="51.06901" pt_clust_5="30.92067" pt_clust_6="14000.00000"></scales>
<clustering>
<clus scale="   30.921">  2  5  1 -1</clus>
<clus scale="   51.069">  1  4  2 -1</clus>
<clus scale="  123.389">  2  3  1 -1</clus>
<clus scale="   30.921">  2  3  1 -1</clus>
</clustering>
</event>
<event>
 6    0  0.3667994E+002  0.1232353E+03  0.7546771E-02  0.1237853E+00
         21   -1    0    0  505  502  0.00000000000E+00  0.00000000000E+00  0.13257048153E+03  0.13257048153E+03  0.00000000000E+00 0.  1.
          2   -1    0    0  503    0 -0.00000000000E+00 -0.00000000000E+00 -0.63306727468E+03  0.63306727468E+03  0.00000000000E+00 0. -1.
         21    1    1    2  503  504 -0.33445111337E+02 -0.23507580599E+02 -0.55279967103E+02  0.68753593221E+02  0.00000000000E+00 0. -1.
         21    1    1    2  504  502 -0.58042279506E+02 -0.86423835320E+02  0.91026319435E+02  0.13828874268E+03  0.00000000000E+00 0.  1.
         21    1    1    2  505  501 -0.44897248426E+01  0.33327427557E+02 -0.11753887476E+03  0.12225490639E+03  0.00000000000E+00 0. -1.
          2    1    1    2  501    0  0.95977115685E+02  0.76603988363E+02 -0.41870427072E+03  0.43634051392E+03  0.00000000000E+00 0. -1.
<scales pt_clust_3="40.88009" pt_clust_4="105.68659" pt_clust_5="33.16810" pt_clust_6="33.16810"></scales>
<clustering>
<clus scale="   33.168">  5  6 -1 -1</clus>
<clus scale="   40.880">  2  3  1 -1</clus>
<clus scale="  105.687">  1  4  2 -1</clus>
<clus scale="  105.687">  1  3  2 -1</clus>
</clustering>
</event>
<event>
 6    0  0.3667994E+002  0.1124322E+03  0.7546771E-02  0.1256131E+00
         21   -1    0    0  505  502  0.00000000000E+00  0.00000000000E+00  0.33767295728E+03  0.33767295728E+03  0.00000000000E+00 0. -1.
          2   -1    0    0  504    0 -0.00000000000E+00 -0.00000000000E+00 -0.87334186099E+03  0.87334186099E+03  0.00000000000E+00 0.  1.
         21    1    1    2  503  501  0.89369645002E+02 -0.55235024942E+02 -0.97216915713E+02  0.14313968747E+03  0.00000000000E+00 0.  1.
         21    1    1    2  504  502 -0.43030730106E+02 -0.10726203204E+02 -0.86590436350E+02  0.97286169808E+02  0.00000000000E+00 0.  1.
         21    1    1    2  505  503  0.43158196638E+02  0.66949135819E+02  0.30113265129E+03  0.31148947077E+03  0.00000000000E+00 0. -1.
          2    1    1    2  501    0 -0.89497111534E+02 -0.98790767253E+00 -0.65299420294E+03  0.65909949022E+03  0.00000000000E+00 0.  1.
<scales pt_clust_3="14000.00000" pt_clust_4="44.34744" pt_clust_5="79.44036" pt_clust_6="112.43224"></scales>
<clustering>
<clus scale="   44.347">  2  4  1 -1</clus>
<clus scale="   79.440">  1  5  2 -1</clus>
<clus scale="  112.432">  2  6  1 -1</clus>
<clus scale="   79.440">  1  3  2 -1</clus>
</clustering>
</event>
<event>
 6    0  0.3667994E+002  0.1006778E+03  0.7546771E-02  0.1278877E+00
         21   -1    0    0  504  502  0.00000000000E+00  0.00000000000E+00  0.54013294250E+03  0.54013294250E+03  0.00000000000E+00 0. -1.
          4   -1    0    0  503    0 -0.00000000000E+00 -0.00000000000E+00 -0.94239193261E+02  0.94239193261E+02  0.00000000000E+00 0. -1.
         21    1    1    2  503  505 -0.86019163447E+02 -0.33688597746E+02 -0.46671557451E+02  0.10350097764E+03  0.00000000000E+00 0. -1.
         21    1    1    2  504  501  0.36729046012E+02  0.61344570280E+02  0.30614182444E+03  0.31438033621E+03  0.00000000000E+00 0. -1.
         21    1    1    2  505  502  0.88013189157E+01 -0.53775545217E+02  0.59258583170E+02  0.80503740021E+02  0.00000000000E+00 0. -1.
          4    1    1    2  501    0  0.40488798519E+02  0.26119572682E+02  0.12716489909E+03  0.13598708189E+03  0.00000000000E+00 0. -1.
<scales pt_clust_3="93.12625" pt_clust_4="31.40465" pt_clust_5="54.49103" pt_clust_6="31.40465"></scales>
<clustering>
<clus scale="   31.405">  4  6 -1 -1</clus>
<clus scale="   54.491">  1  5  2 -1</clus>
<clus scale="   93.126">  2  3  1 -1</clus>
<clus scale="   54.491">  1  3  2 -1</clus>
</clustering>
</event>
<event>
 6    0  0.3667994E+002  0.1526365E+03  0.7546771E-02  0.1197270E+00
         21   -1    0    0  505  502  0.00000000000E+00  0.00000000000E+00  0.11799601169E+03  0.11799601169E+03  0.00000000000E+00 0.  1.
          2   -1    0    0  503    0 -0.00000000000E+00 -0.00000000000E+00 -0.14383825724E+04  0.14383825724E+04  0.00000000000E+00 0. -1.
         21    1    1    2  503  502  0.24172144838E+03 -0.36591281747E+01 -0.62739669815E+03  0.67236096308E+03  0.00000000000E+00 0.  1.
         21    1    1    2  504  501 -0.92807598917E+02  0.48360345725E+02 -0.21638754449E+03  0.24036543608E+03  0.00000000000E+00 0.  1.
         21    1    1    2  505  504 -0.64024998740E+02 -0.34705658601E+02  0.63624904171E+02  0.96704765308E+02  0.00000000000E+00 0.  1.
          2    1    1    2  501    0 -0.84888850725E+02 -0.99955589494E+01 -0.54022722224E+03  0.54694741962E+03  0.00000000000E+00 0. -1.
<scales pt_clust_3="14000.00000" pt_clust_4="152.63648" pt_clust_5="72.82639" pt_clust_6="91.51473"></scales>
<clustering>
<clus scale="   72.826">  1  5  2 -1</clus>
<clus scale="   91.515">  2  6  1 -1</clus>
<clus scale="  152.636">  1  4  2 -1</clus>
<clus scale="   72.826">  1  3  2 -1</clus>
</clustering>
</event>
<event>
 6    0  0.3667994E+002  0.1389743E+03  0.7546771E-02  0.1214716E+00
         21   -1    0    0  503  502  0.00000000000E+00  0.00000000000E+00  0.63336450483E+03  0.63336450483E+03  0.00000000000E+00 0. -1.
          1   -1    0    0  504    0 -0.00000000000E+00 -0.00000000000E+00 -0.38612001809E+04  0.38612001809E+04  0.00000000000E+00 0. -1.
         21    1    1    2  503  501 -0.10250709712E+01  0.11407713384E+03 -0.23371825802E+03  0.26007473420E+03  0.00000000000E+00 0. -1.
         21    1    1    2  504  505  0.37678830482E+02 -0.13893175818E+03 -0.78725672195E+03  0.80030923645E+03  0.00000000000E+00 0. -1.
         21    1    1    2  505  502 -0.15079159075E+01  0.54084879320E+02  0.61228173545E+03  0.61466769197E+03  0.00000000000E+00 0. -1.
          1    1    1    2  501    0 -0.35145843603E+02 -0.29230254986E+02 -0.28191424315E+04  0.28195130231E+04  0.00000000000E+00 0. -1.
<scales pt_clust_3="14000.00000" pt_clust_4="138.97430" pt_clust_5="54.07358" pt_clust_6="45.71256"></scales>
<clustering>
<clus scale="   45.713">  2  6  1 -1</clus>
<clus scale="   54.074">  1  5  2 -1</clus>
<clus scale="  138.974">  2  4  1 -1</clus>
<clus scale="   54.074">  1  3  2 -1</clus>
</clustering>
</event>
<event>
 6    0  0.3667994E+002  0.6984374E+02  0.7546771E-02  0.1360625E+00
          2   -1    0    0  503    0 -0.00000000000E+00  0.00000000000E+00  0.16107397299E+04  0.16107397299E+04  0.00000000000E+00 0.  1.
         21   -1    0    0  504  502  0.00000000000E+00 -0.00000000000E+00 -0.91805618883E+02  0.91805618883E+02  0.00000000000E+00 0.  1.
         21    1    1    2  503  505  0.25051172947E+01  0.40843210179E+02  0.72059320664E+03  0.72175412219E+03  0.00000000000E+00 0.  1.
         21    1    1    2  504  501  0.68836128261E+02  0.63523872795E+01 -0.69365779515E+02  0.97930468935E+02  0.00000000000E+00 0.  1.
         21    1    1    2  505  502  0.25315868609E+02 -0.60089332968E+02  0.36687389499E+03  0.37262323594E+03  0.00000000000E+00 0.  1.
          2    1    1    2  501    0 -0.96657114165E+02  0.12893735509E+02  0.50083278889E+03  0.51023752171E+03  0.00000000000E+00 0.  1.
<scales pt_clust_3="40.91996" pt_clust_4="69.84374" pt_clust_5="50.53132" pt_clust_6="14000.00000"></scales>
<clustering>
<clus scale="   40.920">  1  3  2 -1</clus>
<clus scale="   50.531">  1  5  2 -1</clus>
<clus scale="   69.844">  2  4  1 -1</clus>
<clus scale="   69.844">  2  3  1 -1</clus>
</clustering>
</event>
<event>
 6    0  0.3667994E+002  0.1364895E+03  0.7546771E-02  0.1218132E+00
         21   -1    0    0  505  502  0.00000000000E+00  0.00000000000E+00  0.28674535367E+02  0.28674535367E+02  0.00000000000E+00 0.  1.
          2   -1    0    0  504    0 -0.00000000000E+00 -0.00000000000E+00 -0.13362439566E+04  0.13362439566E+04  0.00000000000E+00 0.  1.
         21    1    1    2  503  501 -0.41355322878E+02  0.77876354218E+01 -0.24786716859E+03  0.25141408724E+03  0.00000000000E+00 0. -1.
         21    1    1    2  504  502  0.94151683513E+02  0.30912970625E+02 -0.90536703113E+02  0.13422758983E+03  0.00000000000E+00 0.  1.
         21    1    1    2  505  503  0.21867897139E+02  0.21692240312E+02 -0.95384923954E+02  0.10023493369E+03  0.00000000000E+00 0. -1.
          2    1    1    2  501    0 -0.74664257775E+02 -0.60392846359E+02 -0.87378062558E+03  0.87904188121E+03  0.00000000000E+00 0.  1.
<scales pt_clust_3="39.86643" pt_clust_4="122.55737" pt_clust_5="30.80192" pt_clust_6="39.86643"></scales>
<clustering>
<clus scale="   30.802">  1  5  2 -1</clus>
<clus scale="   39.866">  3  6 -1 -1</clus>
<clus scale="  122.557">  1  4  2 -1</clus>
<clus scale="   30.802">  1  3  2 -1</clus>
</clustering>
</event>
<event>
 6    0  0.3667994E+002  0.1470869E+03  0.7546771E-02  0.1204099E+00
         21   -1    0    0  505  502  0.00000000000E+00  0.00000000000E+00  0.26430654025E+03  0.26430654025E+03  0.00000000000E+00 0.  1.
          2   -1    0    0  503    0 -0.00000000000E+00 -0.00000000000E+00 -0.97505156625E+03  0.97505156625E+03  0.00000000000E+00 0.  1.
         21    1    1    2  503  502 -0.38758022031E+02  0.11574579644E+03  0.40442898190E+02  0.12858810862E+03  0.00000000000E+00 0.  1.
         21    1    1    2  504  501  0.54146468873E+02 -0.33506887704E+01 -0.29430780299E+02  0.61719024908E+02  0.00000000000E+00 0.  1.
         21    1    1    2  505  504  0.17548798969E+02  0.34189805659E+02  0.15490868856E+03  0.15960452671E+03  0.00000000000E+00 0.  1.
          2    1    1    2  501    0 -0.32937245811E+02 -0.14658491333E+03 -0.87666583245E+03  0.88944644625E+03  0.00000000000E+00 0.  1.
<scales pt_clust_3="147.08687" pt_clust_4="56.82168" pt_clust_5="38.43050" pt_clust_6="14000.00000"></scales>
<clustering>
<clus scale="   38.430">  1  5  2 -1</clus>
<clus scale="   56.822">  1  4  2 -1</clus>
<clus scale="  147.087">  1  3  2 -1</clus>
<clus scale="   38.430">  1  3  2 -1</clus>
</clustering>
</event>
<event>
 6    0  0.3667994E+002  0.2148535E+03  0.7546771E-02  0.1137779E+00
          2   -1    0    0  503    0 -0.00000000000E+00  0.00000000000E+00  0.28386477678E+04  0.28386477678E+04  0.00000000000E+00 0.  1.
         21   -1    0    0  504  502  0.00000000000E+00 -0.00000000000E+00 -0.93347522043E+02  0.93347522043E+02  0.00000000000E+00 0.  1.
         21    1    1    2  503  505 -0.94828775005E+02  0.12171341605E+03  0.22800531003E+04  0.22852677726E+04  0.00000000000E+00 0.  1.
         21    1    1    2  504  501 -0.36338134732E+02 -0.30650372329E+02  0.15686815926E+03  0.16391316223E+03  0.00000000000E+00 0.  1.
         21    1    1    2  505  502  0.24037690122E+03 -0.35833065155E+02  0.16228820914E+03  0.29223710583E+03  0.00000000000E+00 0.  1.
          2    1    1    2  501    0 -0.10920999149E+03 -0.55229978561E+02  0.14609077703E+03  0.19057724918E+03  0.00000000000E+00 0.  1.
<scales pt_clust_3="154.29404" pt_clust_4="45.45758" pt_clust_5="202.09498" pt_clust_6="45.45758"></scales>
<clustering>
<clus scale="   45.458">  4  6 -1 -1</clus>
<clus scale="  154.294">  1  3  2 -1</clus>
<clus scale="  202.095">  2  5  1 -1</clus>
<clus scale="  202.095">  2  3  1 -1</clus>
</clustering>
</event>
<event>
 6    0  0.3667994E+002  0.1968329E+03  0.7546771E-02  0.1152439E+00
         21   -1    0    0  503  502  0.00000000000E+00  0.00000000000E+00  0.12367440483E+03  0.12367440483E+03  0.00000000000E+00 0. -1.
          2   -1    0    0  504    0 -0.00000000000E+00 -0.00000000000E+00 -0.30218750876E+04  0.30218750876E+04  0.00000000000E+00 0. -1.
         21    1    1    2  503  501  0.12807770587E+03  0.13797988071E+03 -0.40966477132E+03  0.45085205010E+03  0.00000000000E+00 0. -1.
         21    1    1    2  504  505 -0.13285202389E+03 -0.22729137705E+03 -0.18677036295E+04  0.18861675105E+04  0.00000000000E+00 0. -1.
         21    1    1    2  505  502 -0.67596212131E+02  0.34794795665E+02  0.75017415919E+02  0.10680607844E+03  0.00000000000E+00 0. -1.
          2    1    1    2  501    0  0.72370530150E+02  0.54516700678E+02 -0.69584969785E+03  0.70172385330E+03  0.00000000000E+00 0. -1.
<scales pt_clust_3="196.83286" pt_clust_4="14000.00000" pt_clust_5="76.02582" pt_clust_6="87.85793"></scales>
<clustering>
<clus scale="   76.026">  1  5  2 -1</clus>
<clus scale="   87.858">  2  6  1 -1</clus>
<clus scale="  196.833">  1  3  2 -1</clus>
<clus scale="   76.026">  1  3  2 -1</clus>
</clustering>
</event>
<event>
 6    0  0.3667994E+002  0.8841726E+02  0.7546771E-02  0.1306730E+00
          2   -1    0    0  505    0 -0.00000000000E+00  0.00000000000E+00  0.13309505043E+04  0.13309505043E+04  0.00000000000E+00 0.  1.
         21   -1    0    0  503  502  0.00000000000E+00 -0.00000000000E+00 -0.50481550474E+03  0.50481550474E+03  0.00000000000E+00 0.  1.
         21    1    1    2  503  501 -0.53662981881E+02  0.59674792094E+02 -0.19656801137E+02  0.82626789038E+02  0.00000000000E+00 0.  1.
         21    1    1    2  504  502  0.63956328999E+02 -0.34803748574E+02 -0.43025099322E+03  0.43636868597E+03  0.00000000000E+00 0.  1.
         21    1    1    2  505  504  0.77996034239E+02 -0.42058548114E+02  0.11866626266E+04  0.11899665929E+04  0.00000000000E+00 0.  1.
          2    1    1    2  501    0 -0.88289381358E+02  0.17187504594E+02  0.89380167264E+02  0.12680394109E+03  0.00000000000E+00 0.  1.
<scales pt_clust_3="35.67311" pt_clust_4="72.81286" pt_clust_5="14000.00000" pt_clust_6="88.41726"></scales>
<clustering>
<clus scale="   72.813">  2  4  1 -1</clus>
<clus scale="   35.673">  2  3  1 -1</clus>
<clus scale="   88.417">  2  6  1 -1</clus>
<clus scale="   72.813">  2  3  1 -1</clus>
</clustering>
</event>
<event>
 6    0  0.3667994E+002  0.1736661E+03  0.7546771E-02  0.1174078E+00
         21   -1    0    0  504  502  0.00000000000E+00  0.00000000000E+00  0.23623807636E+04  0.23623807636E+04  0.00000000000E+00 0.  1.
          2   -1    0    0  505    0 -0.00000000000E+00 -0.00000000000E+00 -0.17103719595E+03  0.17103719595E+03  0.00000000000E+00 0.  1.
         21    1    1    2  503  502  0.36976177660E+02  0.17016603248E+03  0.17412162526E+03  0.24625607953E+03  0.00000000000E+00 0.  1.
         21    1    1    2  504  501 -0.53105566181E+02  0.69936676684E+01  0.20691791838E+04  0.20698723649E+04  0.00000000000E+00 0.  1.
         21    1    1    2  505  503 -0.32969936549E+02 -0.74755798073E+01 -0.27479872911E+01  0.33918320177E+02  0.00000000000E+00 0.  1.
          2    1    1    2  501    0  0.49099325069E+02 -0.16968412035E+03 -0.49209254121E+02  0.18337119488E+03  0.00000000000E+00 0.  1.
<scales pt_clust_3="14000.00000" pt_clust_4="53.63608" pt_clust_5="33.80682" pt_clust_6="173.66613"></scales>
<clustering>
<clus scale="   33.807">  2  5  1 -1</clus>
<clus scale="   53.636">  1  4  2 -1</clus>
<clus scale="  173.666">  2  6  1 -1</clus>
<clus scale="   53.636">  1  3  2 -1</clus>
</clustering>
</event>
<event>
 6    0  0.3667994E+002  0.1507802E+03  0.7546771E-02  0.1199518E+00
         -4   -1    0    0    0  501 -0.00000000000E+00  0.00000000000E+00  0.91322256015E+02  0.91322256015E+02  0.00000000000E+00 0.  1.
         21   -1    0    0  504  502  0.00000000000E+00 -0.00000000000E+00 -0.36064124009E+03  0.36064124009E+03  0.00000000000E+00 0.  1.
         21    1    1    2  503  501 -0.12837750028E+03 -0.38296058233E+02 -0.16067091733E+02  0.13492784031E+03  0.00000000000E+00 0.  1.
         21    1    1    2  504  503  0.31836675666E+01 -0.31264427786E+02 -0.59467568473E+02  0.67260626551E+02  0.00000000000E+00 0. -1.
         21    1    1    2  505  502  0.71201141792E+02  0.73487378778E+02 -0.11207009824E+03  0.15175540963E+03  0.00000000000E+00 0.  1.
         -4    1    1    2    0  505  0.53992690919E+02 -0.39268927588E+01 -0.81714225634E+02  0.98019619620E+02  0.00000000000E+00 0.  1.
<scales pt_clust_3="135.68941" pt_clust_4="31.42611" pt_clust_5="51.01537" pt_clust_6="51.01537"></scales>
<clustering>
<clus scale="   31.426">  2  4  1 -1</clus>
<clus scale="   51.015">  5  6 -1 -1</clus>
<clus scale="  135.689">  1  3  2 -1</clus>
<clus scale="   31.426">  2  3  1 -1</clus>
</clustering>
</event>
<event>
 6    0  0.3667994E+002  0.1471544E+03  0.7546771E-02  0.1204014E+00
         21   -1    0    0  504  502  0.00000000000E+00  0.00000000000E+00  0.16405053526E+03  0.16405053526E+03  0.00000000000E+00 0. -1.
          2   -1    0    0  505    0 -0.00000000000E+00 -0.00000000000E+00 -0.48229403084E+04  0.48229403084E+04  0.00000000000E+00 0. -1.
         21    1    1    2  503  501 -0.62654800743E+02  0.45253822038E+02 -0.54158661230E+03  0.54707366148E+03  0.00000000000E+00 0. -1.
         21    1    1    2  504  503 -0.43060466176E+02  0.19285083667E+01 -0.49262401804E+03  0.49450616381E+03  0.00000000000E+00 0. -1.
         21    1    1    2  505  502 -0.10837100032E+01  0.63538756387E+02  0.15244264543E+03  0.16515782796E+03  0.00000000000E+00 0. -1.
          2    1    1    2  501    0  0.10679897692E+03 -0.11072108679E+03 -0.37771217883E+04  0.37802531904E+04  0.00000000000E+00 0. -1.
<scales pt_clust_3="32.50913" pt_clust_4="32.50913" pt_clust_5="63.54800" pt_clust_6="140.56811"></scales>
<clustering>
<clus scale="   32.509">  3  4 -1 -1</clus>
<clus scale="   63.548">  1  5  2 -1</clus>
<clus scale="  140.568">  2  6  1 -1</clus>
<clus scale="   63.548">  1  3  2 -1</clus>
</clustering>
</event>
<event>
 6    0  0.3667994E+002  0.8968214E+02  0.7546771E-02  0.1303623E+00
         21   -1    0    0  505  502  0.00000000000E+00  0.00000000000E+00  0.53951366960E+02  0.53951366960E+02  0.00000000000E+00 0. -1.
          2   -1    0    0  504    0 -0.00000000000E+00 -0.00000000000E+00 -0.20042498763E+04  0.20042498763E+04  0.00000000000E+00 0.  1.
         21    1    1    2  503  502 -0.29695389167E+02 -0.15791109496E+02 -0.59885287494E+03  0.59979658310E+03  0.00000000000E+00 0.  1.
         21    1    1    2  504  503 -0.18124762886E+02  0.24447389717E+02 -0.25287938081E+03  0.25470406972E+03  0.00000000000E+00 0.  1.
         21    1    1    2  505  501  0.11180173848E+02  0.88874733103E+02  0.10106203306E+02  0.90143495698E+02  0.00000000000E+00 0. -1.
          2    1    1    2  501    0  0.36639978205E+02 -0.97531013323E+02 -0.11086724569E+04  0.11135570948E+04  0.00000000000E+00 0.  1.
<scales pt_clust_3="36.65989" pt_clust_4="30.43324" pt_clust_5="89.68214" pt_clust_6="14000.00000"></scales>
<clustering>
<clus scale="   30.433">  2  4  1 -1</clus>
<clus scale="   36.660">  2  3  1 -1</clus>
<clus scale="   89.682">  1  5  2 -1</clus>
<clus scale="   89.682">  1  3  2 -1</clus>
</clustering>
</event>
<event>
 6    0  0.3667994E+002  0.8215448E+02  0.7546771E-02  0.1323046E+00
         21   -1    0    0  501  502  0.00000000000E+00  0.00000000000E+00  0.61985800788E+02  0.61985800788E+02  0.00000000000E+00 0.  1.
          2   -1    0    0  505    0 -0.00000000000E+00 -0.00000000000E+00 -0.71128026805E+03  0.71128026805E+03  0.00000000000E+00 0.  1.
         21    1    1    2  503  504 -0.26798933961E+02 -0.57493167299E+02 -0.13324876534E+03  0.14757669400E+03  0.00000000000E+00 0.  1.
         21    1    1    2  504  502  0.17285232400E+02 -0.77508148408E+02  0.64730176058E+01  0.79675543837E+02  0.00000000000E+00 0.  1.
         21    1    1    2  505  503  0.36212816961E+02  0.33743246211E+02 -0.23137193199E+03  0.23660715478E+03  0.00000000000E+00 0.  1.
          2    1    1    2  501    0 -0.26699115400E+02  0.10125806950E+03 -0.29114678754E+03  0.30940667623E+03  0.00000000000E+00 0.  1.
<scales pt_clust_3="50.23183" pt_clust_4="82.15448" pt_clust_5="49.49722" pt_clust_6="14000.00000"></scales>
<clustering>
<clus scale="   49.497">  2  5  1 -1</clus>
<clus scale="   50.232">  2  3  1 -1</clus>
<clus scale="   82.154">  1  4  2 -1</clus>
<clus scale="   82.154">  1  3  2 -1</clus>
</clustering>
</event>
<event>
 6    0  0.3667994E+002  0.1402294E+03  0.7546771E-02  0.1213021E+00
         21   -1    0    0  505  502  0.00000000000E+00  0.00000000000E+00  0.96084649207E+03  0.96084649207E+03  0.00000000000E+00 0. -1.
          1   -1    0    0  503    0 -0.00000000000E+00 -0.00000000000E+00 -0.85439726891E+03  0.85439726891E+03  0.00000000000E+00 0.  1.
         21    1    1    2  503  502 -0.35429019344E+02 -0.15055427227E+02 -0.25348556153E+02  0.46091545859E+02  0.00000000000E+00 0.  1.
         21    1    1    2  504  501 -0.83445110036E+01 -0.90992328597E+02 -0.45260844447E+03  0.46173979548E+03  0.00000000000E+00 0.  1.
         21    1    1    2  505  504  0.86509845291E+02  0.11128623176E+03  0.93934994899E+03  0.94986678296E+03  0.00000000000E+00 0. -1.
          1    1    1    2  501    0 -0.42736314943E+02 -0.52384759391E+01 -0.35494372521E+03  0.35754563668E+03  0.00000000000E+00 0.  1.
<scales pt_clust_3="38.49521" pt_clust_4="14000.00000" pt_clust_5="140.22936" pt_clust_6="59.33622"></scales>
<clustering>
<clus scale="   38.495">  2  3  1 -1</clus>
<clus scale="   59.336">  2  6  1 -1</clus>
<clus scale="  140.229">  1  5  2 -1</clus>
<clus scale="  140.229">  1  3  2 -1</clus>
</clustering>
</event>
<event>
 6    0  0.3667994E+002  0.7114343E+02  0.7546771E-02  0.1356247E+00
         21   -1    0    0  505  502  0.00000000000E+00  0.00000000000E+00  0.12292242681E+03  0.12292242681E+03  0.00000000000E+00 0. -1.
          3   -1    0    0  504    0 -0.00000000000E+00 -0.00000000000E+00 -0.48736330711E+03  0.48736330711E+03  0.00000000000E+00 0. -1.
         21    1    1    2  503  502 -0.11262599292E+02  0.54090130764E+02 -0.37663417147E+02  0.66866444350E+02  0.00000000000E+00 0. -1.
         21    1    1    2  504  503 -0.83795067170E+02  0.25781215897E+02 -0.23805097633E+03  0.25368198932E+03  0.00000000000E+00 0. -1.
         21    1    1    2  505  501  0.46996555440E+02 -0.61210539704E+02  0.81283252541E+02  0.11208199471E+03  0.00000000000E+00 0. -1.
          3    1    1    2  501    0  0.48061111022E+02 -0.18660806957E+02 -0.17000973936E+03  0.17765530554E+03  0.00000000000E+00 0. -1.
<scales pt_clust_3="71.14343" pt_clust_4="47.43473" pt_clust_5="14000.00000" pt_clust_6="51.55673"></scales>
<clustering>
<clus scale="   51.557">  2  6  1 -1</clus>
<clus scale="   47.435">  2  4  1 -1</clus>
<clus scale="   71.143">  2  3  1 -1</clus>
<clus scale="   71.143">  1  3  2 -1</clus>
</clustering>
</event>
<event>
 6    0  0.3667994E+002  0.3163198E+03  0.7546771E-02  0.1077356E+00
         21   -1    0    0  503  502  0.00000000000E+00  0.00000000000E+00  0.32736098308E+03  0.32736098308E+03  0.00000000000E+00 0. -1.
         -1   -1    0    0    0  501 -0.00000000000E+00 -0.00000000000E+00 -0.11650982770E+04  0.11650982770E+04  0.00000000000E+00 0.  1.
         21    1    1    2  503  501  0.23065087709E+03 -0.13362813269E+03  0.23056357102E+03  0.35244271198E+03  0.00000000000E+00 0. -1.
         21    1    1    2  504  502  0.27598689843E+02 -0.31204443905E+02 -0.24137677402E+02  0.48145949683E+02  0.00000000000E+00 0.  1.
         21    1    1    2  505  504 -0.59289176964E+02  0.24830309242E+02 -0.11894707089E+03  0.13520412876E+03  0.00000000000E+00 0. -1.
         -1    1    1    2    0  505 -0.19896038997E+03  0.14000226736E+03 -0.92521611665E+03  0.95666646965E+03  0.00000000000E+00 0.  1.
<scales pt_clust_3="303.34172" pt_clust_4="41.65819" pt_clust_5="45.93963" pt_clust_6="45.93963"></scales>
<clustering>
<clus scale="   41.658">  1  4  2 -1</clus>
<clus scale="   45.940">  5  6 -1 -1</clus>
<clus scale="  303.342">  1  3  2 -1</clus>
<clus scale="   41.658">  1  3  2 -1</clus>
</clustering>
</event>
<event>
 6    0  0.3667994E+002  0.1173098E+03  0.7546771E-02  0.1247602E+00
          2   -1    0    0  505    0 -0.00000000000E+00  0.00000000000E+00  0.15868485472E+04  0.15868485472E+04  0.00000000000E+00 0. -1.
         21   -1    0    0  504  502  0.00000000000E+00 -0.00000000000E+00 -0.13481056890E+03  0.13481056890E+03  0.00000000000E+00 0. -1.
         21    1    1    2  503  501  0.37720979897E+02  0.25368869045E+01  0.43492177712E+03  0.43656186313E+03  0.00000000000E+00 0. -1.
         21    1    1    2  504  503 -0.26769071244E+02  0.13044236663E+03  0.35288743022E+03  0.37717546659E+03  0.00000000000E+00 0.  1.
         21    1    1    2  505  502 -0.64477174606E+02 -0.73105783699E+02 -0.99904172371E+02  0.13958010357E+03  0.00000000000E+00 0. -1.
          2    1    1    2  501    0  0.53525265953E+02 -0.59873469832E+02  0.76413294330E+03  0.76834168280E+03  0.00000000000E+00 0. -1.
<scales pt_clust_3="33.93982" pt_clust_4="106.37023" pt_clust_5="97.47698" pt_clust_6="33.93982"></scales>
<clustering>
<clus scale="   33.940">  3  6 -1 -1</clus>
<clus scale="   97.477">  2  5  1 -1</clus>
<clus scale="  106.370">  2  4  1 -1</clus>
<clus scale="   97.477">  2  3  1 -1</clus>
</clustering>
</event>
<event>
 6    0  0.3667994E+002  0.1597968E+03  0.7546771E-02  0.1188926E+00
          1   -1    0    0  504    0 -0.00000000000E+00  0.00000000000E+00  0.10564659219E+04  0.10564659219E+04  0.00000000000E+00 0. -1.
         21   -1    0    0  501  502  0.00000000000E+00 -0.00000000000E+00 -0.17058483444E+03  0.17058483444E+03  0.00000000000E+00 0.  1.
         21    1    1    2  503  502 -0.72315964131E+02 -0.13103042595E+03 -0.61038044648E+02  0.16162986756E+03  0.00000000000E+00 0.  1.
         21    1    1    2  504  505  0.72591945915E+02 -0.11016510308E+02  0.13172262577E+03  0.15080386020E+03  0.00000000000E+00 0.  1.
         21    1    1    2  505  503 -0.14311441754E+03 -0.62151185488E+02  0.41284362171E+03  0.44134381422E+03  0.00000000000E+00 0.  1.
          1    1    1    2  501    0  0.14283843576E+03  0.20419812174E+03  0.40235288459E+03  0.47327321432E+03  0.00000000000E+00 0. -1.
<scales pt_clust_3="159.79677" pt_clust_4="73.42312" pt_clust_5="128.30135" pt_clust_6="14000.00000"></scales>
<clustering>
<clus scale="   73.423">  1  4  2 -1</clus>
<clus scale="  128.301">  1  5  2 -1</clus>
<clus scale="  159.797">  2  3  1 -1</clus>
<clus scale="  159.797">  2  3  1 -1</clus>
</clustering>
</event>
<event>
 6    0  0.3667994E+002  0.1129433E+03  0.7546771E-02  0.1255214E+00
          1   -1    0    0  505    0 -0.00000000000E+00  0.00000000000E+00  0.11314030590E+04  0.11314030590E+04  0.00000000000E+00 0. -1.
         21   -1    0    0  504  502  0.00000000000E+00 -0.00000000000E+00 -0.59928585463E+02  0.59928585463E+02  0.00000000000E+00 0. -1.
         21    1    1    2  503  502 -0.13870205759E+02  0.15922744120E+03  0.31431608705E+03  0.35261928934E+03  0.00000000000E+00 0. -1.
         21    1    1    2  504  501 -0.13061180450E+02 -0.42990613436E+02 -0.14568180202E+02  0.47233665459E+02  0.00000000000E+00 0. -1.
         21    1    1    2  505  503  0.16798454548E+02 -0.36978683713E+02  0.60739110379E+03  0.60874753724E+03  0.00000000000E+00 0. -1.
          1    1    1    2  501    0  0.10132931661E+02 -0.79258144046E+02  0.16433546289E+03  0.18273115242E+03  0.00000000000E+00 0. -1.
<scales pt_clust_3="112.94333" pt_clust_4="45.89038" pt_clust_5="40.61541" pt_clust_6="14000.00000"></scales>
<clustering>
<clus scale="   40.615">  1  5  2 -1</clus>
<clus scale="   45.890">  2  4  1 -1</clus>
<clus scale="  112.943">  2  3  1 -1</clus>
<clus scale="   45.890">  2  3  1 -1</clus>
</clustering>
</event>
<event>
 6    0  0.3667994E+002  0.1300574E+03  0.7546771E-02  0.1227371E+00
          1   -1    0    0  503    0 -0.00000000000E+00  0.00000000000E+00  0.11305288905E+04  0.11305288905E+04  0.00000000000E+00 0.  1.
         21   -1    0    0  501  502  0.00000000000E+00 -0.00000000000E+00 -0.58815394670E+02  0.58815394670E+02  0.00000000000E+00 0. -1.
         21    1    1    2  503  505  0.10535965141E+02 -0.81720707902E+02  0.38475082361E+03  0.39347487458E+03  0.00000000000E+00 0.  1.
         21    1    1    2  504  502 -0.12133676531E+03 -0.22270776885E+02  0.58956967329E+02  0.13672791272E+03  0.00000000000E+00 0. -1.
         21    1    1    2  505  504  0.42816897615E+02 -0.27116998252E+02  0.20205180153E+03  0.20831118265E+03  0.00000000000E+00 0.  1.
          1    1    1    2  501    0  0.67983902556E+02  0.13110848304E+03  0.42595390338E+03  0.45083031524E+03  0.00000000000E+00 0.  1.
<scales pt_clust_3="43.78595" pt_clust_4="123.36368" pt_clust_5="43.78595" pt_clust_6="117.46477"></scales>
<clustering>
<clus scale="   43.786">  3  5 -1 -1</clus>
<clus scale="  123.364">  2  4  1 -1</clus>
<clus scale="  117.465">  2  6  1 -1</clus>
<clus scale="  123.364">  2  3  1 -1</clus>
</clustering>
</event>
<event>
 6    0  0.3667994E+002  0.1012621E+03  0.7546771E-02  0.1277664E+00
          2   -1    0    0  505    0 -0.00000000000E+00  0.00000000000E+00  0.12593541190E+04  0.12593541190E+04  0.00000000000E+00 0.  1.
         21   -1    0    0  501  502  0.00000000000E+00 -0.00000000000E+00 -0.46906644346E+03  0.46906644346E+03  0.00000000000E+00 0.  1.
         21    1    1    2  503  502 -0.79885226066E+02  0.61749937133E+02 -0.44913618207E+03  0.46034553775E+03  0.00000000000E+00 0.  1.
         21    1    1    2  504  503  0.23844269642E+02  0.40873800843E+02  0.19375745990E+03  0.19945217486E+03  0.00000000000E+00 0.  1.
         21    1    1    2  505  504 -0.24440508667E+02  0.38869192918E+02  0.11498558433E+03  0.12381371986E+03  0.00000000000E+00 0.  1.
          2    1    1    2  501    0  0.80481465091E+02 -0.14149293089E+03  0.93068081337E+03  0.94480912998E+03  0.00000000000E+00 0.  1.
<scales pt_clust_3="14000.00000" pt_clust_4="51.46762" pt_clust_5="45.91462" pt_clust_6="101.26206"></scales>
<clustering>
<clus scale="   45.915">  1  5  2 -1</clus>
<clus scale="   51.468">  1  4  2 -1</clus>
<clus scale="  101.262">  1  6  2 -1</clus>
<clus scale="  101.262">  2  3  1 -1</clus>
</clustering>
</event>
<event>
 6    0  0.3667994E+002  0.1121144E+03  0.7546771E-02  0.1256704E+00
          2   -1    0    0  505    0 -0.00000000000E+00  0.00000000000E+00  0.52059129293E+03  0.52059129293E+03  0.00000000000E+00 0.  1.
         21   -1    0    0  504  502  0.00000000000E+00 -0.00000000000E+00 -0.50938497207E+03  0.50938497207E+03  0.00000000000E+00 0.  1.
         21    1    1    2  503  502 -0.13037618310E+02 -0.10063113422E+03 -0.47696776414E+03  0.48764213589E+03  0.00000000000E+00 0.  1.
         21    1    1    2  504  501  0.25324911059E+02  0.69363990683E+02  0.13053556347E+03  0.14997415662E+03  0.00000000000E+00 0. -1.
         21    1    1    2  505  503 -0.14071420756E+02 -0.60862502107E+02  0.92090865686E+02  0.11127882363E+03  0.00000000000E+00 0. -1.
          2    1    1    2  501    0  0.17841280061E+01  0.92129645640E+02  0.26554765585E+03  0.28108114886E+03  0.00000000000E+00 0.  1.
<scales pt_clust_3="102.26426" pt_clust_4="41.13631" pt_clust_5="62.46798" pt_clust_6="41.13631"></scales>
<clustering>
<clus scale="   41.136">  4  6 -1 -1</clus>
<clus scale="   62.468">  1  5  2 -1</clus>
<clus scale="  102.264">  2  3  1 -1</clus>
<clus scale="  102.264">  2  3  1 -1</clus>
</clustering>
</event>
<event>
 6    0  0.3667994E+002  0.6593415E+02  0.7546771E-02  0.1374492E+00
         21   -1    0    0  505  502  0.00000000000E+00  0.00000000000E+00  0.65129553152E+02  0.65129553152E+02  0.00000000000E+00 0.  1.
          1   -1    0    0  503    0 -0.00000000000E+00 -0.00000000000E+00 -0.82385990034E+03  0.82385990034E+03  0.00000000000E+00 0. -1.
         21    1    1    2  503  504  0.30934205263E+02  0.20300082075E+02 -0.61032770058E+02  0.71372385475E+02  0.00000000000E+00 0.  1.
         21    1    1    2  504  502 -0.78561850408E+02 -0.16961614355E+02 -0.44703678087E+03  0.45420429782E+03  0.00000000000E+00 0. -1.
         21    1    1    2  505  501 -0.68834631282E+01  0.64906171962E+02  0.28267987690E+02  0.71128562135E+02  0.00000000000E+00 0.  1.
          1    1    1    2  501    0  0.54511108273E+02 -0.68244639681E+02 -0.27892878394E+03  0.29228420806E+03  0.00000000000E+00 0. -1.
<scales pt_clust_3="37.00025" pt_clust_4="60.36181" pt_clust_5="14000.00000" pt_clust_6="65.93415"></scales>
<clustering>
<clus scale="   37.000">  2  3  1 -1</clus>
<clus scale="   60.362">  2  4  1 -1</clus>
<clus scale="   65.934">  2  6  1 -1</clus>
<clus scale="   65.934">  1  3  2 -1</clus>
</clustering>
</event>
<event>
 6    0  0.3667994E+002  0.6424255E+02  0.7546771E-02  0.1380844E+00
         -3   -1    0    0    0  501 -0.00000000000E+00  0.00000000000E+00  0.30272822145E+03  0.30272822145E+03  0.00000000000E+00 0.  1.
         21   -1    0    0  505  502  0.00000000000E+00 -0.00000000000E+00 -0.70623689973E+02  0.70623689973E+02  0.00000000000E+00 0.  1.
         21    1    1    2  503  502  0.12001393044E+01  0.49626031971E+02 -0.91543440928E+01  0.50477573231E+02  0.00000000000E+00 0.  1.
         21    1    1    2  504  501  0.54312263024E+02 -0.90854803603E+01  0.80732382526E+02  0.97724538661E+02  0.00000000000E+00 0. -1.
         21    1    1    2  505  504  0.16157669728E+02 -0.69138831909E+02  0.38489409586E+02  0.80763129081E+02  0.00000000000E+00 0.  1.
         -3    1    1    2    0  503 -0.71670072057E+02  0.28598280298E+02  0.12203708346E+03  0.14438667045E+03  0.00000000000E+00 0.  1.
<scales pt_clust_3="49.64054" pt_clust_4="64.24255" pt_clust_5="46.56280" pt_clust_6="14000.00000"></scales>
<clustering>
<clus scale="   49.641">  2  3  1 -1</clus>
<clus scale="   46.563">  2  5  1 -1</clus>
<clus scale="   64.243">  1  4  2 -1</clus>
<clus scale="   49.641">  2  3  1 -1</clus>
</clustering>
</event>
<event>
 6    0  0.3667994E+002  0.1904082E+03  0.7546771E-02  0.1158094E+00
          2   -1    0    0  505    0 -0.00000000000E+00  0.00000000000E+00  0.11667838103E+04  0.11667838103E+04  0.00000000000E+00 0. -1.
         21   -1    0    0  501  502  0.00000000000E+00 -0.00000000000E+00 -0.88319003693E+02  0.88319003693E+02  0.00000000000E+00 0.  1.
         21    1    1    2  503  502  0.13166823899E+01 -0.88280655941E+02 -0.10062027480E+02  0.88861984352E+02  0.00000000000E+00 0.  1.
         21    1    1    2  504  503  0.45985861216E+02 -0.84582992420E+02  0.63497157751E+02  0.11532940250E+03  0.00000000000E+00 0.  1.
         21    1    1    2  505  504  0.11680142713E+02  0.65231078365E+02  0.11568330522E+03  0.13331971507E+03  0.00000000000E+00 0.  1.
          2    1    1    2  501    0 -0.58982686319E+02  0.10763257000E+03  0.90934637106E+03  0.91759171203E+03  0.00000000000E+00 0. -1.
<scales pt_clust_3="79.21728" pt_clust_4="79.21728" pt_clust_5="66.26854" pt_clust_6="171.85995"></scales>
<clustering>
<clus scale="   66.269">  1  5  2 -1</clus>
<clus scale="   79.217">  3  4 -1 -1</clus>
<clus scale="  171.860">  1  6  2 -1</clus>
<clus scale="  190.408">  2  3  1 -1</clus>
</clustering>
</event>
<event>
 6    0  0.3667994E+002  0.1110878E+03  0.7546771E-02  0.1258569E+00
          2   -1    0    0  503    0 -0.00000000000E+00  0.00000000000E+00  0.34696337709E+04  0.34696337709E+04  0.00000000000E+00 0. -1.
         21   -1    0    0  504  502  0.00000000000E+00 -0.00000000000E+00 -0.19344929066E+03  0.19344929066E+03  0.00000000000E+00 0.  1.
         21    1    1    2  503  502 -0.95563844021E+01 -0.33094306913E+02  0.12716619746E+03  0.13174900155E+03  0.00000000000E+00 0. -1.
         21    1    1    2  504  505  0.23668564801E+02  0.27658756626E+02 -0.18528466870E+03  0.18882694785E+03  0.00000000000E+00 0.  1.
         21    1    1    2  505  501  0.98840720489E+02 -0.28779359517E+02  0.10160372404E+04  0.10212391559E+04  0.00000000000E+00 0. -1.
          2    1    1    2  501    0 -0.11295290089E+03  0.34214909804E+02  0.23182657110E+04  0.23212679563E+04  0.00000000000E+00 0. -1.
<scales pt_clust_3="34.44645" pt_clust_4="36.38678" pt_clust_5="14000.00000" pt_clust_6="111.08775"></scales>
<clustering>
<clus scale="   34.446">  1  3  2 -1</clus>
<clus scale="   36.387">  2  4  1 -1</clus>
<clus scale="  111.088">  1  6  2 -1</clus>
<clus scale="   36.387">  2  3  1 -1</clus>
</clustering>
</event>
<event>
 6    0  0.3667994E+002  0.1103230E+03  0.7546771E-02  0.1259973E+00
          2   -1    0    0  505    0 -0.00000000000E+00  0.00000000000E+00  0.19491280176E+04  0.19491280176E+04  0.00000000000E+00 0. -1.
         21   -1    0    0  504  502  0.00000000000E+00 -0.00000000000E+00 -0.68079998424E+02  0.68079998424E+02  0.00000000000E+00 0.  1.
         21    1    1    2  503  501 -0.64622981738E+02 -0.12889311511E+02  0.55463835190E+03  0.55853913517E+03  0.00000000000E+00 0. -1.
         21    1    1    2  504  503  0.95644044096E+02  0.41282166623E+02 -0.22867596101E+02  0.10665330470E+03  0.00000000000E+00 0.  1.
         21    1    1    2  505  502  0.18142536854E+02 -0.31733227288E+02  0.61771379592E+03  0.61879437863E+03  0.00000000000E+00 0. -1.
          2    1    1    2  501    0 -0.49163599212E+02  0.33403721769E+01  0.73156346750E+03  0.73322119756E+03  0.00000000000E+00 0. -1.
<scales pt_clust_3="31.07188" pt_clust_4="104.30769" pt_clust_5="36.55338" pt_clust_6="31.07188"></scales>
<clustering>
<clus scale="   31.072">  3  6 -1 -1</clus>
<clus scale="   36.553">  1  5  2 -1</clus>
<clus scale="  104.308">  2  4  1 -1</clus>
<clus scale="  104.308">  2  3  1 -1</clus>
</clustering>
</event>
<event>
 6    0  0.3667994E+002  0.7646355E+02  0.7546771E-02  0.1339398E+00
         21   -1    0    0  505  502  0.00000000000E+00  0.00000000000E+00  0.21843115441E+03  0.21843115441E+03  0.00000000000E+00 0.  1.
          2   -1    0    0  504    0 -0.00000000000E+00 -0.00000000000E+00 -0.17154099340E+04  0.17154099340E+04  0.00000000000E+00 0. -1.
         21    1    1    2  503  502  0.27115155708E+01  0.76646340867E+02  0.18060056832E+03  0.19621054804E+03  0.00000000000E+00 0.  1.
         21    1    1    2  504  503  0.58051167320E+02 -0.73203191154E+02 -0.12179342693E+03  0.15350011096E+03  0.00000000000E+00 0.  1.
         21    1    1    2  505  501 -0.87136468685E+02  0.65067711486E+02 -0.21131250150E+03  0.23765425421E+03  0.00000000000E+00 0.  1.
          2    1    1    2  501    0  0.26373785794E+02 -0.68510861199E+02 -0.13444734195E+04  0.13464761752E+04  0.00000000000E+00 0. -1.
<scales pt_clust_3="76.46355" pt_clust_4="14000.00000" pt_clust_5="74.91186" pt_clust_6="73.41195"></scales>
<clustering>
<clus scale="   73.412">  2  6  1 -1</clus>
<clus scale="   74.912">  2  5  1 -1</clus>
<clus scale="   76.464">  1  3  2 -1</clus>
<clus scale="   76.464">  1  3  2 -1</clus>
</clustering>
</event>
<event>
 6    0  0.3667994E+002  0.3783169E+03  0.7546771E-02  0.1051558E+00
          1   -1    0    0  503    0 -0.00000000000E+00  0.00000000000E+00  0.49248751148E+03  0.49248751148E+03  0.00000000000E+00 0. -1.
         21   -1    0    0  504  502  0.00000000000E+00 -0.00000000000E+00 -0.44417589261E+03  0.44417589261E+03  0.00000000000E+00 0. -1.
         21    1    1    2  503  505  0.29609667756E+02  0.37632758748E+02  0.17864580591E+03  0.18495210441E+03  0.00000000000E+00 0. -1.
         21    1    1    2  504  501 -0.67834651475E+02 -0.24110594584E+01 -0.39973979351E+01  0.67995090548E+02  0.00000000000E+00 0. -1.
         21    1    1    2  505  502  0.25213428234E+03  0.21272960606E+03  0.74482041560E+01  0.32997129780E+03  0.00000000000E+00 0. -1.
          1    1    1    2  501    0 -0.21390929862E+03 -0.24795130535E+03 -0.13378499327E+03  0.35374491132E+03  0.00000000000E+00 0. -1.
<scales pt_clust_3="47.88483" pt_clust_4="59.24397" pt_clust_5="355.39278" pt_clust_6="59.24397"></scales>
<clustering>
<clus scale="   47.885">  1  3  2 -1</clus>
<clus scale="   59.244">  4  6 -1 -1</clus>
<clus scale="  355.393">  1  5  2 -1</clus>
<clus scale="  378.317">  2  3  1 -1</clus>
</clustering>
</event>
<event>
 6    0  0.3667994E+002  0.8234959E+02  0.7546771E-02  0.1322513E+00
         21   -1    0    0  504  502  0.00000000000E+00  0.00000000000E+00  0.18270229310E+03  0.18270229310E+03  0.00000000000E+00 0.  1.
          2   -1    0    0  505    0 -0.00000000000E+00 -0.00000000000E+00 -0.13287182069E+04  0.13287182069E+04  0.00000000000E+00 0. -1.
         21    1    1    2  503  502  0.57179631772E+02 -0.11821240238E+02 -0.95809311801E+02  0.11219927022E+03  0.00000000000E+00 0.  1.
         21    1    1    2  504  501  0.35416941161E+02 -0.44483133081E+02  0.16085781769E+03  0.17061168296E+03  0.00000000000E+00 0.  1.
         21    1    1    2  505  503  0.36599575194E+01  0.47521829939E+02 -0.77858147622E+02  0.91288612439E+02  0.00000000000E+00 0. -1.
          2    1    1    2  501    0 -0.96256530452E+02  0.87825433802E+01 -0.11332062720E+04  0.11373209344E+04  0.00000000000E+00 0. -1.
<scales pt_clust_3="82.34959" pt_clust_4="56.72378" pt_clust_5="47.66256" pt_clust_6="14000.00000"></scales>
<clustering>
<clus scale="   47.663">  2  5  1 -1</clus>
<clus scale="   56.724">  1  4  2 -1</clus>
<clus scale="   82.350">  1  3  2 -1</clus>
<clus scale="   56.724">  1  3  2 -1</clus>
</clustering>
</event>
<event>
 6    0  0.3667994E+002  0.1141876E+03  0.7546771E-02  0.1253006E+00
         21   -1    0    0  504  502  0.00000000000E+00  0.00000000000E+00  0.32151772520E+03  0.32151772520E+03  0.00000000000E+00 0. -1.
          1   -1    0    0  505    0 -0.00000000000E+00 -0.00000000000E+00 -0.44186736151E+03  0.44186736151E+03  0.00000000000E+00 0. -1.
         21    1    1    2  503  502 -0.83061207281E+02  0.60487976329E+02  0.29872572052E+03  0.31590349086E+03  0.00000000000E+00 0. -1.
         21    1    1    2  504  501  0.81043986003E+01 -0.45768994674E+02 -0.78022145136E+02  0.90818155022E+02  0.00000000000E+00 0. -1.
         21    1    1    2  505  503  0.27230886216E+02  0.28853503824E+02 -0.12373448929E+03  0.12993948471E+03  0.00000000000E+00 0. -1.
          1    1    1    2  501    0  0.47725922465E+02 -0.43572485480E+02 -0.21731872241E+03  0.22672395611E+03  0.00000000000E+00 0. -1.
<scales pt_clust_3="102.62048" pt_clust_4="38.11591" pt_clust_5="39.67425" pt_clust_6="38.11591"></scales>
<clustering>
<clus scale="   39.674">  2  5  1 -1</clus>
<clus scale="   38.116">  4  6 -1 -1</clus>
<clus scale="  102.620">  1  3  2 -1</clus>
<clus scale="  102.620">  1  3  2 -1</clus>
</clustering>
</event>
<event>
 6    0  0.3667994E+002  0.1689077E+03  0.7546771E-02  0.1178992E+00
         -3   -1    0    0    0  501 -0.00000000000E+00  0.00000000000E+00  0.10183132659E+04  0.10183132659E+04  0.00000000000E+00 0.  1.
         21   -1    0    0  504  502  0.00000000000E+00 -0.00000000000E+00 -0.15269205977E+03  0.15269205977E+03  0.00000000000E+00 0.  1.
         21    1    1    2  503  502 -0.80219277252E+02  0.14438738117E+03 -0.95083990790E+02  0.19058807305E+03  0.00000000000E+00 0.  1.
         21    1    1    2  504  501 -0.18926479549E+02 -0.35833942877E+02  0.27052308639E+03  0.27354163003E+03  0.00000000000E+00 0. -1.
         21    1    1    2  505  503  0.55529607798E+02 -0.30847759426E+02  0.29875093345E+03  0.30542960211E+03  0.00000000000E+00 0. -1.
         -3    1    1    2    0  505  0.43616149004E+02 -0.77705678865E+02  0.39143117708E+03  0.40144602050E+03  0.00000000000E+00 0.  1.
<scales pt_clust_3="163.77344" pt_clust_4="40.52509" pt_clust_5="34.89430" pt_clust_6="34.89430"></scales>
<clustering>
<clus scale="   34.894">  5  6 -1 -1</clus>
<clus scale="   40.525">  1  4  2 -1</clus>
<clus scale="  163.773">  2  3  1 -1</clus>
<clus scale="  163.773">  2  3  1 -1</clus>
</clustering>
</event>
<event>
 6    0  0.3667994E+002  0.2023602E+03  0.7546771E-02  0.1147763E+00
         21   -1    0    0  504  502  0.00000000000E+00  0.00000000000E+00  0.93523851611E+03  0.93523851611E+03  0.00000000000E+00 0. -1.
         -2   -1    0    0    0  501 -0.00000000000E+00 -0.00000000000E+00 -0.42697524083E+03  0.42697524083E+03  0.00000000000E+00 0. -1.
         21    1    1    2  503  505 -0.14712746190E+03 -0.52700796440E+02 -0.37121909744E+02  0.16062969892E+03  0.00000000000E+00 0.  1.
         21    1    1    2  504  503 -0.76595217812E+02 -0.87105452145E+02  0.80485454772E+03  0.81316974253E+03  0.00000000000E+00 0. -1.
         21    1    1    2  505  501  0.36036010290E+02 -0.19871233002E+02 -0.24327128972E+02  0.47804488729E+02  0.00000000000E+00 0. -1.
         -2    1    1    2    0  502  0.18768666943E+03  0.15967748159E+03 -0.23514223372E+03  0.34060982676E+03  0.00000000000E+00 0. -1.
<scales pt_clust_3="202.36016" pt_clust_4="115.89859" pt_clust_5="41.15167" pt_clust_6="14000.00000"></scales>
<clustering>
<clus scale="   41.152">  2  5  1 -1</clus>
<clus scale="  115.899">  1  4  2 -1</clus>
<clus scale="  202.360">  1  3  2 -1</clus>
<clus scale="  115.899">  1  3  2 -1</clus>
</clustering>
</event>
<event>
 6    0  0.3933258E+002  0.1318216E+03  0.7546771E-02  0.1224778E+00
         21   -1    0    0  501  502  0.00000000000E+00  0.00000000000E+00  0.17281206589E+03  0.17281206589E+03  0.00000000000E+00 0. -1.
          3   -1    0    0  505    0 -0.00000000000E+00 -0.00000000000E+00 -0.10919132399E+04  0.10919132399E+04  0.00000000000E+00 0. -1.
         21    1    1    2  503  504 -0.51417150557E+02 -0.12638928024E+02 -0.24848100946E+03  0.25405959524E+03  0.00000000000E+00 0. -1.
         21    1    1    2  504  502  0.10882771961E+03 -0.78458699979E+02  0.13624434012E+03  0.19121129771E+03  0.00000000000E+00 0. -1.
         21    1    1    2  505  503 -0.17682501237E+02  0.29681423980E+02 -0.61749171975E+02  0.70757459106E+02  0.00000000000E+00 0.  1.
          3    1    1    2  501    0 -0.39728067812E+02  0.61416204022E+02 -0.74511533266E+03  0.74869695368E+03  0.00000000000E+00 0. -1.
<scales pt_clust_3="56.00687" pt_clust_4="131.82160" pt_clust_5="34.54935" pt_clust_6="14000.00000"></scales>
<clustering>
<clus scale="   34.549">  2  5  1 -1</clus>
<clus scale="   56.007">  2  3  1 -1</clus>
<clus scale="  131.822">  1  4  2 -1</clus>
<clus scale="  131.822">  1  3  2 -1</clus>
</clustering>
</event>
<event>
 6    0  0.3667994E+002  0.2440008E+03  0.7546771E-02  0.1117156E+00
          2   -1    0    0  505    0 -0.00000000000E+00  0.00000000000E+00  0.16033930186E+04  0.16033930186E+04  0.00000000000E+00 0. -1.
         21   -1    0    0  503  502  0.00000000000E+00 -0.00000000000E+00 -0.76361063542E+02  0.76361063542E+02  0.00000000000E+00 0. -1.
         21    1    1    2  503  501  0.18354334148E+02 -0.11394840338E+03  0.15687593986E+03  0.19475928918E+03  0.00000000000E+00 0.  1.
         21    1    1    2  504  502  0.10677072939E+03  0.23810252448E+02  0.82045681621E+02  0.13674213195E+03  0.00000000000E+00 0.  1.
         21    1    1    2  505  504 -0.16866715227E+03  0.19217889511E+03  0.11046370113E+04  0.11338449024E+04  0.00000000000E+00 0. -1.
          2    1    1    2  501    0  0.43542088731E+02 -0.10204074418E+03  0.18347332228E+03  0.21440775861E+03  0.00000000000E+00 0. -1.
<scales pt_clust_3="32.48109" pt_clust_4="109.39340" pt_clust_5="241.74119" pt_clust_6="32.48109"></scales>
<clustering>
<clus scale="   32.481">  3  6 -1 -1</clus>
<clus scale="  109.393">  2  4  1 -1</clus>
<clus scale="  241.741">  1  5  2 -1</clus>
<clus scale="  109.393">  2  3  1 -1</clus>
</clustering>
</event>
<event>
 6    0  0.3667994E+002  0.7972882E+02  0.7546771E-02  0.1329823E+00
          1   -1    0    0  504    0 -0.00000000000E+00  0.00000000000E+00  0.14229281175E+04  0.14229281175E+04  0.00000000000E+00 0.  1.
         21   -1    0    0  505  502  0.00000000000E+00 -0.00000000000E+00 -0.67494587242E+02  0.67494587242E+02  0.00000000000E+00 0. -1.
         21    1    1    2  503  502 -0.40244740856E+02 -0.11876074100E+02 -0.44826685334E+02  0.61401237941E+02  0.00000000000E+00 0. -1.
         21    1    1    2  504  503  0.19308103504E+02  0.81247168378E+02  0.35107401520E+03  0.36086960163E+03  0.00000000000E+00 0.  1.
         21    1    1    2  505  501 -0.51990865606E+02 -0.91465162892E+01  0.90192450909E+02  0.10450544037E+03  0.00000000000E+00 0. -1.
          1    1    1    2  501    0  0.72927502958E+02 -0.60224577988E+02  0.95899374950E+03  0.96364642482E+03  0.00000000000E+00 0.  1.
<scales pt_clust_3="41.96046" pt_clust_4="14000.00000" pt_clust_5="73.57568" pt_clust_6="79.72882"></scales>
<clustering>
<clus scale="   41.960">  2  3  1 -1</clus>
<clus scale="   73.576">  2  5  1 -1</clus>
<clus scale="   79.729">  1  6  2 -1</clus>
<clus scale="   41.960">  2  3  1 -1</clus>
</clustering>
</event>
<event>
 6    0  0.3667994E+002  0.1196441E+03  0.7546771E-02  0.1243685E+00
         21   -1    0    0  503  502  0.00000000000E+00  0.00000000000E+00  0.73570146964E+02  0.73570146964E+02  0.00000000000E+00 0. -1.
          4   -1    0    0  505    0 -0.00000000000E+00 -0.00000000000E+00 -0.69658246703E+03  0.69658246703E+03  0.00000000000E+00 0.  1.
         21    1    1    2  503  504 -0.19295421990E+02  0.62667803574E+02 -0.12358775297E+03  0.13990532370E+03  0.00000000000E+00 0.  1.
         21    1    1    2  504  501  0.13162978315E+02  0.45478185206E+02 -0.12436533694E+03  0.13307241022E+03  0.00000000000E+00 0. -1.
         21    1    1    2  505  502  0.53492003380E+02 -0.10412152290E+03  0.20556576871E+01  0.11707652064E+03  0.00000000000E+00 0. -1.
          4    1    1    2  501    0 -0.47359559706E+02 -0.40244658831E+01 -0.37711488784E+03  0.38009835944E+03  0.00000000000E+00 0.  1.
<scales pt_clust_3="30.67208" pt_clust_4="30.67208" pt_clust_5="114.06917" pt_clust_6="47.53025"></scales>
<clustering>
<clus scale="   30.672">  3  4 -1 -1</clus>
<clus scale="   47.530">  2  6  1 -1</clus>
<clus scale="  114.069">  1  5  2 -1</clus>
<clus scale="  114.069">  1  3  2 -1</clus>
</clustering>
</event>
<event>
 6    0  0.3667994E+002  0.1448513E+03  0.7546771E-02  0.1206946E+00
          1   -1    0    0  503    0 -0.00000000000E+00  0.00000000000E+00  0.25270392622E+03  0.25270392622E+03  0.00000000000E+00 0.  1.
         21   -1    0    0  505  502  0.00000000000E+00 -0.00000000000E+00 -0.75608721265E+03  0.75608721265E+03  0.00000000000E+00 0.  1.
         21    1    1    2  503  502 -0.24183610371E+02 -0.37985016620E+02 -0.78167901267E+00  0.45036868456E+02  0.00000000000E+00 0.  1.
         21    1    1    2  504  501 -0.34363262952E+02  0.10711683533E+03  0.20969583563E+02  0.11443152401E+03  0.00000000000E+00 0. -1.
         21    1    1    2  505  504  0.44545916307E+02 -0.14192725771E+03 -0.66940281675E+03  0.68573159196E+03  0.00000000000E+00 0.  1.
          1    1    1    2  501    0  0.14000957016E+02  0.72795438996E+02  0.14583162577E+03  0.16359115444E+03  0.00000000000E+00 0.  1.
<scales pt_clust_3="45.03008" pt_clust_4="14000.00000" pt_clust_5="144.85135" pt_clust_6="47.36070"></scales>
<clustering>
<clus scale="   45.030">  1  3  2 -1</clus>
<clus scale="   47.361">  1  6  2 -1</clus>
<clus scale="  144.851">  2  5  1 -1</clus>
<clus scale="  144.851">  2  3  1 -1</clus>
</clustering>
</event>
<event>
 6    0  0.3667994E+002  0.1007900E+03  0.7546771E-02  0.1278643E+00
          2   -1    0    0  505    0 -0.00000000000E+00  0.00000000000E+00  0.33999744689E+03  0.33999744689E+03  0.00000000000E+00 0.  1.
         21   -1    0    0  501  502  0.00000000000E+00 -0.00000000000E+00 -0.20923475129E+03  0.20923475129E+03  0.00000000000E+00 0.  1.
         21    1    1    2  503  504  0.26567551772E+01  0.13261309804E+03 -0.14933274205E+03  0.19973372267E+03  0.00000000000E+00 0.  1.
         21    1    1    2  504  502  0.11717327568E+02 -0.31062755826E+02 -0.70176184304E+01  0.33932838568E+02  0.00000000000E+00 0. -1.
         21    1    1    2  505  503  0.26245918373E+02 -0.39655167850E+02  0.59226649349E+02  0.75955095692E+02  0.00000000000E+00 0.  1.
          2    1    1    2  501    0 -0.40620001118E+02 -0.61895174367E+02  0.22788640674E+03  0.23961054125E+03  0.00000000000E+00 0.  1.
<scales pt_clust_3="100.78997" pt_clust_4="33.19926" pt_clust_5="48.98944" pt_clust_6="14000.00000"></scales>
<clustering>
<clus scale="   33.199">  2  4  1 -1</clus>
<clus scale="   48.989">  1  5  2 -1</clus>
<clus scale="  100.790">  2  3  1 -1</clus>
<clus scale="   33.199">  2  3  1 -1</clus>
</clustering>
</event>
<event>
 6    0  0.3667994E+002  0.6935880E+02  0.7546771E-02  0.1362287E+00
         21   -1    0    0  503  502  0.00000000000E+00  0.00000000000E+00  0.56585663670E+02  0.56585663670E+02  0.00000000000E+00 0.  1.
          2   -1    0    0  505    0 -0.00000000000E+00 -0.00000000000E+00 -0.27346555565E+04  0.27346555565E+04  0.00000000000E+00 0.  1.
         21    1    1    2  503  501 -0.42337325749E+02  0.26831064031E+02 -0.69233960966E+03  0.69415163347E+03  0.00000000000E+00 0.  1.
         21    1    1    2  504  502 -0.41117188407E+02 -0.41303068839E+02  0.35450592857E+02  0.68215183148E+02  0.00000000000E+00 0.  1.
         21    1    1    2  505  504 -0.22530900828E+02  0.33828700808E+02 -0.17947180479E+03  0.18401671447E+03  0.00000000000E+00 0.  1.
          2    1    1    2  501    0  0.10598541498E+03 -0.19356696000E+02 -0.18417090712E+04  0.18448576890E+04  0.00000000000E+00 0.  1.
<scales pt_clust_3="69.35880" pt_clust_4="58.22879" pt_clust_5="40.64508" pt_clust_6="14000.00000"></scales>
<clustering>
<clus scale="   40.645">  2  5  1 -1</clus>
<clus scale="   58.229">  1  4  2 -1</clus>
<clus scale="   69.359">  1  3  2 -1</clus>
<clus scale="   58.229">  1  3  2 -1</clus>
</clustering>
</event>
<event>
 6    0  0.3667994E+002  0.4292749E+03  0.7546771E-02  0.1034089E+00
         -1   -1    0    0    0  501 -0.00000000000E+00  0.00000000000E+00  0.15864627581E+03  0.15864627581E+03  0.00000000000E+00 0. -1.
         21   -1    0    0  505  502  0.00000000000E+00 -0.00000000000E+00 -0.13503535537E+04  0.13503535537E+04  0.00000000000E+00 0. -1.
         21    1    1    2  503  501 -0.14753441783E+03  0.37214786989E+03 -0.67188300417E+03  0.78210434905E+03  0.00000000000E+00 0. -1.
         21    1    1    2  504  502  0.32591699129E+02 -0.17924468891E+03 -0.91403228154E+02  0.20382695472E+03  0.00000000000E+00 0. -1.
         21    1    1    2  505  503  0.60175975035E+02  0.32194767819E+02 -0.10526785311E+03  0.12545505946E+03  0.00000000000E+00 0.  1.
         -1    1    1    2    0  504  0.54766743666E+02 -0.22509794880E+03 -0.32315319247E+03  0.39761346628E+03  0.00000000000E+00 0. -1.
<scales pt_clust_3="406.85119" pt_clust_4="121.74502" pt_clust_5="68.24699" pt_clust_6="121.74502"></scales>
<clustering>
<clus scale="   68.247">  2  5  1 -1</clus>
<clus scale="  121.745">  4  6 -1 -1</clus>
<clus scale="  406.851">  2  3  1 -1</clus>
<clus scale="   68.247">  2  3  1 -1</clus>
</clustering>
</event>
<event>
 6    0  0.3667994E+002  0.8850432E+02  0.7546771E-02  0.1306515E+00
         21   -1    0    0  505  502  0.00000000000E+00  0.00000000000E+00  0.60452160960E+02  0.60452160960E+02  0.00000000000E+00 0.  1.
          2   -1    0    0  503    0 -0.00000000000E+00 -0.00000000000E+00 -0.10149116795E+04  0.10149116795E+04  0.00000000000E+00 0.  1.
         21    1    1    2  503  504 -0.50786132812E+02  0.44201635994E+02 -0.70074546364E+03  0.70397245736E+03  0.00000000000E+00 0.  1.
         21    1    1    2  504  502  0.24508106710E+02 -0.91974073530E+02 -0.99278286773E+02  0.13753565254E+03  0.00000000000E+00 0.  1.
         21    1    1    2  505  501  0.40835601817E+02 -0.26821538437E+02  0.12502919886E+02  0.50430787278E+02  0.00000000000E+00 0.  1.
          2    1    1    2  501    0 -0.14557575714E+02  0.74593975974E+02 -0.16693868806E+03  0.18342494332E+03  0.00000000000E+00 0.  1.
<scales pt_clust_3="64.63383" pt_clust_4="14000.00000" pt_clust_5="48.85633" pt_clust_6="88.50432"></scales>
<clustering>
<clus scale="   48.856">  1  5  2 -1</clus>
<clus scale="   64.634">  2  3  1 -1</clus>
<clus scale="   88.504">  1  6  2 -1</clus>
<clus scale="   48.856">  1  3  2 -1</clus>
</clustering>
</event>
<event>
 6    0  0.3667994E+002  0.1401004E+03  0.7546771E-02  0.1213194E+00
         21   -1    0    0  504  502  0.00000000000E+00  0.00000000000E+00  0.12579525599E+03  0.12579525599E+03  0.00000000000E+00 0.  1.
          2   -1    0    0  503    0 -0.00000000000E+00 -0.00000000000E+00 -0.17559700577E+04  0.17559700577E+04  0.00000000000E+00 0.  1.
         21    1    1    2  503  505 -0.62391914819E+01 -0.39578833736E+02 -0.12232074257E+03  0.12871587180E+03  0.00000000000E+00 0.  1.
         21    1    1    2  504  501  0.10570331090E+03  0.94492087974E+02 -0.12279814409E+04  0.12361392979E+04  0.00000000000E+00 0.  1.
         21    1    1    2  505  502 -0.84647970388E+02 -0.11167400664E+03  0.73820604609E+02  0.15838511393E+03  0.00000000000E+00 0.  1.
          2    1    1    2  501    0 -0.14816149031E+02  0.56760752397E+02 -0.35369322286E+03  0.35852503006E+03  0.00000000000E+00 0.  1.
<scales pt_clust_3="40.06759" pt_clust_4="14000.00000" pt_clust_5="140.10039" pt_clust_6="50.76350"></scales>
<clustering>
<clus scale="   40.068">  2  3  1 -1</clus>
<clus scale="   50.763">  2  6  1 -1</clus>
<clus scale="  140.100">  1  5  2 -1</clus>
<clus scale="  140.100">  1  3  2 -1</clus>
</clustering>
</event>
<event>
 6    0  0.3667994E+002  0.1320413E+03  0.7546771E-02  0.1224458E+00
         -1   -1    0    0    0  501 -0.00000000000E+00  0.00000000000E+00  0.93619452443E+02  0.93619452443E+02  0.00000000000E+00 0. -1.
         21   -1    0    0  505  502  0.00000000000E+00 -0.00000000000E+00 -0.66485674254E+03  0.66485674254E+03  0.00000000000E+00 0. -1.
         21    1    1    2  503  501  0.10428816591E+03 -0.55501652813E+01 -0.42106164162E+03  0.43381993030E+03  0.00000000000E+00 0. -1.
         21    1    1    2  504  502 -0.78041886060E+01 -0.47125421812E+02 -0.66316108912E+02  0.81728434722E+02  0.00000000000E+00 0. -1.
         21    1    1    2  505  503  0.39541469764E+02  0.44124992345E+02 -0.88560531695E+02  0.10655285334E+03  0.00000000000E+00 0. -1.
         -1    1    1    2    0  504 -0.13602544707E+03  0.85505947492E+01  0.47009921275E+01  0.13637497662E+03  0.00000000000E+00 0. -1.
<scales pt_clust_3="14000.00000" pt_clust_4="47.76726" pt_clust_5="52.76508" pt_clust_6="132.04129"></scales>
<clustering>
<clus scale="   47.767">  2  4  1 -1</clus>
<clus scale="   52.765">  2  5  1 -1</clus>
<clus scale="  132.041">  1  6  2 -1</clus>
<clus scale="   47.767">  2  3  1 -1</clus>
</clustering>
</event>
<event>
 6    0  0.3667994E+002  0.8723471E+02  0.7546771E-02  0.1309690E+00
          1   -1    0    0  504    0 -0.00000000000E+00  0.00000000000E+00  0.17255341575E+04  0.17255341575E+04  0.00000000000E+00 0. -1.
         21   -1    0    0  505  502  0.00000000000E+00 -0.00000000000E+00 -0.65965179612E+03  0.65965179612E+03  0.00000000000E+00 0. -1.
         21    1    1    2  503  502 -0.33860195707E+02 -0.60441639142E+02  0.52638411829E+03  0.53092367115E+03  0.00000000000E+00 0. -1.
         21    1    1    2  504  503 -0.19863988964E+02  0.34137642209E+02  0.97466444175E+02  0.10516493909E+03  0.00000000000E+00 0.  1.
         21    1    1    2  505  501  0.29200959991E+01 -0.87120340230E+02 -0.64707614836E+03  0.65292114564E+03  0.00000000000E+00 0. -1.
          1    1    1    2  501    0  0.50804088673E+02  0.11342433716E+03  0.10891079473E+04  0.10961761978E+04  0.00000000000E+00 0. -1.
<scales pt_clust_3="63.71534" pt_clust_4="39.49629" pt_clust_5="14000.00000" pt_clust_6="87.23471"></scales>
<clustering>
<clus scale="   39.496">  1  4  2 -1</clus>
<clus scale="   63.715">  1  3  2 -1</clus>
<clus scale="   87.235">  1  6  2 -1</clus>
<clus scale="   87.235">  2  3  1 -1</clus>
</clustering>
</event>
<event>
 6    0  0.3667994E+002  0.9918534E+02  0.7546771E-02  0.1282018E+00
         21   -1    0    0  505  502  0.00000000000E+00  0.00000000000E+00  0.17560211859E+02  0.17560211859E+02  0.00000000000E+00 0. -1.
          2   -1    0    0  504    0 -0.00000000000E+00 -0.00000000000E+00 -0.17990463570E+04  0.17990463570E+04  0.00000000000E+00 0. -1.
         21    1    1    2  503  502 -0.37865554973E+02  0.29185801003E+02 -0.11838265045E+03  0.12767170071E+03  0.00000000000E+00 0. -1.
         21    1    1    2  504  503 -0.84971690133E+02 -0.42511869873E+02 -0.26197260991E+03  0.27867022723E+03  0.00000000000E+00 0. -1.
         21    1    1    2  505  501  0.68651440724E+02  0.58028107318E+02 -0.76047194220E+03  0.76576618914E+03  0.00000000000E+00 0. -1.
          2    1    1    2  501    0  0.54185804382E+02 -0.44702038449E+02 -0.64065894256E+03  0.64449845176E+03  0.00000000000E+00 0. -1.
<scales pt_clust_3="47.80807" pt_clust_4="14000.00000" pt_clust_5="99.18534" pt_clust_6="63.14336"></scales>
<clustering>
<clus scale="   47.808">  1  3  2 -1</clus>
<clus scale="   63.143">  2  6  1 -1</clus>
<clus scale="   99.185">  2  5  1 -1</clus>
<clus scale="   47.808">  1  3  2 -1</clus>
</clustering>
</event>
<event>
 6    0  0.3667994E+002  0.7476319E+02  0.7546771E-02  0.1344606E+00
         21   -1    0    0  504  502  0.00000000000E+00  0.00000000000E+00  0.27528010306E+03  0.27528010306E+03  0.00000000000E+00 0. -1.
          1   -1    0    0  505    0 -0.00000000000E+00 -0.00000000000E+00 -0.19095537869E+03  0.19095537869E+03  0.00000000000E+00 0. -1.
         21    1    1    2  503  502 -0.96595480372E+02 -0.40050406354E+02 -0.10745253019E+03  0.14993588004E+03  0.00000000000E+00 0. -1.
         21    1    1    2  504  501  0.24684350757E+02  0.31316614141E+02  0.18759340183E+03  0.19178459767E+03  0.00000000000E+00 0. -1.
         21    1    1    2  505  503  0.28996226050E+02  0.47492722832E+02 -0.23499412176E+02  0.60403329542E+02  0.00000000000E+00 0.  1.
          1    1    1    2  501    0  0.42914903565E+02 -0.38758930620E+02  0.27683264910E+02  0.64111674498E+02  0.00000000000E+00 0. -1.
<scales pt_clust_3="14000.00000" pt_clust_4="39.87540" pt_clust_5="74.76319" pt_clust_6="60.29511"></scales>
<clustering>
<clus scale="   39.875">  1  4  2 -1</clus>
<clus scale="   60.295">  1  6  2 -1</clus>
<clus scale="   74.763">  2  5  1 -1</clus>
<clus scale="   39.875">  1  3  2 -1</clus>
</clustering>
</event>
<event>
 6    0  0.3667994E+002  0.1037868E+03  0.7546771E-02  0.1272528E+00
         21   -1    0    0  505  502  0.00000000000E+00  0.00000000000E+00  0.26989437583E+04  0.26989437583E+04  0.00000000000E+00 0.  1.
          2   -1    0    0  503    0 -0.00000000000E+00 -0.00000000000E+00 -0.63422877960E+03  0.63422877960E+03  0.00000000000E+00 0.  1.
         21    1    1    2  503  504  0.34056935181E+02 -0.45277157078E+02 -0.21622861295E+03  0.22352787040E+03  0.00000000000E+00 0.  1.
         21    1    1    2  504  502  0.89894413537E+02  0.54653031081E+02  0.26658932954E+04  0.26679683322E+04  0.00000000000E+00 0.  1.
         21    1    1    2  505  501 -0.50953026239E+02 -0.27107887576E+02 -0.91428342694E+01  0.58434919955E+02  0.00000000000E+00 0.  1.
          2    1    1    2  501    0 -0.72998322480E+02  0.17732013574E+02 -0.37580686939E+03  0.38324141539E+03  0.00000000000E+00 0.  1.
<scales pt_clust_3="56.65594" pt_clust_4="14000.00000" pt_clust_5="103.78684" pt_clust_6="48.07424"></scales>
<clustering>
<clus scale="   56.656">  2  3  1 -1</clus>
<clus scale="   48.074">  2  6  1 -1</clus>
<clus scale="  103.787">  2  5  1 -1</clus>
<clus scale="  103.787">  1  3  2 -1</clus>
</clustering>
</event>
<event>
 6    0  0.3667994E+002  0.2669466E+03  0.7546771E-02  0.1103040E+00
         21   -1    0    0  503  502  0.00000000000E+00  0.00000000000E+00  0.64336695833E+03  0.64336695833E+03  0.00000000000E+00 0.  1.
          3   -1    0    0  505    0 -0.00000000000E+00 -0.00000000000E+00 -0.17412794723E+03  0.17412794723E+03  0.00000000000E+00 0.  1.
         21    1    1    2  503  501  0.14382647573E+02 -0.85336394547E+02  0.59290552171E+02  0.10490248025E+03  0.00000000000E+00 0.  1.
         21    1    1    2  504  502 -0.22944764662E+02 -0.23395269208E+02  0.24347553291E+03  0.24567078779E+03  0.00000000000E+00 0.  1.
         21    1    1    2  505  504  0.64557298124E+02  0.26314049872E+03  0.11920177076E+03  0.29600612993E+03  0.00000000000E+00 0.  1.
          3    1    1    2  501    0 -0.55995181035E+02 -0.15440883496E+03  0.47271155264E+02  0.17091550759E+03  0.00000000000E+00 0.  1.
<scales pt_clust_3="53.82821" pt_clust_4="32.76890" pt_clust_5="256.41708" pt_clust_6="53.82821"></scales>
<clustering>
<clus scale="   32.769">  1  4  2 -1</clus>
<clus scale="   53.828">  3  6 -1 -1</clus>
<clus scale="  256.417">  1  5  2 -1</clus>
<clus scale="   32.769">  1  3  2 -1</clus>
</clustering>
</event>
<event>
 6    0  0.3667994E+002  0.9663764E+02  0.7546771E-02  0.1287530E+00
         21   -1    0    0  503  502  0.00000000000E+00  0.00000000000E+00  0.17064913618E+03  0.17064913618E+03  0.00000000000E+00 0.  1.
          2   -1    0    0  505    0 -0.00000000000E+00 -0.00000000000E+00 -0.50801277827E+03  0.50801277827E+03  0.00000000000E+00 0.  1.
         21    1    1    2  503  501 -0.49915282220E+02  0.83426976770E+02  0.13463232622E+03  0.16606462331E+03  0.00000000000E+00 0.  1.
         21    1    1    2  504  502  0.50963415988E+02 -0.21310917854E+02 -0.85093297047E+02  0.10145094475E+03  0.00000000000E+00 0. -1.
         21    1    1    2  505  504 -0.37265164864E+02  0.19944570227E+02 -0.19195363559E+03  0.19655196923E+03  0.00000000000E+00 0.  1.
          2    1    1    2  501    0  0.36217031096E+02 -0.82060629144E+02 -0.19494903567E+03  0.21459437715E+03  0.00000000000E+00 0.  1.
<scales pt_clust_3="96.63764" pt_clust_4="42.74879" pt_clust_5="42.26675" pt_clust_6="14000.00000"></scales>
<clustering>
<clus scale="   42.267">  2  5  1 -1</clus>
<clus scale="   42.749">  2  4  1 -1</clus>
<clus scale="   96.638">  1  3  2 -1</clus>
<clus scale="   96.638">  1  3  2 -1</clus>
</clustering>
</event>
<event>
 6    0  0.3667994E+002  0.2943296E+03  0.7546771E-02  0.1088110E+00
          1   -1    0    0  504    0 -0.00000000000E+00  0.00000000000E+00  0.85426115084E+03  0.85426115084E+03  0.00000000000E+00 0.  1.
         21   -1    0    0  505  502  0.00000000000E+00 -0.00000000000E+00 -0.35880699643E+03  0.35880699643E+03  0.00000000000E+00 0.  1.
         21    1    1    2  503  502  0.30337881420E+03  0.15398509066E+03 -0.17989429117E+03  0.38485330847E+03  0.00000000000E+00 0.  1.
         21    1    1    2  504  503 -0.28921389869E+02 -0.10635869644E+03  0.58110303239E+02  0.12460106919E+03  0.00000000000E+00 0.  1.
         21    1    1    2  505  501 -0.19494841805E+03  0.39958824526E+02  0.26075245046E+03  0.32801438045E+03  0.00000000000E+00 0. -1.
          1    1    1    2  501    0 -0.79509006277E+02 -0.87585218741E+02  0.35648569188E+03  0.37559938916E+03  0.00000000000E+00 0.  1.
<scales pt_clust_3="14000.00000" pt_clust_4="110.22077" pt_clust_5="294.32963" pt_clust_6="167.13857"></scales>
<clustering>
<clus scale="  110.221">  1  4  2 -1</clus>
<clus scale="  167.139">  1  6  2 -1</clus>
<clus scale="  294.330">  1  5  2 -1</clus>
<clus scale="  294.330">  2  3  1 -1</clus>
</clustering>
</event>
<event>
 6    0  0.3667994E+002  0.7330135E+02  0.7546771E-02  0.1349213E+00
          2   -1    0    0  505    0 -0.00000000000E+00  0.00000000000E+00  0.24034118386E+04  0.24034118386E+04  0.00000000000E+00 0. -1.
         21   -1    0    0  501  502  0.00000000000E+00 -0.00000000000E+00 -0.12396028618E+02  0.12396028618E+02  0.00000000000E+00 0. -1.
         21    1    1    2  503  504 -0.21932785543E+02 -0.61638680142E+02  0.16857167236E+03  0.18082251711E+03  0.00000000000E+00 0. -1.
         21    1    1    2  504  502  0.37193526096E+02  0.25086820674E+02  0.15613449295E+03  0.16245210631E+03  0.00000000000E+00 0. -1.
         21    1    1    2  505  503  0.49871329876E+02 -0.36336302121E+02  0.91744403363E+03  0.91951673788E+03  0.00000000000E+00 0. -1.
          2    1    1    2  501    0 -0.65132070429E+02  0.72888161589E+02  0.11488656110E+04  0.11530165059E+04  0.00000000000E+00 0. -1.
<scales pt_clust_3="45.08581" pt_clust_4="44.86320" pt_clust_5="73.30135" pt_clust_6="14000.00000"></scales>
<clustering>
<clus scale="   44.863">  2  4  1 -1</clus>
<clus scale="   45.086">  2  3  1 -1</clus>
<clus scale="   73.301">  1  5  2 -1</clus>
<clus scale="   44.863">  2  3  1 -1</clus>
</clustering>
</event>
<event>
 6    0  0.3667994E+002  0.7801659E+02  0.7546771E-02  0.1334776E+00
         21   -1    0    0  504  502  0.00000000000E+00  0.00000000000E+00  0.17661688033E+03  0.17661688033E+03  0.00000000000E+00 0. -1.
          2   -1    0    0  503    0 -0.00000000000E+00 -0.00000000000E+00 -0.28066155891E+04  0.28066155891E+04  0.00000000000E+00 0.  1.
         21    1    1    2  503  502 -0.29028914025E+02  0.13495996654E+02 -0.33692711712E+03  0.33844453316E+03  0.00000000000E+00 0.  1.
         21    1    1    2  504  505  0.14459008828E+02 -0.27765218940E+02  0.15029895601E+03  0.15352441661E+03  0.00000000000E+00 0. -1.
         21    1    1    2  505  501 -0.90240192848E+02  0.31025343812E+02 -0.77278104576E+02  0.12279157060E+03  0.00000000000E+00 0. -1.
          2    1    1    2  501    0  0.10481009804E+03 -0.16756121526E+02 -0.23660924431E+04  0.23684719490E+04  0.00000000000E+00 0.  1.
<scales pt_clust_3="31.25617" pt_clust_4="31.30448" pt_clust_5="78.01659" pt_clust_6="14000.00000"></scales>
<clustering>
<clus scale="   31.304">  1  4  2 -1</clus>
<clus scale="   31.256">  2  3  1 -1</clus>
<clus scale="   78.017">  1  5  2 -1</clus>
<clus scale="   31.304">  1  3  2 -1</clus>
</clustering>
</event>
<event>
 6    0  0.3667994E+002  0.1533953E+03  0.7546771E-02  0.1196362E+00
          2   -1    0    0  505    0 -0.00000000000E+00  0.00000000000E+00  0.21116451454E+04  0.21116451454E+04  0.00000000000E+00 0.  1.
         21   -1    0    0  504  502  0.00000000000E+00 -0.00000000000E+00 -0.21387780551E+02  0.21387780551E+02  0.00000000000E+00 0.  1.
         21    1    1    2  503  502  0.12643996781E+03 -0.49498974292E+02  0.27656524815E+03  0.30809990328E+03  0.00000000000E+00 0.  1.
         21    1    1    2  504  501 -0.67069631943E+02  0.85117095708E+02  0.10556471478E+04  0.10611946835E+04  0.00000000000E+00 0.  1.
         21    1    1    2  505  503 -0.74805320237E+01 -0.37923623800E+02  0.41312683864E+03  0.41493125262E+03  0.00000000000E+00 0.  1.
          2    1    1    2  501    0 -0.51889803839E+02  0.23055023839E+01  0.34491813019E+03  0.34880708654E+03  0.00000000000E+00 0.  1.
<scales pt_clust_3="137.12140" pt_clust_4="51.83826" pt_clust_5="38.65436" pt_clust_6="51.83826"></scales>
<clustering>
<clus scale="   38.654">  1  5  2 -1</clus>
<clus scale="   51.838">  4  6 -1 -1</clus>
<clus scale="  137.121">  2  3  1 -1</clus>
<clus scale="  137.121">  2  3  1 -1</clus>
</clustering>
</event>
<event>
 6    0  0.3667994E+002  0.1417115E+03  0.7546771E-02  0.1211044E+00
         -2   -1    0    0    0  501 -0.00000000000E+00  0.00000000000E+00  0.14122381079E+03  0.14122381079E+03  0.00000000000E+00 0. -1.
         21   -1    0    0  504  502  0.00000000000E+00 -0.00000000000E+00 -0.43923958403E+03  0.43923958403E+03  0.00000000000E+00 0. -1.
         21    1    1    2  503  505 -0.43726208513E+02  0.55418219503E+02 -0.93628438201E+02  0.11725802661E+03  0.00000000000E+00 0. -1.
         21    1    1    2  504  503 -0.78463499744E+02  0.28389000832E+02 -0.12810090820E+03  0.15288001452E+03  0.00000000000E+00 0. -1.
         21    1    1    2  505  501  0.10702417356E+02 -0.28272168472E+02  0.94345327673E+02  0.99070167564E+02  0.00000000000E+00 0. -1.
         -2    1    1    2    0  502  0.11148729090E+03 -0.55535051863E+02 -0.17063175452E+03  0.21125518613E+03  0.00000000000E+00 0. -1.
<scales pt_clust_3="38.66571" pt_clust_4="38.66571" pt_clust_5="30.23007" pt_clust_6="135.00172"></scales>
<clustering>
<clus scale="   30.230">  1  5  2 -1</clus>
<clus scale="   38.666">  3  4 -1 -1</clus>
<clus scale="  135.002">  2  6  1 -1</clus>
<clus scale="  135.002">  2  3  1 -1</clus>
</clustering>
</event>
<event>
 6    0  0.3667994E+002  0.1847192E+03  0.7546771E-02  0.1163312E+00
         21   -1    0    0  501  502  0.00000000000E+00  0.00000000000E+00  0.53418786593E+03  0.53418786593E+03  0.00000000000E+00 0.  1.
          1   -1    0    0  503    0 -0.00000000000E+00 -0.00000000000E+00 -0.15914175649E+04  0.15914175649E+04  0.00000000000E+00 0.  1.
         21    1    1    2  503  504  0.29477885667E+02  0.24786031147E+02 -0.10282423091E+03  0.10980034402E+03  0.00000000000E+00 0. -1.
         21    1    1    2  504  505  0.25079331375E+02 -0.77956381392E+02 -0.28459339022E+03  0.29614112855E+03  0.00000000000E+00 0. -1.
         21    1    1    2  505  502  0.64619364528E+02 -0.17202917137E+03  0.49463490550E+03  0.52766787643E+03  0.00000000000E+00 0.  1.
          1    1    1    2  501    0 -0.11917658157E+03  0.22519952162E+03 -0.11644469833E+04  0.11919960818E+04  0.00000000000E+00 0.  1.
<scales pt_clust_3="38.51354" pt_clust_4="79.34977" pt_clust_5="184.71919" pt_clust_6="14000.00000"></scales>
<clustering>
<clus scale="   38.514">  2  3  1 -1</clus>
<clus scale="   79.350">  2  4  1 -1</clus>
<clus scale="  184.719">  1  5  2 -1</clus>
<clus scale="  184.719">  1  3  2 -1</clus>
</clustering>
</event>
<event>
 6    0  0.3667994E+002  0.1026583E+03  0.7546771E-02  0.1274803E+00
         21   -1    0    0  501  502  0.00000000000E+00  0.00000000000E+00  0.13689401006E+04  0.13689401006E+04  0.00000000000E+00 0. -1.
          2   -1    0    0  505    0 -0.00000000000E+00 -0.00000000000E+00 -0.17916276733E+04  0.17916276733E+04  0.00000000000E+00 0. -1.
         21    1    1    2  503  504 -0.11578235127E+02  0.59797524756E+02 -0.19130812361E+03  0.20077001184E+03  0.00000000000E+00 0.  1.
         21    1    1    2  504  502 -0.11908305382E+02 -0.10241294518E+03  0.13570753117E+04  0.13609862676E+04  0.00000000000E+00 0. -1.
         21    1    1    2  505  503 -0.33623931115E+02  0.13402322982E+02 -0.13852293270E+04  0.13857021611E+04  0.00000000000E+00 0. -1.
          2    1    1    2  501    0  0.57110471624E+02  0.29213097446E+02 -0.20322543375E+03  0.21310933334E+03  0.00000000000E+00 0. -1.
<scales pt_clust_3="102.65825" pt_clust_4="14000.00000" pt_clust_5="36.19656" pt_clust_6="53.77850"></scales>
<clustering>
<clus scale="   36.197">  2  5  1 -1</clus>
<clus scale="   53.779">  2  6  1 -1</clus>
<clus scale="  102.658">  2  3  1 -1</clus>
<clus scale="  102.658">  1  3  2 -1</clus>
</clustering>
</event>
<event>
 6    0  0.3667994E+002  0.9576477E+02  0.7546771E-02  0.1289463E+00
          2   -1    0    0  503    0 -0.00000000000E+00  0.00000000000E+00  0.13045538829E+04  0.13045538829E+04  0.00000000000E+00 0. -1.
         21   -1    0    0  505  502  0.00000000000E+00 -0.00000000000E+00 -0.28711376461E+02  0.28711376461E+02  0.00000000000E+00 0.  1.
         21    1    1    2  503  504 -0.11601131751E+02  0.33623751027E+02  0.24180833873E+03  0.24441034260E+03  0.00000000000E+00 0. -1.
         21    1    1    2  504  502  0.27294699994E+02 -0.23412120038E+02  0.10398407834E+03  0.11002643573E+03  0.00000000000E+00 0.  1.
         21    1    1    2  505  501 -0.96489473303E+02 -0.15082885161E+02  0.83713114445E+02  0.12862969102E+03  0.00000000000E+00 0.  1.
          2    1    1    2  501    0  0.80795905060E+02  0.48712541727E+01  0.84633697491E+03  0.85019878999E+03  0.00000000000E+00 0. -1.
<scales pt_clust_3="35.56885" pt_clust_4="32.91541" pt_clust_5="14000.00000" pt_clust_6="95.76477"></scales>
<clustering>
<clus scale="   35.569">  1  3  2 -1</clus>
<clus scale="   32.915">  1  4  2 -1</clus>
<clus scale="   95.765">  1  6  2 -1</clus>
<clus scale="   95.765">  2  3  1 -1</clus>
</clustering>
</event>
<event>
 6    0  0.3667994E+002  0.1177566E+03  0.7546771E-02  0.1246845E+00
         21   -1    0    0  504  502  0.00000000000E+00  0.00000000000E+00  0.29395612405E+02  0.29395612405E+02  0.00000000000E+00 0. -1.
          2   -1    0    0  502    0 -0.00000000000E+00 -0.00000000000E+00 -0.82320708449E+03  0.82320708449E+03  0.00000000000E+00 0.  1.
         21    1    1    2  503  501 -0.41350664249E+02 -0.32042584990E+02 -0.19991880778E+03  0.20664978682E+03  0.00000000000E+00 0. -1.
         21    1    1    2  504  505 -0.18649316531E+01  0.46397332242E+02 -0.35303778116E+02  0.58331356563E+02  0.00000000000E+00 0. -1.
         21    1    1    2  505  503  0.67563719109E+02  0.62767200146E+02 -0.20321209401E+03  0.22315853715E+03  0.00000000000E+00 0. -1.
          2    1    1    2  501    0 -0.24348123207E+02 -0.77121947398E+02 -0.35537679218E+03  0.36446301636E+03  0.00000000000E+00 0.  1.
<scales pt_clust_3="32.00326" pt_clust_4="46.43480" pt_clust_5="110.82965" pt_clust_6="32.00326"></scales>
<clustering>
<clus scale="   32.003">  3  6 -1 -1</clus>
<clus scale="   46.435">  1  4  2 -1</clus>
<clus scale="  110.830">  1  5  2 -1</clus>
<clus scale="   46.435">  1  3  2 -1</clus>
</clustering>
</event>
<event>
 6    0  0.3667994E+002  0.8940158E+02  0.7546771E-02  0.1304307E+00
         21   -1    0    0  505  502  0.00000000000E+00  0.00000000000E+00  0.37613985243E+03  0.37613985243E+03  0.00000000000E+00 0.  1.
          1   -1    0    0  503    0 -0.00000000000E+00 -0.00000000000E+00 -0.64045315442E+03  0.64045315442E+03  0.00000000000E+00 0.  1.
         21    1    1    2  503  502 -0.60684945931E+02  0.44441322598E+01 -0.60175534229E+02  0.85577496422E+02  0.00000000000E+00 0.  1.
         21    1    1    2  504  501  0.13126275036E+03  0.33221370981E+02 -0.17407577770E+03  0.22053558784E+03  0.00000000000E+00 0.  1.
         21    1    1    2  505  504 -0.35000721240E+02 -0.11248267717E+02  0.33788251103E+03  0.33987669128E+03  0.00000000000E+00 0.  1.
          1    1    1    2  501    0 -0.35577083190E+02 -0.26417235524E+02 -0.36794450109E+03  0.37060323132E+03  0.00000000000E+00 0.  1.
<scales pt_clust_3="89.40158" pt_clust_4="14000.00000" pt_clust_5="36.76376" pt_clust_6="45.55630"></scales>
<clustering>
<clus scale="   36.764">  1  5  2 -1</clus>
<clus scale="   45.556">  2  6  1 -1</clus>
<clus scale="   89.402">  1  3  2 -1</clus>
<clus scale="   36.764">  1  3  2 -1</clus>
</clustering>
</event>
<event>
 6    0  0.3667994E+002  0.8704661E+02  0.7546771E-02  0.1310166E+00
         21   -1    0    0  503  502  0.00000000000E+00  0.00000000000E+00  0.66239947917E+02  0.66239947917E+02  0.00000000000E+00 0.  1.
          1   -1    0    0  505    0 -0.00000000000E+00 -0.00000000000E+00 -0.95185938073E+03  0.95185938073E+03  0.00000000000E+00 0.  1.
         21    1    1    2  503  501 -0.60237258598E+02  0.32150018674E+02 -0.19662589348E+03  0.20814392379E+03  0.00000000000E+00 0. -1.
         21    1    1    2  504  502 -0.54997325360E+02 -0.25415592901E+02  0.35615563439E+02  0.70278919445E+02  0.00000000000E+00 0.  1.
         21    1    1    2  505  504  0.19866749487E+02  0.25397968906E+02 -0.66363507651E+02  0.73782516272E+02  0.00000000000E+00 0.  1.
          1    1    1    2  501    0  0.95367834470E+02 -0.32132394678E+02 -0.65824559512E+03  0.66589396914E+03  0.00000000000E+00 0.  1.
<scales pt_clust_3="87.04661" pt_clust_4="60.02278" pt_clust_5="32.24507" pt_clust_6="14000.00000"></scales>
<clustering>
<clus scale="   32.245">  2  5  1 -1</clus>
<clus scale="   60.023">  1  4  2 -1</clus>
<clus scale="   87.047">  1  3  2 -1</clus>
<clus scale="   60.023">  1  3  2 -1</clus>
</clustering>
</event>
<event>
 6    0  0.3667994E+002  0.1047180E+03  0.7546771E-02  0.1270676E+00
         21   -1    0    0  503  502  0.00000000000E+00  0.00000000000E+00  0.30810284667E+03  0.30810284667E+03  0.00000000000E+00 0. -1.
          1   -1    0    0  505    0 -0.00000000000E+00 -0.00000000000E+00 -0.60894830254E+03  0.60894830254E+03  0.00000000000E+00 0.  1.
         21    1    1    2  503  504 -0.91609950194E+01  0.35848337128E+02  0.15890873230E+01  0.37034474522E+02  0.00000000000E+00 0.  1.
         21    1    1    2  504  501 -0.12063612840E+03  0.61659606470E+02 -0.91712815841E+02  0.16360386039E+03  0.00000000000E+00 0.  1.
         21    1    1    2  505  502  0.58518447582E+02 -0.26196311103E+02  0.24315816353E+03  0.25146878120E+03  0.00000000000E+00 0. -1.
          1    1    1    2  501    0  0.71278675840E+02 -0.71311632495E+02 -0.45387989088E+03  0.46494403309E+03  0.00000000000E+00 0.  1.
<scales pt_clust_3="37.00037" pt_clust_4="14000.00000" pt_clust_5="50.87291" pt_clust_6="104.71795"></scales>
<clustering>
<clus scale="   37.000">  1  3  2 -1</clus>
<clus scale="   50.873">  1  5  2 -1</clus>
<clus scale="  104.718">  2  6  1 -1</clus>
<clus scale="   37.000">  1  3  2 -1</clus>
</clustering>
</event>
<event>
 6    0  0.3667994E+002  0.1059798E+03  0.7546771E-02  0.1268201E+00
          1   -1    0    0  503    0 -0.00000000000E+00  0.00000000000E+00  0.13064937785E+04  0.13064937785E+04  0.00000000000E+00 0.  1.
         21   -1    0    0  501  502  0.00000000000E+00 -0.00000000000E+00 -0.19343443009E+04  0.19343443009E+04  0.00000000000E+00 0.  1.
         21    1    1    2  503  504 -0.43723802198E+02  0.22210578759E+02  0.16944886755E+03  0.17640294613E+03  0.00000000000E+00 0.  1.
         21    1    1    2  504  505 -0.78250841052E+01 -0.12284486287E+03  0.24496085901E+02  0.12550757148E+03  0.00000000000E+00 0. -1.
         21    1    1    2  505  502 -0.67620812932E+02  0.47819010042E+02 -0.18754314338E+04  0.18772592509E+04  0.00000000000E+00 0.  1.
          1    1    1    2  501    0  0.11916969923E+03  0.52815274071E+02  0.10536359580E+04  0.10616683109E+04  0.00000000000E+00 0.  1.
<scales pt_clust_3="49.04162" pt_clust_4="105.97979" pt_clust_5="82.85960" pt_clust_6="14000.00000"></scales>
<clustering>
<clus scale="   49.042">  1  3  2 -1</clus>
<clus scale="   82.860">  2  5  1 -1</clus>
<clus scale="  105.980">  2  4  1 -1</clus>
<clus scale="   82.860">  2  3  1 -1</clus>
</clustering>
</event>
<event>
 6    0  0.3667994E+002  0.7896275E+02  0.7546771E-02  0.1332021E+00
         21   -1    0    0  503  502  0.00000000000E+00  0.00000000000E+00  0.72901925730E+02  0.72901925730E+02  0.00000000000E+00 0. -1.
         -2   -1    0    0    0  501 -0.00000000000E+00 -0.00000000000E+00 -0.58164312949E+03  0.58164312949E+03  0.00000000000E+00 0. -1.
         21    1    1    2  503  501  0.50099985312E+02  0.14243916304E+02 -0.24729581870E+03  0.25272142692E+03  0.00000000000E+00 0. -1.
         21    1    1    2  504  502  0.69740110032E+02 -0.32528635079E+02  0.17215369771E+02  0.78855335925E+02  0.00000000000E+00 0. -1.
         21    1    1    2  505  504 -0.68154993371E+02  0.64495201290E+02 -0.15451676880E+03  0.18077656361E+03  0.00000000000E+00 0. -1.
         -2    1    1    2    0  505 -0.51685101974E+02 -0.46210482514E+02 -0.12414398603E+03  0.14219172876E+03  0.00000000000E+00 0. -1.
<scales pt_clust_3="52.08548" pt_clust_4="78.96275" pt_clust_5="14000.00000" pt_clust_6="51.34211"></scales>
<clustering>
<clus scale="   52.085">  2  3  1 -1</clus>
<clus scale="   51.342">  2  6  1 -1</clus>
<clus scale="   78.963">  1  4  2 -1</clus>
<clus scale="   78.963">  1  3  2 -1</clus>
</clustering>
</event>
<event>
 6    0  0.3667994E+002  0.9469628E+02  0.7546771E-02  0.1291862E+00
          2   -1    0    0  504    0 -0.00000000000E+00  0.00000000000E+00  0.19412556466E+04  0.19412556466E+04  0.00000000000E+00 0. -1.
         21   -1    0    0  505  502  0.00000000000E+00 -0.00000000000E+00 -0.36878631139E+03  0.36878631139E+03  0.00000000000E+00 0. -1.
         21    1    1    2  503  501 -0.81773456366E+02  0.53606630375E+02  0.48568587401E+03  0.49543045647E+03  0.00000000000E+00 0. -1.
         21    1    1    2  504  502 -0.15350087282E+02 -0.26422984317E+02  0.12678297482E+03  0.13041365720E+03  0.00000000000E+00 0. -1.
         21    1    1    2  505  503 -0.13863593473E+02 -0.66539937061E+02 -0.35625722625E+03  0.36268302098E+03  0.00000000000E+00 0. -1.
          2    1    1    2  501    0  0.11098713712E+03  0.39356291003E+02  0.13162577127E+04  0.13215148234E+04  0.00000000000E+00 0. -1.
<scales pt_clust_3="94.69628" pt_clust_4="30.55813" pt_clust_5="68.02024" pt_clust_6="14000.00000"></scales>
<clustering>
<clus scale="   30.558">  1  4  2 -1</clus>
<clus scale="   68.020">  2  5  1 -1</clus>
<clus scale="   94.696">  2  3  1 -1</clus>
<clus scale="   68.020">  2  3  1 -1</clus>
</clustering>
</event>
<event>
 6    0  0.3667994E+002  0.1906561E+03  0.7546771E-02  0.1157871E+00
          1   -1    0    0  505    0 -0.00000000000E+00  0.00000000000E+00  0.40264307979E+03  0.40264307979E+03  0.00000000000E+00 0. -1.
         21   -1    0    0  503  502  0.00000000000E+00 -0.00000000000E+00 -0.58236261808E+03  0.58236261808E+03  0.00000000000E+00 0. -1.
         21    1    1    2  503  504  0.64313622822E+02  0.47348608049E+02 -0.48903598337E+03  0.49551420343E+03  0.00000000000E+00 0. -1.
         21    1    1    2  504  501 -0.51123591972E+02 -0.10284507369E+03  0.10525235015E+03  0.15578442814E+03  0.00000000000E+00 0. -1.
         21    1    1    2  505  502 -0.24770822441E+02  0.15615190870E+03  0.93248051336E+02  0.18355438244E+03  0.00000000000E+00 0. -1.
          1    1    1    2  501    0  0.11580791590E+02 -0.10065544307E+03  0.11081604359E+03  0.15015268386E+03  0.00000000000E+00 0. -1.
<scales pt_clust_3="79.86321" pt_clust_4="58.92502" pt_clust_5="180.03850" pt_clust_6="58.92502"></scales>
<clustering>
<clus scale="   58.925">  4  6 -1 -1</clus>
<clus scale="   79.863">  2  3  1 -1</clus>
<clus scale="  180.039">  2  5  1 -1</clus>
<clus scale="   79.863">  2  3  1 -1</clus>
</clustering>
</event>
<event>
 6    0  0.3667994E+002  0.1016349E+03  0.7546771E-02  0.1276895E+00
         -1   -1    0    0    0  501 -0.00000000000E+00  0.00000000000E+00  0.50468700652E+03  0.50468700652E+03  0.00000000000E+00 0. -1.
         21   -1    0    0  503  502  0.00000000000E+00 -0.00000000000E+00 -0.29404401807E+03  0.29404401807E+03  0.00000000000E+00 0.  1.
         21    1    1    2  503  505 -0.68969569671E+02  0.90161492971E+02  0.23705583476E+03  0.26283334102E+03  0.00000000000E+00 0. -1.
         21    1    1    2  504  502 -0.23198614314E+02 -0.29933818451E+02 -0.25827288822E+03  0.26103466050E+03  0.00000000000E+00 0.  1.
         21    1    1    2  505  501 -0.45529903612E+01 -0.31487540739E+02  0.13975601755E+02  0.34749278948E+02  0.00000000000E+00 0. -1.
         -1    1    1    2    0  504  0.96721174345E+02 -0.28740133781E+02  0.21788444015E+03  0.24011374412E+03  0.00000000000E+00 0. -1.
<scales pt_clust_3="101.63491" pt_clust_4="37.95055" pt_clust_5="31.81501" pt_clust_6="14000.00000"></scales>
<clustering>
<clus scale="   31.815">  1  5  2 -1</clus>
<clus scale="   37.951">  2  4  1 -1</clus>
<clus scale="  101.635">  1  3  2 -1</clus>
<clus scale="   37.951">  2  3  1 -1</clus>
</clustering>
</event>
<event>
 6    0  0.3667994E+002  0.9778158E+02  0.7546771E-02  0.1285031E+00
         21   -1    0    0  504  502  0.00000000000E+00  0.00000000000E+00  0.12443988683E+03  0.12443988683E+03  0.00000000000E+00 0.  1.
         -4   -1    0    0    0  501 -0.00000000000E+00 -0.00000000000E+00 -0.13163101579E+04  0.13163101579E+04  0.00000000000E+00 0.  1.
         21    1    1    2  503  501  0.58498764599E+02 -0.26908678188E+02 -0.10753683682E+03  0.12534094980E+03  0.00000000000E+00 0. -1.
         21    1    1    2  504  503 -0.75568325501E+02 -0.37986554300E+02 -0.23456870675E+03  0.24935121478E+03  0.00000000000E+00 0.  1.
         21    1    1    2  505  502 -0.86578684943E+02  0.46211443556E+02  0.82288454464E+02  0.12807324443E+03  0.00000000000E+00 0.  1.
         -4    1    1    2    0  505  0.10364824585E+03  0.18683788932E+02 -0.93205318199E+03  0.93798463575E+03  0.00000000000E+00 0.  1.
<scales pt_clust_3="64.39086" pt_clust_4="77.14603" pt_clust_5="14000.00000" pt_clust_6="97.78158"></scales>
<clustering>
<clus scale="   64.391">  2  3  1 -1</clus>
<clus scale="   77.146">  2  4  1 -1</clus>
<clus scale="   97.782">  2  6  1 -1</clus>
<clus scale="   97.782">  1  3  2 -1</clus>
</clustering>
</event>
<event>
 6    0  0.3667994E+002  0.1233402E+03  0.7546771E-02  0.1237686E+00
         21   -1    0    0  505  502  0.00000000000E+00  0.00000000000E+00  0.32583165993E+03  0.32583165993E+03  0.00000000000E+00 0.  1.
          3   -1    0    0  504    0 -0.00000000000E+00 -0.00000000000E+00 -0.16502891693E+03  0.16502891693E+03  0.00000000000E+00 0.  1.
         21    1    1    2  503  501  0.35001612767E+02 -0.40015064547E+02  0.61773490359E+02  0.81500198761E+02  0.00000000000E+00 0.  1.
         21    1    1    2  504  502 -0.10589459845E+03  0.53663751839E+02 -0.10266744081E+03  0.15695243752E+03  0.00000000000E+00 0.  1.
         21    1    1    2  505  503  0.24203035949E+02  0.35767452126E+02  0.17352348151E+03  0.17881693493E+03  0.00000000000E+00 0.  1.
          3    1    1    2  501    0  0.46689949729E+02 -0.49416139418E+02  0.28173211940E+02  0.73591005645E+02  0.00000000000E+00 0.  1.
<scales pt_clust_3="31.77854" pt_clust_4="117.98890" pt_clust_5="43.18678" pt_clust_6="31.77854"></scales>
<clustering>
<clus scale="   31.779">  3  6 -1 -1</clus>
<clus scale="   43.187">  1  5  2 -1</clus>
<clus scale="  117.989">  2  4  1 -1</clus>
<clus scale="   43.187">  1  3  2 -1</clus>
</clustering>
</event>
<event>
 6    0  0.3667994E+002  0.9988651E+02  0.7546771E-02  0.1280535E+00
          1   -1    0    0  505    0 -0.00000000000E+00  0.00000000000E+00  0.57865761738E+03  0.57865761738E+03  0.00000000000E+00 0. -1.
         21   -1    0    0  503  502  0.00000000000E+00 -0.00000000000E+00 -0.17154155404E+04  0.17154155404E+04  0.00000000000E+00 0. -1.
         21    1    1    2  503  501 -0.84675974548E+02 -0.10402196874E+02  0.11796299484E+03  0.14557985615E+03  0.00000000000E+00 0.  1.
         21    1    1    2  504  502 -0.38397204157E+02  0.11959984864E+02 -0.16765376530E+04  0.16770199427E+04  0.00000000000E+00 0. -1.
         21    1    1    2  505  504  0.16648435137E+02 -0.35513368932E+02  0.45185461880E+01  0.39481476987E+02  0.00000000000E+00 0. -1.
          1    1    1    2  501    0  0.10642474357E+03  0.33955580942E+02  0.41729818894E+03  0.43199188189E+03  0.00000000000E+00 0. -1.
<scales pt_clust_3="14000.00000" pt_clust_4="40.20529" pt_clust_5="39.22206" pt_clust_6="99.88651"></scales>
<clustering>
<clus scale="   39.222">  1  5  2 -1</clus>
<clus scale="   40.205">  2  4  1 -1</clus>
<clus scale="   99.887">  1  6  2 -1</clus>
<clus scale="   40.205">  2  3  1 -1</clus>
</clustering>
</event>
<event>
 6    0  0.3667994E+002  0.1423728E+03  0.7546771E-02  0.1210171E+00
         21   -1    0    0  501  502  0.00000000000E+00  0.00000000000E+00  0.20303597328E+02  0.20303597328E+02  0.00000000000E+00 0. -1.
          1   -1    0    0  504    0 -0.00000000000E+00 -0.00000000000E+00 -0.30466996912E+04  0.30466996912E+04  0.00000000000E+00 0. -1.
         21    1    1    2  503  505  0.22704922143E+02 -0.12128635672E+03 -0.70693489155E+03  0.71762304500E+03  0.00000000000E+00 0. -1.
         21    1    1    2  504  503  0.46006574608E+02 -0.24134912994E+02 -0.63704177187E+03  0.63915672416E+03  0.00000000000E+00 0.  1.
         21    1    1    2  505  502 -0.26351544143E+02 -0.19995616882E+02 -0.19170923218E+02  0.38232876824E+02  0.00000000000E+00 0. -1.
          1    1    1    2  501    0 -0.42359952607E+02  0.16541688660E+03 -0.16632485072E+04  0.16719906425E+04  0.00000000000E+00 0. -1.
<scales pt_clust_3="142.37275" pt_clust_4="50.65938" pt_clust_5="33.07913" pt_clust_6="14000.00000"></scales>
<clustering>
<clus scale="   33.079">  1  5  2 -1</clus>
<clus scale="   50.659">  2  4  1 -1</clus>
<clus scale="  142.373">  1  3  2 -1</clus>
<clus scale="   33.079">  1  3  2 -1</clus>
</clustering>
</event>
<event>
 6    0  0.3667994E+002  0.1194826E+03  0.7546771E-02  0.1243953E+00
         21   -1    0    0  501  502  0.00000000000E+00  0.00000000000E+00  0.97273235903E+03  0.97273235903E+03  0.00000000000E+00 0. -1.
          3   -1    0    0  504    0 -0.00000000000E+00 -0.00000000000E+00 -0.50158831805E+02  0.50158831805E+02  0.00000000000E+00 0.  1.
         21    1    1    2  503  505 -0.32645893634E+02  0.31272676054E+02  0.49475362137E+03  0.49681473459E+03  0.00000000000E+00 0. -1.
         21    1    1    2  504  503 -0.36654478355E+02 -0.13326699635E+03  0.15865284799E+03  0.21041475536E+03  0.00000000000E+00 0.  1.
         21    1    1    2  505  502 -0.21043623298E+02  0.30892490705E+02  0.12937396810E+03  0.13466552523E+03  0.00000000000E+00 0. -1.
          3    1    1    2  501    0  0.90343995287E+02  0.71101829593E+02  0.13979308976E+03  0.18099617565E+03  0.00000000000E+00 0.  1.
<scales pt_clust_3="66.92782" pt_clust_4="119.48265" pt_clust_5="37.37887" pt_clust_6="14000.00000"></scales>
<clustering>
<clus scale="   37.379">  1  5  2 -1</clus>
<clus scale="   66.928">  1  3  2 -1</clus>
<clus scale="  119.483">  1  4  2 -1</clus>
<clus scale="   37.379">  1  3  2 -1</clus>
</clustering>
</event>
<event>
 6    0  0.3667994E+002  0.1150974E+03  0.7546771E-02  0.1251411E+00
         21   -1    0    0  503  502  0.00000000000E+00  0.00000000000E+00  0.38916023808E+03  0.38916023808E+03  0.00000000000E+00 0. -1.
          2   -1    0    0  505    0 -0.00000000000E+00 -0.00000000000E+00 -0.42419652877E+03  0.42419652877E+03  0.00000000000E+00 0. -1.
         21    1    1    2  503  501 -0.10607722093E+03  0.49445144147E+02  0.35476013961E+03  0.37356653455E+03  0.00000000000E+00 0. -1.
         21    1    1    2  504  502  0.51899043742E+02  0.25814633604E+01 -0.23406145513E+02  0.56991423409E+02  0.00000000000E+00 0.  1.
         21    1    1    2  505  504 -0.14713820169E+02 -0.37348075114E+02 -0.14666571869E+03  0.15205988379E+03  0.00000000000E+00 0. -1.
          2    1    1    2  501    0  0.68891997360E+02 -0.14678532393E+02 -0.21972456610E+03  0.23073892511E+03  0.00000000000E+00 0. -1.
<scales pt_clust_3="14000.00000" pt_clust_4="49.83029" pt_clust_5="40.14194" pt_clust_6="115.09743"></scales>
<clustering>
<clus scale="   40.142">  2  5  1 -1</clus>
<clus scale="   49.830">  2  4  1 -1</clus>
<clus scale="  115.097">  2  6  1 -1</clus>
<clus scale="  115.097">  1  3  2 -1</clus>
</clustering>
</event>
<event>
 6    0  0.3667994E+002  0.1708105E+03  0.7546771E-02  0.1177005E+00
         21   -1    0    0  505  502  0.00000000000E+00  0.00000000000E+00  0.21650403687E+03  0.21650403687E+03  0.00000000000E+00 0. -1.
          2   -1    0    0  504    0 -0.00000000000E+00 -0.00000000000E+00 -0.11586561652E+04  0.11586561652E+04  0.00000000000E+00 0.  1.
         21    1    1    2  503  502  0.80608429403E+02  0.13853523731E+03 -0.59015208379E+03  0.61153022236E+03  0.00000000000E+00 0.  1.
         21    1    1    2  504  503  0.39611646528E+02 -0.16477468891E+01 -0.10060920251E+03  0.10813884242E+03  0.00000000000E+00 0.  1.
         21    1    1    2  505  501 -0.14919934326E+03 -0.86960852334E+02  0.16277899548E+03  0.23731758308E+03  0.00000000000E+00 0. -1.
          2    1    1    2  501    0  0.28979267328E+02 -0.49926638089E+02 -0.41416983751E+03  0.41817355419E+03  0.00000000000E+00 0.  1.
<scales pt_clust_3="14000.00000" pt_clust_4="39.64590" pt_clust_5="170.81052" pt_clust_6="67.44334"></scales>
<clustering>
<clus scale="   39.646">  2  4  1 -1</clus>
<clus scale="   67.443">  2  6  1 -1</clus>
<clus scale="  170.811">  1  5  2 -1</clus>
<clus scale="  170.811">  1  3  2 -1</clus>
</clustering>
</event>
<event>
 6    0  0.3667994E+002  0.9350278E+02  0.7546771E-02  0.1294584E+00
         21   -1    0    0  501  502  0.00000000000E+00  0.00000000000E+00  0.41998933838E+02  0.41998933838E+02  0.00000000000E+00 0. -1.
          2   -1    0    0  503    0 -0.00000000000E+00 -0.00000000000E+00 -0.12110207538E+04  0.12110207538E+04  0.00000000000E+00 0.  1.
         21    1    1    2  503  505 -0.41927491462E+02  0.18952685753E+02 -0.14144451297E+03  0.14874027392E+03  0.00000000000E+00 0.  1.
         21    1    1    2  504  502  0.48139155183E+02  0.21057972046E+02 -0.22266764640E+01  0.52590631642E+02  0.00000000000E+00 0. -1.
         21    1    1    2  505  504  0.57344041153E+02 -0.62139829227E+02 -0.13838054909E+03  0.16216927514E+03  0.00000000000E+00 0. -1.
          2    1    1    2  501    0 -0.63555704874E+02  0.22129171428E+02 -0.88697008146E+03  0.88951950696E+03  0.00000000000E+00 0.  1.
<scales pt_clust_3="46.01216" pt_clust_4="51.75851" pt_clust_5="93.50278" pt_clust_6="14000.00000"></scales>
<clustering>
<clus scale="   46.012">  2  3  1 -1</clus>
<clus scale="   51.759">  1  4  2 -1</clus>
<clus scale="   93.503">  1  5  2 -1</clus>
<clus scale="   51.759">  1  3  2 -1</clus>
</clustering>
</event>
<event>
 6    0  0.3667994E+002  0.5956052E+02  0.7546771E-02  0.1399685E+00
          1   -1    0    0  504    0 -0.00000000000E+00  0.00000000000E+00  0.77320984969E+02  0.77320984969E+02  0.00000000000E+00 0.  1.
         21   -1    0    0  503  502  0.00000000000E+00 -0.00000000000E+00 -0.37601566998E+03  0.37601566998E+03  0.00000000000E+00 0. -1.
         21    1    1    2  503  501  0.78633388527E+02 -0.39934733588E+02 -0.20342694893E+03  0.22172170911E+03  0.00000000000E+00 0. -1.
         21    1    1    2  504  505  0.42773113728E+02  0.45408420178E+01  0.18237854293E+02  0.46720207977E+02  0.00000000000E+00 0.  1.
         21    1    1    2  505  502 -0.40844600502E+02  0.34063079009E+02 -0.83331727591E+02  0.98857228188E+02  0.00000000000E+00 0. -1.
          1    1    1    2  501    0 -0.80561901753E+02  0.13308125609E+01 -0.30173862781E+02  0.86037509676E+02  0.00000000000E+00 0.  1.
<scales pt_clust_3="14000.00000" pt_clust_4="43.01347" pt_clust_5="48.29800" pt_clust_6="59.56052"></scales>
<clustering>
<clus scale="   43.013">  1  4  2 -1</clus>
<clus scale="   48.298">  2  5  1 -1</clus>
<clus scale="   59.561">  1  6  2 -1</clus>
<clus scale="   48.298">  2  3  1 -1</clus>
</clustering>
</event>
<event>
 6    0  0.3667994E+002  0.1210088E+03  0.7546771E-02  0.1241442E+00
          2   -1    0    0  504    0 -0.00000000000E+00  0.00000000000E+00  0.40443180023E+03  0.40443180023E+03  0.00000000000E+00 0. -1.
         21   -1    0    0  503  502  0.00000000000E+00 -0.00000000000E+00 -0.48641204813E+03  0.48641204813E+03  0.00000000000E+00 0. -1.
         21    1    1    2  503  501 -0.12108099929E+03  0.14840532602E+02 -0.44827882069E+03  0.46458018777E+03  0.00000000000E+00 0. -1.
         21    1    1    2  504  505 -0.11904949786E+02 -0.31496627115E+02  0.26373766396E+01  0.33774562981E+02  0.00000000000E+00 0. -1.
         21    1    1    2  505  502  0.45663811926E+02 -0.73808965540E+01  0.60924993281E+02  0.76495203509E+02  0.00000000000E+00 0. -1.
          2    1    1    2  501    0  0.87322137147E+02  0.24036991067E+02  0.30273620287E+03  0.31599389409E+03  0.00000000000E+00 0. -1.
<scales pt_clust_3="14000.00000" pt_clust_4="33.67143" pt_clust_5="45.44046" pt_clust_6="121.00875"></scales>
<clustering>
<clus scale="   33.671">  1  4  2 -1</clus>
<clus scale="   45.440">  1  5  2 -1</clus>
<clus scale="  121.009">  1  6  2 -1</clus>
<clus scale="  121.009">  2  3  1 -1</clus>
</clustering>
</event>
<event>
 6    0  0.3667994E+002  0.1189867E+03  0.7546771E-02  0.1244778E+00
         -3   -1    0    0    0  501 -0.00000000000E+00  0.00000000000E+00  0.20357505281E+03  0.20357505281E+03  0.00000000000E+00 0. -1.
         21   -1    0    0  503  502  0.00000000000E+00 -0.00000000000E+00 -0.54596492391E+03  0.54596492391E+03  0.00000000000E+00 0.  1.
         21    1    1    2  503  505 -0.37193908930E+02  0.53530859338E+01  0.71724983742E+01  0.38255550231E+02  0.00000000000E+00 0. -1.
         21    1    1    2  504  502  0.11446922825E+03  0.37636558223E+02 -0.50131507447E+03  0.51559336557E+03  0.00000000000E+00 0.  1.
         21    1    1    2  505  501  0.11785730128E+02 -0.28990911289E+02  0.24528322082E+02  0.39761978776E+02  0.00000000000E+00 0. -1.
         -3    1    1    2    0  504 -0.89061049442E+02 -0.13998732868E+02  0.12722438291E+03  0.15592908214E+03  0.00000000000E+00 0. -1.
<scales pt_clust_3="35.66439" pt_clust_4="14000.00000" pt_clust_5="31.29499" pt_clust_6="118.98669"></scales>
<clustering>
<clus scale="   31.295">  1  5  2 -1</clus>
<clus scale="   35.664">  1  3  2 -1</clus>
<clus scale="  118.987">  1  6  2 -1</clus>
<clus scale="  118.987">  2  3  1 -1</clus>
</clustering>
</event>
<event>
 6    0  0.3667994E+002  0.1618279E+03  0.7546771E-02  0.1186648E+00
         -2   -1    0    0    0  501 -0.00000000000E+00  0.00000000000E+00  0.62326031508E+03  0.62326031508E+03  0.00000000000E+00 0.  1.
         21   -1    0    0  505  502  0.00000000000E+00 -0.00000000000E+00 -0.35861017668E+03  0.35861017668E+03  0.00000000000E+00 0.  1.
         21    1    1    2  503  502  0.95737889093E+02 -0.55226015904E+02  0.13440882828E+03  0.17401548598E+03  0.00000000000E+00 0.  1.
         21    1    1    2  504  501 -0.37699778820E+02 -0.44021024170E+02  0.18752734469E+03  0.19627946632E+03  0.00000000000E+00 0.  1.
         21    1    1    2  505  504 -0.11415266099E+03  0.12564838799E+03 -0.30887745179E+03  0.35245372411E+03  0.00000000000E+00 0.  1.
         -2    1    1    2    0  503  0.56114550719E+02 -0.26401347912E+02  0.25159141721E+03  0.25912181534E+03  0.00000000000E+00 0.  1.
<scales pt_clust_3="161.82793" pt_clust_4="57.95795" pt_clust_5="14000.00000" pt_clust_6="62.40510"></scales>
<clustering>
<clus scale="   57.958">  1  4  2 -1</clus>
<clus scale="   62.405">  1  6  2 -1</clus>
<clus scale="  161.828">  1  3  2 -1</clus>
<clus scale="  161.828">  2  3  1 -1</clus>
</clustering>
</event>
<event>
 6    0  0.3667994E+002  0.7660210E+02  0.7546771E-02  0.1338980E+00
          2   -1    0    0  504    0 -0.00000000000E+00  0.00000000000E+00  0.27040024309E+03  0.27040024309E+03  0.00000000000E+00 0.  1.
         21   -1    0    0  503  502  0.00000000000E+00 -0.00000000000E+00 -0.24891820035E+03  0.24891820035E+03  0.00000000000E+00 0.  1.
         21    1    1    2  503  505  0.36545176773E+01  0.30880526588E+02 -0.14344529795E+03  0.14677709606E+03  0.00000000000E+00 0.  1.
         21    1    1    2  504  502 -0.13593322196E+03 -0.40997759812E+02  0.81854998890E+01  0.14221694537E+03  0.00000000000E+00 0.  1.
         21    1    1    2  505  501  0.62508989177E+02  0.12377980175E+02  0.57556846287E+01  0.63982153970E+02  0.00000000000E+00 0.  1.
          2    1    1    2  501    0  0.69769715109E+02 -0.22607469517E+01  0.15098615618E+03  0.16634224803E+03  0.00000000000E+00 0.  1.
<scales pt_clust_3="31.09602" pt_clust_4="76.60210" pt_clust_5="66.92668" pt_clust_6="14000.00000"></scales>
<clustering>
<clus scale="   31.096">  2  3  1 -1</clus>
<clus scale="   66.927">  2  5  1 -1</clus>
<clus scale="   76.602">  2  4  1 -1</clus>
<clus scale="   31.096">  2  3  1 -1</clus>
</clustering>
</event>
<event>
 6    0  0.3667994E+002  0.1639372E+03  0.7546771E-02  0.1184322E+00
         -1   -1    0    0    0  501 -0.00000000000E+00  0.00000000000E+00  0.14321220337E+04  0.14321220337E+04  0.00000000000E+00 0. -1.
         21   -1    0    0  505  502  0.00000000000E+00 -0.00000000000E+00 -0.31130327979E+03  0.31130327979E+03  0.00000000000E+00 0. -1.
         21    1    1    2  503  504  0.56027365696E+02  0.67732456082E+02  0.10075666831E+04  0.10113937770E+04  0.00000000000E+00 0.  1.
         21    1    1    2  504  502 -0.16649242124E+03  0.78823205844E+01 -0.25310478697E+03  0.30305756960E+03  0.00000000000E+00 0. -1.
         21    1    1    2  505  501  0.52499019664E+02  0.52850818188E+02  0.77102552514E+02  0.10721081873E+03  0.00000000000E+00 0.  1.
         -1    1    1    2    0  503  0.57966035877E+02 -0.12846559485E+03  0.28925430526E+03  0.32176314812E+03  0.00000000000E+00 0. -1.
<scales pt_clust_3="14000.00000" pt_clust_4="163.93722" pt_clust_5="74.49400" pt_clust_6="135.80731"></scales>
<clustering>
<clus scale="   74.494">  1  5  2 -1</clus>
<clus scale="  135.807">  1  6  2 -1</clus>
<clus scale="  163.937">  2  4  1 -1</clus>
<clus scale="  163.937">  2  3  1 -1</clus>
</clustering>
</event>
<event>
 6    0  0.3667994E+002  0.3220476E+03  0.7546771E-02  0.1074711E+00
         21   -1    0    0  505  502  0.00000000000E+00  0.00000000000E+00  0.89912850027E+02  0.89912850027E+02  0.00000000000E+00 0.  1.
          2   -1    0    0  504    0 -0.00000000000E+00 -0.00000000000E+00 -0.19404678299E+04  0.19404678299E+04  0.00000000000E+00 0.  1.
         21    1    1    2  503  502 -0.32698986381E+03 -0.62067449832E+02 -0.58755574243E+03  0.67527512158E+03  0.00000000000E+00 0.  1.
         21    1    1    2  504  503  0.33407855033E+02 -0.16891186620E+02 -0.78382610750E+03  0.78471954465E+03  0.00000000000E+00 0. -1.
         21    1    1    2  505  501  0.94062400497E+02  0.34006424306E+02 -0.11251957449E+03  0.15054841987E+03  0.00000000000E+00 0.  1.
          2    1    1    2  501    0  0.19951960828E+03  0.44952212146E+02 -0.36665355549E+03  0.41983759386E+03  0.00000000000E+00 0.  1.
<scales pt_clust_3="316.86942" pt_clust_4="37.43524" pt_clust_5="39.85631" pt_clust_6="39.85631"></scales>
<clustering>
<clus scale="   37.435">  2  4  1 -1</clus>
<clus scale="   39.856">  5  6 -1 -1</clus>
<clus scale="  316.869">  2  3  1 -1</clus>
<clus scale="  322.048">  1  3  2 -1</clus>
</clustering>
</event>
<event>
 6    0  0.3667994E+002  0.3979738E+03  0.7546771E-02  0.1044484E+00
         21   -1    0    0  501  502  0.00000000000E+00  0.00000000000E+00  0.11340368240E+04  0.11340368240E+04  0.00000000000E+00 0. -1.
          1   -1    0    0  504    0 -0.00000000000E+00 -0.00000000000E+00 -0.23386754948E+03  0.23386754948E+03  0.00000000000E+00 0. -1.
         21    1    1    2  503  505  0.36472458127E+02 -0.93773127072E+01  0.57736846295E+02  0.68932703527E+02  0.00000000000E+00 0. -1.
         21    1    1    2  504  503 -0.20027119396E+02  0.41596201400E+03  0.16395205112E+03  0.44755531241E+03  0.00000000000E+00 0. -1.
         21    1    1    2  505  502 -0.11367134898E+02 -0.32859961607E+02  0.35621377448E+03  0.35790675037E+03  0.00000000000E+00 0.  1.
          1    1    1    2  501    0 -0.50782038330E+01 -0.37372473968E+03  0.32226660264E+03  0.49350960719E+03  0.00000000000E+00 0. -1.
<scales pt_clust_3="37.53469" pt_clust_4="397.97382" pt_clust_5="34.77052" pt_clust_6="14000.00000"></scales>
<clustering>
<clus scale="   34.771">  1  5  2 -1</clus>
<clus scale="   37.535">  1  3  2 -1</clus>
<clus scale="  397.974">  2  4  1 -1</clus>
<clus scale="   34.771">  1  3  2 -1</clus>
</clustering>
</event>
<event>
 6    0  0.3667994E+002  0.2354414E+03  0.7546771E-02  0.1122867E+00
          2   -1    0    0  504    0 -0.00000000000E+00  0.00000000000E+00  0.20135226218E+04  0.20135226218E+04  0.00000000000E+00 0. -1.
         21   -1    0    0  503  502  0.00000000000E+00 -0.00000000000E+00 -0.41989236715E+02  0.41989236715E+02  0.00000000000E+00 0. -1.
         21    1    1    2  503  501  0.49430034034E+02  0.10929891656E+03  0.40114307596E+03  0.41869481585E+03  0.00000000000E+00 0. -1.
         21    1    1    2  504  505 -0.56910646058E+02 -0.17910201547E+03  0.67255625456E+03  0.69831817185E+03  0.00000000000E+00 0. -1.
         21    1    1    2  505  502 -0.74620452670E+01 -0.65047763203E+02  0.57062547359E+02  0.86850606954E+02  0.00000000000E+00 0. -1.
          2    1    1    2  501    0  0.14942657291E+02  0.13485086212E+03  0.84077150716E+03  0.85164826382E+03  0.00000000000E+00 0. -1.
<scales pt_clust_3="79.08978" pt_clust_4="218.55406" pt_clust_5="65.47437" pt_clust_6="79.08978"></scales>
<clustering>
<clus scale="   65.474">  2  5  1 -1</clus>
<clus scale="   79.090">  3  6 -1 -1</clus>
<clus scale="  218.554">  1  4  2 -1</clus>
<clus scale="   65.474">  2  3  1 -1</clus>
</clustering>
</event>
<event>
 6    0  0.3667994E+002  0.1456923E+03  0.7546771E-02  0.1205868E+00
         21   -1    0    0  505  502  0.00000000000E+00  0.00000000000E+00  0.10599380924E+04  0.10599380924E+04  0.00000000000E+00 0.  1.
          2   -1    0    0  503    0 -0.00000000000E+00 -0.00000000000E+00 -0.24965411654E+04  0.24965411654E+04  0.00000000000E+00 0.  1.
         21    1    1    2  503  504 -0.11990687077E+03 -0.43797798033E+02 -0.19831542279E+03  0.23584934108E+03  0.00000000000E+00 0.  1.
         21    1    1    2  504  502  0.27616043801E+02 -0.56429300915E+02  0.10378205153E+04  0.10397203152E+04  0.00000000000E+00 0.  1.
         21    1    1    2  505  501  0.33610927194E+02  0.12188492539E+02 -0.33082456860E+03  0.33275088124E+03  0.00000000000E+00 0.  1.
          2    1    1    2  501    0  0.58679899773E+02  0.88038606409E+02 -0.19452835970E+04  0.19481587203E+04  0.00000000000E+00 0.  1.
<scales pt_clust_3="133.82478" pt_clust_4="62.82445" pt_clust_5="33.48035" pt_clust_6="33.48035"></scales>
<clustering>
<clus scale="   33.480">  5  6 -1 -1</clus>
<clus scale="   62.824">  1  4  2 -1</clus>
<clus scale="  133.825">  1  3  2 -1</clus>
<clus scale="   62.824">  1  3  2 -1</clus>
</clustering>
</event>
<event>
 6    0  0.3667994E+002  0.6283191E+02  0.7546771E-02  0.1386318E+00
          3   -1    0    0  505    0 -0.00000000000E+00  0.00000000000E+00  0.50060586185E+03  0.50060586185E+03  0.00000000000E+00 0. -1.
         21   -1    0    0  503  502  0.00000000000E+00 -0.00000000000E+00 -0.69556836787E+03  0.69556836787E+03  0.00000000000E+00 0.  1.
         21    1    1    2  503  501  0.61112077409E+02  0.14231881201E+02 -0.65591313691E+03  0.65890763815E+03  0.00000000000E+00 0.  1.
         21    1    1    2  504  502 -0.50716986638E+02  0.44839802295E+02  0.88994641018E+02  0.11181621856E+03  0.00000000000E+00 0. -1.
         21    1    1    2  505  504  0.57322069058E+02  0.14847567399E+02  0.24952678163E+02  0.64256563916E+02  0.00000000000E+00 0.  1.
          3    1    1    2  501    0 -0.67717159829E+02 -0.73919250895E+02  0.34700331171E+03  0.36119380909E+03  0.00000000000E+00 0. -1.
<scales pt_clust_3="14000.00000" pt_clust_4="61.36564" pt_clust_5="59.21376" pt_clust_6="62.83191"></scales>
<clustering>
<clus scale="   59.214">  1  5  2 -1</clus>
<clus scale="   61.366">  1  4  2 -1</clus>
<clus scale="   62.832">  1  6  2 -1</clus>
<clus scale="   62.832">  2  3  1 -1</clus>
</clustering>
</event>
<event>
 6    0  0.3667994E+002  0.1674639E+03  0.7546771E-02  0.1180519E+00
         21   -1    0    0  501  502  0.00000000000E+00  0.00000000000E+00  0.28247356819E+03  0.28247356819E+03  0.00000000000E+00 0.  1.
          1   -1    0    0  505    0 -0.00000000000E+00 -0.00000000000E+00 -0.82494420866E+03  0.82494420866E+03  0.00000000000E+00 0. -1.
         21    1    1    2  503  504 -0.18251350399E+03 -0.99321427589E+01 -0.47267430721E+03  0.50678479386E+03  0.00000000000E+00 0. -1.
         21    1    1    2  504  502  0.24275564750E+02 -0.34238753632E+02  0.23408945709E+03  0.23782234802E+03  0.00000000000E+00 0.  1.
         21    1    1    2  505  503  0.58109774286E+01  0.34532954094E+02 -0.19690096915E+02  0.40174522942E+02  0.00000000000E+00 0.  1.
          1    1    1    2  501    0  0.15242696182E+03  0.96379422971E+01 -0.28419569344E+03  0.32263611204E+03  0.00000000000E+00 0. -1.
<scales pt_clust_3="167.46388" pt_clust_4="41.91316" pt_clust_5="35.01846" pt_clust_6="14000.00000"></scales>
<clustering>
<clus scale="   35.018">  2  5  1 -1</clus>
<clus scale="   41.913">  1  4  2 -1</clus>
<clus scale="  167.464">  2  3  1 -1</clus>
<clus scale="   41.913">  1  3  2 -1</clus>
</clustering>
</event>
<event>
 6    0  0.3667994E+002  0.1241525E+03  0.7546771E-02  0.1236400E+00
          1   -1    0    0  505    0 -0.00000000000E+00  0.00000000000E+00  0.38812825911E+04  0.38812825911E+04  0.00000000000E+00 0. -1.
         21   -1    0    0  501  502  0.00000000000E+00 -0.00000000000E+00 -0.24237119402E+02  0.24237119402E+02  0.00000000000E+00 0. -1.
         21    1    1    2  503  504  0.66283661126E+02 -0.12535796846E+02  0.14367832382E+04  0.14383659978E+04  0.00000000000E+00 0. -1.
         21    1    1    2  504  502  0.29990106623E+02  0.27690842036E+02  0.12936123929E+02  0.42819767984E+02  0.00000000000E+00 0. -1.
         21    1    1    2  505  503  0.45959943300E+02  0.17655680239E+02  0.17627144452E+04  0.17634018983E+04  0.00000000000E+00 0. -1.
          1    1    1    2  501    0 -0.14223371105E+03 -0.32810725429E+02  0.64461166433E+03  0.66093204648E+03  0.00000000000E+00 0. -1.
<scales pt_clust_3="37.31095" pt_clust_4="40.81898" pt_clust_5="37.31095" pt_clust_6="116.21724"></scales>
<clustering>
<clus scale="   37.311">  3  5 -1 -1</clus>
<clus scale="   40.819">  2  4  1 -1</clus>
<clus scale="  116.217">  2  6  1 -1</clus>
<clus scale="   40.819">  2  3  1 -1</clus>
</clustering>
</event>
<event>
 6    0  0.3667994E+002  0.1182286E+03  0.7546771E-02  0.1246048E+00
         21   -1    0    0  501  502  0.00000000000E+00  0.00000000000E+00  0.24199262142E+03  0.24199262142E+03  0.00000000000E+00 0.  1.
          1   -1    0    0  505    0 -0.00000000000E+00 -0.00000000000E+00 -0.14509530844E+04  0.14509530844E+04  0.00000000000E+00 0.  1.
         21    1    1    2  503  504 -0.65653826155E+02  0.26444203053E+02 -0.14768226475E+03  0.16376743292E+03  0.00000000000E+00 0.  1.
         21    1    1    2  504  502 -0.10716526247E+03 -0.49045541874E+02  0.20950153319E+03  0.24037626976E+03  0.00000000000E+00 0.  1.
         21    1    1    2  505  503  0.63065590754E+01  0.34563161865E+02 -0.96140616504E+02  0.10235918614E+03  0.00000000000E+00 0. -1.
          1    1    1    2  501    0  0.16651252955E+03 -0.11961823044E+02 -0.11746391150E+04  0.11864428170E+04  0.00000000000E+00 0.  1.
<scales pt_clust_3="71.70285" pt_clust_4="118.22862" pt_clust_5="35.13381" pt_clust_6="14000.00000"></scales>
<clustering>
<clus scale="   35.134">  2  5  1 -1</clus>
<clus scale="   71.703">  2  3  1 -1</clus>
<clus scale="  118.229">  1  4  2 -1</clus>
<clus scale="  118.229">  1  3  2 -1</clus>
</clustering>
</event>
<event>
 6    0  0.3667994E+002  0.1634035E+03  0.7546771E-02  0.1184907E+00
          2   -1    0    0  503    0 -0.00000000000E+00  0.00000000000E+00  0.16173803707E+04  0.16173803707E+04  0.00000000000E+00 0. -1.
         21   -1    0    0  505  502  0.00000000000E+00 -0.00000000000E+00 -0.59532236334E+02  0.59532236334E+02  0.00000000000E+00 0.  1.
         21    1    1    2  503  504  0.78046524443E+02  0.12180097057E+03  0.37640459767E+03  0.40324577810E+03  0.00000000000E+00 0.  1.
         21    1    1    2  504  502 -0.30963102809E+02  0.25174391240E+02 -0.30525363099E+02  0.50242029240E+02  0.00000000000E+00 0.  1.
         21    1    1    2  505  501 -0.55598094544E+02 -0.69451784654E+02  0.62719645972E+03  0.63347462269E+03  0.00000000000E+00 0. -1.
          2    1    1    2  501    0  0.85146729093E+01 -0.77523577160E+02  0.58477244011E+03  0.58995017703E+03  0.00000000000E+00 0. -1.
<scales pt_clust_3="150.39844" pt_clust_4="39.90569" pt_clust_5="58.29727" pt_clust_6="58.29727"></scales>
<clustering>
<clus scale="   39.906">  2  4  1 -1</clus>
<clus scale="   58.297">  5  6 -1 -1</clus>
<clus scale="  150.398">  2  3  1 -1</clus>
<clus scale="   39.906">  2  3  1 -1</clus>
</clustering>
</event>
<event>
 6    0  0.3667994E+002  0.8263940E+02  0.7546771E-02  0.1321724E+00
         21   -1    0    0  505  502  0.00000000000E+00  0.00000000000E+00  0.33090527054E+04  0.33090527054E+04  0.00000000000E+00 0.  1.
          2   -1    0    0  504    0 -0.00000000000E+00 -0.00000000000E+00 -0.31975760829E+03  0.31975760829E+03  0.00000000000E+00 0.  1.
         21    1    1    2  503  501  0.52914017778E+02  0.33271495008E+02  0.53084732188E+02  0.82005331832E+02  0.00000000000E+00 0.  1.
         21    1    1    2  504  502 -0.44810788727E+02  0.25639377219E+02 -0.24782950278E+03  0.25314985068E+03  0.00000000000E+00 0.  1.
         21    1    1    2  505  503  0.28620649322E+02  0.36878664543E+02  0.31905211988E+04  0.31908626886E+04  0.00000000000E+00 0.  1.
          2    1    1    2  501    0 -0.36723878374E+02 -0.95789536770E+02 -0.64813311137E+01  0.10279244257E+03  0.00000000000E+00 0.  1.
<scales pt_clust_3="14000.00000" pt_clust_4="51.49115" pt_clust_5="46.68166" pt_clust_6="82.63940"></scales>
<clustering>
<clus scale="   46.682">  1  5  2 -1</clus>
<clus scale="   51.491">  2  4  1 -1</clus>
<clus scale="   82.639">  2  6  1 -1</clus>
<clus scale="   46.682">  1  3  2 -1</clus>
</clustering>
</event>
<event>
 6    0  0.3667994E+002  0.1676149E+03  0.7546771E-02  0.1180358E+00
         21   -1    0    0  504  502  0.00000000000E+00  0.00000000000E+00  0.61429393327E+03  0.61429393327E+03  0.00000000000E+00 0. -1.
          1   -1    0    0  505    0 -0.00000000000E+00 -0.00000000000E+00 -0.12845254401E+04  0.12845254401E+04  0.00000000000E+00 0. -1.
         21    1    1    2  503  502 -0.11396059557E+03  0.11521728173E+03  0.59578400740E+03  0.61743066236E+03  0.00000000000E+00 0. -1.
         21    1    1    2  504  501  0.32958927287E+02 -0.35459709897E+02 -0.27076266050E+03  0.27505654007E+03  0.00000000000E+00 0. -1.
         21    1    1    2  505  503  0.29937931626E+02 -0.11976991070E+02 -0.68586351210E+02  0.75787964991E+02  0.00000000000E+00 0.  1.
          1    1    1    2  501    0  0.51063736660E+02 -0.67780580764E+02 -0.92666650254E+03  0.93054420597E+03  0.00000000000E+00 0. -1.
<scales pt_clust_3="161.79173" pt_clust_4="31.45371" pt_clust_5="32.24481" pt_clust_6="31.45371"></scales>
<clustering>
<clus scale="   32.245">  2  5  1 -1</clus>
<clus scale="   31.454">  4  6 -1 -1</clus>
<clus scale="  161.792">  1  3  2 -1</clus>
<clus scale="  161.792">  1  3  2 -1</clus>
</clustering>
</event>
<event>
 6    0  0.3667994E+002  0.1008173E+03  0.7546771E-02  0.1278587E+00
          1   -1    0    0  504    0 -0.00000000000E+00  0.00000000000E+00  0.58225321559E+03  0.58225321559E+03  0.00000000000E+00 0. -1.
         21   -1    0    0  503  502  0.00000000000E+00 -0.00000000000E+00 -0.14562121253E+03  0.14562121253E+03  0.00000000000E+00 0.  1.
         21    1    1    2  503  505  0.56436443004E+02 -0.38547583913E+02 -0.67697464985E+02  0.96197375691E+02  0.00000000000E+00 0.  1.
         21    1    1    2  504  502 -0.25833991259E+02  0.15747468918E+02  0.17405685365E+02  0.34904666804E+02  0.00000000000E+00 0. -1.
         21    1    1    2  505  501  0.72204712223E+02  0.34318912339E+02 -0.17509310859E+02  0.81840602259E+02  0.00000000000E+00 0.  1.
          1    1    1    2  501    0 -0.10280716397E+03 -0.11518797344E+02  0.50443309354E+03  0.51493178336E+03  0.00000000000E+00 0. -1.
<scales pt_clust_3="50.26340" pt_clust_4="30.25521" pt_clust_5="14000.00000" pt_clust_6="100.81725"></scales>
<clustering>
<clus scale="   30.255">  2  4  1 -1</clus>
<clus scale="   50.263">  2  3  1 -1</clus>
<clus scale="  100.817">  1  6  2 -1</clus>
<clus scale="   30.255">  2  3  1 -1</clus>
</clustering>
</event>
<event>
 6    0  0.3667994E+002  0.7559527E+02  0.7546771E-02  0.1342038E+00
          2   -1    0    0  505    0 -0.00000000000E+00  0.00000000000E+00  0.12641752033E+04  0.12641752033E+04  0.00000000000E+00 0. -1.
         21   -1    0    0  503  502  0.00000000000E+00 -0.00000000000E+00 -0.37659006972E+03  0.37659006972E+03  0.00000000000E+00 0. -1.
         21    1    1    2  503  501  0.40090535882E+02  0.64033127862E+02 -0.35790853966E+03  0.36579504547E+03  0.00000000000E+00 0. -1.
         21    1    1    2  504  502  0.59324864565E+02  0.10031689474E+02  0.74635115353E+02  0.95866964034E+02  0.00000000000E+00 0. -1.
         21    1    1    2  505  504 -0.27678428143E+02 -0.14862101826E+02  0.11687802265E+03  0.12102664844E+03  0.00000000000E+00 0.  1.
          2    1    1    2  501    0 -0.71736972304E+02 -0.59202715510E+02  0.10539805352E+04  0.10580766151E+04  0.00000000000E+00 0. -1.
<scales pt_clust_3="14000.00000" pt_clust_4="57.95585" pt_clust_5="31.41620" pt_clust_6="75.59527"></scales>
<clustering>
<clus scale="   31.416">  1  5  2 -1</clus>
<clus scale="   57.956">  1  4  2 -1</clus>
<clus scale="   75.595">  1  6  2 -1</clus>
<clus scale="   75.595">  2  3  1 -1</clus>
</clustering>
</event>
<event>
 6    0  0.3667994E+002  0.3105203E+03  0.7546771E-02  0.1080097E+00
          2   -1    0    0  502    0 -0.00000000000E+00  0.00000000000E+00  0.13923060017E+04  0.13923060017E+04  0.00000000000E+00 0. -1.
         21   -1    0    0  505  502  0.00000000000E+00 -0.00000000000E+00 -0.10561916044E+03  0.10561916044E+03  0.00000000000E+00 0.  1.
         21    1    1    2  503  504  0.53699913461E+02 -0.84889454755E+02 -0.23697930909E+01  0.10047644577E+03  0.00000000000E+00 0.  1.
         21    1    1    2  504  501 -0.10494112863E+03  0.11806589400E+03  0.60593280524E+03  0.62618428619E+03  0.00000000000E+00 0. -1.
         21    1    1    2  505  503  0.10845217897E+03 -0.14484062098E+03  0.18977846287E+03  0.26221469367E+03  0.00000000000E+00 0.  1.
          2    1    1    2  501    0 -0.57210963807E+02  0.11166418173E+03  0.49334536623E+03  0.50904973651E+03  0.00000000000E+00 0. -1.
<scales pt_clust_3="98.15109" pt_clust_4="31.81787" pt_clust_5="98.15109" pt_clust_6="283.44980"></scales>
<clustering>
<clus scale="   31.818">  4  6 -1 -1</clus>
<clus scale="   98.151">  3  5 -1 -1</clus>
<clus scale="  283.450">  1  4  2 -1</clus>
<clus scale="  310.520">  2  3  1 -1</clus>
</clustering>
</event>
<event>
 6    0  0.3667994E+002  0.8455121E+02  0.7546771E-02  0.1316610E+00
          2   -1    0    0  505    0 -0.00000000000E+00  0.00000000000E+00  0.35746347722E+03  0.35746347722E+03  0.00000000000E+00 0. -1.
         21   -1    0    0  504  502  0.00000000000E+00 -0.00000000000E+00 -0.76800357589E+03  0.76800357589E+03  0.00000000000E+00 0.  1.
         21    1    1    2  503  501  0.45411094658E+02  0.50337976829E+02  0.11516317751E+03  0.13363621097E+03  0.00000000000E+00 0. -1.
         21    1    1    2  504  503 -0.27871197203E+02  0.79844465824E+02 -0.71805580647E+03  0.72301872974E+03  0.00000000000E+00 0.  1.
         21    1    1    2  505  502 -0.16287624586E+01 -0.89437105274E+02  0.20891045586E+02  0.91859046656E+02  0.00000000000E+00 0. -1.
          2    1    1    2  501    0 -0.15911134997E+02 -0.40745337379E+02  0.17146148471E+03  0.17695306573E+03  0.00000000000E+00 0. -1.
<scales pt_clust_3="41.37865" pt_clust_4="84.55121" pt_clust_5="14000.00000" pt_clust_6="43.74182"></scales>
<clustering>
<clus scale="   43.742">  1  6  2 -1</clus>
<clus scale="   41.379">  1  3  2 -1</clus>
<clus scale="   84.551">  2  4  1 -1</clus>
<clus scale="   84.551">  2  3  1 -1</clus>
</clustering>
</event>
<event>
 6    0  0.3667994E+002  0.7194556E+02  0.7546771E-02  0.1353599E+00
         21   -1    0    0  505  502  0.00000000000E+00  0.00000000000E+00  0.14153205979E+03  0.14153205979E+03  0.00000000000E+00 0.  1.
          1   -1    0    0  503    0 -0.00000000000E+00 -0.00000000000E+00 -0.53541566658E+03  0.53541566658E+03  0.00000000000E+00 0.  1.
         21    1    1    2  503  504 -0.31386876632E+02  0.14987407498E+02 -0.40866065477E+03  0.41013813425E+03  0.00000000000E+00 0.  1.
         21    1    1    2  504  502  0.51085983643E+02 -0.94705024457E+02 -0.52599239138E+02  0.11977269864E+03  0.00000000000E+00 0.  1.
         21    1    1    2  505  501 -0.42437048853E+02  0.26883570589E+02  0.73677111115E+02  0.89173685497E+02  0.00000000000E+00 0.  1.
          1    1    1    2  501    0  0.22737941842E+02  0.52834046371E+02 -0.63008239925E+01  0.57863207983E+02  0.00000000000E+00 0.  1.
<scales pt_clust_3="34.78158" pt_clust_4="71.94556" pt_clust_5="52.35978" pt_clust_6="14000.00000"></scales>
<clustering>
<clus scale="   34.782">  2  3  1 -1</clus>
<clus scale="   52.360">  1  5  2 -1</clus>
<clus scale="   71.946">  2  4  1 -1</clus>
<clus scale="   52.360">  1  3  2 -1</clus>
</clustering>
</event>
<event>
 6    0  0.3667994E+002  0.8856164E+02  0.7546771E-02  0.1306373E+00
          1   -1    0    0  503    0 -0.00000000000E+00  0.00000000000E+00  0.10480877400E+04  0.10480877400E+04  0.00000000000E+00 0. -1.
         21   -1    0    0  501  502  0.00000000000E+00 -0.00000000000E+00 -0.12108562261E+03  0.12108562261E+03  0.00000000000E+00 0.  1.
         21    1    1    2  503  504 -0.34152380407E+02 -0.27071685574E+02  0.19698875578E+03  0.20175190495E+03  0.00000000000E+00 0. -1.
         21    1    1    2  504  505 -0.30783066474E+02  0.64755432506E+02  0.24179989840E+03  0.25220637201E+03  0.00000000000E+00 0. -1.
         21    1    1    2  505  502  0.35281694865E+01  0.87408653486E+02 -0.86991744956E+02  0.12337051663E+03  0.00000000000E+00 0.  1.
          1    1    1    2  501    0  0.61407277395E+02 -0.12509240042E+03  0.57520520819E+03  0.59184456903E+03  0.00000000000E+00 0. -1.
<scales pt_clust_3="43.58051" pt_clust_4="69.95200" pt_clust_5="14000.00000" pt_clust_6="88.56164"></scales>
<clustering>
<clus scale="   43.581">  1  3  2 -1</clus>
<clus scale="   69.952">  1  4  2 -1</clus>
<clus scale="   88.562">  1  6  2 -1</clus>
<clus scale="   88.562">  2  3  1 -1</clus>
</clustering>
</event>
<event>
 6    0  0.3667994E+002  0.8481502E+02  0.7546771E-02  0.1315917E+00
          4   -1    0    0  503    0 -0.00000000000E+00  0.00000000000E+00  0.90061852622E+03  0.90061852622E+03  0.00000000000E+00 0. -1.
         21   -1    0    0  504  502  0.00000000000E+00 -0.00000000000E+00 -0.47552708703E+02  0.47552708703E+02  0.00000000000E+00 0. -1.
         21    1    1    2  503  505  0.34262729921E+02 -0.43137790331E+01  0.15232583647E+03  0.15619124114E+03  0.00000000000E+00 0. -1.
         21    1    1    2  504  501 -0.22855438296E+02  0.79362626433E+02  0.10896228104E+02  0.83303813364E+02  0.00000000000E+00 0. -1.
         21    1    1    2  505  502 -0.48070549410E+02  0.26023458288E+02  0.22037110082E+03  0.22704937829E+03  0.00000000000E+00 0. -1.
          4    1    1    2  501    0  0.36663257785E+02 -0.10107230569E+03  0.46947265212E+03  0.48162680214E+03  0.00000000000E+00 0. -1.
<scales pt_clust_3="34.53322" pt_clust_4="84.81502" pt_clust_5="45.17186" pt_clust_6="14000.00000"></scales>
<clustering>
<clus scale="   34.533">  1  3  2 -1</clus>
<clus scale="   45.172">  1  5  2 -1</clus>
<clus scale="   84.815">  2  4  1 -1</clus>
<clus scale="   84.815">  2  3  1 -1</clus>
</clustering>
</event>
<event>
 6    0  0.3667994E+002  0.2258719E+03  0.7546771E-02  0.1129580E+00
          2   -1    0    0  503    0 -0.00000000000E+00  0.00000000000E+00  0.13725177887E+04  0.13725177887E+04  0.00000000000E+00 0. -1.
         21   -1    0    0  501  502  0.00000000000E+00 -0.00000000000E+00 -0.75614892479E+02  0.75614892479E+02  0.00000000000E+00 0. -1.
         21    1    1    2  503  505  0.19664679325E+03  0.22168845326E+02  0.38715266253E+03  0.43479719767E+03  0.00000000000E+00 0. -1.
         21    1    1    2  504  502 -0.91481566361E+01  0.29695108509E+02  0.11077157464E+01  0.31092045178E+02  0.00000000000E+00 0. -1.
         21    1    1    2  505  504  0.33761431395E+02  0.93943169024E+02  0.16554490984E+03  0.19331391680E+03  0.00000000000E+00 0.  1.
          2    1    1    2  501    0 -0.22126006800E+03 -0.14580712286E+03  0.74309760812E+03  0.78892952155E+03  0.00000000000E+00 0. -1.
<scales pt_clust_3="14000.00000" pt_clust_4="31.07231" pt_clust_5="105.60378" pt_clust_6="225.87187"></scales>
<clustering>
<clus scale="   31.072">  2  4  1 -1</clus>
<clus scale="  105.604">  2  5  1 -1</clus>
<clus scale="  225.872">  1  6  2 -1</clus>
<clus scale="   31.072">  2  3  1 -1</clus>
</clustering>
</event>
<event>
 6    0  0.3667994E+002  0.1863960E+03  0.7546771E-02  0.1161753E+00
          3   -1    0    0  505    0 -0.00000000000E+00  0.00000000000E+00  0.22204852022E+04  0.22204852022E+04  0.00000000000E+00 0. -1.
         21   -1    0    0  503  502  0.00000000000E+00 -0.00000000000E+00 -0.75901075943E+02  0.75901075943E+02  0.00000000000E+00 0.  1.
         21    1    1    2  503  504 -0.42501073655E+02 -0.16691669119E+02 -0.45139578193E+02  0.64206966906E+02  0.00000000000E+00 0.  1.
         21    1    1    2  504  501 -0.12605071955E+02  0.19745584863E+03  0.69797378108E+03  0.72547577429E+03  0.00000000000E+00 0.  1.
         21    1    1    2  505  502 -0.24770263415E+02 -0.18994250459E+02  0.23854864250E+03  0.24058221534E+03  0.00000000000E+00 0.  1.
          3    1    1    2  501    0  0.79876409026E+02 -0.16176992905E+03  0.12532012809E+04  0.12661213216E+04  0.00000000000E+00 0. -1.
<scales pt_clust_3="45.80568" pt_clust_4="186.39602" pt_clust_5="31.21454" pt_clust_6="14000.00000"></scales>
<clustering>
<clus scale="   31.215">  1  5  2 -1</clus>
<clus scale="   45.806">  2  3  1 -1</clus>
<clus scale="  186.396">  2  4  1 -1</clus>
<clus scale="   45.806">  2  3  1 -1</clus>
</clustering>
</event>
<event>
 6    0  0.3667994E+002  0.1166269E+03  0.7546771E-02  0.1248768E+00
          1   -1    0    0  504    0 -0.00000000000E+00  0.00000000000E+00  0.49980816353E+03  0.49980816353E+03  0.00000000000E+00 0.  1.
         21   -1    0    0  503  502  0.00000000000E+00 -0.00000000000E+00 -0.23831544658E+03  0.23831544658E+03  0.00000000000E+00 0.  1.
         21    1    1    2  503  505  0.21559879720E+02 -0.38298602319E+02 -0.19650565838E+03  0.20136058485E+03  0.00000000000E+00 0.  1.
         21    1    1    2  504  502  0.10953641281E+03  0.23510354338E+02  0.16551140309E+03  0.19986242029E+03  0.00000000000E+00 0.  1.
         21    1    1    2  505  501 -0.12204727344E+03  0.48784687867E+02  0.24157442634E+03  0.27501579261E+03  0.00000000000E+00 0.  1.
          1    1    1    2  501    0 -0.90490190940E+01 -0.33996439886E+02  0.50912545904E+02  0.61884812369E+02  0.00000000000E+00 0.  1.
<scales pt_clust_3="44.08819" pt_clust_4="116.62692" pt_clust_5="14000.00000" pt_clust_6="35.18015"></scales>
<clustering>
<clus scale="   35.180">  1  6  2 -1</clus>
<clus scale="   44.088">  2  3  1 -1</clus>
<clus scale="  116.627">  1  4  2 -1</clus>
<clus scale="   44.088">  2  3  1 -1</clus>
</clustering>
</event>
<event>
 6    0  0.3667994E+002  0.8564334E+02  0.7546771E-02  0.1313759E+00
         21   -1    0    0  505  502  0.00000000000E+00  0.00000000000E+00  0.14664720622E+03  0.14664720622E+03  0.00000000000E+00 0. -1.
          2   -1    0    0  504    0 -0.00000000000E+00 -0.00000000000E+00 -0.20999893272E+03  0.20999893272E+03  0.00000000000E+00 0. -1.
         21    1    1    2  503  502 -0.30882162589E+02  0.29286514552E+02  0.70128831413E+02  0.82033291389E+02  0.00000000000E+00 0. -1.
         21    1    1    2  504  503 -0.94668679879E+02 -0.89242604802E+01 -0.78655920004E+02  0.12340403205E+03  0.00000000000E+00 0. -1.
         21    1    1    2  505  501  0.48840726065E+02 -0.28997041388E+02 -0.47727243484E+00  0.56802048562E+02  0.00000000000E+00 0. -1.
          2    1    1    2  501    0  0.76710116403E+02  0.86347873157E+01 -0.54347365474E+02  0.94406766942E+02  0.00000000000E+00 0. -1.
<scales pt_clust_3="42.56064" pt_clust_4="85.64334" pt_clust_5="40.41056" pt_clust_6="14000.00000"></scales>
<clustering>
<clus scale="   42.561">  1  3  2 -1</clus>
<clus scale="   40.411">  1  5  2 -1</clus>
<clus scale="   85.643">  1  4  2 -1</clus>
<clus scale="   42.561">  1  3  2 -1</clus>
</clustering>
</event>
<event>
 6    0  0.3667994E+002  0.1502500E+03  0.7546771E-02  0.1200166E+00
          1   -1    0    0  504    0 -0.00000000000E+00  0.00000000000E+00  0.13608134881E+04  0.13608134881E+04  0.00000000000E+00 0.  1.
         21   -1    0    0  505  502  0.00000000000E+00 -0.00000000000E+00 -0.33731867787E+02  0.33731867787E+02  0.00000000000E+00 0.  1.
         21    1    1    2  503  501 -0.21949267131E+02 -0.86571888488E+02  0.36811283096E+03  0.37879218382E+03  0.00000000000E+00 0.  1.
         21    1    1    2  504  502  0.21205174756E+02 -0.26735487566E+02  0.54041106408E+03  0.54148736266E+03  0.00000000000E+00 0.  1.
         21    1    1    2  505  503 -0.19555908202E+02  0.14822280461E+03  0.18801712675E+03  0.24021422378E+03  0.00000000000E+00 0.  1.
          1    1    1    2  501    0  0.20300000578E+02 -0.34915428556E+02  0.23054059851E+03  0.23405158563E+03  0.00000000000E+00 0.  1.
<scales pt_clust_3="33.14715" pt_clust_4="34.12398" pt_clust_5="141.93450" pt_clust_6="33.14715"></scales>
<clustering>
<clus scale="   33.147">  3  6 -1 -1</clus>
<clus scale="   34.124">  1  4  2 -1</clus>
<clus scale="  141.934">  2  5  1 -1</clus>
<clus scale="  141.934">  2  3  1 -1</clus>
</clustering>
</event>
<event>
 6    0  0.3667994E+002  0.8542118E+02  0.7546771E-02  0.1314335E+00
         -1   -1    0    0    0  501 -0.00000000000E+00  0.00000000000E+00  0.80282455299E+03  0.80282455299E+03  0.00000000000E+00 0.  1.
         21   -1    0    0  503  502  0.00000000000E+00 -0.00000000000E+00 -0.44203829262E+02  0.44203829262E+02  0.00000000000E+00 0. -1.
         21    1    1    2  503  505 -0.10613407341E+02 -0.28945056104E+02  0.53281288958E+02  0.61557748832E+02  0.00000000000E+00 0.  1.
         21    1    1    2  504  502 -0.43165831468E+02 -0.27223683379E+02  0.24281420111E+02  0.56515531544E+02  0.00000000000E+00 0. -1.
         21    1    1    2  505  501  0.94664851252E+02 -0.22024868804E+02  0.93694320644E+02  0.13500057270E+03  0.00000000000E+00 0. -1.
         -1    1    1    2    0  504 -0.40885612443E+02  0.78193608287E+02  0.58736369402E+03  0.59395452918E+03  0.00000000000E+00 0.  1.
<scales pt_clust_3="30.82954" pt_clust_4="61.32513" pt_clust_5="85.42118" pt_clust_6="14000.00000"></scales>
<clustering>
<clus scale="   30.830">  2  3  1 -1</clus>
<clus scale="   61.325">  2  4  1 -1</clus>
<clus scale="   85.421">  2  5  1 -1</clus>
<clus scale="   30.830">  2  3  1 -1</clus>
</clustering>
</event>
<event>
 6    0  0.3667994E+002  0.1306238E+03  0.7546771E-02  0.1226533E+00
         -3   -1    0    0    0  501 -0.00000000000E+00  0.00000000000E+00  0.30199951661E+03  0.30199951661E+03  0.00000000000E+00 0. -1.
         21   -1    0    0  504  502  0.00000000000E+00 -0.00000000000E+00 -0.33307092267E+03  0.33307092267E+03  0.00000000000E+00 0.  1.
         21    1    1    2  503  501  0.31802669437E+02 -0.37279378179E+01  0.14840832527E+03  0.15182337868E+03  0.00000000000E+00 0. -1.
         21    1    1    2  504  503 -0.12493833795E+03 -0.51875522485E+01 -0.29941106607E+03  0.32447416765E+03  0.00000000000E+00 0.  1.
         21    1    1    2  505  502  0.43096680289E+02  0.26979154312E+02  0.58797591136E+02  0.77732588679E+02  0.00000000000E+00 0. -1.
         -3    1    1    2    0  505  0.50038988223E+02 -0.18063664245E+02  0.61133743609E+02  0.81040304269E+02  0.00000000000E+00 0. -1.
<scales pt_clust_3="32.02042" pt_clust_4="122.43775" pt_clust_5="43.75132" pt_clust_6="43.75132"></scales>
<clustering>
<clus scale="   32.020">  1  3  2 -1</clus>
<clus scale="   43.751">  5  6 -1 -1</clus>
<clus scale="  122.438">  2  4  1 -1</clus>
<clus scale="  122.438">  2  3  1 -1</clus>
</clustering>
</event>
<event>
 6    0  0.3667994E+002  0.7344030E+02  0.7546771E-02  0.1348770E+00
          2   -1    0    0  504    0 -0.00000000000E+00  0.00000000000E+00  0.47178734777E+03  0.47178734777E+03  0.00000000000E+00 0. -1.
         21   -1    0    0  505  502  0.00000000000E+00 -0.00000000000E+00 -0.79460411872E+03  0.79460411872E+03  0.00000000000E+00 0.  1.
         21    1    1    2  503  502  0.78041806074E+02 -0.29313967081E+02  0.66017887276E+02  0.10633999060E+03  0.00000000000E+00 0.  1.
         21    1    1    2  504  503 -0.80013746417E+02  0.16943826484E+01  0.18944657377E+03  0.20565766424E+03  0.00000000000E+00 0. -1.
         21    1    1    2  505  501 -0.32061039983E+02 -0.25299866421E+02 -0.76051155651E+03  0.76160739303E+03  0.00000000000E+00 0.  1.
          2    1    1    2  501    0  0.34032980326E+02  0.52919450853E+02  0.18223032452E+03  0.19278641861E+03  0.00000000000E+00 0. -1.
<scales pt_clust_3="73.44030" pt_clust_4="14000.00000" pt_clust_5="40.84108" pt_clust_6="56.87986"></scales>
<clustering>
<clus scale="   40.841">  2  5  1 -1</clus>
<clus scale="   56.880">  1  6  2 -1</clus>
<clus scale="   73.440">  2  3  1 -1</clus>
<clus scale="   40.841">  2  3  1 -1</clus>
</clustering>
</event>
<event>
 6    0  0.3667994E+002  0.8013117E+02  0.7546771E-02  0.1328680E+00
         21   -1    0    0  504  502  0.00000000000E+00  0.00000000000E+00  0.75976266606E+02  0.75976266606E+02  0.00000000000E+00 0. -1.
         -3   -1    0    0    0  501 -0.00000000000E+00 -0.00000000000E+00 -0.33595744823E+04  0.33595744823E+04  0.00000000000E+00 0.  1.
         21    1    1    2  503  505  0.33315571376E+02  0.52714245454E+02 -0.65214201395E+03  0.65511672649E+03  0.00000000000E+00 0.  1.
         21    1    1    2  504  503 -0.71701289760E+02  0.38200768760E+02  0.50549350823E+02  0.95684954699E+02  0.00000000000E+00 0. -1.
         21    1    1    2  505  501  0.43388793220E+02 -0.26121537690E+02 -0.15940629348E+04  0.15948672554E+04  0.00000000000E+00 0.  1.
         -3    1    1    2    0  502 -0.50030748367E+01 -0.64793476525E+02 -0.10879426177E+04  0.10898818123E+04  0.00000000000E+00 0.  1.
<scales pt_clust_3="65.50727" pt_clust_4="80.13117" pt_clust_5="50.64506" pt_clust_6="14000.00000"></scales>
<clustering>
<clus scale="   50.645">  2  5  1 -1</clus>
<clus scale="   65.507">  2  3  1 -1</clus>
<clus scale="   80.131">  1  4  2 -1</clus>
<clus scale="   80.131">  1  3  2 -1</clus>
</clustering>
</event>
<event>
 6    0  0.3667994E+002  0.1483752E+03  0.7546771E-02  0.1202484E+00
          1   -1    0    0  503    0 -0.00000000000E+00  0.00000000000E+00  0.12645751790E+04  0.12645751790E+04  0.00000000000E+00 0. -1.
         21   -1    0    0  501  502  0.00000000000E+00 -0.00000000000E+00 -0.66338064802E+03  0.66338064802E+03  0.00000000000E+00 0.  1.
         21    1    1    2  503  505  0.18004086529E+02  0.36992242636E+02  0.65801284629E+03  0.65929771653E+03  0.00000000000E+00 0. -1.
         21    1    1    2  504  502 -0.29267989873E+02 -0.48767709153E+02 -0.60508028001E+03  0.60774752155E+03  0.00000000000E+00 0.  1.
         21    1    1    2  505  504 -0.39065844290E+02 -0.10128229045E+03  0.10464998955E+02  0.10905851068E+03  0.00000000000E+00 0. -1.
          1    1    1    2  501    0  0.50329747635E+02  0.11305775697E+03  0.53779696575E+03  0.55185207825E+03  0.00000000000E+00 0. -1.
<scales pt_clust_3="41.14089" pt_clust_4="56.78602" pt_clust_5="148.37518" pt_clust_6="14000.00000"></scales>
<clustering>
<clus scale="   41.141">  1  3  2 -1</clus>
<clus scale="   56.786">  2  4  1 -1</clus>
<clus scale="  148.375">  2  5  1 -1</clus>
<clus scale="   56.786">  2  3  1 -1</clus>
</clustering>
</event>
<event>
 6    0  0.3667994E+002  0.1219454E+03  0.7546771E-02  0.1239922E+00
          2   -1    0    0  503    0 -0.00000000000E+00  0.00000000000E+00  0.31732398355E+03  0.31732398355E+03  0.00000000000E+00 0.  1.
         21   -1    0    0  504  502  0.00000000000E+00 -0.00000000000E+00 -0.45279914607E+03  0.45279914607E+03  0.00000000000E+00 0.  1.
         21    1    1    2  503  502 -0.46307080220E+02 -0.69207450354E+02  0.35631723328E+02  0.90573928756E+02  0.00000000000E+00 0. -1.
         21    1    1    2  504  505 -0.79942679234E+02 -0.50331073468E+01 -0.39827374198E+03  0.40624886176E+03  0.00000000000E+00 0.  1.
         21    1    1    2  505  501  0.63065547785E+02  0.20583641239E+02  0.75865435780E+02  0.10077953140E+03  0.00000000000E+00 0.  1.
          2    1    1    2  501    0  0.63184211669E+02  0.53656916462E+02  0.15130142035E+03  0.17252080769E+03  0.00000000000E+00 0.  1.
<scales pt_clust_3="115.03496" pt_clust_4="80.10096" pt_clust_5="36.20220" pt_clust_6="36.20220"></scales>
<clustering>
<clus scale="   36.202">  5  6 -1 -1</clus>
<clus scale="   80.101">  2  4  1 -1</clus>
<clus scale="  115.035">  2  3  1 -1</clus>
<clus scale="   80.101">  2  3  1 -1</clus>
</clustering>
</event>
<event>
 6    0  0.3667994E+002  0.1058348E+03  0.7546771E-02  0.1268484E+00
         -1   -1    0    0    0  501 -0.00000000000E+00  0.00000000000E+00  0.12090214453E+03  0.12090214453E+03  0.00000000000E+00 0.  1.
         21   -1    0    0  503  502  0.00000000000E+00 -0.00000000000E+00 -0.34857480135E+03  0.34857480135E+03  0.00000000000E+00 0.  1.
         21    1    1    2  503  501 -0.30297294891E+02  0.18127412698E+02 -0.56625463221E+02  0.66730594586E+02  0.00000000000E+00 0.  1.
         21    1    1    2  504  502  0.39408002839E+02 -0.41600724135E+02 -0.15814816764E+03  0.16820955343E+03  0.00000000000E+00 0.  1.
         21    1    1    2  505  504  0.59324217336E+02 -0.38595519701E+02 -0.89794985534E+02  0.11433335616E+03  0.00000000000E+00 0.  1.
         -1    1    1    2    0  505 -0.68434925284E+02  0.62068831138E+02  0.76895959585E+02  0.12020344171E+03  0.00000000000E+00 0.  1.
<scales pt_clust_3="35.30622" pt_clust_4="37.85195" pt_clust_5="37.85195" pt_clust_6="95.00423"></scales>
<clustering>
<clus scale="   35.306">  2  3  1 -1</clus>
<clus scale="   37.852">  4  5 -1 -1</clus>
<clus scale="   95.004">  1  6  2 -1</clus>
<clus scale="   35.306">  2  3  1 -1</clus>
</clustering>
</event>
<event>
 6    0  0.3667994E+002  0.1586782E+03  0.7546771E-02  0.1190197E+00
         21   -1    0    0  501  502  0.00000000000E+00  0.00000000000E+00  0.64226620084E+03  0.64226620084E+03  0.00000000000E+00 0.  1.
          2   -1    0    0  504    0 -0.00000000000E+00 -0.00000000000E+00 -0.69413127765E+03  0.69413127765E+03  0.00000000000E+00 0. -1.
         21    1    1    2  503  505 -0.10745688059E+03  0.11362578457E+03 -0.48935959877E+02  0.16386741065E+03  0.00000000000E+00 0.  1.
         21    1    1    2  504  503  0.25697389145E+02  0.29473207496E+02 -0.19013999456E+03  0.19411914717E+03  0.00000000000E+00 0. -1.
         21    1    1    2  505  502  0.34530020837E+02  0.25682371396E+02  0.56253653338E+03  0.56418016443E+03  0.00000000000E+00 0.  1.
          2    1    1    2  501    0  0.47229470605E+02 -0.16878136346E+03 -0.37532565576E+03  0.41423075624E+03  0.00000000000E+00 0. -1.
<scales pt_clust_3="158.67819" pt_clust_4="39.10276" pt_clust_5="43.09634" pt_clust_6="14000.00000"></scales>
<clustering>
<clus scale="   39.103">  2  4  1 -1</clus>
<clus scale="   43.096">  1  5  2 -1</clus>
<clus scale="  158.678">  1  3  2 -1</clus>
<clus scale="   43.096">  1  3  2 -1</clus>
</clustering>
</event>
<event>
 6    0  0.3667994E+002  0.2156554E+03  0.7546771E-02  0.1137164E+00
          2   -1    0    0  505    0 -0.00000000000E+00  0.00000000000E+00  0.50057931977E+03  0.50057931977E+03  0.00000000000E+00 0.  1.
         21   -1    0    0  503  502  0.00000000000E+00 -0.00000000000E+00 -0.16027904528E+03  0.16027904528E+03  0.00000000000E+00 0.  1.
         21    1    1    2  503  504  0.18709350044E+02 -0.38695986216E+02 -0.65584519287E+02  0.78413954742E+02  0.00000000000E+00 0.  1.
         21    1    1    2  504  501  0.53257066378E+02  0.33603683383E+02  0.33630990142E+02  0.71390238507E+02  0.00000000000E+00 0.  1.
         21    1    1    2  505  502 -0.20804973390E+03  0.26217366085E+02  0.19287103685E+03  0.28490573689E+03  0.00000000000E+00 0.  1.
          2    1    1    2  501    0  0.13608331748E+03 -0.21125063252E+02  0.17938276679E+03  0.22614843491E+03  0.00000000000E+00 0.  1.
<scales pt_clust_3="42.98161" pt_clust_4="55.65810" pt_clust_5="198.38933" pt_clust_6="55.65810"></scales>
<clustering>
<clus scale="   42.982">  2  3  1 -1</clus>
<clus scale="   55.658">  4  6 -1 -1</clus>
<clus scale="  198.389">  2  5  1 -1</clus>
<clus scale="   42.982">  2  3  1 -1</clus>
</clustering>
</event>
<event>
 6    0  0.3667994E+002  0.1389598E+03  0.7546771E-02  0.1214736E+00
          1   -1    0    0  503    0 -0.00000000000E+00  0.00000000000E+00  0.18278020475E+04  0.18278020475E+04  0.00000000000E+00 0.  1.
         21   -1    0    0  505  502  0.00000000000E+00 -0.00000000000E+00 -0.76050298813E+02  0.76050298813E+02  0.00000000000E+00 0. -1.
         21    1    1    2  503  504  0.11753008961E+03 -0.76608687685E+01  0.10638270458E+03  0.15871134398E+03  0.00000000000E+00 0. -1.
         21    1    1    2  504  502  0.10215011759E+02  0.28235420907E+02 -0.42177633142E+02  0.51773914247E+02  0.00000000000E+00 0. -1.
         21    1    1    2  505  501 -0.45665940431E+02 -0.47356138184E+01  0.32106386890E+03  0.32432978905E+03  0.00000000000E+00 0. -1.
          1    1    1    2  501    0 -0.82079160942E+02 -0.15838938320E+02  0.13664828084E+04  0.13690372990E+04  0.00000000000E+00 0.  1.
<scales pt_clust_3="127.95948" pt_clust_4="30.02641" pt_clust_5="40.00615" pt_clust_6="40.00615"></scales>
<clustering>
<clus scale="   30.026">  2  4  1 -1</clus>
<clus scale="   40.006">  5  6 -1 -1</clus>
<clus scale="  127.959">  2  3  1 -1</clus>
<clus scale="   30.026">  2  3  1 -1</clus>
</clustering>
</event>
<event>
 6    0  0.3667994E+002  0.1209217E+03  0.7546771E-02  0.1241584E+00
          2   -1    0    0  503    0 -0.00000000000E+00  0.00000000000E+00  0.94988817736E+03  0.94988817736E+03  0.00000000000E+00 0.  1.
         21   -1    0    0  504  502  0.00000000000E+00 -0.00000000000E+00 -0.19099079689E+03  0.19099079689E+03  0.00000000000E+00 0. -1.
         21    1    1    2  503  505 -0.32626094107E+02  0.87438480576E+01  0.93930462658E+02  0.99819079893E+02  0.00000000000E+00 0. -1.
         21    1    1    2  504  501  0.18016287382E+01 -0.79858581339E+02  0.71438810692E+03  0.71884004214E+03  0.00000000000E+00 0.  1.
         21    1    1    2  505  502  0.30860781871E+02  0.10529216134E+03 -0.16697492807E+03  0.19979853278E+03  0.00000000000E+00 0. -1.
          2    1    1    2  501    0 -0.36316502368E-01 -0.34177428056E+02  0.11755373896E+03  0.12242131943E+03  0.00000000000E+00 0.  1.
<scales pt_clust_3="33.77746" pt_clust_4="33.26425" pt_clust_5="109.70840" pt_clust_6="33.26425"></scales>
<clustering>
<clus scale="   33.264">  4  6 -1 -1</clus>
<clus scale="   33.777">  1  3  2 -1</clus>
<clus scale="  109.708">  2  5  1 -1</clus>
<clus scale="  109.708">  2  3  1 -1</clus>
</clustering>
</event>
<event>
 6    0  0.3667994E+002  0.1884109E+03  0.7546771E-02  0.1159902E+00
          2   -1    0    0  504    0 -0.00000000000E+00  0.00000000000E+00  0.10061845381E+04  0.10061845381E+04  0.00000000000E+00 0.  1.
         21   -1    0    0  505  502  0.00000000000E+00 -0.00000000000E+00 -0.47214628185E+03  0.47214628185E+03  0.00000000000E+00 0. -1.
         21    1    1    2  503  501 -0.10305099514E+03 -0.95991447259E+01  0.32112615419E+03  0.33739243928E+03  0.00000000000E+00 0.  1.
         21    1    1    2  504  502  0.38500573826E+02  0.65081731490E+02  0.28226367300E+03  0.29221688359E+03  0.00000000000E+00 0. -1.
         21    1    1    2  505  503  0.16879354443E+03 -0.76733170379E+02 -0.43236215294E+03  0.47044263345E+03  0.00000000000E+00 0. -1.
          2    1    1    2  501    0 -0.10424312311E+03  0.21250583615E+02  0.36301058197E+03  0.37827886360E+03  0.00000000000E+00 0.  1.
<scales pt_clust_3="31.74267" pt_clust_4="75.61697" pt_clust_5="185.64200" pt_clust_6="31.74267"></scales>
<clustering>
<clus scale="   31.743">  3  6 -1 -1</clus>
<clus scale="   75.617">  1  4  2 -1</clus>
<clus scale="  185.642">  2  5  1 -1</clus>
<clus scale="  185.642">  2  3  1 -1</clus>
</clustering>
</event>
<event>
 6    0  0.3667994E+002  0.1399370E+03  0.7546771E-02  0.1213414E+00
         21   -1    0    0  503  502  0.00000000000E+00  0.00000000000E+00  0.12132296772E+03  0.12132296772E+03  0.00000000000E+00 0. -1.
         -3   -1    0    0    0  501 -0.00000000000E+00 -0.00000000000E+00 -0.62372956940E+03  0.62372956940E+03  0.00000000000E+00 0. -1.
         21    1    1    2  503  505  0.89845529748E+02  0.68097863864E+02  0.29188593287E+02  0.11645390615E+03  0.00000000000E+00 0. -1.
         21    1    1    2  504  502  0.42448112130E+02 -0.31033477201E+02 -0.36204186666E+02  0.63840912139E+02  0.00000000000E+00 0.  1.
         21    1    1    2  505  501  0.22399269290E+02  0.71292988172E+02 -0.20650950207E+03  0.21961464403E+03  0.00000000000E+00 0.  1.
         -3    1    1    2    0  504 -0.15469291117E+03 -0.10835737483E+03 -0.28888150623E+03  0.34514307481E+03  0.00000000000E+00 0. -1.
<scales pt_clust_3="14000.00000" pt_clust_4="52.58250" pt_clust_5="73.76238" pt_clust_6="139.93704"></scales>
<clustering>
<clus scale="   52.582">  1  4  2 -1</clus>
<clus scale="   73.762">  2  5  1 -1</clus>
<clus scale="  139.937">  2  6  1 -1</clus>
<clus scale="   52.582">  1  3  2 -1</clus>
</clustering>
</event>
<event>
 6    0  0.3667994E+002  0.3075846E+03  0.7546771E-02  0.1081509E+00
         21   -1    0    0  503  502  0.00000000000E+00  0.00000000000E+00  0.19678440175E+03  0.19678440175E+03  0.00000000000E+00 0.  1.
          2   -1    0    0  505    0 -0.00000000000E+00 -0.00000000000E+00 -0.13027958292E+04  0.13027958292E+04  0.00000000000E+00 0. -1.
         21    1    1    2  503  501 -0.27133833509E+02  0.94753981227E+02 -0.90461737267E+02  0.13378298766E+03  0.00000000000E+00 0. -1.
         21    1    1    2  504  502 -0.98528038835E+02 -0.36540500667E+03 -0.93130033774E+02  0.38974581014E+03  0.00000000000E+00 0.  1.
         21    1    1    2  505  504  0.29988780923E+02 -0.19714956447E+01 -0.79562079473E+02  0.85049034483E+02  0.00000000000E+00 0.  1.
          2    1    1    2  501    0  0.95673091422E+02  0.27262252109E+03 -0.84285757693E+03  0.89100239866E+03  0.00000000000E+00 0. -1.
<scales pt_clust_3="97.66451" pt_clust_4="307.58461" pt_clust_5="30.05352" pt_clust_6="14000.00000"></scales>
<clustering>
<clus scale="   30.054">  2  5  1 -1</clus>
<clus scale="   97.665">  1  3  2 -1</clus>
<clus scale="  307.585">  1  4  2 -1</clus>
<clus scale="   97.665">  1  3  2 -1</clus>
</clustering>
</event>
<event>
 6    0  0.3667994E+002  0.9100628E+02  0.7546771E-02  0.1300433E+00
          2   -1    0    0  503    0 -0.00000000000E+00  0.00000000000E+00  0.53518396278E+03  0.53518396278E+03  0.00000000000E+00 0. -1.
         21   -1    0    0  505  502  0.00000000000E+00 -0.00000000000E+00 -0.15428889410E+03  0.15428889410E+03  0.00000000000E+00 0. -1.
         21    1    1    2  503  504  0.39169789437E+02 -0.12078778380E+02  0.19775646835E+03  0.20195987241E+03  0.00000000000E+00 0. -1.
         21    1    1    2  504  502 -0.51809279236E+02 -0.43653213786E+02  0.88993889261E+02  0.11184684535E+03  0.00000000000E+00 0. -1.
         21    1    1    2  505  501 -0.89967113119E+02 -0.16765088636E+01 -0.10875975700E+03  0.14115798549E+03  0.00000000000E+00 0. -1.
          2    1    1    2  501    0  0.10260660292E+03  0.57408501030E+02  0.20290446807E+03  0.23450815362E+03  0.00000000000E+00 0. -1.
<scales pt_clust_3="40.98987" pt_clust_4="61.97441" pt_clust_5="14000.00000" pt_clust_6="91.00628"></scales>
<clustering>
<clus scale="   40.990">  1  3  2 -1</clus>
<clus scale="   61.974">  1  4  2 -1</clus>
<clus scale="   91.006">  1  6  2 -1</clus>
<clus scale="   91.006">  2  3  1 -1</clus>
</clustering>
</event>
<event>
 6    0  0.3667994E+002  0.9960160E+02  0.7546771E-02  0.1281136E+00
          2   -1    0    0  503    0 -0.00000000000E+00  0.00000000000E+00  0.18756076822E+04  0.18756076822E+04  0.00000000000E+00 0.  1.
         21   -1    0    0  505  502  0.00000000000E+00 -0.00000000000E+00 -0.62138866380E+02  0.62138866380E+02  0.00000000000E+00 0.  1.
         21    1    1    2  503  502 -0.50434020881E+02 -0.47488494219E+02  0.52894999646E+03  0.53346681837E+03  0.00000000000E+00 0.  1.
         21    1    1    2  504  501  0.33914488720E+02  0.31279595739E+02  0.39494249032E+03  0.39762818853E+03  0.00000000000E+00 0.  1.
         21    1    1    2  505  504  0.25256045383E+01 -0.66949421259E+02 -0.36804391909E+02  0.76440610601E+02  0.00000000000E+00 0.  1.
          2    1    1    2  501    0  0.13993927622E+02  0.83158319739E+02  0.92638072098E+03  0.93021093111E+03  0.00000000000E+00 0.  1.
<scales pt_clust_3="89.72197" pt_clust_4="31.98981" pt_clust_5="66.99704" pt_clust_6="31.98981"></scales>
<clustering>
<clus scale="   31.990">  4  6 -1 -1</clus>
<clus scale="   66.997">  2  5  1 -1</clus>
<clus scale="   89.722">  1  3  2 -1</clus>
<clus scale="   66.997">  2  3  1 -1</clus>
</clustering>
</event>
<event>
 6    0  0.3667994E+002  0.7428007E+02  0.7546771E-02  0.1346115E+00
         21   -1    0    0  504  502  0.00000000000E+00  0.00000000000E+00  0.36898434914E+03  0.36898434914E+03  0.00000000000E+00 0.  1.
          3   -1    0    0  503    0 -0.00000000000E+00 -0.00000000000E+00 -0.96996619745E+02  0.96996619745E+02  0.00000000000E+00 0. -1.
         21    1    1    2  503  505  0.58178486624E+02  0.46316940467E+00 -0.21887450025E+02  0.62161171968E+02  0.00000000000E+00 0. -1.
         21    1    1    2  504  501 -0.29302640713E+02 -0.63121774594E+02  0.41030705234E+02  0.80786892208E+02  0.00000000000E+00 0. -1.
         21    1    1    2  505  502  0.20445712518E+02 -0.23731196197E+02  0.21393559129E+03  0.21621663686E+03  0.00000000000E+00 0.  1.
          3    1    1    2  501    0 -0.49321558429E+02  0.86389801386E+02  0.38908882896E+02  0.10681626785E+03  0.00000000000E+00 0. -1.
<scales pt_clust_3="60.91085" pt_clust_4="74.28007" pt_clust_5="31.32406" pt_clust_6="14000.00000"></scales>
<clustering>
<clus scale="   31.324">  1  5  2 -1</clus>
<clus scale="   60.911">  2  3  1 -1</clus>
<clus scale="   74.280">  1  4  2 -1</clus>
<clus scale="   31.324">  1  3  2 -1</clus>
</clustering>
</event>
<event>
 6    0  0.3667994E+002  0.1464112E+03  0.7546771E-02  0.1204954E+00
          2   -1    0    0  505    0 -0.00000000000E+00  0.00000000000E+00  0.41054096002E+02  0.41054096002E+02  0.00000000000E+00 0.  1.
         21   -1    0    0  503  502  0.00000000000E+00 -0.00000000000E+00 -0.15303985405E+04  0.15303985405E+04  0.00000000000E+00 0. -1.
         21    1    1    2  503  504 -0.16275456666E+02  0.29958638319E+02 -0.50953737404E+03  0.51067675299E+03  0.00000000000E+00 0. -1.
         21    1    1    2  504  501  0.40287236215E+02 -0.12532815158E+02 -0.12692592740E+03  0.13375471545E+03  0.00000000000E+00 0. -1.
         21    1    1    2  505  502 -0.13190213587E+03  0.79460269709E+02 -0.69827892327E+03  0.71505633526E+03  0.00000000000E+00 0. -1.
          2    1    1    2  501    0  0.10789035632E+03 -0.96886092870E+02 -0.15460221974E+03  0.21196483276E+03  0.00000000000E+00 0.  1.
<scales pt_clust_3="34.09414" pt_clust_4="39.18731" pt_clust_5="146.41120" pt_clust_6="14000.00000"></scales>
<clustering>
<clus scale="   34.094">  2  3  1 -1</clus>
<clus scale="   39.187">  2  4  1 -1</clus>
<clus scale="  146.411">  2  5  1 -1</clus>
<clus scale="   34.094">  2  3  1 -1</clus>
</clustering>
</event>
<event>
 6    0  0.3667994E+002  0.1416739E+03  0.7546771E-02  0.1211094E+00
         21   -1    0    0  503  502  0.00000000000E+00  0.00000000000E+00  0.34976697681E+03  0.34976697681E+03  0.00000000000E+00 0.  1.
          2   -1    0    0  504    0 -0.00000000000E+00 -0.00000000000E+00 -0.10801837900E+04  0.10801837900E+04  0.00000000000E+00 0.  1.
         21    1    1    2  503  501  0.43113775735E+00 -0.82137383934E+02  0.31685784613E+03  0.32733107150E+03  0.00000000000E+00 0.  1.
         21    1    1    2  504  505 -0.31170082284E+02 -0.19685063807E+02 -0.64429702056E+02  0.74231140863E+02  0.00000000000E+00 0.  1.
         21    1    1    2  505  502 -0.12079282212E+03  0.85870619534E+02 -0.54486817278E+03  0.56466449763E+03  0.00000000000E+00 0.  1.
          2    1    1    2  501    0  0.15153176664E+03  0.15951828207E+02 -0.43797678447E+03  0.46372405680E+03  0.00000000000E+00 0.  1.
<scales pt_clust_3="82.23980" pt_clust_4="36.86564" pt_clust_5="141.67387" pt_clust_6="14000.00000"></scales>
<clustering>
<clus scale="   36.866">  2  4  1 -1</clus>
<clus scale="   82.240">  1  3  2 -1</clus>
<clus scale="  141.674">  1  5  2 -1</clus>
<clus scale="   82.240">  1  3  2 -1</clus>
</clustering>
</event>
<event>
 6    0  0.3667994E+002  0.1176656E+03  0.7546771E-02  0.1246999E+00
         21   -1    0    0  501  502  0.00000000000E+00  0.00000000000E+00  0.13827947289E+02  0.13827947289E+02  0.00000000000E+00 0. -1.
          2   -1    0    0  504    0 -0.00000000000E+00 -0.00000000000E+00 -0.31798857072E+04  0.31798857072E+04  0.00000000000E+00 0. -1.
         21    1    1    2  503  505  0.38418997438E+02 -0.33180202054E+02 -0.54674025559E+03  0.54909184319E+03  0.00000000000E+00 0. -1.
         21    1    1    2  504  503  0.41039269505E+02 -0.28903934381E+02 -0.10636815837E+04  0.10648653298E+04  0.00000000000E+00 0.  1.
         21    1    1    2  505  502  0.40833778455E+02  0.53307406715E+01 -0.37164367967E+02  0.55470753603E+02  0.00000000000E+00 0. -1.
          2    1    1    2  501    0 -0.12029204540E+03  0.56753395763E+02 -0.15184715526E+04  0.15242857279E+04  0.00000000000E+00 0. -1.
<scales pt_clust_3="34.89180" pt_clust_4="34.89180" pt_clust_5="41.18027" pt_clust_6="112.31202"></scales>
<clustering>
<clus scale="   34.892">  3  4 -1 -1</clus>
<clus scale="   41.180">  1  5  2 -1</clus>
<clus scale="  112.312">  1  6  2 -1</clus>
<clus scale="   41.180">  1  3  2 -1</clus>
</clustering>
</event>
<event>
 6    0  0.3667994E+002  0.1623788E+03  0.7546771E-02  0.1186037E+00
         -1   -1    0    0    0  501 -0.00000000000E+00  0.00000000000E+00  0.52716144477E+02  0.52716144477E+02  0.00000000000E+00 0.  1.
         21   -1    0    0  505  502  0.00000000000E+00 -0.00000000000E+00 -0.11688700277E+04  0.11688700277E+04  0.00000000000E+00 0.  1.
         21    1    1    2  503  501  0.11926216258E+02  0.85039949844E+02 -0.96652311366E+02  0.12928919907E+03  0.00000000000E+00 0.  1.
         21    1    1    2  504  502 -0.33584038860E+01 -0.40293544641E+02 -0.67742809171E+02  0.78891931215E+02  0.00000000000E+00 0. -1.
         21    1    1    2  505  503  0.12647518759E+03  0.55669796748E+02 -0.67893014395E+03  0.69285008458E+03  0.00000000000E+00 0.  1.
         -1    1    1    2    0  504 -0.13504299996E+03 -0.10041620195E+03 -0.27282861873E+03  0.32055495731E+03  0.00000000000E+00 0.  1.
<scales pt_clust_3="85.87216" pt_clust_4="33.29810" pt_clust_5="147.48601" pt_clust_6="33.29810"></scales>
<clustering>
<clus scale="   33.298">  4  6 -1 -1</clus>
<clus scale="   85.872">  1  3  2 -1</clus>
<clus scale="  147.486">  2  5  1 -1</clus>
<clus scale="  147.486">  2  3  1 -1</clus>
</clustering>
</event>
<event>
 6    0  0.3667994E+002  0.1590411E+03  0.7546771E-02  0.1189784E+00
          2   -1    0    0  504    0 -0.00000000000E+00  0.00000000000E+00  0.26213945103E+04  0.26213945103E+04  0.00000000000E+00 0.  1.
         21   -1    0    0  505  502  0.00000000000E+00 -0.00000000000E+00 -0.36048017810E+02  0.36048017810E+02  0.00000000000E+00 0.  1.
         21    1    1    2  503  502 -0.92405617376E+02  0.86478364796E+02  0.21584350275E+03  0.25021135742E+03  0.00000000000E+00 0.  1.
         21    1    1    2  504  503  0.19310533899E+03  0.48931134099E+02  0.95294685821E+03  0.97354591181E+03  0.00000000000E+00 0.  1.
         21    1    1    2  505  501 -0.11167419115E+03 -0.67558571311E+02  0.58940344068E+03  0.60368178821E+03  0.00000000000E+00 0.  1.
          2    1    1    2  501    0  0.10974469531E+02 -0.67850927585E+02  0.82715269081E+03  0.83000347064E+03  0.00000000000E+00 0.  1.
<scales pt_clust_3="119.61673" pt_clust_4="14000.00000" pt_clust_5="159.04110" pt_clust_6="68.73272"></scales>
<clustering>
<clus scale="   68.733">  1  6  2 -1</clus>
<clus scale="  119.617">  2  3  1 -1</clus>
<clus scale="  159.041">  1  5  2 -1</clus>
<clus scale="  119.617">  2  3  1 -1</clus>
</clustering>
</event>
<event>
 6    0  0.3667994E+002  0.1840190E+03  0.7546771E-02  0.1163969E+00
         21   -1    0    0  505  502  0.00000000000E+00  0.00000000000E+00  0.12897833503E+04  0.12897833503E+04  0.00000000000E+00 0.  1.
         -2   -1    0    0    0  501 -0.00000000000E+00 -0.00000000000E+00 -0.74585424534E+02  0.74585424534E+02  0.00000000000E+00 0.  1.
         21    1    1    2  503  502  0.14321233526E+01 -0.34039377325E+02  0.72995214613E+02  0.80554525276E+02  0.00000000000E+00 0.  1.
         21    1    1    2  504  501 -0.17858573913E+03  0.56723167762E+02  0.12226834932E+03  0.22374077239E+03  0.00000000000E+00 0.  1.
         21    1    1    2  505  504 -0.75405804247E+01 -0.36703423626E+02  0.59921314571E+03  0.60038354046E+03  0.00000000000E+00 0.  1.
         -2    1    1    2    0  503  0.18469419620E+03  0.14019633189E+02  0.42072121613E+03  0.45968993672E+03  0.00000000000E+00 0.  1.
<scales pt_clust_3="34.06949" pt_clust_4="184.01904" pt_clust_5="53.96917" pt_clust_6="14000.00000"></scales>
<clustering>
<clus scale="   34.069">  1  3  2 -1</clus>
<clus scale="   53.969">  1  5  2 -1</clus>
<clus scale="  184.019">  2  4  1 -1</clus>
<clus scale="   34.069">  1  3  2 -1</clus>
</clustering>
</event>
<event>
 6    0  0.3667994E+002  0.2035332E+03  0.7546771E-02  0.1146792E+00
         21   -1    0    0  503  502  0.00000000000E+00  0.00000000000E+00  0.20141868008E+03  0.20141868008E+03  0.00000000000E+00 0. -1.
          2   -1    0    0  502    0 -0.00000000000E+00 -0.00000000000E+00 -0.22622812154E+03  0.22622812154E+03  0.00000000000E+00 0.  1.
         21    1    1    2  503  505 -0.32272372069E+02  0.77813525906E+02  0.30887560788E+02  0.89724535242E+02  0.00000000000E+00 0.  1.
         21    1    1    2  504  501 -0.11388009450E+02 -0.41831729034E+02  0.81612402910E+01  0.44115599920E+02  0.00000000000E+00 0.  1.
         21    1    1    2  505  504  0.29121048311E+02  0.11435679640E+03  0.22043568432E+02  0.12004762075E+03  0.00000000000E+00 0. -1.
          2    1    1    2  501    0  0.14539333209E+02 -0.15033859327E+03 -0.85901810973E+02  0.17375904571E+03  0.00000000000E+00 0.  1.
<scales pt_clust_3="55.16707" pt_clust_4="35.88544" pt_clust_5="202.98437" pt_clust_6="35.88544"></scales>
<clustering>
<clus scale="   35.885">  4  6 -1 -1</clus>
<clus scale="   55.167">  3  5 -1 -1</clus>
<clus scale="  202.984">  1  3  2 -1</clus>
<clus scale="  202.984">  1  3  2 -1</clus>
</clustering>
</event>
<event>
 6    0  0.3667994E+002  0.1035990E+03  0.7546771E-02  0.1272905E+00
         21   -1    0    0  503  502  0.00000000000E+00  0.00000000000E+00  0.59625576754E+03  0.59625576754E+03  0.00000000000E+00 0.  1.
         -1   -1    0    0    0  501 -0.00000000000E+00 -0.00000000000E+00 -0.13132019202E+03  0.13132019202E+03  0.00000000000E+00 0. -1.
         21    1    1    2  503  505 -0.60259249044E+02 -0.85362211900E+02  0.50633577238E+03  0.51700464090E+03  0.00000000000E+00 0.  1.
         21    1    1    2  504  502  0.27811166613E+02  0.86274653220E+02 -0.81064911121E+02  0.12160714038E+03  0.00000000000E+00 0. -1.
         21    1    1    2  505  501  0.11400584982E+02 -0.36503856544E+02  0.20480332146E+02  0.43381434800E+02  0.00000000000E+00 0.  1.
         -1    1    1    2    0  504  0.21047497449E+02  0.35591415224E+02  0.19184382111E+02  0.45582743483E+02  0.00000000000E+00 0. -1.
<scales pt_clust_3="103.59897" pt_clust_4="14000.00000" pt_clust_5="38.24271" pt_clust_6="38.65489"></scales>
<clustering>
<clus scale="   38.243">  2  5  1 -1</clus>
<clus scale="   38.655">  2  6  1 -1</clus>
<clus scale="  103.599">  1  3  2 -1</clus>
<clus scale="  103.599">  1  3  2 -1</clus>
</clustering>
</event>
<event>
 6    0  0.3667994E+002  0.1217647E+03  0.7546771E-02  0.1240214E+00
         21   -1    0    0  505  502  0.00000000000E+00  0.00000000000E+00  0.18924092301E+02  0.18924092301E+02  0.00000000000E+00 0. -1.
         -1   -1    0    0    0  501 -0.00000000000E+00 -0.00000000000E+00 -0.10482207219E+04  0.10482207219E+04  0.00000000000E+00 0. -1.
         21    1    1    2  503  502  0.35169819111E+02 -0.30152178534E+02 -0.12542446443E+03  0.13370626883E+03  0.00000000000E+00 0. -1.
         21    1    1    2  504  503  0.42377801892E+02  0.26574005464E+02 -0.18355536871E+03  0.19024886135E+03  0.00000000000E+00 0. -1.
         21    1    1    2  505  501 -0.78969416005E+02 -0.72296794069E+02 -0.41831630350E+03  0.43180032986E+03  0.00000000000E+00 0. -1.
         -1    1    1    2    0  504  0.14217950016E+01  0.75874967139E+02 -0.30200049292E+03  0.31138935412E+03  0.00000000000E+00 0. -1.
<scales pt_clust_3="46.32570" pt_clust_4="52.67088" pt_clust_5="106.60406" pt_clust_6="52.67088"></scales>
<clustering>
<clus scale="   46.326">  1  3  2 -1</clus>
<clus scale="   52.671">  4  6 -1 -1</clus>
<clus scale="  106.604">  2  5  1 -1</clus>
<clus scale="   46.326">  1  3  2 -1</clus>
</clustering>
</event>
<event>
 6    0  0.3667994E+002  0.1058377E+03  0.7546771E-02  0.1268478E+00
         21   -1    0    0  501  502  0.00000000000E+00  0.00000000000E+00  0.18260142942E+04  0.18260142942E+04  0.00000000000E+00 0.  1.
          1   -1    0    0  505    0 -0.00000000000E+00 -0.00000000000E+00 -0.34249623512E+03  0.34249623512E+03  0.00000000000E+00 0.  1.
         21    1    1    2  503  504  0.87458045896E+02  0.80521187395E+02 -0.63095455164E+02  0.13458680423E+03  0.00000000000E+00 0.  1.
         21    1    1    2  504  502 -0.44494002450E+02  0.63845382772E+02  0.17485499259E+04  0.17502807753E+04  0.00000000000E+00 0.  1.
         21    1    1    2  505  503 -0.57451800046E+02 -0.46900972718E+02 -0.20125656380E+02  0.76846942783E+02  0.00000000000E+00 0. -1.
          1    1    1    2  501    0  0.14487756600E+02 -0.97465597449E+02 -0.18181075526E+03  0.20679600698E+03  0.00000000000E+00 0.  1.
<scales pt_clust_3="105.83773" pt_clust_4="77.80371" pt_clust_5="74.16475" pt_clust_6="14000.00000"></scales>
<clustering>
<clus scale="   74.165">  2  5  1 -1</clus>
<clus scale="   77.804">  1  4  2 -1</clus>
<clus scale="  105.838">  1  3  2 -1</clus>
<clus scale="   77.804">  1  3  2 -1</clus>
</clustering>
</event>
<event>
 6    0  0.3667994E+002  0.1055601E+03  0.7546771E-02  0.1269020E+00
          1   -1    0    0  504    0 -0.00000000000E+00  0.00000000000E+00  0.50877763377E+04  0.50877763377E+04  0.00000000000E+00 0. -1.
         21   -1    0    0  501  502  0.00000000000E+00 -0.00000000000E+00 -0.38066749923E+02  0.38066749923E+02  0.00000000000E+00 0. -1.
         21    1    1    2  503  505  0.48239013998E+02  0.67452119558E+02  0.18046294469E+03  0.19860429328E+03  0.00000000000E+00 0.  1.
         21    1    1    2  504  503 -0.37071461416E+02  0.38807516310E+02  0.67150001535E+03  0.67364128970E+03  0.00000000000E+00 0. -1.
         21    1    1    2  505  502 -0.21995048707E+02  0.39002711018E+02 -0.78661625062E+01  0.45462843587E+02  0.00000000000E+00 0. -1.
          1    1    1    2  501    0  0.10827496125E+02 -0.14526234689E+03  0.42056127903E+04  0.42081346611E+04  0.00000000000E+00 0. -1.
<scales pt_clust_3="14000.00000" pt_clust_4="57.75261" pt_clust_5="44.77716" pt_clust_6="105.56008"></scales>
<clustering>
<clus scale="   44.777">  2  5  1 -1</clus>
<clus scale="   57.753">  1  4  2 -1</clus>
<clus scale="  105.560">  1  6  2 -1</clus>
<clus scale="   44.777">  2  3  1 -1</clus>
</clustering>
</event>
<event>
 6    0  0.3667994E+002  0.1106887E+03  0.7546771E-02  0.1259300E+00
         21   -1    0    0  503  502  0.00000000000E+00  0.00000000000E+00  0.46244302595E+03  0.46244302595E+03  0.00000000000E+00 0.  1.
          2   -1    0    0  505    0 -0.00000000000E+00 -0.00000000000E+00 -0.83257881938E+03  0.83257881938E+03  0.00000000000E+00 0. -1.
         21    1    1    2  503  504 -0.94116856009E+02  0.11500446082E+02  0.43610417194E+03  0.44629260764E+03  0.00000000000E+00 0.  1.
         21    1    1    2  504  501  0.65742133353E+02  0.71475437485E+01 -0.29325592227E+03  0.30061961251E+03  0.00000000000E+00 0. -1.
         21    1    1    2  505  502 -0.15806001689E+02 -0.74883287647E+02 -0.85770742864E+02  0.11495197601E+03  0.00000000000E+00 0.  1.
          2    1    1    2  501    0  0.44180724345E+02  0.56235297816E+02 -0.42721330024E+03  0.43315764916E+03  0.00000000000E+00 0. -1.
<scales pt_clust_3="94.86434" pt_clust_4="54.84355" pt_clust_5="76.53324" pt_clust_6="54.84355"></scales>
<clustering>
<clus scale="   54.844">  4  6 -1 -1</clus>
<clus scale="   76.533">  2  5  1 -1</clus>
<clus scale="   94.864">  1  3  2 -1</clus>
<clus scale="   94.864">  1  3  2 -1</clus>
</clustering>
</event>
<event>
 6    0  0.3667994E+002  0.7433453E+02  0.7546771E-02  0.1345944E+00
          1   -1    0    0  505    0 -0.00000000000E+00  0.00000000000E+00  0.25904732828E+03  0.25904732828E+03  0.00000000000E+00 0. -1.
         21   -1    0    0  501  502  0.00000000000E+00 -0.00000000000E+00 -0.16293449106E+03  0.16293449106E+03  0.00000000000E+00 0. -1.
         21    1    1    2  503  504 -0.20300760684E+02 -0.54920313363E+02  0.10544279654E+02  0.59494063045E+02  0.00000000000E+00 0. -1.
         21    1    1    2  504  502  0.71129182061E+02 -0.61946076260E+01 -0.72495207621E+02  0.10175111219E+03  0.00000000000E+00 0. -1.
         21    1    1    2  505  503  0.24433090621E+02 -0.46634435199E+02  0.10789728248E+03  0.12005652847E+03  0.00000000000E+00 0. -1.
          1    1    1    2  501    0 -0.75261511998E+02  0.10774935619E+03  0.50166482704E+02  0.14068011563E+03  0.00000000000E+00 0. -1.
<scales pt_clust_3="67.72676" pt_clust_4="14000.00000" pt_clust_5="52.64738" pt_clust_6="74.33453"></scales>
<clustering>
<clus scale="   52.647">  1  5  2 -1</clus>
<clus scale="   67.727">  1  3  2 -1</clus>
<clus scale="   74.335">  1  6  2 -1</clus>
<clus scale="   74.335">  2  3  1 -1</clus>
</clustering>
</event>
<event>
 6    0  0.3667994E+002  0.2175965E+03  0.7546771E-02  0.1135688E+00
          2   -1    0    0  503    0 -0.00000000000E+00  0.00000000000E+00  0.10175895090E+04  0.10175895090E+04  0.00000000000E+00 0. -1.
         21   -1    0    0  505  502  0.00000000000E+00 -0.00000000000E+00 -0.66113887204E+03  0.66113887204E+03  0.00000000000E+00 0. -1.
         21    1    1    2  503  502 -0.48219211148E+02 -0.27601981918E+02  0.70525850109E+02  0.89782276999E+02  0.00000000000E+00 0. -1.
         21    1    1    2  504  501  0.12896395581E+03  0.14108787394E+03  0.10435766598E+03  0.21777973395E+03  0.00000000000E+00 0. -1.
         21    1    1    2  505  504  0.15668086255E+02  0.54865028785E+02 -0.58126113384E+03  0.58405493408E+03  0.00000000000E+00 0. -1.
          2    1    1    2  501    0 -0.96412830919E+02 -0.16835092080E+03  0.76282825468E+03  0.78711143597E+03  0.00000000000E+00 0. -1.
<scales pt_clust_3="55.56043" pt_clust_4="14000.00000" pt_clust_5="56.99914" pt_clust_6="217.59653"></scales>
<clustering>
<clus scale="   55.560">  1  3  2 -1</clus>
<clus scale="   56.999">  2  5  1 -1</clus>
<clus scale="  217.597">  1  6  2 -1</clus>
<clus scale="   56.999">  2  3  1 -1</clus>
</clustering>
</event>
<event>
 6    0  0.3667994E+002  0.1283522E+03  0.7546771E-02  0.1229921E+00
         21   -1    0    0  504  502  0.00000000000E+00  0.00000000000E+00  0.13522104187E+03  0.13522104187E+03  0.00000000000E+00 0. -1.
         -1   -1    0    0    0  501 -0.00000000000E+00 -0.00000000000E+00 -0.21828159379E+03  0.21828159379E+03  0.00000000000E+00 0.  1.
         21    1    1    2  503  505  0.88989681199E+02  0.93894333056E+01  0.16683777227E+02  0.91025673522E+02  0.00000000000E+00 0. -1.
         21    1    1    2  504  503  0.35737839773E+02  0.53965950723E+01  0.46157150096E+02  0.58624217991E+02  0.00000000000E+00 0. -1.
         21    1    1    2  505  501 -0.24938111334E+02 -0.24745182656E+02 -0.69168153706E+02  0.77578778985E+02  0.00000000000E+00 0.  1.
         -1    1    1    2    0  502 -0.99789409638E+02  0.99591542782E+01 -0.76733325538E+02  0.12627396516E+03  0.00000000000E+00 0.  1.
<scales pt_clust_3="32.84269" pt_clust_4="32.84269" pt_clust_5="35.13166" pt_clust_6="117.48942"></scales>
<clustering>
<clus scale="   32.843">  3  4 -1 -1</clus>
<clus scale="   35.132">  2  5  1 -1</clus>
<clus scale="  117.489">  2  6  1 -1</clus>
<clus scale="  128.352">  1  3  2 -1</clus>
</clustering>
</event>
<event>
 6    0  0.3667994E+002  0.2054787E+03  0.7546771E-02  0.1145197E+00
          2   -1    0    0  503    0 -0.00000000000E+00  0.00000000000E+00  0.87545814610E+03  0.87545814610E+03  0.00000000000E+00 0.  1.
         21   -1    0    0  504  502  0.00000000000E+00 -0.00000000000E+00 -0.43069730862E+03  0.43069730862E+03  0.00000000000E+00 0. -1.
         21    1    1    2  503  505 -0.51604643134E+02  0.10266856638E+03  0.16187600767E+03  0.19851376671E+03  0.00000000000E+00 0.  1.
         21    1    1    2  504  501  0.40620882383E+02  0.55535155340E+02 -0.38171211261E+03  0.38786382466E+03  0.00000000000E+00 0. -1.
         21    1    1    2  505  502  0.32121492816E+02  0.53157577031E+02  0.11778199488E+03  0.13315448402E+03  0.00000000000E+00 0. -1.
          2    1    1    2  501    0 -0.21137732065E+02 -0.21136129875E+03  0.54681494754E+03  0.58662337933E+03  0.00000000000E+00 0.  1.
<scales pt_clust_3="62.09600" pt_clust_4="68.80559" pt_clust_5="62.09600" pt_clust_6="187.31696"></scales>
<clustering>
<clus scale="   62.096">  3  5 -1 -1</clus>
<clus scale="   68.806">  2  4  1 -1</clus>
<clus scale="  187.317">  1  6  2 -1</clus>
<clus scale="   68.806">  2  3  1 -1</clus>
</clustering>
</event>
<event>
 6    0  0.3667994E+002  0.8370485E+02  0.7546771E-02  0.1318855E+00
         21   -1    0    0  505  502  0.00000000000E+00  0.00000000000E+00  0.25552508433E+03  0.25552508433E+03  0.00000000000E+00 0. -1.
          1   -1    0    0  503    0 -0.00000000000E+00 -0.00000000000E+00 -0.57994578141E+03  0.57994578141E+03  0.00000000000E+00 0.  1.
         21    1    1    2  503  504  0.42770816703E+02 -0.35998678632E+02 -0.11409118997E+03  0.12705135676E+03  0.00000000000E+00 0.  1.
         21    1    1    2  504  502 -0.65839276744E+02  0.41255565798E+01  0.22466430321E+03  0.23414926803E+03  0.00000000000E+00 0. -1.
         21    1    1    2  505  501 -0.21815034533E+02  0.70350046914E+02 -0.61006091276E+02  0.95638736950E+02  0.00000000000E+00 0.  1.
          1    1    1    2  501    0  0.44883494574E+02 -0.38476924862E+02 -0.37398771904E+03  0.37863150401E+03  0.00000000000E+00 0.  1.
<scales pt_clust_3="55.90391" pt_clust_4="65.50537" pt_clust_5="83.70485" pt_clust_6="14000.00000"></scales>
<clustering>
<clus scale="   55.904">  2  3  1 -1</clus>
<clus scale="   65.505">  1  4  2 -1</clus>
<clus scale="   83.705">  1  5  2 -1</clus>
<clus scale="   65.505">  1  3  2 -1</clus>
</clustering>
</event>
<event>
 6    0  0.3667994E+002  0.1842244E+03  0.7546771E-02  0.1163776E+00
         21   -1    0    0  504  502  0.00000000000E+00  0.00000000000E+00  0.47943897163E+03  0.47943897163E+03  0.00000000000E+00 0. -1.
          1   -1    0    0  505    0 -0.00000000000E+00 -0.00000000000E+00 -0.20879466204E+04  0.20879466204E+04  0.00000000000E+00 0.  1.
         21    1    1    2  503  502 -0.25857645017E+02 -0.21983800723E+02  0.35252434484E+03  0.35415437172E+03  0.00000000000E+00 0. -1.
         21    1    1    2  504  501  0.11910027650E+03 -0.11618648895E+03  0.47358403434E+02  0.17299420352E+03  0.00000000000E+00 0. -1.
         21    1    1    2  505  503  0.46388155669E+02  0.16906210123E+02 -0.41009449169E+02  0.64182987218E+02  0.00000000000E+00 0. -1.
          1    1    1    2  501    0 -0.13963078715E+03  0.12126407955E+03 -0.19673809479E+04  0.19760540296E+04  0.00000000000E+00 0.  1.
<scales pt_clust_3="33.93973" pt_clust_4="184.22437" pt_clust_5="46.46153" pt_clust_6="14000.00000"></scales>
<clustering>
<clus scale="   33.940">  1  3  2 -1</clus>
<clus scale="   46.462">  1  5  2 -1</clus>
<clus scale="  184.224">  1  4  2 -1</clus>
<clus scale="   33.940">  1  3  2 -1</clus>
</clustering>
</event>
<event>
 6    0  0.3667994E+002  0.1139976E+03  0.7546771E-02  0.1253341E+00
          2   -1    0    0  504    0 -0.00000000000E+00  0.00000000000E+00  0.12947474330E+04  0.12947474330E+04  0.00000000000E+00 0. -1.
         21   -1    0    0  505  502  0.00000000000E+00 -0.00000000000E+00 -0.74707014454E+03  0.74707014454E+03  0.00000000000E+00 0.  1.
         21    1    1    2  503  501  0.57555683442E+02 -0.31733294370E+02  0.28740258882E+03  0.29482182200E+03  0.00000000000E+00 0.  1.
         21    1    1    2  504  502 -0.91393859182E+01  0.97940638433E+02 -0.73461609180E+03  0.74117251660E+03  0.00000000000E+00 0.  1.
         21    1    1    2  505  503  0.12902782485E+02 -0.67971616029E+02  0.28461351473E+03  0.29290181828E+03  0.00000000000E+00 0.  1.
          2    1    1    2  501    0 -0.61319080009E+02  0.17642719668E+01  0.71027727674E+03  0.71292142070E+03  0.00000000000E+00 0. -1.
<scales pt_clust_3="56.08505" pt_clust_4="98.40864" pt_clust_5="56.08505" pt_clust_6="61.34446"></scales>
<clustering>
<clus scale="   56.085">  3  5 -1 -1</clus>
<clus scale="   61.344">  1  6  2 -1</clus>
<clus scale="   98.409">  2  4  1 -1</clus>
<clus scale="   98.409">  2  3  1 -1</clus>
</clustering>
</event>
<event>
 6    0  0.3667994E+002  0.2987899E+03  0.7546771E-02  0.1085847E+00
         21   -1    0    0  503  502  0.00000000000E+00  0.00000000000E+00  0.12132044742E+03  0.12132044742E+03  0.00000000000E+00 0.  1.
          2   -1    0    0  502    0 -0.00000000000E+00 -0.00000000000E+00 -0.80340205788E+03  0.80340205788E+03  0.00000000000E+00 0.  1.
         21    1    1    2  503  505  0.11365221579E+03 -0.39314197797E+02 -0.13293469349E+03  0.17925976971E+03  0.00000000000E+00 0. -1.
         21    1    1    2  504  501 -0.14024002796E+03 -0.15922986544E+02 -0.28894651124E+03  0.32157564165E+03  0.00000000000E+00 0. -1.
         21    1    1    2  505  504  0.15519259901E+03  0.36436947221E+02 -0.33988992126E+02  0.16299584503E+03  0.00000000000E+00 0.  1.
          2    1    1    2  501    0 -0.12860478685E+03  0.18800237119E+02 -0.22621141360E+03  0.26089124891E+03  0.00000000000E+00 0.  1.
<scales pt_clust_3="113.21141" pt_clust_4="38.31476" pt_clust_5="113.21141" pt_clust_6="271.80874"></scales>
<clustering>
<clus scale="   38.315">  4  6 -1 -1</clus>
<clus scale="  113.211">  3  5 -1 -1</clus>
<clus scale="  271.809">  2  4  1 -1</clus>
<clus scale="  298.790">  1  3  2 -1</clus>
</clustering>
</event>
<event>
 6    0  0.3667994E+002  0.9789849E+02  0.7546771E-02  0.1284778E+00
         -2   -1    0    0    0  501 -0.00000000000E+00  0.00000000000E+00  0.12964330624E+04  0.12964330624E+04  0.00000000000E+00 0. -1.
         21   -1    0    0  504  502  0.00000000000E+00 -0.00000000000E+00 -0.80160177372E+02  0.80160177372E+02  0.00000000000E+00 0.  1.
         21    1    1    2  503  501 -0.19987572266E+02 -0.25189273086E+02  0.54514767659E+03  0.54609522230E+03  0.00000000000E+00 0. -1.
         21    1    1    2  504  503  0.48254823008E+02  0.36844160824E+00 -0.56774784290E+02  0.74512011274E+02  0.00000000000E+00 0.  1.
         21    1    1    2  505  502  0.62977357430E+02  0.50209532936E+02  0.14887106401E+03  0.16926233617E+03  0.00000000000E+00 0.  1.
         -2    1    1    2    0  505 -0.91244608172E+02 -0.25388701458E+02  0.57902892873E+03  0.58672367005E+03  0.00000000000E+00 0. -1.
<scales pt_clust_3="32.15591" pt_clust_4="48.01878" pt_clust_5="97.89849" pt_clust_6="14000.00000"></scales>
<clustering>
<clus scale="   32.156">  1  3  2 -1</clus>
<clus scale="   48.019">  2  4  1 -1</clus>
<clus scale="   97.898">  2  5  1 -1</clus>
<clus scale="   48.019">  2  3  1 -1</clus>
</clustering>
</event>
<event>
 6    0  0.3667994E+002  0.1730264E+03  0.7546771E-02  0.1174728E+00
         21   -1    0    0  501  502  0.00000000000E+00  0.00000000000E+00  0.15785191794E+04  0.15785191794E+04  0.00000000000E+00 0.  1.
          2   -1    0    0  503    0 -0.00000000000E+00 -0.00000000000E+00 -0.50481897560E+03  0.50481897560E+03  0.00000000000E+00 0.  1.
         21    1    1    2  503  504  0.30711205746E+02  0.20156556218E+02 -0.77513341346E+02  0.85777520386E+02  0.00000000000E+00 0.  1.
         21    1    1    2  504  505 -0.28412225700E+01  0.41517616727E+02 -0.33303541604E+01  0.41747770039E+02  0.00000000000E+00 0.  1.
         21    1    1    2  505  502 -0.72605611185E+02  0.15646109669E+03  0.15189747000E+04  0.15287366643E+04  0.00000000000E+00 0.  1.
          2    1    1    2  501    0  0.44735628009E+02 -0.21813526963E+03 -0.36443080074E+03  0.42707620023E+03  0.00000000000E+00 0.  1.
<scales pt_clust_3="36.73506" pt_clust_4="42.60825" pt_clust_5="173.02644" pt_clust_6="14000.00000"></scales>
<clustering>
<clus scale="   36.735">  2  3  1 -1</clus>
<clus scale="   42.608">  2  4  1 -1</clus>
<clus scale="  173.026">  1  5  2 -1</clus>
<clus scale="  173.026">  1  3  2 -1</clus>
</clustering>
</event>
<event>
 6    0  0.3667994E+002  0.8707681E+02  0.7546771E-02  0.1310089E+00
         21   -1    0    0  504  502  0.00000000000E+00  0.00000000000E+00  0.47111575799E+03  0.47111575799E+03  0.00000000000E+00 0.  1.
          2   -1    0    0  505    0 -0.00000000000E+00 -0.00000000000E+00 -0.43433732454E+03  0.43433732454E+03  0.00000000000E+00 0. -1.
         21    1    1    2  503  502 -0.50403300418E+02 -0.81827987729E+02 -0.62888721604E+02  0.11485340036E+03  0.00000000000E+00 0.  1.
         21    1    1    2  504  501 -0.38605904380E+02  0.41926903480E+02  0.43353637318E+03  0.43726658683E+03  0.00000000000E+00 0.  1.
         21    1    1    2  505  503  0.35964742294E+02 -0.13510205564E+02 -0.14532099660E+03  0.15031360682E+03  0.00000000000E+00 0.  1.
          2    1    1    2  501    0  0.53044462504E+02  0.53411289813E+02 -0.18854822152E+03  0.20301948852E+03  0.00000000000E+00 0. -1.
<scales pt_clust_3="14000.00000" pt_clust_4="56.77053" pt_clust_5="38.41859" pt_clust_6="87.07681"></scales>
<clustering>
<clus scale="   38.419">  2  5  1 -1</clus>
<clus scale="   56.771">  1  4  2 -1</clus>
<clus scale="   87.077">  2  6  1 -1</clus>
<clus scale="   56.771">  1  3  2 -1</clus>
</clustering>
</event>
<event>
 6    0  0.3667994E+002  0.7940539E+02  0.7546771E-02  0.1330747E+00
         21   -1    0    0  501  502  0.00000000000E+00  0.00000000000E+00  0.70164639180E+03  0.70164639180E+03  0.00000000000E+00 0.  1.
          2   -1    0    0  504    0 -0.00000000000E+00 -0.00000000000E+00 -0.17690416049E+04  0.17690416049E+04  0.00000000000E+00 0.  1.
         21    1    1    2  503  502 -0.36312684833E+02 -0.83974020550E+01  0.67537105748E+03  0.67639869362E+03  0.00000000000E+00 0.  1.
         21    1    1    2  504  505  0.76275679789E+02  0.14823106183E+01 -0.84191110049E+03  0.84536056076E+03  0.00000000000E+00 0.  1.
         21    1    1    2  505  503 -0.53739026539E+02  0.78820834139E+02 -0.85962883861E+03  0.86490597584E+03  0.00000000000E+00 0.  1.
          2    1    1    2  501    0  0.13776031583E+02 -0.71905742702E+02 -0.41226331505E+02  0.84022766493E+02  0.00000000000E+00 0.  1.
<scales pt_clust_3="37.27100" pt_clust_4="73.85028" pt_clust_5="14000.00000" pt_clust_6="79.40539"></scales>
<clustering>
<clus scale="   37.271">  1  3  2 -1</clus>
<clus scale="   73.850">  2  4  1 -1</clus>
<clus scale="   79.405">  1  6  2 -1</clus>
<clus scale="   37.271">  1  3  2 -1</clus>
</clustering>
</event>
<event>
 6    0  0.3667994E+002  0.7742469E+02  0.7546771E-02  0.1336523E+00
         21   -1    0    0  504  502  0.00000000000E+00  0.00000000000E+00  0.84672577182E+02  0.84672577182E+02  0.00000000000E+00 0. -1.
         -1   -1    0    0    0  501 -0.00000000000E+00 -0.00000000000E+00 -0.33608916464E+03  0.33608916464E+03  0.00000000000E+00 0. -1.
         21    1    1    2  503  502  0.18609867339E+01 -0.45919690408E+02  0.29624875480E+02  0.54678281667E+02  0.00000000000E+00 0. -1.
         21    1    1    2  504  505 -0.76731850819E+02  0.71896361518E+02 -0.87258930553E+02  0.13664181165E+03  0.00000000000E+00 0. -1.
         21    1    1    2  505  501  0.38375038595E+02  0.18174953825E+02 -0.15388029337E+03  0.15963119126E+03  0.00000000000E+00 0. -1.
         -1    1    1    2    0  503  0.36495825490E+02 -0.44151624935E+02 -0.39902239006E+02  0.69810457242E+02  0.00000000000E+00 0. -1.
<scales pt_clust_3="44.88052" pt_clust_4="77.42469" pt_clust_5="42.46142" pt_clust_6="14000.00000"></scales>
<clustering>
<clus scale="   42.461">  2  5  1 -1</clus>
<clus scale="   44.881">  1  3  2 -1</clus>
<clus scale="   77.425">  1  4  2 -1</clus>
<clus scale="   44.881">  1  3  2 -1</clus>
</clustering>
</event>
<event>
 6    0  0.3667994E+002  0.1522633E+03  0.7546771E-02  0.1197719E+00
          2   -1    0    0  504    0 -0.00000000000E+00  0.00000000000E+00  0.11343747134E+04  0.11343747134E+04  0.00000000000E+00 0.  1.
         21   -1    0    0  503  502  0.00000000000E+00 -0.00000000000E+00 -0.41368830361E+02  0.41368830361E+02  0.00000000000E+00 0.  1.
         21    1    1    2  503  501 -0.45979910527E+02 -0.20039082198E+01  0.79860118189E+02  0.92172698221E+02  0.00000000000E+00 0. -1.
         21    1    1    2  504  505  0.38088581888E+02 -0.83474238344E+02  0.43659577126E+03  0.44613289054E+03  0.00000000000E+00 0.  1.
         21    1    1    2  505  502  0.12724755563E+03  0.96399437638E+01  0.22780313206E+03  0.26111134771E+03  0.00000000000E+00 0.  1.
          2    1    1    2  501    0 -0.11935622699E+03  0.75838202800E+02  0.34874686153E+03  0.37632660728E+03  0.00000000000E+00 0.  1.
<scales pt_clust_3="31.24755" pt_clust_4="91.75341" pt_clust_5="142.07044" pt_clust_6="31.24755"></scales>
<clustering>
<clus scale="   31.248">  3  6 -1 -1</clus>
<clus scale="   91.753">  1  4  2 -1</clus>
<clus scale="  142.070">  2  5  1 -1</clus>
<clus scale="  142.070">  2  3  1 -1</clus>
</clustering>
</event>
<event>
 6    0  0.3667994E+002  0.1031657E+03  0.7546771E-02  0.1273776E+00
          2   -1    0    0  503    0 -0.00000000000E+00  0.00000000000E+00  0.38577883108E+04  0.38577883108E+04  0.00000000000E+00 0.  1.
         21   -1    0    0  505  502  0.00000000000E+00 -0.00000000000E+00 -0.31414431080E+02  0.31414431080E+02  0.00000000000E+00 0.  1.
         21    1    1    2  503  504  0.29164426087E+01 -0.37269085022E+02  0.61361036508E+03  0.61474805447E+03  0.00000000000E+00 0.  1.
         21    1    1    2  504  502  0.50611074468E+02 -0.52525449060E+02  0.19199568106E+03  0.20538438403E+03  0.00000000000E+00 0. -1.
         21    1    1    2  505  501  0.19757271568E+02 -0.28763676690E+02 -0.90486074229E+01  0.36049634850E+02  0.00000000000E+00 0.  1.
          2    1    1    2  501    0 -0.73284788644E+02  0.11855821077E+03  0.30298164410E+04  0.30330206685E+04  0.00000000000E+00 0.  1.
<scales pt_clust_3="39.33787" pt_clust_4="14000.00000" pt_clust_5="34.89554" pt_clust_6="103.16571"></scales>
<clustering>
<clus scale="   34.896">  2  5  1 -1</clus>
<clus scale="   39.338">  1  3  2 -1</clus>
<clus scale="  103.166">  1  6  2 -1</clus>
<clus scale="   34.896">  2  3  1 -1</clus>
</clustering>
</event>
<event>
 6    0  0.3667994E+002  0.1400632E+03  0.7546771E-02  0.1213244E+00
         21   -1    0    0  503  502  0.00000000000E+00  0.00000000000E+00  0.45431289203E+03  0.45431289203E+03  0.00000000000E+00 0.  1.
         -3   -1    0    0    0  501 -0.00000000000E+00 -0.00000000000E+00 -0.30901966443E+04  0.30901966443E+04  0.00000000000E+00 0.  1.
         21    1    1    2  503  501  0.11982347590E+03 -0.11155665871E+02 -0.47020778350E+03  0.48536323915E+03  0.00000000000E+00 0.  1.
         21    1    1    2  504  502  0.94276095717E+01 -0.39018456725E+02  0.44383120767E+03  0.44564275007E+03  0.00000000000E+00 0.  1.
         21    1    1    2  505  504 -0.77578349011E+02  0.50905457312E+02 -0.16895739188E+04  0.16921199109E+04  0.00000000000E+00 0.  1.
         -3    1    1    2    0  505 -0.51672736460E+02 -0.73133471581E+00 -0.91993325764E+03  0.92138363620E+03  0.00000000000E+00 0.  1.
<scales pt_clust_3="134.04434" pt_clust_4="40.14125" pt_clust_5="30.31241" pt_clust_6="30.31241"></scales>
<clustering>
<clus scale="   30.312">  5  6 -1 -1</clus>
<clus scale="   40.141">  1  4  2 -1</clus>
<clus scale="  134.044">  1  3  2 -1</clus>
<clus scale="   40.141">  1  3  2 -1</clus>
</clustering>
</event>
<event>
 6    0  0.3667994E+002  0.3393889E+03  0.7546771E-02  0.1067057E+00
         21   -1    0    0  504  502  0.00000000000E+00  0.00000000000E+00  0.12372683217E+04  0.12372683217E+04  0.00000000000E+00 0.  1.
          2   -1    0    0  505    0 -0.00000000000E+00 -0.00000000000E+00 -0.49515613804E+03  0.49515613804E+03  0.00000000000E+00 0. -1.
         21    1    1    2  503  501  0.14844742191E+02  0.55998277049E+02 -0.28276235569E+02  0.64464865633E+02  0.00000000000E+00 0.  1.
         21    1    1    2  504  503 -0.13420820938E+03  0.12364435585E+02  0.19674436232E+03  0.23848074731E+03  0.00000000000E+00 0. -1.
         21    1    1    2  505  502  0.25710644295E+03 -0.29972358476E+03  0.91390371612E+03  0.99556916013E+03  0.00000000000E+00 0.  1.
          2    1    1    2  501    0 -0.13774297575E+03  0.23136087212E+03 -0.34025965919E+03  0.43390968668E+03  0.00000000000E+00 0. -1.
<scales pt_clust_3="56.58032" pt_clust_4="134.77657" pt_clust_5="316.71057" pt_clust_6="56.58032"></scales>
<clustering>
<clus scale="   56.580">  3  6 -1 -1</clus>
<clus scale="  134.777">  1  4  2 -1</clus>
<clus scale="  316.711">  1  5  2 -1</clus>
<clus scale="  134.777">  1  3  2 -1</clus>
</clustering>
</event>
<event>
 6    0  0.3667994E+002  0.1494108E+03  0.7546771E-02  0.1201199E+00
         21   -1    0    0  504  502  0.00000000000E+00  0.00000000000E+00  0.10792948823E+03  0.10792948823E+03  0.00000000000E+00 0. -1.
         -2   -1    0    0    0  501 -0.00000000000E+00 -0.00000000000E+00 -0.37255071478E+03  0.37255071478E+03  0.00000000000E+00 0. -1.
         21    1    1    2  503  501 -0.19901758799E+02  0.51157853039E+02 -0.71037634711E+01  0.55350423542E+02  0.00000000000E+00 0. -1.
         21    1    1    2  504  505  0.31477116957E+02  0.21042929109E+02 -0.22739662929E+02  0.44166797795E+02  0.00000000000E+00 0. -1.
         21    1    1    2  505  503  0.38724285169E+02  0.55418621503E+02  0.36605403131E+02  0.76881398332E+02  0.00000000000E+00 0. -1.
         -2    1    1    2    0  502 -0.50299643327E+02 -0.12761940365E+03 -0.27138320328E+03  0.30408158334E+03  0.00000000000E+00 0. -1.
<scales pt_clust_3="56.49437" pt_clust_4="37.86309" pt_clust_5="56.49437" pt_clust_6="131.99060"></scales>
<clustering>
<clus scale="   37.863">  1  4  2 -1</clus>
<clus scale="   56.494">  3  5 -1 -1</clus>
<clus scale="  131.991">  2  6  1 -1</clus>
<clus scale="   37.863">  1  3  2 -1</clus>
</clustering>
</event>
<event>
 6    0  0.3667994E+002  0.1135507E+03  0.7546771E-02  0.1254132E+00
         21   -1    0    0  505  502  0.00000000000E+00  0.00000000000E+00  0.24425307987E+03  0.24425307987E+03  0.00000000000E+00 0. -1.
          2   -1    0    0  503    0 -0.00000000000E+00 -0.00000000000E+00 -0.35057569215E+03  0.35057569215E+03  0.00000000000E+00 0. -1.
         21    1    1    2  503  504 -0.97220775329E+02 -0.84332844615E+02 -0.26220952782E+03  0.29209201344E+03  0.00000000000E+00 0. -1.
         21    1    1    2  504  502  0.79355975013E+02  0.18927308779E+02 -0.38350366465E+01  0.81672034956E+02  0.00000000000E+00 0. -1.
         21    1    1    2  505  501  0.26500677457E+02 -0.24690527379E+02  0.11409353113E+03  0.11970481149E+03  0.00000000000E+00 0. -1.
          2    1    1    2  501    0 -0.86358771406E+01  0.90096063215E+02  0.45628421059E+02  0.10135991214E+03  0.00000000000E+00 0. -1.
<scales pt_clust_3="14000.00000" pt_clust_4="113.55066" pt_clust_5="36.22027" pt_clust_6="76.13911"></scales>
<clustering>
<clus scale="   36.220">  1  5  2 -1</clus>
<clus scale="   76.139">  1  6  2 -1</clus>
<clus scale="  113.551">  1  4  2 -1</clus>
<clus scale="   36.220">  1  3  2 -1</clus>
</clustering>
</event>
<event>
 6    0  0.3667994E+002  0.8414535E+02  0.7546771E-02  0.1317683E+00
         21   -1    0    0  504  502  0.00000000000E+00  0.00000000000E+00  0.99477133782E+02  0.99477133782E+02  0.00000000000E+00 0. -1.
         -2   -1    0    0    0  501 -0.00000000000E+00 -0.00000000000E+00 -0.20911860475E+04  0.20911860475E+04  0.00000000000E+00 0.  1.
         21    1    1    2  503  505 -0.52137259980E+02  0.10178120601E+03 -0.24362231313E+03  0.26912736618E+03  0.00000000000E+00 0.  1.
         21    1    1    2  504  501  0.65225206302E+02 -0.18991601173E+02  0.63028442214E+02  0.92669266643E+02  0.00000000000E+00 0. -1.
         21    1    1    2  505  502 -0.79098913158E+01 -0.38860536834E+02 -0.37117830890E+02  0.54317962716E+02  0.00000000000E+00 0.  1.
         -2    1    1    2    0  503 -0.51780550064E+01 -0.43929068004E+02 -0.17739972119E+04  0.17745485857E+04  0.00000000000E+00 0.  1.
<scales pt_clust_3="84.14535" pt_clust_4="14000.00000" pt_clust_5="39.65738" pt_clust_6="44.35308"></scales>
<clustering>
<clus scale="   39.657">  1  5  2 -1</clus>
<clus scale="   44.353">  2  6  1 -1</clus>
<clus scale="   84.145">  2  3  1 -1</clus>
<clus scale="   39.657">  1  3  2 -1</clus>
</clustering>
</event>
<event>
 6    0  0.3667994E+002  0.1198239E+03  0.7546771E-02  0.1243388E+00
          2   -1    0    0  503    0 -0.00000000000E+00  0.00000000000E+00  0.97599479291E+03  0.97599479291E+03  0.00000000000E+00 0. -1.
         21   -1    0    0  504  502  0.00000000000E+00 -0.00000000000E+00 -0.33600251978E+03  0.33600251978E+03  0.00000000000E+00 0.  1.
         21    1    1    2  503  505  0.56411512581E+02  0.11276049591E+03  0.16071009850E+03  0.20426679600E+03  0.00000000000E+00 0. -1.
         21    1    1    2  504  501  0.22891247322E+02 -0.64687118837E+02 -0.30049693588E+03  0.30823179755E+03  0.00000000000E+00 0.  1.
         21    1    1    2  505  502 -0.16826224440E+02  0.27814289160E+02  0.33158902481E+02  0.46435647127E+02  0.00000000000E+00 0. -1.
          2    1    1    2  501    0 -0.62476535462E+02 -0.75887666236E+02  0.74662020803E+03  0.75306307200E+03  0.00000000000E+00 0. -1.
<scales pt_clust_3="31.86514" pt_clust_4="68.61802" pt_clust_5="31.86514" pt_clust_6="102.07594"></scales>
<clustering>
<clus scale="   31.865">  3  5 -1 -1</clus>
<clus scale="   68.618">  2  4  1 -1</clus>
<clus scale="  102.076">  1  6  2 -1</clus>
<clus scale="   68.618">  2  3  1 -1</clus>
</clustering>
</event>
<event>
 6    0  0.3667994E+002  0.1167202E+03  0.7546771E-02  0.1248608E+00
         21   -1    0    0  504  502  0.00000000000E+00  0.00000000000E+00  0.15714941171E+03  0.15714941171E+03  0.00000000000E+00 0.  1.
          2   -1    0    0  505    0 -0.00000000000E+00 -0.00000000000E+00 -0.18322026922E+04  0.18322026922E+04  0.00000000000E+00 0. -1.
         21    1    1    2  503  502 -0.83370038407E+01  0.72268884973E+02  0.13575346006E+03  0.15401720451E+03  0.00000000000E+00 0.  1.
         21    1    1    2  504  501 -0.83357839309E+02  0.64060689998E+02 -0.51145678367E+03  0.52214973230E+03  0.00000000000E+00 0. -1.
         21    1    1    2  505  503  0.46091517274E+02 -0.16595590424E+02 -0.18073278471E+03  0.18725432186E+03  0.00000000000E+00 0.  1.
          2    1    1    2  501    0  0.45603325875E+02 -0.11973398455E+03 -0.11186171722E+04  0.11259308452E+04  0.00000000000E+00 0. -1.
<scales pt_clust_3="72.62798" pt_clust_4="14000.00000" pt_clust_5="48.98818" pt_clust_6="116.72018"></scales>
<clustering>
<clus scale="   48.988">  2  5  1 -1</clus>
<clus scale="   72.628">  1  3  2 -1</clus>
<clus scale="  116.720">  2  6  1 -1</clus>
<clus scale="   72.628">  1  3  2 -1</clus>
</clustering>
</event>
<event>
 6    0  0.3667994E+002  0.1844029E+03  0.7546771E-02  0.1163609E+00
         21   -1    0    0  505  502  0.00000000000E+00  0.00000000000E+00  0.40265217279E+02  0.40265217279E+02  0.00000000000E+00 0. -1.
          2   -1    0    0  503    0 -0.00000000000E+00 -0.00000000000E+00 -0.11636052581E+04  0.11636052581E+04  0.00000000000E+00 0.  1.
         21    1    1    2  503  504 -0.10507214381E+03  0.10605442919E+03 -0.48269554074E+03  0.50525506668E+03  0.00000000000E+00 0. -1.
         21    1    1    2  504  502 -0.21473148471E+02  0.38536977921E+02 -0.29665933270E+02  0.53162603109E+02  0.00000000000E+00 0. -1.
         21    1    1    2  505  501 -0.46009941883E+00 -0.45388064970E+02 -0.10392817094E+03  0.11340790470E+03  0.00000000000E+00 0.  1.
          2    1    1    2  501    0  0.12700539170E+03 -0.99203342140E+02 -0.50705039588E+03  0.53204490090E+03  0.00000000000E+00 0.  1.
<scales pt_clust_3="166.16346" pt_clust_4="44.11570" pt_clust_5="42.43730" pt_clust_6="42.43730"></scales>
<clustering>
<clus scale="   42.437">  5  6 -1 -1</clus>
<clus scale="   44.116">  1  4  2 -1</clus>
<clus scale="  166.163">  2  3  1 -1</clus>
<clus scale="   44.116">  1  3  2 -1</clus>
</clustering>
</event>
<event>
 6    0  0.3667994E+002  0.7345270E+02  0.7546771E-02  0.1348731E+00
          2   -1    0    0  504    0 -0.00000000000E+00  0.00000000000E+00  0.46910809492E+03  0.46910809492E+03  0.00000000000E+00 0.  1.
         21   -1    0    0  505  502  0.00000000000E+00 -0.00000000000E+00 -0.59498401800E+03  0.59498401800E+03  0.00000000000E+00 0. -1.
         21    1    1    2  503  501  0.10471219153E+03 -0.74802034194E+02  0.17115855586E+02  0.12981887339E+03  0.00000000000E+00 0.  1.
         21    1    1    2  504  502 -0.27197976349E+02 -0.19070222963E+02  0.47685892328E+02  0.58114952021E+02  0.00000000000E+00 0.  1.
         21    1    1    2  505  503 -0.61080380273E+02  0.37446455915E+02 -0.52846349386E+03  0.53329796011E+03  0.00000000000E+00 0. -1.
          2    1    1    2  501    0 -0.16433834910E+02  0.56425801242E+02  0.33778582286E+03  0.34286032740E+03  0.00000000000E+00 0.  1.
<scales pt_clust_3="73.45270" pt_clust_4="33.21752" pt_clust_5="14000.00000" pt_clust_6="56.23962"></scales>
<clustering>
<clus scale="   33.218">  1  4  2 -1</clus>
<clus scale="   56.240">  1  6  2 -1</clus>
<clus scale="   73.453">  1  3  2 -1</clus>
<clus scale="   73.453">  2  3  1 -1</clus>
</clustering>
</event>
<event>
 6    0  0.3667994E+002  0.1172795E+03  0.7546771E-02  0.1247654E+00
          1   -1    0    0  505    0 -0.00000000000E+00  0.00000000000E+00  0.90978478351E+03  0.90978478351E+03  0.00000000000E+00 0. -1.
         21   -1    0    0  501  502  0.00000000000E+00 -0.00000000000E+00 -0.20341522643E+03  0.20341522643E+03  0.00000000000E+00 0.  1.
         21    1    1    2  503  502 -0.49641259019E+02  0.41578503070E+01 -0.17572071555E+03  0.18264531800E+03  0.00000000000E+00 0.  1.
         21    1    1    2  504  503 -0.40077837596E+02  0.85515034799E+02  0.19514421648E+03  0.21679557069E+03  0.00000000000E+00 0.  1.
         21    1    1    2  505  504 -0.30345480635E+02  0.33247830395E+01  0.23510281219E+03  0.23707643215E+03  0.00000000000E+00 0. -1.
          1    1    1    2  501    0  0.12006457725E+03 -0.92997668146E+02  0.45184324395E+03  0.47668268910E+03  0.00000000000E+00 0. -1.
<scales pt_clust_3="49.97192" pt_clust_4="117.27949" pt_clust_5="30.52708" pt_clust_6="14000.00000"></scales>
<clustering>
<clus scale="   30.527">  1  5  2 -1</clus>
<clus scale="   49.972">  2  3  1 -1</clus>
<clus scale="  117.279">  2  4  1 -1</clus>
<clus scale="   49.972">  2  3  1 -1</clus>
</clustering>
</event>
<event>
 6    0  0.3667994E+002  0.1226579E+03  0.7546771E-02  0.1238776E+00
         21   -1    0    0  503  502  0.00000000000E+00  0.00000000000E+00  0.10997701373E+04  0.10997701373E+04  0.00000000000E+00 0. -1.
          2   -1    0    0  504    0 -0.00000000000E+00 -0.00000000000E+00 -0.43037615994E+03  0.43037615994E+03  0.00000000000E+00 0. -1.
         21    1    1    2  503  505  0.83420333288E+02 -0.90546960733E+02  0.10441425256E+04  0.10513759165E+04  0.00000000000E+00 0. -1.
         21    1    1    2  504  502 -0.35551769849E+02  0.37207445189E+02  0.67790335115E+01  0.51906431319E+02  0.00000000000E+00 0.  1.
         21    1    1    2  505  501 -0.73060825397E+01  0.11627057637E+03 -0.23786411389E+03  0.26486140234E+03  0.00000000000E+00 0.  1.
          2    1    1    2  501    0 -0.40562480900E+02 -0.62931060829E+02 -0.14366346782E+03  0.16200254708E+03  0.00000000000E+00 0. -1.
<scales pt_clust_3="122.65787" pt_clust_4="51.46185" pt_clust_5="14000.00000" pt_clust_6="72.82467"></scales>
<clustering>
<clus scale="   51.462">  2  4  1 -1</clus>
<clus scale="   72.825">  2  6  1 -1</clus>
<clus scale="  122.658">  1  3  2 -1</clus>
<clus scale="  122.658">  1  3  2 -1</clus>
</clustering>
</event>
<event>
 6    0  0.3667994E+002  0.2821876E+03  0.7546771E-02  0.1094500E+00
          2   -1    0    0  503    0 -0.00000000000E+00  0.00000000000E+00  0.24705278045E+04  0.24705278045E+04  0.00000000000E+00 0.  1.
         21   -1    0    0  505  502  0.00000000000E+00 -0.00000000000E+00 -0.62299715440E+02  0.62299715440E+02  0.00000000000E+00 0. -1.
         21    1    1    2  503  504 -0.52191055301E+02  0.39117839112E+01  0.39463896003E+03  0.39809435700E+03  0.00000000000E+00 0. -1.
         21    1    1    2  504  502  0.15729529919E+03 -0.23144362238E+03  0.33649073752E+03  0.43764595043E+03  0.00000000000E+00 0. -1.
         21    1    1    2  505  501 -0.40217644727E-01  0.68629508363E+02  0.39593029499E+03  0.40183430606E+03  0.00000000000E+00 0.  1.
          2    1    1    2  501    0 -0.10506402625E+03  0.15890233010E+03  0.12811680965E+04  0.12952529064E+04  0.00000000000E+00 0.  1.
<scales pt_clust_3="52.33745" pt_clust_4="273.86395" pt_clust_5="40.83445" pt_clust_6="40.83445"></scales>
<clustering>
<clus scale="   40.834">  5  6 -1 -1</clus>
<clus scale="   52.337">  1  3  2 -1</clus>
<clus scale="  273.864">  2  4  1 -1</clus>
<clus scale="  273.864">  2  3  1 -1</clus>
</clustering>
</event>
<event>
 6    0  0.3667994E+002  0.1201617E+03  0.7546771E-02  0.1242830E+00
         21   -1    0    0  505  502  0.00000000000E+00  0.00000000000E+00  0.76306333623E+02  0.76306333623E+02  0.00000000000E+00 0. -1.
         -1   -1    0    0    0  501 -0.00000000000E+00 -0.00000000000E+00 -0.98299969277E+03  0.98299969277E+03  0.00000000000E+00 0. -1.
         21    1    1    2  503  504 -0.17624864272E+03 -0.97404242536E+02 -0.37564513394E+03  0.42621642059E+03  0.00000000000E+00 0. -1.
         21    1    1    2  504  502 -0.53686114448E+00  0.35818965640E+02  0.19404870441E+02  0.40741078977E+02  0.00000000000E+00 0. -1.
         21    1    1    2  505  501  0.76812052748E+02  0.38587303946E+02 -0.10734662696E+03  0.13752225199E+03  0.00000000000E+00 0. -1.
         -1    1    1    2    0  503  0.99973451121E+02  0.22997972950E+02 -0.44310646869E+03  0.45482627484E+03  0.00000000000E+00 0. -1.
<scales pt_clust_3="14000.00000" pt_clust_4="35.82299" pt_clust_5="91.65660" pt_clust_6="120.16172"></scales>
<clustering>
<clus scale="   35.823">  1  4  2 -1</clus>
<clus scale="   91.657">  1  5  2 -1</clus>
<clus scale="  120.162">  2  6  1 -1</clus>
<clus scale="   35.823">  1  3  2 -1</clus>
</clustering>
</event>
<event>
 6    0  0.3667994E+002  0.2452164E+03  0.7546771E-02  0.1116366E+00
          2   -1    0    0  505    0 -0.00000000000E+00  0.00000000000E+00  0.41130172949E+04  0.41130172949E+04  0.00000000000E+00 0.  1.
         21   -1    0    0  503  502  0.00000000000E+00 -0.00000000000E+00 -0.20801380684E+03  0.20801380684E+03  0.00000000000E+00 0.  1.
         21    1    1    2  503  501 -0.19124598844E+03 -0.24592599089E+03  0.81743948915E+03  0.87479251226E+03  0.00000000000E+00 0.  1.
         21    1    1    2  504  502 -0.59160927585E+00  0.53104538391E+02 -0.16628868348E+03  0.17456336458E+03  0.00000000000E+00 0.  1.
         21    1    1    2  505  504  0.19540014714E+02  0.16305271830E+03  0.14014398507E+04  0.14110285809E+04  0.00000000000E+00 0.  1.
          2    1    1    2  501    0  0.17229758300E+03  0.29768734202E+02  0.18524128317E+04  0.18606466439E+04  0.00000000000E+00 0.  1.
<scales pt_clust_3="245.21638" pt_clust_4="53.10783" pt_clust_5="170.93808" pt_clust_6="14000.00000"></scales>
<clustering>
<clus scale="   53.108">  2  4  1 -1</clus>
<clus scale="  170.938">  1  5  2 -1</clus>
<clus scale="  245.216">  2  3  1 -1</clus>
<clus scale="   53.108">  2  3  1 -1</clus>
</clustering>
</event>
<event>
 6    0  0.3667994E+002  0.1353593E+03  0.7546771E-02  0.1219713E+00
         21   -1    0    0  501  502  0.00000000000E+00  0.00000000000E+00  0.10488649705E+03  0.10488649705E+03  0.00000000000E+00 0.  1.
          2   -1    0    0  504    0 -0.00000000000E+00 -0.00000000000E+00 -0.37073872436E+04  0.37073872436E+04  0.00000000000E+00 0.  1.
         21    1    1    2  503  505  0.47210697344E+02  0.79081913695E+02 -0.67478017579E+03  0.68103677189E+03  0.00000000000E+00 0.  1.
         21    1    1    2  504  503 -0.14147424982E+02  0.57545688914E+02 -0.54813717158E+03  0.55133112991E+03  0.00000000000E+00 0.  1.
         21    1    1    2  505  502 -0.25211255379E+02 -0.19907784672E+02  0.96168390809E+02  0.10139174857E+03  0.00000000000E+00 0.  1.
          2    1    1    2  501    0 -0.78520169833E+01 -0.11671981794E+03 -0.24757517900E+04  0.24785140903E+04  0.00000000000E+00 0.  1.
<scales pt_clust_3="50.19408" pt_clust_4="50.19408" pt_clust_5="32.12363" pt_clust_6="121.97798"></scales>
<clustering>
<clus scale="   32.124">  1  5  2 -1</clus>
<clus scale="   50.194">  3  4 -1 -1</clus>
<clus scale="  121.978">  2  6  1 -1</clus>
<clus scale="   32.124">  1  3  2 -1</clus>
</clustering>
</event>
<event>
 6    0  0.3667994E+002  0.1057972E+03  0.7546771E-02  0.1268557E+00
          1   -1    0    0  505    0 -0.00000000000E+00  0.00000000000E+00  0.65839292590E+03  0.65839292590E+03  0.00000000000E+00 0.  1.
         21   -1    0    0  501  502  0.00000000000E+00 -0.00000000000E+00 -0.69179006460E+02  0.69179006460E+02  0.00000000000E+00 0.  1.
         21    1    1    2  503  502 -0.10050754639E+03  0.21870338809E+02  0.50741432623E+01  0.10298458881E+03  0.00000000000E+00 0.  1.
         21    1    1    2  504  503  0.16299241670E+02  0.34836046523E+02  0.64831670162E+02  0.75381435860E+02  0.00000000000E+00 0.  1.
         21    1    1    2  505  504 -0.29207994108E+02 -0.14442008601E+02  0.27119036432E+03  0.27314079196E+03  0.00000000000E+00 0.  1.
          1    1    1    2  501    0  0.11341629883E+03 -0.42264376732E+02  0.24811774170E+03  0.27606511573E+03  0.00000000000E+00 0.  1.
<scales pt_clust_3="105.79724" pt_clust_4="34.04005" pt_clust_5="32.58341" pt_clust_6="14000.00000"></scales>
<clustering>
<clus scale="   32.583">  1  5  2 -1</clus>
<clus scale="   34.040">  1  4  2 -1</clus>
<clus scale="  105.797">  2  3  1 -1</clus>
<clus scale="  105.797">  2  3  1 -1</clus>
</clustering>
</event>
<event>
 6    0  0.3667994E+002  0.1169713E+03  0.7546771E-02  0.1248179E+00
          2   -1    0    0  505    0 -0.00000000000E+00  0.00000000000E+00  0.70327778797E+03  0.70327778797E+03  0.00000000000E+00 0.  1.
         21   -1    0    0  503  502  0.00000000000E+00 -0.00000000000E+00 -0.63895692546E+02  0.63895692546E+02  0.00000000000E+00 0.  1.
         21    1    1    2  503  501 -0.33118083520E+02 -0.75455504643E+01  0.10754781485E+01  0.33983811457E+02  0.00000000000E+00 0. -1.
         21    1    1    2  504  502  0.73306088195E+02 -0.14088255582E+03  0.32268525848E+03  0.35964906943E+03  0.00000000000E+00 0.  1.
         21    1    1    2  505  504 -0.79236526454E+02  0.49495823382E+02  0.14636199155E+03  0.17363783063E+03  0.00000000000E+00 0. -1.
          2    1    1    2  501    0  0.39048521780E+02  0.98932282899E+02  0.16925936724E+03  0.19990276900E+03  0.00000000000E+00 0.  1.
<scales pt_clust_3="33.96679" pt_clust_4="116.97134" pt_clust_5="14000.00000" pt_clust_6="100.57452"></scales>
<clustering>
<clus scale="   33.967">  2  3  1 -1</clus>
<clus scale="  100.575">  2  6  1 -1</clus>
<clus scale="  116.971">  2  4  1 -1</clus>
<clus scale="   33.967">  2  3  1 -1</clus>
</clustering>
</event>
<event>
 6    0  0.3667994E+002  0.2281408E+03  0.7546771E-02  0.1127955E+00
         21   -1    0    0  505  502  0.00000000000E+00  0.00000000000E+00  0.24943832475E+03  0.24943832475E+03  0.00000000000E+00 0.  1.
          1   -1    0    0  502    0 -0.00000000000E+00 -0.00000000000E+00 -0.61082615159E+03  0.61082615159E+03  0.00000000000E+00 0.  1.
         21    1    1    2  503  501 -0.36340104159E+02 -0.15050323423E+02 -0.14320641055E+03  0.14850990347E+03  0.00000000000E+00 0. -1.
         21    1    1    2  504  503  0.17051302395E+02 -0.69581105098E+02 -0.10628789170E+03  0.12817719384E+03  0.00000000000E+00 0.  1.
         21    1    1    2  505  504  0.37719132915E+02  0.18950297831E+03  0.18540530818E+03  0.26778581007E+03  0.00000000000E+00 0.  1.
          1    1    1    2  501    0 -0.18430331151E+02 -0.10487154978E+03 -0.29729883277E+03  0.31579156896E+03  0.00000000000E+00 0.  1.
<scales pt_clust_3="39.15342" pt_clust_4="71.12297" pt_clust_5="193.22037" pt_clust_6="71.12297"></scales>
<clustering>
<clus scale="   39.153">  3  6 -1 -1</clus>
<clus scale="   71.123">  3  4 -1 -1</clus>
<clus scale="  193.220">  1  5  2 -1</clus>
<clus scale="  193.220">  1  3  2 -1</clus>
</clustering>
</event>
<event>
 6    0  0.3667994E+002  0.6701313E+02  0.7546771E-02  0.1370555E+00
         21   -1    0    0  505  502  0.00000000000E+00  0.00000000000E+00  0.12458610946E+04  0.12458610946E+04  0.00000000000E+00 0.  1.
         -2   -1    0    0    0  501 -0.00000000000E+00 -0.00000000000E+00 -0.16956993790E+03  0.16956993790E+03  0.00000000000E+00 0.  1.
         21    1    1    2  503  501  0.75042210372E+02 -0.42745257711E+02 -0.88009401276E+02  0.12330508954E+03  0.00000000000E+00 0.  1.
         21    1    1    2  504  502 -0.53320079745E+01 -0.57453942997E+02  0.10982526805E+04  0.10997674009E+04  0.00000000000E+00 0.  1.
         21    1    1    2  505  503 -0.62112964947E+02  0.33554409713E+02  0.95781397825E+02  0.11898737326E+03  0.00000000000E+00 0. -1.
         -2    1    1    2    0  504 -0.75972374503E+01  0.66644790995E+02 -0.29733520321E+02  0.73371168822E+02  0.00000000000E+00 0.  1.
<scales pt_clust_3="67.01313" pt_clust_4="57.70083" pt_clust_5="14000.00000" pt_clust_6="58.71090"></scales>
<clustering>
<clus scale="   57.701">  1  4  2 -1</clus>
<clus scale="   58.711">  2  6  1 -1</clus>
<clus scale="   67.013">  2  3  1 -1</clus>
<clus scale="   57.701">  1  3  2 -1</clus>
</clustering>
</event>
<event>
 6    0  0.3667994E+002  0.2958884E+03  0.7546771E-02  0.1087314E+00
         -3   -1    0    0    0  501 -0.00000000000E+00  0.00000000000E+00  0.13137801034E+03  0.13137801034E+03  0.00000000000E+00 0.  1.
         21   -1    0    0  504  502  0.00000000000E+00 -0.00000000000E+00 -0.25095267191E+04  0.25095267191E+04  0.00000000000E+00 0. -1.
         21    1    1    2  503  505 -0.27480735381E+03  0.11800883968E+03 -0.21337137038E+03  0.36738604988E+03  0.00000000000E+00 0.  1.
         21    1    1    2  504  503  0.44097813120E+02  0.43617086658E+02 -0.17237270703E+04  0.17248426248E+04  0.00000000000E+00 0. -1.
         21    1    1    2  505  501 -0.24858639601E+02 -0.29643127167E+02 -0.55483267356E+02  0.67639189141E+02  0.00000000000E+00 0. -1.
         -3    1    1    2    0  502  0.25556818030E+03 -0.13198279917E+03 -0.38556700075E+03  0.48103686566E+03  0.00000000000E+00 0.  1.
<scales pt_clust_3="295.88839" pt_clust_4="61.85326" pt_clust_5="38.68678" pt_clust_6="14000.00000"></scales>
<clustering>
<clus scale="   38.687">  1  5  2 -1</clus>
<clus scale="   61.853">  2  4  1 -1</clus>
<clus scale="  295.888">  1  3  2 -1</clus>
<clus scale="   61.853">  2  3  1 -1</clus>
</clustering>
</event>
<event>
 6    0  0.3667994E+002  0.1241508E+03  0.7546771E-02  0.1236402E+00
          2   -1    0    0  504    0 -0.00000000000E+00  0.00000000000E+00  0.91624630947E+03  0.91624630947E+03  0.00000000000E+00 0.  1.
         21   -1    0    0  501  502  0.00000000000E+00 -0.00000000000E+00 -0.29396111835E+03  0.29396111835E+03  0.00000000000E+00 0.  1.
         21    1    1    2  503  505  0.55816548063E+02  0.75625354160E+02  0.72042838403E+02  0.11842656710E+03  0.00000000000E+00 0. -1.
         21    1    1    2  504  503  0.18853229520E+02 -0.23936471649E+02  0.68531781358E+02  0.75000026629E+02  0.00000000000E+00 0. -1.
         21    1    1    2  505  502  0.75224728920E+01  0.46769981792E+02 -0.25988965505E+03  0.26417163284E+03  0.00000000000E+00 0.  1.
          2    1    1    2  501    0 -0.82192250474E+02 -0.98458864303E+02  0.74160022641E+03  0.75260920125E+03  0.00000000000E+00 0.  1.
<scales pt_clust_3="14000.00000" pt_clust_4="30.46964" pt_clust_5="47.31878" pt_clust_6="124.15080"></scales>
<clustering>
<clus scale="   30.470">  1  4  2 -1</clus>
<clus scale="   47.319">  2  5  1 -1</clus>
<clus scale="  124.151">  1  6  2 -1</clus>
<clus scale="   47.319">  2  3  1 -1</clus>
</clustering>
</event>
<event>
 6    0  0.3667994E+002  0.2426668E+03  0.7546771E-02  0.1118029E+00
          1   -1    0    0  504    0 -0.00000000000E+00  0.00000000000E+00  0.40343810775E+03  0.40343810775E+03  0.00000000000E+00 0. -1.
         21   -1    0    0  505  502  0.00000000000E+00 -0.00000000000E+00 -0.15430558877E+03  0.15430558877E+03  0.00000000000E+00 0. -1.
         21    1    1    2  503  502 -0.31745857011E+02 -0.35466518208E+02 -0.21424607210E+02  0.52198535854E+02  0.00000000000E+00 0. -1.
         21    1    1    2  504  503 -0.10920149696E+03 -0.14500737284E+03  0.74406988939E+02  0.19618487485E+03  0.00000000000E+00 0. -1.
         21    1    1    2  505  501  0.57146008203E+01  0.52080883701E+02  0.36183844313E+02  0.63673744188E+02  0.00000000000E+00 0.  1.
          1    1    1    2  501    0  0.13523275315E+03  0.12839300735E+03  0.15996629294E+03  0.24568654163E+03  0.00000000000E+00 0. -1.
<scales pt_clust_3="41.12589" pt_clust_4="41.12589" pt_clust_5="36.69308" pt_clust_6="239.22565"></scales>
<clustering>
<clus scale="   36.693">  5  6 -1 -1</clus>
<clus scale="   41.126">  3  4 -1 -1</clus>
<clus scale="  239.226">  1  5  2 -1</clus>
<clus scale="  242.667">  2  3  1 -1</clus>
</clustering>
</event>
<event>
 6    0  0.3667994E+002  0.8958653E+02  0.7546771E-02  0.1303856E+00
         -2   -1    0    0    0  501 -0.00000000000E+00  0.00000000000E+00  0.71650881258E+03  0.71650881258E+03  0.00000000000E+00 0.  1.
         21   -1    0    0  504  502  0.00000000000E+00 -0.00000000000E+00 -0.91349642437E+02  0.91349642437E+02  0.00000000000E+00 0. -1.
         21    1    1    2  503  502  0.80425880304E+02  0.16629899622E+02  0.29525923969E+03  0.30646842318E+03  0.00000000000E+00 0.  1.
         21    1    1    2  504  505 -0.66595388365E+02 -0.24806207674E+02 -0.59777975612E+02  0.92863879194E+02  0.00000000000E+00 0. -1.
         21    1    1    2  505  501 -0.54188214315E+02  0.33977155056E+02  0.13502463692E+03  0.14940703534E+03  0.00000000000E+00 0. -1.
         -2    1    1    2    0  503  0.40357722375E+02 -0.25800847004E+02  0.25465326915E+03  0.25911911730E+03  0.00000000000E+00 0.  1.
<scales pt_clust_3="40.50307" pt_clust_4="72.20133" pt_clust_5="63.95944" pt_clust_6="40.50307"></scales>
<clustering>
<clus scale="   40.503">  3  6 -1 -1</clus>
<clus scale="   63.959">  1  5  2 -1</clus>
<clus scale="   72.201">  2  4  1 -1</clus>
<clus scale="   72.201">  2  3  1 -1</clus>
</clustering>
</event>
<event>
 6    0  0.3667994E+002  0.6814276E+02  0.7546771E-02  0.1366525E+00
         21   -1    0    0  503  502  0.00000000000E+00  0.00000000000E+00  0.82444601208E+02  0.82444601208E+02  0.00000000000E+00 0. -1.
          2   -1    0    0  505    0 -0.00000000000E+00 -0.00000000000E+00 -0.18277121288E+04  0.18277121288E+04  0.00000000000E+00 0. -1.
         21    1    1    2  503  501  0.62438399721E+02  0.24755714547E+02  0.57922218895E+02  0.88692629932E+02  0.00000000000E+00 0. -1.
         21    1    1    2  504  502  0.66794707393E+02  0.51999424544E+02 -0.74585517204E+03  0.75064333125E+03  0.00000000000E+00 0. -1.
         21    1    1    2  505  504 -0.15166483537E+02 -0.49841781440E+02 -0.30736752183E+03  0.31175153388E+03  0.00000000000E+00 0. -1.
          2    1    1    2  501    0 -0.11406662358E+03 -0.26913357651E+02 -0.74996705259E+03  0.75906923492E+03  0.00000000000E+00 0. -1.
<scales pt_clust_3="68.14276" pt_clust_4="65.35627" pt_clust_5="52.09823" pt_clust_6="14000.00000"></scales>
<clustering>
<clus scale="   52.098">  2  5  1 -1</clus>
<clus scale="   65.356">  2  4  1 -1</clus>
<clus scale="   68.143">  1  3  2 -1</clus>
<clus scale="   68.143">  1  3  2 -1</clus>
</clustering>
</event>
<event>
 6    0  0.3667994E+002  0.1770887E+03  0.7546771E-02  0.1170651E+00
          4   -1    0    0  505    0 -0.00000000000E+00  0.00000000000E+00  0.50042096651E+03  0.50042096651E+03  0.00000000000E+00 0. -1.
         21   -1    0    0  503  502  0.00000000000E+00 -0.00000000000E+00 -0.95939946994E+03  0.95939946994E+03  0.00000000000E+00 0. -1.
         21    1    1    2  503  504 -0.14372204303E+03 -0.80668108001E+02 -0.92230263600E+03  0.93691276098E+03  0.00000000000E+00 0. -1.
         21    1    1    2  504  501  0.58589711014E+02  0.37843936287E+02  0.81410243039E+02  0.10720329016E+03  0.00000000000E+00 0. -1.
         21    1    1    2  505  502 -0.36120501981E+02  0.17931532562E+02  0.98848797224E+02  0.10675820922E+03  0.00000000000E+00 0. -1.
          4    1    1    2  501    0  0.12125283400E+03  0.24892639152E+02  0.28306509231E+03  0.30894617609E+03  0.00000000000E+00 0. -1.
<scales pt_clust_3="165.23171" pt_clust_4="51.05187" pt_clust_5="40.32655" pt_clust_6="51.05187"></scales>
<clustering>
<clus scale="   40.327">  1  5  2 -1</clus>
<clus scale="   51.052">  4  6 -1 -1</clus>
<clus scale="  165.232">  2  3  1 -1</clus>
<clus scale="  165.232">  2  3  1 -1</clus>
</clustering>
</event>
<event>
 6    0  0.3667994E+002  0.9640688E+02  0.7546771E-02  0.1288039E+00
         21   -1    0    0  503  502  0.00000000000E+00  0.00000000000E+00  0.14292485833E+03  0.14292485833E+03  0.00000000000E+00 0.  1.
          2   -1    0    0  504    0 -0.00000000000E+00 -0.00000000000E+00 -0.17574828921E+04  0.17574828921E+04  0.00000000000E+00 0. -1.
         21    1    1    2  503  505 -0.24953847787E+02 -0.84311126273E+02  0.12425351111E+03  0.15221693583E+03  0.00000000000E+00 0.  1.
         21    1    1    2  504  502 -0.52759296385E+02 -0.87551120879E+01 -0.50328029718E+03  0.50611387342E+03  0.00000000000E+00 0.  1.
         21    1    1    2  505  501  0.45840066839E+02  0.58746768667E+02 -0.56188558539E+03  0.56680499788E+03  0.00000000000E+00 0.  1.
          2    1    1    2  501    0  0.31873077334E+02  0.34319469694E+02 -0.67364566229E+03  0.67527194328E+03  0.00000000000E+00 0. -1.
<scales pt_clust_3="88.18889" pt_clust_4="53.48079" pt_clust_5="30.87926" pt_clust_6="30.87926"></scales>
<clustering>
<clus scale="   30.879">  5  6 -1 -1</clus>
<clus scale="   53.481">  2  4  1 -1</clus>
<clus scale="   88.189">  1  3  2 -1</clus>
<clus scale="   88.189">  1  3  2 -1</clus>
</clustering>
</event>
<event>
 6    0  0.3667994E+002  0.2237298E+03  0.7546771E-02  0.1131132E+00
          1   -1    0    0  504    0 -0.00000000000E+00  0.00000000000E+00  0.30348356606E+04  0.30348356606E+04  0.00000000000E+00 0. -1.
         21   -1    0    0  505  502  0.00000000000E+00 -0.00000000000E+00 -0.48835103646E+03  0.48835103646E+03  0.00000000000E+00 0.  1.
         21    1    1    2  503  501  0.46061117593E+02 -0.77364607055E+02  0.37665841334E+03  0.38727053763E+03  0.00000000000E+00 0. -1.
         21    1    1    2  504  502 -0.63915626319E+02  0.20272379543E+03  0.17503448911E+04  0.17632042939E+04  0.00000000000E+00 0. -1.
         21    1    1    2  505  503 -0.61427034233E+02 -0.13466202140E+01 -0.46855188387E+03  0.47256318287E+03  0.00000000000E+00 0.  1.
          1    1    1    2  501    0  0.79281542958E+02 -0.12401256816E+03  0.88803320361E+03  0.90014868262E+03  0.00000000000E+00 0. -1.
<scales pt_clust_3="32.62324" pt_clust_4="219.80723" pt_clust_5="61.44179" pt_clust_6="32.62324"></scales>
<clustering>
<clus scale="   32.623">  3  6 -1 -1</clus>
<clus scale="   61.442">  2  5  1 -1</clus>
<clus scale="  219.807">  1  4  2 -1</clus>
<clus scale="   61.442">  2  3  1 -1</clus>
</clustering>
</event>
<event>
 6    0  0.3667994E+002  0.8570526E+02  0.7546771E-02  0.1313598E+00
         21   -1    0    0  504  502  0.00000000000E+00  0.00000000000E+00  0.14924651340E+04  0.14924651340E+04  0.00000000000E+00 0.  1.
          2   -1    0    0  503    0 -0.00000000000E+00 -0.00000000000E+00 -0.43735604933E+02  0.43735604933E+02  0.00000000000E+00 0. -1.
         21    1    1    2  503  505 -0.11519188891E+02  0.34850719518E+02 -0.17298512432E+02  0.40577122815E+02  0.00000000000E+00 0. -1.
         21    1    1    2  504  501 -0.59092413286E+02 -0.65372023671E+02  0.85665242399E+03  0.86117291545E+03  0.00000000000E+00 0.  1.
         21    1    1    2  505  502  0.55543270138E+02 -0.55303890144E+02  0.40101166251E+03  0.40859996157E+03  0.00000000000E+00 0.  1.
          2    1    1    2  501    0  0.15068332039E+02  0.85825194297E+02  0.20836395497E+03  0.22585073907E+03  0.00000000000E+00 0. -1.
<scales pt_clust_3="36.70510" pt_clust_4="14000.00000" pt_clust_5="70.11198" pt_clust_6="85.70526"></scales>
<clustering>
<clus scale="   36.705">  2  3  1 -1</clus>
<clus scale="   70.112">  2  5  1 -1</clus>
<clus scale="   85.705">  2  6  1 -1</clus>
<clus scale="   85.705">  1  3  2 -1</clus>
</clustering>
</event>
<event>
 6    0  0.3667994E+002  0.1532480E+03  0.7546771E-02  0.1196538E+00
          2   -1    0    0  503    0 -0.00000000000E+00  0.00000000000E+00  0.67526885689E+03  0.67526885689E+03  0.00000000000E+00 0.  1.
         21   -1    0    0  501  502  0.00000000000E+00 -0.00000000000E+00 -0.49283656889E+03  0.49283656889E+03  0.00000000000E+00 0. -1.
         21    1    1    2  503  505 -0.49361220269E+02  0.26060206604E+02  0.60533766527E+02  0.82340763445E+02  0.00000000000E+00 0. -1.
         21    1    1    2  504  502  0.16202079305E+02 -0.15343099507E+03 -0.44380168225E+03  0.46985477628E+03  0.00000000000E+00 0. -1.
         21    1    1    2  505  504 -0.43911271719E+02  0.10479621840E+02  0.14819196563E+02  0.47514532984E+02  0.00000000000E+00 0. -1.
          2    1    1    2  501    0  0.77070412684E+02  0.11689116663E+03  0.55088100716E+03  0.56839535308E+03  0.00000000000E+00 0.  1.
<scales pt_clust_3="105.75599" pt_clust_4="153.24804" pt_clust_5="30.48965" pt_clust_6="14000.00000"></scales>
<clustering>
<clus scale="   30.490">  3  5 -1 -1</clus>
<clus scale="  105.756">  1  3  2 -1</clus>
<clus scale="  153.248">  2  4  1 -1</clus>
<clus scale="  153.248">  2  3  1 -1</clus>
</clustering>
</event>
<event>
 6    0  0.3667994E+002  0.9148532E+02  0.7546771E-02  0.1299294E+00
         -1   -1    0    0    0  501 -0.00000000000E+00  0.00000000000E+00  0.26175969747E+03  0.26175969747E+03  0.00000000000E+00 0. -1.
         21   -1    0    0  504  502  0.00000000000E+00 -0.00000000000E+00 -0.42856429425E+03  0.42856429425E+03  0.00000000000E+00 0.  1.
         21    1    1    2  503  501  0.86867505508E+02 -0.43475703655E+02  0.82611163040E+02  0.12751746775E+03  0.00000000000E+00 0. -1.
         21    1    1    2  504  503  0.22258965096E+02 -0.25170328420E+02 -0.10217151101E+02  0.35119754221E+02  0.00000000000E+00 0. -1.
         21    1    1    2  505  502 -0.17786419878E+02  0.66350646768E+02 -0.36544533378E+03  0.37184547468E+03  0.00000000000E+00 0.  1.
         -1    1    1    2    0  505 -0.91340050726E+02  0.22953853066E+01  0.12624672507E+03  0.15584129508E+03  0.00000000000E+00 0. -1.
<scales pt_clust_3="91.48532" pt_clust_4="33.60070" pt_clust_5="43.55811" pt_clust_6="14000.00000"></scales>
<clustering>
<clus scale="   33.601">  2  4  1 -1</clus>
<clus scale="   43.558">  2  5  1 -1</clus>
<clus scale="   91.485">  2  3  1 -1</clus>
<clus scale="   33.601">  2  3  1 -1</clus>
</clustering>
</event>
<event>
 6    0  0.3667994E+002  0.1474264E+03  0.7546771E-02  0.1203672E+00
          2   -1    0    0  503    0 -0.00000000000E+00  0.00000000000E+00  0.26431352267E+04  0.26431352267E+04  0.00000000000E+00 0.  1.
         21   -1    0    0  504  502  0.00000000000E+00 -0.00000000000E+00 -0.10299813913E+03  0.10299813913E+03  0.00000000000E+00 0. -1.
         21    1    1    2  503  502 -0.15411462193E+02  0.11451803709E+03  0.11655286608E+04  0.11712424826E+04  0.00000000000E+00 0. -1.
         21    1    1    2  504  505 -0.67049656476E+02  0.25078267710E+02 -0.81263162439E+02  0.10829717224E+03  0.00000000000E+00 0. -1.
         21    1    1    2  505  501  0.52289113913E+02 -0.80479916033E+02  0.55139946907E+03  0.55968968439E+03  0.00000000000E+00 0.  1.
          2    1    1    2  501    0  0.30172004755E+02 -0.59116388771E+02  0.90447212022E+03  0.90690402665E+03  0.00000000000E+00 0.  1.
<scales pt_clust_3="129.17615" pt_clust_4="71.58614" pt_clust_5="59.08437" pt_clust_6="59.08437"></scales>
<clustering>
<clus scale="   59.084">  5  6 -1 -1</clus>
<clus scale="   71.586">  2  4  1 -1</clus>
<clus scale="  129.176">  1  3  2 -1</clus>
<clus scale="   71.586">  2  3  1 -1</clus>
</clustering>
</event>
<event>
 6    0  0.3667994E+002  0.1064313E+03  0.7546771E-02  0.1267325E+00
         21   -1    0    0  501  502  0.00000000000E+00  0.00000000000E+00  0.30858365478E+02  0.30858365478E+02  0.00000000000E+00 0. -1.
          1   -1    0    0  504    0 -0.00000000000E+00 -0.00000000000E+00 -0.15528115284E+04  0.15528115284E+04  0.00000000000E+00 0. -1.
         21    1    1    2  503  505  0.14627579538E+03 -0.18119446389E+02 -0.90171600884E+03  0.91368303216E+03  0.00000000000E+00 0. -1.
         21    1    1    2  504  503 -0.54840097570E+02  0.22522102459E+02 -0.29443065249E+03  0.30033995826E+03  0.00000000000E+00 0. -1.
         21    1    1    2  505  502  0.59320899262E+00  0.61444937560E+02 -0.11364224526E+03  0.12919130062E+03  0.00000000000E+00 0. -1.
          1    1    1    2  501    0 -0.92028906801E+02 -0.65847593630E+02 -0.21216425634E+03  0.24045560285E+03  0.00000000000E+00 0. -1.
<scales pt_clust_3="14000.00000" pt_clust_4="59.28475" pt_clust_5="63.79727" pt_clust_6="106.43133"></scales>
<clustering>
<clus scale="   59.285">  2  4  1 -1</clus>
<clus scale="   63.797">  1  5  2 -1</clus>
<clus scale="  106.431">  1  6  2 -1</clus>
<clus scale="   63.797">  1  3  2 -1</clus>
</clustering>
</event>
<event>
 6    0  0.3667994E+002  0.6406462E+02  0.7546771E-02  0.1381525E+00
          1   -1    0    0  503    0 -0.00000000000E+00  0.00000000000E+00  0.35383602962E+03  0.35383602962E+03  0.00000000000E+00 0. -1.
         21   -1    0    0  505  502  0.00000000000E+00 -0.00000000000E+00 -0.98925000921E+02  0.98925000921E+02  0.00000000000E+00 0. -1.
         21    1    1    2  503  504 -0.52500675189E+02 -0.38865494964E+02  0.53984388478E+02  0.84741735841E+02  0.00000000000E+00 0. -1.
         21    1    1    2  504  502 -0.10335663057E+02 -0.63957293384E+02 -0.28746689640E+02  0.70878300438E+02  0.00000000000E+00 0. -1.
         21    1    1    2  505  501  0.47001789392E+02  0.51909275927E+02  0.95772187738E+01  0.70678598265E+02  0.00000000000E+00 0. -1.
          1    1    1    2  501    0  0.15834548854E+02  0.50913512421E+02  0.22009611108E+03  0.22646239599E+03  0.00000000000E+00 0. -1.
<scales pt_clust_3="45.64389" pt_clust_4="64.06462" pt_clust_5="14000.00000" pt_clust_6="53.31903"></scales>
<clustering>
<clus scale="   53.319">  1  6  2 -1</clus>
<clus scale="   45.644">  1  3  2 -1</clus>
<clus scale="   64.065">  2  4  1 -1</clus>
<clus scale="   64.065">  2  3  1 -1</clus>
</clustering>
</event>
<event>
 6    0  0.3667994E+002  0.2552693E+03  0.7546771E-02  0.1110019E+00
          2   -1    0    0  504    0 -0.00000000000E+00  0.00000000000E+00  0.84748694063E+03  0.84748694063E+03  0.00000000000E+00 0.  1.
         21   -1    0    0  503  502  0.00000000000E+00 -0.00000000000E+00 -0.69385273385E+03  0.69385273385E+03  0.00000000000E+00 0.  1.
         21    1    1    2  503  505  0.67146838423E+02  0.99740535923E+02 -0.56092734907E+03  0.57366921074E+03  0.00000000000E+00 0.  1.
         21    1    1    2  504  502 -0.14773746364E+02  0.16421570826E+03 -0.35287067650E+02  0.16861269100E+03  0.00000000000E+00 0. -1.
         21    1    1    2  505  501 -0.52309949941E+02 -0.17351596847E+03  0.56342246469E+03  0.59185217402E+03  0.00000000000E+00 0.  1.
          2    1    1    2  501    0 -0.63142117940E-01 -0.90440275718E+02  0.18642615881E+03  0.20720559873E+03  0.00000000000E+00 0.  1.
<scales pt_clust_3="120.23673" pt_clust_4="247.70524" pt_clust_5="43.57294" pt_clust_6="43.57294"></scales>
<clustering>
<clus scale="   43.573">  5  6 -1 -1</clus>
<clus scale="  120.237">  2  3  1 -1</clus>
<clus scale="  247.705">  2  4  1 -1</clus>
<clus scale="  120.237">  2  3  1 -1</clus>
</clustering>
</event>
<event>
 6    0  0.3667994E+002  0.1222638E+03  0.7546771E-02  0.1239408E+00
          1   -1    0    0  505    0 -0.00000000000E+00  0.00000000000E+00  0.99252844235E+03  0.99252844235E+03  0.00000000000E+00 0.  1.
         21   -1    0    0  504  502  0.00000000000E+00 -0.00000000000E+00 -0.55146814763E+02  0.55146814763E+02  0.00000000000E+00 0.  1.
         21    1    1    2  503  501  0.47683133559E+02  0.12002612818E+02  0.24411759324E+03  0.24902036718E+03  0.00000000000E+00 0.  1.
         21    1    1    2  504  503  0.20591492023E+02  0.28885816410E+02 -0.17159898461E+02  0.39406370661E+02  0.00000000000E+00 0.  1.
         21    1    1    2  505  502 -0.11626467676E+03 -0.85096890460E+02  0.21051308263E+03  0.25509745939E+03  0.00000000000E+00 0.  1.
          1    1    1    2  501    0  0.47990051180E+02  0.44208461231E+02  0.49991085018E+03  0.50415105989E+03  0.00000000000E+00 0.  1.
<scales pt_clust_3="32.19943" pt_clust_4="35.47393" pt_clust_5="116.50155" pt_clust_6="32.19943"></scales>
<clustering>
<clus scale="   32.199">  3  6 -1 -1</clus>
<clus scale="   35.474">  2  4  1 -1</clus>
<clus scale="  116.502">  2  5  1 -1</clus>
<clus scale="   35.474">  2  3  1 -1</clus>
</clustering>
</event>
<event>
 6    0  0.3667994E+002  0.1376559E+03  0.7546771E-02  0.1216518E+00
         21   -1    0    0  503  502  0.00000000000E+00  0.00000000000E+00  0.20129440957E+03  0.20129440957E+03  0.00000000000E+00 0. -1.
          2   -1    0    0  505    0 -0.00000000000E+00 -0.00000000000E+00 -0.13360811897E+04  0.13360811897E+04  0.00000000000E+00 0. -1.
         21    1    1    2  503  501 -0.63588139706E+02  0.12473456479E+03  0.16614322235E+03  0.21726880470E+03  0.00000000000E+00 0. -1.
         21    1    1    2  504  502 -0.64838323360E+00 -0.70814028205E+02 -0.40279404855E+03  0.40897199481E+03  0.00000000000E+00 0. -1.
         21    1    1    2  505  504 -0.39385840684E+02 -0.20623802942E+02 -0.24925858214E+03  0.25319246921E+03  0.00000000000E+00 0. -1.
          2    1    1    2  501    0  0.10362236362E+03 -0.33296733642E+02 -0.64887737177E+03  0.65794233054E+03  0.00000000000E+00 0. -1.
<scales pt_clust_3="14000.00000" pt_clust_4="80.02280" pt_clust_5="44.45881" pt_clust_6="137.65595"></scales>
<clustering>
<clus scale="   44.459">  2  5  1 -1</clus>
<clus scale="   80.023">  2  4  1 -1</clus>
<clus scale="  137.656">  2  6  1 -1</clus>
<clus scale="  137.656">  1  3  2 -1</clus>
</clustering>
</event>
<event>
 6    0  0.3667994E+002  0.1026245E+03  0.7546771E-02  0.1274872E+00
          2   -1    0    0  503    0 -0.00000000000E+00  0.00000000000E+00  0.18527672060E+04  0.18527672060E+04  0.00000000000E+00 0. -1.
         21   -1    0    0  504  502  0.00000000000E+00 -0.00000000000E+00 -0.11745052931E+03  0.11745052931E+03  0.00000000000E+00 0.  1.
         21    1    1    2  503  502  0.26535582056E+02  0.15515288256E+02  0.34473522997E+03  0.34610293276E+03  0.00000000000E+00 0. -1.
         21    1    1    2  504  505 -0.12389575934E+02 -0.44440569244E+02 -0.10304163136E+03  0.11289837723E+03  0.00000000000E+00 0.  1.
         21    1    1    2  505  501  0.73199616074E+02 -0.47914749633E+02  0.31683213570E+03  0.32868922896E+03  0.00000000000E+00 0. -1.
          2    1    1    2  501    0 -0.87345622197E+02  0.76840030621E+02  0.11767909424E+04  0.11825271964E+04  0.00000000000E+00 0. -1.
<scales pt_clust_3="30.73860" pt_clust_4="46.06319" pt_clust_5="14000.00000" pt_clust_6="102.62450"></scales>
<clustering>
<clus scale="   30.739">  1  3  2 -1</clus>
<clus scale="   46.063">  2  4  1 -1</clus>
<clus scale="  102.624">  1  6  2 -1</clus>
<clus scale="   46.063">  2  3  1 -1</clus>
</clustering>
</event>
<event>
 6    0  0.3667994E+002  0.1363409E+03  0.7546771E-02  0.1218339E+00
         21   -1    0    0  501  502  0.00000000000E+00  0.00000000000E+00  0.10725548337E+04  0.10725548337E+04  0.00000000000E+00 0. -1.
          1   -1    0    0  504    0 -0.00000000000E+00 -0.00000000000E+00 -0.54267931937E+02  0.54267931937E+02  0.00000000000E+00 0. -1.
         21    1    1    2  503  502  0.40044562352E+02 -0.17234418923E+02  0.10398690839E+03  0.11275579491E+03  0.00000000000E+00 0.  1.
         21    1    1    2  504  505 -0.64186320557E+02  0.39995907392E+01  0.32994235362E+02  0.72280703095E+02  0.00000000000E+00 0.  1.
         21    1    1    2  505  503  0.82024827681E+02  0.10998731671E+03  0.77424420182E+03  0.78630742477E+03  0.00000000000E+00 0. -1.
          1    1    1    2  501    0 -0.57883069475E+02 -0.96752488530E+02  0.10706155624E+03  0.15547884291E+03  0.00000000000E+00 0. -1.
<scales pt_clust_3="43.59578" pt_clust_4="62.07558" pt_clust_5="14000.00000" pt_clust_6="136.34091"></scales>
<clustering>
<clus scale="   43.596">  1  3  2 -1</clus>
<clus scale="   62.076">  2  4  1 -1</clus>
<clus scale="  136.341">  2  6  1 -1</clus>
<clus scale="   43.596">  1  3  2 -1</clus>
</clustering>
</event>
<event>
 6    0  0.3667994E+002  0.1081561E+03  0.7546771E-02  0.1264023E+00
         21   -1    0    0  505  502  0.00000000000E+00  0.00000000000E+00  0.14773014823E+03  0.14773014823E+03  0.00000000000E+00 0.  1.
          1   -1    0    0  504    0 -0.00000000000E+00 -0.00000000000E+00 -0.30627376750E+03  0.30627376750E+03  0.00000000000E+00 0.  1.
         21    1    1    2  503  501 -0.34525925796E+02 -0.31149710497E+02 -0.31208229036E+02  0.56002656862E+02  0.00000000000E+00 0.  1.
         21    1    1    2  504  502  0.88377898053E+01  0.49502173947E+02 -0.46679602194E+02  0.68611639065E+02  0.00000000000E+00 0.  1.
         21    1    1    2  505  503  0.76520217555E+02  0.45201592985E+02  0.98468651364E+02  0.13264464936E+03  0.00000000000E+00 0.  1.
          1    1    1    2  501    0 -0.50832081565E+02 -0.63554056435E+02 -0.17912443940E+03  0.19674497044E+03  0.00000000000E+00 0.  1.
<scales pt_clust_3="43.99041" pt_clust_4="50.28491" pt_clust_5="91.16471" pt_clust_6="43.99041"></scales>
<clustering>
<clus scale="   43.990">  3  6 -1 -1</clus>
<clus scale="   50.285">  2  4  1 -1</clus>
<clus scale="   91.165">  1  5  2 -1</clus>
<clus scale="   91.165">  1  3  2 -1</clus>
</clustering>
</event>
<event>
 6    0  0.3667994E+002  0.2001958E+03  0.7546771E-02  0.1149574E+00
         21   -1    0    0  505  502  0.00000000000E+00  0.00000000000E+00  0.44516875391E+03  0.44516875391E+03  0.00000000000E+00 0. -1.
          1   -1    0    0  503    0 -0.00000000000E+00 -0.00000000000E+00 -0.18047381718E+04  0.18047381718E+04  0.00000000000E+00 0.  1.
         21    1    1    2  503  502 -0.36085787627E+02  0.24284511149E+02 -0.22344410956E+03  0.22763829126E+03  0.00000000000E+00 0. -1.
         21    1    1    2  504  501  0.87347395646E+02 -0.15338394025E+03 -0.15924499496E+03  0.23772919272E+03  0.00000000000E+00 0. -1.
         21    1    1    2  505  504 -0.87550767790E+02 -0.62871425393E+02  0.38956321308E+03  0.40419976503E+03  0.00000000000E+00 0. -1.
          1    1    1    2  501    0  0.36289159770E+02  0.19197085450E+03 -0.13664435265E+04  0.13803396767E+04  0.00000000000E+00 0.  1.
<scales pt_clust_3="43.49622" pt_clust_4="200.19576" pt_clust_5="107.85696" pt_clust_6="14000.00000"></scales>
<clustering>
<clus scale="   43.496">  2  3  1 -1</clus>
<clus scale="  107.857">  1  5  2 -1</clus>
<clus scale="  200.196">  1  4  2 -1</clus>
<clus scale="  107.857">  1  3  2 -1</clus>
</clustering>
</event>
<event>
 6    0  0.3667994E+002  0.1169997E+03  0.7546771E-02  0.1248130E+00
          1   -1    0    0  504    0 -0.00000000000E+00  0.00000000000E+00  0.17701547196E+04  0.17701547196E+04  0.00000000000E+00 0.  1.
         21   -1    0    0  503  502  0.00000000000E+00 -0.00000000000E+00 -0.29308443478E+02  0.29308443478E+02  0.00000000000E+00 0.  1.
         21    1    1    2  503  505  0.69563704376E+02 -0.65859087547E+02  0.79499872841E+02  0.12448597576E+03  0.00000000000E+00 0.  1.
         21    1    1    2  504  502  0.44288817674E+02 -0.16471801300E+02  0.69209941035E+03  0.69371061216E+03  0.00000000000E+00 0.  1.
         21    1    1    2  505  501 -0.31810147270E+02 -0.40479043529E+01  0.14883306329E+03  0.15224832258E+03  0.00000000000E+00 0.  1.
          1    1    1    2  501    0 -0.82042374780E+02  0.86378793201E+02  0.82041392960E+03  0.82901825255E+03  0.00000000000E+00 0.  1.
<scales pt_clust_3="99.92675" pt_clust_4="47.25272" pt_clust_5="31.57369" pt_clust_6="31.57369"></scales>
<clustering>
<clus scale="   31.574">  5  6 -1 -1</clus>
<clus scale="   47.253">  1  4  2 -1</clus>
<clus scale="   99.927">  2  3  1 -1</clus>
<clus scale="   99.927">  2  3  1 -1</clus>
</clustering>
</event>
<event>
 6    0  0.3667994E+002  0.9229681E+02  0.7546771E-02  0.1297383E+00
         21   -1    0    0  503  502  0.00000000000E+00  0.00000000000E+00  0.67502256467E+03  0.67502256467E+03  0.00000000000E+00 0.  1.
          1   -1    0    0  504    0 -0.00000000000E+00 -0.00000000000E+00 -0.31786844729E+03  0.31786844729E+03  0.00000000000E+00 0. -1.
         21    1    1    2  503  501 -0.17166981464E+02 -0.64748316079E+02 -0.17287930839E+02  0.69180360222E+02  0.00000000000E+00 0.  1.
         21    1    1    2  504  505  0.13269810596E+00  0.34732983420E+02 -0.64561594159E+02  0.73311644275E+02  0.00000000000E+00 0. -1.
         21    1    1    2  505  502  0.37279466317E+02  0.86714598520E+02  0.63674124273E+03  0.64369914588E+03  0.00000000000E+00 0.  1.
          1    1    1    2  501    0 -0.20245182959E+02 -0.56699265860E+02 -0.19773760036E+03  0.20669986158E+03  0.00000000000E+00 0. -1.
<scales pt_clust_3="14000.00000" pt_clust_4="34.73324" pt_clust_5="92.29681" pt_clust_6="34.88347"></scales>
<clustering>
<clus scale="   34.733">  2  4  1 -1</clus>
<clus scale="   34.883">  2  6  1 -1</clus>
<clus scale="   92.297">  1  5  2 -1</clus>
<clus scale="   92.297">  1  3  2 -1</clus>
</clustering>
</event>
<event>
 6    0  0.3667994E+002  0.1088741E+03  0.7546771E-02  0.1262669E+00
         -2   -1    0    0    0  501 -0.00000000000E+00  0.00000000000E+00  0.14470351861E+04  0.14470351861E+04  0.00000000000E+00 0.  1.
         21   -1    0    0  504  502  0.00000000000E+00 -0.00000000000E+00 -0.11397246751E+03  0.11397246751E+03  0.00000000000E+00 0.  1.
         21    1    1    2  503  505  0.27039329760E+02 -0.81108624618E+02  0.17534894589E+03  0.19508200113E+03  0.00000000000E+00 0. -1.
         21    1    1    2  504  501 -0.92484746069E+02  0.34119358117E+02  0.30383813485E+03  0.31942944611E+03  0.00000000000E+00 0. -1.
         21    1    1    2  505  502 -0.49820328620E+02  0.32680098561E+01 -0.85530051822E+02  0.99036027772E+02  0.00000000000E+00 0.  1.
         -2    1    1    2    0  503  0.11526574493E+03  0.43721256644E+02  0.93940568963E+03  0.94746017856E+03  0.00000000000E+00 0.  1.
<scales pt_clust_3="79.74217" pt_clust_4="14000.00000" pt_clust_5="49.92740" pt_clust_6="108.87407"></scales>
<clustering>
<clus scale="   49.927">  2  5  1 -1</clus>
<clus scale="   79.742">  2  3  1 -1</clus>
<clus scale="  108.874">  1  6  2 -1</clus>
<clus scale="   49.927">  2  3  1 -1</clus>
</clustering>
</event>
<event>
 6    0  0.3667994E+002  0.2284048E+03  0.7546771E-02  0.1127768E+00
         21   -1    0    0  505  502  0.00000000000E+00  0.00000000000E+00  0.38365335909E+03  0.38365335909E+03  0.00000000000E+00 0. -1.
          1   -1    0    0  503    0 -0.00000000000E+00 -0.00000000000E+00 -0.11184940075E+04  0.11184940075E+04  0.00000000000E+00 0.  1.
         21    1    1    2  503  504 -0.74557687973E+02  0.55420352525E+02 -0.83977962193E+02  0.12523003811E+03  0.00000000000E+00 0. -1.
         21    1    1    2  504  502 -0.64191303196E+02  0.96930163994E+01  0.14553541306E+03  0.15935819536E+03  0.00000000000E+00 0. -1.
         21    1    1    2  505  501  0.23981050100E+03 -0.15784019290E+03  0.10507056303E+03  0.30571625096E+03  0.00000000000E+00 0. -1.
          1    1    1    2  501    0 -0.10106150983E+03  0.92726823979E+02 -0.90146866227E+03  0.91184288214E+03  0.00000000000E+00 0.  1.
<scales pt_clust_3="98.04879" pt_clust_4="64.91901" pt_clust_5="228.40476" pt_clust_6="14000.00000"></scales>
<clustering>
<clus scale="   64.919">  1  4  2 -1</clus>
<clus scale="   98.049">  2  3  1 -1</clus>
<clus scale="  228.405">  1  5  2 -1</clus>
<clus scale="   64.919">  1  3  2 -1</clus>
</clustering>
</event>
<event>
 6    0  0.3667994E+002  0.1134058E+03  0.7546771E-02  0.1254390E+00
          1   -1    0    0  504    0 -0.00000000000E+00  0.00000000000E+00  0.96806896221E+03  0.96806896221E+03  0.00000000000E+00 0.  1.
         21   -1    0    0  505  502  0.00000000000E+00 -0.00000000000E+00 -0.18894449632E+03  0.18894449632E+03  0.00000000000E+00 0.  1.
         21    1    1    2  503  501 -0.49138641020E+02  0.16352952746E+02  0.11957603963E+03  0.13030907244E+03  0.00000000000E+00 0.  1.
         21    1    1    2  504  502 -0.76550751358E+02 -0.85583174585E+02  0.11506281848E+03  0.16255445089E+03  0.00000000000E+00 0.  1.
         21    1    1    2  505  503  0.29741579003E+02  0.79962812402E+01 -0.15369590214E+03  0.15675117980E+03  0.00000000000E+00 0.  1.
          1    1    1    2  501    0  0.95947813376E+02  0.61233940599E+02  0.69818150991E+03  0.70739875541E+03  0.00000000000E+00 0.  1.
<scales pt_clust_3="47.77552" pt_clust_4="14000.00000" pt_clust_5="30.79776" pt_clust_6="113.40577"></scales>
<clustering>
<clus scale="   30.798">  2  5  1 -1</clus>
<clus scale="   47.776">  2  3  1 -1</clus>
<clus scale="  113.406">  1  6  2 -1</clus>
<clus scale="   30.798">  2  3  1 -1</clus>
</clustering>
</event>
<event>
 6    0  0.3667994E+002  0.1921226E+03  0.7546771E-02  0.1156561E+00
         21   -1    0    0  505  502  0.00000000000E+00  0.00000000000E+00  0.32219678611E+03  0.32219678611E+03  0.00000000000E+00 0.  1.
          2   -1    0    0  504    0 -0.00000000000E+00 -0.00000000000E+00 -0.12061385759E+04  0.12061385759E+04  0.00000000000E+00 0.  1.
         21    1    1    2  503  501  0.12855859379E+03  0.22668246160E+02 -0.14472998208E+02  0.13134165028E+03  0.00000000000E+00 0.  1.
         21    1    1    2  504  502  0.49359498402E+02  0.46848229142E+02 -0.11027469645E+03  0.12958250396E+03  0.00000000000E+00 0.  1.
         21    1    1    2  505  503  0.69238336054E+02  0.35349595146E+02  0.22981503431E+03  0.24260768959E+03  0.00000000000E+00 0.  1.
          2    1    1    2  501    0 -0.24715642825E+03 -0.10486607045E+03 -0.98900912940E+03  0.10248035181E+04  0.00000000000E+00 0.  1.
<scales pt_clust_3="192.12264" pt_clust_4="68.05231" pt_clust_5="78.12462" pt_clust_6="14000.00000"></scales>
<clustering>
<clus scale="   68.052">  2  4  1 -1</clus>
<clus scale="   78.125">  1  5  2 -1</clus>
<clus scale="  192.123">  1  3  2 -1</clus>
<clus scale="   78.125">  1  3  2 -1</clus>
</clustering>
</event>
<event>
 6    0  0.3667994E+002  0.1264234E+03  0.7546771E-02  0.1232861E+00
         -2   -1    0    0    0  501 -0.00000000000E+00  0.00000000000E+00  0.84755899221E+03  0.84755899221E+03  0.00000000000E+00 0.  1.
         21   -1    0    0  504  502  0.00000000000E+00 -0.00000000000E+00 -0.56958858373E+02  0.56958858373E+02  0.00000000000E+00 0.  1.
         21    1    1    2  503  502  0.11591285699E+02 -0.35947975931E+02 -0.81374496993E+01  0.38637196654E+02  0.00000000000E+00 0.  1.
         21    1    1    2  504  505  0.46155829354E+02 -0.86983623730E+02  0.14313144338E+03  0.17373290266E+03  0.00000000000E+00 0.  1.
         21    1    1    2  505  501  0.55649070661E+02  0.18487907672E+01  0.14838215895E+03  0.15848502196E+03  0.00000000000E+00 0.  1.
         -2    1    1    2    0  503 -0.11339618571E+03  0.12108280889E+03  0.50722398121E+03  0.53366272932E+03  0.00000000000E+00 0.  1.
<scales pt_clust_3="37.77056" pt_clust_4="126.42338" pt_clust_5="57.50350" pt_clust_6="14000.00000"></scales>
<clustering>
<clus scale="   37.771">  2  3  1 -1</clus>
<clus scale="   57.504">  1  5  2 -1</clus>
<clus scale="  126.423">  2  4  1 -1</clus>
<clus scale="   37.771">  2  3  1 -1</clus>
</clustering>
</event>
<event>
 6    0  0.3667994E+002  0.1011003E+03  0.7546771E-02  0.1277999E+00
         21   -1    0    0  504  502  0.00000000000E+00  0.00000000000E+00  0.40196067426E+03  0.40196067426E+03  0.00000000000E+00 0.  1.
          1   -1    0    0  505    0 -0.00000000000E+00 -0.00000000000E+00 -0.77704231102E+03  0.77704231102E+03  0.00000000000E+00 0. -1.
         21    1    1    2  503  502  0.54066629822E+02  0.40294544778E+02 -0.17736262111E+03  0.18974812296E+03  0.00000000000E+00 0. -1.
         21    1    1    2  504  501 -0.83446184202E+02  0.58695499364E+02  0.38233449694E+03  0.39571213635E+03  0.00000000000E+00 0.  1.
         21    1    1    2  505  503 -0.93973122668E+01 -0.35748999307E+02 -0.34710539902E+03  0.34906798544E+03  0.00000000000E+00 0. -1.
          1    1    1    2  501    0  0.38776866646E+02 -0.63241044834E+02 -0.23294811358E+03  0.24447474053E+03  0.00000000000E+00 0. -1.
<scales pt_clust_3="55.94102" pt_clust_4="14000.00000" pt_clust_5="36.96350" pt_clust_6="101.10030"></scales>
<clustering>
<clus scale="   36.964">  2  5  1 -1</clus>
<clus scale="   55.941">  2  3  1 -1</clus>
<clus scale="  101.100">  2  6  1 -1</clus>
<clus scale="  101.100">  1  3  2 -1</clus>
</clustering>
</event>
<event>
 6    0  0.3667994E+002  0.6895610E+02  0.7546771E-02  0.1363679E+00
         21   -1    0    0  504  502  0.00000000000E+00  0.00000000000E+00  0.85644976281E+02  0.85644976281E+02  0.00000000000E+00 0.  1.
          3   -1    0    0  503    0 -0.00000000000E+00 -0.00000000000E+00 -0.88493212296E+03  0.88493212296E+03  0.00000000000E+00 0.  1.
         21    1    1    2  503  502 -0.50473319413E+02 -0.28701766984E+02 -0.39548906876E+03  0.39972859656E+03  0.00000000000E+00 0.  1.
         21    1    1    2  504  505 -0.51108350151E+02  0.53654399596E+01 -0.50933743677E+02  0.72353974639E+02  0.00000000000E+00 0.  1.
         21    1    1    2  505  501  0.25412722400E+02 -0.50300920610E+02  0.54007063224E+02  0.78056082096E+02  0.00000000000E+00 0.  1.
          3    1    1    2  501    0  0.76168947164E+02  0.73637247635E+02 -0.40687139746E+03  0.42043844594E+03  0.00000000000E+00 0.  1.
<scales pt_clust_3="68.95610" pt_clust_4="51.38921" pt_clust_5="49.61822" pt_clust_6="14000.00000"></scales>
<clustering>
<clus scale="   51.389">  1  4  2 -1</clus>
<clus scale="   49.618">  1  5  2 -1</clus>
<clus scale="   68.956">  2  3  1 -1</clus>
<clus scale="   51.389">  1  3  2 -1</clus>
</clustering>
</event>
<event>
 6    0  0.3667994E+002  0.2176329E+03  0.7546771E-02  0.1135660E+00
         21   -1    0    0  501  502  0.00000000000E+00  0.00000000000E+00  0.48150748766E+03  0.48150748766E+03  0.00000000000E+00 0.  1.
          2   -1    0    0  505    0 -0.00000000000E+00 -0.00000000000E+00 -0.84236802738E+03  0.84236802738E+03  0.00000000000E+00 0. -1.
         21    1    1    2  503  502 -0.20936578877E+03  0.58089729900E+02  0.41923088747E+03  0.47218956706E+03  0.00000000000E+00 0.  1.
         21    1    1    2  504  503  0.36895166170E+02  0.47366041086E+02 -0.69374781776E+02  0.91747781888E+02  0.00000000000E+00 0. -1.
         21    1    1    2  505  504 -0.32440864498E+02  0.35770033213E+01 -0.50704774491E+02  0.60300736300E+02  0.00000000000E+00 0. -1.
          2    1    1    2  501    0  0.20491148710E+03 -0.10903277431E+03 -0.66001187091E+03  0.69963742979E+03  0.00000000000E+00 0. -1.
<scales pt_clust_3="217.63292" pt_clust_4="58.35725" pt_clust_5="32.63747" pt_clust_6="14000.00000"></scales>
<clustering>
<clus scale="   32.637">  2  5  1 -1</clus>
<clus scale="   58.357">  2  4  1 -1</clus>
<clus scale="  217.633">  1  3  2 -1</clus>
<clus scale="  217.633">  1  3  2 -1</clus>
</clustering>
</event>
<event>
 6    0  0.3667994E+002  0.1234987E+03  0.7546771E-02  0.1237434E+00
          2   -1    0    0  505    0 -0.00000000000E+00  0.00000000000E+00  0.22856288348E+04  0.22856288348E+04  0.00000000000E+00 0. -1.
         21   -1    0    0  501  502  0.00000000000E+00 -0.00000000000E+00 -0.43703485265E+03  0.43703485265E+03  0.00000000000E+00 0. -1.
         21    1    1    2  503  504 -0.11049104226E+03  0.10015413999E+03  0.58355473883E+03  0.60230827272E+03  0.00000000000E+00 0. -1.
         21    1    1    2  504  502  0.61107259703E+02 -0.10699817788E+03 -0.41073359897E+03  0.42881790608E+03  0.00000000000E+00 0. -1.
         21    1    1    2  505  503 -0.66209721930E+02 -0.39105470091E+02  0.28429709931E+03  0.29451282781E+03  0.00000000000E+00 0. -1.
          2    1    1    2  501    0  0.11559350449E+03  0.45949507974E+02  0.13914757429E+04  0.13970246808E+04  0.00000000000E+00 0. -1.
<scales pt_clust_3="14000.00000" pt_clust_4="123.49869" pt_clust_5="76.89581" pt_clust_6="71.81021"></scales>
<clustering>
<clus scale="   76.896">  1  5  2 -1</clus>
<clus scale="   71.810">  1  6  2 -1</clus>
<clus scale="  123.499">  2  4  1 -1</clus>
<clus scale="  123.499">  2  3  1 -1</clus>
</clustering>
</event>
<event>
 6    0  0.3667994E+002  0.8305377E+02  0.7546771E-02  0.1320602E+00
          1   -1    0    0  504    0 -0.00000000000E+00  0.00000000000E+00  0.12854745586E+04  0.12854745586E+04  0.00000000000E+00 0. -1.
         21   -1    0    0  503  502  0.00000000000E+00 -0.00000000000E+00 -0.66967237124E+02  0.66967237124E+02  0.00000000000E+00 0.  1.
         21    1    1    2  503  505 -0.28676999463E+02  0.43340684072E+02 -0.41385333714E+02  0.66434411570E+02  0.00000000000E+00 0.  1.
         21    1    1    2  504  502 -0.25735994619E+02 -0.20244642784E+02  0.54536372532E+02  0.63611342617E+02  0.00000000000E+00 0. -1.
         21    1    1    2  505  501  0.67057765743E+02  0.61420380302E+02  0.31256997359E+03  0.32552910078E+03  0.00000000000E+00 0. -1.
          1    1    1    2  501    0 -0.12644771661E+02 -0.84516421589E+02  0.89278630910E+03  0.89686694079E+03  0.00000000000E+00 0. -1.
<scales pt_clust_3="57.09263" pt_clust_4="32.74427" pt_clust_5="83.05377" pt_clust_6="14000.00000"></scales>
<clustering>
<clus scale="   32.744">  2  4  1 -1</clus>
<clus scale="   57.093">  2  3  1 -1</clus>
<clus scale="   83.054">  2  5  1 -1</clus>
<clus scale="   32.744">  2  3  1 -1</clus>
</clustering>
</event>
<event>
 6    0  0.3667994E+002  0.9144493E+02  0.7546771E-02  0.1299390E+00
         21   -1    0    0  501  502  0.00000000000E+00  0.00000000000E+00  0.57404807894E+03  0.57404807894E+03  0.00000000000E+00 0.  1.
          1   -1    0    0  504    0 -0.00000000000E+00 -0.00000000000E+00 -0.48790344259E+03  0.48790344259E+03  0.00000000000E+00 0.  1.
         21    1    1    2  503  502 -0.14149112049E+01 -0.34416730132E+02  0.53873683554E+03  0.53983691172E+03  0.00000000000E+00 0.  1.
         21    1    1    2  504  505 -0.13430805188E+02 -0.68780291283E+02 -0.90596761995E+02  0.11453771554E+03  0.00000000000E+00 0.  1.
         21    1    1    2  505  503 -0.62848076108E+02  0.11550534016E+02 -0.91562535991E+02  0.11165569177E+03  0.00000000000E+00 0.  1.
          1    1    1    2  501    0  0.77693792501E+02  0.91646487399E+02 -0.27043290119E+03  0.29592120251E+03  0.00000000000E+00 0.  1.
<scales pt_clust_3="34.44580" pt_clust_4="91.44493" pt_clust_5="63.27733" pt_clust_6="14000.00000"></scales>
<clustering>
<clus scale="   34.446">  1  3  2 -1</clus>
<clus scale="   63.277">  1  5  2 -1</clus>
<clus scale="   91.445">  2  4  1 -1</clus>
<clus scale="   34.446">  1  3  2 -1</clus>
</clustering>
</event>
<event>
 6    0  0.3667994E+002  0.7326342E+02  0.7546771E-02  0.1349335E+00
         -3   -1    0    0    0  501 -0.00000000000E+00  0.00000000000E+00  0.47802693086E+03  0.47802693086E+03  0.00000000000E+00 0. -1.
         21   -1    0    0  503  502  0.00000000000E+00 -0.00000000000E+00 -0.10745367990E+04  0.10745367990E+04  0.00000000000E+00 0. -1.
         21    1    1    2  503  505  0.50712705932E+02  0.52807744855E+02 -0.10400250019E+04  0.10425988879E+04  0.00000000000E+00 0. -1.
         21    1    1    2  504  501  0.12437407178E+02 -0.32934365948E+02  0.22512899346E+03  0.22786492766E+03  0.00000000000E+00 0. -1.
         21    1    1    2  505  504  0.52786783206E+02 -0.19825215828E+02  0.39186362025E+02  0.68666255414E+02  0.00000000000E+00 0. -1.
         -3    1    1    2    0  502 -0.11593689632E+03 -0.48163078933E-01  0.17919977824E+03  0.21343365894E+03  0.00000000000E+00 0. -1.
<scales pt_clust_3="73.26342" pt_clust_4="35.20457" pt_clust_5="61.62734" pt_clust_6="14000.00000"></scales>
<clustering>
<clus scale="   35.205">  1  4  2 -1</clus>
<clus scale="   61.627">  1  5  2 -1</clus>
<clus scale="   73.263">  2  3  1 -1</clus>
<clus scale="   73.263">  2  3  1 -1</clus>
</clustering>
</event>
<event>
 6    0  0.3667994E+002  0.1002126E+03  0.7546771E-02  0.1279850E+00
         21   -1    0    0  503  502  0.00000000000E+00  0.00000000000E+00  0.30226096202E+03  0.30226096202E+03  0.00000000000E+00 0.  1.
         -4   -1    0    0    0  501 -0.00000000000E+00 -0.00000000000E+00 -0.28104187455E+03  0.28104187455E+03  0.00000000000E+00 0.  1.
         21    1    1    2  503  505 -0.46123868667E+02 -0.63367915419E+01 -0.42793124419E+02  0.63236205495E+02  0.00000000000E+00 0.  1.
         21    1    1    2  504  502  0.10450602511E+03 -0.33512725555E+02  0.24069720229E+03  0.26453686935E+03  0.00000000000E+00 0.  1.
         21    1    1    2  505  501 -0.13270509711E+02 -0.26999407659E+02 -0.17214677161E+03  0.17475578794E+03  0.00000000000E+00 0.  1.
         -4    1    1    2    0  504 -0.45111646733E+02  0.66848924756E+02 -0.45382187865E+01  0.80773973789E+02  0.00000000000E+00 0.  1.
<scales pt_clust_3="56.20612" pt_clust_4="100.21256" pt_clust_5="30.08446" pt_clust_6="14000.00000"></scales>
<clustering>
<clus scale="   30.084">  2  5  1 -1</clus>
<clus scale="   56.206">  2  3  1 -1</clus>
<clus scale="  100.213">  1  4  2 -1</clus>
<clus scale="  100.213">  1  3  2 -1</clus>
</clustering>
</event>
<event>
 6    0  0.3667994E+002  0.1139049E+03  0.7546771E-02  0.1253505E+00
         21   -1    0    0  505  502  0.00000000000E+00  0.00000000000E+00  0.18213267765E+04  0.18213267765E+04  0.00000000000E+00 0.  1.
         -3   -1    0    0    0  501 -0.00000000000E+00 -0.00000000000E+00 -0.84794086177E+02  0.84794086177E+02  0.00000000000E+00 0.  1.
         21    1    1    2  503  501 -0.87394257154E+02  0.24995383023E+02 -0.29800486390E+02  0.95658738989E+02  0.00000000000E+00 0. -1.
         21    1    1    2  504  502  0.33822837976E+02  0.65297503607E+02  0.14605465147E+04  0.14623966186E+04  0.00000000000E+00 0.  1.
         21    1    1    2  505  503  0.96323657382E+02 -0.69103080016E+02  0.21886994838E+03  0.24891270949E+03  0.00000000000E+00 0.  1.
         -3    1    1    2    0  504 -0.42752238204E+02 -0.21189806614E+02  0.86916713582E+02  0.99152795602E+02  0.00000000000E+00 0.  1.
<scales pt_clust_3="14000.00000" pt_clust_4="73.08572" pt_clust_5="113.90492" pt_clust_6="47.71542"></scales>
<clustering>
<clus scale="   47.715">  2  6  1 -1</clus>
<clus scale="   73.086">  1  4  2 -1</clus>
<clus scale="  113.905">  1  5  2 -1</clus>
<clus scale="   73.086">  1  3  2 -1</clus>
</clustering>
</event>
<event>
 6    0  0.3667994E+002  0.7295408E+02  0.7546771E-02  0.1350326E+00
          1   -1    0    0  503    0 -0.00000000000E+00  0.00000000000E+00  0.76259331227E+03  0.76259331227E+03  0.00000000000E+00 0. -1.
         21   -1    0    0  505  502  0.00000000000E+00 -0.00000000000E+00 -0.51080855380E+02  0.51080855380E+02  0.00000000000E+00 0.  1.
         21    1    1    2  503  504  0.30850620810E+02 -0.14859567772E+02  0.26826565702E+03  0.27044228644E+03  0.00000000000E+00 0. -1.
         21    1    1    2  504  502  0.90543387207E+01  0.75487822293E+02  0.35107336990E+03  0.35921150235E+03  0.00000000000E+00 0. -1.
         21    1    1    2  505  501  0.43272128525E+02 -0.20108266096E+02 -0.71855358215E+01  0.48254029858E+02  0.00000000000E+00 0.  1.
          1    1    1    2  501    0 -0.83177088056E+02 -0.40519988426E+02  0.99358965789E+02  0.13576634901E+03  0.00000000000E+00 0. -1.
<scales pt_clust_3="34.24277" pt_clust_4="72.95408" pt_clust_5="49.14147" pt_clust_6="14000.00000"></scales>
<clustering>
<clus scale="   34.243">  1  3  2 -1</clus>
<clus scale="   49.141">  2  5  1 -1</clus>
<clus scale="   72.954">  1  4  2 -1</clus>
<clus scale="   49.141">  2  3  1 -1</clus>
</clustering>
</event>
<event>
 6    0  0.3667994E+002  0.1729726E+03  0.7546771E-02  0.1174783E+00
          3   -1    0    0  504    0 -0.00000000000E+00  0.00000000000E+00  0.46074391944E+03  0.46074391944E+03  0.00000000000E+00 0.  1.
         21   -1    0    0  503  502  0.00000000000E+00 -0.00000000000E+00 -0.12378046739E+03  0.12378046739E+03  0.00000000000E+00 0.  1.
         21    1    1    2  503  505  0.38128514465E+02  0.22194093611E+01 -0.53311958847E+02  0.65581051755E+02  0.00000000000E+00 0.  1.
         21    1    1    2  504  502 -0.58660659783E+02  0.15974630175E+03  0.21936462426E+03  0.27763427797E+03  0.00000000000E+00 0.  1.
         21    1    1    2  505  501  0.20627333198E+02 -0.42700306838E+02  0.27622050404E+02  0.54879693398E+02  0.00000000000E+00 0.  1.
          3    1    1    2  501    0 -0.95187879710E-01 -0.11926540428E+03  0.14328873624E+03  0.18642936371E+03  0.00000000000E+00 0.  1.
<scales pt_clust_3="38.19305" pt_clust_4="165.99528" pt_clust_5="30.66589" pt_clust_6="30.66589"></scales>
<clustering>
<clus scale="   30.666">  5  6 -1 -1</clus>
<clus scale="   38.193">  2  3  1 -1</clus>
<clus scale="  165.995">  1  4  2 -1</clus>
<clus scale="   38.193">  2  3  1 -1</clus>
</clustering>
</event>
<event>
 6    0  0.3667994E+002  0.1147640E+03  0.7546771E-02  0.1251994E+00
          3   -1    0    0  503    0 -0.00000000000E+00  0.00000000000E+00  0.74722017011E+03  0.74722017011E+03  0.00000000000E+00 0.  1.
         21   -1    0    0  501  502  0.00000000000E+00 -0.00000000000E+00 -0.42288391780E+02  0.42288391780E+02  0.00000000000E+00 0.  1.
         21    1    1    2  503  505 -0.13217761659E+02  0.34082744602E+02  0.44999392680E+03  0.45147633034E+03  0.00000000000E+00 0.  1.
         21    1    1    2  504  502 -0.11787863646E+02  0.54389083103E+02  0.60178754463E+02  0.81967118888E+02  0.00000000000E+00 0.  1.
         21    1    1    2  505  504 -0.36295480133E+02  0.16447006838E+02  0.77784124805E+02  0.87397002143E+02  0.00000000000E+00 0.  1.
          3    1    1    2  501    0  0.61301105439E+02 -0.10491883454E+03  0.11697497227E+03  0.16866811052E+03  0.00000000000E+00 0.  1.
<scales pt_clust_3="36.55602" pt_clust_4="41.46571" pt_clust_5="41.46571" pt_clust_6="104.16379"></scales>
<clustering>
<clus scale="   36.556">  1  3  2 -1</clus>
<clus scale="   41.466">  4  5 -1 -1</clus>
<clus scale="  104.164">  1  6  2 -1</clus>
<clus scale="  114.764">  2  3  1 -1</clus>
</clustering>
</event>
<event>
 6    0  0.3667994E+002  0.1120621E+03  0.7546771E-02  0.1256798E+00
         21   -1    0    0  505  502  0.00000000000E+00  0.00000000000E+00  0.25248575299E+03  0.25248575299E+03  0.00000000000E+00 0. -1.
          2   -1    0    0  503    0 -0.00000000000E+00 -0.00000000000E+00 -0.49366732374E+03  0.49366732374E+03  0.00000000000E+00 0.  1.
         21    1    1    2  503  502 -0.23172434245E+02 -0.13959604895E+03 -0.28200407307E+03  0.31551595176E+03  0.00000000000E+00 0.  1.
         21    1    1    2  504  501  0.26339061243E+02  0.36644297048E+02 -0.11712023693E+03  0.12551374647E+03  0.00000000000E+00 0.  1.
         21    1    1    2  505  504 -0.43360388068E+02  0.79102525437E+02  0.21394278611E+03  0.23218279116E+03  0.00000000000E+00 0. -1.
          2    1    1    2  501    0  0.40193761070E+02  0.23849226463E+02 -0.56000046855E+02  0.72940587327E+02  0.00000000000E+00 0.  1.
<scales pt_clust_3="105.97404" pt_clust_4="35.80112" pt_clust_5="90.20717" pt_clust_6="35.80112"></scales>
<clustering>
<clus scale="   35.801">  4  6 -1 -1</clus>
<clus scale="   90.207">  1  5  2 -1</clus>
<clus scale="  105.974">  1  3  2 -1</clus>
<clus scale="   90.207">  1  3  2 -1</clus>
</clustering>
</event>
<event>
 6    0  0.3667994E+002  0.1310821E+03  0.7546771E-02  0.1225859E+00
         21   -1    0    0  505  502  0.00000000000E+00  0.00000000000E+00  0.50128610928E+02  0.50128610928E+02  0.00000000000E+00 0.  1.
          2   -1    0    0  504    0 -0.00000000000E+00 -0.00000000000E+00 -0.27544477588E+04  0.27544477588E+04  0.00000000000E+00 0.  1.
         21    1    1    2  503  502  0.39962117997E+01 -0.55113186320E+02  0.11759933798E+02  0.56495389706E+02  0.00000000000E+00 0.  1.
         21    1    1    2  504  503 -0.44889811209E+02 -0.41920405048E+01 -0.38617830398E+03  0.38880117132E+03  0.00000000000E+00 0.  1.
         21    1    1    2  505  501  0.11659944263E+03 -0.20738401936E+02 -0.25179661644E+03  0.27825716053E+03  0.00000000000E+00 0.  1.
          2    1    1    2  501    0 -0.75705843219E+02  0.80043628762E+02 -0.20781041612E+04  0.20810226482E+04  0.00000000000E+00 0.  1.
<scales pt_clust_3="55.26835" pt_clust_4="45.08512" pt_clust_5="14000.00000" pt_clust_6="131.08208"></scales>
<clustering>
<clus scale="   45.085">  2  4  1 -1</clus>
<clus scale="   55.268">  1  3  2 -1</clus>
<clus scale="  131.082">  2  6  1 -1</clus>
<clus scale="   55.268">  1  3  2 -1</clus>
</clustering>
</event>
<event>
 6    0  0.3667994E+002  0.7523539E+02  0.7546771E-02  0.1343144E+00
         -4   -1    0    0    0  501 -0.00000000000E+00  0.00000000000E+00  0.10001577871E+03  0.10001577871E+03  0.00000000000E+00 0.  1.
         21   -1    0    0  503  502  0.00000000000E+00 -0.00000000000E+00 -0.23152758145E+04  0.23152758145E+04  0.00000000000E+00 0. -1.
         21    1    1    2  503  504  0.64620006485E+02  0.19010974549E+02 -0.11013060644E+03  0.12909652538E+03  0.00000000000E+00 0.  1.
         21    1    1    2  504  501 -0.30422680312E+02 -0.10513353143E+03 -0.18191588665E+03  0.21230164560E+03  0.00000000000E+00 0.  1.
         21    1    1    2  505  502 -0.15321497796E+02  0.37158285187E+02 -0.19891878752E+04  0.19895939006E+04  0.00000000000E+00 0. -1.
         -4    1    1    2    0  505 -0.18875828377E+02  0.48964271695E+02  0.65974332496E+02  0.84299521635E+02  0.00000000000E+00 0.  1.
<scales pt_clust_3="14000.00000" pt_clust_4="75.23539" pt_clust_5="40.19311" pt_clust_6="53.60641"></scales>
<clustering>
<clus scale="   40.193">  2  5  1 -1</clus>
<clus scale="   53.606">  1  6  2 -1</clus>
<clus scale="   75.235">  1  4  2 -1</clus>
<clus scale="   40.193">  2  3  1 -1</clus>
</clustering>
</event>
<event>
 6    0  0.3667994E+002  0.1383640E+03  0.7546771E-02  0.1215547E+00
         -1   -1    0    0    0  501 -0.00000000000E+00  0.00000000000E+00  0.26187812185E+03  0.26187812185E+03  0.00000000000E+00 0.  1.
         21   -1    0    0  503  502  0.00000000000E+00 -0.00000000000E+00 -0.21501666857E+03  0.21501666857E+03  0.00000000000E+00 0.  1.
         21    1    1    2  503  505  0.25005829299E+02 -0.74018278335E+02 -0.12639833483E+03  0.14859520879E+03  0.00000000000E+00 0.  1.
         21    1    1    2  504  502  0.99899074934E+01  0.64205185182E+02  0.68559238113E+02  0.94458843877E+02  0.00000000000E+00 0.  1.
         21    1    1    2  505  501 -0.10005186630E+03 -0.55344113405E+02  0.39305969144E+02  0.12090618697E+03  0.00000000000E+00 0.  1.
         -1    1    1    2    0  504  0.65056129506E+02  0.65157206558E+02  0.65394580858E+02  0.11293455077E+03  0.00000000000E+00 0.  1.
<scales pt_clust_3="78.12808" pt_clust_4="43.66598" pt_clust_5="128.22928" pt_clust_6="43.66598"></scales>
<clustering>
<clus scale="   43.666">  4  6 -1 -1</clus>
<clus scale="   78.128">  2  3  1 -1</clus>
<clus scale="  128.229">  2  5  1 -1</clus>
<clus scale="   78.128">  2  3  1 -1</clus>
</clustering>
</event>
<event>
 6    0  0.3667994E+002  0.2485991E+03  0.7546771E-02  0.1114193E+00
          2   -1    0    0  504    0 -0.00000000000E+00  0.00000000000E+00  0.27276876057E+04  0.27276876057E+04  0.00000000000E+00 0. -1.
         21   -1    0    0  503  502  0.00000000000E+00 -0.00000000000E+00 -0.64522560408E+02  0.64522560408E+02  0.00000000000E+00 0. -1.
         21    1    1    2  503  505 -0.36399173403E+02  0.89991926205E+01 -0.21352341865E+02  0.43148670841E+02  0.00000000000E+00 0. -1.
         21    1    1    2  504  502  0.26113167603E+03 -0.71696480454E+02  0.70867157347E+03  0.75864717529E+03  0.00000000000E+00 0. -1.
         21    1    1    2  505  501 -0.53530129699E+02  0.73346391922E+01  0.28970591092E+03  0.29470118177E+03  0.00000000000E+00 0. -1.
          2    1    1    2  501    0 -0.17120237293E+03  0.55362648642E+02  0.16861399028E+04  0.16957131382E+04  0.00000000000E+00 0. -1.
<scales pt_clust_3="37.49514" pt_clust_4="241.77406" pt_clust_5="31.70170" pt_clust_6="31.70170"></scales>
<clustering>
<clus scale="   31.702">  5  6 -1 -1</clus>
<clus scale="   37.495">  2  3  1 -1</clus>
<clus scale="  241.774">  2  4  1 -1</clus>
<clus scale="   37.495">  2  3  1 -1</clus>
</clustering>
</event>
<event>
 6    0  0.3667994E+002  0.1252515E+03  0.7546771E-02  0.1234677E+00
          1   -1    0    0  504    0 -0.00000000000E+00  0.00000000000E+00  0.93074460570E+03  0.93074460570E+03  0.00000000000E+00 0. -1.
         21   -1    0    0  503  502  0.00000000000E+00 -0.00000000000E+00 -0.72968324432E+02  0.72968324432E+02  0.00000000000E+00 0. -1.
         21    1    1    2  503  501 -0.68022655477E+01 -0.47723977310E+02  0.17652132077E+03  0.18298531502E+03  0.00000000000E+00 0. -1.
         21    1    1    2  504  505 -0.30940575954E+02  0.10520980809E+03  0.18803074564E+03  0.21767403213E+03  0.00000000000E+00 0. -1.
         21    1    1    2  505  502  0.30177044674E+02  0.16569327705E+02 -0.46702164694E+02  0.58019727964E+02  0.00000000000E+00 0. -1.
          1    1    1    2  501    0  0.75657968268E+01 -0.74055158481E+02  0.53992637956E+03  0.54503385502E+03  0.00000000000E+00 0. -1.
<scales pt_clust_3="34.17014" pt_clust_4="117.49071" pt_clust_5="34.42669" pt_clust_6="34.17014"></scales>
<clustering>
<clus scale="   34.427">  2  5  1 -1</clus>
<clus scale="   34.170">  3  6 -1 -1</clus>
<clus scale="  117.491">  2  4  1 -1</clus>
<clus scale="   34.427">  2  3  1 -1</clus>
</clustering>
</event>
<event>
 6    0  0.3667994E+002  0.8574510E+02  0.7546771E-02  0.1313495E+00
         21   -1    0    0  501  502  0.00000000000E+00  0.00000000000E+00  0.26962997799E+02  0.26962997799E+02  0.00000000000E+00 0. -1.
          2   -1    0    0  503    0 -0.00000000000E+00 -0.00000000000E+00 -0.22865216479E+04  0.22865216479E+04  0.00000000000E+00 0.  1.
         21    1    1    2  503  505 -0.23462108183E+02  0.42912102999E+02 -0.91829359078E+03  0.91959504021E+03  0.00000000000E+00 0.  1.
         21    1    1    2  504  502 -0.43855383366E+02  0.82556908433E+01 -0.65819439793E+01  0.45108458941E+02  0.00000000000E+00 0. -1.
         21    1    1    2  505  504 -0.58305634875E+02 -0.30790243172E+02 -0.53225756320E+03  0.53632611322E+03  0.00000000000E+00 0.  1.
          2    1    1    2  501    0  0.12562312642E+03 -0.20377550671E+02 -0.80242555215E+03  0.81245503334E+03  0.00000000000E+00 0.  1.
<scales pt_clust_3="51.38034" pt_clust_4="44.62568" pt_clust_5="85.74510" pt_clust_6="14000.00000"></scales>
<clustering>
<clus scale="   44.626">  1  4  2 -1</clus>
<clus scale="   51.380">  2  3  1 -1</clus>
<clus scale="   85.745">  2  5  1 -1</clus>
<clus scale="   44.626">  1  3  2 -1</clus>
</clustering>
</event>
<event>
 6    0  0.3667994E+002  0.9267000E+02  0.7546771E-02  0.1296512E+00
         -4   -1    0    0    0  501 -0.00000000000E+00  0.00000000000E+00  0.22256066202E+03  0.22256066202E+03  0.00000000000E+00 0.  1.
         21   -1    0    0  503  502  0.00000000000E+00 -0.00000000000E+00 -0.20196806073E+03  0.20196806073E+03  0.00000000000E+00 0.  1.
         21    1    1    2  503  504 -0.72000014457E+02  0.26112484948E+02  0.19486831485E+02  0.79029112062E+02  0.00000000000E+00 0.  1.
         21    1    1    2  504  501 -0.31338044122E+02 -0.25894605140E+02  0.10224596892E+03  0.11003109445E+03  0.00000000000E+00 0. -1.
         21    1    1    2  505  502 -0.14366851625E+02 -0.37490714883E+02 -0.10451044567E+03  0.11195710510E+03  0.00000000000E+00 0.  1.
         -4    1    1    2    0  505  0.11770491020E+03  0.37272835076E+02  0.33702465459E+01  0.12351141114E+03  0.00000000000E+00 0.  1.
<scales pt_clust_3="92.67000" pt_clust_4="42.11185" pt_clust_5="40.14922" pt_clust_6="14000.00000"></scales>
<clustering>
<clus scale="   40.149">  2  5  1 -1</clus>
<clus scale="   42.112">  1  4  2 -1</clus>
<clus scale="   92.670">  1  3  2 -1</clus>
<clus scale="   40.149">  2  3  1 -1</clus>
</clustering>
</event>
<event>
 6    0  0.3667994E+002  0.3508662E+03  0.7546771E-02  0.1062260E+00
          2   -1    0    0  502    0 -0.00000000000E+00  0.00000000000E+00  0.42166861238E+04  0.42166861238E+04  0.00000000000E+00 0.  1.
         21   -1    0    0  505  502  0.00000000000E+00 -0.00000000000E+00 -0.34947933335E+03  0.34947933335E+03  0.00000000000E+00 0. -1.
         21    1    1    2  503  504 -0.61513743344E+02  0.20617570926E+03  0.27713563478E+03  0.35085114190E+03  0.00000000000E+00 0. -1.
         21    1    1    2  504  501 -0.94239457008E+02  0.59101723379E+02  0.31501003151E+03  0.33407395725E+03  0.00000000000E+00 0. -1.
         21    1    1    2  505  503 -0.32946243765E+02 -0.11307280010E+02 -0.29506876431E+03  0.29711762861E+03  0.00000000000E+00 0. -1.
          2    1    1    2  501    0  0.18869944412E+03 -0.25397015263E+03  0.35701298885E+04  0.35841227294E+04  0.00000000000E+00 0.  1.
<scales pt_clust_3="112.94409" pt_clust_4="112.94409" pt_clust_5="34.83259" pt_clust_6="315.04341"></scales>
<clustering>
<clus scale="   34.833">  2  5  1 -1</clus>
<clus scale="  112.944">  3  4 -1 -1</clus>
<clus scale="  315.043">  1  6  2 -1</clus>
<clus scale="   34.833">  2  3  1 -1</clus>
</clustering>
</event>
<event>
 6    0  0.3667994E+002  0.1137530E+03  0.7546771E-02  0.1253774E+00
          2   -1    0    0  505    0 -0.00000000000E+00  0.00000000000E+00  0.18195364650E+04  0.18195364650E+04  0.00000000000E+00 0. -1.
         21   -1    0    0  503  502  0.00000000000E+00 -0.00000000000E+00 -0.36732840169E+03  0.36732840169E+03  0.00000000000E+00 0. -1.
         21    1    1    2  503  501 -0.77270474474E+02 -0.40914643425E+02  0.15917098330E+03  0.18160433970E+03  0.00000000000E+00 0. -1.
         21    1    1    2  504  502  0.80008787651E+02  0.83209190754E+02 -0.34557017656E+03  0.36434039366E+03  0.00000000000E+00 0. -1.
         21    1    1    2  505  504  0.31890059597E+02 -0.27127398802E+02  0.52322260496E+03  0.52489500475E+03  0.00000000000E+00 0.  1.
          2    1    1    2  501    0 -0.34628372774E+02 -0.15167148527E+02  0.11153846517E+04  0.11160251286E+04  0.00000000000E+00 0. -1.
<scales pt_clust_3="113.75299" pt_clust_4="14000.00000" pt_clust_5="38.90280" pt_clust_6="37.80432"></scales>
<clustering>
<clus scale="   37.804">  1  6  2 -1</clus>
<clus scale="   38.903">  1  5  2 -1</clus>
<clus scale="  113.753">  1  3  2 -1</clus>
<clus scale="  113.753">  2  3  1 -1</clus>
</clustering>
</event>
<event>
 6    0  0.3667994E+002  0.1289323E+03  0.7546771E-02  0.1229049E+00
         21   -1    0    0  505  502  0.00000000000E+00  0.00000000000E+00  0.97376506910E+02  0.97376506910E+02  0.00000000000E+00 0.  1.
          2   -1    0    0  503    0 -0.00000000000E+00 -0.00000000000E+00 -0.14403653289E+04  0.14403653289E+04  0.00000000000E+00 0.  1.
         21    1    1    2  503  502 -0.73101913993E+02 -0.38374470965E+02 -0.14273486541E+03  0.16489309159E+03  0.00000000000E+00 0.  1.
         21    1    1    2  504  501  0.55127881359E+02 -0.66148780212E+02 -0.17243627420E+03  0.19274079248E+03  0.00000000000E+00 0.  1.
         21    1    1    2  505  504 -0.24151920887E+02 -0.59618156435E+02  0.54680948200E+02  0.84425386912E+02  0.00000000000E+00 0.  1.
          2    1    1    2  501    0  0.42125953521E+02  0.16414140761E+03 -0.10824986306E+04  0.10956825649E+04  0.00000000000E+00 0.  1.
<scales pt_clust_3="128.93225" pt_clust_4="99.35763" pt_clust_5="64.32449" pt_clust_6="14000.00000"></scales>
<clustering>
<clus scale="   64.324">  1  5  2 -1</clus>
<clus scale="   99.358">  1  4  2 -1</clus>
<clus scale="  128.932">  1  3  2 -1</clus>
<clus scale="   64.324">  1  3  2 -1</clus>
</clustering>
</event>
<event>
 6    0  0.3667994E+002  0.1145859E+03  0.7546771E-02  0.1252306E+00
         21   -1    0    0  505  502  0.00000000000E+00  0.00000000000E+00  0.27768366560E+03  0.27768366560E+03  0.00000000000E+00 0. -1.
         -3   -1    0    0    0  501 -0.00000000000E+00 -0.00000000000E+00 -0.74977904971E+02  0.74977904971E+02  0.00000000000E+00 0. -1.
         21    1    1    2  503  502  0.53809352792E+02 -0.20963296450E+02  0.29443922728E+02  0.64821684887E+02  0.00000000000E+00 0. -1.
         21    1    1    2  504  501 -0.60418313428E+02 -0.57717592133E+02  0.63976321781E+02  0.10523622374E+03  0.00000000000E+00 0. -1.
         21    1    1    2  505  504 -0.57006084747E+02  0.33549071062E+02  0.65810625222E+02  0.93307407312E+02  0.00000000000E+00 0. -1.
         -3    1    1    2    0  503  0.63615045383E+02  0.45131817521E+02  0.43474890894E+02  0.89296254624E+02  0.00000000000E+00 0. -1.
<scales pt_clust_3="54.84397" pt_clust_4="95.22269" pt_clust_5="66.14555" pt_clust_6="54.84397"></scales>
<clustering>
<clus scale="   54.844">  3  6 -1 -1</clus>
<clus scale="   66.146">  1  5  2 -1</clus>
<clus scale="   95.223">  2  4  1 -1</clus>
<clus scale="   66.146">  1  3  2 -1</clus>
</clustering>
</event>
<event>
 6    0  0.3667994E+002  0.2869339E+03  0.7546771E-02  0.1091961E+00
          2   -1    0    0  503    0 -0.00000000000E+00  0.00000000000E+00  0.18164563436E+03  0.18164563436E+03  0.00000000000E+00 0.  1.
         21   -1    0    0  504  502  0.00000000000E+00 -0.00000000000E+00 -0.61035271879E+03  0.61035271879E+03  0.00000000000E+00 0.  1.
         21    1    1    2  503  505 -0.36167264022E+02  0.46007398964E+01 -0.56271099058E+01  0.36890407430E+02  0.00000000000E+00 0.  1.
         21    1    1    2  504  501  0.34157341508E+02 -0.62312412731E+02 -0.54703062079E+02  0.89677119490E+02  0.00000000000E+00 0.  1.
         21    1    1    2  505  502 -0.14079203029E+03  0.22758137977E+03 -0.35300963584E+03  0.44298022891E+03  0.00000000000E+00 0.  1.
          2    1    1    2  501    0  0.14280195281E+03 -0.16986970693E+03 -0.15367276604E+02  0.22245059732E+03  0.00000000000E+00 0.  1.
<scales pt_clust_3="36.45871" pt_clust_4="49.39761" pt_clust_5="273.93493" pt_clust_6="49.39761"></scales>
<clustering>
<clus scale="   36.459">  1  3  2 -1</clus>
<clus scale="   49.398">  4  6 -1 -1</clus>
<clus scale="  273.935">  2  5  1 -1</clus>
<clus scale="  273.935">  2  3  1 -1</clus>
</clustering>
</event>
<event>
 6    0  0.3667994E+002  0.9608434E+02  0.7546771E-02  0.1288752E+00
          2   -1    0    0  504    0 -0.00000000000E+00  0.00000000000E+00  0.51838024805E+03  0.51838024805E+03  0.00000000000E+00 0. -1.
         21   -1    0    0  501  502  0.00000000000E+00 -0.00000000000E+00 -0.22553623017E+03  0.22553623017E+03  0.00000000000E+00 0.  1.
         21    1    1    2  503  502 -0.24108825716E+02  0.50592958452E+02 -0.18148167358E+03  0.18993809720E+03  0.00000000000E+00 0.  1.
         21    1    1    2  504  505  0.17677715635E+02 -0.10971842713E+03  0.20707333499E+03  0.23501064006E+03  0.00000000000E+00 0. -1.
         21    1    1    2  505  503  0.59490731360E+02  0.67049884275E+02  0.67701878899E+02  0.11233155614E+03  0.00000000000E+00 0. -1.
          2    1    1    2  501    0 -0.53059621279E+02 -0.79244156004E+01  0.19955047757E+03  0.20663618481E+03  0.00000000000E+00 0. -1.
<scales pt_clust_3="56.25795" pt_clust_4="96.08434" pt_clust_5="14000.00000" pt_clust_6="53.64811"></scales>
<clustering>
<clus scale="   53.648">  1  6  2 -1</clus>
<clus scale="   56.258">  2  3  1 -1</clus>
<clus scale="   96.084">  1  4  2 -1</clus>
<clus scale="   56.258">  2  3  1 -1</clus>
</clustering>
</event>
<event>
 6    0  0.3667994E+002  0.8795432E+02  0.7546771E-02  0.1307883E+00
         -1   -1    0    0    0  501 -0.00000000000E+00  0.00000000000E+00  0.67888878627E+03  0.67888878627E+03  0.00000000000E+00 0. -1.
         21   -1    0    0  505  502  0.00000000000E+00 -0.00000000000E+00 -0.12710899361E+04  0.12710899361E+04  0.00000000000E+00 0. -1.
         21    1    1    2  503  504  0.68755844790E+01 -0.14232391199E+03  0.46218582998E+03  0.48365184898E+03  0.00000000000E+00 0. -1.
         21    1    1    2  504  501  0.15047972224E+02  0.35233908717E+02  0.38293072587E+02  0.54168525914E+02  0.00000000000E+00 0. -1.
         21    1    1    2  505  503 -0.10180597002E+01  0.54278479107E+02 -0.12467607628E+04  0.12479421419E+04  0.00000000000E+00 0. -1.
         -1    1    1    2    0  502 -0.20905497003E+02  0.52811524162E+02  0.15408071037E+03  0.16421620565E+03  0.00000000000E+00 0. -1.
<scales pt_clust_3="87.95432" pt_clust_4="38.31279" pt_clust_5="54.32066" pt_clust_6="14000.00000"></scales>
<clustering>
<clus scale="   38.313">  1  4  2 -1</clus>
<clus scale="   54.321">  2  5  1 -1</clus>
<clus scale="   87.954">  1  3  2 -1</clus>
<clus scale="   54.321">  2  3  1 -1</clus>
</clustering>
</event>
<event>
 6    0  0.3667994E+002  0.1715867E+03  0.7546771E-02  0.1176203E+00
         21   -1    0    0  504  502  0.00000000000E+00  0.00000000000E+00  0.17487817843E+03  0.17487817843E+03  0.00000000000E+00 0. -1.
          2   -1    0    0  503    0 -0.00000000000E+00 -0.00000000000E+00 -0.97058332176E+03  0.97058332176E+03  0.00000000000E+00 0. -1.
         21    1    1    2  503  505 -0.33962347940E+02  0.22134320741E+01 -0.51580156507E+02  0.61796868080E+02  0.00000000000E+00 0. -1.
         21    1    1    2  504  501  0.44960244887E+02  0.24777593195E+02 -0.13424402483E+03  0.14372477499E+03  0.00000000000E+00 0.  1.
         21    1    1    2  505  502 -0.10520022544E+03 -0.11779048237E+03  0.12004859756E+03  0.19837679034E+03  0.00000000000E+00 0. -1.
          2    1    1    2  501    0  0.94202328490E+02  0.90799457103E+02 -0.72992955955E+03  0.74156306678E+03  0.00000000000E+00 0. -1.
<scales pt_clust_3="34.03440" pt_clust_4="41.67190" pt_clust_5="158.83227" pt_clust_6="41.67190"></scales>
<clustering>
<clus scale="   34.034">  2  3  1 -1</clus>
<clus scale="   41.672">  4  6 -1 -1</clus>
<clus scale="  158.832">  1  5  2 -1</clus>
<clus scale="  158.832">  1  3  2 -1</clus>
</clustering>
</event>
<event>
 6    0  0.6842480E+002  0.9317236E+02  0.7546771E-02  0.1295346E+00
          2   -1    0    0  503    0 -0.00000000000E+00  0.00000000000E+00  0.55609614528E+03  0.55609614528E+03  0.00000000000E+00 0.  1.
         21   -1    0    0  505  502  0.00000000000E+00 -0.00000000000E+00 -0.82478046120E+03  0.82478046120E+03  0.00000000000E+00 0. -1.
         21    1    1    2  503  504  0.11448593051E+02 -0.33026567631E+02  0.30939820400E+02  0.46680798394E+02  0.00000000000E+00 0.  1.
         21    1    1    2  504  502 -0.61130306591E+01  0.34688853549E+02  0.29664566869E+02  0.46050757127E+02  0.00000000000E+00 0.  1.
         21    1    1    2  505  501 -0.93168185928E+02 -0.25339479746E+01 -0.80197206133E+03  0.80736975353E+03  0.00000000000E+00 0. -1.
          2    1    1    2  501    0  0.87832623536E+02  0.87166205622E+00  0.47268335814E+03  0.48077529743E+03  0.00000000000E+00 0.  1.
<scales pt_clust_3="34.95461" pt_clust_4="32.70010" pt_clust_5="93.17236" pt_clust_6="14000.00000"></scales>
<clustering>
<clus scale="   34.955">  1  3  2 -1</clus>
<clus scale="   32.700">  1  4  2 -1</clus>
<clus scale="   93.172">  2  5  1 -1</clus>
<clus scale="   93.172">  2  3  1 -1</clus>
</clustering>
</event>
<event>
 6    0  0.3667994E+002  0.1499516E+03  0.7546771E-02  0.1200532E+00
          2   -1    0    0  505    0 -0.00000000000E+00  0.00000000000E+00  0.63932328290E+03  0.63932328290E+03  0.00000000000E+00 0.  1.
         21   -1    0    0  504  502  0.00000000000E+00 -0.00000000000E+00 -0.18759090406E+03  0.18759090406E+03  0.00000000000E+00 0. -1.
         21    1    1    2  503  502 -0.54813840148E+02 -0.16455549824E+02 -0.10704996355E+03  0.12138796022E+03  0.00000000000E+00 0. -1.
         21    1    1    2  504  501  0.10174314881E+03  0.37480742282E+02  0.44509066192E+03  0.45810716181E+03  0.00000000000E+00 0.  1.
         21    1    1    2  505  503 -0.79162833632E+02 -0.55165645317E+00 -0.40251767777E+02  0.88810266088E+02  0.00000000000E+00 0.  1.
          2    1    1    2  501    0  0.32233524969E+02 -0.20473536004E+02  0.15394344825E+03  0.15860879883E+03  0.00000000000E+00 0.  1.
<scales pt_clust_3="55.40689" pt_clust_4="33.87187" pt_clust_5="55.40689" pt_clust_6="146.61757"></scales>
<clustering>
<clus scale="   33.872">  4  6 -1 -1</clus>
<clus scale="   55.407">  3  5 -1 -1</clus>
<clus scale="  146.618">  1  4  2 -1</clus>
<clus scale="  149.952">  2  3  1 -1</clus>
</clustering>
</event>
<event>
 6    0  0.3667994E+002  0.1648368E+03  0.7546771E-02  0.1183342E+00
         21   -1    0    0  505  502  0.00000000000E+00  0.00000000000E+00  0.15455559454E+04  0.15455559454E+04  0.00000000000E+00 0.  1.
         -2   -1    0    0    0  501 -0.00000000000E+00 -0.00000000000E+00 -0.25823226400E+03  0.25823226400E+03  0.00000000000E+00 0.  1.
         21    1    1    2  503  502  0.38656130310E+02  0.87238273573E+01 -0.10667789974E+02  0.41039046252E+02  0.00000000000E+00 0. -1.
         21    1    1    2  504  501 -0.17196232554E+03 -0.50314464737E+02  0.51217756969E+02  0.18634871986E+03  0.00000000000E+00 0.  1.
         21    1    1    2  505  504  0.42074032156E+02 -0.17262537729E+02  0.13932964174E+04  0.13940384235E+04  0.00000000000E+00 0.  1.
         -2    1    1    2    0  503  0.91232163070E+02  0.58853175109E+02 -0.14652270296E+03  0.18236201984E+03  0.00000000000E+00 0.  1.
<scales pt_clust_3="37.05409" pt_clust_4="153.00196" pt_clust_5="45.47768" pt_clust_6="37.05409"></scales>
<clustering>
<clus scale="   37.054">  3  6 -1 -1</clus>
<clus scale="   45.478">  1  5  2 -1</clus>
<clus scale="  153.002">  1  4  2 -1</clus>
<clus scale="   45.478">  1  3  2 -1</clus>
</clustering>
</event>
<event>
 6    0  0.3667994E+002  0.1442702E+03  0.7546771E-02  0.1207696E+00
         -4   -1    0    0    0  501 -0.00000000000E+00  0.00000000000E+00  0.53402017303E+03  0.53402017303E+03  0.00000000000E+00 0. -1.
         21   -1    0    0  504  502  0.00000000000E+00 -0.00000000000E+00 -0.21539873822E+03  0.21539873822E+03  0.00000000000E+00 0. -1.
         21    1    1    2  503  501  0.12412223187E+02  0.39542966091E+02  0.41510295451E+02  0.58658452759E+02  0.00000000000E+00 0.  1.
         21    1    1    2  504  503 -0.90887353758E+02  0.96511642857E+02 -0.16892696685E+03  0.21473548475E+03  0.00000000000E+00 0. -1.
         21    1    1    2  505  502  0.44722196765E+02 -0.30247911015E+02  0.11988768655E+03  0.13148409938E+03  0.00000000000E+00 0. -1.
         -4    1    1    2    0  505  0.33752933807E+02 -0.10580669793E+03  0.32615041966E+03  0.34454087437E+03  0.00000000000E+00 0. -1.
<scales pt_clust_3="41.44526" pt_clust_4="133.54146" pt_clust_5="38.06551" pt_clust_6="38.06551"></scales>
<clustering>
<clus scale="   38.066">  5  6 -1 -1</clus>
<clus scale="   41.445">  1  3  2 -1</clus>
<clus scale="  133.541">  2  4  1 -1</clus>
<clus scale="  133.541">  2  3  1 -1</clus>
</clustering>
</event>
<event>
 6    0  0.3667994E+002  0.1831064E+03  0.7546771E-02  0.1164830E+00
         21   -1    0    0  504  502  0.00000000000E+00  0.00000000000E+00  0.15979965633E+03  0.15979965633E+03  0.00000000000E+00 0.  1.
          2   -1    0    0  503    0 -0.00000000000E+00 -0.00000000000E+00 -0.74949585062E+03  0.74949585062E+03  0.00000000000E+00 0.  1.
         21    1    1    2  503  502 -0.90087532047E+02 -0.78808169597E+02  0.88479488106E+02  0.14884592988E+03  0.00000000000E+00 0.  1.
         21    1    1    2  504  505 -0.50474041617E+02  0.82332292738E+00 -0.50823522537E+02  0.71633352434E+02  0.00000000000E+00 0.  1.
         21    1    1    2  505  501 -0.46325924021E+02  0.30502149644E+02 -0.34325656871E+02  0.65228238432E+02  0.00000000000E+00 0.  1.
          2    1    1    2  501    0  0.18688749768E+03  0.47482697026E+02 -0.59302650298E+03  0.62358798621E+03  0.00000000000E+00 0.  1.
<scales pt_clust_3="183.10638" pt_clust_4="32.05781" pt_clust_5="107.14809" pt_clust_6="14000.00000"></scales>
<clustering>
<clus scale="   32.058">  4  5 -1 -1</clus>
<clus scale="  107.148">  1  4  2 -1</clus>
<clus scale="  183.106">  1  3  2 -1</clus>
<clus scale="  107.148">  1  3  2 -1</clus>
</clustering>
</event>
<event>
 6    0  0.3667994E+002  0.8885758E+02  0.7546771E-02  0.1305642E+00
         21   -1    0    0  505  502  0.00000000000E+00  0.00000000000E+00  0.93555334208E+03  0.93555334208E+03  0.00000000000E+00 0. -1.
         -1   -1    0    0    0  501 -0.00000000000E+00 -0.00000000000E+00 -0.12629563465E+03  0.12629563465E+03  0.00000000000E+00 0.  1.
         21    1    1    2  503  501  0.28946494054E+02  0.12441068828E+02  0.19927570173E+02  0.37279857358E+02  0.00000000000E+00 0. -1.
         21    1    1    2  504  502 -0.11367124378E+03 -0.52686096587E+02  0.14403367258E+03  0.19089964713E+03  0.00000000000E+00 0. -1.
         21    1    1    2  505  503  0.45424808286E+02 -0.17543958167E+01  0.72992784499E+03  0.73134201986E+03  0.00000000000E+00 0. -1.
         -1    1    1    2    0  504  0.39299941439E+02  0.41999423575E+02 -0.84631380319E+02  0.10232745239E+03  0.00000000000E+00 0.  1.
<scales pt_clust_3="31.50682" pt_clust_4="14000.00000" pt_clust_5="45.62975" pt_clust_6="88.85758"></scales>
<clustering>
<clus scale="   31.507">  2  3  1 -1</clus>
<clus scale="   45.630">  1  5  2 -1</clus>
<clus scale="   88.858">  2  6  1 -1</clus>
<clus scale="   45.630">  1  3  2 -1</clus>
</clustering>
</event>
<event>
 6    0  0.3667994E+002  0.1827662E+03  0.7546771E-02  0.1165152E+00
         21   -1    0    0  503  502  0.00000000000E+00  0.00000000000E+00  0.17799243892E+03  0.17799243892E+03  0.00000000000E+00 0.  1.
          1   -1    0    0  504    0 -0.00000000000E+00 -0.00000000000E+00 -0.13178224990E+04  0.13178224990E+04  0.00000000000E+00 0. -1.
         21    1    1    2  503  501  0.75475517415E+02  0.34534948296E+02 -0.64771032612E+02  0.10528296656E+03  0.00000000000E+00 0.  1.
         21    1    1    2  504  505  0.10700266092E+03 -0.15276341380E+02 -0.43899651264E+03  0.45210714898E+03  0.00000000000E+00 0. -1.
         21    1    1    2  505  502 -0.20977393358E+03  0.10790700600E+03  0.49159714766E+02  0.24096826079E+03  0.00000000000E+00 0.  1.
          1    1    1    2  501    0  0.27295755242E+02 -0.12716561291E+03 -0.68522222961E+03  0.69745656160E+03  0.00000000000E+00 0. -1.
<scales pt_clust_3="83.00130" pt_clust_4="111.00562" pt_clust_5="14000.00000" pt_clust_6="182.76621"></scales>
<clustering>
<clus scale="   83.001">  1  3  2 -1</clus>
<clus scale="  111.006">  2  4  1 -1</clus>
<clus scale="  182.766">  2  6  1 -1</clus>
<clus scale="   83.001">  1  3  2 -1</clus>
</clustering>
</event>
<event>
 6    0  0.3667994E+002  0.1309899E+03  0.7546771E-02  0.1225994E+00
         21   -1    0    0  505  502  0.00000000000E+00  0.00000000000E+00  0.14423448435E+03  0.14423448435E+03  0.00000000000E+00 0. -1.
          1   -1    0    0  504    0 -0.00000000000E+00 -0.00000000000E+00 -0.11759522898E+04  0.11759522898E+04  0.00000000000E+00 0. -1.
         21    1    1    2  503  502 -0.41885152190E+02 -0.54518856267E+01 -0.13834734526E+03  0.14465157092E+03  0.00000000000E+00 0. -1.
         21    1    1    2  504  503 -0.66394009141E+02  0.19191461432E+02 -0.60642692716E+03  0.61035243477E+03  0.00000000000E+00 0. -1.
         21    1    1    2  505  501 -0.26591235223E+02 -0.16349187993E+02  0.12649729186E+03  0.13029180553E+03  0.00000000000E+00 0. -1.
          1    1    1    2  501    0  0.13487039655E+03  0.26096121871E+01 -0.41344082485E+03  0.43489096288E+03  0.00000000000E+00 0. -1.
<scales pt_clust_3="47.87592" pt_clust_4="47.87592" pt_clust_5="31.21522" pt_clust_6="117.17156"></scales>
<clustering>
<clus scale="   31.215">  1  5  2 -1</clus>
<clus scale="   47.876">  3  4 -1 -1</clus>
<clus scale="  117.172">  1  6  2 -1</clus>
<clus scale="   31.215">  1  3  2 -1</clus>
</clustering>
</event>
<event>
 6    0  0.3667994E+002  0.1606666E+03  0.7546771E-02  0.1187946E+00
         21   -1    0    0  505  502  0.00000000000E+00  0.00000000000E+00  0.11683184213E+03  0.11683184213E+03  0.00000000000E+00 0.  1.
          2   -1    0    0  502    0 -0.00000000000E+00 -0.00000000000E+00 -0.29519545175E+03  0.29519545175E+03  0.00000000000E+00 0. -1.
         21    1    1    2  503  501  0.32521532009E+02 -0.74181360987E+02 -0.97340215479E+02  0.12663191506E+03  0.00000000000E+00 0. -1.
         21    1    1    2  504  503 -0.10506492567E+02  0.52453474902E+02 -0.24963996313E+02  0.59033503430E+02  0.00000000000E+00 0. -1.
         21    1    1    2  505  504 -0.58843419569E+01  0.92725244271E+02  0.43849223008E+02  0.10273923673E+03  0.00000000000E+00 0.  1.
          2    1    1    2  501    0 -0.16130697485E+02 -0.70997358186E+02 -0.99908620843E+02  0.12362263866E+03  0.00000000000E+00 0. -1.
<scales pt_clust_3="46.20163" pt_clust_4="50.72141" pt_clust_5="50.72141" pt_clust_6="154.01376"></scales>
<clustering>
<clus scale="   46.202">  3  6 -1 -1</clus>
<clus scale="   50.721">  4  5 -1 -1</clus>
<clus scale="  154.014">  2  3  1 -1</clus>
<clus scale="  160.667">  1  3  2 -1</clus>
</clustering>
</event>
<event>
 6    0  0.3667994E+002  0.1339553E+03  0.7546771E-02  0.1221702E+00
         21   -1    0    0  503  502  0.00000000000E+00  0.00000000000E+00  0.44452333087E+03  0.44452333087E+03  0.00000000000E+00 0. -1.
         -1   -1    0    0    0  501 -0.00000000000E+00 -0.00000000000E+00 -0.19701004425E+03  0.19701004425E+03  0.00000000000E+00 0.  1.
         21    1    1    2  503  504  0.67954374972E+02  0.13392011381E+03  0.37191185651E+03  0.40108705162E+03  0.00000000000E+00 0. -1.
         21    1    1    2  504  501  0.36455106936E+01 -0.29923205854E+02 -0.19006830312E+02  0.35636324100E+02  0.00000000000E+00 0.  1.
         21    1    1    2  505  502 -0.55855916531E+02 -0.68775246691E+02  0.41257306043E+01  0.88695770034E+02  0.00000000000E+00 0. -1.
         -1    1    1    2    0  505 -0.15743969135E+02 -0.35221661265E+02 -0.10951747019E+03  0.11611422937E+03  0.00000000000E+00 0.  1.
<scales pt_clust_3="133.95531" pt_clust_4="30.14445" pt_clust_5="14000.00000" pt_clust_6="56.70260"></scales>
<clustering>
<clus scale="   30.144">  2  4  1 -1</clus>
<clus scale="   56.703">  2  6  1 -1</clus>
<clus scale="  133.955">  1  3  2 -1</clus>
<clus scale="  133.955">  1  3  2 -1</clus>
</clustering>
</event>
<event>
 6    0  0.3667994E+002  0.1280605E+03  0.7546771E-02  0.1230362E+00
          2   -1    0    0  505    0 -0.00000000000E+00  0.00000000000E+00  0.97472782283E+03  0.97472782283E+03  0.00000000000E+00 0.  1.
         21   -1    0    0  504  502  0.00000000000E+00 -0.00000000000E+00 -0.41150253227E+02  0.41150253227E+02  0.00000000000E+00 0.  1.
         21    1    1    2  503  501 -0.22009509432E+02 -0.64557875011E+02  0.15884184672E+03  0.17286662489E+03  0.00000000000E+00 0.  1.
         21    1    1    2  504  503  0.45793384076E+02  0.99946615668E+02  0.82290397110E+02  0.13732468629E+03  0.00000000000E+00 0.  1.
         21    1    1    2  505  502  0.42755954492E+02  0.72925858055E+01  0.41311761171E+03  0.41538826965E+03  0.00000000000E+00 0. -1.
          2    1    1    2  501    0 -0.66539829135E+02 -0.42681326463E+02  0.27932771407E+03  0.29029849524E+03  0.00000000000E+00 0.  1.
<scales pt_clust_3="54.77997" pt_clust_4="114.94069" pt_clust_5="43.37342" pt_clust_6="54.77997"></scales>
<clustering>
<clus scale="   43.373">  1  5  2 -1</clus>
<clus scale="   54.780">  3  6 -1 -1</clus>
<clus scale="  114.941">  2  4  1 -1</clus>
<clus scale="  114.941">  2  3  1 -1</clus>
</clustering>
</event>
<event>
 6    0  0.3667994E+002  0.3468492E+03  0.7546771E-02  0.1063916E+00
         21   -1    0    0  503  502  0.00000000000E+00  0.00000000000E+00  0.29911160113E+03  0.29911160113E+03  0.00000000000E+00 0. -1.
          2   -1    0    0  505    0 -0.00000000000E+00 -0.00000000000E+00 -0.57512079829E+03  0.57512079829E+03  0.00000000000E+00 0. -1.
         21    1    1    2  503  504 -0.75830416252E+02 -0.28792762387E+03  0.91526433294E+02  0.31149583722E+03  0.00000000000E+00 0. -1.
         21    1    1    2  504  501  0.58196952634E+02  0.26723348048E+03 -0.26141480094E+03  0.37833624798E+03  0.00000000000E+00 0. -1.
         21    1    1    2  505  502 -0.54450333391E+02 -0.18875195181E+02 -0.11010794426E+02  0.58671538189E+02  0.00000000000E+00 0. -1.
          2    1    1    2  501    0  0.72083797009E+02  0.39569338577E+02 -0.95110035087E+02  0.12572877603E+03  0.00000000000E+00 0. -1.
<scales pt_clust_3="323.16217" pt_clust_4="68.51559" pt_clust_5="57.62909" pt_clust_6="68.51559"></scales>
<clustering>
<clus scale="   57.629">  1  5  2 -1</clus>
<clus scale="   68.516">  4  6 -1 -1</clus>
<clus scale="  323.162">  1  3  2 -1</clus>
<clus scale="   57.629">  1  3  2 -1</clus>
</clustering>
</event>
<event>
 6    0  0.3667994E+002  0.2195024E+03  0.7546771E-02  0.1134255E+00
          1   -1    0    0  503    0 -0.00000000000E+00  0.00000000000E+00  0.18251309990E+04  0.18251309990E+04  0.00000000000E+00 0.  1.
         21   -1    0    0  501  502  0.00000000000E+00 -0.00000000000E+00 -0.11978550061E+03  0.11978550061E+03  0.00000000000E+00 0. -1.
         21    1    1    2  503  505 -0.22106768560E+02  0.22095441405E+02  0.49038752916E+03  0.49138258669E+03  0.00000000000E+00 0.  1.
         21    1    1    2  504  502  0.12998810557E+02  0.52964323571E+02 -0.62313042875E+02  0.82807632255E+02  0.00000000000E+00 0. -1.
         21    1    1    2  505  504  0.14677805836E+03  0.11623652245E+03  0.22658625703E+03  0.29393206603E+03  0.00000000000E+00 0. -1.
          1    1    1    2  501    0 -0.13767010036E+03 -0.19129628742E+03  0.10506847551E+04  0.10767942146E+04  0.00000000000E+00 0.  1.
<scales pt_clust_3="31.25568" pt_clust_4="54.66085" pt_clust_5="219.50236" pt_clust_6="14000.00000"></scales>
<clustering>
<clus scale="   31.256">  1  3  2 -1</clus>
<clus scale="   54.661">  2  4  1 -1</clus>
<clus scale="  219.502">  2  5  1 -1</clus>
<clus scale="   54.661">  2  3  1 -1</clus>
</clustering>
</event>
<event>
 6    0  0.3667994E+002  0.2196907E+03  0.7546771E-02  0.1134114E+00
          2   -1    0    0  505    0 -0.00000000000E+00  0.00000000000E+00  0.15096470055E+04  0.15096470055E+04  0.00000000000E+00 0.  1.
         21   -1    0    0  504  502  0.00000000000E+00 -0.00000000000E+00 -0.12048813752E+04  0.12048813752E+04  0.00000000000E+00 0.  1.
         21    1    1    2  503  502 -0.73418057075E+02  0.84838775690E+02 -0.11702659090E+04  0.11756317989E+04  0.00000000000E+00 0.  1.
         21    1    1    2  504  501  0.60326843698E+02 -0.38340495689E+02  0.40276655305E+03  0.40906016420E+03  0.00000000000E+00 0. -1.
         21    1    1    2  505  503 -0.16989525484E+03 -0.17619234845E+02  0.51598400513E+03  0.54352031112E+03  0.00000000000E+00 0. -1.
          2    1    1    2  501    0  0.18298646821E+03 -0.28879045157E+02  0.55628098103E+03  0.58631610643E+03  0.00000000000E+00 0.  1.
<scales pt_clust_3="112.19549" pt_clust_4="53.00696" pt_clust_5="202.44032" pt_clust_6="53.00696"></scales>
<clustering>
<clus scale="   53.007">  4  6 -1 -1</clus>
<clus scale="  112.195">  2  3  1 -1</clus>
<clus scale="  202.440">  1  5  2 -1</clus>
<clus scale="  112.195">  2  3  1 -1</clus>
</clustering>
</event>
<event>
 6    0  0.3667994E+002  0.9436704E+02  0.7546771E-02  0.1292608E+00
         21   -1    0    0  505  502  0.00000000000E+00  0.00000000000E+00  0.40411089695E+02  0.40411089695E+02  0.00000000000E+00 0. -1.
          1   -1    0    0  503    0 -0.00000000000E+00 -0.00000000000E+00 -0.16384861034E+04  0.16384861034E+04  0.00000000000E+00 0.  1.
         21    1    1    2  503  504 -0.45196973323E+02  0.48897301052E+02 -0.29817356568E+03  0.30551790082E+03  0.00000000000E+00 0. -1.
         21    1    1    2  504  502 -0.70668216089E+02  0.21936981583E+02 -0.94614460023E+01  0.74597231092E+02  0.00000000000E+00 0. -1.
         21    1    1    2  505  501  0.19002858706E+02 -0.34783451049E+02 -0.23782598536E+03  0.24110619324E+03  0.00000000000E+00 0.  1.
          1    1    1    2  501    0  0.96862330707E+02 -0.36050831586E+02 -0.10526140166E+04  0.10576758679E+04  0.00000000000E+00 0.  1.
<scales pt_clust_3="66.58613" pt_clust_4="75.81512" pt_clust_5="34.79625" pt_clust_6="34.79625"></scales>
<clustering>
<clus scale="   34.796">  5  6 -1 -1</clus>
<clus scale="   66.586">  2  3  1 -1</clus>
<clus scale="   75.815">  1  4  2 -1</clus>
<clus scale="   75.815">  1  3  2 -1</clus>
</clustering>
</event>
<event>
 6    0  0.3667994E+002  0.1160205E+03  0.7546771E-02  0.1249810E+00
         21   -1    0    0  505  502  0.00000000000E+00  0.00000000000E+00  0.20142943019E+03  0.20142943019E+03  0.00000000000E+00 0.  1.
          1   -1    0    0  503    0 -0.00000000000E+00 -0.00000000000E+00 -0.11516872450E+04  0.11516872450E+04  0.00000000000E+00 0. -1.
         21    1    1    2  503  504 -0.28195465829E+02  0.67977115721E+02 -0.21851302374E+02  0.76768170296E+02  0.00000000000E+00 0.  1.
         21    1    1    2  504  502  0.39631545282E+02  0.58794472727E+02 -0.75937995677E+02  0.10389431453E+03  0.00000000000E+00 0. -1.
         21    1    1    2  505  501 -0.50032461340E+02 -0.11333542870E+02  0.15211039843E+03  0.16052809627E+03  0.00000000000E+00 0.  1.
          1    1    1    2  501    0  0.38596381888E+02 -0.11543804558E+03 -0.10045789152E+04  0.10119260941E+04  0.00000000000E+00 0. -1.
<scales pt_clust_3="14000.00000" pt_clust_4="60.31858" pt_clust_5="51.30006" pt_clust_6="116.02049"></scales>
<clustering>
<clus scale="   51.300">  1  5  2 -1</clus>
<clus scale="   60.319">  1  4  2 -1</clus>
<clus scale="  116.020">  2  6  1 -1</clus>
<clus scale="   51.300">  1  3  2 -1</clus>
</clustering>
</event>
<event>
 6    0  0.3667994E+002  0.7860869E+02  0.7546771E-02  0.1333047E+00
          2   -1    0    0  505    0 -0.00000000000E+00  0.00000000000E+00  0.75662073313E+03  0.75662073313E+03  0.00000000000E+00 0.  1.
         21   -1    0    0  504  502  0.00000000000E+00 -0.00000000000E+00 -0.22926084616E+03  0.22926084616E+03  0.00000000000E+00 0.  1.
         21    1    1    2  503  502 -0.39144540368E+02 -0.32803790631E+01 -0.20895272858E+03  0.21261302573E+03  0.00000000000E+00 0.  1.
         21    1    1    2  504  501 -0.11833769916E+02 -0.68642496062E+02  0.12670577998E+03  0.14458971283E+03  0.00000000000E+00 0. -1.
         21    1    1    2  505  503  0.86799177269E+02  0.54424843457E+02  0.31142999804E+03  0.32784875239E+03  0.00000000000E+00 0. -1.
          2    1    1    2  501    0 -0.35820866986E+02  0.17498031669E+02  0.29817683752E+03  0.30083008835E+03  0.00000000000E+00 0.  1.
<scales pt_clust_3="39.28175" pt_clust_4="14000.00000" pt_clust_5="78.60869" pt_clust_6="42.31274"></scales>
<clustering>
<clus scale="   39.282">  2  3  1 -1</clus>
<clus scale="   42.313">  1  6  2 -1</clus>
<clus scale="   78.609">  1  5  2 -1</clus>
<clus scale="   39.282">  2  3  1 -1</clus>
</clustering>
</event>
<event>
 6    0  0.3667994E+002  0.8179462E+02  0.7546771E-02  0.1324034E+00
          2   -1    0    0  503    0 -0.00000000000E+00  0.00000000000E+00  0.42003346517E+03  0.42003346517E+03  0.00000000000E+00 0. -1.
         21   -1    0    0  504  502  0.00000000000E+00 -0.00000000000E+00 -0.41653825505E+03  0.41653825505E+03  0.00000000000E+00 0.  1.
         21    1    1    2  503  505 -0.35617983493E+02  0.15130866820E+02  0.53320178873E+02  0.65883422451E+02  0.00000000000E+00 0.  1.
         21    1    1    2  504  501  0.75620907393E+02 -0.33087174254E+02 -0.39167538690E+03  0.40027851733E+03  0.00000000000E+00 0.  1.
         21    1    1    2  505  502  0.24751649914E+02  0.59145046564E+02  0.12704700898E+03  0.14230854928E+03  0.00000000000E+00 0. -1.
          2    1    1    2  501    0 -0.64754573814E+02 -0.41188739129E+02  0.21480340917E+03  0.22810123115E+03  0.00000000000E+00 0. -1.
<scales pt_clust_3="38.69863" pt_clust_4="81.79462" pt_clust_5="65.80137" pt_clust_6="14000.00000"></scales>
<clustering>
<clus scale="   38.699">  1  3  2 -1</clus>
<clus scale="   65.801">  1  5  2 -1</clus>
<clus scale="   81.795">  2  4  1 -1</clus>
<clus scale="   81.795">  2  3  1 -1</clus>
</clustering>
</event>
<event>
 6    0  0.3667994E+002  0.1823331E+03  0.7546771E-02  0.1165564E+00
          1   -1    0    0  504    0 -0.00000000000E+00  0.00000000000E+00  0.25819510241E+04  0.25819510241E+04  0.00000000000E+00 0.  1.
         21   -1    0    0  503  502  0.00000000000E+00 -0.00000000000E+00 -0.46502788823E+02  0.46502788823E+02  0.00000000000E+00 0. -1.
         21    1    1    2  503  505  0.13314188408E+02  0.16872001537E+03  0.13919388247E+03  0.21913157718E+03  0.00000000000E+00 0. -1.
         21    1    1    2  504  502  0.14940042700E+02  0.34034700969E+02  0.36921364666E+03  0.37107988712E+03  0.00000000000E+00 0. -1.
         21    1    1    2  505  501  0.61296515471E+01 -0.45288801267E+02  0.27162957025E+03  0.27544740257E+03  0.00000000000E+00 0. -1.
          1    1    1    2  501    0 -0.34383882655E+02 -0.15746591507E+03  0.17554111359E+04  0.17627949461E+04  0.00000000000E+00 0.  1.
<scales pt_clust_3="172.09095" pt_clust_4="37.16942" pt_clust_5="32.08289" pt_clust_6="32.08289"></scales>
<clustering>
<clus scale="   32.083">  5  6 -1 -1</clus>
<clus scale="   37.169">  1  4  2 -1</clus>
<clus scale="  172.091">  2  3  1 -1</clus>
<clus scale="  172.091">  2  3  1 -1</clus>
</clustering>
</event>
<event>
 6    0  0.3667994E+002  0.1499548E+03  0.7546771E-02  0.1200529E+00
         -2   -1    0    0    0  501 -0.00000000000E+00  0.00000000000E+00  0.67361855805E+03  0.67361855805E+03  0.00000000000E+00 0.  1.
         21   -1    0    0  504  502  0.00000000000E+00 -0.00000000000E+00 -0.31404419290E+03  0.31404419290E+03  0.00000000000E+00 0.  1.
         21    1    1    2  503  501 -0.83459498837E+01  0.43342104034E+02  0.27494477767E+02  0.52001338148E+02  0.00000000000E+00 0.  1.
         21    1    1    2  504  503 -0.42296565642E+02 -0.50316096369E+02  0.41720990229E+03  0.42235626145E+03  0.00000000000E+00 0.  1.
         21    1    1    2  505  502 -0.14417482106E+03  0.16157247389E+02 -0.22890341469E+03  0.27100592046E+03  0.00000000000E+00 0.  1.
         -2    1    1    2    0  505  0.19481733659E+03 -0.91832550539E+01  0.14377339978E+03  0.24229923089E+03  0.00000000000E+00 0.  1.
<scales pt_clust_3="44.13834" pt_clust_4="52.48059" pt_clust_5="14000.00000" pt_clust_6="149.95477"></scales>
<clustering>
<clus scale="   44.138">  1  3  2 -1</clus>
<clus scale="   52.481">  1  4  2 -1</clus>
<clus scale="  149.955">  1  6  2 -1</clus>
<clus scale="  149.955">  2  3  1 -1</clus>
</clustering>
</event>
<event>
 6    0  0.3667994E+002  0.9896350E+02  0.7546771E-02  0.1282491E+00
          2   -1    0    0  504    0 -0.00000000000E+00  0.00000000000E+00  0.31657501277E+04  0.31657501277E+04  0.00000000000E+00 0.  1.
         21   -1    0    0  501  502  0.00000000000E+00 -0.00000000000E+00 -0.66166149325E+02  0.66166149325E+02  0.00000000000E+00 0. -1.
         21    1    1    2  503  502 -0.32859209160E+02 -0.24177087646E+02 -0.52696416927E+02  0.66642115442E+02  0.00000000000E+00 0. -1.
         21    1    1    2  504  505 -0.54325334882E+02  0.63526859158E+02  0.43623692170E+03  0.44417288942E+03  0.00000000000E+00 0.  1.
         21    1    1    2  505  503  0.30540962783E+02  0.48291260565E+02  0.68505516233E+03  0.68743390350E+03  0.00000000000E+00 0.  1.
          2    1    1    2  501    0  0.56643581259E+02 -0.87641032077E+02  0.20309883113E+04  0.20336673687E+04  0.00000000000E+00 0.  1.
<scales pt_clust_3="40.79533" pt_clust_4="98.96350" pt_clust_5="50.25591" pt_clust_6="14000.00000"></scales>
<clustering>
<clus scale="   40.795">  2  3  1 -1</clus>
<clus scale="   50.256">  2  5  1 -1</clus>
<clus scale="   98.964">  2  4  1 -1</clus>
<clus scale="   40.795">  2  3  1 -1</clus>
</clustering>
</event>
<event>
 6    0  0.3667994E+002  0.9326936E+02  0.7546771E-02  0.1295122E+00
         21   -1    0    0  505  502  0.00000000000E+00  0.00000000000E+00  0.64983751619E+02  0.64983751619E+02  0.00000000000E+00 0.  1.
         -2   -1    0    0    0  501 -0.00000000000E+00 -0.00000000000E+00 -0.50357272111E+03  0.50357272111E+03  0.00000000000E+00 0.  1.
         21    1    1    2  503  501  0.31524211096E+02 -0.87449192933E+01 -0.45512376261E+02  0.56050208666E+02  0.00000000000E+00 0.  1.
         21    1    1    2  504  502 -0.56518813099E+02  0.75601705042E+02 -0.10134526503E+03  0.13849497024E+03  0.00000000000E+00 0.  1.
         21    1    1    2  505  503  0.28522343032E+02  0.24726216217E+02  0.24343520645E+02  0.44916776574E+02  0.00000000000E+00 0.  1.
         -2    1    1    2    0  504 -0.35277410280E+01 -0.91583001965E+02 -0.31607484885E+03  0.32909451724E+03  0.00000000000E+00 0.  1.
<scales pt_clust_3="32.71467" pt_clust_4="14000.00000" pt_clust_5="38.16401" pt_clust_6="93.26936"></scales>
<clustering>
<clus scale="   32.715">  2  3  1 -1</clus>
<clus scale="   38.164">  1  5  2 -1</clus>
<clus scale="   93.269">  2  6  1 -1</clus>
<clus scale="   38.164">  1  3  2 -1</clus>
</clustering>
</event>
<event>
 6    0  0.3667994E+002  0.1543570E+03  0.7546771E-02  0.1195219E+00
         21   -1    0    0  501  502  0.00000000000E+00  0.00000000000E+00  0.33643780810E+03  0.33643780810E+03  0.00000000000E+00 0. -1.
          2   -1    0    0  505    0 -0.00000000000E+00 -0.00000000000E+00 -0.25702425224E+03  0.25702425224E+03  0.00000000000E+00 0. -1.
         21    1    1    2  503  504 -0.45592791321E+02 -0.44272535247E+01 -0.49833211858E+02  0.67687902895E+02  0.00000000000E+00 0. -1.
         21    1    1    2  504  502  0.38792022300E+02  0.14864726418E+03  0.24619336686E+03  0.29019304614E+03  0.00000000000E+00 0. -1.
         21    1    1    2  505  503  0.42630430611E+02  0.10946636998E+02 -0.15019814029E+02  0.46505669430E+02  0.00000000000E+00 0. -1.
          2    1    1    2  501    0 -0.35829661590E+02 -0.15516664766E+03 -0.10192678512E+03  0.18907544187E+03  0.00000000000E+00 0. -1.
<scales pt_clust_3="34.55792" pt_clust_4="14000.00000" pt_clust_5="44.01344" pt_clust_6="154.35703"></scales>
<clustering>
<clus scale="   44.013">  2  5  1 -1</clus>
<clus scale="   34.558">  2  3  1 -1</clus>
<clus scale="  154.357">  2  6  1 -1</clus>
<clus scale="  154.357">  1  3  2 -1</clus>
</clustering>
</event>
<event>
 6    0  0.3667994E+002  0.1410732E+03  0.7546771E-02  0.1211892E+00
          2   -1    0    0  503    0 -0.00000000000E+00  0.00000000000E+00  0.10927468035E+04  0.10927468035E+04  0.00000000000E+00 0.  1.
         21   -1    0    0  504  502  0.00000000000E+00 -0.00000000000E+00 -0.65285079582E+02  0.65285079582E+02  0.00000000000E+00 0.  1.
         21    1    1    2  503  502  0.13412373653E+03 -0.36818273135E+02  0.56442702215E+03  0.58131112605E+03  0.00000000000E+00 0.  1.
         21    1    1    2  504  505 -0.13655767441E+03 -0.51991993411E+02  0.70995812924E+02  0.16245482840E+03  0.00000000000E+00 0.  1.
         21    1    1    2  505  501  0.50520299119E+02  0.47657989504E+02  0.23177630058E+03  0.24195833959E+03  0.00000000000E+00 0.  1.
          2    1    1    2  501    0 -0.48086361240E+02  0.41152277042E+02  0.16026258823E+03  0.17230758900E+03  0.00000000000E+00 0.  1.
<scales pt_clust_3="141.07319" pt_clust_4="14000.00000" pt_clust_5="69.61373" pt_clust_6="63.29145"></scales>
<clustering>
<clus scale="   63.291">  1  6  2 -1</clus>
<clus scale="   69.614">  1  5  2 -1</clus>
<clus scale="  141.073">  1  3  2 -1</clus>
<clus scale="  141.073">  2  3  1 -1</clus>
</clustering>
</event>
<event>
 6    0  0.3667994E+002  0.1816902E+03  0.7546771E-02  0.1166177E+00
         21   -1    0    0  505  502  0.00000000000E+00  0.00000000000E+00  0.26464694221E+02  0.26464694221E+02  0.00000000000E+00 0. -1.
          2   -1    0    0  504    0 -0.00000000000E+00 -0.00000000000E+00 -0.24151779029E+04  0.24151779029E+04  0.00000000000E+00 0.  1.
         21    1    1    2  503  501 -0.20023096930E+02  0.14270652483E+03 -0.99924109168E+03  0.10095785437E+04  0.00000000000E+00 0. -1.
         21    1    1    2  504  502  0.17707856644E+02 -0.26225059252E+02 -0.36648045138E+03  0.36784404734E+03  0.00000000000E+00 0.  1.
         21    1    1    2  505  503  0.14676683015E+02 -0.16719435974E+03 -0.33933048402E+03  0.37856906416E+03  0.00000000000E+00 0. -1.
          2    1    1    2  501    0 -0.12361442729E+02  0.50712894169E+02 -0.68366118164E+03  0.68565094194E+03  0.00000000000E+00 0.  1.
<scales pt_clust_3="32.19320" pt_clust_4="31.64367" pt_clust_5="172.70843" pt_clust_6="32.19320"></scales>
<clustering>
<clus scale="   31.644">  2  4  1 -1</clus>
<clus scale="   32.193">  3  6 -1 -1</clus>
<clus scale="  172.708">  1  5  2 -1</clus>
<clus scale="  172.708">  1  3  2 -1</clus>
</clustering>
</event>
<event>
 6    0  0.3667994E+002  0.1933618E+03  0.7546771E-02  0.1155464E+00
          2   -1    0    0  505    0 -0.00000000000E+00  0.00000000000E+00  0.12577543081E+04  0.12577543081E+04  0.00000000000E+00 0. -1.
         21   -1    0    0  503  502  0.00000000000E+00 -0.00000000000E+00 -0.12637341077E+04  0.12637341077E+04  0.00000000000E+00 0.  1.
         21    1    1    2  503  504  0.42913731321E+02 -0.25575904834E+02 -0.10994026875E+04  0.11005371345E+04  0.00000000000E+00 0.  1.
         21    1    1    2  504  501 -0.13311969044E+03  0.20727253982E+03 -0.16885890842E+02  0.24691676949E+03  0.00000000000E+00 0. -1.
         21    1    1    2  505  502  0.32165746468E+02 -0.14582848950E+03  0.15124063677E+03  0.21254249883E+03  0.00000000000E+00 0. -1.
          2    1    1    2  501    0  0.58040212649E+02 -0.35868145483E+02  0.95906814197E+03  0.96149201301E+03  0.00000000000E+00 0. -1.
<scales pt_clust_3="49.95713" pt_clust_4="14000.00000" pt_clust_5="193.36176" pt_clust_6="68.59861"></scales>
<clustering>
<clus scale="   49.957">  2  3  1 -1</clus>
<clus scale="   68.599">  1  6  2 -1</clus>
<clus scale="  193.362">  1  5  2 -1</clus>
<clus scale="   49.957">  2  3  1 -1</clus>
</clustering>
</event>
<event>
 6    0  0.3667994E+002  0.1099497E+03  0.7546771E-02  0.1260663E+00
         21   -1    0    0  505  502  0.00000000000E+00  0.00000000000E+00  0.94169416440E+02  0.94169416440E+02  0.00000000000E+00 0. -1.
          2   -1    0    0  504    0 -0.00000000000E+00 -0.00000000000E+00 -0.42441754534E+04  0.42441754534E+04  0.00000000000E+00 0.  1.
         21    1    1    2  503  501  0.49571948449E+02  0.30235705205E+02 -0.19306719284E+03  0.20160981348E+03  0.00000000000E+00 0.  1.
         21    1    1    2  504  502  0.12363689061E+02 -0.57173398101E+02 -0.93170314880E+03  0.93353758132E+03  0.00000000000E+00 0.  1.
         21    1    1    2  505  503 -0.82282861309E+02  0.76430620008E+02  0.53220634796E+02  0.12427608341E+03  0.00000000000E+00 0. -1.
          2    1    1    2  501    0  0.20347223799E+02 -0.49492927111E+02 -0.30784563302E+04  0.30789213917E+04  0.00000000000E+00 0.  1.
<scales pt_clust_3="57.34529" pt_clust_4="14000.00000" pt_clust_5="109.94966" pt_clust_6="53.51224"></scales>
<clustering>
<clus scale="   53.512">  2  6  1 -1</clus>
<clus scale="   57.345">  2  3  1 -1</clus>
<clus scale="  109.950">  1  5  2 -1</clus>
<clus scale="  109.950">  1  3  2 -1</clus>
</clustering>
</event>
<event>
 6    0  0.3667994E+002  0.1452681E+03  0.7546771E-02  0.1206411E+00
          2   -1    0    0  504    0 -0.00000000000E+00  0.00000000000E+00  0.23359423036E+04  0.23359423036E+04  0.00000000000E+00 0.  1.
         21   -1    0    0  505  502  0.00000000000E+00 -0.00000000000E+00 -0.10132748913E+03  0.10132748913E+03  0.00000000000E+00 0.  1.
         21    1    1    2  503  501  0.13201215079E+03 -0.26699096205E+02  0.97009843909E+03  0.97940340577E+03  0.00000000000E+00 0.  1.
         21    1    1    2  504  502 -0.48468662090E+02  0.26197306619E+02  0.27240610158E+03  0.27792192116E+03  0.00000000000E+00 0.  1.
         21    1    1    2  505  503 -0.14379005112E+03 -0.27879601072E+02 -0.35069679407E+02  0.15060787951E+03  0.00000000000E+00 0.  1.
          2    1    1    2  501    0  0.60246562416E+02  0.28381390658E+02  0.10271799532E+04  0.10293365863E+04  0.00000000000E+00 0.  1.
<scales pt_clust_3="14000.00000" pt_clust_4="55.09546" pt_clust_5="145.26815" pt_clust_6="54.94398"></scales>
<clustering>
<clus scale="   55.095">  1  4  2 -1</clus>
<clus scale="   54.944">  1  6  2 -1</clus>
<clus scale="  145.268">  2  5  1 -1</clus>
<clus scale="  145.268">  2  3  1 -1</clus>
</clustering>
</event>
<event>
 6    0  0.3667994E+002  0.9841811E+02  0.7546771E-02  0.1283658E+00
          2   -1    0    0  503    0 -0.00000000000E+00  0.00000000000E+00  0.25577210696E+04  0.25577210696E+04  0.00000000000E+00 0.  1.
         21   -1    0    0  504  502  0.00000000000E+00 -0.00000000000E+00 -0.13565527810E+02  0.13565527810E+02  0.00000000000E+00 0. -1.
         21    1    1    2  503  505  0.81904727502E+02  0.56463584952E+02  0.14136773323E+04  0.14171732853E+04  0.00000000000E+00 0.  1.
         21    1    1    2  504  501 -0.35973266066E+02  0.25503786398E+01  0.34941573798E+02  0.50214478810E+02  0.00000000000E+00 0. -1.
         21    1    1    2  505  502 -0.83408301864E+02 -0.48976584524E+02  0.76287809025E+03  0.76898545580E+03  0.00000000000E+00 0. -1.
          2    1    1    2  501    0  0.37476840429E+02 -0.10037379067E+02  0.33265854550E+03  0.33491337752E+03  0.00000000000E+00 0.  1.
<scales pt_clust_3="98.41811" pt_clust_4="36.06356" pt_clust_5="14000.00000" pt_clust_6="32.09119"></scales>
<clustering>
<clus scale="   36.064">  2  4  1 -1</clus>
<clus scale="   32.091">  2  6  1 -1</clus>
<clus scale="   98.418">  1  3  2 -1</clus>
<clus scale="   36.064">  2  3  1 -1</clus>
</clustering>
</event>
<event>
 6    0  0.3667994E+002  0.2141521E+03  0.7546771E-02  0.1138320E+00
          2   -1    0    0  504    0 -0.00000000000E+00  0.00000000000E+00  0.27504225128E+03  0.27504225128E+03  0.00000000000E+00 0. -1.
         21   -1    0    0  501  502  0.00000000000E+00 -0.00000000000E+00 -0.10405732018E+04  0.10405732018E+04  0.00000000000E+00 0.  1.
         21    1    1    2  503  505 -0.17276051177E+03  0.10375432585E+03 -0.77609522171E+02  0.21594997682E+03  0.00000000000E+00 0.  1.
         21    1    1    2  504  503 -0.16513123711E+02 -0.54455186458E+02  0.43525067054E+02  0.71641343155E+02  0.00000000000E+00 0. -1.
         21    1    1    2  505  502 -0.82664358469E+01  0.41135238964E+02 -0.79931350404E+03  0.80041396764E+03  0.00000000000E+00 0.  1.
          2    1    1    2  501    0  0.19754007132E+03 -0.90434378351E+02  0.67867008627E+02  0.22761016547E+03  0.00000000000E+00 0. -1.
<scales pt_clust_3="14000.00000" pt_clust_4="54.75721" pt_clust_5="41.95762" pt_clust_6="214.15207"></scales>
<clustering>
<clus scale="   41.958">  2  5  1 -1</clus>
<clus scale="   54.757">  1  4  2 -1</clus>
<clus scale="  214.152">  1  6  2 -1</clus>
<clus scale="   41.958">  2  3  1 -1</clus>
</clustering>
</event>
<event>
 6    0  0.3667994E+002  0.8046445E+02  0.7546771E-02  0.1327739E+00
         21   -1    0    0  504  502  0.00000000000E+00  0.00000000000E+00  0.29262189253E+02  0.29262189253E+02  0.00000000000E+00 0. -1.
          2   -1    0    0  505    0 -0.00000000000E+00 -0.00000000000E+00 -0.20087096316E+04  0.20087096316E+04  0.00000000000E+00 0. -1.
         21    1    1    2  503  502 -0.48036653294E+02 -0.24873776257E+02 -0.11646588583E+03  0.12841544832E+03  0.00000000000E+00 0. -1.
         21    1    1    2  504  501 -0.10607525096E+02 -0.35243564152E+02 -0.92406991461E+01  0.37947581261E+02  0.00000000000E+00 0. -1.
         21    1    1    2  505  503 -0.17744494751E+02 -0.43015546413E+02 -0.13801989754E+04  0.13809831338E+04  0.00000000000E+00 0. -1.
          2    1    1    2  501    0  0.76388673141E+02  0.10313288682E+03 -0.47354188204E+03  0.49062565748E+03  0.00000000000E+00 0. -1.
<scales pt_clust_3="14000.00000" pt_clust_4="36.80528" pt_clust_5="47.49505" pt_clust_6="80.46445"></scales>
<clustering>
<clus scale="   36.805">  1  4  2 -1</clus>
<clus scale="   47.495">  2  5  1 -1</clus>
<clus scale="   80.464">  2  6  1 -1</clus>
<clus scale="   36.805">  1  3  2 -1</clus>
</clustering>
</event>
<event>
 6    0  0.3667994E+002  0.6744805E+02  0.7546771E-02  0.1368993E+00
          2   -1    0    0  503    0 -0.00000000000E+00  0.00000000000E+00  0.78856056261E+03  0.78856056261E+03  0.00000000000E+00 0.  1.
         21   -1    0    0  505  502  0.00000000000E+00 -0.00000000000E+00 -0.32206359184E+03  0.32206359184E+03  0.00000000000E+00 0.  1.
         21    1    1    2  503  504 -0.41969114090E+02  0.23754973842E+02  0.26064083962E+03  0.26506480830E+03  0.00000000000E+00 0.  1.
         21    1    1    2  504  502  0.28439952419E+00 -0.72152878431E+02  0.83293530159E+02  0.11019950506E+03  0.00000000000E+00 0.  1.
         21    1    1    2  505  501 -0.47336806551E+02  0.19730949585E+02 -0.29909252926E+03  0.30345745120E+03  0.00000000000E+00 0.  1.
          2    1    1    2  501    0  0.89021521116E+02  0.28666955004E+02  0.42165513025E+03  0.43190238989E+03  0.00000000000E+00 0.  1.
<scales pt_clust_3="48.22557" pt_clust_4="67.44805" pt_clust_5="51.48311" pt_clust_6="14000.00000"></scales>
<clustering>
<clus scale="   48.226">  1  3  2 -1</clus>
<clus scale="   51.483">  2  5  1 -1</clus>
<clus scale="   67.448">  2  4  1 -1</clus>
<clus scale="   51.483">  2  3  1 -1</clus>
</clustering>
</event>
<event>
 6    0  0.3667994E+002  0.1197252E+03  0.7546771E-02  0.1243551E+00
         21   -1    0    0  501  502  0.00000000000E+00  0.00000000000E+00  0.62157762134E+02  0.62157762134E+02  0.00000000000E+00 0. -1.
          2   -1    0    0  505    0 -0.00000000000E+00 -0.00000000000E+00 -0.22126110254E+04  0.22126110254E+04  0.00000000000E+00 0.  1.
         21    1    1    2  503  502 -0.30003435526E+02  0.78831995040E+02 -0.66988924623E+02  0.10771353493E+03  0.00000000000E+00 0. -1.
         21    1    1    2  504  503  0.18428504689E+02  0.60052990639E+02 -0.86128619931E+02  0.10660258271E+03  0.00000000000E+00 0. -1.
         21    1    1    2  505  504 -0.36465455024E+02 -0.55625039579E+02 -0.19537935356E+04  0.19549253321E+04  0.00000000000E+00 0.  1.
          2    1    1    2  501    0  0.48040385861E+02 -0.83259946100E+02 -0.43542183054E+02  0.10552733771E+03  0.00000000000E+00 0.  1.
<scales pt_clust_3="47.76405" pt_clust_4="47.76405" pt_clust_5="66.51221" pt_clust_6="106.16370"></scales>
<clustering>
<clus scale="   47.764">  3  4 -1 -1</clus>
<clus scale="   66.512">  2  5  1 -1</clus>
<clus scale="  106.164">  1  6  2 -1</clus>
<clus scale="  106.164">  1  3  2 -1</clus>
</clustering>
</event>
<event>
 6    0  0.3667994E+002  0.7473668E+02  0.7546771E-02  0.1344688E+00
          2   -1    0    0  503    0 -0.00000000000E+00  0.00000000000E+00  0.12287708144E+04  0.12287708144E+04  0.00000000000E+00 0. -1.
         21   -1    0    0  504  502  0.00000000000E+00 -0.00000000000E+00 -0.33825399878E+04  0.33825399878E+04  0.00000000000E+00 0.  1.
         21    1    1    2  503  502 -0.15183955937E+02  0.33434861302E+02  0.69829143018E+02  0.78895828044E+02  0.00000000000E+00 0. -1.
         21    1    1    2  504  505  0.21309947622E+02  0.71611288144E+02 -0.33694998235E+04  0.33703280776E+04  0.00000000000E+00 0.  1.
         21    1    1    2  505  501 -0.75650113607E+02 -0.86076967914E+02  0.54769420457E+03  0.55955439934E+03  0.00000000000E+00 0. -1.
          2    1    1    2  501    0  0.69524121922E+02 -0.18969181532E+02  0.59820730252E+03  0.60253249719E+03  0.00000000000E+00 0. -1.
<scales pt_clust_3="36.72114" pt_clust_4="14000.00000" pt_clust_5="74.73668" pt_clust_6="61.64772"></scales>
<clustering>
<clus scale="   36.721">  1  3  2 -1</clus>
<clus scale="   61.648">  1  6  2 -1</clus>
<clus scale="   74.737">  1  5  2 -1</clus>
<clus scale="   74.737">  2  3  1 -1</clus>
</clustering>
</event>
<event>
 6    0  0.3667994E+002  0.8669078E+02  0.7546771E-02  0.1311069E+00
         21   -1    0    0  503  502  0.00000000000E+00  0.00000000000E+00  0.46482224897E+02  0.46482224897E+02  0.00000000000E+00 0. -1.
         -4   -1    0    0    0  501 -0.00000000000E+00 -0.00000000000E+00 -0.11111635238E+04  0.11111635238E+04  0.00000000000E+00 0. -1.
         21    1    1    2  503  504 -0.74470239673E+01 -0.29471041346E+02 -0.19774049736E+02  0.36263114689E+02  0.00000000000E+00 0. -1.
         21    1    1    2  504  501 -0.43199937211E+02 -0.39014942483E+02 -0.13656613103E+03  0.14845439857E+03  0.00000000000E+00 0. -1.
         21    1    1    2  505  502 -0.20555487462E+02  0.11788924447E+03 -0.89299443506E+02  0.14931440867E+03  0.00000000000E+00 0. -1.
         -4    1    1    2    0  505  0.71202448640E+02 -0.49403260637E+02 -0.81904167464E+03  0.82361382678E+03  0.00000000000E+00 0. -1.
<scales pt_clust_3="30.39738" pt_clust_4="62.19511" pt_clust_5="14000.00000" pt_clust_6="86.69078"></scales>
<clustering>
<clus scale="   30.397">  1  3  2 -1</clus>
<clus scale="   62.195">  1  4  2 -1</clus>
<clus scale="   86.691">  2  6  1 -1</clus>
<clus scale="   30.397">  1  3  2 -1</clus>
</clustering>
</event>
<event>
 6    0  0.3667994E+002  0.1763763E+03  0.7546771E-02  0.1171357E+00
          2   -1    0    0  503    0 -0.00000000000E+00  0.00000000000E+00  0.11194890787E+04  0.11194890787E+04  0.00000000000E+00 0. -1.
         21   -1    0    0  504  502  0.00000000000E+00 -0.00000000000E+00 -0.16988037310E+03  0.16988037310E+03  0.00000000000E+00 0. -1.
         21    1    1    2  503  502 -0.68325190180E+01 -0.50525267435E+02  0.57232751419E+03  0.57459400403E+03  0.00000000000E+00 0. -1.
         21    1    1    2  504  505  0.15373555317E+03  0.60999720629E+02 -0.11184915700E+03  0.19966426858E+03  0.00000000000E+00 0. -1.
         21    1    1    2  505  501 -0.49790408223E+02 -0.27137024910E+02  0.11495657599E+03  0.12818157916E+03  0.00000000000E+00 0.  1.
          2    1    1    2  501    0 -0.97112625931E+02  0.16662571717E+02  0.37417377245E+03  0.38692960006E+03  0.00000000000E+00 0. -1.
<scales pt_clust_3="50.98515" pt_clust_4="163.42520" pt_clust_5="50.32579" pt_clust_6="50.32579"></scales>
<clustering>
<clus scale="   50.326">  5  6 -1 -1</clus>
<clus scale="   50.985">  1  3  2 -1</clus>
<clus scale="  163.425">  2  4  1 -1</clus>
<clus scale="  163.425">  2  3  1 -1</clus>
</clustering>
</event>
<event>
 6    0  0.3667994E+002  0.1497817E+03  0.7546771E-02  0.1200741E+00
          2   -1    0    0  505    0 -0.00000000000E+00  0.00000000000E+00  0.43964062981E+04  0.43964062981E+04  0.00000000000E+00 0. -1.
         21   -1    0    0  503  502  0.00000000000E+00 -0.00000000000E+00 -0.11887882263E+03  0.11887882263E+03  0.00000000000E+00 0. -1.
         21    1    1    2  503  504  0.14686003439E+02 -0.35334521155E+02  0.10178816517E+03  0.10874298897E+03  0.00000000000E+00 0.  1.
         21    1    1    2  504  501  0.43195940213E+02 -0.13108473793E+02  0.10628764642E+04  0.10638346203E+04  0.00000000000E+00 0. -1.
         21    1    1    2  505  502 -0.15109659431E+03  0.35445179085E+01 -0.64021613769E+02  0.16413869577E+03  0.00000000000E+00 0. -1.
          2    1    1    2  501    0  0.93214650655E+02  0.44898477040E+02  0.31768844599E+04  0.31785688156E+04  0.00000000000E+00 0. -1.
<scales pt_clust_3="38.26496" pt_clust_4="34.92542" pt_clust_5="140.13849" pt_clust_6="34.92542"></scales>
<clustering>
<clus scale="   34.925">  4  6 -1 -1</clus>
<clus scale="   38.265">  2  3  1 -1</clus>
<clus scale="  140.138">  2  5  1 -1</clus>
<clus scale="   38.265">  2  3  1 -1</clus>
</clustering>
</event>
<event>
 6    0  0.3667994E+002  0.8155816E+02  0.7546771E-02  0.1324687E+00
          2   -1    0    0  505    0 -0.00000000000E+00  0.00000000000E+00  0.61157929829E+03  0.61157929829E+03  0.00000000000E+00 0.  1.
         21   -1    0    0  503  502  0.00000000000E+00 -0.00000000000E+00 -0.17323721343E+03  0.17323721343E+03  0.00000000000E+00 0. -1.
         21    1    1    2  503  504 -0.21903146493E+01 -0.36470759595E+02 -0.14236405356E+03  0.14697767697E+03  0.00000000000E+00 0. -1.
         21    1    1    2  504  501  0.46596252963E+02  0.57194952903E+02  0.19967505250E+03  0.21286756450E+03  0.00000000000E+00 0. -1.
         21    1    1    2  505  502 -0.57182198212E+01 -0.79488695069E+02  0.69966416124E+02  0.10604928131E+03  0.00000000000E+00 0. -1.
          2    1    1    2  501    0 -0.38687718493E+02  0.58764501760E+02  0.31106466979E+03  0.31892198893E+03  0.00000000000E+00 0.  1.
<scales pt_clust_3="36.53647" pt_clust_4="14000.00000" pt_clust_5="81.55816" pt_clust_6="66.40081"></scales>
<clustering>
<clus scale="   36.536">  2  3  1 -1</clus>
<clus scale="   66.401">  1  6  2 -1</clus>
<clus scale="   81.558">  2  5  1 -1</clus>
<clus scale="   36.536">  2  3  1 -1</clus>
</clustering>
</event>
<event>
 6    0  0.3667994E+002  0.9740738E+02  0.7546771E-02  0.1285844E+00
          1   -1    0    0  503    0 -0.00000000000E+00  0.00000000000E+00  0.24057789363E+03  0.24057789363E+03  0.00000000000E+00 0.  1.
         21   -1    0    0  505  502  0.00000000000E+00 -0.00000000000E+00 -0.11084600623E+03  0.11084600623E+03  0.00000000000E+00 0. -1.
         21    1    1    2  503  504 -0.14691420754E+02  0.66367113348E+02  0.11518749860E+03  0.13374823891E+03  0.00000000000E+00 0.  1.
         21    1    1    2  504  502  0.41355706010E+02  0.56340369241E+02 -0.25881915169E+02  0.74527881753E+02  0.00000000000E+00 0. -1.
         21    1    1    2  505  501 -0.37695782647E+02 -0.58559629373E+02  0.70484911851E+01  0.69999167493E+02  0.00000000000E+00 0.  1.
          1    1    1    2  501    0  0.11031497391E+02 -0.64147853216E+02  0.33377812785E+02  0.73148611697E+02  0.00000000000E+00 0.  1.
<scales pt_clust_3="67.97376" pt_clust_4="79.99567" pt_clust_5="53.72998" pt_clust_6="53.72998"></scales>
<clustering>
<clus scale="   53.730">  5  6 -1 -1</clus>
<clus scale="   67.974">  1  3  2 -1</clus>
<clus scale="   79.996">  2  4  1 -1</clus>
<clus scale="   79.996">  2  3  1 -1</clus>
</clustering>
</event>
<event>
 6    0  0.3667994E+002  0.8777121E+02  0.7546771E-02  0.1308341E+00
          2   -1    0    0  503    0 -0.00000000000E+00  0.00000000000E+00  0.63633453608E+03  0.63633453608E+03  0.00000000000E+00 0.  1.
         21   -1    0    0  504  502  0.00000000000E+00 -0.00000000000E+00 -0.21012473418E+03  0.21012473418E+03  0.00000000000E+00 0.  1.
         21    1    1    2  503  505 -0.41735570836E+02  0.42016738987E+02  0.95872995848E+02  0.11268937643E+03  0.00000000000E+00 0.  1.
         21    1    1    2  504  501 -0.68805713338E+02 -0.17641028922E+02 -0.15866033094E+03  0.17383478566E+03  0.00000000000E+00 0.  1.
         21    1    1    2  505  502  0.63238786903E+02  0.90334791655E+02  0.90767184340E+02  0.14282226894E+03  0.00000000000E+00 0.  1.
          2    1    1    2  501    0  0.47302497271E+02 -0.11471050172E+03  0.39822995265E+03  0.41711283922E+03  0.00000000000E+00 0.  1.
<scales pt_clust_3="59.22216" pt_clust_4="71.46262" pt_clust_5="87.77121" pt_clust_6="14000.00000"></scales>
<clustering>
<clus scale="   59.222">  1  3  2 -1</clus>
<clus scale="   71.463">  2  4  1 -1</clus>
<clus scale="   87.771">  2  5  1 -1</clus>
<clus scale="   71.463">  2  3  1 -1</clus>
</clustering>
</event>
<event>
 6    0  0.3667994E+002  0.8478953E+02  0.7546771E-02  0.1315984E+00
         21   -1    0    0  505  502  0.00000000000E+00  0.00000000000E+00  0.39768390627E+02  0.39768390627E+02  0.00000000000E+00 0. -1.
         -1   -1    0    0    0  501 -0.00000000000E+00 -0.00000000000E+00 -0.79325166644E+03  0.79325166644E+03  0.00000000000E+00 0. -1.
         21    1    1    2  503  501  0.22106917538E+02  0.30849468173E+02 -0.17050882147E+03  0.17468160662E+03  0.00000000000E+00 0.  1.
         21    1    1    2  504  503  0.36164358867E+02 -0.83479783460E+02 -0.42011668156E+03  0.42985434885E+03  0.00000000000E+00 0.  1.
         21    1    1    2  505  504 -0.38926925494E+02  0.84390645272E+02 -0.16694761110E+03  0.19107221512E+03  0.00000000000E+00 0. -1.
         -1    1    1    2    0  502 -0.19344350911E+02 -0.31760329985E+02  0.40898383201E+01  0.37411886486E+02  0.00000000000E+00 0. -1.
<scales pt_clust_3="33.88561" pt_clust_4="14000.00000" pt_clust_5="84.78953" pt_clust_6="37.18767"></scales>
<clustering>
<clus scale="   37.188">  1  6  2 -1</clus>
<clus scale="   33.886">  2  3  1 -1</clus>
<clus scale="   84.790">  1  5  2 -1</clus>
<clus scale="   37.188">  1  3  2 -1</clus>
</clustering>
</event>
<event>
 6    0  0.3667994E+002  0.1139339E+03  0.7546771E-02  0.1253453E+00
         21   -1    0    0  503  502  0.00000000000E+00  0.00000000000E+00  0.15168261930E+04  0.15168261930E+04  0.00000000000E+00 0.  1.
          2   -1    0    0  504    0 -0.00000000000E+00 -0.00000000000E+00 -0.48108896998E+03  0.48108896998E+03  0.00000000000E+00 0.  1.
         21    1    1    2  503  501 -0.10751055085E+02 -0.47273625482E+02  0.67114295203E+02  0.82793172860E+02  0.00000000000E+00 0.  1.
         21    1    1    2  504  505 -0.86683529859E+02  0.42002872607E+02 -0.79163685609E+02  0.12468025014E+03  0.00000000000E+00 0. -1.
         21    1    1    2  505  502 -0.45623153079E+01 -0.67538956701E+02  0.14077043493E+04  0.14093309974E+04  0.00000000000E+00 0.  1.
          2    1    1    2  501    0  0.10199690025E+03  0.72809709576E+02 -0.35991773587E+03  0.38111074252E+03  0.00000000000E+00 0.  1.
<scales pt_clust_3="48.48073" pt_clust_4="96.15404" pt_clust_5="14000.00000" pt_clust_6="113.93395"></scales>
<clustering>
<clus scale="   48.481">  1  3  2 -1</clus>
<clus scale="   96.154">  2  4  1 -1</clus>
<clus scale="  113.934">  2  6  1 -1</clus>
<clus scale="   48.481">  1  3  2 -1</clus>
</clustering>
</event>
<event>
 6    0  0.3667994E+002  0.1877500E+03  0.7546771E-02  0.1160506E+00
         21   -1    0    0  504  502  0.00000000000E+00  0.00000000000E+00  0.43624473324E+03  0.43624473324E+03  0.00000000000E+00 0. -1.
         -2   -1    0    0    0  501 -0.00000000000E+00 -0.00000000000E+00 -0.37539389359E+04  0.37539389359E+04  0.00000000000E+00 0. -1.
         21    1    1    2  503  502  0.17793257765E+03  0.35551358074E+02  0.41431644339E+03  0.45230743583E+03  0.00000000000E+00 0. -1.
         21    1    1    2  504  501 -0.13657038797E+02 -0.27306446321E+02 -0.10126723894E+04  0.10131325308E+04  0.00000000000E+00 0. -1.
         21    1    1    2  505  503 -0.72797867265E+02  0.83999185907E+01 -0.87501975824E+03  0.87808294906E+03  0.00000000000E+00 0.  1.
         -2    1    1    2    0  505 -0.91477671588E+02 -0.16644830343E+02 -0.18443184984E+04  0.18466607535E+04  0.00000000000E+00 0. -1.
<scales pt_clust_3="181.31964" pt_clust_4="30.53124" pt_clust_5="41.44966" pt_clust_6="41.44966"></scales>
<clustering>
<clus scale="   30.531">  2  4  1 -1</clus>
<clus scale="   41.450">  5  6 -1 -1</clus>
<clus scale="  181.320">  1  3  2 -1</clus>
<clus scale="  181.320">  1  3  2 -1</clus>
</clustering>
</event>
<event>
 6    0  0.3667994E+002  0.1948827E+03  0.7546771E-02  0.1154130E+00
          2   -1    0    0  502    0 -0.00000000000E+00  0.00000000000E+00  0.80315222853E+03  0.80315222853E+03  0.00000000000E+00 0. -1.
         21   -1    0    0  505  502  0.00000000000E+00 -0.00000000000E+00 -0.10354680033E+03  0.10354680033E+03  0.00000000000E+00 0. -1.
         21    1    1    2  503  504 -0.24340403720E+02  0.51157295280E+02  0.63026117964E+02  0.84745593745E+02  0.00000000000E+00 0. -1.
         21    1    1    2  504  501 -0.10812315507E+03 -0.12070451996E+01  0.13072853106E+03  0.16965265236E+03  0.00000000000E+00 0. -1.
         21    1    1    2  505  503 -0.49140148560E+02  0.19221173027E+02 -0.44262352539E+02  0.68872081030E+02  0.00000000000E+00 0. -1.
          2    1    1    2  501    0  0.18160370735E+03 -0.69171423108E+02  0.55011313172E+03  0.58342870172E+03  0.00000000000E+00 0. -1.
<scales pt_clust_3="60.53779" pt_clust_4="60.53779" pt_clust_5="52.76559" pt_clust_6="175.62261"></scales>
<clustering>
<clus scale="   52.766">  2  5  1 -1</clus>
<clus scale="   60.538">  3  4 -1 -1</clus>
<clus scale="  175.623">  1  6  2 -1</clus>
<clus scale="   52.766">  2  3  1 -1</clus>
</clustering>
</event>
<event>
 6    0  0.3667994E+002  0.2415389E+03  0.7546771E-02  0.1118772E+00
         21   -1    0    0  504  502  0.00000000000E+00  0.00000000000E+00  0.14283570114E+03  0.14283570114E+03  0.00000000000E+00 0.  1.
         -2   -1    0    0    0  501 -0.00000000000E+00 -0.00000000000E+00 -0.92518836062E+03  0.92518836062E+03  0.00000000000E+00 0. -1.
         21    1    1    2  503  501 -0.24050467490E+02  0.88342634204E+02 -0.15329949104E+03  0.17855973778E+03  0.00000000000E+00 0.  1.
         21    1    1    2  504  505  0.67978691378E+02  0.45266353595E+02  0.60464987911E+02  0.10161771505E+03  0.00000000000E+00 0.  1.
         21    1    1    2  505  503  0.66190124353E+02  0.92927124395E+02 -0.12250232977E+03  0.16740192296E+03  0.00000000000E+00 0.  1.
         -2    1    1    2    0  502 -0.11011834824E+03 -0.22653611219E+03 -0.56701582659E+03  0.62044468597E+03  0.00000000000E+00 0. -1.
<scales pt_clust_3="78.75219" pt_clust_4="81.67096" pt_clust_5="78.75219" pt_clust_6="222.15468"></scales>
<clustering>
<clus scale="   81.671">  1  4  2 -1</clus>
<clus scale="   78.752">  3  5 -1 -1</clus>
<clus scale="  222.155">  2  6  1 -1</clus>
<clus scale="   81.671">  1  3  2 -1</clus>
</clustering>
</event>
<event>
 6    0  0.3667994E+002  0.1346943E+03  0.7546771E-02  0.1220652E+00
         21   -1    0    0  505  502  0.00000000000E+00  0.00000000000E+00  0.56771089952E+02  0.56771089952E+02  0.00000000000E+00 0. -1.
          2   -1    0    0  504    0 -0.00000000000E+00 -0.00000000000E+00 -0.26282981215E+04  0.26282981215E+04  0.00000000000E+00 0. -1.
         21    1    1    2  503  502 -0.14349874050E+03 -0.13217402688E+01 -0.72351511650E+02  0.16071209276E+03  0.00000000000E+00 0. -1.
         21    1    1    2  504  503  0.12734116109E+02 -0.44939345609E+02 -0.39232188904E+03  0.39509260575E+03  0.00000000000E+00 0.  1.
         21    1    1    2  505  501  0.19829768035E+02 -0.51074223479E+02 -0.79525711854E+02  0.96571915432E+02  0.00000000000E+00 0. -1.
          2    1    1    2  501    0  0.11093485635E+03  0.97335309358E+02 -0.20273279190E+04  0.20326925975E+04  0.00000000000E+00 0. -1.
<scales pt_clust_3="14000.00000" pt_clust_4="46.70870" pt_clust_5="56.62120" pt_clust_6="134.69428"></scales>
<clustering>
<clus scale="   46.709">  2  4  1 -1</clus>
<clus scale="   56.621">  1  5  2 -1</clus>
<clus scale="  134.694">  2  6  1 -1</clus>
<clus scale="   56.621">  1  3  2 -1</clus>
</clustering>
</event>
<event>
 6    0  0.3667994E+002  0.3297999E+03  0.7546771E-02  0.1071225E+00
         21   -1    0    0  504  502  0.00000000000E+00  0.00000000000E+00  0.95091497580E+03  0.95091497580E+03  0.00000000000E+00 0.  1.
          2   -1    0    0  505    0 -0.00000000000E+00 -0.00000000000E+00 -0.17027908276E+04  0.17027908276E+04  0.00000000000E+00 0.  1.
         21    1    1    2  503  501  0.34570045201E+02  0.74501174045E+02 -0.25565104875E+03  0.26851996515E+03  0.00000000000E+00 0.  1.
         21    1    1    2  504  503 -0.44709270848E+02 -0.49443626559E+02  0.84189824412E+03  0.84453315184E+03  0.00000000000E+00 0.  1.
         21    1    1    2  505  502 -0.94745718155E+02 -0.25587675189E+03 -0.12288535999E+03  0.29924985375E+03  0.00000000000E+00 0.  1.
          2    1    1    2  501    0  0.10488494380E+03  0.23081920441E+03 -0.12152376872E+04  0.12414028327E+04  0.00000000000E+00 0.  1.
<scales pt_clust_3="34.55044" pt_clust_4="66.66027" pt_clust_5="324.16510" pt_clust_6="34.55044"></scales>
<clustering>
<clus scale="   34.550">  3  6 -1 -1</clus>
<clus scale="   66.660">  1  4  2 -1</clus>
<clus scale="  324.165">  1  5  2 -1</clus>
<clus scale="   66.660">  1  3  2 -1</clus>
</clustering>
</event>
<event>
 6    0  0.3667994E+002  0.2988847E+03  0.7546771E-02  0.1085799E+00
          2   -1    0    0  503    0 -0.00000000000E+00  0.00000000000E+00  0.15473631733E+04  0.15473631733E+04  0.00000000000E+00 0. -1.
         21   -1    0    0  505  502  0.00000000000E+00 -0.00000000000E+00 -0.64628371967E+03  0.64628371967E+03  0.00000000000E+00 0. -1.
         21    1    1    2  503  502 -0.81763703915E+02  0.47599394565E+02  0.13215193565E+03  0.16252735073E+03  0.00000000000E+00 0. -1.
         21    1    1    2  504  501 -0.18899169425E+02  0.63432361691E+02  0.20731690867E+03  0.21762615591E+03  0.00000000000E+00 0.  1.
         21    1    1    2  505  504  0.56700499568E+02 -0.27774678783E+03 -0.58707949405E+03  0.65193600694E+03  0.00000000000E+00 0. -1.
          2    1    1    2  501    0  0.43962373771E+02  0.16671503157E+03  0.11486901034E+04  0.11615573794E+04  0.00000000000E+00 0. -1.
<scales pt_clust_3="94.60975" pt_clust_4="61.32427" pt_clust_5="282.02095" pt_clust_6="61.32427"></scales>
<clustering>
<clus scale="   61.324">  4  6 -1 -1</clus>
<clus scale="   94.610">  1  3  2 -1</clus>
<clus scale="  282.021">  2  5  1 -1</clus>
<clus scale="  282.021">  2  3  1 -1</clus>
</clustering>
</event>
<event>
 6    0  0.3667994E+002  0.1024819E+03  0.7546771E-02  0.1275162E+00
         21   -1    0    0  503  502  0.00000000000E+00  0.00000000000E+00  0.61555644163E+03  0.61555644163E+03  0.00000000000E+00 0.  1.
          1   -1    0    0  505    0 -0.00000000000E+00 -0.00000000000E+00 -0.96549064290E+02  0.96549064290E+02  0.00000000000E+00 0. -1.
         21    1    1    2  503  501  0.64451141554E+02 -0.68073949519E+02  0.15988995042E+03  0.18534510648E+03  0.00000000000E+00 0.  1.
         21    1    1    2  504  502  0.24731014306E+02 -0.18427315068E+02  0.37983635710E+03  0.38108640383E+03  0.00000000000E+00 0.  1.
         21    1    1    2  505  504 -0.57053637157E+02  0.70377989818E+01 -0.16718789010E+02  0.59867904868E+02  0.00000000000E+00 0. -1.
          1    1    1    2  501    0 -0.32128518703E+02  0.79463465605E+02 -0.40001411630E+01  0.85806090748E+02  0.00000000000E+00 0. -1.
<scales pt_clust_3="14000.00000" pt_clust_4="30.84135" pt_clust_5="55.04438" pt_clust_6="102.48185"></scales>
<clustering>
<clus scale="   30.841">  1  4  2 -1</clus>
<clus scale="   55.044">  2  5  1 -1</clus>
<clus scale="  102.482">  2  6  1 -1</clus>
<clus scale="   30.841">  1  3  2 -1</clus>
</clustering>
</event>
<event>
 6    0  0.3667994E+002  0.7869360E+02  0.7546771E-02  0.1332800E+00
         21   -1    0    0  505  502  0.00000000000E+00  0.00000000000E+00  0.15261180634E+03  0.15261180634E+03  0.00000000000E+00 0. -1.
          2   -1    0    0  503    0 -0.00000000000E+00 -0.00000000000E+00 -0.32442693244E+04  0.32442693244E+04  0.00000000000E+00 0. -1.
         21    1    1    2  503  504  0.19862874847E+02  0.23369198333E+02 -0.12622115741E+03  0.12989393291E+03  0.00000000000E+00 0.  1.
         21    1    1    2  504  502 -0.80131530206E+01  0.49939309627E+02  0.14238051644E+03  0.15109717644E+03  0.00000000000E+00 0. -1.
         21    1    1    2  505  501  0.78402896471E+02 -0.48607604835E+02 -0.67500157289E+03  0.68127588892E+03  0.00000000000E+00 0.  1.
          2    1    1    2  501    0 -0.90252618297E+02 -0.24700903124E+02 -0.24328153042E+04  0.24346141325E+04  0.00000000000E+00 0. -1.
<scales pt_clust_3="30.67007" pt_clust_4="50.60599" pt_clust_5="78.69360" pt_clust_6="14000.00000"></scales>
<clustering>
<clus scale="   30.670">  2  3  1 -1</clus>
<clus scale="   50.606">  1  4  2 -1</clus>
<clus scale="   78.694">  1  5  2 -1</clus>
<clus scale="   50.606">  1  3  2 -1</clus>
</clustering>
</event>
<event>
 6    0  0.3667994E+002  0.1006961E+03  0.7546771E-02  0.1278839E+00
          2   -1    0    0  504    0 -0.00000000000E+00  0.00000000000E+00  0.26590587945E+04  0.26590587945E+04  0.00000000000E+00 0. -1.
         21   -1    0    0  503  502  0.00000000000E+00 -0.00000000000E+00 -0.50965735057E+02  0.50965735057E+02  0.00000000000E+00 0.  1.
         21    1    1    2  503  505  0.42004769241E+02 -0.32693805384E+01 -0.33964883901E+02  0.54117490948E+02  0.00000000000E+00 0.  1.
         21    1    1    2  504  502 -0.38580147349E+02  0.11406637552E+01  0.15362956057E+03  0.15840382181E+03  0.00000000000E+00 0. -1.
         21    1    1    2  505  501  0.83607886755E+02  0.31856987136E+02  0.58003485799E+03  0.58689486524E+03  0.00000000000E+00 0. -1.
          2    1    1    2  501    0 -0.87032508647E+02 -0.29728270353E+02  0.19083935248E+04  0.19106083516E+04  0.00000000000E+00 0. -1.
<scales pt_clust_3="41.97661" pt_clust_4="38.59701" pt_clust_5="14000.00000" pt_clust_6="100.69613"></scales>
<clustering>
<clus scale="   38.597">  1  4  2 -1</clus>
<clus scale="   41.977">  2  3  1 -1</clus>
<clus scale="  100.696">  1  6  2 -1</clus>
<clus scale="   41.977">  2  3  1 -1</clus>
</clustering>
</event>
<event>
 6    0  0.3667994E+002  0.1295112E+03  0.7546771E-02  0.1228183E+00
          1   -1    0    0  503    0 -0.00000000000E+00  0.00000000000E+00  0.59340325039E+03  0.59340325039E+03  0.00000000000E+00 0. -1.
         21   -1    0    0  505  502  0.00000000000E+00 -0.00000000000E+00 -0.40195751198E+03  0.40195751198E+03  0.00000000000E+00 0. -1.
         21    1    1    2  503  504  0.11965462696E+03 -0.60255384847E+02  0.18999855349E+03  0.23248094865E+03  0.00000000000E+00 0. -1.
         21    1    1    2  504  502 -0.64466136442E+02 -0.21322355643E+02 -0.33464613533E+03  0.34146531520E+03  0.00000000000E+00 0. -1.
         21    1    1    2  505  501 -0.12182532118E+03  0.48473012016E+01  0.79820130174E+02  0.14572631331E+03  0.00000000000E+00 0. -1.
          1    1    1    2  501    0  0.66636830669E+02  0.76730439289E+02  0.25627319007E+03  0.27568818521E+03  0.00000000000E+00 0. -1.
<scales pt_clust_3="129.51117" pt_clust_4="67.90085" pt_clust_5="14000.00000" pt_clust_6="92.90945"></scales>
<clustering>
<clus scale="   67.901">  2  4  1 -1</clus>
<clus scale="   92.909">  1  6  2 -1</clus>
<clus scale="  129.511">  2  3  1 -1</clus>
<clus scale="   67.901">  2  3  1 -1</clus>
</clustering>
</event>
<event>
 6    0  0.3667994E+002  0.1875064E+03  0.7546771E-02  0.1160730E+00
          2   -1    0    0  503    0 -0.00000000000E+00  0.00000000000E+00  0.93728297192E+03  0.93728297192E+03  0.00000000000E+00 0. -1.
         21   -1    0    0  504  502  0.00000000000E+00 -0.00000000000E+00 -0.73465725860E+03  0.73465725860E+03  0.00000000000E+00 0.  1.
         21    1    1    2  503  505 -0.59424306545E+02  0.44466287989E+02  0.37451137228E+02  0.83132945668E+02  0.00000000000E+00 0. -1.
         21    1    1    2  504  501  0.88191917314E+02  0.97203398828E+02  0.20450517249E+03  0.24299934280E+03  0.00000000000E+00 0. -1.
         21    1    1    2  505  502 -0.73181142998E+02 -0.17671727327E+03 -0.67808898134E+03  0.70454889183E+03  0.00000000000E+00 0.  1.
          2    1    1    2  501    0  0.44413532228E+02  0.35047586454E+02  0.63875838495E+03  0.64125905023E+03  0.00000000000E+00 0. -1.
<scales pt_clust_3="72.12320" pt_clust_4="14000.00000" pt_clust_5="187.50636" pt_clust_6="56.57645"></scales>
<clustering>
<clus scale="   56.576">  1  6  2 -1</clus>
<clus scale="   72.123">  1  3  2 -1</clus>
<clus scale="  187.506">  2  5  1 -1</clus>
<clus scale="  187.506">  2  3  1 -1</clus>
</clustering>
</event>
<event>
 6    0  0.3667994E+002  0.2322671E+03  0.7546771E-02  0.1125054E+00
         21   -1    0    0  503  502  0.00000000000E+00  0.00000000000E+00  0.21808101137E+03  0.21808101137E+03  0.00000000000E+00 0.  1.
          2   -1    0    0  505    0 -0.00000000000E+00 -0.00000000000E+00 -0.61270958438E+03  0.61270958438E+03  0.00000000000E+00 0. -1.
         21    1    1    2  503  504 -0.71007859004E+01 -0.38525567969E+02  0.11472345192E+03  0.12122751737E+03  0.00000000000E+00 0.  1.
         21    1    1    2  504  501 -0.49456393799E+02  0.40387503712E+02 -0.72194270237E+02  0.96379966792E+02  0.00000000000E+00 0.  1.
         21    1    1    2  505  502  0.14750738399E+03 -0.14650264696E+03 -0.90571094616E+02  0.22676987691E+03  0.00000000000E+00 0.  1.
          2    1    1    2  501    0 -0.90950204287E+02  0.14464071121E+03 -0.34658666006E+03  0.38641323468E+03  0.00000000000E+00 0. -1.
<scales pt_clust_3="39.17449" pt_clust_4="37.49714" pt_clust_5="224.02158" pt_clust_6="37.49714"></scales>
<clustering>
<clus scale="   37.497">  4  6 -1 -1</clus>
<clus scale="   39.174">  1  3  2 -1</clus>
<clus scale="  224.022">  1  5  2 -1</clus>
<clus scale="   39.174">  1  3  2 -1</clus>
</clustering>
</event>
<event>
 6    0  0.3667994E+002  0.9036825E+02  0.7546771E-02  0.1301962E+00
          2   -1    0    0  504    0 -0.00000000000E+00  0.00000000000E+00  0.32748940497E+04  0.32748940497E+04  0.00000000000E+00 0.  1.
         21   -1    0    0  503  502  0.00000000000E+00 -0.00000000000E+00 -0.29638509312E+03  0.29638509312E+03  0.00000000000E+00 0.  1.
         21    1    1    2  503  505 -0.18083561634E+01  0.35849381001E+02 -0.28830869245E+03  0.29053459418E+03  0.00000000000E+00 0.  1.
         21    1    1    2  504  502 -0.94086058658E+02  0.41358903232E+02  0.53593020856E+03  0.54569582530E+03  0.00000000000E+00 0. -1.
         21    1    1    2  505  501  0.34594409071E+02 -0.12057591846E+02  0.26287029789E+03  0.26541091194E+03  0.00000000000E+00 0.  1.
          2    1    1    2  501    0  0.61300005751E+02 -0.65150692387E+02  0.24680171426E+04  0.24696378114E+04  0.00000000000E+00 0.  1.
<scales pt_clust_3="35.89496" pt_clust_4="90.36825" pt_clust_5="34.70595" pt_clust_6="14000.00000"></scales>
<clustering>
<clus scale="   35.895">  2  3  1 -1</clus>
<clus scale="   34.706">  2  5  1 -1</clus>
<clus scale="   90.368">  2  4  1 -1</clus>
<clus scale="   35.895">  2  3  1 -1</clus>
</clustering>
</event>
<event>
 6    0  0.3667994E+002  0.1664934E+03  0.7546771E-02  0.1181555E+00
         -3   -1    0    0    0  501 -0.00000000000E+00  0.00000000000E+00  0.11795159121E+04  0.11795159121E+04  0.00000000000E+00 0.  1.
         21   -1    0    0  505  502  0.00000000000E+00 -0.00000000000E+00 -0.16067633058E+04  0.16067633058E+04  0.00000000000E+00 0. -1.
         21    1    1    2  503  504  0.14485502391E+03 -0.66459735130E+02  0.28124945917E+03  0.32326634936E+03  0.00000000000E+00 0.  1.
         21    1    1    2  504  502  0.54460346353E+02  0.22801560474E+02 -0.15669631133E+04  0.15680750107E+04  0.00000000000E+00 0. -1.
         21    1    1    2  505  501 -0.58118839962E+02  0.62507746675E+01  0.62087613182E+02  0.85274518193E+02  0.00000000000E+00 0. -1.
         -3    1    1    2    0  503 -0.14119653030E+03  0.37407399989E+02  0.79637864726E+03  0.80966333963E+03  0.00000000000E+00 0.  1.
<scales pt_clust_3="14000.00000" pt_clust_4="59.01527" pt_clust_5="58.45401" pt_clust_6="166.49337"></scales>
<clustering>
<clus scale="   58.454">  1  5  2 -1</clus>
<clus scale="   59.015">  2  4  1 -1</clus>
<clus scale="  166.493">  1  6  2 -1</clus>
<clus scale="   59.015">  2  3  1 -1</clus>
</clustering>
</event>
<event>
 6    0  0.3667994E+002  0.1796549E+03  0.7546771E-02  0.1168137E+00
          1   -1    0    0  504    0 -0.00000000000E+00  0.00000000000E+00  0.25623631556E+04  0.25623631556E+04  0.00000000000E+00 0.  1.
         21   -1    0    0  503  502  0.00000000000E+00 -0.00000000000E+00 -0.33878791701E+03  0.33878791701E+03  0.00000000000E+00 0.  1.
         21    1    1    2  503  501  0.11780489062E+03  0.15363550126E+03  0.10326389206E+04  0.10506307628E+04  0.00000000000E+00 0.  1.
         21    1    1    2  504  505 -0.75340481572E+02  0.50386755148E+02  0.59239391782E+03  0.59928754962E+03  0.00000000000E+00 0.  1.
         21    1    1    2  505  502 -0.86704994355E+01 -0.30354168884E+02 -0.31709304707E+03  0.31866056177E+03  0.00000000000E+00 0.  1.
          1    1    1    2  501    0 -0.33793909615E+02 -0.17366808752E+03  0.91563544726E+03  0.93257219840E+03  0.00000000000E+00 0.  1.
<scales pt_clust_3="179.65488" pt_clust_4="89.18091" pt_clust_5="31.56823" pt_clust_6="14000.00000"></scales>
<clustering>
<clus scale="   31.568">  2  5  1 -1</clus>
<clus scale="   89.181">  1  4  2 -1</clus>
<clus scale="  179.655">  2  3  1 -1</clus>
<clus scale="   31.568">  2  3  1 -1</clus>
</clustering>
</event>
<event>
 6    0  0.3667994E+002  0.1384187E+03  0.7546771E-02  0.1215473E+00
         -3   -1    0    0    0  501 -0.00000000000E+00  0.00000000000E+00  0.28151952861E+03  0.28151952861E+03  0.00000000000E+00 0.  1.
         21   -1    0    0  505  502  0.00000000000E+00 -0.00000000000E+00 -0.33253870467E+03  0.33253870467E+03  0.00000000000E+00 0.  1.
         21    1    1    2  503  504 -0.18500499899E+02  0.40116765438E+02  0.17927667149E+03  0.18463950906E+03  0.00000000000E+00 0.  1.
         21    1    1    2  504  501  0.67717949678E+01  0.35919642514E+02  0.20926455209E+02  0.42118813528E+02  0.00000000000E+00 0.  1.
         21    1    1    2  505  503 -0.10410545590E+03  0.56580983366E+02 -0.10805770319E+03  0.16036153169E+03  0.00000000000E+00 0.  1.
         -3    1    1    2    0  502  0.11583416083E+03 -0.13261739132E+03 -0.14316459957E+03  0.22693837900E+03  0.00000000000E+00 0.  1.
<scales pt_clust_3="67.63619" pt_clust_4="36.55240" pt_clust_5="14000.00000" pt_clust_6="138.41871"></scales>
<clustering>
<clus scale="   36.552">  1  4  2 -1</clus>
<clus scale="   67.636">  1  3  2 -1</clus>
<clus scale="  138.419">  1  6  2 -1</clus>
<clus scale="  138.419">  2  3  1 -1</clus>
</clustering>
</event>
<event>
 6    0  0.3667994E+002  0.1267383E+03  0.7546771E-02  0.1232377E+00
         21   -1    0    0  505  502  0.00000000000E+00  0.00000000000E+00  0.26362701546E+03  0.26362701546E+03  0.00000000000E+00 0. -1.
          1   -1    0    0  504    0 -0.00000000000E+00 -0.00000000000E+00 -0.15450558808E+04  0.15450558808E+04  0.00000000000E+00 0.  1.
         21    1    1    2  503  502  0.15239706220E+03 -0.48142345603E+02  0.19330180511E+03  0.25081494745E+03  0.00000000000E+00 0. -1.
         21    1    1    2  504  503 -0.55842273266E+02 -0.11720872851E+03 -0.11850195454E+04  0.11921105521E+04  0.00000000000E+00 0.  1.
         21    1    1    2  505  501 -0.36699325319E+02  0.24179475249E+02 -0.75063492312E+01  0.44585118380E+02  0.00000000000E+00 0.  1.
          1    1    1    2  501    0 -0.59855463611E+02  0.14117159886E+03 -0.28220477580E+03  0.32117227827E+03  0.00000000000E+00 0.  1.
<scales pt_clust_3="122.00028" pt_clust_4="14000.00000" pt_clust_5="43.94869" pt_clust_6="126.73827"></scales>
<clustering>
<clus scale="   43.949">  1  5  2 -1</clus>
<clus scale="  122.000">  1  3  2 -1</clus>
<clus scale="  126.738">  1  6  2 -1</clus>
<clus scale="   43.949">  1  3  2 -1</clus>
</clustering>
</event>
<event>
 6    0  0.3667994E+002  0.1678270E+03  0.7546771E-02  0.1180133E+00
          4   -1    0    0  504    0 -0.00000000000E+00  0.00000000000E+00  0.80579639410E+02  0.80579639410E+02  0.00000000000E+00 0. -1.
         21   -1    0    0  505  502  0.00000000000E+00 -0.00000000000E+00 -0.70149640034E+03  0.70149640034E+03  0.00000000000E+00 0.  1.
         21    1    1    2  503  501 -0.92118419236E+02  0.15212463361E+03 -0.11573354539E+03  0.21218379024E+03  0.00000000000E+00 0. -1.
         21    1    1    2  504  502  0.12435593655E+03 -0.82797093908E+02 -0.30869588196E+03  0.34294737972E+03  0.00000000000E+00 0.  1.
         21    1    1    2  505  503 -0.32098098664E+01 -0.61057133970E+02 -0.18467456041E+03  0.19453269584E+03  0.00000000000E+00 0.  1.
          4    1    1    2  501    0 -0.29027707445E+02 -0.82704057338E+01 -0.11812773177E+02  0.32412173957E+02  0.00000000000E+00 0. -1.
<scales pt_clust_3="167.82695" pt_clust_4="14000.00000" pt_clust_5="61.85999" pt_clust_6="30.18290"></scales>
<clustering>
<clus scale="   30.183">  1  6  2 -1</clus>
<clus scale="   61.860">  2  5  1 -1</clus>
<clus scale="  167.827">  1  3  2 -1</clus>
<clus scale="   61.860">  2  3  1 -1</clus>
</clustering>
</event>
<event>
 6    0  0.3667994E+002  0.8415060E+02  0.7546771E-02  0.1317669E+00
          1   -1    0    0  503    0 -0.00000000000E+00  0.00000000000E+00  0.89020954273E+03  0.89020954273E+03  0.00000000000E+00 0.  1.
         21   -1    0    0  505  502  0.00000000000E+00 -0.00000000000E+00 -0.48386967466E+02  0.48386967466E+02  0.00000000000E+00 0. -1.
         21    1    1    2  503  504  0.17280500675E+02  0.36378347964E+02  0.10975423663E+03  0.11691018930E+03  0.00000000000E+00 0.  1.
         21    1    1    2  504  502  0.39371628526E+02 -0.10929017797E+03  0.53154866413E+02  0.12774939514E+03  0.00000000000E+00 0. -1.
         21    1    1    2  505  501 -0.37020183283E+02  0.21855491290E+02  0.67148356707E+02  0.79731162529E+02  0.00000000000E+00 0.  1.
          1    1    1    2  501    0 -0.19631945918E+02  0.51056338721E+02  0.61176511552E+03  0.61420576323E+03  0.00000000000E+00 0.  1.
<scales pt_clust_3="40.27406" pt_clust_4="84.15060" pt_clust_5="43.49736" pt_clust_6="14000.00000"></scales>
<clustering>
<clus scale="   40.274">  1  3  2 -1</clus>
<clus scale="   43.497">  2  5  1 -1</clus>
<clus scale="   84.151">  2  4  1 -1</clus>
<clus scale="   43.497">  2  3  1 -1</clus>
</clustering>
</event>
<event>
 6    0  0.3667994E+002  0.1477285E+03  0.7546771E-02  0.1203292E+00
          2   -1    0    0  503    0 -0.00000000000E+00  0.00000000000E+00  0.21555432674E+04  0.21555432674E+04  0.00000000000E+00 0. -1.
         21   -1    0    0  505  502  0.00000000000E+00 -0.00000000000E+00 -0.39716055262E+02  0.39716055262E+02  0.00000000000E+00 0. -1.
         21    1    1    2  503  504 -0.49952102716E+02  0.11536838545E+02  0.61303472093E+03  0.61517467460E+03  0.00000000000E+00 0.  1.
         21    1    1    2  504  502  0.52453758496E+02 -0.12551573030E+03  0.27917640363E+03  0.31055604917E+03  0.00000000000E+00 0. -1.
         21    1    1    2  505  501  0.27481886361E+02 -0.15099968149E+02 -0.67263689507E+01  0.32070346978E+02  0.00000000000E+00 0. -1.
          2    1    1    2  501    0 -0.29983542140E+02  0.12907885991E+03  0.12303424565E+04  0.12374582519E+04  0.00000000000E+00 0. -1.
<scales pt_clust_3="49.68000" pt_clust_4="14000.00000" pt_clust_5="31.35703" pt_clust_6="147.72851"></scales>
<clustering>
<clus scale="   31.357">  2  5  1 -1</clus>
<clus scale="   49.680">  1  3  2 -1</clus>
<clus scale="  147.729">  1  6  2 -1</clus>
<clus scale="   31.357">  2  3  1 -1</clus>
</clustering>
</event>
<event>
 6    0  0.3667994E+002  0.1238136E+03  0.7546771E-02  0.1236935E+00
         21   -1    0    0  503  502  0.00000000000E+00  0.00000000000E+00  0.13094457029E+03  0.13094457029E+03  0.00000000000E+00 0.  1.
          2   -1    0    0  504    0 -0.00000000000E+00 -0.00000000000E+00 -0.34072341920E+04  0.34072341920E+04  0.00000000000E+00 0.  1.
         21    1    1    2  503  505 -0.38558688355E+02  0.14043791642E+02 -0.32752725869E+03  0.33008802723E+03  0.00000000000E+00 0.  1.
         21    1    1    2  504  502  0.93718800041E+02 -0.54853523610E+02  0.10462670107E+03  0.15079412824E+03  0.00000000000E+00 0.  1.
         21    1    1    2  505  501 -0.69869067995E+02  0.80225589039E+02 -0.17514769363E+04  0.17547049012E+04  0.00000000000E+00 0.  1.
          2    1    1    2  501    0  0.14708956309E+02 -0.39415857071E+02 -0.13019121278E+04  0.13025917057E+04  0.00000000000E+00 0.  1.
<scales pt_clust_3="36.53182" pt_clust_4="108.94948" pt_clust_5="36.53182" pt_clust_6="42.07093"></scales>
<clustering>
<clus scale="   36.532">  3  5 -1 -1</clus>
<clus scale="   42.071">  2  6  1 -1</clus>
<clus scale="  108.949">  1  4  2 -1</clus>
<clus scale="  108.949">  1  3  2 -1</clus>
</clustering>
</event>
<event>
 6    0  0.3667994E+002  0.1766758E+03  0.7546771E-02  0.1171060E+00
          2   -1    0    0  505    0 -0.00000000000E+00  0.00000000000E+00  0.32598571879E+04  0.32598571879E+04  0.00000000000E+00 0.  1.
         21   -1    0    0  504  502  0.00000000000E+00 -0.00000000000E+00 -0.10273318797E+03  0.10273318797E+03  0.00000000000E+00 0.  1.
         21    1    1    2  503  502  0.64164508232E+00  0.17738258955E+03  0.12496202068E+02  0.17782336700E+03  0.00000000000E+00 0.  1.
         21    1    1    2  504  501 -0.23245137093E+02 -0.17186217824E+03  0.59721316345E+03  0.62188464148E+03  0.00000000000E+00 0.  1.
         21    1    1    2  505  503  0.81963160694E+02 -0.14960179507E+02  0.22895092316E+03  0.24363967637E+03  0.00000000000E+00 0.  1.
          2    1    1    2  501    0 -0.59359668683E+02  0.94397682011E+01  0.23184637113E+04  0.23192426911E+04  0.00000000000E+00 0.  1.
<scales pt_clust_3="14000.00000" pt_clust_4="176.67576" pt_clust_5="68.22897" pt_clust_6="60.10557"></scales>
<clustering>
<clus scale="   60.106">  1  6  2 -1</clus>
<clus scale="   68.229">  1  5  2 -1</clus>
<clus scale="  176.676">  1  4  2 -1</clus>
<clus scale="  176.676">  2  3  1 -1</clus>
</clustering>
</event>
<event>
 6    0  0.3667994E+002  0.8583777E+02  0.7546771E-02  0.1313256E+00
         21   -1    0    0  503  502  0.00000000000E+00  0.00000000000E+00  0.80645840414E+02  0.80645840414E+02  0.00000000000E+00 0. -1.
         -2   -1    0    0    0  501 -0.00000000000E+00 -0.00000000000E+00 -0.67759718639E+03  0.67759718639E+03  0.00000000000E+00 0. -1.
         21    1    1    2  503  505 -0.11363479573E+02 -0.30544240212E+02  0.56045460156E+02  0.64831881681E+02  0.00000000000E+00 0. -1.
         21    1    1    2  504  501 -0.20795333334E+02 -0.26967534513E+02 -0.22516642705E+03  0.22772705960E+03  0.00000000000E+00 0.  1.
         21    1    1    2  505  504 -0.19650386144E+01  0.11605316496E+03 -0.27667490091E+03  0.30003533003E+03  0.00000000000E+00 0. -1.
         -2    1    1    2    0  502  0.34123851522E+02 -0.58541390232E+02 -0.15115547818E+03  0.16564875549E+03  0.00000000000E+00 0. -1.
<scales pt_clust_3="32.58956" pt_clust_4="36.03167" pt_clust_5="14000.00000" pt_clust_6="85.83777"></scales>
<clustering>
<clus scale="   32.590">  1  3  2 -1</clus>
<clus scale="   36.032">  2  4  1 -1</clus>
<clus scale="   85.838">  1  6  2 -1</clus>
<clus scale="   32.590">  1  3  2 -1</clus>
</clustering>
</event>
<event>
 6    0  0.3667994E+002  0.1134554E+03  0.7546771E-02  0.1254302E+00
         21   -1    0    0  504  502  0.00000000000E+00  0.00000000000E+00  0.49040901505E+02  0.49040901505E+02  0.00000000000E+00 0. -1.
          2   -1    0    0  503    0 -0.00000000000E+00 -0.00000000000E+00 -0.17477469473E+04  0.17477469473E+04  0.00000000000E+00 0.  1.
         21    1    1    2  503  502  0.24029205163E+02 -0.60630101858E+02 -0.14431714722E+03  0.15836934973E+03  0.00000000000E+00 0.  1.
         21    1    1    2  504  505 -0.12683570417E+03  0.62439533656E+02 -0.85433759857E+02  0.16518147153E+03  0.00000000000E+00 0. -1.
         21    1    1    2  505  501  0.40619875029E+02  0.76819984487E+01 -0.87134349556E+03  0.87232360659E+03  0.00000000000E+00 0. -1.
          2    1    1    2  501    0  0.62186623975E+02 -0.94914302468E+01 -0.59761164318E+03  0.60091342098E+03  0.00000000000E+00 0.  1.
<scales pt_clust_3="65.21819" pt_clust_4="104.14624" pt_clust_5="36.48568" pt_clust_6="36.48568"></scales>
<clustering>
<clus scale="   36.486">  5  6 -1 -1</clus>
<clus scale="   65.218">  1  3  2 -1</clus>
<clus scale="  104.146">  1  4  2 -1</clus>
<clus scale="   65.218">  1  3  2 -1</clus>
</clustering>
</event>
<event>
 6    0  0.3667994E+002  0.8118067E+02  0.7546771E-02  0.1325734E+00
          1   -1    0    0  505    0 -0.00000000000E+00  0.00000000000E+00  0.37789008874E+02  0.37789008874E+02  0.00000000000E+00 0. -1.
         21   -1    0    0  501  502  0.00000000000E+00 -0.00000000000E+00 -0.55697269828E+03  0.55697269828E+03  0.00000000000E+00 0. -1.
         21    1    1    2  503  502 -0.92226222013E+02  0.51337969686E+02 -0.29259996206E+03  0.31105626654E+03  0.00000000000E+00 0. -1.
         21    1    1    2  504  503  0.26203424280E+01 -0.54987494382E+02 -0.75438683723E+02  0.93388895136E+02  0.00000000000E+00 0. -1.
         21    1    1    2  505  504  0.28203254268E+02  0.20926020799E+02 -0.11770116540E+02  0.37038595291E+02  0.00000000000E+00 0. -1.
          1    1    1    2  501    0  0.61402625317E+02 -0.17276496102E+02 -0.13937492709E+03  0.15327795019E+03  0.00000000000E+00 0. -1.
<scales pt_clust_3="81.18067" pt_clust_4="49.18460" pt_clust_5="35.11868" pt_clust_6="14000.00000"></scales>
<clustering>
<clus scale="   35.119">  1  5  2 -1</clus>
<clus scale="   49.185">  1  4  2 -1</clus>
<clus scale="   81.181">  1  3  2 -1</clus>
<clus scale="   81.181">  2  3  1 -1</clus>
</clustering>
</event>
<event>
 6    0  0.3667994E+002  0.1097559E+03  0.7546771E-02  0.1261023E+00
         21   -1    0    0  505  502  0.00000000000E+00  0.00000000000E+00  0.68745967419E+02  0.68745967419E+02  0.00000000000E+00 0. -1.
         -2   -1    0    0    0  501 -0.00000000000E+00 -0.00000000000E+00 -0.42086819840E+03  0.42086819840E+03  0.00000000000E+00 0.  1.
         21    1    1    2  503  502  0.47864023322E+02  0.74568834954E+02 -0.18365568421E+02  0.90491822716E+02  0.00000000000E+00 0. -1.
         21    1    1    2  504  501 -0.56488360466E+01  0.29960306527E+02 -0.68988632062E+02  0.75425199168E+02  0.00000000000E+00 0.  1.
         21    1    1    2  505  504  0.43677094635E+02 -0.55509977438E+01 -0.25470928860E+02  0.50865217867E+02  0.00000000000E+00 0. -1.
         -2    1    1    2    0  503 -0.85892281910E+02 -0.98978143737E+02 -0.23929710164E+03  0.27283192607E+03  0.00000000000E+00 0.  1.
<scales pt_clust_3="14000.00000" pt_clust_4="30.48818" pt_clust_5="43.11857" pt_clust_6="109.75588"></scales>
<clustering>
<clus scale="   30.488">  2  4  1 -1</clus>
<clus scale="   43.119">  1  5  2 -1</clus>
<clus scale="  109.756">  2  6  1 -1</clus>
<clus scale="   43.119">  1  3  2 -1</clus>
</clustering>
</event>
<event>
 6    0  0.3667994E+002  0.1084603E+03  0.7546771E-02  0.1263448E+00
         21   -1    0    0  504  502  0.00000000000E+00  0.00000000000E+00  0.14385962087E+03  0.14385962087E+03  0.00000000000E+00 0. -1.
          1   -1    0    0  503    0 -0.00000000000E+00 -0.00000000000E+00 -0.14933134017E+04  0.14933134017E+04  0.00000000000E+00 0.  1.
         21    1    1    2  503  505  0.49238991220E+02 -0.40130078520E+02 -0.96197622514E+02  0.11527742206E+03  0.00000000000E+00 0. -1.
         21    1    1    2  504  501 -0.39955524011E+02 -0.36278820423E+02 -0.75174898020E+03  0.75368370417E+03  0.00000000000E+00 0.  1.
         21    1    1    2  505  502  0.51908407982E+02  0.87665417019E+02  0.11208766454E+03  0.15147063314E+03  0.00000000000E+00 0. -1.
          1    1    1    2  501    0 -0.61191875191E+02 -0.11256518076E+02 -0.61359484268E+03  0.61674126322E+03  0.00000000000E+00 0.  1.
<scales pt_clust_3="63.52087" pt_clust_4="34.97728" pt_clust_5="101.75074" pt_clust_6="34.97728"></scales>
<clustering>
<clus scale="   34.977">  4  6 -1 -1</clus>
<clus scale="   63.521">  2  3  1 -1</clus>
<clus scale="  101.751">  1  5  2 -1</clus>
<clus scale="  101.751">  1  3  2 -1</clus>
</clustering>
</event>
<event>
 6    0  0.3667994E+002  0.1623514E+03  0.7546771E-02  0.1186067E+00
         21   -1    0    0  505  502  0.00000000000E+00  0.00000000000E+00  0.24310970057E+03  0.24310970057E+03  0.00000000000E+00 0.  1.
          2   -1    0    0  504    0 -0.00000000000E+00 -0.00000000000E+00 -0.15020924515E+04  0.15020924515E+04  0.00000000000E+00 0.  1.
         21    1    1    2  503  501  0.39150229128E+02 -0.43474577151E+02 -0.80322606722E+02  0.99370521030E+02  0.00000000000E+00 0. -1.
         21    1    1    2  504  502  0.57436138853E+02 -0.64673597219E+02 -0.90042807496E+03  0.90457299451E+03  0.00000000000E+00 0.  1.
         21    1    1    2  505  503 -0.13518963025E+03  0.94432369419E+02  0.20116323662E+03  0.26011604389E+03  0.00000000000E+00 0.  1.
          2    1    1    2  501    0  0.38603262270E+02  0.13715804951E+02 -0.47939530589E+03  0.48114259266E+03  0.00000000000E+00 0.  1.
<scales pt_clust_3="59.97224" pt_clust_4="162.35138" pt_clust_5="14000.00000" pt_clust_6="40.96749"></scales>
<clustering>
<clus scale="   40.967">  2  6  1 -1</clus>
<clus scale="   59.972">  2  3  1 -1</clus>
<clus scale="  162.351">  2  4  1 -1</clus>
<clus scale="  162.351">  1  3  2 -1</clus>
</clustering>
</event>
<event>
 6    0  0.3667994E+002  0.4289933E+03  0.7546771E-02  0.1034178E+00
         21   -1    0    0  505  502  0.00000000000E+00  0.00000000000E+00  0.24739708165E+03  0.24739708165E+03  0.00000000000E+00 0. -1.
         -1   -1    0    0    0  501 -0.00000000000E+00 -0.00000000000E+00 -0.18312429174E+04  0.18312429174E+04  0.00000000000E+00 0.  1.
         21    1    1    2  503  502  0.15282807633E+03  0.68468240379E+02 -0.44638573674E+03  0.47676466608E+03  0.00000000000E+00 0.  1.
         21    1    1    2  504  501 -0.43228394728E+03 -0.61096212480E+02 -0.16775559713E+03  0.46770086446E+03  0.00000000000E+00 0. -1.
         21    1    1    2  505  504  0.31797809491E+02 -0.27336204811E+02  0.60957146714E+02  0.73987448378E+02  0.00000000000E+00 0. -1.
         -1    1    1    2    0  503  0.24765806145E+03  0.19964176912E+02 -0.10306616486E+04  0.10601870201E+04  0.00000000000E+00 0.  1.
<scales pt_clust_3="91.17878" pt_clust_4="414.35875" pt_clust_5="41.93291" pt_clust_6="91.17878"></scales>
<clustering>
<clus scale="   41.933">  1  5  2 -1</clus>
<clus scale="   91.179">  3  6 -1 -1</clus>
<clus scale="  414.359">  1  4  2 -1</clus>
<clus scale="   41.933">  1  3  2 -1</clus>
</clustering>
</event>
<event>
 6    0  0.3667994E+002  0.1116355E+03  0.7546771E-02  0.1257571E+00
         -3   -1    0    0    0  501 -0.00000000000E+00  0.00000000000E+00  0.11784433665E+03  0.11784433665E+03  0.00000000000E+00 0. -1.
         21   -1    0    0  505  502  0.00000000000E+00 -0.00000000000E+00 -0.99590491555E+03  0.99590491555E+03  0.00000000000E+00 0.  1.
         21    1    1    2  503  501  0.10461612368E+03 -0.22753043993E+02 -0.53315693552E+02  0.11960266520E+03  0.00000000000E+00 0. -1.
         21    1    1    2  504  502 -0.10989046276E+03  0.57977537965E+01 -0.15936322240E+03  0.19366508309E+03  0.00000000000E+00 0. -1.
         21    1    1    2  505  503 -0.14454227422E+02 -0.37299007690E+02 -0.71993976021E+03  0.72105020560E+03  0.00000000000E+00 0.  1.
         -3    1    1    2    0  504  0.19728566497E+02  0.54254297887E+02  0.54558097261E+02  0.79431298315E+02  0.00000000000E+00 0. -1.
<scales pt_clust_3="111.63548" pt_clust_4="14000.00000" pt_clust_5="40.00176" pt_clust_6="55.92399"></scales>
<clustering>
<clus scale="   40.002">  2  5  1 -1</clus>
<clus scale="   55.924">  1  6  2 -1</clus>
<clus scale="  111.635">  1  3  2 -1</clus>
<clus scale="   40.002">  2  3  1 -1</clus>
</clustering>
</event>
<event>
 6    0  0.4933840E+002  0.1381360E+03  0.7546771E-02  0.1215859E+00
         21   -1    0    0  504  502  0.00000000000E+00  0.00000000000E+00  0.11872458905E+04  0.11872458905E+04  0.00000000000E+00 0.  1.
          2   -1    0    0  503    0 -0.00000000000E+00 -0.00000000000E+00 -0.33809326698E+04  0.33809326698E+04  0.00000000000E+00 0.  1.
         21    1    1    2  503  502 -0.88527363814E+02 -0.24791926791E+01 -0.41898237865E+03  0.42823997263E+03  0.00000000000E+00 0.  1.
         21    1    1    2  504  505  0.13091004908E+03 -0.45745843208E+02  0.11661854709E+04  0.11744014116E+04  0.00000000000E+00 0.  1.
         21    1    1    2  505  501 -0.18726200113E+02  0.78038585400E+02 -0.11983700540E+03  0.14422759530E+03  0.00000000000E+00 0. -1.
          2    1    1    2  501    0 -0.23656485155E+02 -0.29813549513E+02 -0.28210528661E+04  0.28213095807E+04  0.00000000000E+00 0.  1.
<scales pt_clust_3="138.13599" pt_clust_4="14000.00000" pt_clust_5="75.05119" pt_clust_6="38.05886"></scales>
<clustering>
<clus scale="   38.059">  2  6  1 -1</clus>
<clus scale="   75.051">  2  5  1 -1</clus>
<clus scale="  138.136">  2  3  1 -1</clus>
<clus scale="  138.136">  1  3  2 -1</clus>
</clustering>
</event>
<event>
 6    0  0.3667994E+002  0.1286965E+03  0.7546771E-02  0.1229403E+00
          2   -1    0    0  505    0 -0.00000000000E+00  0.00000000000E+00  0.16428004036E+04  0.16428004036E+04  0.00000000000E+00 0.  1.
         21   -1    0    0  504  502  0.00000000000E+00 -0.00000000000E+00 -0.25463167935E+03  0.25463167935E+03  0.00000000000E+00 0. -1.
         21    1    1    2  503  502  0.58364239419E+02 -0.13905872157E+03  0.80246039966E+03  0.81650866836E+03  0.00000000000E+00 0.  1.
         21    1    1    2  504  501 -0.39935386756E+01 -0.36896748223E+02 -0.23273122641E+03  0.23567168291E+03  0.00000000000E+00 0. -1.
         21    1    1    2  505  503 -0.40279978299E+02  0.10652070130E+03  0.68271014389E+03  0.69214324892E+03  0.00000000000E+00 0.  1.
          2    1    1    2  501    0 -0.14090722444E+02  0.69434768495E+02  0.13572940711E+03  0.15310848275E+03  0.00000000000E+00 0.  1.
<scales pt_clust_3="128.69651" pt_clust_4="37.11224" pt_clust_5="14000.00000" pt_clust_6="56.01301"></scales>
<clustering>
<clus scale="   37.112">  2  4  1 -1</clus>
<clus scale="   56.013">  2  6  1 -1</clus>
<clus scale="  128.697">  2  3  1 -1</clus>
<clus scale="   37.112">  2  3  1 -1</clus>
</clustering>
</event>
<event>
 6    0  0.3667994E+002  0.8552060E+02  0.7546771E-02  0.1314077E+00
          1   -1    0    0  503    0 -0.00000000000E+00  0.00000000000E+00  0.19145580779E+04  0.19145580779E+04  0.00000000000E+00 0.  1.
         21   -1    0    0  501  502  0.00000000000E+00 -0.00000000000E+00 -0.34534484412E+02  0.34534484412E+02  0.00000000000E+00 0.  1.
         21    1    1    2  503  505  0.39689589965E+02 -0.71017468031E+02  0.14103463417E+04  0.14126908890E+04  0.00000000000E+00 0.  1.
         21    1    1    2  504  502 -0.35700444074E+02 -0.27436926075E+02  0.60243381084E+01  0.45426856255E+02  0.00000000000E+00 0.  1.
         21    1    1    2  505  504 -0.37308540876E+02  0.10752658607E+03  0.42090380832E+03  0.43602053827E+03  0.00000000000E+00 0.  1.
          1    1    1    2  501    0  0.33319394985E+02 -0.90721919592E+01  0.42749105401E+02  0.54954278830E+02  0.00000000000E+00 0.  1.
<scales pt_clust_3="85.52060" pt_clust_4="36.00467" pt_clust_5="14000.00000" pt_clust_6="34.53240"></scales>
<clustering>
<clus scale="   34.532">  2  6  1 -1</clus>
<clus scale="   36.005">  2  4  1 -1</clus>
<clus scale="   85.521">  1  3  2 -1</clus>
<clus scale="   34.532">  2  3  1 -1</clus>
</clustering>
</event>
<event>
 6    0  0.3667994E+002  0.2303862E+03  0.7546771E-02  0.1126368E+00
         21   -1    0    0  505  502  0.00000000000E+00  0.00000000000E+00  0.86884325146E+02  0.86884325146E+02  0.00000000000E+00 0. -1.
          1   -1    0    0  503    0 -0.00000000000E+00 -0.00000000000E+00 -0.81834427342E+03  0.81834427342E+03  0.00000000000E+00 0. -1.
         21    1    1    2  503  502  0.37919202079E+02 -0.20410439258E+02 -0.18185929774E+03  0.18688835194E+03  0.00000000000E+00 0. -1.
         21    1    1    2  504  501 -0.96373573047E+02 -0.25242722462E+02 -0.11123307056E+03  0.14932466844E+03  0.00000000000E+00 0. -1.
         21    1    1    2  505  504  0.19714509634E+03 -0.13719428208E+02 -0.16789389041E+03  0.25931210954E+03  0.00000000000E+00 0. -1.
          1    1    1    2  501    0 -0.13869072537E+03  0.59372589928E+02 -0.27047368957E+03  0.30970346864E+03  0.00000000000E+00 0. -1.
<scales pt_clust_3="43.06335" pt_clust_4="78.14606" pt_clust_5="210.92915" pt_clust_6="78.14606"></scales>
<clustering>
<clus scale="   43.063">  2  3  1 -1</clus>
<clus scale="   78.146">  4  6 -1 -1</clus>
<clus scale="  210.929">  1  5  2 -1</clus>
<clus scale="  210.929">  1  3  2 -1</clus>
</clustering>
</event>
<event>
 6    0  0.3667994E+002  0.1075200E+03  0.7546771E-02  0.1265233E+00
          2   -1    0    0  503    0 -0.00000000000E+00  0.00000000000E+00  0.26548377494E+04  0.26548377494E+04  0.00000000000E+00 0.  1.
         21   -1    0    0  501  502  0.00000000000E+00 -0.00000000000E+00 -0.16489073874E+03  0.16489073874E+03  0.00000000000E+00 0. -1.
         21    1    1    2  503  505  0.18177332534E+02  0.40085466368E+02  0.23996404804E+03  0.24396721990E+03  0.00000000000E+00 0.  1.
         21    1    1    2  504  502 -0.82862330984E+01 -0.10799304192E+03 -0.14308234251E+03  0.17945393699E+03  0.00000000000E+00 0. -1.
         21    1    1    2  505  504 -0.52640303755E+02  0.31072329169E+02  0.84201798478E+03  0.84423384078E+03  0.00000000000E+00 0.  1.
          2    1    1    2  501    0  0.42749204319E+02  0.36835246383E+02  0.15510473204E+04  0.15520734905E+04  0.00000000000E+00 0.  1.
<scales pt_clust_3="44.01432" pt_clust_4="107.52005" pt_clust_5="64.61256" pt_clust_6="14000.00000"></scales>
<clustering>
<clus scale="   44.014">  1  3  2 -1</clus>
<clus scale="   64.613">  1  5  2 -1</clus>
<clus scale="  107.520">  2  4  1 -1</clus>
<clus scale="  107.520">  2  3  1 -1</clus>
</clustering>
</event>
<event>
 6    0  0.3667994E+002  0.1186973E+03  0.7546771E-02  0.1245262E+00
         21   -1    0    0  504  502  0.00000000000E+00  0.00000000000E+00  0.37340287178E+03  0.37340287178E+03  0.00000000000E+00 0.  1.
          2   -1    0    0  503    0 -0.00000000000E+00 -0.00000000000E+00 -0.34904850462E+03  0.34904850462E+03  0.00000000000E+00 0.  1.
         21    1    1    2  503  502 -0.32723361470E+02  0.82034445952E+01  0.23630351357E+03  0.23869952957E+03  0.00000000000E+00 0.  1.
         21    1    1    2  504  505  0.58633190012E+02  0.59506922441E+02  0.66277998087E+02  0.10663816306E+03  0.00000000000E+00 0.  1.
         21    1    1    2  505  501 -0.12794937420E+03 -0.23724794611E+01 -0.10402984185E+03  0.16492082650E+03  0.00000000000E+00 0.  1.
          2    1    1    2  501    0  0.10203954566E+03 -0.65337887575E+02 -0.17419730265E+03  0.21219285728E+03  0.00000000000E+00 0.  1.
<scales pt_clust_3="33.73596" pt_clust_4="74.96277" pt_clust_5="118.69725" pt_clust_6="14000.00000"></scales>
<clustering>
<clus scale="   33.736">  1  3  2 -1</clus>
<clus scale="   74.963">  1  4  2 -1</clus>
<clus scale="  118.697">  1  5  2 -1</clus>
<clus scale="   33.736">  1  3  2 -1</clus>
</clustering>
</event>
<event>
 6    0  0.3667994E+002  0.2347817E+03  0.7546771E-02  0.1123319E+00
          2   -1    0    0  505    0 -0.00000000000E+00  0.00000000000E+00  0.97248064004E+03  0.97248064004E+03  0.00000000000E+00 0. -1.
         21   -1    0    0  503  502  0.00000000000E+00 -0.00000000000E+00 -0.87094734461E+02  0.87094734461E+02  0.00000000000E+00 0. -1.
         21    1    1    2  503  504  0.79251171220E+02  0.21588329710E+03  0.19462351074E+03  0.30127173289E+03  0.00000000000E+00 0. -1.
         21    1    1    2  504  501 -0.27988424986E+02 -0.32174619557E+02  0.11517988474E+03  0.12282086112E+03  0.00000000000E+00 0.  1.
         21    1    1    2  505  502 -0.28646874216E+02 -0.94692771641E+01  0.34132634262E+03  0.34265723803E+03  0.00000000000E+00 0. -1.
          2    1    1    2  501    0 -0.22615872018E+02 -0.17423940038E+03  0.23425616748E+03  0.29282554246E+03  0.00000000000E+00 0. -1.
<scales pt_clust_3="222.78605" pt_clust_4="37.95035" pt_clust_5="30.17135" pt_clust_6="37.95035"></scales>
<clustering>
<clus scale="   30.171">  1  5  2 -1</clus>
<clus scale="   37.950">  4  6 -1 -1</clus>
<clus scale="  222.786">  2  3  1 -1</clus>
<clus scale="  222.786">  2  3  1 -1</clus>
</clustering>
</event>
<event>
 6    0  0.3667994E+002  0.1396247E+03  0.7546771E-02  0.1213835E+00
          2   -1    0    0  505    0 -0.00000000000E+00  0.00000000000E+00  0.16883935766E+04  0.16883935766E+04  0.00000000000E+00 0.  1.
         21   -1    0    0  501  502  0.00000000000E+00 -0.00000000000E+00 -0.25784670632E+03  0.25784670632E+03  0.00000000000E+00 0. -1.
         21    1    1    2  503  504  0.88373516212E+02  0.20644540249E+02  0.42475571374E+03  0.43434259722E+03  0.00000000000E+00 0.  1.
         21    1    1    2  504  502 -0.20967390196E+02 -0.13795356848E+03 -0.21927090480E+03  0.25990488299E+03  0.00000000000E+00 0. -1.
         21    1    1    2  505  503  0.16016421363E+01 -0.39024460381E+02  0.44847205930E+02  0.59470544350E+02  0.00000000000E+00 0.  1.
          2    1    1    2  501    0 -0.69007768152E+02  0.15633348861E+03  0.11802148554E+04  0.11925222584E+04  0.00000000000E+00 0.  1.
<scales pt_clust_3="89.40093" pt_clust_4="139.62473" pt_clust_5="39.05731" pt_clust_6="14000.00000"></scales>
<clustering>
<clus scale="   39.057">  1  5  2 -1</clus>
<clus scale="   89.401">  1  3  2 -1</clus>
<clus scale="  139.625">  2  4  1 -1</clus>
<clus scale="  139.625">  2  3  1 -1</clus>
</clustering>
</event>
<event>
 6    0  0.3667994E+002  0.1600204E+03  0.7546771E-02  0.1188674E+00
          2   -1    0    0  503    0 -0.00000000000E+00  0.00000000000E+00  0.68899575521E+03  0.68899575521E+03  0.00000000000E+00 0. -1.
         21   -1    0    0  504  502  0.00000000000E+00 -0.00000000000E+00 -0.16814095727E+03  0.16814095727E+03  0.00000000000E+00 0.  1.
         21    1    1    2  503  505 -0.29039903601E+02  0.52789708113E+02  0.18011791702E+03  0.18992770549E+03  0.00000000000E+00 0. -1.
         21    1    1    2  504  501  0.13104073338E+02  0.50075654772E+02  0.15966505867E+02  0.54168415599E+02  0.00000000000E+00 0. -1.
         21    1    1    2  505  502 -0.10586854457E+03 -0.17882327631E+03 -0.48261236931E+02  0.21334258803E+03  0.00000000000E+00 0.  1.
          2    1    1    2  501    0  0.12180437483E+03  0.75957913426E+02  0.37303161199E+03  0.39969800335E+03  0.00000000000E+00 0. -1.
<scales pt_clust_3="61.49730" pt_clust_4="51.76184" pt_clust_5="14000.00000" pt_clust_6="160.02039"></scales>
<clustering>
<clus scale="   51.762">  2  4  1 -1</clus>
<clus scale="   61.497">  1  3  2 -1</clus>
<clus scale="  160.020">  1  6  2 -1</clus>
<clus scale="   51.762">  2  3  1 -1</clus>
</clustering>
</event>
<event>
 6    0  0.3667994E+002  0.1092908E+03  0.7546771E-02  0.1261889E+00
         21   -1    0    0  501  502  0.00000000000E+00  0.00000000000E+00  0.87972220155E+02  0.87972220155E+02  0.00000000000E+00 0. -1.
          2   -1    0    0  504    0 -0.00000000000E+00 -0.00000000000E+00 -0.12678407800E+04  0.12678407800E+04  0.00000000000E+00 0. -1.
         21    1    1    2  503  502  0.91340742110E+02 -0.62419077172E+02  0.35803381918E+02  0.11628049932E+03  0.00000000000E+00 0. -1.
         21    1    1    2  504  505  0.21628155599E+02 -0.23342362495E+02 -0.39860505024E+03  0.39987326627E+03  0.00000000000E+00 0. -1.
         21    1    1    2  505  503 -0.35250548821E+01  0.76619625294E+02 -0.45089615275E+03  0.45737329782E+03  0.00000000000E+00 0. -1.
          2    1    1    2  501    0 -0.10944384283E+03  0.91418143723E+01 -0.36617073875E+03  0.38228593673E+03  0.00000000000E+00 0. -1.
<scales pt_clust_3="14000.00000" pt_clust_4="31.82205" pt_clust_5="64.88391" pt_clust_6="109.29076"></scales>
<clustering>
<clus scale="   31.822">  2  4  1 -1</clus>
<clus scale="   64.884">  2  5  1 -1</clus>
<clus scale="  109.291">  2  6  1 -1</clus>
<clus scale="  109.291">  1  3  2 -1</clus>
</clustering>
</event>
<event>
 6    0  0.3667994E+002  0.1486207E+03  0.7546771E-02  0.1202178E+00
         21   -1    0    0  505  502  0.00000000000E+00  0.00000000000E+00  0.13698606412E+04  0.13698606412E+04  0.00000000000E+00 0.  1.
          1   -1    0    0  503    0 -0.00000000000E+00 -0.00000000000E+00 -0.31560800082E+03  0.31560800082E+03  0.00000000000E+00 0.  1.
         21    1    1    2  503  504 -0.42560311687E+01 -0.42179916591E+02  0.15513226615E+02  0.45143320269E+02  0.00000000000E+00 0.  1.
         21    1    1    2  504  502  0.64998855931E+02  0.80708260325E+01  0.28725376944E+01  0.65560971454E+02  0.00000000000E+00 0. -1.
         21    1    1    2  505  501 -0.14892013541E+03 -0.13583269775E+02  0.12915253475E+04  0.13001536198E+04  0.00000000000E+00 0.  1.
          1    1    1    2  501    0  0.88177310652E+02  0.47692360333E+02 -0.25565847135E+03  0.27461073053E+03  0.00000000000E+00 0.  1.
<scales pt_clust_3="42.39409" pt_clust_4="64.65990" pt_clust_5="148.62075" pt_clust_6="14000.00000"></scales>
<clustering>
<clus scale="   42.394">  2  3  1 -1</clus>
<clus scale="   64.660">  2  4  1 -1</clus>
<clus scale="  148.621">  1  5  2 -1</clus>
<clus scale="  148.621">  1  3  2 -1</clus>
</clustering>
</event>
<event>
 6    0  0.3667994E+002  0.9645664E+02  0.7546771E-02  0.1287929E+00
         21   -1    0    0  504  502  0.00000000000E+00  0.00000000000E+00  0.42459449905E+03  0.42459449905E+03  0.00000000000E+00 0.  1.
          1   -1    0    0  503    0 -0.00000000000E+00 -0.00000000000E+00 -0.19986603699E+03  0.19986603699E+03  0.00000000000E+00 0.  1.
         21    1    1    2  503  502  0.71736619236E+02 -0.24610529699E+02  0.27463714619E+03  0.28491644877E+03  0.00000000000E+00 0.  1.
         21    1    1    2  504  505  0.14329196779E+02 -0.49955654408E+02  0.46432862442E+02  0.69691491606E+02  0.00000000000E+00 0.  1.
         21    1    1    2  505  501 -0.85596867811E+02 -0.25979913104E+02  0.42007954542E+02  0.98825340419E+02  0.00000000000E+00 0.  1.
          1    1    1    2  501    0 -0.46894820362E+00  0.10054609721E+03 -0.13834950112E+03  0.17102725525E+03  0.00000000000E+00 0.  1.
<scales pt_clust_3="96.45664" pt_clust_4="51.97012" pt_clust_5="90.16022" pt_clust_6="14000.00000"></scales>
<clustering>
<clus scale="   51.970">  1  4  2 -1</clus>
<clus scale="   90.160">  1  5  2 -1</clus>
<clus scale="   96.457">  1  3  2 -1</clus>
<clus scale="   51.970">  1  3  2 -1</clus>
</clustering>
</event>
<event>
 6    0  0.3667994E+002  0.1705307E+03  0.7546771E-02  0.1177296E+00
          3   -1    0    0  503    0 -0.00000000000E+00  0.00000000000E+00  0.38586812425E+03  0.38586812425E+03  0.00000000000E+00 0. -1.
         21   -1    0    0  501  502  0.00000000000E+00 -0.00000000000E+00 -0.96464475048E+02  0.96464475048E+02  0.00000000000E+00 0.  1.
         21    1    1    2  503  504  0.95813969981E+01 -0.87467942459E+02  0.88530839801E+02  0.12482048599E+03  0.00000000000E+00 0.  1.
         21    1    1    2  504  505  0.12813562366E+02 -0.58978464787E+02  0.10091384551E+02  0.61192178678E+02  0.00000000000E+00 0.  1.
         21    1    1    2  505  502  0.47227784147E+02 -0.15834675995E+02  0.35449216056E+02  0.61137938127E+02  0.00000000000E+00 0.  1.
          3    1    1    2  501    0 -0.69622743512E+02  0.16228108324E+03  0.15533220879E+03  0.23518199650E+03  0.00000000000E+00 0. -1.
<scales pt_clust_3="44.80154" pt_clust_4="44.80154" pt_clust_5="49.81165" pt_clust_6="161.72330"></scales>
<clustering>
<clus scale="   44.802">  3  4 -1 -1</clus>
<clus scale="   49.812">  2  5  1 -1</clus>
<clus scale="  161.723">  1  6  2 -1</clus>
<clus scale="   49.812">  2  3  1 -1</clus>
</clustering>
</event>
<event>
 6    0  0.3667994E+002  0.8685822E+02  0.7546771E-02  0.1310643E+00
         21   -1    0    0  504  502  0.00000000000E+00  0.00000000000E+00  0.38437440956E+03  0.38437440956E+03  0.00000000000E+00 0. -1.
          1   -1    0    0  505    0 -0.00000000000E+00 -0.00000000000E+00 -0.13762641293E+03  0.13762641293E+03  0.00000000000E+00 0. -1.
         21    1    1    2  503  502 -0.69966984742E+02 -0.18631312519E+02  0.28062534499E+02  0.77653142902E+02  0.00000000000E+00 0. -1.
         21    1    1    2  504  501  0.68224169572E+02 -0.18140964653E+02  0.23033589909E+03  0.24091130800E+03  0.00000000000E+00 0. -1.
         21    1    1    2  505  503  0.63392836390E+02 -0.50533534798E+02 -0.43381485078E+02  0.91946958038E+02  0.00000000000E+00 0. -1.
          1    1    1    2  501    0 -0.61650021221E+02  0.87305811970E+02  0.31731048121E+02  0.11148941356E+03  0.00000000000E+00 0. -1.
<scales pt_clust_3="52.14939" pt_clust_4="70.59484" pt_clust_5="86.85822" pt_clust_6="14000.00000"></scales>
<clustering>
<clus scale="   70.595">  1  4  2 -1</clus>
<clus scale="   52.149">  1  3  2 -1</clus>
<clus scale="   86.858">  2  5  1 -1</clus>
<clus scale="   70.595">  1  3  2 -1</clus>
</clustering>
</event>
<event>
 6    0  0.3667994E+002  0.1661137E+03  0.7546771E-02  0.1181962E+00
          2   -1    0    0  505    0 -0.00000000000E+00  0.00000000000E+00  0.11826445689E+04  0.11826445689E+04  0.00000000000E+00 0. -1.
         21   -1    0    0  503  502  0.00000000000E+00 -0.00000000000E+00 -0.97242333778E+02  0.97242333778E+02  0.00000000000E+00 0. -1.
         21    1    1    2  503  501 -0.10558309155E+03  0.85796226219E+02  0.14508628471E+03  0.19889397091E+03  0.00000000000E+00 0. -1.
         21    1    1    2  504  502  0.76277099896E+02 -0.80472583214E+02  0.42226838618E+02  0.11864711761E+03  0.00000000000E+00 0. -1.
         21    1    1    2  505  504 -0.93507977961E+02 -0.12601297441E+03  0.28280381351E+03  0.32342079184E+03  0.00000000000E+00 0. -1.
          2    1    1    2  501    0  0.12281396961E+03  0.12068933140E+03  0.61528529825E+03  0.63892502228E+03  0.00000000000E+00 0. -1.
<scales pt_clust_3="86.18774" pt_clust_4="110.87846" pt_clust_5="166.11372" pt_clust_6="14000.00000"></scales>
<clustering>
<clus scale="  110.878">  2  4  1 -1</clus>
<clus scale="   86.188">  2  3  1 -1</clus>
<clus scale="  166.114">  2  5  1 -1</clus>
<clus scale="  110.878">  2  3  1 -1</clus>
</clustering>
</event>
<event>
 6    0  0.3667994E+002  0.6545960E+02  0.7546771E-02  0.1376251E+00
          2   -1    0    0  504    0 -0.00000000000E+00  0.00000000000E+00  0.24034694469E+03  0.24034694469E+03  0.00000000000E+00 0. -1.
         21   -1    0    0  503  502  0.00000000000E+00 -0.00000000000E+00 -0.23318489030E+03  0.23318489030E+03  0.00000000000E+00 0.  1.
         21    1    1    2  503  501 -0.20039182407E+02 -0.46891336945E+02 -0.68128623702E+01  0.51446879455E+02  0.00000000000E+00 0. -1.
         21    1    1    2  504  505  0.36092788071E+02  0.67595877638E+01  0.24745151170E+02  0.44279836087E+02  0.00000000000E+00 0.  1.
         21    1    1    2  505  502  0.67737785763E+02  0.77112110667E+02 -0.16740116076E+03  0.19636148771E+03  0.00000000000E+00 0.  1.
          2    1    1    2  501    0 -0.83791391428E+02 -0.36980361486E+02  0.15663092635E+03  0.18144363175E+03  0.00000000000E+00 0. -1.
<scales pt_clust_3="48.89425" pt_clust_4="36.72031" pt_clust_5="65.45960" pt_clust_6="14000.00000"></scales>
<clustering>
<clus scale="   36.720">  1  4  2 -1</clus>
<clus scale="   48.894">  2  3  1 -1</clus>
<clus scale="   65.460">  2  5  1 -1</clus>
<clus scale="   48.894">  2  3  1 -1</clus>
</clustering>
</event>
<event>
 6    0  0.3667994E+002  0.1533440E+03  0.7546771E-02  0.1196423E+00
          2   -1    0    0  504    0 -0.00000000000E+00  0.00000000000E+00  0.13364334818E+04  0.13364334818E+04  0.00000000000E+00 0. -1.
         21   -1    0    0  505  502  0.00000000000E+00 -0.00000000000E+00 -0.31550048523E+03  0.31550048523E+03  0.00000000000E+00 0. -1.
         21    1    1    2  503  501 -0.28029893164E+02  0.49743150855E+02  0.98043471141E+02  0.11345738496E+03  0.00000000000E+00 0. -1.
         21    1    1    2  504  502  0.97369663386E+01 -0.17847778869E+03  0.43375086960E+03  0.46913638363E+03  0.00000000000E+00 0.  1.
         21    1    1    2  505  503 -0.33712024176E+02 -0.91979288557E+01 -0.28204134256E+03  0.28419785605E+03  0.00000000000E+00 0. -1.
          2    1    1    2  501    0  0.52004951002E+02  0.13793256669E+03  0.77117999838E+03  0.78514234237E+03  0.00000000000E+00 0. -1.
<scales pt_clust_3="59.67618" pt_clust_4="14000.00000" pt_clust_5="34.94428" pt_clust_6="153.34398"></scales>
<clustering>
<clus scale="   34.944">  2  5  1 -1</clus>
<clus scale="   59.676">  2  3  1 -1</clus>
<clus scale="  153.344">  1  6  2 -1</clus>
<clus scale="   34.944">  2  3  1 -1</clus>
</clustering>
</event>
<event>
 6    0  0.3667994E+002  0.9511151E+02  0.7546771E-02  0.1290925E+00
          2   -1    0    0  504    0 -0.00000000000E+00  0.00000000000E+00  0.10490385410E+04  0.10490385410E+04  0.00000000000E+00 0.  1.
         21   -1    0    0  505  502  0.00000000000E+00 -0.00000000000E+00 -0.11645381685E+03  0.11645381685E+03  0.00000000000E+00 0. -1.
         21    1    1    2  503  502  0.57631166259E+02 -0.91130068819E+02 -0.74523253344E+02  0.13107156845E+03  0.00000000000E+00 0. -1.
         21    1    1    2  504  503 -0.44565439835E+02 -0.18127333223E+02  0.12578198783E+03  0.13466917650E+03  0.00000000000E+00 0. -1.
         21    1    1    2  505  501 -0.18434568241E+02  0.51659930998E+02  0.83952913072E+02  0.10028296660E+03  0.00000000000E+00 0.  1.
          2    1    1    2  501    0  0.53688418167E+01  0.57597471044E+02  0.79737307655E+03  0.79946864625E+03  0.00000000000E+00 0.  1.
<scales pt_clust_3="14000.00000" pt_clust_4="48.11111" pt_clust_5="95.11151" pt_clust_6="53.51389"></scales>
<clustering>
<clus scale="   48.111">  1  4  2 -1</clus>
<clus scale="   53.514">  1  6  2 -1</clus>
<clus scale="   95.112">  1  5  2 -1</clus>
<clus scale="   95.112">  2  3  1 -1</clus>
</clustering>
</event>
<event>
 6    0  0.3667994E+002  0.1899274E+03  0.7546771E-02  0.1158527E+00
         21   -1    0    0  505  502  0.00000000000E+00  0.00000000000E+00  0.12260437571E+03  0.12260437571E+03  0.00000000000E+00 0. -1.
          2   -1    0    0  504    0 -0.00000000000E+00 -0.00000000000E+00 -0.76708373903E+03  0.76708373903E+03  0.00000000000E+00 0.  1.
         21    1    1    2  503  501  0.47219689592E+02  0.59075917006E+02 -0.15043218844E+03  0.16837311654E+03  0.00000000000E+00 0.  1.
         21    1    1    2  504  502 -0.10735514464E+03 -0.11582505046E+03 -0.15984094215E+03  0.22469912368E+03  0.00000000000E+00 0. -1.
         21    1    1    2  505  503 -0.45802988511E+02 -0.50343003479E+01  0.64616435616E+02  0.79363352299E+02  0.00000000000E+00 0. -1.
          2    1    1    2  501    0  0.10593844356E+03  0.61783433800E+02 -0.39882266835E+03  0.41725252222E+03  0.00000000000E+00 0.  1.
<scales pt_clust_3="44.50653" pt_clust_4="181.27419" pt_clust_5="46.07882" pt_clust_6="44.50653"></scales>
<clustering>
<clus scale="   44.507">  3  6 -1 -1</clus>
<clus scale="   46.079">  1  5  2 -1</clus>
<clus scale="  181.274">  1  4  2 -1</clus>
<clus scale="   46.079">  1  3  2 -1</clus>
</clustering>
</event>
<event>
 6    0  0.3667994E+002  0.1401992E+03  0.7546771E-02  0.1213061E+00
         21   -1    0    0  504  502  0.00000000000E+00  0.00000000000E+00  0.68748625348E+03  0.68748625348E+03  0.00000000000E+00 0. -1.
          1   -1    0    0  503    0 -0.00000000000E+00 -0.00000000000E+00 -0.22417191357E+03  0.22417191357E+03  0.00000000000E+00 0.  1.
         21    1    1    2  503  505 -0.36457183826E+02  0.60505148566E+01  0.17824776202E+02  0.41029960141E+02  0.00000000000E+00 0.  1.
         21    1    1    2  504  501  0.44307783792E+02  0.12042174286E+02  0.56187911928E+03  0.56375201849E+03  0.00000000000E+00 0. -1.
         21    1    1    2  505  502 -0.75678437912E+02  0.10793077239E+03 -0.94271794044E+02  0.16206001588E+03  0.00000000000E+00 0.  1.
          1    1    1    2  501    0  0.67827837945E+02 -0.12602346153E+03 -0.22117761532E+02  0.14481617255E+03  0.00000000000E+00 0.  1.
<scales pt_clust_3="36.95585" pt_clust_4="45.76713" pt_clust_5="140.19920" pt_clust_6="14000.00000"></scales>
<clustering>
<clus scale="   36.956">  2  3  1 -1</clus>
<clus scale="   45.767">  1  4  2 -1</clus>
<clus scale="  140.199">  2  5  1 -1</clus>
<clus scale="   45.767">  1  3  2 -1</clus>
</clustering>
</event>
<event>
 6    0  0.3667994E+002  0.1232480E+03  0.7546771E-02  0.1237833E+00
          2   -1    0    0  505    0 -0.00000000000E+00  0.00000000000E+00  0.12347408098E+04  0.12347408098E+04  0.00000000000E+00 0.  1.
         21   -1    0    0  501  502  0.00000000000E+00 -0.00000000000E+00 -0.28071126563E+03  0.28071126563E+03  0.00000000000E+00 0. -1.
         21    1    1    2  503  502  0.33465895001E+02  0.11920876881E+03 -0.25597913478E+03  0.28435191952E+03  0.00000000000E+00 0. -1.
         21    1    1    2  504  503  0.24011484706E+02 -0.51040555210E+02  0.19926688965E+03  0.20709655474E+03  0.00000000000E+00 0.  1.
         21    1    1    2  505  504 -0.29329795609E+02  0.11720832472E+02  0.47486794903E+02  0.57031662385E+02  0.00000000000E+00 0.  1.
          2    1    1    2  501    0 -0.28147584099E+02 -0.79889046072E+02  0.96325499437E+03  0.96697193876E+03  0.00000000000E+00 0.  1.
<scales pt_clust_3="123.24800" pt_clust_4="52.56937" pt_clust_5="31.58504" pt_clust_6="14000.00000"></scales>
<clustering>
<clus scale="   31.585">  1  5  2 -1</clus>
<clus scale="   52.569">  1  4  2 -1</clus>
<clus scale="  123.248">  2  3  1 -1</clus>
<clus scale="  123.248">  2  3  1 -1</clus>
</clustering>
</event>
<event>
 6    0  0.3667994E+002  0.2550880E+03  0.7546771E-02  0.1110131E+00
          2   -1    0    0  503    0 -0.00000000000E+00  0.00000000000E+00  0.14590535309E+04  0.14590535309E+04  0.00000000000E+00 0.  1.
         21   -1    0    0  504  502  0.00000000000E+00 -0.00000000000E+00 -0.10777324518E+03  0.10777324518E+03  0.00000000000E+00 0.  1.
         21    1    1    2  503  505  0.10949219895E+01  0.71262361792E+02  0.66199824954E+03  0.66582370449E+03  0.00000000000E+00 0.  1.
         21    1    1    2  504  501 -0.46957615978E+02 -0.72534700816E+02  0.42364324849E+01  0.86511547674E+02  0.00000000000E+00 0. -1.
         21    1    1    2  505  502  0.96225594270E+02  0.17017757349E+03  0.57350069606E+03  0.60590660987E+03  0.00000000000E+00 0.  1.
          2    1    1    2  501    0 -0.50362900281E+02 -0.16890523447E+03  0.11154490767E+03  0.20858491408E+03  0.00000000000E+00 0.  1.
<scales pt_clust_3="71.27077" pt_clust_4="53.83655" pt_clust_5="243.22380" pt_clust_6="53.83655"></scales>
<clustering>
<clus scale="   53.837">  4  6 -1 -1</clus>
<clus scale="   71.271">  1  3  2 -1</clus>
<clus scale="  243.224">  1  5  2 -1</clus>
<clus scale="  255.088">  2  3  1 -1</clus>
</clustering>
</event>
<event>
 6    0  0.3667994E+002  0.8120825E+02  0.7546771E-02  0.1325657E+00
          2   -1    0    0  504    0 -0.00000000000E+00  0.00000000000E+00  0.18752386913E+04  0.18752386913E+04  0.00000000000E+00 0. -1.
         21   -1    0    0  503  502  0.00000000000E+00 -0.00000000000E+00 -0.35414205310E+02  0.35414205310E+02  0.00000000000E+00 0.  1.
         21    1    1    2  503  501  0.38714512935E+02  0.23840502706E+02 -0.37362687437E+01  0.45619543896E+02  0.00000000000E+00 0.  1.
         21    1    1    2  504  505 -0.64905036552E+02 -0.47892146245E+02  0.12532071341E+04  0.12558003195E+04  0.00000000000E+00 0. -1.
         21    1    1    2  505  502  0.85037895230E+02  0.24576486634E+02  0.29163704966E+03  0.30477469720E+03  0.00000000000E+00 0. -1.
          2    1    1    2  501    0 -0.58847371613E+02 -0.52484309479E+00  0.29871657095E+03  0.30445833601E+03  0.00000000000E+00 0. -1.
<scales pt_clust_3="45.46629" pt_clust_4="14000.00000" pt_clust_5="81.20825" pt_clust_6="48.84671"></scales>
<clustering>
<clus scale="   45.466">  2  3  1 -1</clus>
<clus scale="   48.847">  2  6  1 -1</clus>
<clus scale="   81.208">  2  5  1 -1</clus>
<clus scale="   45.466">  2  3  1 -1</clus>
</clustering>
</event>
<event>
 6    0  0.3667994E+002  0.7416394E+02  0.7546771E-02  0.1346480E+00
         -4   -1    0    0    0  501 -0.00000000000E+00  0.00000000000E+00  0.96127638175E+03  0.96127638175E+03  0.00000000000E+00 0.  1.
         21   -1    0    0  505  502  0.00000000000E+00 -0.00000000000E+00 -0.44504966885E+02  0.44504966885E+02  0.00000000000E+00 0. -1.
         21    1    1    2  503  504 -0.26556133406E+02 -0.31906070580E+02  0.17991288155E+03  0.18463983998E+03  0.00000000000E+00 0.  1.
         21    1    1    2  504  501  0.27697624022E+02 -0.23676618328E+02  0.10483917875E+03  0.11099096374E+03  0.00000000000E+00 0.  1.
         21    1    1    2  505  503 -0.55063034102E+02 -0.46568362718E+02  0.46808786843E+01  0.72266595022E+02  0.00000000000E+00 0. -1.
         -4    1    1    2    0  502  0.53921543486E+02  0.10215105163E+03  0.62733847589E+03  0.63788394989E+03  0.00000000000E+00 0.  1.
<scales pt_clust_3="42.33554" pt_clust_4="36.43818" pt_clust_5="74.16394" pt_clust_6="14000.00000"></scales>
<clustering>
<clus scale="   36.438">  1  4  2 -1</clus>
<clus scale="   42.336">  1  3  2 -1</clus>
<clus scale="   74.164">  2  5  1 -1</clus>
<clus scale="   74.164">  2  3  1 -1</clus>
</clustering>
</event>
<event>
 6    0  0.3667994E+002  0.1183587E+03  0.7546771E-02  0.1245830E+00
          2   -1    0    0  505    0 -0.00000000000E+00  0.00000000000E+00  0.13431727489E+04  0.13431727489E+04  0.00000000000E+00 0. -1.
         21   -1    0    0  503  502  0.00000000000E+00 -0.00000000000E+00 -0.52611987276E+02  0.52611987276E+02  0.00000000000E+00 0.  1.
         21    1    1    2  503  504  0.69057580446E+02 -0.15466898050E+02  0.10450617576E+03  0.12621297526E+03  0.00000000000E+00 0. -1.
         21    1    1    2  504  501 -0.39437922385E+02  0.21492108972E+02  0.26546201238E+03  0.26923473120E+03  0.00000000000E+00 0.  1.
         21    1    1    2  505  502  0.38324262653E+02 -0.49434524813E+02 -0.12483703389E+02  0.63783729914E+02  0.00000000000E+00 0.  1.
          2    1    1    2  501    0 -0.67943920714E+02  0.43409313891E+02  0.93307627684E+03  0.93655329976E+03  0.00000000000E+00 0. -1.
<scales pt_clust_3="111.00040" pt_clust_4="30.66169" pt_clust_5="62.55015" pt_clust_6="30.66169"></scales>
<clustering>
<clus scale="   30.662">  4  6 -1 -1</clus>
<clus scale="   62.550">  2  5  1 -1</clus>
<clus scale="  111.000">  2  3  1 -1</clus>
<clus scale="   62.550">  2  3  1 -1</clus>
</clustering>
</event>
<event>
 6    0  0.3882235E+002  0.7965059E+02  0.7546771E-02  0.1330046E+00
         21   -1    0    0  503  502  0.00000000000E+00  0.00000000000E+00  0.25072005167E+03  0.25072005167E+03  0.00000000000E+00 0. -1.
          1   -1    0    0  504    0 -0.00000000000E+00 -0.00000000000E+00 -0.20530069972E+04  0.20530069972E+04  0.00000000000E+00 0. -1.
         21    1    1    2  503  501  0.74820173053E+02 -0.27234160237E+02  0.23211690963E+03  0.24539359714E+03  0.00000000000E+00 0. -1.
         21    1    1    2  504  505  0.36297742264E+02  0.88567398889E+01 -0.10230299009E+03  0.10891221106E+03  0.00000000000E+00 0. -1.
         21    1    1    2  505  502 -0.41116554350E+02 -0.44502582615E+02 -0.11587554998E+03  0.13076006265E+03  0.00000000000E+00 0. -1.
          1    1    1    2  501    0 -0.70001360967E+02  0.62880002963E+02 -0.18162253151E+04  0.18186611781E+04  0.00000000000E+00 0. -1.
<scales pt_clust_3="14000.00000" pt_clust_4="37.36265" pt_clust_5="58.63203" pt_clust_6="79.65059"></scales>
<clustering>
<clus scale="   37.363">  2  4  1 -1</clus>
<clus scale="   58.632">  2  5  1 -1</clus>
<clus scale="   79.651">  2  6  1 -1</clus>
<clus scale="   79.651">  1  3  2 -1</clus>
</clustering>
</event>
<event>
 6    0  0.3667994E+002  0.7548563E+02  0.7546771E-02  0.1342374E+00
          2   -1    0    0  503    0 -0.00000000000E+00  0.00000000000E+00  0.23890644233E+04  0.23890644233E+04  0.00000000000E+00 0. -1.
         21   -1    0    0  505  502  0.00000000000E+00 -0.00000000000E+00 -0.23169692139E+02  0.23169692139E+02  0.00000000000E+00 0. -1.
         21    1    1    2  503  504 -0.23796301749E+02 -0.64148684811E+02  0.81783757813E+03  0.82069459724E+03  0.00000000000E+00 0. -1.
         21    1    1    2  504  502  0.43815104848E+02 -0.59544260419E+02  0.54596784164E+03  0.55095023955E+03  0.00000000000E+00 0. -1.
         21    1    1    2  505  501  0.30613100343E+02  0.49660243403E+02  0.32342035046E+02  0.66703140244E+02  0.00000000000E+00 0. -1.
          2    1    1    2  501    0 -0.50631903442E+02  0.74032701827E+02  0.96974727634E+03  0.97388613839E+03  0.00000000000E+00 0. -1.
<scales pt_clust_3="54.84312" pt_clust_4="14000.00000" pt_clust_5="58.33782" pt_clust_6="75.48563"></scales>
<clustering>
<clus scale="   58.338">  2  5  1 -1</clus>
<clus scale="   54.843">  1  3  2 -1</clus>
<clus scale="   75.486">  1  6  2 -1</clus>
<clus scale="   58.338">  2  3  1 -1</clus>
</clustering>
</event>
<event>
 6    0  0.3667994E+002  0.1017440E+03  0.7546771E-02  0.1276671E+00
         21   -1    0    0  504  502  0.00000000000E+00  0.00000000000E+00  0.47088587523E+03  0.47088587523E+03  0.00000000000E+00 0.  1.
          2   -1    0    0  503    0 -0.00000000000E+00 -0.00000000000E+00 -0.42763649962E+03  0.42763649962E+03  0.00000000000E+00 0. -1.
         21    1    1    2  503  505  0.61374568706E+02  0.87890960016E+02 -0.18657342105E+03  0.21517736865E+03  0.00000000000E+00 0. -1.
         21    1    1    2  504  501 -0.69667218157E+02 -0.57600159977E+02 -0.62445456042E+02  0.10986689536E+03  0.00000000000E+00 0. -1.
         21    1    1    2  505  502 -0.45006549784E+02  0.22942220729E+01  0.42468275440E+03  0.42706708473E+03  0.00000000000E+00 0.  1.
          2    1    1    2  501    0  0.53299199235E+02 -0.32585022112E+02 -0.13241450170E+03  0.14641102610E+03  0.00000000000E+00 0. -1.
<scales pt_clust_3="101.74399" pt_clust_4="14000.00000" pt_clust_5="45.06499" pt_clust_6="56.41369"></scales>
<clustering>
<clus scale="   45.065">  1  5  2 -1</clus>
<clus scale="   56.414">  2  6  1 -1</clus>
<clus scale="  101.744">  2  3  1 -1</clus>
<clus scale="   45.065">  1  3  2 -1</clus>
</clustering>
</event>
<event>
 6    0  0.3667994E+002  0.1727591E+03  0.7546771E-02  0.1175001E+00
          1   -1    0    0  503    0 -0.00000000000E+00  0.00000000000E+00  0.11443931798E+04  0.11443931798E+04  0.00000000000E+00 0. -1.
         21   -1    0    0  505  502  0.00000000000E+00 -0.00000000000E+00 -0.12471651129E+03  0.12471651129E+03  0.00000000000E+00 0. -1.
         21    1    1    2  503  504 -0.45248105114E+02  0.14506549975E+02  0.22187437903E+03  0.22690542320E+03  0.00000000000E+00 0.  1.
         21    1    1    2  504  502  0.59888148581E+02 -0.43956838242E+02  0.17884054886E+03  0.19365623121E+03  0.00000000000E+00 0. -1.
         21    1    1    2  505  501 -0.16548187418E+03 -0.51291247038E+02 -0.31388637736E+02  0.17606899013E+03  0.00000000000E+00 0. -1.
          1    1    1    2  501    0  0.15084183072E+03  0.80741535304E+02  0.65035037834E+03  0.67247904654E+03  0.00000000000E+00 0. -1.
<scales pt_clust_3="47.51664" pt_clust_4="65.23784" pt_clust_5="14000.00000" pt_clust_6="172.75910"></scales>
<clustering>
<clus scale="   47.517">  1  3  2 -1</clus>
<clus scale="   65.238">  1  4  2 -1</clus>
<clus scale="  172.759">  1  6  2 -1</clus>
<clus scale="  172.759">  2  3  1 -1</clus>
</clustering>
</event>
<event>
 6    0  0.3667994E+002  0.1856805E+03  0.7546771E-02  0.1162416E+00
         21   -1    0    0  501  502  0.00000000000E+00  0.00000000000E+00  0.20289896545E+03  0.20289896545E+03  0.00000000000E+00 0. -1.
          2   -1    0    0  505    0 -0.00000000000E+00 -0.00000000000E+00 -0.25070824099E+04  0.25070824099E+04  0.00000000000E+00 0. -1.
         21    1    1    2  503  502 -0.47856398505E+02 -0.27703991834E+02  0.15897785278E+03  0.16832024155E+03  0.00000000000E+00 0. -1.
         21    1    1    2  504  503 -0.10356418022E+03 -0.97260071377E+02 -0.12969173822E+03  0.19236685751E+03  0.00000000000E+00 0. -1.
         21    1    1    2  505  504  0.38159790787E+02 -0.43715499503E+02 -0.84961723825E+03  0.85159653948E+03  0.00000000000E+00 0. -1.
          2    1    1    2  501    0  0.11326078794E+03  0.16867956271E+03 -0.14838523207E+04  0.14976977368E+04  0.00000000000E+00 0. -1.
<scales pt_clust_3="55.29689" pt_clust_4="185.68050" pt_clust_5="57.77664" pt_clust_6="14000.00000"></scales>
<clustering>
<clus scale="   55.297">  1  3  2 -1</clus>
<clus scale="   57.777">  2  5  1 -1</clus>
<clus scale="  185.680">  1  4  2 -1</clus>
<clus scale="   55.297">  1  3  2 -1</clus>
</clustering>
</event>
<event>
 6    0  0.3667994E+002  0.1751808E+03  0.7546771E-02  0.1172550E+00
          2   -1    0    0  505    0 -0.00000000000E+00  0.00000000000E+00  0.49184751609E+04  0.49184751609E+04  0.00000000000E+00 0.  1.
         21   -1    0    0  503  502  0.00000000000E+00 -0.00000000000E+00 -0.51118468628E+03  0.51118468628E+03  0.00000000000E+00 0. -1.
         21    1    1    2  503  501 -0.49108997055E+02  0.67396485407E+02  0.16101924328E+04  0.16123503498E+04  0.00000000000E+00 0. -1.
         21    1    1    2  504  502 -0.29089020716E+02 -0.62606193506E+02 -0.49623987596E+03  0.50101868337E+03  0.00000000000E+00 0. -1.
         21    1    1    2  505  504  0.10013454222E+03 -0.95387633843E+02  0.43545606650E+03  0.45688916937E+03  0.00000000000E+00 0.  1.
          2    1    1    2  501    0 -0.21936524452E+02  0.90597341942E+02  0.28578818513E+04  0.28594016446E+04  0.00000000000E+00 0.  1.
<scales pt_clust_3="50.65799" pt_clust_4="69.03410" pt_clust_5="166.79247" pt_clust_6="50.65799"></scales>
<clustering>
<clus scale="   50.658">  3  6 -1 -1</clus>
<clus scale="   69.034">  2  4  1 -1</clus>
<clus scale="  166.792">  2  5  1 -1</clus>
<clus scale="   69.034">  2  3  1 -1</clus>
</clustering>
</event>
<event>
 6    0  0.4878026E+002  0.1454296E+03  0.7546771E-02  0.1206204E+00
         21   -1    0    0  505  502  0.00000000000E+00  0.00000000000E+00  0.83399870783E+03  0.83399870783E+03  0.00000000000E+00 0. -1.
          1   -1    0    0  504    0 -0.00000000000E+00 -0.00000000000E+00 -0.10421298173E+04  0.10421298173E+04  0.00000000000E+00 0.  1.
         21    1    1    2  503  502  0.17695679889E+02  0.81685646544E+02 -0.13584742160E+03  0.15949985547E+03  0.00000000000E+00 0.  1.
         21    1    1    2  504  503 -0.19453543195E+02 -0.23235847143E+02 -0.20572882269E+02  0.36627700176E+02  0.00000000000E+00 0.  1.
         21    1    1    2  505  501 -0.13185075667E+03 -0.61774581704E+02  0.80239640267E+03  0.81550028081E+03  0.00000000000E+00 0. -1.
          1    1    1    2  501    0  0.13360861998E+03  0.33247823026E+01 -0.85410720827E+03  0.86450068868E+03  0.00000000000E+00 0.  1.
<scales pt_clust_3="79.69797" pt_clust_4="30.30421" pt_clust_5="145.42964" pt_clust_6="14000.00000"></scales>
<clustering>
<clus scale="   30.304">  2  4  1 -1</clus>
<clus scale="   79.698">  2  3  1 -1</clus>
<clus scale="  145.430">  1  5  2 -1</clus>
<clus scale="  145.430">  1  3  2 -1</clus>
</clustering>
</event>
<event>
 6    0  0.3667994E+002  0.1421247E+03  0.7546771E-02  0.1210498E+00
         21   -1    0    0  505  502  0.00000000000E+00  0.00000000000E+00  0.15560505184E+03  0.15560505184E+03  0.00000000000E+00 0. -1.
          2   -1    0    0  504    0 -0.00000000000E+00 -0.00000000000E+00 -0.47854221247E+03  0.47854221247E+03  0.00000000000E+00 0.  1.
         21    1    1    2  503  502  0.18661769954E+02 -0.12925607492E+03  0.89190475098E+02  0.15814656307E+03  0.00000000000E+00 0. -1.
         21    1    1    2  504  503 -0.26265469757E+02 -0.37553514838E+02 -0.18404799827E+03  0.18966762255E+03  0.00000000000E+00 0.  1.
         21    1    1    2  505  501  0.18664480899E+02  0.64458870938E+02 -0.64650231543E+02  0.93182408900E+02  0.00000000000E+00 0. -1.
          2    1    1    2  501    0 -0.11060781096E+02  0.10235071882E+03 -0.16342940592E+03  0.19315066979E+03  0.00000000000E+00 0.  1.
<scales pt_clust_3="134.59711" pt_clust_4="45.82730" pt_clust_5="36.84913" pt_clust_6="36.84913"></scales>
<clustering>
<clus scale="   36.849">  5  6 -1 -1</clus>
<clus scale="   45.827">  2  4  1 -1</clus>
<clus scale="  134.597">  1  3  2 -1</clus>
<clus scale="  134.597">  1  3  2 -1</clus>
</clustering>
</event>
<event>
 6    0  0.3667994E+002  0.7657069E+02  0.7546771E-02  0.1339075E+00
         -4   -1    0    0    0  501 -0.00000000000E+00  0.00000000000E+00  0.11312644961E+03  0.11312644961E+03  0.00000000000E+00 0. -1.
         21   -1    0    0  504  502  0.00000000000E+00 -0.00000000000E+00 -0.29628721815E+03  0.29628721815E+03  0.00000000000E+00 0. -1.
         21    1    1    2  503  502 -0.10472563230E+03  0.39738958693E+02 -0.16838011231E+03  0.20223378827E+03  0.00000000000E+00 0. -1.
         21    1    1    2  504  501  0.24274992819E+02 -0.29893131930E+02 -0.76430668834E+02  0.85583419839E+02  0.00000000000E+00 0. -1.
         21    1    1    2  505  503  0.46864686743E+02  0.27233656278E+02  0.38412411868E+02  0.66434059663E+02  0.00000000000E+00 0. -1.
         -4    1    1    2    0  505  0.33585952741E+02 -0.37079483041E+02  0.23237600730E+02  0.55162399982E+02  0.00000000000E+00 0. -1.
<scales pt_clust_3="76.57069" pt_clust_4="38.50811" pt_clust_5="14000.00000" pt_clust_6="52.88037"></scales>
<clustering>
<clus scale="   38.508">  2  4  1 -1</clus>
<clus scale="   52.880">  1  6  2 -1</clus>
<clus scale="   76.571">  2  3  1 -1</clus>
<clus scale="   38.508">  2  3  1 -1</clus>
</clustering>
</event>
<event>
 6    0  0.3667994E+002  0.1011004E+03  0.7546771E-02  0.1277999E+00
         -3   -1    0    0    0  501 -0.00000000000E+00  0.00000000000E+00  0.32436591708E+03  0.32436591708E+03  0.00000000000E+00 0. -1.
         21   -1    0    0  505  502  0.00000000000E+00 -0.00000000000E+00 -0.15133435234E+03  0.15133435234E+03  0.00000000000E+00 0. -1.
         21    1    1    2  503  502  0.90633050152E+02  0.12285855621E+02  0.49752374527E+02  0.10411815788E+03  0.00000000000E+00 0. -1.
         21    1    1    2  504  501 -0.63228125240E+02 -0.27636386455E+02  0.42415421625E+02  0.80997738667E+02  0.00000000000E+00 0. -1.
         21    1    1    2  505  504 -0.90911058433E+02 -0.57951155814E+02 -0.57056466498E+02  0.12197785608E+03  0.00000000000E+00 0. -1.
         -3    1    1    2    0  503  0.63506133520E+02  0.73301686648E+02  0.13792023509E+03  0.16860651680E+03  0.00000000000E+00 0. -1.
<scales pt_clust_3="101.10035" pt_clust_4="69.00410" pt_clust_5="14000.00000" pt_clust_6="63.06555"></scales>
<clustering>
<clus scale="   69.004">  1  4  2 -1</clus>
<clus scale="   63.066">  1  6  2 -1</clus>
<clus scale="  101.100">  1  3  2 -1</clus>
<clus scale="  101.100">  2  3  1 -1</clus>
</clustering>
</event>
<event>
 6    0  0.3667994E+002  0.1216867E+03  0.7546771E-02  0.1240340E+00
         21   -1    0    0  503  502  0.00000000000E+00  0.00000000000E+00  0.99804787687E+02  0.99804787687E+02  0.00000000000E+00 0.  1.
         -4   -1    0    0    0  501 -0.00000000000E+00 -0.00000000000E+00 -0.96097983437E+03  0.96097983437E+03  0.00000000000E+00 0. -1.
         21    1    1    2  503  505 -0.57527506642E+02  0.93776454200E+02  0.53479994605E+02  0.12232557871E+03  0.00000000000E+00 0.  1.
         21    1    1    2  504  502  0.23594372488E+02 -0.33026769488E+02 -0.13524494289E+03  0.14120430763E+03  0.00000000000E+00 0.  1.
         21    1    1    2  505  501 -0.58816362753E+02 -0.36569509580E+02 -0.25950460619E+03  0.26858766575E+03  0.00000000000E+00 0.  1.
         -4    1    1    2    0  504  0.92749496907E+02 -0.24180175131E+02 -0.51990549221E+03  0.52866706998E+03  0.00000000000E+00 0. -1.
<scales pt_clust_3="110.04824" pt_clust_4="33.79499" pt_clust_5="69.25817" pt_clust_6="33.79499"></scales>
<clustering>
<clus scale="   33.795">  4  6 -1 -1</clus>
<clus scale="   69.258">  2  5  1 -1</clus>
<clus scale="  110.048">  1  3  2 -1</clus>
<clus scale="  110.048">  1  3  2 -1</clus>
</clustering>
</event>
<event>
 6    0  0.3667994E+002  0.1322470E+03  0.7546771E-02  0.1224159E+00
         21   -1    0    0  504  502  0.00000000000E+00  0.00000000000E+00  0.14225274629E+04  0.14225274629E+04  0.00000000000E+00 0.  1.
         -2   -1    0    0    0  501 -0.00000000000E+00 -0.00000000000E+00 -0.12347981660E+03  0.12347981660E+03  0.00000000000E+00 0.  1.
         21    1    1    2  503  501  0.48163786521E+02  0.28979968631E+01 -0.10369605106E+02  0.49352582789E+02  0.00000000000E+00 0.  1.
         21    1    1    2  504  503  0.76147801459E+02  0.10018453426E+03  0.13242591872E+04  0.13302247267E+04  0.00000000000E+00 0.  1.
         21    1    1    2  505  502 -0.63677776226E+02 -0.32092268936E+02  0.30424655818E+01  0.71372470234E+02  0.00000000000E+00 0. -1.
         -2    1    1    2    0  505 -0.60633811754E+02 -0.70990262188E+02 -0.17884401392E+02  0.95057499791E+02  0.00000000000E+00 0.  1.
<scales pt_clust_3="48.25089" pt_clust_4="126.84635" pt_clust_5="32.69180" pt_clust_6="32.69180"></scales>
<clustering>
<clus scale="   32.692">  5  6 -1 -1</clus>
<clus scale="   48.251">  2  3  1 -1</clus>
<clus scale="  126.846">  1  4  2 -1</clus>
<clus scale="  126.846">  1  3  2 -1</clus>
</clustering>
</event>
<event>
 6    0  0.3667994E+002  0.1349246E+03  0.7546771E-02  0.1220326E+00
         21   -1    0    0  503  502  0.00000000000E+00  0.00000000000E+00  0.91473960480E+02  0.91473960480E+02  0.00000000000E+00 0.  1.
          2   -1    0    0  505    0 -0.00000000000E+00 -0.00000000000E+00 -0.35192160375E+04  0.35192160375E+04  0.00000000000E+00 0.  1.
         21    1    1    2  503  504 -0.88900918371E+02  0.21416956649E+02  0.57474821822E+02  0.10800654824E+03  0.00000000000E+00 0.  1.
         21    1    1    2  504  501  0.68973721184E+02 -0.54078988570E+02 -0.11165504937E+04  0.11199852304E+04  0.00000000000E+00 0. -1.
         21    1    1    2  505  502 -0.43120848460E+02  0.39150198429E+02 -0.12253024680E+03  0.13566800283E+03  0.00000000000E+00 0.  1.
          2    1    1    2  501    0  0.63048045647E+02 -0.64881665089E+01 -0.22461361584E+04  0.22470302166E+04  0.00000000000E+00 0.  1.
<scales pt_clust_3="134.92457" pt_clust_4="14000.00000" pt_clust_5="58.24213" pt_clust_6="63.13433"></scales>
<clustering>
<clus scale="   58.242">  1  5  2 -1</clus>
<clus scale="   63.134">  2  6  1 -1</clus>
<clus scale="  134.925">  1  3  2 -1</clus>
<clus scale="   58.242">  1  3  2 -1</clus>
</clustering>
</event>
<event>
 6    0  0.3667994E+002  0.9229286E+02  0.7546771E-02  0.1297392E+00
         21   -1    0    0  501  502  0.00000000000E+00  0.00000000000E+00  0.15128796429E+03  0.15128796429E+03  0.00000000000E+00 0.  1.
          2   -1    0    0  505    0 -0.00000000000E+00 -0.00000000000E+00 -0.29729116325E+04  0.29729116325E+04  0.00000000000E+00 0.  1.
         21    1    1    2  503  504 -0.53831368733E+02  0.69330986736E+02 -0.13478441123E+03  0.16084601174E+03  0.00000000000E+00 0. -1.
         21    1    1    2  504  502  0.24781755595E+02  0.24948519459E+02  0.13414570655E+03  0.13867816922E+03  0.00000000000E+00 0.  1.
         21    1    1    2  505  503 -0.35159189031E+02 -0.59885930768E+02 -0.11401384660E+04  0.11422513800E+04  0.00000000000E+00 0.  1.
          2    1    1    2  501    0  0.64208802169E+02 -0.34393575427E+02 -0.16808464975E+04  0.16824240358E+04  0.00000000000E+00 0.  1.
<scales pt_clust_3="14000.00000" pt_clust_4="35.16481" pt_clust_5="67.02809" pt_clust_6="92.29286"></scales>
<clustering>
<clus scale="   35.165">  1  4  2 -1</clus>
<clus scale="   67.028">  2  5  1 -1</clus>
<clus scale="   92.293">  2  6  1 -1</clus>
<clus scale="   35.165">  1  3  2 -1</clus>
</clustering>
</event>
<event>
 6    0  0.3667994E+002  0.1229476E+03  0.7546771E-02  0.1238312E+00
         21   -1    0    0  505  502  0.00000000000E+00  0.00000000000E+00  0.52360635722E+03  0.52360635722E+03  0.00000000000E+00 0.  1.
         -1   -1    0    0    0  501 -0.00000000000E+00 -0.00000000000E+00 -0.77478506623E+03  0.77478506623E+03  0.00000000000E+00 0.  1.
         21    1    1    2  503  502 -0.83117848113E+02 -0.91786854476E+02  0.48693469342E+03  0.50243288008E+03  0.00000000000E+00 0.  1.
         21    1    1    2  504  501 -0.95481286046E+01  0.49401280930E+02 -0.27583970614E+03  0.28039114964E+03  0.00000000000E+00 0. -1.
         21    1    1    2  505  504 -0.43591271906E+02  0.61336945356E+02 -0.82590161451E+02  0.11172982870E+03  0.00000000000E+00 0. -1.
         -1    1    1    2    0  503  0.13625724862E+03 -0.18951371810E+02 -0.37968353485E+03  0.40383756503E+03  0.00000000000E+00 0.  1.
<scales pt_clust_3="122.94762" pt_clust_4="50.31554" pt_clust_5="84.30699" pt_clust_6="14000.00000"></scales>
<clustering>
<clus scale="   50.316">  2  4  1 -1</clus>
<clus scale="   84.307">  2  5  1 -1</clus>
<clus scale="  122.948">  1  3  2 -1</clus>
<clus scale="  122.948">  1  3  2 -1</clus>
</clustering>
</event>
<event>
 6    0  0.3667994E+002  0.9715706E+02  0.7546771E-02  0.1286390E+00
         21   -1    0    0  503  502  0.00000000000E+00  0.00000000000E+00  0.14657589076E+03  0.14657589076E+03  0.00000000000E+00 0. -1.
          1   -1    0    0  505    0 -0.00000000000E+00 -0.00000000000E+00 -0.19949910225E+03  0.19949910225E+03  0.00000000000E+00 0. -1.
         21    1    1    2  503  501  0.12705828581E+02 -0.10813637929E+03  0.81531490672E+02  0.13602315456E+03  0.00000000000E+00 0. -1.
         21    1    1    2  504  502  0.18586108874E+02  0.51335137423E+02 -0.10109539937E+02  0.55524252134E+02  0.00000000000E+00 0. -1.
         21    1    1    2  505  504 -0.34052830253E+02  0.39747628671E+01 -0.26625071612E+02  0.43408391199E+02  0.00000000000E+00 0.  1.
          1    1    1    2  501    0  0.27608927985E+01  0.52826479000E+02 -0.97720090620E+02  0.11111919512E+03  0.00000000000E+00 0. -1.
<scales pt_clust_3="14000.00000" pt_clust_4="53.44528" pt_clust_5="34.28402" pt_clust_6="97.15706"></scales>
<clustering>
<clus scale="   34.284">  2  5  1 -1</clus>
<clus scale="   53.445">  2  4  1 -1</clus>
<clus scale="   97.157">  2  6  1 -1</clus>
<clus scale="   97.157">  1  3  2 -1</clus>
</clustering>
</event>
<event>
 6    0  0.3667994E+002  0.1174199E+03  0.7546771E-02  0.1247415E+00
          1   -1    0    0  505    0 -0.00000000000E+00  0.00000000000E+00  0.66511516084E+03  0.66511516084E+03  0.00000000000E+00 0.  1.
         21   -1    0    0  501  502  0.00000000000E+00 -0.00000000000E+00 -0.12085512997E+03  0.12085512997E+03  0.00000000000E+00 0.  1.
         21    1    1    2  503  504  0.58389023465E+02  0.64295814098E+02  0.84858610583E+02  0.12142575329E+03  0.00000000000E+00 0.  1.
         21    1    1    2  504  502  0.42922306728E+02 -0.11250052810E+03 -0.53789880818E+02  0.13187890095E+03  0.00000000000E+00 0.  1.
         21    1    1    2  505  503 -0.42147813414E+02 -0.23472486268E+02  0.14014767869E+03  0.14821864804E+03  0.00000000000E+00 0. -1.
          1    1    1    2  501    0 -0.59163516779E+02  0.71677200270E+02  0.37304362242E+03  0.38444698852E+03  0.00000000000E+00 0.  1.
<scales pt_clust_3="77.86093" pt_clust_4="14000.00000" pt_clust_5="48.24309" pt_clust_6="117.41992"></scales>
<clustering>
<clus scale="   48.243">  1  5  2 -1</clus>
<clus scale="   77.861">  1  3  2 -1</clus>
<clus scale="  117.420">  1  6  2 -1</clus>
<clus scale="  117.420">  2  3  1 -1</clus>
</clustering>
</event>
<event>
 6    0  0.3667994E+002  0.1519088E+03  0.7546771E-02  0.1198147E+00
         21   -1    0    0  505  502  0.00000000000E+00  0.00000000000E+00  0.79649559473E+03  0.79649559473E+03  0.00000000000E+00 0.  1.
          1   -1    0    0  502    0 -0.00000000000E+00 -0.00000000000E+00 -0.38603988894E+03  0.38603988894E+03  0.00000000000E+00 0. -1.
         21    1    1    2  503  504  0.34580987626E+02 -0.11088625773E+03 -0.39107432914E+02  0.12256018182E+03  0.00000000000E+00 0.  1.
         21    1    1    2  504  501 -0.46374943375E+02  0.61974946815E+02 -0.13521639183E+03  0.15580437100E+03  0.00000000000E+00 0. -1.
         21    1    1    2  505  503 -0.26855399194E+00 -0.35588548309E+02  0.73260667432E+03  0.73347062391E+03  0.00000000000E+00 0.  1.
          1    1    1    2  501    0  0.12062509741E+02  0.84499859220E+02 -0.14782714379E+03  0.17070030694E+03  0.00000000000E+00 0. -1.
<scales pt_clust_3="138.62480" pt_clust_4="59.67297" pt_clust_5="35.58956" pt_clust_6="59.67297"></scales>
<clustering>
<clus scale="   35.590">  1  5  2 -1</clus>
<clus scale="   59.673">  4  6 -1 -1</clus>
<clus scale="  138.625">  1  3  2 -1</clus>
<clus scale="   35.590">  1  3  2 -1</clus>
</clustering>
</event>
<event>
 6    0  0.3667994E+002  0.1219589E+03  0.7546771E-02  0.1239900E+00
         21   -1    0    0  505  502  0.00000000000E+00  0.00000000000E+00  0.18442302380E+02  0.18442302380E+02  0.00000000000E+00 0. -1.
         -3   -1    0    0    0  501 -0.00000000000E+00 -0.00000000000E+00 -0.10369263131E+04  0.10369263131E+04  0.00000000000E+00 0. -1.
         21    1    1    2  503  502 -0.54247019128E+02 -0.55250705322E+01 -0.93822758918E+02  0.10851716721E+03  0.00000000000E+00 0. -1.
         21    1    1    2  504  501  0.65010277145E+01 -0.33168998824E+02 -0.19484526388E+03  0.19775520904E+03  0.00000000000E+00 0. -1.
         21    1    1    2  505  504  0.10568198628E+03  0.18227897285E+02 -0.48010117856E+03  0.49193300369E+03  0.00000000000E+00 0. -1.
         -3    1    1    2    0  503 -0.57935994865E+02  0.20466172071E+02 -0.24971480933E+03  0.25716323552E+03  0.00000000000E+00 0. -1.
<scales pt_clust_3="52.55026" pt_clust_4="33.80009" pt_clust_5="109.44474" pt_clust_6="52.55026"></scales>
<clustering>
<clus scale="   33.800">  2  4  1 -1</clus>
<clus scale="   52.550">  3  6 -1 -1</clus>
<clus scale="  109.445">  2  5  1 -1</clus>
<clus scale="  121.959">  1  3  2 -1</clus>
</clustering>
</event>
<event>
 6    0  0.3667994E+002  0.1098819E+03  0.7546771E-02  0.1260789E+00
         21   -1    0    0  505  502  0.00000000000E+00  0.00000000000E+00  0.50990825469E+03  0.50990825469E+03  0.00000000000E+00 0.  1.
         -3   -1    0    0    0  501 -0.00000000000E+00 -0.00000000000E+00 -0.26011244777E+03  0.26011244777E+03  0.00000000000E+00 0.  1.
         21    1    1    2  503  501 -0.22491146389E+02  0.31673792187E+02  0.32918042786E+01  0.38986109742E+02  0.00000000000E+00 0. -1.
         21    1    1    2  504  502  0.73695412535E+01  0.10998158150E+03  0.42825568029E+03  0.44221395965E+03  0.00000000000E+00 0.  1.
         21    1    1    2  505  503  0.70968912976E+02 -0.44989555139E+02 -0.10904132566E+02  0.84732206319E+02  0.00000000000E+00 0.  1.
         -3    1    1    2    0  504 -0.55847307841E+02 -0.96665818552E+02 -0.17084754509E+03  0.20408842675E+03  0.00000000000E+00 0.  1.
<scales pt_clust_3="38.84689" pt_clust_4="14000.00000" pt_clust_5="76.98577" pt_clust_6="109.88190"></scales>
<clustering>
<clus scale="   38.847">  2  3  1 -1</clus>
<clus scale="   76.986">  2  5  1 -1</clus>
<clus scale="  109.882">  2  6  1 -1</clus>
<clus scale="  109.882">  1  3  2 -1</clus>
</clustering>
</event>
<event>
 6    0  0.3667994E+002  0.1815216E+03  0.7546771E-02  0.1166338E+00
          2   -1    0    0  503    0 -0.00000000000E+00  0.00000000000E+00  0.52509643450E+04  0.52509643450E+04  0.00000000000E+00 0.  1.
         21   -1    0    0  504  502  0.00000000000E+00 -0.00000000000E+00 -0.59482359831E+02  0.59482359831E+02  0.00000000000E+00 0. -1.
         21    1    1    2  503  505 -0.25122419180E+02  0.25156108769E+02  0.81548678179E+03  0.81626139014E+03  0.00000000000E+00 0. -1.
         21    1    1    2  504  501 -0.61621404567E+02 -0.16954545918E+03  0.93521648843E+02  0.20319734012E+03  0.00000000000E+00 0. -1.
         21    1    1    2  505  502 -0.45607619711E+02 -0.27318448095E+02  0.91470331540E+03  0.91624696877E+03  0.00000000000E+00 0. -1.
          2    1    1    2  501    0  0.13235144346E+03  0.17170779850E+03  0.33677702392E+04  0.33747410058E+04  0.00000000000E+00 0.  1.
<scales pt_clust_3="35.55230" pt_clust_4="181.52164" pt_clust_5="55.40317" pt_clust_6="14000.00000"></scales>
<clustering>
<clus scale="   35.552">  1  3  2 -1</clus>
<clus scale="   55.403">  1  5  2 -1</clus>
<clus scale="  181.522">  2  4  1 -1</clus>
<clus scale="  181.522">  2  3  1 -1</clus>
</clustering>
</event>
<event>
 6    0  0.3667994E+002  0.1021842E+03  0.7546771E-02  0.1275769E+00
         21   -1    0    0  503  502  0.00000000000E+00  0.00000000000E+00  0.15093575106E+03  0.15093575106E+03  0.00000000000E+00 0. -1.
          1   -1    0    0  504    0 -0.00000000000E+00 -0.00000000000E+00 -0.69284053164E+03  0.69284053164E+03  0.00000000000E+00 0. -1.
         21    1    1    2  503  501  0.59761978933E+01 -0.56396928483E+02 -0.42952841376E+02  0.71142638873E+02  0.00000000000E+00 0. -1.
         21    1    1    2  504  505  0.18046765486E+02  0.85503130655E+02 -0.47909934995E+03  0.48700375586E+03  0.00000000000E+00 0. -1.
         21    1    1    2  505  502 -0.96639271233E+02 -0.85682605656E+01  0.10297020860E+03  0.14147589085E+03  0.00000000000E+00 0. -1.
          1    1    1    2  501    0  0.72616307854E+02 -0.20537941607E+02 -0.12282279786E+03  0.14415399712E+03  0.00000000000E+00 0. -1.
<scales pt_clust_3="56.71268" pt_clust_4="102.18420" pt_clust_5="14000.00000" pt_clust_6="77.21838"></scales>
<clustering>
<clus scale="   56.713">  1  3  2 -1</clus>
<clus scale="   77.218">  2  6  1 -1</clus>
<clus scale="  102.184">  2  4  1 -1</clus>
<clus scale="   56.713">  1  3  2 -1</clus>
</clustering>
</event>
<event>
 6    0  0.3667994E+002  0.1008829E+03  0.7546771E-02  0.1278450E+00
          1   -1    0    0  505    0 -0.00000000000E+00  0.00000000000E+00  0.91540110245E+03  0.91540110245E+03  0.00000000000E+00 0. -1.
         21   -1    0    0  504  502  0.00000000000E+00 -0.00000000000E+00 -0.46970077882E+02  0.46970077882E+02  0.00000000000E+00 0.  1.
         21    1    1    2  503  502  0.59593333116E+02  0.37889159364E+02  0.15523570019E+03  0.17054347353E+03  0.00000000000E+00 0.  1.
         21    1    1    2  504  501 -0.85008553523E+02  0.55553477231E+02  0.61034348167E+02  0.11848136841E+03  0.00000000000E+00 0.  1.
         21    1    1    2  505  503 -0.53342116924E+02 -0.33935200198E+02  0.34401115921E+03  0.34977229294E+03  0.00000000000E+00 0. -1.
          1    1    1    2  501    0  0.78757337331E+02 -0.59507436397E+02  0.30814981700E+03  0.32357404545E+03  0.00000000000E+00 0. -1.
<scales pt_clust_3="52.50406" pt_clust_4="100.88285" pt_clust_5="63.22167" pt_clust_6="14000.00000"></scales>
<clustering>
<clus scale="   63.222">  1  5  2 -1</clus>
<clus scale="   52.504">  1  3  2 -1</clus>
<clus scale="  100.883">  2  4  1 -1</clus>
<clus scale="  100.883">  2  3  1 -1</clus>
</clustering>
</event>
<event>
 6    0  0.3667994E+002  0.1913651E+03  0.7546771E-02  0.1157236E+00
         21   -1    0    0  504  502  0.00000000000E+00  0.00000000000E+00  0.37469260738E+03  0.37469260738E+03  0.00000000000E+00 0. -1.
         -4   -1    0    0    0  501 -0.00000000000E+00 -0.00000000000E+00 -0.11645617564E+04  0.11645617564E+04  0.00000000000E+00 0. -1.
         21    1    1    2  503  505  0.48247366883E+02  0.16806463676E+01 -0.25798516091E+03  0.26246328549E+03  0.00000000000E+00 0. -1.
         21    1    1    2  504  503 -0.15366826504E+03  0.11878844893E+03  0.30950211891E+03  0.36539867664E+03  0.00000000000E+00 0. -1.
         21    1    1    2  505  501 -0.36017329104E+02 -0.25974821132E+02 -0.66452625553E+03  0.66600832098E+03  0.00000000000E+00 0. -1.
         -4    1    1    2    0  502  0.14143822726E+03 -0.94494274170E+02 -0.17685985153E+03  0.24538408070E+03  0.00000000000E+00 0. -1.
<scales pt_clust_3="31.77116" pt_clust_4="191.36507" pt_clust_5="44.40652" pt_clust_6="14000.00000"></scales>
<clustering>
<clus scale="   44.407">  2  5  1 -1</clus>
<clus scale="   31.771">  2  3  1 -1</clus>
<clus scale="  191.365">  1  4  2 -1</clus>
<clus scale="  191.365">  1  3  2 -1</clus>
</clustering>
</event>
<event>
 6    0  0.3667994E+002  0.2471466E+03  0.7546771E-02  0.1115121E+00
         21   -1    0    0  504  502  0.00000000000E+00  0.00000000000E+00  0.17303655854E+03  0.17303655854E+03  0.00000000000E+00 0.  1.
          1   -1    0    0  505    0 -0.00000000000E+00 -0.00000000000E+00 -0.12521479060E+04  0.12521479060E+04  0.00000000000E+00 0.  1.
         21    1    1    2  503  502  0.17097347561E+03  0.16215181428E+03  0.61643066780E+02  0.24356725543E+03  0.00000000000E+00 0.  1.
         21    1    1    2  504  501 -0.13398747703E+03 -0.15047955712E+03 -0.68483098327E+03  0.71385587955E+03  0.00000000000E+00 0.  1.
         21    1    1    2  505  503  0.16478946372E+02  0.26149621305E+02 -0.72938533152E+02  0.79217346499E+02  0.00000000000E+00 0.  1.
          1    1    1    2  501    0 -0.53464944951E+02 -0.37821878461E+02 -0.38298489784E+03  0.38854398310E+03  0.00000000000E+00 0.  1.
<scales pt_clust_3="237.95503" pt_clust_4="36.98508" pt_clust_5="30.90887" pt_clust_6="36.98508"></scales>
<clustering>
<clus scale="   30.909">  2  5  1 -1</clus>
<clus scale="   36.985">  4  6 -1 -1</clus>
<clus scale="  237.955">  1  3  2 -1</clus>
<clus scale="  237.955">  1  3  2 -1</clus>
</clustering>
</event>
<event>
 6    0  0.3667994E+002  0.7384228E+02  0.7546771E-02  0.1347494E+00
          1   -1    0    0  503    0 -0.00000000000E+00  0.00000000000E+00  0.67495398231E+02  0.67495398231E+02  0.00000000000E+00 0. -1.
         21   -1    0    0  505  502  0.00000000000E+00 -0.00000000000E+00 -0.37680196658E+03  0.37680196658E+03  0.00000000000E+00 0. -1.
         21    1    1    2  503  502 -0.33750374244E+02 -0.76837142324E+02 -0.36820160122E+02  0.91644740131E+02  0.00000000000E+00 0. -1.
         21    1    1    2  504  501  0.66971472561E+02 -0.20429103385E+02 -0.62534806365E+02  0.93878263774E+02  0.00000000000E+00 0. -1.
         21    1    1    2  505  504  0.32112877413E+02  0.51338581469E+02 -0.14028490023E+03  0.15279640073E+03  0.00000000000E+00 0. -1.
          1    1    1    2  501    0 -0.65333975730E+02  0.45927664240E+02 -0.69666701636E+02  0.10597796018E+03  0.00000000000E+00 0. -1.
<scales pt_clust_3="67.25260" pt_clust_4="14000.00000" pt_clust_5="60.55483" pt_clust_6="73.84228"></scales>
<clustering>
<clus scale="   60.555">  2  5  1 -1</clus>
<clus scale="   67.253">  1  3  2 -1</clus>
<clus scale="   73.842">  1  6  2 -1</clus>
<clus scale="   60.555">  2  3  1 -1</clus>
</clustering>
</event>
<event>
 6    0  0.3667994E+002  0.9648796E+02  0.7546771E-02  0.1287860E+00
         21   -1    0    0  504  502  0.00000000000E+00  0.00000000000E+00  0.64708755921E+02  0.64708755921E+02  0.00000000000E+00 0. -1.
          2   -1    0    0  503    0 -0.00000000000E+00 -0.00000000000E+00 -0.10472414809E+04  0.10472414809E+04  0.00000000000E+00 0. -1.
         21    1    1    2  503  502 -0.30623962135E+02 -0.32555275527E+02 -0.63390834117E+03  0.63548206743E+03  0.00000000000E+00 0. -1.
         21    1    1    2  504  505  0.15767548175E+02 -0.37072283837E+02  0.26464646001E+02  0.48201112978E+02  0.00000000000E+00 0. -1.
         21    1    1    2  505  501  0.63734944231E+02  0.11746054454E+03 -0.20249840757E+03  0.24262054264E+03  0.00000000000E+00 0. -1.
          2    1    1    2  501    0 -0.48878530271E+02 -0.47832985179E+02 -0.17259062227E+03  0.18564651380E+03  0.00000000000E+00 0. -1.
<scales pt_clust_3="45.17339" pt_clust_4="40.28610" pt_clust_5="14000.00000" pt_clust_6="96.48796"></scales>
<clustering>
<clus scale="   40.286">  1  4  2 -1</clus>
<clus scale="   45.173">  2  3  1 -1</clus>
<clus scale="   96.488">  2  6  1 -1</clus>
<clus scale="   40.286">  1  3  2 -1</clus>
</clustering>
</event>
<event>
 6    0  0.3667994E+002  0.8379908E+02  0.7546771E-02  0.1318603E+00
         21   -1    0    0  504  502  0.00000000000E+00  0.00000000000E+00  0.34195207702E+02  0.34195207702E+02  0.00000000000E+00 0. -1.
         -2   -1    0    0    0  501 -0.00000000000E+00 -0.00000000000E+00 -0.22450743602E+04  0.22450743602E+04  0.00000000000E+00 0. -1.
         21    1    1    2  503  501  0.13146218731E+02 -0.57282929921E+02 -0.79304591851E+03  0.79522071527E+03  0.00000000000E+00 0. -1.
         21    1    1    2  504  505 -0.20247445516E+00 -0.90775489122E+02 -0.56637210941E+02  0.10699534609E+03  0.00000000000E+00 0. -1.
         21    1    1    2  505  503  0.42525954628E+02  0.60092633044E+02 -0.23980151963E+03  0.25084726464E+03  0.00000000000E+00 0. -1.
         -2    1    1    2    0  502 -0.55469698904E+02  0.87965785999E+02 -0.11213945034E+04  0.11262062419E+04  0.00000000000E+00 0. -1.
<scales pt_clust_3="58.77208" pt_clust_4="14000.00000" pt_clust_5="83.79908" pt_clust_6="62.86314"></scales>
<clustering>
<clus scale="   58.772">  2  3  1 -1</clus>
<clus scale="   62.863">  2  6  1 -1</clus>
<clus scale="   83.799">  2  5  1 -1</clus>
<clus scale="   83.799">  1  3  2 -1</clus>
</clustering>
</event>
<event>
 6    0  0.3667994E+002  0.1315842E+03  0.7546771E-02  0.1225124E+00
         21   -1    0    0  505  502  0.00000000000E+00  0.00000000000E+00  0.21433408475E+03  0.21433408475E+03  0.00000000000E+00 0.  1.
          1   -1    0    0  504    0 -0.00000000000E+00 -0.00000000000E+00 -0.18375017678E+04  0.18375017678E+04  0.00000000000E+00 0. -1.
         21    1    1    2  503  501  0.73339359958E+02 -0.59064124607E+02 -0.96262271948E+03  0.96721752082E+03  0.00000000000E+00 0. -1.
         21    1    1    2  504  502 -0.23805142685E+02  0.48216809902E+02  0.19645522411E+03  0.20368161590E+03  0.00000000000E+00 0.  1.
         21    1    1    2  505  503 -0.92592999653E+02  0.13286160728E+02 -0.18265781972E+03  0.20521662885E+03  0.00000000000E+00 0. -1.
          1    1    1    2  501    0  0.43058782380E+02 -0.24388460241E+01 -0.67434236801E+03  0.67572008702E+03  0.00000000000E+00 0. -1.
<scales pt_clust_3="32.15935" pt_clust_4="53.77309" pt_clust_5="122.70390" pt_clust_6="32.15935"></scales>
<clustering>
<clus scale="   32.159">  3  6 -1 -1</clus>
<clus scale="   53.773">  1  4  2 -1</clus>
<clus scale="  122.704">  1  5  2 -1</clus>
<clus scale="   53.773">  1  3  2 -1</clus>
</clustering>
</event>
<event>
 6    0  0.3667994E+002  0.1196587E+03  0.7546771E-02  0.1243661E+00
         21   -1    0    0  505  502  0.00000000000E+00  0.00000000000E+00  0.20051066404E+03  0.20051066404E+03  0.00000000000E+00 0. -1.
         -1   -1    0    0    0  501 -0.00000000000E+00 -0.00000000000E+00 -0.18140381060E+03  0.18140381060E+03  0.00000000000E+00 0.  1.
         21    1    1    2  503  502 -0.23684095537E+02  0.43441778803E+02  0.53177400236E+02  0.72635806755E+02  0.00000000000E+00 0. -1.
         21    1    1    2  504  503 -0.50569398447E+02  0.27340519396E+02  0.37977351785E+02  0.68898819357E+02  0.00000000000E+00 0. -1.
         21    1    1    2  505  501 -0.55259091390E+02  0.15196002036E+02 -0.62255665905E+02  0.84618281692E+02  0.00000000000E+00 0. -1.
         -1    1    1    2    0  504  0.12951258537E+03 -0.85978300235E+02 -0.97922326744E+01  0.15576156683E+03  0.00000000000E+00 0.  1.
<scales pt_clust_3="32.12619" pt_clust_4="32.12619" pt_clust_5="57.31043" pt_clust_6="114.53842"></scales>
<clustering>
<clus scale="   32.126">  3  4 -1 -1</clus>
<clus scale="   57.310">  2  5  1 -1</clus>
<clus scale="  114.538">  2  6  1 -1</clus>
<clus scale="  119.659">  1  3  2 -1</clus>
</clustering>
</event>
<event>
 6    0  0.3667994E+002  0.1265855E+03  0.7546771E-02  0.1232612E+00
         -3   -1    0    0    0  501 -0.00000000000E+00  0.00000000000E+00  0.17602429618E+03  0.17602429618E+03  0.00000000000E+00 0.  1.
         21   -1    0    0  505  502  0.00000000000E+00 -0.00000000000E+00 -0.27828646101E+03  0.27828646101E+03  0.00000000000E+00 0.  1.
         21    1    1    2  503  504  0.11757613685E+03 -0.50955225567E+02  0.57735114623E+02  0.14054866214E+03  0.00000000000E+00 0.  1.
         21    1    1    2  504  501 -0.10679833471E+02 -0.30843726219E+02  0.42300964438E+02  0.53430009194E+02  0.00000000000E+00 0.  1.
         21    1    1    2  505  503 -0.10210179563E+03  0.34902874999E+02 -0.17574833705E+03  0.20622915732E+03  0.00000000000E+00 0.  1.
         -3    1    1    2    0  502 -0.47945077513E+01  0.46896076787E+02 -0.26549906838E+02  0.54102928532E+02  0.00000000000E+00 0.  1.
<scales pt_clust_3="14000.00000" pt_clust_4="32.64038" pt_clust_5="126.58548" pt_clust_6="43.98380"></scales>
<clustering>
<clus scale="   32.640">  1  4  2 -1</clus>
<clus scale="   43.984">  2  6  1 -1</clus>
<clus scale="  126.585">  2  5  1 -1</clus>
<clus scale="   43.984">  2  3  1 -1</clus>
</clustering>
</event>
<event>
 6    0  0.3667994E+002  0.1255583E+03  0.7546771E-02  0.1234199E+00
          1   -1    0    0  504    0 -0.00000000000E+00  0.00000000000E+00  0.64201059891E+03  0.64201059891E+03  0.00000000000E+00 0.  1.
         21   -1    0    0  503  502  0.00000000000E+00 -0.00000000000E+00 -0.50462281214E+02  0.50462281214E+02  0.00000000000E+00 0. -1.
         21    1    1    2  503  501 -0.67233704671E+02 -0.34845728854E+02  0.18209440039E+03  0.19721299784E+03  0.00000000000E+00 0.  1.
         21    1    1    2  504  505  0.76675439184E+02  0.52193466519E+02  0.17133329719E+03  0.19482910369E+03  0.00000000000E+00 0. -1.
         21    1    1    2  505  502  0.13614797574E+02  0.41784755332E+02 -0.93673307201E+01  0.44934122623E+02  0.00000000000E+00 0. -1.
          1    1    1    2  501    0 -0.23056532086E+02 -0.59132492997E+02  0.24748795084E+03  0.25549665597E+03  0.00000000000E+00 0.  1.
<scales pt_clust_3="53.70850" pt_clust_4="111.10390" pt_clust_5="43.94688" pt_clust_6="53.70850"></scales>
<clustering>
<clus scale="   43.947">  2  5  1 -1</clus>
<clus scale="   53.708">  3  6 -1 -1</clus>
<clus scale="  111.104">  2  4  1 -1</clus>
<clus scale="   43.947">  2  3  1 -1</clus>
</clustering>
</event>
<event>
 6    0  0.3667994E+002  0.9015162E+02  0.7546771E-02  0.1302485E+00
         21   -1    0    0  503  502  0.00000000000E+00  0.00000000000E+00  0.15364460380E+04  0.15364460380E+04  0.00000000000E+00 0.  1.
         -3   -1    0    0    0  501 -0.00000000000E+00 -0.00000000000E+00 -0.34847856264E+02  0.34847856264E+02  0.00000000000E+00 0.  1.
         21    1    1    2  503  504  0.47961496230E+02  0.27853155529E+02  0.96551265620E+03  0.96710433391E+03  0.00000000000E+00 0.  1.
         21    1    1    2  504  501 -0.35778962187E+02  0.28862160951E+02  0.10701481239E+03  0.11647029038E+03  0.00000000000E+00 0.  1.
         21    1    1    2  505  502 -0.10772743663E+02 -0.11698241717E+03  0.40684927840E+03  0.42347051050E+03  0.00000000000E+00 0.  1.
         -3    1    1    2    0  505 -0.14097903799E+01  0.60267100688E+02  0.22221434788E+02  0.64248759508E+02  0.00000000000E+00 0.  1.
<scales pt_clust_3="55.03979" pt_clust_4="45.96910" pt_clust_5="14000.00000" pt_clust_6="90.15162"></scales>
<clustering>
<clus scale="   45.969">  2  4  1 -1</clus>
<clus scale="   55.040">  1  3  2 -1</clus>
<clus scale="   90.152">  2  6  1 -1</clus>
<clus scale="   55.040">  1  3  2 -1</clus>
</clustering>
</event>
<event>
 6    0  0.3667994E+002  0.1019384E+03  0.7546771E-02  0.1276272E+00
         -1   -1    0    0    0  501 -0.00000000000E+00  0.00000000000E+00  0.19482229442E+04  0.19482229442E+04  0.00000000000E+00 0.  1.
         21   -1    0    0  503  502  0.00000000000E+00 -0.00000000000E+00 -0.33818942853E+02  0.33818942853E+02  0.00000000000E+00 0.  1.
         21    1    1    2  503  504  0.71849664004E+02  0.78032168596E+02  0.68175938012E+02  0.12609263292E+03  0.00000000000E+00 0.  1.
         21    1    1    2  504  505 -0.63108547377E+02  0.60294322005E+01  0.29839289146E+03  0.30505304535E+03  0.00000000000E+00 0.  1.
         21    1    1    2  505  501  0.29594805320E+01 -0.31386353884E+02  0.25588271960E+03  0.25781743139E+03  0.00000000000E+00 0.  1.
         -1    1    1    2    0  502 -0.11700597159E+02 -0.52675246913E+02  0.12919524523E+04  0.12930787774E+04  0.00000000000E+00 0.  1.
<scales pt_clust_3="101.93843" pt_clust_4="62.58209" pt_clust_5="31.52557" pt_clust_6="14000.00000"></scales>
<clustering>
<clus scale="   31.526">  1  5  2 -1</clus>
<clus scale="   62.582">  1  4  2 -1</clus>
<clus scale="  101.938">  2  3  1 -1</clus>
<clus scale="  101.938">  2  3  1 -1</clus>
</clustering>
</event>
<event>
 6    0  0.3667994E+002  0.1072708E+03  0.7546771E-02  0.1265709E+00
         21   -1    0    0  503  502  0.00000000000E+00  0.00000000000E+00  0.60809136942E+03  0.60809136942E+03  0.00000000000E+00 0.  1.
          2   -1    0    0  505    0 -0.00000000000E+00 -0.00000000000E+00 -0.36962719736E+03  0.36962719736E+03  0.00000000000E+00 0.  1.
         21    1    1    2  503  504  0.14242300141E+02 -0.31802177218E+02  0.54330728235E+03  0.54442357098E+03  0.00000000000E+00 0.  1.
         21    1    1    2  504  501  0.44388487855E+02 -0.42197592592E+01 -0.81863626075E+02  0.93219083328E+02  0.00000000000E+00 0.  1.
         21    1    1    2  505  502 -0.11262165589E+03  0.39088462042E+02 -0.92044538929E+01  0.11956699884E+03  0.00000000000E+00 0.  1.
          2    1    1    2  501    0  0.53990867898E+02 -0.30665255648E+01 -0.21377503032E+03  0.22050891362E+03  0.00000000000E+00 0.  1.
<scales pt_clust_3="34.84568" pt_clust_4="32.63183" pt_clust_5="101.07209" pt_clust_6="32.63183"></scales>
<clustering>
<clus scale="   32.632">  4  6 -1 -1</clus>
<clus scale="   34.846">  1  3  2 -1</clus>
<clus scale="  101.072">  1  5  2 -1</clus>
<clus scale="   34.846">  1  3  2 -1</clus>
</clustering>
</event>
<event>
 6    0  0.3667994E+002  0.1286292E+03  0.7546771E-02  0.1229504E+00
         21   -1    0    0  503  502  0.00000000000E+00  0.00000000000E+00  0.26921525698E+03  0.26921525698E+03  0.00000000000E+00 0.  1.
         -1   -1    0    0    0  501 -0.00000000000E+00 -0.00000000000E+00 -0.54987438491E+03  0.54987438491E+03  0.00000000000E+00 0.  1.
         21    1    1    2  503  501 -0.99302373394E+01 -0.32258273425E+02 -0.13384160720E+03  0.13803181386E+03  0.00000000000E+00 0.  1.
         21    1    1    2  504  502 -0.81506082650E+02  0.87038995103E+02  0.24473480011E+03  0.27223914223E+03  0.00000000000E+00 0.  1.
         21    1    1    2  505  504  0.37765971528E+02 -0.38202048637E+01 -0.79320432236E+02  0.87935166690E+02  0.00000000000E+00 0.  1.
         -1    1    1    2    0  505  0.53670348461E+02 -0.50960516815E+02 -0.31223188860E+03  0.32088351911E+03  0.00000000000E+00 0.  1.
<scales pt_clust_3="33.75212" pt_clust_4="118.69079" pt_clust_5="32.14254" pt_clust_6="32.14254"></scales>
<clustering>
<clus scale="   33.752">  2  3  1 -1</clus>
<clus scale="   32.143">  5  6 -1 -1</clus>
<clus scale="  118.691">  1  4  2 -1</clus>
<clus scale="  118.691">  1  3  2 -1</clus>
</clustering>
</event>
<event>
 6    0  0.3667994E+002  0.1338016E+03  0.7546771E-02  0.1221921E+00
          2   -1    0    0  504    0 -0.00000000000E+00  0.00000000000E+00  0.13408474887E+04  0.13408474887E+04  0.00000000000E+00 0.  1.
         21   -1    0    0  501  502  0.00000000000E+00 -0.00000000000E+00 -0.73015814694E+02  0.73015814694E+02  0.00000000000E+00 0. -1.
         21    1    1    2  503  505 -0.14055163549E+03  0.59770527888E+02  0.30989523396E+03  0.34548854435E+03  0.00000000000E+00 0. -1.
         21    1    1    2  504  503  0.47143686475E+02 -0.22916727487E+02  0.45289222903E+03  0.45591564426E+03  0.00000000000E+00 0. -1.
         21    1    1    2  505  502  0.26929900194E+02 -0.14314153263E+03  0.73643090579E+02  0.16321158868E+03  0.00000000000E+00 0. -1.
          2    1    1    2  501    0  0.66478048820E+02  0.10628773223E+03  0.43140112043E+03  0.44924752610E+03  0.00000000000E+00 0.  1.
<scales pt_clust_3="133.80160" pt_clust_4="52.41854" pt_clust_5="14000.00000" pt_clust_6="130.72137"></scales>
<clustering>
<clus scale="   52.419">  1  4  2 -1</clus>
<clus scale="  130.721">  1  6  2 -1</clus>
<clus scale="  133.802">  1  3  2 -1</clus>
<clus scale="  133.802">  2  3  1 -1</clus>
</clustering>
</event>
<event>
 6    0  0.3667994E+002  0.6701765E+02  0.7546771E-02  0.1370539E+00
          2   -1    0    0  503    0 -0.00000000000E+00  0.00000000000E+00  0.14916245766E+04  0.14916245766E+04  0.00000000000E+00 0. -1.
         21   -1    0    0  504  502  0.00000000000E+00 -0.00000000000E+00 -0.13912639972E+03  0.13912639972E+03  0.00000000000E+00 0. -1.
         21    1    1    2  503  502  0.27139066145E+02  0.30999542882E+02  0.76874679567E+02  0.87219360973E+02  0.00000000000E+00 0. -1.
         21    1    1    2  504  505 -0.24686952859E+02  0.46050870570E+02 -0.12341333223E+03  0.13401857668E+03  0.00000000000E+00 0. -1.
         21    1    1    2  505  501  0.45956340344E+02  0.25846211608E+02  0.29889954687E+03  0.30351433408E+03  0.00000000000E+00 0. -1.
          2    1    1    2  501    0 -0.48408453630E+02 -0.10289662506E+03  0.11001372827E+04  0.11059987046E+04  0.00000000000E+00 0. -1.
<scales pt_clust_3="41.20074" pt_clust_4="52.30537" pt_clust_5="14000.00000" pt_clust_6="67.01765"></scales>
<clustering>
<clus scale="   41.201">  1  3  2 -1</clus>
<clus scale="   52.305">  2  4  1 -1</clus>
<clus scale="   67.018">  1  6  2 -1</clus>
<clus scale="   52.305">  2  3  1 -1</clus>
</clustering>
</event>
<event>
 6    0  0.3667994E+002  0.3922719E+03  0.7546771E-02  0.1046489E+00
          2   -1    0    0  504    0 -0.00000000000E+00  0.00000000000E+00  0.10332918075E+04  0.10332918075E+04  0.00000000000E+00 0. -1.
         21   -1    0    0  505  502  0.00000000000E+00 -0.00000000000E+00 -0.10328751122E+04  0.10328751122E+04  0.00000000000E+00 0. -1.
         21    1    1    2  503  501  0.80337502428E+01  0.77003316444E+02  0.10413870097E+03  0.12976486785E+03  0.00000000000E+00 0. -1.
         21    1    1    2  504  502  0.40548861170E+02  0.43241738964E+02 -0.79165880129E+03  0.79387512607E+03  0.00000000000E+00 0. -1.
         21    1    1    2  505  503 -0.30498620326E+03 -0.27360148914E+03  0.19302163302E+02  0.41017914690E+03  0.00000000000E+00 0.  1.
          2    1    1    2  501    0  0.25640359185E+03  0.15335643374E+03  0.66863463237E+03  0.73234777891E+03  0.00000000000E+00 0. -1.
<scales pt_clust_3="77.59654" pt_clust_4="59.27949" pt_clust_5="361.67715" pt_clust_6="77.59654"></scales>
<clustering>
<clus scale="   59.279">  2  4  1 -1</clus>
<clus scale="   77.597">  3  6 -1 -1</clus>
<clus scale="  361.677">  2  5  1 -1</clus>
<clus scale="   59.279">  2  3  1 -1</clus>
</clustering>
</event>
<event>
 6    0  0.3667994E+002  0.1299019E+03  0.7546771E-02  0.1227601E+00
         21   -1    0    0  504  502  0.00000000000E+00  0.00000000000E+00  0.27100584571E+02  0.27100584571E+02  0.00000000000E+00 0.  1.
          2   -1    0    0  505    0 -0.00000000000E+00 -0.00000000000E+00 -0.15652310936E+04  0.15652310936E+04  0.00000000000E+00 0.  1.
         21    1    1    2  503  501 -0.24886544447E+02 -0.23077263169E+02 -0.75506688032E+02  0.82783815492E+02  0.00000000000E+00 0.  1.
         21    1    1    2  504  503 -0.34264518321E+02  0.66287704967E+02 -0.19567545861E+03  0.20942063449E+03  0.00000000000E+00 0.  1.
         21    1    1    2  505  502  0.30040927936E+02  0.97634202009E+02 -0.90351408381E+03  0.90927036376E+03  0.00000000000E+00 0. -1.
          2    1    1    2  501    0  0.29110134832E+02 -0.14084464381E+03 -0.36343427860E+03  0.39085686447E+03  0.00000000000E+00 0.  1.
<scales pt_clust_3="33.57910" pt_clust_4="74.61982" pt_clust_5="109.98375" pt_clust_6="33.57910"></scales>
<clustering>
<clus scale="   33.579">  3  6 -1 -1</clus>
<clus scale="   74.620">  1  4  2 -1</clus>
<clus scale="  109.984">  2  5  1 -1</clus>
<clus scale="   74.620">  1  3  2 -1</clus>
</clustering>
</event>
<event>
 6    0  0.3667994E+002  0.7934349E+02  0.7546771E-02  0.1330925E+00
         21   -1    0    0  504  502  0.00000000000E+00  0.00000000000E+00  0.21535034869E+03  0.21535034869E+03  0.00000000000E+00 0.  1.
          2   -1    0    0  503    0 -0.00000000000E+00 -0.00000000000E+00 -0.72444881520E+03  0.72444881520E+03  0.00000000000E+00 0.  1.
         21    1    1    2  503  502  0.56113171265E+02 -0.56202622780E+02  0.18351678071E+03  0.19996457586E+03  0.00000000000E+00 0.  1.
         21    1    1    2  504  505 -0.41222690300E+02  0.66791686807E+02 -0.30968401848E+03  0.31947555607E+03  0.00000000000E+00 0.  1.
         21    1    1    2  505  501 -0.77381309648E+02 -0.41369950303E+02 -0.29726546022E+03  0.30994530761E+03  0.00000000000E+00 0.  1.
          2    1    1    2  501    0  0.62490828684E+02  0.30780886277E+02 -0.85665768519E+02  0.11041372435E+03  0.00000000000E+00 0.  1.
<scales pt_clust_3="14000.00000" pt_clust_4="79.34349" pt_clust_5="54.01356" pt_clust_6="69.66037"></scales>
<clustering>
<clus scale="   69.660">  2  6  1 -1</clus>
<clus scale="   54.014">  2  5  1 -1</clus>
<clus scale="   79.343">  2  4  1 -1</clus>
<clus scale="   79.343">  1  3  2 -1</clus>
</clustering>
</event>
<event>
 6    0  0.3667994E+002  0.1171306E+03  0.7546771E-02  0.1247907E+00
         21   -1    0    0  505  502  0.00000000000E+00  0.00000000000E+00  0.53890460328E+03  0.53890460328E+03  0.00000000000E+00 0.  1.
          2   -1    0    0  503    0 -0.00000000000E+00 -0.00000000000E+00 -0.13025364772E+04  0.13025364772E+04  0.00000000000E+00 0. -1.
         21    1    1    2  503  502 -0.30233210844E+02 -0.22883164205E+01 -0.42095784330E+03  0.42204832574E+03  0.00000000000E+00 0. -1.
         21    1    1    2  504  501  0.34214839215E+02  0.65239981811E+02 -0.33803537507E+03  0.34596939929E+03  0.00000000000E+00 0.  1.
         21    1    1    2  505  504  0.15046968928E+02 -0.11725481670E+03  0.52628093063E+03  0.53939477311E+03  0.00000000000E+00 0.  1.
          2    1    1    2  501    0 -0.19028597299E+02  0.54303151307E+02 -0.53091958613E+03  0.53402858229E+03  0.00000000000E+00 0. -1.
<scales pt_clust_3="30.31969" pt_clust_4="117.13057" pt_clust_5="14000.00000" pt_clust_6="64.74481"></scales>
<clustering>
<clus scale="   30.320">  2  3  1 -1</clus>
<clus scale="   64.745">  2  6  1 -1</clus>
<clus scale="  117.131">  2  4  1 -1</clus>
<clus scale="  117.131">  1  3  2 -1</clus>
</clustering>
</event>
<event>
 6    0  0.3667994E+002  0.1281462E+03  0.7546771E-02  0.1230233E+00
         21   -1    0    0  505  502  0.00000000000E+00  0.00000000000E+00  0.46056425183E+03  0.46056425183E+03  0.00000000000E+00 0. -1.
          2   -1    0    0  503    0 -0.00000000000E+00 -0.00000000000E+00 -0.11942314781E+04  0.11942314781E+04  0.00000000000E+00 0. -1.
         21    1    1    2  503  504 -0.24015595148E+02 -0.22581650577E+02 -0.14513295614E+03  0.14882961638E+03  0.00000000000E+00 0.  1.
         21    1    1    2  504  502  0.47062085979E+02  0.65474351233E+01 -0.95862764635E+02  0.10699242257E+03  0.00000000000E+00 0.  1.
         21    1    1    2  505  501 -0.11070412894E+03  0.65081022746E+02  0.44130587271E+03  0.45961050573E+03  0.00000000000E+00 0. -1.
          2    1    1    2  501    0  0.87657638111E+02 -0.49046807292E+02 -0.93397737823E+03  0.93936318528E+03  0.00000000000E+00 0. -1.
<scales pt_clust_3="32.96483" pt_clust_4="44.94814" pt_clust_5="14000.00000" pt_clust_6="128.14619"></scales>
<clustering>
<clus scale="   32.965">  2  3  1 -1</clus>
<clus scale="   44.948">  2  4  1 -1</clus>
<clus scale="  128.146">  2  6  1 -1</clus>
<clus scale="  128.146">  1  3  2 -1</clus>
</clustering>
</event>
<event>
 6    0  0.3667994E+002  0.1057495E+03  0.7546771E-02  0.1268650E+00
         -1   -1    0    0    0  501 -0.00000000000E+00  0.00000000000E+00  0.10426155572E+04  0.10426155572E+04  0.00000000000E+00 0. -1.
         21   -1    0    0  505  502  0.00000000000E+00 -0.00000000000E+00 -0.61957085795E+02  0.61957085795E+02  0.00000000000E+00 0. -1.
         21    1    1    2  503  501  0.62989111309E+01 -0.34641217187E+02  0.50630702264E+03  0.50752979359E+03  0.00000000000E+00 0. -1.
         21    1    1    2  504  502  0.41452277026E+01 -0.41135557443E+02 -0.24171816773E+02  0.47891478625E+02  0.00000000000E+00 0. -1.
         21    1    1    2  505  503 -0.87770682004E+02 -0.31811231980E+02  0.26069763415E+03  0.27690955843E+03  0.00000000000E+00 0. -1.
         -1    1    1    2    0  504  0.77326543171E+02  0.10758800661E+03  0.23782563140E+03  0.27224181236E+03  0.00000000000E+00 0. -1.
<scales pt_clust_3="35.20923" pt_clust_4="42.12097" pt_clust_5="105.74948" pt_clust_6="14000.00000"></scales>
<clustering>
<clus scale="   35.209">  1  3  2 -1</clus>
<clus scale="   42.121">  2  4  1 -1</clus>
<clus scale="  105.749">  1  5  2 -1</clus>
<clus scale="   42.121">  2  3  1 -1</clus>
</clustering>
</event>
<event>
 6    0  0.3667994E+002  0.1361806E+03  0.7546771E-02  0.1218563E+00
         21   -1    0    0  503  502  0.00000000000E+00  0.00000000000E+00  0.75906764403E+03  0.75906764403E+03  0.00000000000E+00 0.  1.
          2   -1    0    0  504    0 -0.00000000000E+00 -0.00000000000E+00 -0.85792876555E+02  0.85792876555E+02  0.00000000000E+00 0. -1.
         21    1    1    2  503  501  0.13607791953E+03  0.14163968407E+02  0.59485010323E+03  0.61038058906E+03  0.00000000000E+00 0.  1.
         21    1    1    2  504  505  0.27170018204E+02  0.21681025638E+02  0.35399710870E+02  0.49612662614E+02  0.00000000000E+00 0. -1.
         21    1    1    2  505  502 -0.36427713590E+02  0.82044126654E+01  0.33687429373E+02  0.50290492166E+02  0.00000000000E+00 0. -1.
          2    1    1    2  501    0 -0.12682022415E+03 -0.44049406710E+02  0.93375239983E+01  0.13457677674E+03  0.00000000000E+00 0. -1.
<scales pt_clust_3="14000.00000" pt_clust_4="34.76028" pt_clust_5="35.16297" pt_clust_6="136.18063"></scales>
<clustering>
<clus scale="   34.760">  2  4  1 -1</clus>
<clus scale="   35.163">  2  5  1 -1</clus>
<clus scale="  136.181">  2  6  1 -1</clus>
<clus scale="  136.181">  1  3  2 -1</clus>
</clustering>
</event>
<event>
 6    0  0.3667994E+002  0.1174154E+03  0.7546771E-02  0.1247423E+00
         21   -1    0    0  505  502  0.00000000000E+00  0.00000000000E+00  0.17939024572E+03  0.17939024572E+03  0.00000000000E+00 0. -1.
          2   -1    0    0  504    0 -0.00000000000E+00 -0.00000000000E+00 -0.12190295301E+04  0.12190295301E+04  0.00000000000E+00 0. -1.
         21    1    1    2  503  502 -0.10999621821E+03  0.41734849478E+02 -0.32288897094E+03  0.34365426411E+03  0.00000000000E+00 0.  1.
         21    1    1    2  504  503  0.28522991834E+02 -0.25797360673E+02 -0.10090930606E+03  0.10798959640E+03  0.00000000000E+00 0.  1.
         21    1    1    2  505  501 -0.26965930242E+02 -0.36224056081E+02  0.15840160387E+03  0.16471311952E+03  0.00000000000E+00 0. -1.
          2    1    1    2  501    0  0.10843915661E+03  0.20286567275E+02 -0.77424261120E+03  0.78206279575E+03  0.00000000000E+00 0. -1.
<scales pt_clust_3="117.41543" pt_clust_4="38.45861" pt_clust_5="45.16959" pt_clust_6="14000.00000"></scales>
<clustering>
<clus scale="   38.459">  2  4  1 -1</clus>
<clus scale="   45.170">  1  5  2 -1</clus>
<clus scale="  117.415">  1  3  2 -1</clus>
<clus scale="   45.170">  1  3  2 -1</clus>
</clustering>
</event>
<event>
 6    0  0.3667994E+002  0.7833663E+02  0.7546771E-02  0.1333839E+00
         -2   -1    0    0    0  501 -0.00000000000E+00  0.00000000000E+00  0.23487902520E+03  0.23487902520E+03  0.00000000000E+00 0. -1.
         21   -1    0    0  505  502  0.00000000000E+00 -0.00000000000E+00 -0.16909133552E+03  0.16909133552E+03  0.00000000000E+00 0. -1.
         21    1    1    2  503  501 -0.47272659543E+01 -0.75167899553E+02  0.12053113073E+03  0.14212780742E+03  0.00000000000E+00 0. -1.
         21    1    1    2  504  503  0.84579674529E+02  0.36168842897E+02  0.18346121484E+02  0.93800249005E+02  0.00000000000E+00 0. -1.
         21    1    1    2  505  504 -0.94585670630E+01  0.37849064397E+02 -0.87836922086E+02  0.96111087020E+02  0.00000000000E+00 0. -1.
         -2    1    1    2    0  502 -0.70393841511E+02  0.11499922587E+01  0.14747359546E+02  0.71931217274E+02  0.00000000000E+00 0. -1.
<scales pt_clust_3="70.12969" pt_clust_4="78.33663" pt_clust_5="39.01303" pt_clust_6="14000.00000"></scales>
<clustering>
<clus scale="   39.013">  2  5  1 -1</clus>
<clus scale="   70.130">  1  3  2 -1</clus>
<clus scale="   78.337">  1  4  2 -1</clus>
<clus scale="   39.013">  2  3  1 -1</clus>
</clustering>
</event>
<event>
 6    0  0.3667994E+002  0.1069255E+03  0.7546771E-02  0.1266372E+00
         21   -1    0    0  504  502  0.00000000000E+00  0.00000000000E+00  0.40810631988E+02  0.40810631988E+02  0.00000000000E+00 0. -1.
          2   -1    0    0  503    0 -0.00000000000E+00 -0.00000000000E+00 -0.97930176455E+03  0.97930176455E+03  0.00000000000E+00 0. -1.
         21    1    1    2  503  502  0.10175873265E+03 -0.73854139013E+02 -0.49859488647E+03  0.51420437020E+03  0.00000000000E+00 0. -1.
         21    1    1    2  504  505 -0.18322159012E+02  0.42714916084E+02 -0.97715397444E+01  0.47494721348E+02  0.00000000000E+00 0. -1.
         21    1    1    2  505  501 -0.43069535305E+02  0.75538489415E+02 -0.16420531938E+03  0.18580752183E+03  0.00000000000E+00 0. -1.
          2    1    1    2  501    0 -0.40367038338E+02 -0.44399266486E+02 -0.26591938696E+03  0.27260578316E+03  0.00000000000E+00 0. -1.
<scales pt_clust_3="106.92551" pt_clust_4="46.47866" pt_clust_5="14000.00000" pt_clust_6="57.43241"></scales>
<clustering>
<clus scale="   46.479">  1  4  2 -1</clus>
<clus scale="   57.432">  2  6  1 -1</clus>
<clus scale="  106.926">  2  3  1 -1</clus>
<clus scale="   46.479">  1  3  2 -1</clus>
</clustering>
</event>
<event>
 6    0  0.3667994E+002  0.1309623E+03  0.7546771E-02  0.1226035E+00
         -3   -1    0    0    0  501 -0.00000000000E+00  0.00000000000E+00  0.82610526221E+02  0.82610526221E+02  0.00000000000E+00 0. -1.
         21   -1    0    0  505  502  0.00000000000E+00 -0.00000000000E+00 -0.10532644212E+04  0.10532644212E+04  0.00000000000E+00 0.  1.
         21    1    1    2  503  502 -0.52933979990E+02 -0.12043627406E+03 -0.77223333884E+03  0.78335894197E+03  0.00000000000E+00 0.  1.
         21    1    1    2  504  501 -0.55593375887E+02 -0.37431933201E+02 -0.62288565108E+02  0.91496657911E+02  0.00000000000E+00 0. -1.
         21    1    1    2  505  504  0.21888892268E+01  0.67464580323E+02 -0.21320123484E+01  0.67533742017E+02  0.00000000000E+00 0.  1.
         -3    1    1    2    0  503  0.10633846665E+03  0.90403626936E+02 -0.13399997863E+03  0.19348560548E+03  0.00000000000E+00 0. -1.
<scales pt_clust_3="130.96227" pt_clust_4="67.02069" pt_clust_5="55.21954" pt_clust_6="14000.00000"></scales>
<clustering>
<clus scale="   67.021">  1  4  2 -1</clus>
<clus scale="   55.220">  1  5  2 -1</clus>
<clus scale="  130.962">  2  3  1 -1</clus>
<clus scale="  130.962">  2  3  1 -1</clus>
</clustering>
</event>
<event>
 6    0  0.3667994E+002  0.1295512E+03  0.7546771E-02  0.1228123E+00
         21   -1    0    0  504  502  0.00000000000E+00  0.00000000000E+00  0.19321981952E+03  0.19321981952E+03  0.00000000000E+00 0.  1.
         -1   -1    0    0    0  501 -0.00000000000E+00 -0.00000000000E+00 -0.10663223888E+04  0.10663223888E+04  0.00000000000E+00 0.  1.
         21    1    1    2  503  505 -0.39936914577E+02  0.43598459703E+02 -0.26862930105E+03  0.27505905588E+03  0.00000000000E+00 0.  1.
         21    1    1    2  504  503  0.96468098707E+02 -0.78626531811E+02  0.16753724881E+03  0.20870303139E+03  0.00000000000E+00 0.  1.
         21    1    1    2  505  501 -0.40072537890E+02  0.80773025686E+01 -0.30872872290E+03  0.31142330589E+03  0.00000000000E+00 0.  1.
         -1    1    1    2    0  502 -0.16458646239E+02  0.26950769539E+02 -0.46328179412E+03  0.46435681515E+03  0.00000000000E+00 0.  1.
<scales pt_clust_3="33.56765" pt_clust_4="123.43470" pt_clust_5="33.56765" pt_clust_6="31.57896"></scales>
<clustering>
<clus scale="   31.579">  2  6  1 -1</clus>
<clus scale="   33.568">  3  5 -1 -1</clus>
<clus scale="  123.435">  1  4  2 -1</clus>
<clus scale="  123.435">  1  3  2 -1</clus>
</clustering>
</event>
<event>
 6    0  0.3667994E+002  0.7103556E+02  0.7546771E-02  0.1356607E+00
         21   -1    0    0  504  502  0.00000000000E+00  0.00000000000E+00  0.74108438890E+02  0.74108438890E+02  0.00000000000E+00 0.  1.
          2   -1    0    0  505    0 -0.00000000000E+00 -0.00000000000E+00 -0.14666636273E+04  0.14666636273E+04  0.00000000000E+00 0. -1.
         21    1    1    2  503  502 -0.52982596611E+02  0.15849816682E+02  0.49338406882E+02  0.74112418839E+02  0.00000000000E+00 0.  1.
         21    1    1    2  504  501  0.88244132355E+02 -0.75142899497E+02 -0.31707124118E+03  0.33759095696E+03  0.00000000000E+00 0. -1.
         21    1    1    2  505  503 -0.30999830591E+02  0.10824869846E+02 -0.17840748047E+03  0.18140395914E+03  0.00000000000E+00 0.  1.
          2    1    1    2  501    0 -0.42617051537E+01  0.48468212969E+02 -0.94641487362E+03  0.94766473122E+03  0.00000000000E+00 0. -1.
<scales pt_clust_3="55.61832" pt_clust_4="71.03556" pt_clust_5="32.83546" pt_clust_6="14000.00000"></scales>
<clustering>
<clus scale="   32.835">  2  5  1 -1</clus>
<clus scale="   55.618">  1  3  2 -1</clus>
<clus scale="   71.036">  1  4  2 -1</clus>
<clus scale="   55.618">  1  3  2 -1</clus>
</clustering>
</event>
<event>
 6    0  0.3667994E+002  0.1589777E+03  0.7546771E-02  0.1189856E+00
         -3   -1    0    0    0  501 -0.00000000000E+00  0.00000000000E+00  0.83797668896E+03  0.83797668896E+03  0.00000000000E+00 0.  1.
         21   -1    0    0  503  502  0.00000000000E+00 -0.00000000000E+00 -0.61977668337E+03  0.61977668337E+03  0.00000000000E+00 0.  1.
         21    1    1    2  503  504 -0.42788159337E+02  0.15492995806E+03 -0.53491704451E+03  0.55854307174E+03  0.00000000000E+00 0.  1.
         21    1    1    2  504  505  0.14357755202E+02 -0.58485319727E+02  0.62426594855E+03  0.62716397559E+03  0.00000000000E+00 0.  1.
         21    1    1    2  505  501 -0.35958778462E+02  0.37506934784E+02  0.11073907786E+03  0.12232312647E+03  0.00000000000E+00 0. -1.
         -3    1    1    2    0  502  0.64389182597E+02 -0.13395157312E+03  0.18112023684E+02  0.14972319853E+03  0.00000000000E+00 0.  1.
<scales pt_clust_3="14000.00000" pt_clust_4="30.93397" pt_clust_5="51.95964" pt_clust_6="158.97766"></scales>
<clustering>
<clus scale="   51.960">  1  5  2 -1</clus>
<clus scale="   30.934">  1  4  2 -1</clus>
<clus scale="  158.978">  1  6  2 -1</clus>
<clus scale="  158.978">  2  3  1 -1</clus>
</clustering>
</event>
<event>
 6    0  0.3667994E+002  0.8676119E+02  0.7546771E-02  0.1310890E+00
         -1   -1    0    0    0  501 -0.00000000000E+00  0.00000000000E+00  0.42312381290E+03  0.42312381290E+03  0.00000000000E+00 0.  1.
         21   -1    0    0  505  502  0.00000000000E+00 -0.00000000000E+00 -0.12534799348E+04  0.12534799348E+04  0.00000000000E+00 0. -1.
         21    1    1    2  503  502 -0.15628734021E+02  0.33476199446E+02 -0.28191683069E+02  0.46472403109E+02  0.00000000000E+00 0. -1.
         21    1    1    2  504  501  0.51782877502E+02 -0.50876730694E+02  0.54272030723E+02  0.90638631098E+02  0.00000000000E+00 0.  1.
         21    1    1    2  505  504  0.56962797332E+02  0.43980570400E+02 -0.11899914275E+04  0.11921655290E+04  0.00000000000E+00 0. -1.
         -1    1    1    2    0  503 -0.93116940814E+02 -0.26580039152E+02  0.33355495796E+03  0.34732718455E+03  0.00000000000E+00 0.  1.
<scales pt_clust_3="36.94473" pt_clust_4="72.07692" pt_clust_5="86.76119" pt_clust_6="14000.00000"></scales>
<clustering>
<clus scale="   36.945">  2  3  1 -1</clus>
<clus scale="   72.077">  1  4  2 -1</clus>
<clus scale="   86.761">  2  5  1 -1</clus>
<clus scale="   36.945">  2  3  1 -1</clus>
</clustering>
</event>
<event>
 6    0  0.3667994E+002  0.1396249E+03  0.7546771E-02  0.1213835E+00
          2   -1    0    0  503    0 -0.00000000000E+00  0.00000000000E+00  0.30992739505E+04  0.30992739505E+04  0.00000000000E+00 0. -1.
         21   -1    0    0  504  502  0.00000000000E+00 -0.00000000000E+00 -0.20934996835E+02  0.20934996835E+02  0.00000000000E+00 0. -1.
         21    1    1    2  503  502 -0.42948812859E+02  0.13919355000E+03  0.28718387199E+03  0.32201556052E+03  0.00000000000E+00 0. -1.
         21    1    1    2  504  505 -0.13233682485E+02 -0.27435207509E+02  0.13245067468E+03  0.13590806520E+03  0.00000000000E+00 0. -1.
         21    1    1    2  505  501  0.50791276810E+02 -0.58991200692E+02  0.11398507735E+04  0.11425057993E+04  0.00000000000E+00 0. -1.
          2    1    1    2  501    0  0.53912185343E+01 -0.52767141802E+02  0.15188536336E+04  0.15197795224E+04  0.00000000000E+00 0. -1.
<scales pt_clust_3="126.83652" pt_clust_4="30.46015" pt_clust_5="48.20318" pt_clust_6="48.20318"></scales>
<clustering>
<clus scale="   30.460">  2  4  1 -1</clus>
<clus scale="   48.203">  5  6 -1 -1</clus>
<clus scale="  126.837">  2  3  1 -1</clus>
<clus scale="   30.460">  2  3  1 -1</clus>
</clustering>
</event>
<event>
 6    0  0.3667994E+002  0.2371408E+03  0.7546771E-02  0.1121712E+00
         21   -1    0    0  504  502  0.00000000000E+00  0.00000000000E+00  0.19840971238E+03  0.19840971238E+03  0.00000000000E+00 0.  1.
          2   -1    0    0  505    0 -0.00000000000E+00 -0.00000000000E+00 -0.13928195217E+04  0.13928195217E+04  0.00000000000E+00 0.  1.
         21    1    1    2  503  501  0.68316088600E+02  0.61660913763E+02 -0.41728682744E+03  0.42731423169E+03  0.00000000000E+00 0.  1.
         21    1    1    2  504  503 -0.14073715414E+03 -0.18223997747E+03  0.11121229073E+03  0.25570789888E+03  0.00000000000E+00 0.  1.
         21    1    1    2  505  502  0.23248179605E+02  0.44684932172E+02 -0.78059076623E+02  0.92900163947E+02  0.00000000000E+00 0. -1.
          2    1    1    2  501    0  0.49172885938E+02  0.75894131530E+02 -0.81027619598E+03  0.81530693955E+03  0.00000000000E+00 0.  1.
<scales pt_clust_3="62.83882" pt_clust_4="227.51795" pt_clust_5="50.37083" pt_clust_6="62.83882"></scales>
<clustering>
<clus scale="   50.371">  2  5  1 -1</clus>
<clus scale="   62.839">  3  6 -1 -1</clus>
<clus scale="  227.518">  1  4  2 -1</clus>
<clus scale="  227.518">  1  3  2 -1</clus>
</clustering>
</event>
<event>
 6    0  0.3667994E+002  0.1876080E+03  0.7546771E-02  0.1160637E+00
         21   -1    0    0  501  502  0.00000000000E+00  0.00000000000E+00  0.37144863071E+03  0.37144863071E+03  0.00000000000E+00 0. -1.
          2   -1    0    0  503    0 -0.00000000000E+00 -0.00000000000E+00 -0.74128294438E+03  0.74128294438E+03  0.00000000000E+00 0.  1.
         21    1    1    2  503  504  0.29801465724E+02  0.11130392250E+02 -0.80191416198E+02  0.86270946574E+02  0.00000000000E+00 0.  1.
         21    1    1    2  504  505  0.12325884428E+03  0.61875386034E+02 -0.11244122774E+03  0.17794475488E+03  0.00000000000E+00 0.  1.
         21    1    1    2  505  502  0.22098776982E+02 -0.27509194989E+02  0.31868821133E+03  0.32063575564E+03  0.00000000000E+00 0. -1.
          2    1    1    2  501    0 -0.17515908699E+03 -0.45496583295E+02 -0.49588988106E+03  0.52788011800E+03  0.00000000000E+00 0.  1.
<scales pt_clust_3="30.16660" pt_clust_4="30.16660" pt_clust_5="35.28614" pt_clust_6="176.78079"></scales>
<clustering>
<clus scale="   30.167">  3  4 -1 -1</clus>
<clus scale="   35.286">  1  5  2 -1</clus>
<clus scale="  176.781">  2  6  1 -1</clus>
<clus scale="   35.286">  1  3  2 -1</clus>
</clustering>
</event>
<event>
 6    0  0.3667994E+002  0.1110003E+03  0.7546771E-02  0.1258729E+00
         21   -1    0    0  503  502  0.00000000000E+00  0.00000000000E+00  0.55534916919E+02  0.55534916919E+02  0.00000000000E+00 0.  1.
          2   -1    0    0  504    0 -0.00000000000E+00 -0.00000000000E+00 -0.16147146791E+04  0.16147146791E+04  0.00000000000E+00 0. -1.
         21    1    1    2  503  505  0.75662010168E+01 -0.34851629679E+02  0.32335954265E+02  0.48140392887E+02  0.00000000000E+00 0.  1.
         21    1    1    2  504  502 -0.58627149695E+02  0.13505753565E+01 -0.51256883499E+03  0.51591256754E+03  0.00000000000E+00 0. -1.
         21    1    1    2  505  501  0.79600970130E+02 -0.65106302554E+02 -0.24152246358E+03  0.26250380091E+03  0.00000000000E+00 0. -1.
          2    1    1    2  501    0 -0.28540021452E+02  0.98607356876E+02 -0.83742441792E+03  0.84369283473E+03  0.00000000000E+00 0. -1.
<scales pt_clust_3="35.66348" pt_clust_4="57.85246" pt_clust_5="111.00034" pt_clust_6="14000.00000"></scales>
<clustering>
<clus scale="   35.663">  1  3  2 -1</clus>
<clus scale="   57.852">  2  4  1 -1</clus>
<clus scale="  111.000">  1  5  2 -1</clus>
<clus scale="   35.663">  1  3  2 -1</clus>
</clustering>
</event>
<event>
 6    0  0.3667994E+002  0.1729944E+03  0.7546771E-02  0.1174761E+00
          1   -1    0    0  503    0 -0.00000000000E+00  0.00000000000E+00  0.14061149405E+04  0.14061149405E+04  0.00000000000E+00 0. -1.
         21   -1    0    0  504  502  0.00000000000E+00 -0.00000000000E+00 -0.10169711007E+03  0.10169711007E+03  0.00000000000E+00 0.  1.
         21    1    1    2  503  505 -0.59179690973E+02 -0.44565690328E+02  0.50127026993E+03  0.50671512716E+03  0.00000000000E+00 0.  1.
         21    1    1    2  504  501  0.51383132233E+02  0.90371707742E+01  0.10505175824E+03  0.11729351492E+03  0.00000000000E+00 0.  1.
         21    1    1    2  505  502 -0.15450640356E+03  0.31843498485E+01 -0.11688838135E+02  0.15498063673E+03  0.00000000000E+00 0.  1.
          1    1    1    2  501    0  0.16230296230E+03  0.32344169705E+02  0.70978464041E+03  0.72882277177E+03  0.00000000000E+00 0. -1.
<scales pt_clust_3="74.08331" pt_clust_4="37.99889" pt_clust_5="159.20681" pt_clust_6="37.99889"></scales>
<clustering>
<clus scale="   37.999">  4  6 -1 -1</clus>
<clus scale="   74.083">  1  3  2 -1</clus>
<clus scale="  159.207">  2  5  1 -1</clus>
<clus scale="  159.207">  2  3  1 -1</clus>
</clustering>
</event>
<event>
 6    0  0.3667994E+002  0.7308732E+02  0.7546771E-02  0.1349898E+00
         21   -1    0    0  505  502  0.00000000000E+00  0.00000000000E+00  0.95089330445E+03  0.95089330445E+03  0.00000000000E+00 0.  1.
          2   -1    0    0  504    0 -0.00000000000E+00 -0.00000000000E+00 -0.74164233112E+03  0.74164233112E+03  0.00000000000E+00 0. -1.
         21    1    1    2  503  501 -0.10387724642E+03 -0.34006112220E+02 -0.18485129663E+03  0.21474845717E+03  0.00000000000E+00 0. -1.
         21    1    1    2  504  502 -0.18082863299E+02  0.32915433028E+02 -0.54357317628E+02  0.66069158131E+02  0.00000000000E+00 0. -1.
         21    1    1    2  505  503  0.66968280819E+02  0.28629522841E+02  0.92669077668E+03  0.92954838271E+03  0.00000000000E+00 0.  1.
          2    1    1    2  501    0  0.54991828899E+02 -0.27538843650E+02 -0.47823118909E+03  0.48216963755E+03  0.00000000000E+00 0. -1.
<scales pt_clust_3="73.08732" pt_clust_4="37.55550" pt_clust_5="14000.00000" pt_clust_6="42.47159"></scales>
<clustering>
<clus scale="   37.556">  2  4  1 -1</clus>
<clus scale="   42.472">  2  6  1 -1</clus>
<clus scale="   73.087">  2  3  1 -1</clus>
<clus scale="   73.087">  1  3  2 -1</clus>
</clustering>
</event>
<event>
 6    0  0.3667994E+002  0.9550773E+02  0.7546771E-02  0.1290037E+00
         21   -1    0    0  503  502  0.00000000000E+00  0.00000000000E+00  0.46788366117E+02  0.46788366117E+02  0.00000000000E+00 0.  1.
          2   -1    0    0  504    0 -0.00000000000E+00 -0.00000000000E+00 -0.45491384136E+03  0.45491384136E+03  0.00000000000E+00 0.  1.
         21    1    1    2  503  505 -0.23842053356E+02 -0.66342265548E+02 -0.35025544502E+02  0.78718031441E+02  0.00000000000E+00 0.  1.
         21    1    1    2  504  502  0.55681032232E+02 -0.48321032094E+02 -0.13721401650E+03  0.15576580439E+03  0.00000000000E+00 0.  1.
         21    1    1    2  505  501 -0.29040399472E+02  0.50772278992E+02 -0.14246392110E+03  0.15400369453E+03  0.00000000000E+00 0.  1.
          2    1    1    2  501    0 -0.27985794048E+01  0.63891018650E+02 -0.93421993142E+02  0.11321467711E+03  0.00000000000E+00 0.  1.
<scales pt_clust_3="70.49638" pt_clust_4="86.71578" pt_clust_5="38.27900" pt_clust_6="38.27900"></scales>
<clustering>
<clus scale="   38.279">  5  6 -1 -1</clus>
<clus scale="   70.496">  1  3  2 -1</clus>
<clus scale="   86.716">  2  4  1 -1</clus>
<clus scale="   70.496">  1  3  2 -1</clus>
</clustering>
</event>
<event>
 6    0  0.3667994E+002  0.1059255E+03  0.7546771E-02  0.1268307E+00
          2   -1    0    0  504    0 -0.00000000000E+00  0.00000000000E+00  0.67905017505E+03  0.67905017505E+03  0.00000000000E+00 0.  1.
         21   -1    0    0  505  502  0.00000000000E+00 -0.00000000000E+00 -0.62531656167E+02  0.62531656167E+02  0.00000000000E+00 0. -1.
         21    1    1    2  503  502 -0.36228623191E+02  0.14732942761E+02  0.75715244260E+02  0.85219545610E+02  0.00000000000E+00 0. -1.
         21    1    1    2  504  503  0.33780532261E+02 -0.10665538043E+01  0.81688440974E+02  0.88403977770E+02  0.00000000000E+00 0.  1.
         21    1    1    2  505  501  0.94072652975E+02  0.47671218436E+02  0.10489724040E+02  0.10598227878E+03  0.00000000000E+00 0. -1.
          2    1    1    2  501    0 -0.91624562045E+02 -0.61337607393E+02  0.44862510961E+03  0.46197602906E+03  0.00000000000E+00 0.  1.
<scales pt_clust_3="34.85261" pt_clust_4="33.79737" pt_clust_5="14000.00000" pt_clust_6="105.92552"></scales>
<clustering>
<clus scale="   33.797">  1  4  2 -1</clus>
<clus scale="   34.853">  1  3  2 -1</clus>
<clus scale="  105.926">  1  6  2 -1</clus>
<clus scale="  105.926">  2  3  1 -1</clus>
</clustering>
</event>
<event>
 6    0  0.3667994E+002  0.1443745E+03  0.7546771E-02  0.1207561E+00
          2   -1    0    0  505    0 -0.00000000000E+00  0.00000000000E+00  0.12368809064E+04  0.12368809064E+04  0.00000000000E+00 0.  1.
         21   -1    0    0  503  502  0.00000000000E+00 -0.00000000000E+00 -0.21362080660E+03  0.21362080660E+03  0.00000000000E+00 0. -1.
         21    1    1    2  503  501  0.11812210527E+03  0.81257762765E+02 -0.16173747626E+03  0.21613576055E+03  0.00000000000E+00 0. -1.
         21    1    1    2  504  502 -0.16189854499E+03 -0.37581485620E+02  0.28562743178E+03  0.33046412319E+03  0.00000000000E+00 0.  1.
         21    1    1    2  505  504 -0.65692450072E+01 -0.29373454124E+02  0.16904505913E+03  0.17170377632E+03  0.00000000000E+00 0. -1.
          2    1    1    2  501    0  0.50345684730E+02 -0.14302823021E+02  0.73032508514E+03  0.73219805292E+03  0.00000000000E+00 0.  1.
<scales pt_clust_3="14000.00000" pt_clust_4="144.37454" pt_clust_5="30.09908" pt_clust_6="57.33898"></scales>
<clustering>
<clus scale="   30.099">  1  5  2 -1</clus>
<clus scale="   57.339">  1  6  2 -1</clus>
<clus scale="  144.375">  1  4  2 -1</clus>
<clus scale="  144.375">  2  3  1 -1</clus>
</clustering>
</event>
<event>
 6    0  0.6899439E+002  0.1147996E+03  0.7546771E-02  0.1251931E+00
         21   -1    0    0  504  502  0.00000000000E+00  0.00000000000E+00  0.30359482789E+03  0.30359482789E+03  0.00000000000E+00 0.  1.
          2   -1    0    0  503    0 -0.00000000000E+00 -0.00000000000E+00 -0.16372472910E+04  0.16372472910E+04  0.00000000000E+00 0.  1.
         21    1    1    2  503  505  0.13666493439E+01  0.36221725679E+02 -0.11046164725E+03  0.11625685637E+03  0.00000000000E+00 0.  1.
         21    1    1    2  504  501  0.43105754951E+01 -0.11842349088E+03  0.27359222329E+03  0.29815333118E+03  0.00000000000E+00 0.  1.
         21    1    1    2  505  502 -0.41984542495E+02  0.87897617724E+01 -0.19910859817E+02  0.47290633948E+02  0.00000000000E+00 0. -1.
          2    1    1    2  501    0  0.36307317657E+02  0.73412003431E+02 -0.14768721793E+04  0.14791412974E+04  0.00000000000E+00 0.  1.
<scales pt_clust_3="36.24750" pt_clust_4="114.79963" pt_clust_5="43.03615" pt_clust_6="14000.00000"></scales>
<clustering>
<clus scale="   36.247">  2  3  1 -1</clus>
<clus scale="   43.036">  1  5  2 -1</clus>
<clus scale="  114.800">  1  4  2 -1</clus>
<clus scale="   43.036">  1  3  2 -1</clus>
</clustering>
</event>
<event>
 6    0  0.3667994E+002  0.8538575E+02  0.7546771E-02  0.1314427E+00
         -2   -1    0    0    0  501 -0.00000000000E+00  0.00000000000E+00  0.21043462146E+03  0.21043462146E+03  0.00000000000E+00 0. -1.
         21   -1    0    0  505  502  0.00000000000E+00 -0.00000000000E+00 -0.12303329623E+03  0.12303329623E+03  0.00000000000E+00 0. -1.
         21    1    1    2  503  502  0.59348161855E+02 -0.71037114701E+02 -0.46326627687E+02  0.10351150860E+03  0.00000000000E+00 0. -1.
         21    1    1    2  504  501  0.12454901686E+02 -0.40085713537E+02  0.31139524175E+02  0.52265275008E+02  0.00000000000E+00 0. -1.
         21    1    1    2  505  504 -0.13132859760E+02  0.68534403113E+02  0.67738000598E+02  0.97251597111E+02  0.00000000000E+00 0. -1.
         -2    1    1    2    0  503 -0.58670203782E+02  0.42588425124E+02  0.34850428147E+02  0.80439536973E+02  0.00000000000E+00 0. -1.
<scales pt_clust_3="14000.00000" pt_clust_4="41.97605" pt_clust_5="49.44042" pt_clust_6="85.38575"></scales>
<clustering>
<clus scale="   41.976">  1  4  2 -1</clus>
<clus scale="   49.440">  1  5  2 -1</clus>
<clus scale="   85.386">  1  6  2 -1</clus>
<clus scale="   85.386">  2  3  1 -1</clus>
</clustering>
</event>
<event>
 6    0  0.3667994E+002  0.8338618E+02  0.7546771E-02  0.1319708E+00
         -2   -1    0    0    0  501 -0.00000000000E+00  0.00000000000E+00  0.28989299461E+03  0.28989299461E+03  0.00000000000E+00 0.  1.
         21   -1    0    0  505  502  0.00000000000E+00 -0.00000000000E+00 -0.25978234799E+03  0.25978234799E+03  0.00000000000E+00 0.  1.
         21    1    1    2  503  504  0.92047806779E+02  0.56180312325E+02  0.94323874169E+02  0.14326904573E+03  0.00000000000E+00 0.  1.
         21    1    1    2  504  501 -0.67255693585E+02 -0.24116700534E+02  0.88730184768E+02  0.11392097811E+03  0.00000000000E+00 0.  1.
         21    1    1    2  505  503 -0.64189229726E+02  0.24708043962E+02 -0.19825819211E+03  0.20985007836E+03  0.00000000000E+00 0.  1.
         -2    1    1    2    0  502  0.39397116532E+02 -0.56771655753E+02  0.45314779792E+02  0.82635240397E+02  0.00000000000E+00 0.  1.
<scales pt_clust_3="83.38618" pt_clust_4="14000.00000" pt_clust_5="68.78041" pt_clust_6="51.69751"></scales>
<clustering>
<clus scale="   68.780">  2  5  1 -1</clus>
<clus scale="   51.698">  2  6  1 -1</clus>
<clus scale="   83.386">  2  3  1 -1</clus>
<clus scale="   68.780">  2  3  1 -1</clus>
</clustering>
</event>
<event>
 6    0  0.3667994E+002  0.3070426E+03  0.7546771E-02  0.1081772E+00
         21   -1    0    0  503  502  0.00000000000E+00  0.00000000000E+00  0.37765037199E+03  0.37765037199E+03  0.00000000000E+00 0.  1.
          3   -1    0    0  504    0 -0.00000000000E+00 -0.00000000000E+00 -0.41990556204E+03  0.41990556204E+03  0.00000000000E+00 0.  1.
         21    1    1    2  503  501  0.69967103929E+02  0.47832105821E+01 -0.25482328113E+01  0.70176692898E+02  0.00000000000E+00 0. -1.
         21    1    1    2  504  505 -0.37366854497E+02 -0.12958523586E+02 -0.10320479329E+03  0.11052345682E+03  0.00000000000E+00 0.  1.
         21    1    1    2  505  502 -0.26826785949E+03 -0.10568169489E+03  0.16951149400E+03  0.33447034498E+03  0.00000000000E+00 0.  1.
          3    1    1    2  501    0  0.23566761006E+03  0.11385700789E+03 -0.10601365794E+03  0.28238543933E+03  0.00000000000E+00 0.  1.
<scales pt_clust_3="36.69867" pt_clust_4="39.55003" pt_clust_5="298.74551" pt_clust_6="36.69867"></scales>
<clustering>
<clus scale="   36.699">  3  6 -1 -1</clus>
<clus scale="   39.550">  2  4  1 -1</clus>
<clus scale="  298.746">  1  5  2 -1</clus>
<clus scale="  298.746">  1  3  2 -1</clus>
</clustering>
</event>
<event>
 6    0  0.3667994E+002  0.1370182E+03  0.7546771E-02  0.1217398E+00
         21   -1    0    0  503  502  0.00000000000E+00  0.00000000000E+00  0.10179918026E+03  0.10179918026E+03  0.00000000000E+00 0.  1.
         -1   -1    0    0    0  501 -0.00000000000E+00 -0.00000000000E+00 -0.20512048751E+04  0.20512048751E+04  0.00000000000E+00 0.  1.
         21    1    1    2  503  505 -0.10958013458E+03  0.66507281559E+02  0.55779286048E+02  0.13979396678E+03  0.00000000000E+00 0.  1.
         21    1    1    2  504  502  0.41917374757E+02 -0.69117204728E+02 -0.96732222110E+03  0.97069384140E+03  0.00000000000E+00 0.  1.
         21    1    1    2  505  501  0.65366680642E+01  0.29449602417E+02 -0.41205301332E+03  0.41315577317E+03  0.00000000000E+00 0. -1.
         -1    1    1    2    0  504  0.61126091760E+02 -0.26839679247E+02 -0.62580974649E+03  0.62936047403E+03  0.00000000000E+00 0.  1.
<scales pt_clust_3="128.43410" pt_clust_4="46.49071" pt_clust_5="30.16632" pt_clust_6="46.49071"></scales>
<clustering>
<clus scale="   30.166">  2  5  1 -1</clus>
<clus scale="   46.491">  4  6 -1 -1</clus>
<clus scale="  128.434">  1  3  2 -1</clus>
<clus scale="  128.434">  1  3  2 -1</clus>
</clustering>
</event>
<event>
 6    0  0.3667994E+002  0.8830212E+02  0.7546771E-02  0.1307016E+00
         21   -1    0    0  503  502  0.00000000000E+00  0.00000000000E+00  0.14037412777E+04  0.14037412777E+04  0.00000000000E+00 0.  1.
          4   -1    0    0  504    0 -0.00000000000E+00 -0.00000000000E+00 -0.20620337436E+03  0.20620337436E+03  0.00000000000E+00 0. -1.
         21    1    1    2  503  501 -0.17622167729E+02  0.42904045648E+02  0.11774574250E+04  0.11783706062E+04  0.00000000000E+00 0.  1.
         21    1    1    2  504  505  0.88243602277E+02 -0.65238213806E+01 -0.64958505266E+01  0.88722543146E+02  0.00000000000E+00 0. -1.
         21    1    1    2  505  502 -0.25102473965E+01  0.45727481467E+02  0.16320425585E+03  0.16950791436E+03  0.00000000000E+00 0.  1.
          4    1    1    2  501    0 -0.68111187152E+02 -0.82107705734E+02 -0.13662792703E+03  0.17334358828E+03  0.00000000000E+00 0. -1.
<scales pt_clust_3="14000.00000" pt_clust_4="88.30212" pt_clust_5="45.79633" pt_clust_6="87.97256"></scales>
<clustering>
<clus scale="   45.796">  1  5  2 -1</clus>
<clus scale="   88.302">  2  4  1 -1</clus>
<clus scale="   87.973">  2  6  1 -1</clus>
<clus scale="   45.796">  1  3  2 -1</clus>
</clustering>
</event>
<event>
 6    0  0.3667994E+002  0.1366067E+03  0.7546771E-02  0.1217969E+00
         21   -1    0    0  501  502  0.00000000000E+00  0.00000000000E+00  0.56347635771E+02  0.56347635771E+02  0.00000000000E+00 0. -1.
          2   -1    0    0  504    0 -0.00000000000E+00 -0.00000000000E+00 -0.13236477084E+04  0.13236477084E+04  0.00000000000E+00 0.  1.
         21    1    1    2  503  502 -0.11504980112E+03 -0.81013415820E+02 -0.63000357585E+02  0.15417092896E+03  0.00000000000E+00 0. -1.
         21    1    1    2  504  505 -0.74210526595E+01 -0.36911882317E+02 -0.24354664006E+03  0.24643969843E+03  0.00000000000E+00 0. -1.
         21    1    1    2  505  503  0.43199365215E+02  0.24714277702E+02 -0.50652700192E+03  0.50896619176E+03  0.00000000000E+00 0.  1.
          2    1    1    2  501    0  0.79271488568E+02  0.93211020435E+02 -0.45422607306E+03  0.47041852501E+03  0.00000000000E+00 0.  1.
<scales pt_clust_3="136.60672" pt_clust_4="37.65049" pt_clust_5="40.37867" pt_clust_6="14000.00000"></scales>
<clustering>
<clus scale="   37.650">  2  4  1 -1</clus>
<clus scale="   40.379">  2  5  1 -1</clus>
<clus scale="  136.607">  1  3  2 -1</clus>
<clus scale="  136.607">  1  3  2 -1</clus>
</clustering>
</event>
<event>
 6    0  0.3667994E+002  0.1306371E+03  0.7546771E-02  0.1226513E+00
         21   -1    0    0  504  502  0.00000000000E+00  0.00000000000E+00  0.22420072355E+02  0.22420072355E+02  0.00000000000E+00 0.  1.
          1   -1    0    0  503    0 -0.00000000000E+00 -0.00000000000E+00 -0.28653464974E+04  0.28653464974E+04  0.00000000000E+00 0.  1.
         21    1    1    2  503  505  0.12222305527E+03  0.12386387777E+02 -0.16946759271E+04  0.16991228313E+04  0.00000000000E+00 0.  1.
         21    1    1    2  504  501  0.29090913764E+02 -0.15391384327E+02 -0.11343041988E+02  0.34811500638E+02  0.00000000000E+00 0.  1.
         21    1    1    2  505  502  0.63434407667E+01 -0.34056998169E+02 -0.22591167956E+03  0.22855241264E+03  0.00000000000E+00 0. -1.
          1    1    1    2  501    0 -0.15765740980E+03  0.37061994718E+02 -0.91099577646E+03  0.92527982527E+03  0.00000000000E+00 0.  1.
<scales pt_clust_3="14000.00000" pt_clust_4="32.91164" pt_clust_5="37.30681" pt_clust_6="130.63711"></scales>
<clustering>
<clus scale="   32.912">  1  4  2 -1</clus>
<clus scale="   37.307">  1  5  2 -1</clus>
<clus scale="  130.637">  1  6  2 -1</clus>
<clus scale="   32.912">  1  3  2 -1</clus>
</clustering>
</event>
<event>
 6    0  0.3667994E+002  0.9357513E+02  0.7546771E-02  0.1294418E+00
         21   -1    0    0  504  502  0.00000000000E+00  0.00000000000E+00  0.62044130186E+03  0.62044130186E+03  0.00000000000E+00 0. -1.
          2   -1    0    0  503    0 -0.00000000000E+00 -0.00000000000E+00 -0.33487320452E+03  0.33487320452E+03  0.00000000000E+00 0.  1.
         21    1    1    2  503  505 -0.78134622208E+02 -0.49919828985E+02 -0.22278294551E+03  0.24130737520E+03  0.00000000000E+00 0.  1.
         21    1    1    2  504  501  0.18967202968E+02  0.42773676661E+02  0.45560924980E+01  0.47011702611E+02  0.00000000000E+00 0.  1.
         21    1    1    2  505  502 -0.32507035740E+02 -0.27279386440E+02  0.55491146289E+03  0.55653176364E+03  0.00000000000E+00 0. -1.
          2    1    1    2  501    0  0.91674454980E+02  0.34425538764E+02 -0.51116512541E+02  0.11046366493E+03  0.00000000000E+00 0.  1.
<scales pt_clust_3="93.57513" pt_clust_4="32.46808" pt_clust_5="42.43669" pt_clust_6="14000.00000"></scales>
<clustering>
<clus scale="   42.437">  1  5  2 -1</clus>
<clus scale="   32.468">  1  4  2 -1</clus>
<clus scale="   93.575">  2  3  1 -1</clus>
<clus scale="   42.437">  1  3  2 -1</clus>
</clustering>
</event>
<event>
 6    0  0.3667994E+002  0.1070219E+03  0.7546771E-02  0.1266186E+00
          3   -1    0    0  505    0 -0.00000000000E+00  0.00000000000E+00  0.35797744152E+03  0.35797744152E+03  0.00000000000E+00 0.  1.
         21   -1    0    0  501  502  0.00000000000E+00 -0.00000000000E+00 -0.14845259946E+03  0.14845259946E+03  0.00000000000E+00 0.  1.
         21    1    1    2  503  502  0.16341269592E+02 -0.26058872717E+02 -0.77722923666E+02  0.83588006331E+02  0.00000000000E+00 0.  1.
         21    1    1    2  504  503  0.89783380226E+02 -0.69898129986E+01 -0.30783663510E+00  0.90055580693E+02  0.00000000000E+00 0.  1.
         21    1    1    2  505  504 -0.11116670535E+03 -0.13405272983E+02  0.24587685296E+03  0.27017247185E+03  0.00000000000E+00 0.  1.
          3    1    1    2  501    0  0.50420555359E+01  0.46453958699E+02  0.41678749403E+02  0.62613982102E+02  0.00000000000E+00 0.  1.
<scales pt_clust_3="30.75877" pt_clust_4="107.02189" pt_clust_5="14000.00000" pt_clust_6="43.09969"></scales>
<clustering>
<clus scale="   30.759">  2  3  1 -1</clus>
<clus scale="   43.100">  2  6  1 -1</clus>
<clus scale="  107.022">  2  4  1 -1</clus>
<clus scale="   30.759">  2  3  1 -1</clus>
</clustering>
</event>
<event>
 6    0  0.3667994E+002  0.1283779E+03  0.7546771E-02  0.1229883E+00
         21   -1    0    0  501  502  0.00000000000E+00  0.00000000000E+00  0.14221511839E+03  0.14221511839E+03  0.00000000000E+00 0.  1.
          2   -1    0    0  503    0 -0.00000000000E+00 -0.00000000000E+00 -0.23485426481E+04  0.23485426481E+04  0.00000000000E+00 0.  1.
         21    1    1    2  503  505 -0.26849345747E+02 -0.35424313881E+02 -0.16231070044E+03  0.16828705493E+03  0.00000000000E+00 0. -1.
         21    1    1    2  504  502  0.41002500452E+02  0.12176962035E+03  0.92876984688E+02  0.15854078267E+03  0.00000000000E+00 0.  1.
         21    1    1    2  505  504 -0.70812357682E+02  0.60667717791E+02 -0.20033949190E+03  0.22097708930E+03  0.00000000000E+00 0.  1.
          2    1    1    2  501    0  0.56659202977E+02 -0.14701302426E+03 -0.19365543220E+04  0.19429528396E+04  0.00000000000E+00 0.  1.
<scales pt_clust_3="44.44963" pt_clust_4="128.37792" pt_clust_5="93.08882" pt_clust_6="14000.00000"></scales>
<clustering>
<clus scale="   44.450">  2  3  1 -1</clus>
<clus scale="   93.089">  2  5  1 -1</clus>
<clus scale="  128.378">  1  4  2 -1</clus>
<clus scale="  128.378">  1  3  2 -1</clus>
</clustering>
</event>
<event>
 6    0  0.3667994E+002  0.1507167E+03  0.7546771E-02  0.1199595E+00
         21   -1    0    0  503  502  0.00000000000E+00  0.00000000000E+00  0.12123064509E+03  0.12123064509E+03  0.00000000000E+00 0.  1.
          1   -1    0    0  504    0 -0.00000000000E+00 -0.00000000000E+00 -0.73840748428E+03  0.73840748428E+03  0.00000000000E+00 0.  1.
         21    1    1    2  503  505  0.11011090465E+03  0.52479753549E+02  0.25200303616E+02  0.12455356742E+03  0.00000000000E+00 0.  1.
         21    1    1    2  504  502  0.81443481884E+02  0.42736811099E+02 -0.37476618678E+03  0.38588751018E+03  0.00000000000E+00 0.  1.
         21    1    1    2  505  501 -0.87703047110E+02 -0.23975613119E+02 -0.69484280799E+02  0.11443216233E+03  0.00000000000E+00 0.  1.
          1    1    1    2  501    0 -0.10385133942E+03 -0.71240951529E+02 -0.19812667523E+03  0.23476488944E+03  0.00000000000E+00 0.  1.
<scales pt_clust_3="134.72883" pt_clust_4="91.97541" pt_clust_5="57.39997" pt_clust_6="57.39997"></scales>
<clustering>
<clus scale="   57.400">  5  6 -1 -1</clus>
<clus scale="   91.975">  2  4  1 -1</clus>
<clus scale="  134.729">  1  3  2 -1</clus>
<clus scale="  134.729">  1  3  2 -1</clus>
</clustering>
</event>
<event>
 6    0  0.3667994E+002  0.1217838E+03  0.7546771E-02  0.1240183E+00
          2   -1    0    0  503    0 -0.00000000000E+00  0.00000000000E+00  0.13357299743E+03  0.13357299743E+03  0.00000000000E+00 0.  1.
         21   -1    0    0  505  502  0.00000000000E+00 -0.00000000000E+00 -0.64540522755E+03  0.64540522755E+03  0.00000000000E+00 0.  1.
         21    1    1    2  503  504 -0.40581225083E+02  0.51921541786E+02  0.56687078719E+00  0.65901469431E+02  0.00000000000E+00 0. -1.
         21    1    1    2  504  502  0.91097222349E+02  0.46008615559E+02 -0.24142568652E+02  0.10487306731E+03  0.00000000000E+00 0.  1.
         21    1    1    2  505  501 -0.30192102924E+02 -0.12867339301E+03 -0.53362713836E+03  0.54975115093E+03  0.00000000000E+00 0.  1.
          2    1    1    2  501    0 -0.20323894342E+02  0.30743235666E+02  0.45370606104E+02  0.58452537316E+02  0.00000000000E+00 0.  1.
<scales pt_clust_3="80.85925" pt_clust_4="121.78385" pt_clust_5="14000.00000" pt_clust_6="36.85386"></scales>
<clustering>
<clus scale="   36.854">  1  6  2 -1</clus>
<clus scale="   80.859">  1  3  2 -1</clus>
<clus scale="  121.784">  1  4  2 -1</clus>
<clus scale="  121.784">  2  3  1 -1</clus>
</clustering>
</event>
<event>
 6    0  0.3667994E+002  0.1093608E+03  0.7546771E-02  0.1261758E+00
          1   -1    0    0  504    0 -0.00000000000E+00  0.00000000000E+00  0.12944190187E+04  0.12944190187E+04  0.00000000000E+00 0.  1.
         21   -1    0    0  501  502  0.00000000000E+00 -0.00000000000E+00 -0.21054788269E+02  0.21054788269E+02  0.00000000000E+00 0.  1.
         21    1    1    2  503  502  0.13656211448E+03  0.20731165682E+02  0.53249406403E+03  0.55011718803E+03  0.00000000000E+00 0.  1.
         21    1    1    2  504  505 -0.26623966700E+02 -0.41420560395E+02  0.16098542856E+03  0.16834727985E+03  0.00000000000E+00 0.  1.
         21    1    1    2  505  503 -0.34701911698E+02 -0.28233435845E+02  0.29357460798E+03  0.29696363418E+03  0.00000000000E+00 0.  1.
          1    1    1    2  501    0 -0.75236236078E+02  0.48922830558E+02  0.28631012989E+03  0.30004570493E+03  0.00000000000E+00 0.  1.
<scales pt_clust_3="103.35811" pt_clust_4="34.06041" pt_clust_5="34.06041" pt_clust_6="89.74372"></scales>
<clustering>
<clus scale="   34.060">  4  5 -1 -1</clus>
<clus scale="   89.744">  2  6  1 -1</clus>
<clus scale="  103.358">  2  3  1 -1</clus>
<clus scale="   89.744">  2  3  1 -1</clus>
</clustering>
</event>
<event>
 6    0  0.3667994E+002  0.1699711E+03  0.7546771E-02  0.1177878E+00
         21   -1    0    0  504  502  0.00000000000E+00  0.00000000000E+00  0.33488655907E+03  0.33488655907E+03  0.00000000000E+00 0.  1.
          2   -1    0    0  505    0 -0.00000000000E+00 -0.00000000000E+00 -0.15561552026E+04  0.15561552026E+04  0.00000000000E+00 0. -1.
         21    1    1    2  503  502 -0.20399560878E+02 -0.74295324681E+02 -0.96901943469E+02  0.12379791598E+03  0.00000000000E+00 0. -1.
         21    1    1    2  504  501 -0.55738983545E+02 -0.10675488129E+02  0.29792813449E+03  0.30328530076E+03  0.00000000000E+00 0.  1.
         21    1    1    2  505  503 -0.45031333970E+02 -0.30658375221E+02 -0.31122952027E+02  0.62740697743E+02  0.00000000000E+00 0. -1.
          2    1    1    2  501    0  0.12116987839E+03  0.11562918803E+03 -0.13911718825E+04  0.14012178472E+04  0.00000000000E+00 0. -1.
<scales pt_clust_3="46.89224" pt_clust_4="56.75210" pt_clust_5="46.89224" pt_clust_6="160.56268"></scales>
<clustering>
<clus scale="   46.892">  3  5 -1 -1</clus>
<clus scale="   56.752">  1  4  2 -1</clus>
<clus scale="  160.563">  2  6  1 -1</clus>
<clus scale="   56.752">  1  3  2 -1</clus>
</clustering>
</event>
<event>
 6    0  0.3667994E+002  0.1090958E+03  0.7546771E-02  0.1262253E+00
         21   -1    0    0  505  502  0.00000000000E+00  0.00000000000E+00  0.87705129534E+03  0.87705129534E+03  0.00000000000E+00 0.  1.
         -1   -1    0    0    0  501 -0.00000000000E+00 -0.00000000000E+00 -0.41910110398E+03  0.41910110398E+03  0.00000000000E+00 0.  1.
         21    1    1    2  503  501  0.11929251777E+03 -0.29705006321E+02 -0.37613565047E+03  0.39571595842E+03  0.00000000000E+00 0.  1.
         21    1    1    2  504  502 -0.29438059911E+02  0.63366827679E+01  0.27332945052E+02  0.40667466174E+02  0.00000000000E+00 0.  1.
         21    1    1    2  505  503 -0.76169549279E+02 -0.40110399856E+02  0.78728357928E+03  0.79197605938E+03  0.00000000000E+00 0.  1.
         -1    1    1    2    0  504 -0.13684908584E+02  0.63478723409E+02  0.19469317488E+02  0.67792915353E+02  0.00000000000E+00 0.  1.
<scales pt_clust_3="14000.00000" pt_clust_4="30.11234" pt_clust_5="109.09583" pt_clust_6="65.59412"></scales>
<clustering>
<clus scale="   30.112">  1  4  2 -1</clus>
<clus scale="   65.594">  2  6  1 -1</clus>
<clus scale="  109.096">  1  5  2 -1</clus>
<clus scale="   30.112">  1  3  2 -1</clus>
</clustering>
</event>
<event>
 6    0  0.3667994E+002  0.2336956E+03  0.7546771E-02  0.1124065E+00
          2   -1    0    0  503    0 -0.00000000000E+00  0.00000000000E+00  0.39729338718E+03  0.39729338718E+03  0.00000000000E+00 0. -1.
         21   -1    0    0  505  502  0.00000000000E+00 -0.00000000000E+00 -0.57972481343E+03  0.57972481343E+03  0.00000000000E+00 0.  1.
         21    1    1    2  503  502 -0.97819204646E+01  0.50702384068E+02 -0.66242111796E+01  0.52060521434E+02  0.00000000000E+00 0. -1.
         21    1    1    2  504  501 -0.39140671273E+02  0.32080737230E+02  0.74766117919E+02  0.90283654321E+02  0.00000000000E+00 0.  1.
         21    1    1    2  505  504  0.77647781553E+02 -0.21659324577E+03 -0.49986892531E+03  0.55028243165E+03  0.00000000000E+00 0.  1.
          2    1    1    2  501    0 -0.28725189816E+02  0.13381012447E+03  0.24929559232E+03  0.28439159321E+03  0.00000000000E+00 0. -1.
<scales pt_clust_3="51.63737" pt_clust_4="34.61350" pt_clust_5="226.65754" pt_clust_6="34.61350"></scales>
<clustering>
<clus scale="   34.614">  4  6 -1 -1</clus>
<clus scale="   51.637">  1  3  2 -1</clus>
<clus scale="  226.658">  2  5  1 -1</clus>
<clus scale="  226.658">  2  3  1 -1</clus>
</clustering>
</event>
<event>
 6    0  0.3667994E+002  0.1477943E+03  0.7546771E-02  0.1203210E+00
         21   -1    0    0  503  502  0.00000000000E+00  0.00000000000E+00  0.94211580249E+02  0.94211580249E+02  0.00000000000E+00 0. -1.
         -1   -1    0    0    0  501 -0.00000000000E+00 -0.00000000000E+00 -0.14666148064E+04  0.14666148064E+04  0.00000000000E+00 0.  1.
         21    1    1    2  503  501 -0.65465165537E+02  0.99034454532E+02 -0.41715469860E+03  0.43371828835E+03  0.00000000000E+00 0. -1.
         21    1    1    2  504  502 -0.39820666934E+02  0.10680116930E+02  0.32227095116E+02  0.52329113047E+02  0.00000000000E+00 0. -1.
         21    1    1    2  505  504 -0.90985127843E+02  0.59522291571E+02 -0.91588805713E+02  0.14216084557E+03  0.00000000000E+00 0. -1.
         -1    1    1    2    0  505  0.19627096031E+03 -0.16923686303E+03 -0.89588681699E+03  0.93261813972E+03  0.00000000000E+00 0.  1.
<scales pt_clust_3="123.71543" pt_clust_4="41.22803" pt_clust_5="14000.00000" pt_clust_6="147.79434"></scales>
<clustering>
<clus scale="   41.228">  1  4  2 -1</clus>
<clus scale="  123.715">  2  3  1 -1</clus>
<clus scale="  147.794">  2  6  1 -1</clus>
<clus scale="   41.228">  1  3  2 -1</clus>
</clustering>
</event>
<event>
 6    0  0.3667994E+002  0.9255070E+02  0.7546771E-02  0.1296790E+00
         21   -1    0    0  504  502  0.00000000000E+00  0.00000000000E+00  0.45736789577E+03  0.45736789577E+03  0.00000000000E+00 0.  1.
         -2   -1    0    0    0  501 -0.00000000000E+00 -0.00000000000E+00 -0.42008057919E+02  0.42008057919E+02  0.00000000000E+00 0.  1.
         21    1    1    2  503  501 -0.30680041256E+02  0.90752088314E+02  0.88635778765E+02  0.13051248117E+03  0.00000000000E+00 0.  1.
         21    1    1    2  504  503  0.18719665691E+02 -0.32313765631E+02  0.11914075401E+03  0.12485641593E+03  0.00000000000E+00 0.  1.
         21    1    1    2  505  502  0.84645054426E+01  0.32144531636E+02  0.87120468884E+02  0.93246420119E+02  0.00000000000E+00 0.  1.
         -2    1    1    2    0  505  0.34958701230E+01 -0.90582854319E+02  0.12046283620E+03  0.15076063647E+03  0.00000000000E+00 0.  1.
<scales pt_clust_3="92.55070" pt_clust_4="30.52280" pt_clust_5="33.24032" pt_clust_6="14000.00000"></scales>
<clustering>
<clus scale="   33.240">  1  5  2 -1</clus>
<clus scale="   30.523">  1  4  2 -1</clus>
<clus scale="   92.551">  2  3  1 -1</clus>
<clus scale="   33.240">  1  3  2 -1</clus>
</clustering>
</event>
<event>
 6    0  0.3667994E+002  0.1163465E+03  0.7546771E-02  0.1249249E+00
         21   -1    0    0  503  502  0.00000000000E+00  0.00000000000E+00  0.66630435224E+02  0.66630435224E+02  0.00000000000E+00 0.  1.
          2   -1    0    0  504    0 -0.00000000000E+00 -0.00000000000E+00 -0.22590985489E+04  0.22590985489E+04  0.00000000000E+00 0. -1.
         21    1    1    2  503  505  0.37906910792E+02 -0.52324808423E+02  0.26920625950E+02  0.69996711093E+02  0.00000000000E+00 0.  1.
         21    1    1    2  504  502  0.84487212470E+01  0.39357031235E+02 -0.16581921077E+03  0.17063518822E+03  0.00000000000E+00 0. -1.
         21    1    1    2  505  501 -0.96789233841E+02 -0.59459740728E+02 -0.20457099177E+03  0.23399339142E+03  0.00000000000E+00 0.  1.
          2    1    1    2  501    0  0.50433601802E+02  0.72427517916E+02 -0.18489985371E+04  0.18511036934E+04  0.00000000000E+00 0. -1.
<scales pt_clust_3="64.33633" pt_clust_4="40.25366" pt_clust_5="14000.00000" pt_clust_6="116.34651"></scales>
<clustering>
<clus scale="   40.254">  2  4  1 -1</clus>
<clus scale="   64.336">  1  3  2 -1</clus>
<clus scale="  116.347">  2  6  1 -1</clus>
<clus scale="   64.336">  1  3  2 -1</clus>
</clustering>
</event>
<event>
 6    0  0.3667994E+002  0.1096801E+03  0.7546771E-02  0.1261163E+00
         21   -1    0    0  504  502  0.00000000000E+00  0.00000000000E+00  0.11531253885E+04  0.11531253885E+04  0.00000000000E+00 0. -1.
         -1   -1    0    0    0  501 -0.00000000000E+00 -0.00000000000E+00 -0.19634139791E+03  0.19634139791E+03  0.00000000000E+00 0. -1.
         21    1    1    2  503  501  0.35259432166E+02 -0.36793976497E+02 -0.67595261976E+02  0.84653078530E+02  0.00000000000E+00 0.  1.
         21    1    1    2  504  503 -0.19724197960E+02  0.35111407292E+02  0.96705930011E+03  0.96789748674E+03  0.00000000000E+00 0. -1.
         21    1    1    2  505  502  0.12692382226E+02  0.86180984771E+02  0.14676734764E+03  0.17067194566E+03  0.00000000000E+00 0. -1.
         -1    1    1    2    0  505 -0.28227616431E+02 -0.84498415567E+02 -0.89447395242E+02  0.12624427543E+03  0.00000000000E+00 0. -1.
<scales pt_clust_3="49.17157" pt_clust_4="40.27226" pt_clust_5="14000.00000" pt_clust_6="109.68010"></scales>
<clustering>
<clus scale="   40.272">  1  4  2 -1</clus>
<clus scale="   49.172">  2  3  1 -1</clus>
<clus scale="  109.680">  2  6  1 -1</clus>
<clus scale="   40.272">  1  3  2 -1</clus>
</clustering>
</event>
<event>
 6    0  0.3667994E+002  0.1186130E+03  0.7546771E-02  0.1245403E+00
          1   -1    0    0  504    0 -0.00000000000E+00  0.00000000000E+00  0.76864042619E+03  0.76864042619E+03  0.00000000000E+00 0.  1.
         21   -1    0    0  505  502  0.00000000000E+00 -0.00000000000E+00 -0.15259280312E+03  0.15259280312E+03  0.00000000000E+00 0.  1.
         21    1    1    2  503  502 -0.43995798750E+02 -0.10317981316E+02  0.43962460187E+01  0.45402841597E+02  0.00000000000E+00 0.  1.
         21    1    1    2  504  503 -0.40613758151E+02  0.41990051087E+02  0.54988646148E+02  0.80227133481E+02  0.00000000000E+00 0.  1.
         21    1    1    2  505  501  0.50008893833E+02  0.12348781471E+03 -0.69016268225E+02  0.15004457713E+03  0.00000000000E+00 0.  1.
          1    1    1    2  501    0  0.34600663067E+02 -0.15515988448E+03  0.62567899913E+03  0.64555867711E+03  0.00000000000E+00 0.  1.
<scales pt_clust_3="45.18950" pt_clust_4="60.74463" pt_clust_5="118.61295" pt_clust_6="14000.00000"></scales>
<clustering>
<clus scale="   45.190">  2  3  1 -1</clus>
<clus scale="   60.745">  1  4  2 -1</clus>
<clus scale="  118.613">  2  5  1 -1</clus>
<clus scale="   45.190">  2  3  1 -1</clus>
</clustering>
</event>
<event>
 6    0  0.3667994E+002  0.1772108E+03  0.7546771E-02  0.1170530E+00
         21   -1    0    0  503  502  0.00000000000E+00  0.00000000000E+00  0.22513984632E+03  0.22513984632E+03  0.00000000000E+00 0. -1.
          2   -1    0    0  504    0 -0.00000000000E+00 -0.00000000000E+00 -0.18790232487E+04  0.18790232487E+04  0.00000000000E+00 0.  1.
         21    1    1    2  503  501 -0.18868647005E+02 -0.26964886241E+02  0.19022631280E+03  0.19305227533E+03  0.00000000000E+00 0. -1.
         21    1    1    2  504  505  0.11965653279E+03  0.15180189647E+03 -0.12746274868E+04  0.12892000355E+04  0.00000000000E+00 0.  1.
         21    1    1    2  505  502 -0.60148662920E+02 -0.13940372124E+03 -0.20616483079E+03  0.25603749062E+03  0.00000000000E+00 0.  1.
          2    1    1    2  501    0 -0.40639222861E+02  0.14566711007E+02 -0.36331739765E+03  0.36587329356E+03  0.00000000000E+00 0.  1.
<scales pt_clust_3="32.91095" pt_clust_4="177.21084" pt_clust_5="14000.00000" pt_clust_6="43.51835"></scales>
<clustering>
<clus scale="   32.911">  1  3  2 -1</clus>
<clus scale="   43.518">  2  6  1 -1</clus>
<clus scale="  177.211">  2  4  1 -1</clus>
<clus scale="   32.911">  1  3  2 -1</clus>
</clustering>
</event>
<event>
 6    0  0.3667994E+002  0.1265044E+03  0.7546771E-02  0.1232737E+00
          2   -1    0    0  504    0 -0.00000000000E+00  0.00000000000E+00  0.60603196419E+03  0.60603196419E+03  0.00000000000E+00 0. -1.
         21   -1    0    0  503  502  0.00000000000E+00 -0.00000000000E+00 -0.13823316873E+04  0.13823316873E+04  0.00000000000E+00 0.  1.
         21    1    1    2  503  501  0.52832838332E+02  0.28911196889E+01  0.31326129291E+02  0.61489785783E+02  0.00000000000E+00 0.  1.
         21    1    1    2  504  505  0.50455033472E+01  0.65126359376E+02 -0.19712539869E+02  0.68231107405E+02  0.00000000000E+00 0. -1.
         21    1    1    2  505  502  0.31034092484E+02  0.42477013666E+02 -0.13133493395E+04  0.13144024875E+04  0.00000000000E+00 0.  1.
          2    1    1    2  501    0 -0.88912434163E+02 -0.11049449273E+03  0.52543602699E+03  0.54424027077E+03  0.00000000000E+00 0. -1.
<scales pt_clust_3="60.91446" pt_clust_4="14000.00000" pt_clust_5="52.60619" pt_clust_6="126.50436"></scales>
<clustering>
<clus scale="   52.606">  2  5  1 -1</clus>
<clus scale="   60.914">  2  3  1 -1</clus>
<clus scale="  126.504">  1  6  2 -1</clus>
<clus scale="   52.606">  2  3  1 -1</clus>
</clustering>
</event>
<event>
 6    0  0.3667994E+002  0.1536167E+03  0.7546771E-02  0.1196098E+00
          2   -1    0    0  505    0 -0.00000000000E+00  0.00000000000E+00  0.92834611252E+02  0.92834611252E+02  0.00000000000E+00 0. -1.
         21   -1    0    0  504  502  0.00000000000E+00 -0.00000000000E+00 -0.36811891418E+03  0.36811891418E+03  0.00000000000E+00 0.  1.
         21    1    1    2  503  502  0.26331812554E+01 -0.63121763792E+02 -0.68735346951E+02  0.93358655883E+02  0.00000000000E+00 0.  1.
         21    1    1    2  504  501 -0.86802768815E+02  0.29716958042E+02 -0.23456886305E+02  0.94699755989E+02  0.00000000000E+00 0. -1.
         21    1    1    2  505  503  0.13509108339E+03 -0.98435520508E+01 -0.11853587700E+03  0.17999236224E+03  0.00000000000E+00 0.  1.
          2    1    1    2  501    0 -0.50921495834E+02  0.43248357801E+02 -0.64556192677E+02  0.92902751323E+02  0.00000000000E+00 0. -1.
<scales pt_clust_3="63.17666" pt_clust_4="47.94233" pt_clust_5="142.97413" pt_clust_6="47.94233"></scales>
<clustering>
<clus scale="   47.942">  4  6 -1 -1</clus>
<clus scale="   63.177">  2  3  1 -1</clus>
<clus scale="  142.974">  2  5  1 -1</clus>
<clus scale="   63.177">  2  3  1 -1</clus>
</clustering>
</event>
<event>
 6    0  0.3667994E+002  0.1150298E+03  0.7546771E-02  0.1251529E+00
         21   -1    0    0  504  502  0.00000000000E+00  0.00000000000E+00  0.67556863742E+03  0.67556863742E+03  0.00000000000E+00 0. -1.
          2   -1    0    0  503    0 -0.00000000000E+00 -0.00000000000E+00 -0.11539261982E+03  0.11539261982E+03  0.00000000000E+00 0. -1.
         21    1    1    2  503  502 -0.94598928794E+01 -0.34535480528E+02  0.28503118266E+02  0.45766983071E+02  0.00000000000E+00 0. -1.
         21    1    1    2  504  505 -0.31673106553E+02 -0.44375893148E+02  0.46530986119E+03  0.46849298020E+03  0.00000000000E+00 0. -1.
         21    1    1    2  505  501  0.29663687617E+02  0.15895492603E+03  0.98892421987E+02  0.18954238048E+03  0.00000000000E+00 0.  1.
          2    1    1    2  501    0  0.11469311816E+02 -0.80043552351E+02 -0.32529383848E+02  0.87158913486E+02  0.00000000000E+00 0. -1.
<scales pt_clust_3="35.80767" pt_clust_4="55.02106" pt_clust_5="115.02976" pt_clust_6="14000.00000"></scales>
<clustering>
<clus scale="   35.808">  2  3  1 -1</clus>
<clus scale="   55.021">  1  4  2 -1</clus>
<clus scale="  115.030">  1  5  2 -1</clus>
<clus scale="   55.021">  1  3  2 -1</clus>
</clustering>
</event>
<event>
 6    0  0.3667994E+002  0.1424257E+03  0.7546771E-02  0.1210102E+00
         21   -1    0    0  501  502  0.00000000000E+00  0.00000000000E+00  0.11696938771E+04  0.11696938771E+04  0.00000000000E+00 0.  1.
         -1   -1    0    0    0  501 -0.00000000000E+00 -0.00000000000E+00 -0.87274559558E+02  0.87274559558E+02  0.00000000000E+00 0. -1.
         21    1    1    2  503  505  0.48899642945E+02 -0.21672701144E+02  0.14660120038E+03  0.15605381446E+03  0.00000000000E+00 0. -1.
         21    1    1    2  504  503  0.26240431456E+01 -0.72623954038E+02  0.16975951896E+03  0.18466027884E+03  0.00000000000E+00 0.  1.
         21    1    1    2  505  502  0.36611959873E+02 -0.51203056339E+00  0.78462811212E+03  0.78548199986E+03  0.00000000000E+00 0.  1.
         -1    1    1    2    0  504 -0.88135645964E+02  0.94808685745E+02 -0.18569513898E+02  0.13077234352E+03  0.00000000000E+00 0. -1.
<scales pt_clust_3="62.90095" pt_clust_4="62.90095" pt_clust_5="36.61554" pt_clust_6="125.81592"></scales>
<clustering>
<clus scale="   36.616">  1  5  2 -1</clus>
<clus scale="   62.901">  3  4 -1 -1</clus>
<clus scale="  125.816">  2  6  1 -1</clus>
<clus scale="   36.616">  1  3  2 -1</clus>
</clustering>
</event>
<event>
 6    0  0.3667994E+002  0.8422078E+02  0.7546771E-02  0.1317483E+00
          1   -1    0    0  503    0 -0.00000000000E+00  0.00000000000E+00  0.18638749717E+04  0.18638749717E+04  0.00000000000E+00 0.  1.
         21   -1    0    0  505  502  0.00000000000E+00 -0.00000000000E+00 -0.30488361858E+03  0.30488361858E+03  0.00000000000E+00 0.  1.
         21    1    1    2  503  502 -0.19873496374E+02 -0.35756664724E+02  0.13957887729E+03  0.14545019050E+03  0.00000000000E+00 0.  1.
         21    1    1    2  504  501  0.74992592818E+02  0.68711664155E+02  0.52320202450E+03  0.53299675440E+03  0.00000000000E+00 0.  1.
         21    1    1    2  505  504 -0.60876134877E+02  0.34029239682E+02 -0.29199370962E+03  0.30020696096E+03  0.00000000000E+00 0.  1.
          1    1    1    2  501    0  0.57570384326E+01 -0.66984239113E+02  0.11882041609E+04  0.11901046844E+04  0.00000000000E+00 0.  1.
<scales pt_clust_3="40.90837" pt_clust_4="84.22078" pt_clust_5="69.74145" pt_clust_6="14000.00000"></scales>
<clustering>
<clus scale="   40.908">  1  3  2 -1</clus>
<clus scale="   69.741">  2  5  1 -1</clus>
<clus scale="   84.221">  2  4  1 -1</clus>
<clus scale="   69.741">  2  3  1 -1</clus>
</clustering>
</event>
<event>
 6    0  0.3667994E+002  0.1032852E+03  0.7546771E-02  0.1273536E+00
         21   -1    0    0  503  502  0.00000000000E+00  0.00000000000E+00  0.50443279845E+03  0.50443279845E+03  0.00000000000E+00 0.  1.
         -1   -1    0    0    0  501 -0.00000000000E+00 -0.00000000000E+00 -0.73600133191E+02  0.73600133191E+02  0.00000000000E+00 0.  1.
         21    1    1    2  503  504 -0.17644355089E+02  0.24632396173E+02  0.46351893713E+02  0.55376676124E+02  0.00000000000E+00 0.  1.
         21    1    1    2  504  501 -0.33335105234E+02  0.16977415709E+01 -0.11163863534E+02  0.35195786913E+02  0.00000000000E+00 0.  1.
         21    1    1    2  505  502  0.54675042654E+02 -0.11930207929E+03  0.36753482558E+03  0.39026169992E+03  0.00000000000E+00 0.  1.
         -1    1    1    2    0  505 -0.36955823304E+01  0.92971941544E+02  0.28109809501E+02  0.97198768683E+02  0.00000000000E+00 0.  1.
<scales pt_clust_3="30.29981" pt_clust_4="33.88415" pt_clust_5="14000.00000" pt_clust_6="103.28518"></scales>
<clustering>
<clus scale="   30.300">  1  3  2 -1</clus>
<clus scale="   33.884">  2  4  1 -1</clus>
<clus scale="  103.285">  2  6  1 -1</clus>
<clus scale="   30.300">  1  3  2 -1</clus>
</clustering>
</event>
<event>
 6    0  0.3667994E+002  0.1716616E+03  0.7546771E-02  0.1176126E+00
          2   -1    0    0  504    0 -0.00000000000E+00  0.00000000000E+00  0.13124361751E+04  0.13124361751E+04  0.00000000000E+00 0.  1.
         21   -1    0    0  501  502  0.00000000000E+00 -0.00000000000E+00 -0.11758921951E+03  0.11758921951E+03  0.00000000000E+00 0. -1.
         21    1    1    2  503  502  0.51746903865E+02  0.17358327922E+02 -0.62454116373E+02  0.82943174884E+02  0.00000000000E+00 0. -1.
         21    1    1    2  504  505  0.34275112898E+02  0.65889443029E+02  0.32406330198E+03  0.33246537527E+03  0.00000000000E+00 0. -1.
         21    1    1    2  505  503  0.96597789314E+02 -0.12836721404E+03  0.19431682897E+03  0.25212755613E+03  0.00000000000E+00 0. -1.
          2    1    1    2  501    0 -0.18261980608E+03  0.45119443093E+02  0.73892094103E+03  0.76248928832E+03  0.00000000000E+00 0.  1.
<scales pt_clust_3="54.58071" pt_clust_4="78.02774" pt_clust_5="171.66161" pt_clust_6="14000.00000"></scales>
<clustering>
<clus scale="   54.581">  2  3  1 -1</clus>
<clus scale="   78.028">  1  4  2 -1</clus>
<clus scale="  171.662">  2  5  1 -1</clus>
<clus scale="   54.581">  2  3  1 -1</clus>
</clustering>
</event>
<event>
 6    0  0.3667994E+002  0.8040072E+02  0.7546771E-02  0.1327918E+00
          1   -1    0    0  505    0 -0.00000000000E+00  0.00000000000E+00  0.31244590076E+04  0.31244590076E+04  0.00000000000E+00 0.  1.
         21   -1    0    0  503  502  0.00000000000E+00 -0.00000000000E+00 -0.18115858113E+03  0.18115858113E+03  0.00000000000E+00 0. -1.
         21    1    1    2  503  504  0.13512469297E+02  0.33511625119E+02 -0.17320263955E+03  0.17693154097E+03  0.00000000000E+00 0. -1.
         21    1    1    2  504  501 -0.27913554510E+02 -0.67932165039E+02  0.72119056942E+03  0.72492053564E+03  0.00000000000E+00 0.  1.
         21    1    1    2  505  502  0.65876852862E+02  0.61210428231E+02  0.53177290351E+03  0.53932262809E+03  0.00000000000E+00 0.  1.
          1    1    1    2  501    0 -0.51475767649E+02 -0.26789888311E+02  0.18635395931E+04  0.18644428840E+04  0.00000000000E+00 0.  1.
<scales pt_clust_3="36.13331" pt_clust_4="80.40072" pt_clust_5="14000.00000" pt_clust_6="56.02105"></scales>
<clustering>
<clus scale="   36.133">  2  3  1 -1</clus>
<clus scale="   56.021">  1  6  2 -1</clus>
<clus scale="   80.401">  2  4  1 -1</clus>
<clus scale="   36.133">  2  3  1 -1</clus>
</clustering>
</event>
<event>
 6    0  0.4861969E+002  0.1689535E+03  0.7546771E-02  0.1178944E+00
          1   -1    0    0  502    0 -0.00000000000E+00  0.00000000000E+00  0.22338236824E+04  0.22338236824E+04  0.00000000000E+00 0. -1.
         21   -1    0    0  505  502  0.00000000000E+00 -0.00000000000E+00 -0.95901414694E+03  0.95901414694E+03  0.00000000000E+00 0. -1.
         21    1    1    2  503  501 -0.19353826441E+03  0.60162366686E+02  0.11781245502E+03  0.23442769613E+03  0.00000000000E+00 0. -1.
         21    1    1    2  504  503  0.72837914885E+02  0.86398388217E+02 -0.95706929258E+01  0.11340917729E+03  0.00000000000E+00 0. -1.
         21    1    1    2  505  504  0.32555090391E+02 -0.14140064240E+01 -0.83530409388E+03  0.83593944911E+03  0.00000000000E+00 0. -1.
          1    1    1    2  501    0  0.88145259130E+02 -0.14514674848E+03  0.20018718673E+04  0.20090615069E+04  0.00000000000E+00 0. -1.
<scales pt_clust_3="14000.00000" pt_clust_4="123.59324" pt_clust_5="32.58578" pt_clust_6="168.95350"></scales>
<clustering>
<clus scale="   32.586">  2  5  1 -1</clus>
<clus scale="  123.593">  2  4  1 -1</clus>
<clus scale="  168.953">  1  6  2 -1</clus>
<clus scale="   32.586">  2  3  1 -1</clus>
</clustering>
</event>
<event>
 6    0  0.3667994E+002  0.8143615E+02  0.7546771E-02  0.1325025E+00
         -1   -1    0    0    0  501 -0.00000000000E+00  0.00000000000E+00  0.61650822264E+03  0.61650822264E+03  0.00000000000E+00 0. -1.
         21   -1    0    0  503  502  0.00000000000E+00 -0.00000000000E+00 -0.59078898042E+03  0.59078898042E+03  0.00000000000E+00 0. -1.
         21    1    1    2  503  505 -0.36892574625E+02 -0.84339724771E+02  0.68488454933E+02  0.11473848394E+03  0.00000000000E+00 0. -1.
         21    1    1    2  504  502  0.61678295123E+02  0.38996203743E+01 -0.55104866339E+03  0.55450342519E+03  0.00000000000E+00 0. -1.
         21    1    1    2  505  501  0.39187510347E+02  0.57488790864E+01  0.29777755445E+02  0.49552248156E+02  0.00000000000E+00 0. -1.
         -1    1    1    2    0  504 -0.63973230845E+02  0.74691225310E+02  0.47850169523E+03  0.48850304578E+03  0.00000000000E+00 0. -1.
<scales pt_clust_3="14000.00000" pt_clust_4="61.91965" pt_clust_5="39.60695" pt_clust_6="81.43615"></scales>
<clustering>
<clus scale="   39.607">  1  5  2 -1</clus>
<clus scale="   61.920">  2  4  1 -1</clus>
<clus scale="   81.436">  1  6  2 -1</clus>
<clus scale="   61.920">  2  3  1 -1</clus>
</clustering>
</event>
<event>
 6    0  0.3667994E+002  0.8683721E+02  0.7546771E-02  0.1310697E+00
         21   -1    0    0  501  502  0.00000000000E+00  0.00000000000E+00  0.12903554278E+04  0.12903554278E+04  0.00000000000E+00 0.  1.
          2   -1    0    0  504    0 -0.00000000000E+00 -0.00000000000E+00 -0.93566008860E+03  0.93566008860E+03  0.00000000000E+00 0. -1.
         21    1    1    2  503  505 -0.35352157219E+02  0.33537583704E+02 -0.10631046964E+03  0.11694640010E+03  0.00000000000E+00 0.  1.
         21    1    1    2  504  503  0.16930326905E+02  0.88042315028E+02 -0.13511082709E+03  0.16215122819E+03  0.00000000000E+00 0.  1.
         21    1    1    2  505  502 -0.16905138539E+02 -0.39854687870E+02  0.12682121248E+04  0.12689508159E+04  0.00000000000E+00 0.  1.
          2    1    1    2  501    0  0.35326968853E+02 -0.81725210861E+02 -0.67209548885E+03  0.67796707217E+03  0.00000000000E+00 0. -1.
<scales pt_clust_3="46.10166" pt_clust_4="14000.00000" pt_clust_5="43.29180" pt_clust_6="86.83721"></scales>
<clustering>
<clus scale="   43.292">  1  5  2 -1</clus>
<clus scale="   46.102">  1  3  2 -1</clus>
<clus scale="   86.837">  2  6  1 -1</clus>
<clus scale="   43.292">  1  3  2 -1</clus>
</clustering>
</event>
<event>
 6    0  0.3667994E+002  0.8486362E+02  0.7546771E-02  0.1315790E+00
          2   -1    0    0  505    0 -0.00000000000E+00  0.00000000000E+00  0.11985942581E+04  0.11985942581E+04  0.00000000000E+00 0. -1.
         21   -1    0    0  504  502  0.00000000000E+00 -0.00000000000E+00 -0.49290346402E+03  0.49290346402E+03  0.00000000000E+00 0.  1.
         21    1    1    2  503  502  0.72080942471E+02  0.11753811368E+02  0.60342845851E+03  0.60783198245E+03  0.00000000000E+00 0. -1.
         21    1    1    2  504  501 -0.32775348654E+02  0.56647582788E+02 -0.46943898570E+03  0.47397904321E+03  0.00000000000E+00 0.  1.
         21    1    1    2  505  503 -0.13253430312E+02  0.55559157186E+02  0.61233744693E+02  0.83737953470E+02  0.00000000000E+00 0. -1.
          2    1    1    2  501    0 -0.26052163504E+02 -0.12396055134E+03  0.51046757652E+03  0.52594874293E+03  0.00000000000E+00 0. -1.
<scales pt_clust_3="84.86362" pt_clust_4="65.55628" pt_clust_5="57.11807" pt_clust_6="14000.00000"></scales>
<clustering>
<clus scale="   57.118">  1  5  2 -1</clus>
<clus scale="   65.556">  2  4  1 -1</clus>
<clus scale="   84.864">  1  3  2 -1</clus>
<clus scale="   65.556">  2  3  1 -1</clus>
</clustering>
</event>
<event>
 6    0  0.3667994E+002  0.1103186E+03  0.7546771E-02  0.1259981E+00
         21   -1    0    0  504  502  0.00000000000E+00  0.00000000000E+00  0.53064820749E+03  0.53064820749E+03  0.00000000000E+00 0. -1.
         -3   -1    0    0    0  501 -0.00000000000E+00 -0.00000000000E+00 -0.98338980913E+03  0.98338980913E+03  0.00000000000E+00 0.  1.
         21    1    1    2  503  505  0.41289041774E+02  0.50156141666E+02 -0.68150416937E+02  0.94153613028E+02  0.00000000000E+00 0. -1.
         21    1    1    2  504  503 -0.15937094132E+02  0.28952997248E+02  0.49925147939E+03  0.50034418823E+03  0.00000000000E+00 0. -1.
         21    1    1    2  505  501  0.13781552079E+02  0.84121493868E+02 -0.32890249603E+03  0.33976934647E+03  0.00000000000E+00 0.  1.
         -3    1    1    2    0  502 -0.39133499720E+02 -0.16323063278E+03 -0.55494016807E+03  0.57977086889E+03  0.00000000000E+00 0.  1.
<scales pt_clust_3="71.30071" pt_clust_4="33.04946" pt_clust_5="110.31862" pt_clust_6="14000.00000"></scales>
<clustering>
<clus scale="   33.049">  1  4  2 -1</clus>
<clus scale="   71.301">  1  3  2 -1</clus>
<clus scale="  110.319">  2  5  1 -1</clus>
<clus scale="   33.049">  1  3  2 -1</clus>
</clustering>
</event>
<event>
 6    0  0.3667994E+002  0.8380064E+02  0.7546771E-02  0.1318599E+00
          1   -1    0    0  504    0 -0.00000000000E+00  0.00000000000E+00  0.19860500478E+04  0.19860500478E+04  0.00000000000E+00 0.  1.
         21   -1    0    0  505  502  0.00000000000E+00 -0.00000000000E+00 -0.18794991481E+02  0.18794991481E+02  0.00000000000E+00 0.  1.
         21    1    1    2  503  502  0.33633325910E+02  0.38290768618E+02  0.22754592075E+03  0.23318346773E+03  0.00000000000E+00 0.  1.
         21    1    1    2  504  503 -0.80423814331E+02  0.17769731954E+02  0.12024076401E+04  0.12052252430E+04  0.00000000000E+00 0.  1.
         21    1    1    2  505  501  0.54897508602E+02  0.89620802430E+01  0.50137848388E+02  0.74885640639E+02  0.00000000000E+00 0.  1.
          1    1    1    2  501    0 -0.81070201809E+01 -0.65022580815E+02  0.48716364704E+03  0.49155068792E+03  0.00000000000E+00 0.  1.
<scales pt_clust_3="50.96453" pt_clust_4="83.80064" pt_clust_5="14000.00000" pt_clust_6="59.86706"></scales>
<clustering>
<clus scale="   50.965">  2  3  1 -1</clus>
<clus scale="   59.867">  1  6  2 -1</clus>
<clus scale="   83.801">  1  4  2 -1</clus>
<clus scale="   50.965">  2  3  1 -1</clus>
</clustering>
</event>
<event>
 6    0  0.3667994E+002  0.6602548E+02  0.7546771E-02  0.1374155E+00
          2   -1    0    0  503    0 -0.00000000000E+00  0.00000000000E+00  0.21876628431E+04  0.21876628431E+04  0.00000000000E+00 0.  1.
         21   -1    0    0  501  502  0.00000000000E+00 -0.00000000000E+00 -0.24477755451E+02  0.24477755451E+02  0.00000000000E+00 0.  1.
         21    1    1    2  503  505 -0.29654479227E+02  0.30372801693E+02  0.68731945433E+03  0.68862902025E+03  0.00000000000E+00 0. -1.
         21    1    1    2  504  502  0.61938277311E+02  0.19125047090E+02  0.32858045982E+02  0.72675778690E+02  0.00000000000E+00 0.  1.
         21    1    1    2  505  504 -0.64546439044E+02 -0.81602590870E+02  0.92524826938E+03  0.93107979552E+03  0.00000000000E+00 0.  1.
          2    1    1    2  501    0  0.32262640960E+02  0.32104742087E+02  0.51775931796E+03  0.51975600410E+03  0.00000000000E+00 0.  1.
<scales pt_clust_3="42.44874" pt_clust_4="14000.00000" pt_clust_5="66.02548" pt_clust_6="47.95739"></scales>
<clustering>
<clus scale="   42.449">  1  3  2 -1</clus>
<clus scale="   47.957">  1  6  2 -1</clus>
<clus scale="   66.025">  1  5  2 -1</clus>
<clus scale="   66.025">  2  3  1 -1</clus>
</clustering>
</event>
<event>
 6    0  0.3667994E+002  0.1209921E+03  0.7546771E-02  0.1241469E+00
         21   -1    0    0  504  502  0.00000000000E+00  0.00000000000E+00  0.35574885600E+03  0.35574885600E+03  0.00000000000E+00 0.  1.
         -3   -1    0    0    0  501 -0.00000000000E+00 -0.00000000000E+00 -0.39707142474E+03  0.39707142474E+03  0.00000000000E+00 0.  1.
         21    1    1    2  503  505  0.75317486729E+02  0.67474395194E+02 -0.25420984822E+02  0.10426765694E+03  0.00000000000E+00 0. -1.
         21    1    1    2  504  501 -0.43616490565E+02  0.32448173608E+02 -0.11468952926E+02  0.55559149570E+02  0.00000000000E+00 0.  1.
         21    1    1    2  505  502  0.65744177918E+02 -0.21972203961E+02  0.27678473522E+03  0.28533290088E+03  0.00000000000E+00 0.  1.
         -3    1    1    2    0  503 -0.97445174082E+02 -0.77950364842E+02 -0.28121736621E+03  0.30766057334E+03  0.00000000000E+00 0.  1.
<scales pt_clust_3="120.99214" pt_clust_4="54.36251" pt_clust_5="68.71169" pt_clust_6="14000.00000"></scales>
<clustering>
<clus scale="   54.363">  2  4  1 -1</clus>
<clus scale="   68.712">  1  5  2 -1</clus>
<clus scale="  120.992">  1  3  2 -1</clus>
<clus scale="   68.712">  1  3  2 -1</clus>
</clustering>
</event>
<event>
 6    0  0.3667994E+002  0.2039360E+03  0.7546771E-02  0.1146460E+00
         21   -1    0    0  503  502  0.00000000000E+00  0.00000000000E+00  0.23754999460E+03  0.23754999460E+03  0.00000000000E+00 0.  1.
          2   -1    0    0  504    0 -0.00000000000E+00 -0.00000000000E+00 -0.26577000314E+04  0.26577000314E+04  0.00000000000E+00 0.  1.
         21    1    1    2  503  501  0.34158549999E+02 -0.17713772376E+02  0.21552823878E+03  0.21893607739E+03  0.00000000000E+00 0.  1.
         21    1    1    2  504  505  0.53270989528E+02 -0.28428796692E+02 -0.16657331986E+03  0.17717975532E+03  0.00000000000E+00 0.  1.
         21    1    1    2  505  502  0.11669929679E+03  0.33925804950E+01 -0.33301216544E+03  0.35288431221E+03  0.00000000000E+00 0.  1.
          2    1    1    2  501    0 -0.20412883632E+03  0.42749988573E+02 -0.21360927903E+04  0.21462498811E+04  0.00000000000E+00 0.  1.
<scales pt_clust_3="38.47836" pt_clust_4="31.06214" pt_clust_5="31.06214" pt_clust_6="199.30965"></scales>
<clustering>
<clus scale="   31.062">  4  5 -1 -1</clus>
<clus scale="   38.478">  1  3  2 -1</clus>
<clus scale="  199.310">  2  6  1 -1</clus>
<clus scale="   38.478">  1  3  2 -1</clus>
</clustering>
</event>
<event>
 6    0  0.3667994E+002  0.1456020E+03  0.7546771E-02  0.1205984E+00
         21   -1    0    0  504  502  0.00000000000E+00  0.00000000000E+00  0.45773121952E+03  0.45773121952E+03  0.00000000000E+00 0.  1.
          2   -1    0    0  505    0 -0.00000000000E+00 -0.00000000000E+00 -0.10071100754E+03  0.10071100754E+03  0.00000000000E+00 0. -1.
         21    1    1    2  503  501  0.53030107971E+02  0.97323789044E+01  0.34942065682E+02  0.64248420251E+02  0.00000000000E+00 0.  1.
         21    1    1    2  504  503 -0.12768977235E+03  0.39375872279E+02  0.32699753674E+03  0.35324570247E+03  0.00000000000E+00 0.  1.
         21    1    1    2  505  502 -0.14599628867E+02 -0.47089081351E+02  0.10335406680E+02  0.50372128968E+02  0.00000000000E+00 0. -1.
          2    1    1    2  501    0  0.89259293243E+02 -0.20191698325E+01 -0.15254797124E+02  0.90575975360E+02  0.00000000000E+00 0. -1.
<scales pt_clust_3="44.48664" pt_clust_4="133.87569" pt_clust_5="49.30041" pt_clust_6="44.48664"></scales>
<clustering>
<clus scale="   44.487">  3  6 -1 -1</clus>
<clus scale="   49.300">  2  5  1 -1</clus>
<clus scale="  133.876">  1  4  2 -1</clus>
<clus scale="  133.876">  1  3  2 -1</clus>
</clustering>
</event>
<event>
 6    0  0.3667994E+002  0.3046470E+03  0.7546771E-02  0.1082940E+00
         21   -1    0    0  504  502  0.00000000000E+00  0.00000000000E+00  0.59798771189E+02  0.59798771189E+02  0.00000000000E+00 0.  1.
          2   -1    0    0  505    0 -0.00000000000E+00 -0.00000000000E+00 -0.31323974344E+04  0.31323974344E+04  0.00000000000E+00 0. -1.
         21    1    1    2  503  502 -0.70193934629E+02  0.53484421487E+02 -0.55824583339E+02  0.10442296637E+03  0.00000000000E+00 0.  1.
         21    1    1    2  504  501  0.69324670767E+02 -0.90666282899E+02 -0.76545905355E+03  0.77392108609E+03  0.00000000000E+00 0. -1.
         21    1    1    2  505  503 -0.19454994124E+03  0.12865715740E+03 -0.52982631289E+03  0.57889400206E+03  0.00000000000E+00 0.  1.
          2    1    1    2  501    0  0.19541920511E+03 -0.91475295984E+02 -0.17214887134E+04  0.17349581510E+04  0.00000000000E+00 0. -1.
<scales pt_clust_3="88.24835" pt_clust_4="57.73159" pt_clust_5="294.12382" pt_clust_6="57.73159"></scales>
<clustering>
<clus scale="   57.732">  4  6 -1 -1</clus>
<clus scale="   88.248">  1  3  2 -1</clus>
<clus scale="  294.124">  1  5  2 -1</clus>
<clus scale="   88.248">  1  3  2 -1</clus>
</clustering>
</event>
<event>
 6    0  0.3667994E+002  0.2224096E+03  0.7546771E-02  0.1132099E+00
          2   -1    0    0  505    0 -0.00000000000E+00  0.00000000000E+00  0.17664362664E+04  0.17664362664E+04  0.00000000000E+00 0.  1.
         21   -1    0    0  504  502  0.00000000000E+00 -0.00000000000E+00 -0.90405259504E+03  0.90405259504E+03  0.00000000000E+00 0.  1.
         21    1    1    2  503  502 -0.17174612778E+03  0.10070439561E+03 -0.86236770640E+03  0.88505150627E+03  0.00000000000E+00 0.  1.
         21    1    1    2  504  501  0.11532730478E+03 -0.65993866444E+02  0.59067910369E+03  0.60543982457E+03  0.00000000000E+00 0.  1.
         21    1    1    2  505  503 -0.12353453719E+03 -0.56552302235E+02  0.35491451559E+03  0.38003060159E+03  0.00000000000E+00 0.  1.
          2    1    1    2  501    0  0.17995336020E+03  0.21841773067E+02  0.77915775852E+03  0.79996692904E+03  0.00000000000E+00 0.  1.
<scales pt_clust_3="199.72731" pt_clust_4="83.77663" pt_clust_5="135.86370" pt_clust_6="83.77663"></scales>
<clustering>
<clus scale="   83.777">  4  6 -1 -1</clus>
<clus scale="  135.864">  1  5  2 -1</clus>
<clus scale="  199.727">  2  3  1 -1</clus>
<clus scale="  199.727">  2  3  1 -1</clus>
</clustering>
</event>
<event>
 6    0  0.3667994E+002  0.8898582E+02  0.7546771E-02  0.1305326E+00
         21   -1    0    0  505  502  0.00000000000E+00  0.00000000000E+00  0.10690608470E+04  0.10690608470E+04  0.00000000000E+00 0. -1.
          2   -1    0    0  504    0 -0.00000000000E+00 -0.00000000000E+00 -0.64776812863E+03  0.64776812863E+03  0.00000000000E+00 0. -1.
         21    1    1    2  503  501 -0.39545419128E+00 -0.48370815494E+02 -0.65207344850E+01  0.48809959576E+02  0.00000000000E+00 0. -1.
         21    1    1    2  504  502 -0.71091544721E+02  0.33307003108E+02 -0.12950745074E+03  0.15144485460E+03  0.00000000000E+00 0. -1.
         21    1    1    2  505  503 -0.23705322048E+02 -0.34391015333E+02  0.10305210764E+04  0.10313672349E+04  0.00000000000E+00 0. -1.
          2    1    1    2  501    0  0.95192320960E+02  0.49454827719E+02 -0.47320017287E+03  0.48520692654E+03  0.00000000000E+00 0. -1.
<scales pt_clust_3="68.79539" pt_clust_4="88.98582" pt_clust_5="41.76942" pt_clust_6="14000.00000"></scales>
<clustering>
<clus scale="   41.769">  1  5  2 -1</clus>
<clus scale="   68.795">  1  3  2 -1</clus>
<clus scale="   88.986">  1  4  2 -1</clus>
<clus scale="   41.769">  1  3  2 -1</clus>
</clustering>
</event>
<event>
 6    0  0.3667994E+002  0.8005851E+02  0.7546771E-02  0.1328885E+00
         21   -1    0    0  501  502  0.00000000000E+00  0.00000000000E+00  0.38219088896E+02  0.38219088896E+02  0.00000000000E+00 0.  1.
          3   -1    0    0  505    0 -0.00000000000E+00 -0.00000000000E+00 -0.21230976776E+04  0.21230976776E+04  0.00000000000E+00 0. -1.
         21    1    1    2  503  504 -0.55899906507E+02  0.56502866548E-01 -0.51852870661E+03  0.52153314594E+03  0.00000000000E+00 0.  1.
         21    1    1    2  504  502 -0.66851899454E+02  0.43401503440E+02 -0.15225359643E+02  0.81146032175E+02  0.00000000000E+00 0.  1.
         21    1    1    2  505  503  0.37419157472E+02 -0.92790330191E+01 -0.16399470872E+03  0.16846530292E+03  0.00000000000E+00 0.  1.
          3    1    1    2  501    0  0.85332648489E+02 -0.34178973287E+02 -0.13871298138E+04  0.13901722855E+04  0.00000000000E+00 0. -1.
<scales pt_clust_3="46.01901" pt_clust_4="80.05851" pt_clust_5="38.55248" pt_clust_6="14000.00000"></scales>
<clustering>
<clus scale="   38.552">  2  5  1 -1</clus>
<clus scale="   46.019">  2  3  1 -1</clus>
<clus scale="   80.059">  1  4  2 -1</clus>
<clus scale="   80.059">  1  3  2 -1</clus>
</clustering>
</event>
<event>
 6    0  0.3667994E+002  0.1335733E+03  0.7546771E-02  0.1222248E+00
         21   -1    0    0  503  502  0.00000000000E+00  0.00000000000E+00  0.21124108134E+03  0.21124108134E+03  0.00000000000E+00 0. -1.
          2   -1    0    0  505    0 -0.00000000000E+00 -0.00000000000E+00 -0.85108090792E+03  0.85108090792E+03  0.00000000000E+00 0. -1.
         21    1    1    2  503  504  0.23198454636E+02  0.62962106646E+02  0.16702862662E+03  0.18000265910E+03  0.00000000000E+00 0. -1.
         21    1    1    2  504  501 -0.55144673239E+02 -0.11519138988E+02 -0.27144384021E+03  0.27722803599E+03  0.00000000000E+00 0.  1.
         21    1    1    2  505  502  0.66795252166E+02  0.26198773171E+02 -0.95585965164E+01  0.72383341971E+02  0.00000000000E+00 0. -1.
          2    1    1    2  501    0 -0.34849033563E+02 -0.77641740829E+02 -0.52586601647E+03  0.53270795220E+03  0.00000000000E+00 0. -1.
<scales pt_clust_3="67.09989" pt_clust_4="53.00793" pt_clust_5="116.60638" pt_clust_6="53.00793"></scales>
<clustering>
<clus scale="   53.008">  4  6 -1 -1</clus>
<clus scale="   67.100">  1  3  2 -1</clus>
<clus scale="  116.606">  1  5  2 -1</clus>
<clus scale="   67.100">  1  3  2 -1</clus>
</clustering>
</event>
<event>
 6    0  0.3667994E+002  0.1858853E+03  0.7546771E-02  0.1162226E+00
         21   -1    0    0  504  502  0.00000000000E+00  0.00000000000E+00  0.72600328204E+03  0.72600328204E+03  0.00000000000E+00 0.  1.
          2   -1    0    0  503    0 -0.00000000000E+00 -0.00000000000E+00 -0.40488775661E+03  0.40488775661E+03  0.00000000000E+00 0.  1.
         21    1    1    2  503  505  0.12744541344E+03  0.19650313401E+03 -0.20580387089E+03  0.31178686367E+03  0.00000000000E+00 0.  1.
         21    1    1    2  504  501  0.35265985181E+02 -0.51925062190E+02 -0.10301588602E+02  0.63608368333E+02  0.00000000000E+00 0.  1.
         21    1    1    2  505  502 -0.13295531735E+03 -0.12681743690E+03  0.63011051536E+03  0.65635283216E+03  0.00000000000E+00 0.  1.
          2    1    1    2  501    0 -0.29756081266E+02 -0.17760634921E+02 -0.92889530445E+02  0.99142974493E+02  0.00000000000E+00 0.  1.
<scales pt_clust_3="185.88529" pt_clust_4="62.66311" pt_clust_5="14000.00000" pt_clust_6="34.65349"></scales>
<clustering>
<clus scale="   34.653">  2  6  1 -1</clus>
<clus scale="   62.663">  2  4  1 -1</clus>
<clus scale="  185.885">  2  3  1 -1</clus>
<clus scale="  185.885">  1  3  2 -1</clus>
</clustering>
</event>
<event>
 6    0  0.3667994E+002  0.2680543E+03  0.7546771E-02  0.1102398E+00
         21   -1    0    0  504  502  0.00000000000E+00  0.00000000000E+00  0.85175247845E+02  0.85175247845E+02  0.00000000000E+00 0. -1.
          2   -1    0    0  505    0 -0.00000000000E+00 -0.00000000000E+00 -0.29089213194E+04  0.29089213194E+04  0.00000000000E+00 0. -1.
         21    1    1    2  503  502 -0.11452495165E+02  0.51372342043E+02  0.22963829848E+02  0.57424860938E+02  0.00000000000E+00 0. -1.
         21    1    1    2  504  501  0.25702992036E+03 -0.14018442316E+03 -0.57182328137E+03  0.64241568908E+03  0.00000000000E+00 0. -1.
         21    1    1    2  505  503 -0.84340127393E+01 -0.30176410878E+02 -0.29846342521E+03  0.30010358967E+03  0.00000000000E+00 0. -1.
          2    1    1    2  501    0 -0.23714341246E+03  0.11898849199E+03 -0.19764231948E+04  0.19941524276E+04  0.00000000000E+00 0. -1.
<scales pt_clust_3="52.45116" pt_clust_4="268.05426" pt_clust_5="31.33286" pt_clust_6="14000.00000"></scales>
<clustering>
<clus scale="   31.333">  2  5  1 -1</clus>
<clus scale="   52.451">  1  3  2 -1</clus>
<clus scale="  268.054">  1  4  2 -1</clus>
<clus scale="   52.451">  1  3  2 -1</clus>
</clustering>
</event>
<event>
 6    0  0.3667994E+002  0.1436558E+03  0.7546771E-02  0.1208493E+00
         21   -1    0    0  503  502  0.00000000000E+00  0.00000000000E+00  0.37064315999E+03  0.37064315999E+03  0.00000000000E+00 0. -1.
         -2   -1    0    0    0  501 -0.00000000000E+00 -0.00000000000E+00 -0.71417425144E+03  0.71417425144E+03  0.00000000000E+00 0.  1.
         21    1    1    2  503  504  0.59603833216E+02  0.13234940393E+03  0.29595030286E+03  0.32962943348E+03  0.00000000000E+00 0. -1.
         21    1    1    2  504  505 -0.11719408128E+03 -0.90094720950E+02 -0.85984231380E+02  0.17101110922E+03  0.00000000000E+00 0. -1.
         21    1    1    2  505  501 -0.43334199951E+02  0.35980772040E+02 -0.21919330473E+03  0.22631432496E+03  0.00000000000E+00 0.  1.
         -2    1    1    2    0  502  0.10092444802E+03 -0.78235455016E+02 -0.33430385820E+03  0.35786254377E+03  0.00000000000E+00 0.  1.
<scales pt_clust_3="14000.00000" pt_clust_4="143.65580" pt_clust_5="56.32467" pt_clust_6="88.06266"></scales>
<clustering>
<clus scale="   56.325">  2  5  1 -1</clus>
<clus scale="   88.063">  2  6  1 -1</clus>
<clus scale="  143.656">  2  4  1 -1</clus>
<clus scale="  143.656">  1  3  2 -1</clus>
</clustering>
</event>
<event>
 6    0  0.3667994E+002  0.8871989E+02  0.7546771E-02  0.1305982E+00
          1   -1    0    0  504    0 -0.00000000000E+00  0.00000000000E+00  0.15134873894E+04  0.15134873894E+04  0.00000000000E+00 0.  1.
         21   -1    0    0  505  502  0.00000000000E+00 -0.00000000000E+00 -0.25313766708E+02  0.25313766708E+02  0.00000000000E+00 0. -1.
         21    1    1    2  503  501 -0.31099324997E+02 -0.98582990873E+02  0.31790330919E+03  0.33428773250E+03  0.00000000000E+00 0. -1.
         21    1    1    2  504  502 -0.12834065216E+02  0.73756437108E+02  0.42098748471E+03  0.42759231462E+03  0.00000000000E+00 0. -1.
         21    1    1    2  505  503 -0.31704651676E+02  0.27051953656E+01  0.98627185303E+01  0.33313304199E+02  0.00000000000E+00 0. -1.
          1    1    1    2  501    0  0.75638041888E+02  0.22121358399E+02  0.73942011029E+03  0.74360780481E+03  0.00000000000E+00 0.  1.
<scales pt_clust_3="88.71989" pt_clust_4="14000.00000" pt_clust_5="31.81985" pt_clust_6="74.25572"></scales>
<clustering>
<clus scale="   31.820">  2  5  1 -1</clus>
<clus scale="   74.256">  1  6  2 -1</clus>
<clus scale="   88.720">  2  3  1 -1</clus>
<clus scale="   31.820">  2  3  1 -1</clus>
</clustering>
</event>
<event>
 6    0  0.3667994E+002  0.1115271E+03  0.7546771E-02  0.1257768E+00
         21   -1    0    0  505  502  0.00000000000E+00  0.00000000000E+00  0.33129932442E+02  0.33129932442E+02  0.00000000000E+00 0. -1.
          2   -1    0    0  504    0 -0.00000000000E+00 -0.00000000000E+00 -0.23176778324E+04  0.23176778324E+04  0.00000000000E+00 0.  1.
         21    1    1    2  503  502 -0.51889139667E+02 -0.37552326299E+02 -0.16390961642E+02  0.66115986338E+02  0.00000000000E+00 0. -1.
         21    1    1    2  504  503  0.22909871864E+02 -0.26996597207E+02 -0.21683790016E+03  0.21970970265E+03  0.00000000000E+00 0. -1.
         21    1    1    2  505  501 -0.83577352414E+02  0.68628315341E+02 -0.63061929152E+03  0.63982474971E+03  0.00000000000E+00 0. -1.
          2    1    1    2  501    0  0.11255662022E+03 -0.40793918351E+01 -0.14206997466E+04  0.14251573261E+04  0.00000000000E+00 0.  1.
<scales pt_clust_3="64.00209" pt_clust_4="35.40732" pt_clust_5="14000.00000" pt_clust_6="111.52711"></scales>
<clustering>
<clus scale="   35.407">  2  4  1 -1</clus>
<clus scale="   64.002">  1  3  2 -1</clus>
<clus scale="  111.527">  2  6  1 -1</clus>
<clus scale="   64.002">  1  3  2 -1</clus>
</clustering>
</event>
<event>
 6    0  0.3667994E+002  0.1417814E+03  0.7546771E-02  0.1210952E+00
         -1   -1    0    0    0  501 -0.00000000000E+00  0.00000000000E+00  0.31662466782E+03  0.31662466782E+03  0.00000000000E+00 0. -1.
         21   -1    0    0  504  502  0.00000000000E+00 -0.00000000000E+00 -0.42955573051E+03  0.42955573051E+03  0.00000000000E+00 0. -1.
         21    1    1    2  503  502  0.59106854053E+02  0.11961427569E+02  0.14153252736E+03  0.15384457172E+03  0.00000000000E+00 0. -1.
         21    1    1    2  504  505 -0.11343604762E+03 -0.76818391392E+02 -0.38582707657E+03  0.40942805860E+03  0.00000000000E+00 0. -1.
         21    1    1    2  505  501 -0.21191753138E+02  0.28760672715E+02  0.13166792480E+02  0.38074021593E+02  0.00000000000E+00 0. -1.
         -1    1    1    2    0  503  0.75520946703E+02  0.36096291109E+02  0.11819669404E+03  0.14483374643E+03  0.00000000000E+00 0. -1.
<scales pt_clust_3="30.78314" pt_clust_4="137.06451" pt_clust_5="35.72488" pt_clust_6="30.78314"></scales>
<clustering>
<clus scale="   30.783">  3  6 -1 -1</clus>
<clus scale="   35.725">  1  5  2 -1</clus>
<clus scale="  137.065">  2  4  1 -1</clus>
<clus scale="  137.065">  2  3  1 -1</clus>
</clustering>
</event>
<event>
 6    0  0.3667994E+002  0.1236056E+03  0.7546771E-02  0.1237265E+00
         21   -1    0    0  503  502  0.00000000000E+00  0.00000000000E+00  0.91030941144E+02  0.91030941144E+02  0.00000000000E+00 0. -1.
          4   -1    0    0  502    0 -0.00000000000E+00 -0.00000000000E+00 -0.15605725116E+04  0.15605725116E+04  0.00000000000E+00 0. -1.
         21    1    1    2  503  504  0.33375839183E+02 -0.68027950810E+02  0.59834022123E+02  0.96549774397E+02  0.00000000000E+00 0. -1.
         21    1    1    2  504  505 -0.77751442580E+02 -0.47154931339E+02 -0.21098583453E+03  0.22974746298E+03  0.00000000000E+00 0. -1.
         21    1    1    2  505  501  0.29757591946E+02  0.24576552209E+02 -0.57093142280E+03  0.57223440192E+03  0.00000000000E+00 0.  1.
          4    1    1    2  501    0  0.14618011451E+02  0.90606329941E+02 -0.74745833529E+03  0.75307181350E+03  0.00000000000E+00 0. -1.
<scales pt_clust_3="75.77433" pt_clust_4="110.58758" pt_clust_5="35.80562" pt_clust_6="35.80562"></scales>
<clustering>
<clus scale="   35.806">  5  6 -1 -1</clus>
<clus scale="   75.774">  1  3  2 -1</clus>
<clus scale="  110.588">  1  4  2 -1</clus>
<clus scale="   75.774">  1  3  2 -1</clus>
</clustering>
</event>
<event>
 6    0  0.3667994E+002  0.1448954E+03  0.7546771E-02  0.1206890E+00
          2   -1    0    0  505    0 -0.00000000000E+00  0.00000000000E+00  0.71221000839E+03  0.71221000839E+03  0.00000000000E+00 0. -1.
         21   -1    0    0  504  502  0.00000000000E+00 -0.00000000000E+00 -0.28128798387E+03  0.28128798387E+03  0.00000000000E+00 0. -1.
         21    1    1    2  503  502 -0.39213600059E+02 -0.72289774976E+01 -0.24476652477E+03  0.24799317772E+03  0.00000000000E+00 0. -1.
         21    1    1    2  504  501  0.67256374064E+02 -0.20498644358E+02  0.33591877396E+03  0.34319824733E+03  0.00000000000E+00 0. -1.
         21    1    1    2  505  503 -0.92097183534E+02  0.73420518361E+02  0.11685943973E+03  0.16591742641E+03  0.00000000000E+00 0. -1.
          2    1    1    2  501    0  0.64054409529E+02 -0.45692896506E+02  0.22291033559E+03  0.23638914080E+03  0.00000000000E+00 0. -1.
<scales pt_clust_3="39.87436" pt_clust_4="42.65681" pt_clust_5="137.79319" pt_clust_6="42.65681"></scales>
<clustering>
<clus scale="   39.874">  2  3  1 -1</clus>
<clus scale="   42.657">  4  6 -1 -1</clus>
<clus scale="  137.793">  2  5  1 -1</clus>
<clus scale="   39.874">  2  3  1 -1</clus>
</clustering>
</event>
<event>
 6    0  0.3667994E+002  0.1309725E+03  0.7546771E-02  0.1226020E+00
          2   -1    0    0  503    0 -0.00000000000E+00  0.00000000000E+00  0.65028480214E+02  0.65028480214E+02  0.00000000000E+00 0. -1.
         21   -1    0    0  504  502  0.00000000000E+00 -0.00000000000E+00 -0.71723304049E+03  0.71723304049E+03  0.00000000000E+00 0.  1.
         21    1    1    2  503  505 -0.46439932641E+02  0.31754004079E+02 -0.22171926745E+02  0.60469649035E+02  0.00000000000E+00 0. -1.
         21    1    1    2  504  501 -0.47076219867E+02 -0.33294442490E+02 -0.44757488508E+02  0.72992623979E+02  0.00000000000E+00 0. -1.
         21    1    1    2  505  502  0.11742441374E+03  0.49126123761E+02 -0.58165795910E+03  0.59542241339E+03  0.00000000000E+00 0.  1.
          2    1    1    2  501    0 -0.23908261234E+02 -0.47585685350E+02 -0.36171859147E+01  0.53376834295E+02  0.00000000000E+00 0. -1.
<scales pt_clust_3="56.25819" pt_clust_4="43.49929" pt_clust_5="122.90268" pt_clust_6="43.49929"></scales>
<clustering>
<clus scale="   43.499">  4  6 -1 -1</clus>
<clus scale="   56.258">  1  3  2 -1</clus>
<clus scale="  122.903">  2  5  1 -1</clus>
<clus scale="  122.903">  2  3  1 -1</clus>
</clustering>
</event>
<event>
 6    0  0.3667994E+002  0.8303591E+02  0.7546771E-02  0.1320650E+00
         21   -1    0    0  505  502  0.00000000000E+00  0.00000000000E+00  0.43567689227E+03  0.43567689227E+03  0.00000000000E+00 0. -1.
          1   -1    0    0  503    0 -0.00000000000E+00 -0.00000000000E+00 -0.38432487900E+03  0.38432487900E+03  0.00000000000E+00 0. -1.
         21    1    1    2  503  502 -0.11420398942E+03  0.84326353535E+01 -0.83528968932E+02  0.14174183994E+03  0.00000000000E+00 0. -1.
         21    1    1    2  504  501  0.71762145352E+02 -0.55496876182E+02 -0.21020952272E+03  0.22894923501E+03  0.00000000000E+00 0. -1.
         21    1    1    2  505  504  0.57485794035E+02  0.31039341982E+01  0.38425474377E+03  0.38854338115E+03  0.00000000000E+00 0. -1.
          1    1    1    2  501    0 -0.15043949967E+02  0.43960306630E+02 -0.39164238846E+02  0.60767315179E+02  0.00000000000E+00 0. -1.
<scales pt_clust_3="14000.00000" pt_clust_4="83.03591" pt_clust_5="57.48911" pt_clust_6="46.46320"></scales>
<clustering>
<clus scale="   46.463">  2  6  1 -1</clus>
<clus scale="   57.489">  1  5  2 -1</clus>
<clus scale="   83.036">  2  4  1 -1</clus>
<clus scale="   57.489">  1  3  2 -1</clus>
</clustering>
</event>
<event>
 6    0  0.3667994E+002  0.9409048E+02  0.7546771E-02  0.1293238E+00
          1   -1    0    0  503    0 -0.00000000000E+00  0.00000000000E+00  0.16399404123E+04  0.16399404123E+04  0.00000000000E+00 0.  1.
         21   -1    0    0  504  502  0.00000000000E+00 -0.00000000000E+00 -0.41230375058E+02  0.41230375058E+02  0.00000000000E+00 0.  1.
         21    1    1    2  503  502 -0.46859973099E+02 -0.74174650474E+02  0.67670165465E+03  0.68236563898E+03  0.00000000000E+00 0.  1.
         21    1    1    2  504  505  0.36378662846E+02  0.22493272859E+00 -0.16436458960E+02  0.39920106316E+02  0.00000000000E+00 0.  1.
         21    1    1    2  505  501  0.58733333446E+02  0.57391509393E+02  0.17047179438E+03  0.18921950874E+03  0.00000000000E+00 0.  1.
          1    1    1    2  501    0 -0.48252023192E+02  0.16558208352E+02  0.76797304721E+03  0.76966553336E+03  0.00000000000E+00 0.  1.
<scales pt_clust_3="14000.00000" pt_clust_4="36.37936" pt_clust_5="94.09048" pt_clust_6="48.79406"></scales>
<clustering>
<clus scale="   36.379">  2  4  1 -1</clus>
<clus scale="   48.794">  1  6  2 -1</clus>
<clus scale="   94.090">  2  5  1 -1</clus>
<clus scale="   36.379">  2  3  1 -1</clus>
</clustering>
</event>
<event>
 6    0  0.3667994E+002  0.1164742E+03  0.7546771E-02  0.1249029E+00
         21   -1    0    0  505  502  0.00000000000E+00  0.00000000000E+00  0.61118026400E+03  0.61118026400E+03  0.00000000000E+00 0.  1.
          1   -1    0    0  503    0 -0.00000000000E+00 -0.00000000000E+00 -0.34343731298E+03  0.34343731298E+03  0.00000000000E+00 0.  1.
         21    1    1    2  503  502 -0.20091161831E+03 -0.21257173780E+02 -0.79192266797E+02  0.21699944915E+03  0.00000000000E+00 0.  1.
         21    1    1    2  504  501  0.52047327971E+02  0.33058260289E+02  0.70661525290E+02  0.93780723385E+02  0.00000000000E+00 0.  1.
         21    1    1    2  505  504  0.49158626803E+02 -0.57932428580E+01  0.44500900537E+03  0.44775344456E+03  0.00000000000E+00 0.  1.
          1    1    1    2  501    0  0.99705663536E+02 -0.60078436513E+01 -0.16873531285E+03  0.19608395989E+03  0.00000000000E+00 0.  1.
<scales pt_clust_3="116.47423" pt_clust_4="82.30184" pt_clust_5="49.49881" pt_clust_6="14000.00000"></scales>
<clustering>
<clus scale="   49.499">  1  5  2 -1</clus>
<clus scale="   82.302">  1  4  2 -1</clus>
<clus scale="  116.474">  1  3  2 -1</clus>
<clus scale="   49.499">  1  3  2 -1</clus>
</clustering>
</event>
<event>
 6    0  0.3667994E+002  0.1507363E+03  0.7546771E-02  0.1199571E+00
         21   -1    0    0  503  502  0.00000000000E+00  0.00000000000E+00  0.26990106647E+03  0.26990106647E+03  0.00000000000E+00 0. -1.
         -2   -1    0    0    0  501 -0.00000000000E+00 -0.00000000000E+00 -0.41275178500E+03  0.41275178500E+03  0.00000000000E+00 0.  1.
         21    1    1    2  503  501 -0.11984857662E+03  0.13533433737E+03  0.19748397195E+03  0.26772930987E+03  0.00000000000E+00 0. -1.
         21    1    1    2  504  502  0.46119639391E+02 -0.12474423829E+02 -0.48854299940E+01  0.48026032667E+02  0.00000000000E+00 0.  1.
         21    1    1    2  505  504  0.46158512603E+02 -0.42746391503E+02 -0.12243904436E+03  0.13765602731E+03  0.00000000000E+00 0.  1.
         -2    1    1    2    0  505  0.27570424624E+02 -0.80113522033E+02 -0.21301021612E+03  0.22924148163E+03  0.00000000000E+00 0.  1.
<scales pt_clust_3="145.47979" pt_clust_4="47.77690" pt_clust_5="34.00263" pt_clust_6="34.00263"></scales>
<clustering>
<clus scale="   34.003">  5  6 -1 -1</clus>
<clus scale="   47.777">  1  4  2 -1</clus>
<clus scale="  145.480">  1  3  2 -1</clus>
<clus scale="   47.777">  1  3  2 -1</clus>
</clustering>
</event>
<event>
 6    0  0.3667994E+002  0.1073155E+03  0.7546771E-02  0.1265623E+00
         21   -1    0    0  505  502  0.00000000000E+00  0.00000000000E+00  0.49005841050E+02  0.49005841050E+02  0.00000000000E+00 0. -1.
          2   -1    0    0  504    0 -0.00000000000E+00 -0.00000000000E+00 -0.11991766605E+04  0.11991766605E+04  0.00000000000E+00 0. -1.
         21    1    1    2  503  502  0.53160406069E+02  0.62264591429E+02 -0.25205457144E+03  0.26501776375E+03  0.00000000000E+00 0. -1.
         21    1    1    2  504  503 -0.37951071971E+02  0.16039308612E+02 -0.38422468828E+03  0.38642742445E+03  0.00000000000E+00 0. -1.
         21    1    1    2  505  501 -0.59738634237E+02 -0.99238627621E+02 -0.43424378422E+02  0.12370402691E+03  0.00000000000E+00 0. -1.
          2    1    1    2  501    0  0.44529300139E+02  0.20934727580E+02 -0.47046718128E+03  0.47303328641E+03  0.00000000000E+00 0. -1.
<scales pt_clust_3="107.31550" pt_clust_4="41.20125" pt_clust_5="14000.00000" pt_clust_6="37.70426"></scales>
<clustering>
<clus scale="   41.201">  2  4  1 -1</clus>
<clus scale="   37.704">  2  6  1 -1</clus>
<clus scale="  107.315">  2  3  1 -1</clus>
<clus scale="  107.315">  1  3  2 -1</clus>
</clustering>
</event>
<event>
 6    0  0.3667994E+002  0.9666915E+02  0.7546771E-02  0.1287460E+00
          2   -1    0    0  505    0 -0.00000000000E+00  0.00000000000E+00  0.11293821197E+04  0.11293821197E+04  0.00000000000E+00 0.  1.
         21   -1    0    0  504  502  0.00000000000E+00 -0.00000000000E+00 -0.13128483755E+03  0.13128483755E+03  0.00000000000E+00 0.  1.
         21    1    1    2  503  501 -0.65463795109E+02 -0.18287831710E+01  0.17525495836E+03  0.18709129683E+03  0.00000000000E+00 0. -1.
         21    1    1    2  504  503  0.98000328640E+02 -0.23138508803E+02 -0.93497692280E+02  0.13740914622E+03  0.00000000000E+00 0.  1.
         21    1    1    2  505  502  0.14205547998E+02 -0.47817656997E+02  0.73081368750E+02  0.88482836601E+02  0.00000000000E+00 0. -1.
          2    1    1    2  501    0 -0.46742081529E+02  0.72784948971E+02  0.84325864730E+03  0.84768367757E+03  0.00000000000E+00 0.  1.
<scales pt_clust_3="14000.00000" pt_clust_4="96.66915" pt_clust_5="49.88312" pt_clust_6="49.16277"></scales>
<clustering>
<clus scale="   49.883">  1  5  2 -1</clus>
<clus scale="   49.163">  1  6  2 -1</clus>
<clus scale="   96.669">  2  4  1 -1</clus>
<clus scale="   96.669">  2  3  1 -1</clus>
</clustering>
</event>
<event>
 6    0  0.3667994E+002  0.2333095E+03  0.7546771E-02  0.1124332E+00
         21   -1    0    0  503  502  0.00000000000E+00  0.00000000000E+00  0.39538035985E+03  0.39538035985E+03  0.00000000000E+00 0. -1.
          1   -1    0    0  505    0 -0.00000000000E+00 -0.00000000000E+00 -0.23688225167E+04  0.23688225167E+04  0.00000000000E+00 0.  1.
         21    1    1    2  503  501 -0.36583630321E+02 -0.22189776978E+02 -0.48876181139E+03  0.49063107982E+03  0.00000000000E+00 0.  1.
         21    1    1    2  504  502  0.20900985472E+03 -0.69551199032E+02  0.35561217897E+03  0.41830910878E+03  0.00000000000E+00 0. -1.
         21    1    1    2  505  504  0.48154570535E+01  0.33294252618E+02 -0.11256116188E+03  0.11748068372E+03  0.00000000000E+00 0.  1.
          1    1    1    2  501    0 -0.17724168145E+03  0.58446723391E+02 -0.17277313626E+04  0.17377820043E+04  0.00000000000E+00 0.  1.
<scales pt_clust_3="34.48438" pt_clust_4="220.19602" pt_clust_5="33.64069" pt_clust_6="34.48438"></scales>
<clustering>
<clus scale="   33.641">  2  5  1 -1</clus>
<clus scale="   34.484">  3  6 -1 -1</clus>
<clus scale="  220.196">  1  4  2 -1</clus>
<clus scale="  220.196">  1  3  2 -1</clus>
</clustering>
</event>
<event>
 6    0  0.3667994E+002  0.1029961E+03  0.7546771E-02  0.1274119E+00
          2   -1    0    0  504    0 -0.00000000000E+00  0.00000000000E+00  0.12066233038E+04  0.12066233038E+04  0.00000000000E+00 0.  1.
         21   -1    0    0  505  502  0.00000000000E+00 -0.00000000000E+00 -0.12820437041E+04  0.12820437041E+04  0.00000000000E+00 0.  1.
         21    1    1    2  503  502  0.10465577021E+03  0.17587055609E+02  0.27888140916E+03  0.29839064184E+03  0.00000000000E+00 0.  1.
         21    1    1    2  504  503 -0.33794142495E+02  0.41640350590E+02  0.73212507197E+02  0.90752598168E+02  0.00000000000E+00 0. -1.
         21    1    1    2  505  501  0.11578476449E+02 -0.83933805937E+02 -0.12598774078E+04  0.12627232585E+04  0.00000000000E+00 0.  1.
          2    1    1    2  501    0 -0.82440104159E+02  0.24706399739E+02  0.83236309116E+03  0.83680050938E+03  0.00000000000E+00 0.  1.
<scales pt_clust_3="14000.00000" pt_clust_4="53.62800" pt_clust_5="84.67063" pt_clust_6="102.99609"></scales>
<clustering>
<clus scale="   53.628">  1  4  2 -1</clus>
<clus scale="   84.671">  2  5  1 -1</clus>
<clus scale="  102.996">  1  6  2 -1</clus>
<clus scale="   84.671">  2  3  1 -1</clus>
</clustering>
</event>
<event>
 6    0  0.3667994E+002  0.1041717E+03  0.7546771E-02  0.1271760E+00
          2   -1    0    0  505    0 -0.00000000000E+00  0.00000000000E+00  0.16133813359E+04  0.16133813359E+04  0.00000000000E+00 0. -1.
         21   -1    0    0  501  502  0.00000000000E+00 -0.00000000000E+00 -0.31856042872E+03  0.31856042872E+03  0.00000000000E+00 0.  1.
         21    1    1    2  503  502  0.98883396999E+02  0.33256293478E+02 -0.30018871878E+03  0.31780052571E+03  0.00000000000E+00 0.  1.
         21    1    1    2  504  503 -0.49273718375E+02  0.29300679588E+01  0.16117492637E+03  0.16856405759E+03  0.00000000000E+00 0. -1.
         21    1    1    2  505  504  0.10703759004E+02  0.36656902293E+02  0.82193535717E+02  0.90631541177E+02  0.00000000000E+00 0.  1.
          2    1    1    2  501    0 -0.60313437627E+02 -0.72843263730E+02  0.13516411638E+04  0.13549456401E+04  0.00000000000E+00 0. -1.
<scales pt_clust_3="104.17170" pt_clust_4="48.60851" pt_clust_5="38.18768" pt_clust_6="14000.00000"></scales>
<clustering>
<clus scale="   38.188">  1  5  2 -1</clus>
<clus scale="   48.609">  1  4  2 -1</clus>
<clus scale="  104.172">  2  3  1 -1</clus>
<clus scale="  104.172">  2  3  1 -1</clus>
</clustering>
</event>
<event>
 6    0  0.3667994E+002  0.1891392E+03  0.7546771E-02  0.1159240E+00
          2   -1    0    0  503    0 -0.00000000000E+00  0.00000000000E+00  0.92408553631E+03  0.92408553631E+03  0.00000000000E+00 0.  1.
         21   -1    0    0  504  502  0.00000000000E+00 -0.00000000000E+00 -0.74879129923E+03  0.74879129923E+03  0.00000000000E+00 0.  1.
         21    1    1    2  503  502  0.32955576434E+02  0.81472338949E+01  0.20018953224E+03  0.20304752216E+03  0.00000000000E+00 0. -1.
         21    1    1    2  504  505  0.17020158978E+03 -0.45513779086E+02 -0.72014974189E+03  0.74138770963E+03  0.00000000000E+00 0.  1.
         21    1    1    2  505  501 -0.74175649638E+02  0.28477871427E+02  0.17221780622E+03  0.18966282962E+03  0.00000000000E+00 0.  1.
          2    1    1    2  501    0 -0.12898151658E+03  0.88886737648E+01  0.52303664051E+03  0.53877877413E+03  0.00000000000E+00 0.  1.
<scales pt_clust_3="33.94772" pt_clust_4="176.61914" pt_clust_5="56.06943" pt_clust_6="56.06943"></scales>
<clustering>
<clus scale="   33.948">  1  3  2 -1</clus>
<clus scale="   56.069">  5  6 -1 -1</clus>
<clus scale="  176.619">  2  4  1 -1</clus>
<clus scale="  176.619">  2  3  1 -1</clus>
</clustering>
</event>
<event>
 6    0  0.3667994E+002  0.6427415E+02  0.7546771E-02  0.1380723E+00
          2   -1    0    0  503    0 -0.00000000000E+00  0.00000000000E+00  0.17106308980E+04  0.17106308980E+04  0.00000000000E+00 0. -1.
         21   -1    0    0  504  502  0.00000000000E+00 -0.00000000000E+00 -0.58233275594E+02  0.58233275594E+02  0.00000000000E+00 0. -1.
         21    1    1    2  503  505  0.14417230200E+02 -0.48314724552E+02  0.85224068112E+03  0.85373084030E+03  0.00000000000E+00 0. -1.
         21    1    1    2  504  501  0.13942097893E+02  0.61937747432E+02 -0.28247641388E+02  0.69488098942E+02  0.00000000000E+00 0. -1.
         21    1    1    2  505  502 -0.32959442820E+02  0.73102330844E+02  0.32116265176E+03  0.33102224175E+03  0.00000000000E+00 0.  1.
          2    1    1    2  501    0  0.46001147271E+01 -0.86725353725E+02  0.50724193095E+03  0.51462299263E+03  0.00000000000E+00 0. -1.
<scales pt_clust_3="50.41993" pt_clust_4="64.27415" pt_clust_5="61.24246" pt_clust_6="14000.00000"></scales>
<clustering>
<clus scale="   50.420">  1  3  2 -1</clus>
<clus scale="   61.242">  1  5  2 -1</clus>
<clus scale="   64.274">  2  4  1 -1</clus>
<clus scale="   64.274">  2  3  1 -1</clus>
</clustering>
</event>
<event>
 6    0  0.3667994E+002  0.6855225E+02  0.7546771E-02  0.1365087E+00
          1   -1    0    0  503    0 -0.00000000000E+00  0.00000000000E+00  0.92893760377E+03  0.92893760377E+03  0.00000000000E+00 0. -1.
         21   -1    0    0  505  502  0.00000000000E+00 -0.00000000000E+00 -0.51723135877E+02  0.51723135877E+02  0.00000000000E+00 0. -1.
         21    1    1    2  503  504 -0.39592945259E+02 -0.55478331048E+02  0.58475268756E+03  0.58871143368E+03  0.00000000000E+00 0. -1.
         21    1    1    2  504  502 -0.12598265472E+02  0.28779327443E+02 -0.23512406729E+02  0.39240275881E+02  0.00000000000E+00 0. -1.
         21    1    1    2  505  501 -0.49067403472E+02  0.21053568885E+02  0.83978520357E+02  0.99515097989E+02  0.00000000000E+00 0. -1.
          1    1    1    2  501    0  0.10125861420E+03  0.56454347194E+01  0.23199566671E+03  0.25319393210E+03  0.00000000000E+00 0. -1.
<scales pt_clust_3="68.55225" pt_clust_4="31.41601" pt_clust_5="62.68506" pt_clust_6="14000.00000"></scales>
<clustering>
<clus scale="   31.416">  2  4  1 -1</clus>
<clus scale="   62.685">  2  5  1 -1</clus>
<clus scale="   68.552">  1  3  2 -1</clus>
<clus scale="   31.416">  2  3  1 -1</clus>
</clustering>
</event>
<event>
 6    0  0.3667994E+002  0.1631436E+03  0.7546771E-02  0.1185193E+00
          2   -1    0    0  505    0 -0.00000000000E+00  0.00000000000E+00  0.10056031575E+04  0.10056031575E+04  0.00000000000E+00 0.  1.
         21   -1    0    0  503  502  0.00000000000E+00 -0.00000000000E+00 -0.42161685980E+03  0.42161685980E+03  0.00000000000E+00 0.  1.
         21    1    1    2  503  501  0.37769820757E+02 -0.83115733421E+00 -0.36266553674E+03  0.36462794973E+03  0.00000000000E+00 0.  1.
         21    1    1    2  504  502  0.10580036027E+03 -0.80998659342E+02  0.68031109266E+02  0.14960859226E+03  0.00000000000E+00 0.  1.
         21    1    1    2  505  504  0.29481423893E+02 -0.20233918911E+02  0.26273545508E+03  0.26515747243E+03  0.00000000000E+00 0. -1.
          2    1    1    2  501    0 -0.17305160492E+03  0.10206373559E+03  0.61588527015E+03  0.64782600293E+03  0.00000000000E+00 0.  1.
<scales pt_clust_3="37.81856" pt_clust_4="163.14363" pt_clust_5="35.75704" pt_clust_6="14000.00000"></scales>
<clustering>
<clus scale="   35.757">  1  5  2 -1</clus>
<clus scale="   37.819">  2  3  1 -1</clus>
<clus scale="  163.144">  2  4  1 -1</clus>
<clus scale="   37.819">  2  3  1 -1</clus>
</clustering>
</event>
<event>
 6    0  0.3667994E+002  0.1286017E+03  0.7546771E-02  0.1229545E+00
          1   -1    0    0  505    0 -0.00000000000E+00  0.00000000000E+00  0.18078879488E+04  0.18078879488E+04  0.00000000000E+00 0.  1.
         21   -1    0    0  503  502  0.00000000000E+00 -0.00000000000E+00 -0.42913364881E+02  0.42913364881E+02  0.00000000000E+00 0.  1.
         21    1    1    2  503  501 -0.37343460820E+02 -0.18888330313E+02  0.30132960650E+02  0.51568385718E+02  0.00000000000E+00 0.  1.
         21    1    1    2  504  502 -0.51490166522E+02  0.13565379429E+03  0.35157412326E+03  0.38033873494E+03  0.00000000000E+00 0.  1.
         21    1    1    2  505  504  0.71677688700E+02 -0.16791725562E+01  0.11978280860E+04  0.11999719306E+04  0.00000000000E+00 0.  1.
          1    1    1    2  501    0  0.17155938643E+02 -0.11508629142E+03  0.18543941400E+03  0.21892226238E+03  0.00000000000E+00 0.  1.
<scales pt_clust_3="41.84857" pt_clust_4="14000.00000" pt_clust_5="70.47218" pt_clust_6="128.60173"></scales>
<clustering>
<clus scale="   41.849">  2  3  1 -1</clus>
<clus scale="   70.472">  1  5  2 -1</clus>
<clus scale="  128.602">  2  6  1 -1</clus>
<clus scale="   41.849">  2  3  1 -1</clus>
</clustering>
</event>
<event>
 6    0  0.3667994E+002  0.5522877E+02  0.7546771E-02  0.1419020E+00
         21   -1    0    0  504  502  0.00000000000E+00  0.00000000000E+00  0.10895200030E+04  0.10895200030E+04  0.00000000000E+00 0. -1.
          2   -1    0    0  503    0 -0.00000000000E+00 -0.00000000000E+00 -0.16570360781E+03  0.16570360781E+03  0.00000000000E+00 0.  1.
         21    1    1    2  503  502 -0.34993506618E+02 -0.69666888238E+02 -0.82227947148E+02  0.11331132386E+03  0.00000000000E+00 0.  1.
         21    1    1    2  504  505 -0.24764342764E+02 -0.46367082235E+02  0.87653240189E+03  0.87810718626E+03  0.00000000000E+00 0. -1.
         21    1    1    2  505  501  0.46979757435E+02  0.83736962119E+02  0.17912899300E+03  0.20323920037E+03  0.00000000000E+00 0.  1.
          2    1    1    2  501    0  0.12778091947E+02  0.32297008353E+02 -0.49617052540E+02  0.60565900350E+02  0.00000000000E+00 0.  1.
<scales pt_clust_3="47.46021" pt_clust_4="55.22877" pt_clust_5="14000.00000" pt_clust_6="34.73293"></scales>
<clustering>
<clus scale="   34.733">  2  6  1 -1</clus>
<clus scale="   47.460">  2  3  1 -1</clus>
<clus scale="   55.229">  1  4  2 -1</clus>
<clus scale="   55.229">  1  3  2 -1</clus>
</clustering>
</event>
<event>
 6    0  0.3667994E+002  0.8917865E+02  0.7546771E-02  0.1304853E+00
          2   -1    0    0  503    0 -0.00000000000E+00  0.00000000000E+00  0.15376407298E+04  0.15376407298E+04  0.00000000000E+00 0. -1.
         21   -1    0    0  501  502  0.00000000000E+00 -0.00000000000E+00 -0.15709146685E+03  0.15709146685E+03  0.00000000000E+00 0. -1.
         21    1    1    2  503  505 -0.83084337077E+01 -0.29207964475E+02  0.66391290765E+02  0.73006429504E+02  0.00000000000E+00 0. -1.
         21    1    1    2  504  502 -0.82477419432E+02  0.34754390833E+02 -0.13277484357E+03  0.16012355068E+03  0.00000000000E+00 0. -1.
         21    1    1    2  505  504 -0.95671416790E+01 -0.41411236476E+02  0.10424478969E+04  0.10433139692E+04  0.00000000000E+00 0. -1.
          2    1    1    2  501    0  0.10035299482E+03  0.35864810118E+02  0.40448491893E+03  0.41828824728E+03  0.00000000000E+00 0. -1.
<scales pt_clust_3="30.36668" pt_clust_4="89.17865" pt_clust_5="64.05768" pt_clust_6="14000.00000"></scales>
<clustering>
<clus scale="   30.367">  1  3  2 -1</clus>
<clus scale="   64.058">  1  5  2 -1</clus>
<clus scale="   89.179">  2  4  1 -1</clus>
<clus scale="   89.179">  2  3  1 -1</clus>
</clustering>
</event>
<event>
 6    0  0.3667994E+002  0.5520797E+02  0.7546771E-02  0.1419118E+00
          2   -1    0    0  503    0 -0.00000000000E+00  0.00000000000E+00  0.41055137252E+03  0.41055137252E+03  0.00000000000E+00 0.  1.
         21   -1    0    0  505  502  0.00000000000E+00 -0.00000000000E+00 -0.17194775142E+03  0.17194775142E+03  0.00000000000E+00 0. -1.
         21    1    1    2  503  502 -0.10573778045E+03 -0.21004647238E+01  0.54999159786E+02  0.11920485621E+03  0.00000000000E+00 0. -1.
         21    1    1    2  504  501  0.46862793044E+02 -0.22629752745E+02  0.97522822621E+01  0.52946521043E+02  0.00000000000E+00 0. -1.
         21    1    1    2  505  504  0.11382624792E+02  0.46265250742E+02 -0.11098338487E+03  0.12077809938E+03  0.00000000000E+00 0. -1.
          2    1    1    2  501    0  0.47492362615E+02 -0.21535033273E+02  0.28483556392E+03  0.28956964730E+03  0.00000000000E+00 0.  1.
<scales pt_clust_3="55.20797" pt_clust_4="51.47248" pt_clust_5="47.64491" pt_clust_6="14000.00000"></scales>
<clustering>
<clus scale="   47.645">  2  5  1 -1</clus>
<clus scale="   51.472">  2  4  1 -1</clus>
<clus scale="   55.208">  2  3  1 -1</clus>
<clus scale="   47.645">  2  3  1 -1</clus>
</clustering>
</event>
<event>
 6    0  0.3667994E+002  0.8917396E+02  0.7546771E-02  0.1304864E+00
          2   -1    0    0  505    0 -0.00000000000E+00  0.00000000000E+00  0.28243721950E+04  0.28243721950E+04  0.00000000000E+00 0.  1.
         21   -1    0    0  501  502  0.00000000000E+00 -0.00000000000E+00 -0.29904021724E+02  0.29904021724E+02  0.00000000000E+00 0.  1.
         21    1    1    2  503  502  0.68261491987E+02 -0.40804389744E+02  0.59511094334E+02  0.99328746390E+02  0.00000000000E+00 0.  1.
         21    1    1    2  504  503  0.42065942026E+01 -0.62318233617E+02  0.52046387697E+03  0.52419834501E+03  0.00000000000E+00 0. -1.
         21    1    1    2  505  504 -0.11674841107E+02  0.10934364658E+03  0.20813314276E+04  0.20842343549E+04  0.00000000000E+00 0.  1.
          2    1    1    2  501    0 -0.60793245082E+02 -0.62210232244E+01  0.13316177442E+03  0.14651477039E+03  0.00000000000E+00 0.  1.
<scales pt_clust_3="48.88295" pt_clust_4="89.17396" pt_clust_5="14000.00000" pt_clust_6="61.11072"></scales>
<clustering>
<clus scale="   61.111">  2  6  1 -1</clus>
<clus scale="   48.883">  2  3  1 -1</clus>
<clus scale="   89.174">  2  4  1 -1</clus>
<clus scale="   61.111">  2  3  1 -1</clus>
</clustering>
</event>
<event>
 6    0  0.3667994E+002  0.9503965E+02  0.7546771E-02  0.1291087E+00
          1   -1    0    0  504    0 -0.00000000000E+00  0.00000000000E+00  0.16612345420E+04  0.16612345420E+04  0.00000000000E+00 0. -1.
         21   -1    0    0  505  502  0.00000000000E+00 -0.00000000000E+00 -0.69184420192E+02  0.69184420192E+02  0.00000000000E+00 0. -1.
         21    1    1    2  503  502  0.28735298403E+02  0.15803927962E+02 -0.46970040498E+02  0.57285829118E+02  0.00000000000E+00 0. -1.
         21    1    1    2  504  503  0.48354229981E+02 -0.78778148487E+01  0.45258239201E+03  0.45522633171E+03  0.00000000000E+00 0.  1.
         21    1    1    2  505  501  0.35657129198E+01  0.78690641867E+02  0.11175434634E+03  0.13672587667E+03  0.00000000000E+00 0. -1.
          1    1    1    2  501    0 -0.80655241304E+02 -0.86616754980E+02  0.10746834240E+04  0.10811809247E+04  0.00000000000E+00 0. -1.
<scales pt_clust_3="32.79453" pt_clust_4="51.01702" pt_clust_5="95.03965" pt_clust_6="14000.00000"></scales>
<clustering>
<clus scale="   32.795">  2  3  1 -1</clus>
<clus scale="   51.017">  1  4  2 -1</clus>
<clus scale="   95.040">  2  5  1 -1</clus>
<clus scale="   32.795">  2  3  1 -1</clus>
</clustering>
</event>
<event>
 6    0  0.3667994E+002  0.1731012E+03  0.7546771E-02  0.1174652E+00
         -1   -1    0    0    0  501 -0.00000000000E+00  0.00000000000E+00  0.93878329145E+02  0.93878329145E+02  0.00000000000E+00 0.  1.
         21   -1    0    0  503  502  0.00000000000E+00 -0.00000000000E+00 -0.87194505884E+03  0.87194505884E+03  0.00000000000E+00 0.  1.
         21    1    1    2  503  505 -0.41881889359E+02 -0.31337530266E+02 -0.41618978547E+02  0.66845140696E+02  0.00000000000E+00 0.  1.
         21    1    1    2  504  502  0.14400894695E+03 -0.10528244900E+03 -0.67773115837E+03  0.70081559193E+03  0.00000000000E+00 0.  1.
         21    1    1    2  505  501  0.14551042090E+00  0.33062148127E+02 -0.39250358361E+02  0.51319756854E+02  0.00000000000E+00 0. -1.
         -1    1    1    2    0  504 -0.10227256801E+03  0.10355783114E+03 -0.19466234417E+02  0.14684289850E+03  0.00000000000E+00 0.  1.
<scales pt_clust_3="49.59220" pt_clust_4="173.10124" pt_clust_5="33.06247" pt_clust_6="14000.00000"></scales>
<clustering>
<clus scale="   33.062">  1  5  2 -1</clus>
<clus scale="   49.592">  1  3  2 -1</clus>
<clus scale="  173.101">  2  4  1 -1</clus>
<clus scale="  173.101">  2  3  1 -1</clus>
</clustering>
</event>
<event>
 6    0  0.3667994E+002  0.1236312E+03  0.7546771E-02  0.1237224E+00
         -1   -1    0    0    0  501 -0.00000000000E+00  0.00000000000E+00  0.15148673276E+03  0.15148673276E+03  0.00000000000E+00 0. -1.
         21   -1    0    0  503  502  0.00000000000E+00 -0.00000000000E+00 -0.23335173826E+04  0.23335173826E+04  0.00000000000E+00 0.  1.
         21    1    1    2  503  505 -0.45109513305E+02  0.11683777079E+03 -0.22259350921E+04  0.22294557558E+04  0.00000000000E+00 0.  1.
         21    1    1    2  504  501  0.38522716982E+02 -0.39333381246E+02 -0.46519788085E+02  0.72077772492E+02  0.00000000000E+00 0. -1.
         21    1    1    2  505  504 -0.66005311193E+02 -0.44573578110E+02  0.39747826172E+02  0.89013452110E+02  0.00000000000E+00 0. -1.
         -1    1    1    2    0  502  0.72592107516E+02 -0.32930811437E+02  0.50676404129E+02  0.94457134993E+02  0.00000000000E+00 0. -1.
<scales pt_clust_3="123.63116" pt_clust_4="55.05556" pt_clust_5="79.14316" pt_clust_6="14000.00000"></scales>
<clustering>
<clus scale="   55.056">  1  4  2 -1</clus>
<clus scale="   79.143">  1  5  2 -1</clus>
<clus scale="  123.631">  2  3  1 -1</clus>
<clus scale="  123.631">  2  3  1 -1</clus>
</clustering>
</event>
<event>
 6    0  0.3667994E+002  0.1008019E+03  0.7546771E-02  0.1278619E+00
         -2   -1    0    0    0  501 -0.00000000000E+00  0.00000000000E+00  0.25965411451E+03  0.25965411451E+03  0.00000000000E+00 0.  1.
         21   -1    0    0  504  502  0.00000000000E+00 -0.00000000000E+00 -0.71419459212E+03  0.71419459212E+03  0.00000000000E+00 0.  1.
         21    1    1    2  503  501  0.33948900447E+02 -0.15498293075E+01 -0.94187634541E+01  0.35265321740E+02  0.00000000000E+00 0. -1.
         21    1    1    2  504  503 -0.86100889430E+01 -0.43455098010E+02 -0.49790696912E+03  0.49987381315E+03  0.00000000000E+00 0.  1.
         21    1    1    2  505  502 -0.39809355228E+02  0.12797023787E+03 -0.16067818615E+03  0.20923347258E+03  0.00000000000E+00 0. -1.
         -2    1    1    2    0  505  0.14470543725E+02 -0.82965310554E+02  0.21346344111E+03  0.22947609915E+03  0.00000000000E+00 0.  1.
<scales pt_clust_3="33.98426" pt_clust_4="44.27984" pt_clust_5="14000.00000" pt_clust_6="100.80188"></scales>
<clustering>
<clus scale="   33.984">  1  3  2 -1</clus>
<clus scale="   44.280">  2  4  1 -1</clus>
<clus scale="  100.802">  1  6  2 -1</clus>
<clus scale="   44.280">  2  3  1 -1</clus>
</clustering>
</event>
<event>
 6    0  0.3667994E+002  0.7281204E+02  0.7546771E-02  0.1350784E+00
          2   -1    0    0  503    0 -0.00000000000E+00  0.00000000000E+00  0.20690057351E+04  0.20690057351E+04  0.00000000000E+00 0.  1.
         21   -1    0    0  501  502  0.00000000000E+00 -0.00000000000E+00 -0.86391143541E+02  0.86391143541E+02  0.00000000000E+00 0.  1.
         21    1    1    2  503  505 -0.51143955513E+02 -0.22554032437E+00  0.19021022682E+03  0.19696620380E+03  0.00000000000E+00 0.  1.
         21    1    1    2  504  502 -0.67435788825E+01  0.72540802550E+02 -0.61697901016E+02  0.95468711527E+02  0.00000000000E+00 0.  1.
         21    1    1    2  505  504  0.11050562974E+03 -0.58899079079E+02  0.11601624738E+04  0.11669008361E+04  0.00000000000E+00 0.  1.
          2    1    1    2  501    0 -0.52618095347E+02 -0.13416183147E+02  0.69393979201E+03  0.69606112725E+03  0.00000000000E+00 0.  1.
<scales pt_clust_3="51.14445" pt_clust_4="14000.00000" pt_clust_5="72.81204" pt_clust_6="72.83328"></scales>
<clustering>
<clus scale="   51.144">  1  3  2 -1</clus>
<clus scale="   72.833">  1  6  2 -1</clus>
<clus scale="   72.812">  1  5  2 -1</clus>
<clus scale="   72.812">  2  3  1 -1</clus>
</clustering>
</event>
<event>
 6    0  0.3667994E+002  0.1041793E+03  0.7546771E-02  0.1271745E+00
         21   -1    0    0  503  502  0.00000000000E+00  0.00000000000E+00  0.16951577252E+04  0.16951577252E+04  0.00000000000E+00 0. -1.
          3   -1    0    0  504    0 -0.00000000000E+00 -0.00000000000E+00 -0.10193509672E+03  0.10193509672E+03  0.00000000000E+00 0. -1.
         21    1    1    2  503  501  0.17877139556E+02 -0.37082101019E+02  0.15073113881E+04  0.15078734347E+04  0.00000000000E+00 0. -1.
         21    1    1    2  504  505 -0.29097864901E+02  0.22528040959E+02 -0.27294279219E+02  0.45816766029E+02  0.00000000000E+00 0. -1.
         21    1    1    2  505  502 -0.14270812958E+02 -0.87168044416E+02  0.10644106928E+03  0.13831711861E+03  0.00000000000E+00 0. -1.
          3    1    1    2  501    0  0.25491538303E+02  0.10172210448E+03  0.67644502890E+01  0.10508550258E+03  0.00000000000E+00 0. -1.
<scales pt_clust_3="41.02494" pt_clust_4="36.79943" pt_clust_5="104.17935" pt_clust_6="14000.00000"></scales>
<clustering>
<clus scale="   36.799">  2  4  1 -1</clus>
<clus scale="   41.025">  1  3  2 -1</clus>
<clus scale="  104.179">  1  5  2 -1</clus>
<clus scale="   41.025">  1  3  2 -1</clus>
</clustering>
</event>
<event>
 6    0  0.3667994E+002  0.1377697E+03  0.7546771E-02  0.1216362E+00
         21   -1    0    0  504  502  0.00000000000E+00  0.00000000000E+00  0.89508303752E+03  0.89508303752E+03  0.00000000000E+00 0. -1.
          1   -1    0    0  505    0 -0.00000000000E+00 -0.00000000000E+00 -0.12980904381E+04  0.12980904381E+04  0.00000000000E+00 0. -1.
         21    1    1    2  503  502 -0.24057833459E+02 -0.53378118565E+02  0.85922031764E+03  0.86121284079E+03  0.00000000000E+00 0. -1.
         21    1    1    2  504  501  0.31240849203E+02 -0.99007711247E+02 -0.65382611262E+02  0.12269231191E+03  0.00000000000E+00 0. -1.
         21    1    1    2  505  503 -0.26834958407E+02  0.34255864156E+02 -0.17070479878E+03  0.17616386562E+03  0.00000000000E+00 0.  1.
          1    1    1    2  501    0  0.19651942663E+02  0.11812996566E+03 -0.10261403082E+04  0.10331044573E+04  0.00000000000E+00 0. -1.
<scales pt_clust_3="58.53126" pt_clust_4="137.76975" pt_clust_5="43.51528" pt_clust_6="14000.00000"></scales>
<clustering>
<clus scale="   43.515">  2  5  1 -1</clus>
<clus scale="   58.531">  1  3  2 -1</clus>
<clus scale="  137.770">  1  4  2 -1</clus>
<clus scale="   58.531">  1  3  2 -1</clus>
</clustering>
</event>
<event>
 6    0  0.3667994E+002  0.8062436E+02  0.7546771E-02  0.1327289E+00
         21   -1    0    0  503  502  0.00000000000E+00  0.00000000000E+00  0.17891825902E+03  0.17891825902E+03  0.00000000000E+00 0. -1.
          2   -1    0    0  505    0 -0.00000000000E+00 -0.00000000000E+00 -0.34801381265E+04  0.34801381265E+04  0.00000000000E+00 0. -1.
         21    1    1    2  503  501  0.70633164742E+01  0.43576985943E+02  0.17141293374E+03  0.17700632191E+03  0.00000000000E+00 0. -1.
         21    1    1    2  504  502  0.34552467205E+02  0.44464089568E+02 -0.26536470981E+03  0.27127358416E+03  0.00000000000E+00 0.  1.
         21    1    1    2  505  504  0.39283923446E+02 -0.37748584147E+02 -0.10683208071E+04  0.10697090862E+04  0.00000000000E+00 0. -1.
          2    1    1    2  501    0 -0.80899707125E+02 -0.50292491365E+02 -0.21389472844E+04  0.21410673933E+04  0.00000000000E+00 0. -1.
<scales pt_clust_3="44.14571" pt_clust_4="14000.00000" pt_clust_5="51.06219" pt_clust_6="80.62436"></scales>
<clustering>
<clus scale="   44.146">  1  3  2 -1</clus>
<clus scale="   51.062">  2  5  1 -1</clus>
<clus scale="   80.624">  2  6  1 -1</clus>
<clus scale="   44.146">  1  3  2 -1</clus>
</clustering>
</event>
<event>
 6    0  0.3667994E+002  0.1471494E+03  0.7546771E-02  0.1204020E+00
          2   -1    0    0  504    0 -0.00000000000E+00  0.00000000000E+00  0.19915570623E+04  0.19915570623E+04  0.00000000000E+00 0. -1.
         21   -1    0    0  503  502  0.00000000000E+00 -0.00000000000E+00 -0.26261884344E+02  0.26261884344E+02  0.00000000000E+00 0. -1.
         21    1    1    2  503  505  0.11876159410E+03  0.11496533441E+03  0.53790126470E+03  0.56272472393E+03  0.00000000000E+00 0. -1.
         21    1    1    2  504  502 -0.10713687192E+02 -0.58201152981E+02  0.75080182634E+02  0.95599116763E+02  0.00000000000E+00 0. -1.
         21    1    1    2  505  501 -0.61172187883E+02  0.41597753732E+01  0.50719100995E+03  0.51088360796E+03  0.00000000000E+00 0. -1.
          2    1    1    2  501    0 -0.46875719026E+02 -0.60923956802E+02  0.84512272064E+03  0.84861149797E+03  0.00000000000E+00 0. -1.
<scales pt_clust_3="130.67117" pt_clust_4="59.17903" pt_clust_5="58.81449" pt_clust_6="58.81449"></scales>
<clustering>
<clus scale="   59.179">  2  4  1 -1</clus>
<clus scale="   58.814">  5  6 -1 -1</clus>
<clus scale="  130.671">  2  3  1 -1</clus>
<clus scale="   59.179">  2  3  1 -1</clus>
</clustering>
</event>
<event>
 6    0  0.3667994E+002  0.1500212E+03  0.7546771E-02  0.1200447E+00
          1   -1    0    0  504    0 -0.00000000000E+00  0.00000000000E+00  0.17364831980E+04  0.17364831980E+04  0.00000000000E+00 0.  1.
         21   -1    0    0  503  502  0.00000000000E+00 -0.00000000000E+00 -0.97621519833E+02  0.97621519833E+02  0.00000000000E+00 0.  1.
         21    1    1    2  503  501 -0.92479627210E+02  0.11286316478E+03 -0.15935490338E+02  0.14678050029E+03  0.00000000000E+00 0.  1.
         21    1    1    2  504  505 -0.19040626371E+02  0.34446656038E+02  0.35949526740E+03  0.36164342224E+03  0.00000000000E+00 0.  1.
         21    1    1    2  505  502 -0.45973177136E+02  0.13490014262E+02  0.12369936833E+03  0.13265386246E+03  0.00000000000E+00 0.  1.
          1    1    1    2  501    0  0.15749343072E+03 -0.16079983508E+03  0.11716025328E+04  0.11930269328E+04  0.00000000000E+00 0.  1.
<scales pt_clust_3="150.02123" pt_clust_4="39.35883" pt_clust_5="50.58288" pt_clust_6="14000.00000"></scales>
<clustering>
<clus scale="   39.359">  1  4  2 -1</clus>
<clus scale="   50.583">  1  5  2 -1</clus>
<clus scale="  150.021">  2  3  1 -1</clus>
<clus scale="  150.021">  2  3  1 -1</clus>
</clustering>
</event>
<event>
 6    0  0.3667994E+002  0.9605928E+02  0.7546771E-02  0.1288808E+00
          2   -1    0    0  503    0 -0.00000000000E+00  0.00000000000E+00  0.12272599858E+03  0.12272599858E+03  0.00000000000E+00 0. -1.
         21   -1    0    0  505  502  0.00000000000E+00 -0.00000000000E+00 -0.44748565865E+03  0.44748565865E+03  0.00000000000E+00 0.  1.
         21    1    1    2  503  504  0.33577963920E+02  0.43905341521E+02 -0.90277325140E+01  0.56005880311E+02  0.00000000000E+00 0. -1.
         21    1    1    2  504  502  0.70735462501E+02  0.70246208816E+02 -0.31272818129E+03  0.32823307402E+03  0.00000000000E+00 0.  1.
         21    1    1    2  505  501 -0.38271864980E+02 -0.78872192173E+02 -0.46649492596E+02  0.99306261165E+02  0.00000000000E+00 0.  1.
          2    1    1    2  501    0 -0.66041561442E+02 -0.35279358164E+02  0.43645746332E+02  0.86666441735E+02  0.00000000000E+00 0. -1.
<scales pt_clust_3="55.27349" pt_clust_4="96.05928" pt_clust_5="14000.00000" pt_clust_6="44.46588"></scales>
<clustering>
<clus scale="   55.273">  1  3  2 -1</clus>
<clus scale="   44.466">  1  6  2 -1</clus>
<clus scale="   96.059">  2  4  1 -1</clus>
<clus scale="   96.059">  2  3  1 -1</clus>
</clustering>
</event>
<event>
 6    0  0.3667994E+002  0.1389621E+03  0.7546771E-02  0.1214732E+00
         21   -1    0    0  501  502  0.00000000000E+00  0.00000000000E+00  0.69431374507E+03  0.69431374507E+03  0.00000000000E+00 0. -1.
          2   -1    0    0  503    0 -0.00000000000E+00 -0.00000000000E+00 -0.75817864328E+03  0.75817864328E+03  0.00000000000E+00 0. -1.
         21    1    1    2  503  504 -0.10904041360E+02  0.40426964218E+02 -0.26984161594E+03  0.27307093446E+03  0.00000000000E+00 0. -1.
         21    1    1    2  504  505 -0.61245873738E+01  0.11739569090E+03 -0.11439721404E+03  0.16403042825E+03  0.00000000000E+00 0. -1.
         21    1    1    2  505  502  0.50612721754E+02  0.12489528685E+02  0.64508649416E+03  0.64718947835E+03  0.00000000000E+00 0. -1.
          2    1    1    2  501    0 -0.33584093020E+02 -0.17031218380E+03 -0.32471256240E+03  0.36820154730E+03  0.00000000000E+00 0. -1.
<scales pt_clust_3="41.87168" pt_clust_4="138.96209" pt_clust_5="52.12908" pt_clust_6="14000.00000"></scales>
<clustering>
<clus scale="   41.872">  2  3  1 -1</clus>
<clus scale="   52.129">  1  5  2 -1</clus>
<clus scale="  138.962">  1  4  2 -1</clus>
<clus scale="   52.129">  1  3  2 -1</clus>
</clustering>
</event>
<event>
 6    0  0.3667994E+002  0.2302870E+03  0.7546771E-02  0.1126438E+00
         21   -1    0    0  504  502  0.00000000000E+00  0.00000000000E+00  0.47911436884E+03  0.47911436884E+03  0.00000000000E+00 0. -1.
          1   -1    0    0  503    0 -0.00000000000E+00 -0.00000000000E+00 -0.28613188515E+03  0.28613188515E+03  0.00000000000E+00 0.  1.
         21    1    1    2  503  502 -0.20652238894E+03  0.55006560796E+02  0.83719178390E+02  0.22953457190E+03  0.00000000000E+00 0. -1.
         21    1    1    2  504  505 -0.36597130801E+02  0.50198582132E+01  0.22271774656E+03  0.22576036763E+03  0.00000000000E+00 0. -1.
         21    1    1    2  505  501  0.48203689523E+01 -0.40148112754E+02  0.88033345104E+01  0.41383639437E+02  0.00000000000E+00 0.  1.
          1    1    1    2  501    0  0.23829915079E+03 -0.19878306256E+02 -0.12225777578E+03  0.26856767502E+03  0.00000000000E+00 0.  1.
<scales pt_clust_3="230.28697" pt_clust_4="36.93980" pt_clust_5="39.67257" pt_clust_6="14000.00000"></scales>
<clustering>
<clus scale="   36.940">  1  4  2 -1</clus>
<clus scale="   39.673">  1  5  2 -1</clus>
<clus scale="  230.287">  1  3  2 -1</clus>
<clus scale="   36.940">  1  3  2 -1</clus>
</clustering>
</event>
<event>
 6    0  0.3667994E+002  0.7956659E+02  0.7546771E-02  0.1330286E+00
         21   -1    0    0  504  502  0.00000000000E+00  0.00000000000E+00  0.93924824830E+02  0.93924824830E+02  0.00000000000E+00 0.  1.
          2   -1    0    0  503    0 -0.00000000000E+00 -0.00000000000E+00 -0.52072739315E+03  0.52072739315E+03  0.00000000000E+00 0. -1.
         21    1    1    2  503  505  0.64333787439E+02 -0.31860365372E+02 -0.25964023260E+03  0.26938257084E+03  0.00000000000E+00 0.  1.
         21    1    1    2  504  501  0.30016450797E+02 -0.10930243837E+01  0.63436537542E+02  0.70188149400E+02  0.00000000000E+00 0.  1.
         21    1    1    2  505  502  0.20478092265E+02  0.27714707322E+02 -0.63791579390E+02  0.72503950691E+02  0.00000000000E+00 0.  1.
          2    1    1    2  501    0 -0.11482833050E+03  0.52386824340E+01 -0.16680729387E+03  0.20257754705E+03  0.00000000000E+00 0. -1.
<scales pt_clust_3="14000.00000" pt_clust_4="30.03634" pt_clust_5="37.39699" pt_clust_6="79.56659"></scales>
<clustering>
<clus scale="   30.036">  1  4  2 -1</clus>
<clus scale="   37.397">  1  5  2 -1</clus>
<clus scale="   79.567">  1  6  2 -1</clus>
<clus scale="   30.036">  1  3  2 -1</clus>
</clustering>
</event>
<event>
 6    0  0.3667994E+002  0.9303361E+02  0.7546771E-02  0.1295667E+00
         21   -1    0    0  503  502  0.00000000000E+00  0.00000000000E+00  0.94808807745E+03  0.94808807745E+03  0.00000000000E+00 0. -1.
          1   -1    0    0  504    0 -0.00000000000E+00 -0.00000000000E+00 -0.57257568073E+03  0.57257568073E+03  0.00000000000E+00 0. -1.
         21    1    1    2  503  501  0.34457435346E+02  0.82582907073E+02 -0.38281827180E+02  0.97328051884E+02  0.00000000000E+00 0.  1.
         21    1    1    2  504  505 -0.37639252063E+00 -0.63842769509E+02 -0.23557755663E+02  0.68051515352E+02  0.00000000000E+00 0.  1.
         21    1    1    2  505  502  0.27943725855E+02  0.52258949253E+02  0.89048153787E+03  0.89245124174E+03  0.00000000000E+00 0. -1.
          1    1    1    2  501    0 -0.62024768680E+02 -0.70999086817E+02 -0.45312955831E+03  0.46283294920E+03  0.00000000000E+00 0. -1.
<scales pt_clust_3="93.03361" pt_clust_4="44.58899" pt_clust_5="59.26086" pt_clust_6="14000.00000"></scales>
<clustering>
<clus scale="   59.261">  1  5  2 -1</clus>
<clus scale="   44.589">  1  4  2 -1</clus>
<clus scale="   93.034">  1  3  2 -1</clus>
<clus scale="   59.261">  1  3  2 -1</clus>
</clustering>
</event>
<event>
 6    0  0.3667994E+002  0.2269531E+03  0.7546771E-02  0.1128803E+00
         21   -1    0    0  504  502  0.00000000000E+00  0.00000000000E+00  0.37875780828E+04  0.37875780828E+04  0.00000000000E+00 0. -1.
          2   -1    0    0  503    0 -0.00000000000E+00 -0.00000000000E+00 -0.27936473663E+02  0.27936473663E+02  0.00000000000E+00 0. -1.
         21    1    1    2  503  505 -0.64336034402E+02  0.36409159157E+01  0.35152223611E+03  0.35737971973E+03  0.00000000000E+00 0. -1.
         21    1    1    2  504  501 -0.23127753719E+02  0.61903184625E+02  0.11745918342E+04  0.11764492655E+04  0.00000000000E+00 0. -1.
         21    1    1    2  505  502  0.17252746926E+03 -0.18516675178E+03  0.76362258635E+03  0.80446995469E+03  0.00000000000E+00 0. -1.
          2    1    1    2  501    0 -0.85063681143E+02  0.11962265124E+03  0.14699049525E+04  0.14772156166E+04  0.00000000000E+00 0. -1.
<scales pt_clust_3="64.43898" pt_clust_4="41.99362" pt_clust_5="218.15286" pt_clust_6="41.99362"></scales>
<clustering>
<clus scale="   41.994">  4  6 -1 -1</clus>
<clus scale="   64.439">  2  3  1 -1</clus>
<clus scale="  218.153">  2  5  1 -1</clus>
<clus scale="  226.953">  1  3  2 -1</clus>
</clustering>
</event>
<event>
 6    0  0.3667994E+002  0.8291079E+02  0.7546771E-02  0.1320988E+00
         21   -1    0    0  501  502  0.00000000000E+00  0.00000000000E+00  0.98581037202E+02  0.98581037202E+02  0.00000000000E+00 0. -1.
          1   -1    0    0  505    0 -0.00000000000E+00 -0.00000000000E+00 -0.26493674618E+03  0.26493674618E+03  0.00000000000E+00 0. -1.
         21    1    1    2  503  504  0.22999892870E+02  0.37256457479E+02 -0.10396878870E+02  0.45001486488E+02  0.00000000000E+00 0. -1.
         21    1    1    2  504  502  0.28706749295E+02 -0.17281918567E+02 -0.11295540587E+01  0.33526378522E+02  0.00000000000E+00 0. -1.
         21    1    1    2  505  503 -0.12181486442E+03  0.11611454589E+02 -0.12226430034E+02  0.12297630936E+03  0.00000000000E+00 0. -1.
          1    1    1    2  501    0  0.70108222259E+02 -0.31585993501E+02 -0.14260284602E+03  0.16201360901E+03  0.00000000000E+00 0. -1.
<scales pt_clust_3="44.42350" pt_clust_4="33.50734" pt_clust_5="14000.00000" pt_clust_6="82.91079"></scales>
<clustering>
<clus scale="   33.507">  1  4  2 -1</clus>
<clus scale="   44.423">  1  3  2 -1</clus>
<clus scale="   82.911">  2  6  1 -1</clus>
<clus scale="   33.507">  1  3  2 -1</clus>
</clustering>
</event>
<event>
 6    0  0.3667994E+002  0.1391504E+03  0.7546771E-02  0.1214477E+00
         21   -1    0    0  503  502  0.00000000000E+00  0.00000000000E+00  0.46688310284E+02  0.46688310284E+02  0.00000000000E+00 0.  1.
          2   -1    0    0  504    0 -0.00000000000E+00 -0.00000000000E+00 -0.21759279593E+04  0.21759279593E+04  0.00000000000E+00 0.  1.
         21    1    1    2  503  505  0.64823351460E+02 -0.84448810787E+02 -0.93361266809E+02  0.14159800379E+03  0.00000000000E+00 0.  1.
         21    1    1    2  504  502 -0.25615288014E+02 -0.55241989662E+02 -0.38905552935E+02  0.72259687593E+02  0.00000000000E+00 0.  1.
         21    1    1    2  505  501 -0.96976576395E+01  0.16835990776E+03 -0.17759638073E+04  0.17839525072E+04  0.00000000000E+00 0.  1.
          2    1    1    2  501    0 -0.29510405807E+02 -0.28669107307E+02 -0.22100902188E+03  0.22480607090E+03  0.00000000000E+00 0.  1.
<scales pt_clust_3="14000.00000" pt_clust_4="61.98680" pt_clust_5="139.15041" pt_clust_6="41.14343"></scales>
<clustering>
<clus scale="   41.143">  2  6  1 -1</clus>
<clus scale="   61.987">  1  4  2 -1</clus>
<clus scale="  139.150">  2  5  1 -1</clus>
<clus scale="   61.987">  1  3  2 -1</clus>
</clustering>
</event>
<event>
 6    0  0.3667994E+002  0.1458865E+03  0.7546771E-02  0.1205621E+00
         -3   -1    0    0    0  501 -0.00000000000E+00  0.00000000000E+00  0.39736814596E+02  0.39736814596E+02  0.00000000000E+00 0.  1.
         21   -1    0    0  503  502  0.00000000000E+00 -0.00000000000E+00 -0.21751469022E+04  0.21751469022E+04  0.00000000000E+00 0.  1.
         21    1    1    2  503  505 -0.69799993161E+02 -0.14597779710E+03 -0.16393568210E+04  0.16473227805E+04  0.00000000000E+00 0.  1.
         21    1    1    2  504  501  0.29509329245E+02 -0.15498810253E+02 -0.27278242137E+02  0.43071059029E+02  0.00000000000E+00 0.  1.
         21    1    1    2  505  504 -0.10434666794E+02  0.56872868367E+02 -0.20441599985E+02  0.61329148350E+02  0.00000000000E+00 0.  1.
         -3    1    1    2    0  502  0.50725330710E+02  0.10460373899E+03 -0.44833342442E+03  0.46316072894E+03  0.00000000000E+00 0.  1.
<scales pt_clust_3="14000.00000" pt_clust_4="33.33187" pt_clust_5="47.68744" pt_clust_6="145.88647"></scales>
<clustering>
<clus scale="   33.332">  1  4  2 -1</clus>
<clus scale="   47.687">  1  5  2 -1</clus>
<clus scale="  145.886">  1  6  2 -1</clus>
<clus scale="  145.886">  2  3  1 -1</clus>
</clustering>
</event>
<event>
 6    0  0.3667994E+002  0.6458347E+02  0.7546771E-02  0.1379545E+00
          2   -1    0    0  504    0 -0.00000000000E+00  0.00000000000E+00  0.10546874447E+04  0.10546874447E+04  0.00000000000E+00 0.  1.
         21   -1    0    0  505  502  0.00000000000E+00 -0.00000000000E+00 -0.62037797218E+02  0.62037797218E+02  0.00000000000E+00 0. -1.
         21    1    1    2  503  502 -0.57661648052E+02  0.20291669303E+02  0.39252308955E+02  0.72645448979E+02  0.00000000000E+00 0.  1.
         21    1    1    2  504  503  0.27288377661E+02 -0.15796861892E+02  0.51036800751E+03  0.51134107940E+03  0.00000000000E+00 0.  1.
         21    1    1    2  505  501  0.57238441075E+02 -0.79704189273E+02  0.17371129056E+02  0.99653163768E+02  0.00000000000E+00 0. -1.
          2    1    1    2  501    0 -0.26865170685E+02  0.75209381861E+02  0.42565820198E+03  0.43308554978E+03  0.00000000000E+00 0.  1.
<scales pt_clust_3="57.94331" pt_clust_4="31.53088" pt_clust_5="64.58347" pt_clust_6="14000.00000"></scales>
<clustering>
<clus scale="   31.531">  1  4  2 -1</clus>
<clus scale="   57.943">  2  3  1 -1</clus>
<clus scale="   64.583">  2  5  1 -1</clus>
<clus scale="   57.943">  2  3  1 -1</clus>
</clustering>
</event>
<event>
 6    0  0.3667994E+002  0.1512095E+03  0.7546771E-02  0.1198995E+00
          1   -1    0    0  503    0 -0.00000000000E+00  0.00000000000E+00  0.11615892723E+04  0.11615892723E+04  0.00000000000E+00 0. -1.
         21   -1    0    0  504  502  0.00000000000E+00 -0.00000000000E+00 -0.28241046690E+02  0.28241046690E+02  0.00000000000E+00 0.  1.
         21    1    1    2  503  505 -0.35479440224E+02 -0.39680128835E+01  0.36263879632E+03  0.36439186654E+03  0.00000000000E+00 0. -1.
         21    1    1    2  504  501 -0.15296645009E+02 -0.41250754703E+02  0.97561420491E+02  0.10702262789E+03  0.00000000000E+00 0.  1.
         21    1    1    2  505  502  0.13078555152E+03  0.87334161914E+02  0.36905385250E+03  0.40116438322E+03  0.00000000000E+00 0.  1.
          1    1    1    2  501    0 -0.80009466284E+02 -0.42115394328E+02  0.30409415631E+03  0.31725144135E+03  0.00000000000E+00 0. -1.
<scales pt_clust_3="35.70064" pt_clust_4="34.39688" pt_clust_5="142.18372" pt_clust_6="34.39688"></scales>
<clustering>
<clus scale="   35.701">  1  3  2 -1</clus>
<clus scale="   34.397">  4  6 -1 -1</clus>
<clus scale="  142.184">  2  5  1 -1</clus>
<clus scale="  142.184">  2  3  1 -1</clus>
</clustering>
</event>
<event>
 6    0  0.3667994E+002  0.1085187E+03  0.7546771E-02  0.1263338E+00
          1   -1    0    0  505    0 -0.00000000000E+00  0.00000000000E+00  0.54187428298E+03  0.54187428298E+03  0.00000000000E+00 0. -1.
         21   -1    0    0  503  502  0.00000000000E+00 -0.00000000000E+00 -0.14148920410E+03  0.14148920410E+03  0.00000000000E+00 0. -1.
         21    1    1    2  503  501  0.87197453762E+02  0.65839620199E+02 -0.10177212449E+03  0.14931783836E+03  0.00000000000E+00 0. -1.
         21    1    1    2  504  502 -0.38729963795E+02 -0.11264104372E+02  0.64963358665E+02  0.76466516280E+02  0.00000000000E+00 0. -1.
         21    1    1    2  505  504  0.90906844346E+01  0.29224872048E+02  0.66638986105E+02  0.73331358632E+02  0.00000000000E+00 0. -1.
          1    1    1    2  501    0 -0.57558174401E+02 -0.83800387875E+02  0.37055485859E+03  0.38424777380E+03  0.00000000000E+00 0. -1.
<scales pt_clust_3="108.51874" pt_clust_4="37.99660" pt_clust_5="30.60611" pt_clust_6="14000.00000"></scales>
<clustering>
<clus scale="   30.606">  1  5  2 -1</clus>
<clus scale="   37.997">  1  4  2 -1</clus>
<clus scale="  108.519">  2  3  1 -1</clus>
<clus scale="  108.519">  2  3  1 -1</clus>
</clustering>
</event>
<event>
 6    0  0.3667994E+002  0.1105940E+03  0.7546771E-02  0.1259474E+00
         21   -1    0    0  501  502  0.00000000000E+00  0.00000000000E+00  0.37875905403E+02  0.37875905403E+02  0.00000000000E+00 0.  1.
          2   -1    0    0  503    0 -0.00000000000E+00 -0.00000000000E+00 -0.43326488817E+04  0.43326488817E+04  0.00000000000E+00 0.  1.
         21    1    1    2  503  504  0.53879800804E+02  0.13980939504E+02 -0.10247704671E+04  0.10262811553E+04  0.00000000000E+00 0.  1.
         21    1    1    2  504  505  0.33725055738E+02  0.25299755521E+02 -0.14929539962E+04  0.14935491595E+04  0.00000000000E+00 0.  1.
         21    1    1    2  505  502  0.34580026888E+02 -0.22180385581E+02  0.22555134022E+02  0.46866638826E+02  0.00000000000E+00 0.  1.
          2    1    1    2  501    0 -0.12218488343E+03 -0.17100309444E+02 -0.17996036470E+04  0.18038278334E+04  0.00000000000E+00 0.  1.
<scales pt_clust_3="32.45546" pt_clust_4="32.45546" pt_clust_5="41.08221" pt_clust_6="104.11667"></scales>
<clustering>
<clus scale="   32.455">  3  4 -1 -1</clus>
<clus scale="   41.082">  1  5  2 -1</clus>
<clus scale="  104.117">  1  6  2 -1</clus>
<clus scale="   41.082">  1  3  2 -1</clus>
</clustering>
</event>
<event>
 6    0  0.3667994E+002  0.1816887E+03  0.7546771E-02  0.1166179E+00
         21   -1    0    0  503  502  0.00000000000E+00  0.00000000000E+00  0.19975478330E+04  0.19975478330E+04  0.00000000000E+00 0. -1.
         -3   -1    0    0    0  501 -0.00000000000E+00 -0.00000000000E+00 -0.25390466472E+02  0.25390466472E+02  0.00000000000E+00 0.  1.
         21    1    1    2  503  504 -0.59077268224E+02 -0.36416334335E+02  0.48611219601E+03  0.49104107785E+03  0.00000000000E+00 0. -1.
         21    1    1    2  504  501  0.46469264064E+02 -0.15502414793E+03  0.88310195118E+03  0.89780896360E+03  0.00000000000E+00 0. -1.
         21    1    1    2  505  502  0.23334067693E+02  0.79221664781E+02  0.22434206233E+03  0.23906047732E+03  0.00000000000E+00 0. -1.
         -3    1    1    2    0  505 -0.10726063533E+02  0.11221881748E+03  0.37860115698E+03  0.39502778067E+03  0.00000000000E+00 0.  1.
<scales pt_clust_3="69.39937" pt_clust_4="176.89494" pt_clust_5="35.48699" pt_clust_6="35.48699"></scales>
<clustering>
<clus scale="   35.487">  5  6 -1 -1</clus>
<clus scale="   69.399">  1  3  2 -1</clus>
<clus scale="  176.895">  1  4  2 -1</clus>
<clus scale="   69.399">  1  3  2 -1</clus>
</clustering>
</event>
<event>
 6    0  0.3667994E+002  0.9674353E+02  0.7546771E-02  0.1287297E+00
         21   -1    0    0  505  502  0.00000000000E+00  0.00000000000E+00  0.91209101672E+01  0.91209101672E+01  0.00000000000E+00 0.  1.
          1   -1    0    0  504    0 -0.00000000000E+00 -0.00000000000E+00 -0.21106546428E+04  0.21106546428E+04  0.00000000000E+00 0. -1.
         21    1    1    2  503  502  0.18498083018E+02 -0.25706423449E+02 -0.19058567747E+03  0.19319911940E+03  0.00000000000E+00 0. -1.
         21    1    1    2  504  503 -0.31159637993E+02  0.33412350997E+02 -0.33533381186E+03  0.33843178576E+03  0.00000000000E+00 0.  1.
         21    1    1    2  505  501 -0.81772194816E+02 -0.41388873181E+02 -0.54362847841E+03  0.55129996663E+03  0.00000000000E+00 0.  1.
          1    1    1    2  501    0  0.94433749791E+02  0.33682945634E+02 -0.10319857649E+04  0.10368446812E+04  0.00000000000E+00 0. -1.
<scales pt_clust_3="31.67016" pt_clust_4="39.46753" pt_clust_5="96.74353" pt_clust_6="14000.00000"></scales>
<clustering>
<clus scale="   31.670">  1  3  2 -1</clus>
<clus scale="   39.468">  1  4  2 -1</clus>
<clus scale="   96.744">  1  5  2 -1</clus>
<clus scale="   31.670">  1  3  2 -1</clus>
</clustering>
</event>
<event>
 6    0  0.3667994E+002  0.6940189E+02  0.7546771E-02  0.1362139E+00
         21   -1    0    0  501  502  0.00000000000E+00  0.00000000000E+00  0.98528523608E+01  0.98528523608E+01  0.00000000000E+00 0.  1.
          2   -1    0    0  505    0 -0.00000000000E+00 -0.00000000000E+00 -0.19897494543E+04  0.19897494543E+04  0.00000000000E+00 0.  1.
         21    1    1    2  503  504  0.51109708537E+02  0.66419683731E+02 -0.85425221819E+03  0.85835344059E+03  0.00000000000E+00 0.  1.
         21    1    1    2  504  502  0.33287309068E+02  0.12068701045E+02 -0.14835349315E+03  0.15252035084E+03  0.00000000000E+00 0.  1.
         21    1    1    2  505  503 -0.27251158823E+01 -0.52293168912E+02 -0.57592431981E+03  0.57829994287E+03  0.00000000000E+00 0.  1.
          2    1    1    2  501    0 -0.81671901723E+02 -0.26195215864E+02 -0.40136657077E+03  0.41042857234E+03  0.00000000000E+00 0.  1.
<scales pt_clust_3="14000.00000" pt_clust_4="35.40760" pt_clust_5="50.50343" pt_clust_6="69.40189"></scales>
<clustering>
<clus scale="   35.408">  1  4  2 -1</clus>
<clus scale="   50.503">  2  5  1 -1</clus>
<clus scale="   69.402">  1  6  2 -1</clus>
<clus scale="   35.408">  1  3  2 -1</clus>
</clustering>
</event>
<event>
 6    0  0.3667994E+002  0.8254839E+02  0.7546771E-02  0.1321971E+00
          2   -1    0    0  502    0 -0.00000000000E+00  0.00000000000E+00  0.58211223128E+03  0.58211223128E+03  0.00000000000E+00 0. -1.
         21   -1    0    0  504  502  0.00000000000E+00 -0.00000000000E+00 -0.51467319177E+03  0.51467319177E+03  0.00000000000E+00 0.  1.
         21    1    1    2  503  505  0.19045371635E+02  0.56746869933E+02  0.25897057841E+01  0.59913604498E+02  0.00000000000E+00 0.  1.
         21    1    1    2  504  503 -0.53088938474E+02  0.27809704413E+02 -0.46888371176E+03  0.47269837127E+03  0.00000000000E+00 0.  1.
         21    1    1    2  505  501 -0.10587327006E+02 -0.12074388419E+03  0.30181494262E+03  0.32524365736E+03  0.00000000000E+00 0. -1.
          2    1    1    2  501    0  0.44630893845E+02  0.36187309847E+02  0.23191810286E+03  0.23892978992E+03  0.00000000000E+00 0. -1.
<scales pt_clust_3="82.54839" pt_clust_4="59.80733" pt_clust_5="14000.00000" pt_clust_6="57.45814"></scales>
<clustering>
<clus scale="   57.458">  1  6  2 -1</clus>
<clus scale="   59.807">  2  4  1 -1</clus>
<clus scale="   82.548">  2  3  1 -1</clus>
<clus scale="   59.807">  2  3  1 -1</clus>
</clustering>
</event>
<event>
 6    0  0.3667994E+002  0.3678373E+03  0.7546771E-02  0.1055523E+00
          2   -1    0    0  503    0 -0.00000000000E+00  0.00000000000E+00  0.12525486206E+04  0.12525486206E+04  0.00000000000E+00 0.  1.
         21   -1    0    0  501  502  0.00000000000E+00 -0.00000000000E+00 -0.17724704574E+03  0.17724704574E+03  0.00000000000E+00 0.  1.
         21    1    1    2  503  505  0.29738831280E+02 -0.96818078781E+01  0.13409326983E+03  0.13769219478E+03  0.00000000000E+00 0.  1.
         21    1    1    2  504  502 -0.33334519991E+03 -0.13893678168E+03  0.18392903039E+03  0.40528056927E+03  0.00000000000E+00 0.  1.
         21    1    1    2  505  504 -0.40353926355E+02 -0.15978865040E+02  0.24164565466E+03  0.24551249646E+03  0.00000000000E+00 0. -1.
          2    1    1    2  501    0  0.34396029499E+03  0.16459745459E+03  0.51563362003E+03  0.64131040588E+03  0.00000000000E+00 0.  1.
<scales pt_clust_3="31.27516" pt_clust_4="367.83733" pt_clust_5="38.39589" pt_clust_6="14000.00000"></scales>
<clustering>
<clus scale="   31.275">  1  3  2 -1</clus>
<clus scale="   38.396">  1  5  2 -1</clus>
<clus scale="  367.837">  2  4  1 -1</clus>
<clus scale="  367.837">  2  3  1 -1</clus>
</clustering>
</event>
<event>
 6    0  0.3667994E+002  0.1041931E+03  0.7546771E-02  0.1271718E+00
         21   -1    0    0  503  502  0.00000000000E+00  0.00000000000E+00  0.53852321662E+02  0.53852321662E+02  0.00000000000E+00 0.  1.
          2   -1    0    0  504    0 -0.00000000000E+00 -0.00000000000E+00 -0.12229061679E+04  0.12229061679E+04  0.00000000000E+00 0. -1.
         21    1    1    2  503  505 -0.10224881817E+03 -0.50120571392E+02 -0.57796839696E+02  0.12770030217E+03  0.00000000000E+00 0.  1.
         21    1    1    2  504  502  0.38558236972E+02 -0.49609657085E+02 -0.56419544344E+02  0.84445371090E+02  0.00000000000E+00 0.  1.
         21    1    1    2  505  501  0.16846906735E+02  0.81274803895E+02 -0.44311017267E+03  0.45081707725E+03  0.00000000000E+00 0. -1.
          2    1    1    2  501    0  0.46843674465E+02  0.18455424581E+02 -0.61172728952E+03  0.61379573905E+03  0.00000000000E+00 0. -1.
<scales pt_clust_3="104.19312" pt_clust_4="64.70903" pt_clust_5="14000.00000" pt_clust_6="50.34811"></scales>
<clustering>
<clus scale="   50.348">  2  6  1 -1</clus>
<clus scale="   64.709">  1  4  2 -1</clus>
<clus scale="  104.193">  1  3  2 -1</clus>
<clus scale="   64.709">  1  3  2 -1</clus>
</clustering>
</event>
<event>
 6    0  0.3667994E+002  0.1088234E+03  0.7546771E-02  0.1262764E+00
          1   -1    0    0  504    0 -0.00000000000E+00  0.00000000000E+00  0.71272010264E+03  0.71272010264E+03  0.00000000000E+00 0.  1.
         21   -1    0    0  503  502  0.00000000000E+00 -0.00000000000E+00 -0.63070000183E+02  0.63070000183E+02  0.00000000000E+00 0.  1.
         21    1    1    2  503  501 -0.33036398428E+02 -0.18240446272E+01 -0.56132553027E+01  0.33559490387E+02  0.00000000000E+00 0.  1.
         21    1    1    2  504  505  0.40570487056E+02 -0.10858454217E+01  0.10408149127E+03  0.11171436929E+03  0.00000000000E+00 0.  1.
         21    1    1    2  505  502  0.11719127285E+03  0.43439818750E+02  0.98242778637E+02  0.15897312930E+03  0.00000000000E+00 0.  1.
          1    1    1    2  501    0 -0.12472536147E+03 -0.40529928701E+02  0.45293908785E+03  0.47154311385E+03  0.00000000000E+00 0.  1.
<scales pt_clust_3="33.08672" pt_clust_4="37.69157" pt_clust_5="14000.00000" pt_clust_6="108.82344"></scales>
<clustering>
<clus scale="   33.087">  2  3  1 -1</clus>
<clus scale="   37.692">  1  4  2 -1</clus>
<clus scale="  108.823">  1  6  2 -1</clus>
<clus scale="   33.087">  2  3  1 -1</clus>
</clustering>
</event>
<event>
 6    0  0.3667994E+002  0.1248443E+03  0.7546771E-02  0.1235313E+00
         21   -1    0    0  505  502  0.00000000000E+00  0.00000000000E+00  0.10629048398E+03  0.10629048398E+03  0.00000000000E+00 0.  1.
          2   -1    0    0  503    0 -0.00000000000E+00 -0.00000000000E+00 -0.13275602926E+04  0.13275602926E+04  0.00000000000E+00 0.  1.
         21    1    1    2  503  504 -0.29101979232E+02  0.26120451143E+02 -0.87630878129E+02  0.95960272847E+02  0.00000000000E+00 0.  1.
         21    1    1    2  504  502  0.10687486435E+03 -0.19681479527E+01 -0.21878025416E+03  0.24349724813E+03  0.00000000000E+00 0.  1.
         21    1    1    2  505  501  0.37947527036E+02 -0.24952292224E+02  0.80447590829E+02  0.92382068420E+02  0.00000000000E+00 0.  1.
          2    1    1    2  501    0 -0.11572041216E+03  0.79998903404E+00 -0.99530626714E+03  0.10020111872E+04  0.00000000000E+00 0.  1.
<scales pt_clust_3="39.10503" pt_clust_4="14000.00000" pt_clust_5="45.22950" pt_clust_6="124.84427"></scales>
<clustering>
<clus scale="   39.105">  2  3  1 -1</clus>
<clus scale="   45.229">  1  5  2 -1</clus>
<clus scale="  124.844">  2  6  1 -1</clus>
<clus scale="   45.229">  1  3  2 -1</clus>
</clustering>
</event>
<event>
 6    0  0.3667994E+002  0.9503801E+02  0.7546771E-02  0.1291091E+00
         21   -1    0    0  504  502  0.00000000000E+00  0.00000000000E+00  0.97970910504E+02  0.97970910504E+02  0.00000000000E+00 0. -1.
         -3   -1    0    0    0  501 -0.00000000000E+00 -0.00000000000E+00 -0.45792505512E+03  0.45792505512E+03  0.00000000000E+00 0. -1.
         21    1    1    2  503  502 -0.61305813978E+02 -0.12376510968E+02  0.16805079874E+02  0.64761034278E+02  0.00000000000E+00 0. -1.
         21    1    1    2  504  501 -0.28721732938E+02  0.25933790408E+02 -0.36980265789E+02  0.53526063611E+02  0.00000000000E+00 0. -1.
         21    1    1    2  505  503  0.15180964858E+03  0.13216199468E+01 -0.82877272897E+02  0.17296403801E+03  0.00000000000E+00 0. -1.
         -3    1    1    2    0  505 -0.61782101662E+02 -0.14878899387E+02 -0.25690168580E+03  0.26464482972E+03  0.00000000000E+00 0. -1.
<scales pt_clust_3="63.90585" pt_clust_4="38.69754" pt_clust_5="14000.00000" pt_clust_6="95.03801"></scales>
<clustering>
<clus scale="   38.698">  2  4  1 -1</clus>
<clus scale="   63.906">  1  3  2 -1</clus>
<clus scale="   95.038">  2  6  1 -1</clus>
<clus scale="   63.906">  1  3  2 -1</clus>
</clustering>
</event>
<event>
 6    0  0.3667994E+002  0.1612255E+03  0.7546771E-02  0.1187320E+00
         21   -1    0    0  505  502  0.00000000000E+00  0.00000000000E+00  0.16973850439E+03  0.16973850439E+03  0.00000000000E+00 0. -1.
          2   -1    0    0  503    0 -0.00000000000E+00 -0.00000000000E+00 -0.24291792008E+04  0.24291792008E+04  0.00000000000E+00 0. -1.
         21    1    1    2  503  504  0.13379752000E+02  0.40003512040E+02 -0.33498741123E+03  0.33763273600E+03  0.00000000000E+00 0. -1.
         21    1    1    2  504  502 -0.11361104082E+03 -0.16942959851E+03 -0.17792270042E+04  0.17908831871E+04  0.00000000000E+00 0. -1.
         21    1    1    2  505  501  0.12724631423E+02  0.31960634555E+02  0.14657110637E+03  0.15055393594E+03  0.00000000000E+00 0. -1.
          2    1    1    2  501    0  0.87506657402E+02  0.97465451913E+02 -0.29179738734E+03  0.31984784612E+03  0.00000000000E+00 0. -1.
<scales pt_clust_3="44.32719" pt_clust_4="161.22550" pt_clust_5="34.40056" pt_clust_6="14000.00000"></scales>
<clustering>
<clus scale="   34.401">  1  5  2 -1</clus>
<clus scale="   44.327">  2  3  1 -1</clus>
<clus scale="  161.226">  2  4  1 -1</clus>
<clus scale="   34.401">  1  3  2 -1</clus>
</clustering>
</event>
<event>
 6    0  0.3667994E+002  0.1523216E+03  0.7546771E-02  0.1197649E+00
          3   -1    0    0  503    0 -0.00000000000E+00  0.00000000000E+00  0.14322131787E+04  0.14322131787E+04  0.00000000000E+00 0.  1.
         21   -1    0    0  501  502  0.00000000000E+00 -0.00000000000E+00 -0.11458191831E+03  0.11458191831E+03  0.00000000000E+00 0.  1.
         21    1    1    2  503  505 -0.40873572630E+02 -0.36141953034E+02  0.22151750252E+03  0.22813788294E+03  0.00000000000E+00 0.  1.
         21    1    1    2  504  502 -0.11049417139E+02  0.29653037881E+02 -0.84270448546E+02  0.90016113962E+02  0.00000000000E+00 0.  1.
         21    1    1    2  505  504  0.93098673400E+02 -0.14137730209E+03  0.41831010769E+03  0.45126295077E+03  0.00000000000E+00 0.  1.
          3    1    1    2  501    0 -0.41175683630E+02  0.14786621725E+03  0.76207409868E+03  0.77737814930E+03  0.00000000000E+00 0.  1.
<scales pt_clust_3="53.30900" pt_clust_4="31.64478" pt_clust_5="14000.00000" pt_clust_6="152.32161"></scales>
<clustering>
<clus scale="   31.645">  2  4  1 -1</clus>
<clus scale="   53.309">  1  3  2 -1</clus>
<clus scale="  152.322">  1  6  2 -1</clus>
<clus scale="   31.645">  2  3  1 -1</clus>
</clustering>
</event>
<event>
 6    0  0.3667994E+002  0.1582145E+03  0.7546771E-02  0.1190727E+00
          1   -1    0    0  504    0 -0.00000000000E+00  0.00000000000E+00  0.18961456722E+04  0.18961456722E+04  0.00000000000E+00 0. -1.
         21   -1    0    0  503  502  0.00000000000E+00 -0.00000000000E+00 -0.21356421826E+02  0.21356421826E+02  0.00000000000E+00 0. -1.
         21    1    1    2  503  501  0.85182898834E+02  0.23367610334E+01  0.27136469898E+03  0.28442993260E+03  0.00000000000E+00 0. -1.
         21    1    1    2  504  505 -0.14010805049E+03  0.21169864057E+02  0.10543538007E+04  0.10638328656E+04  0.00000000000E+00 0. -1.
         21    1    1    2  505  502 -0.40660133910E+02 -0.11017086287E+02  0.80509189461E+02  0.90864471976E+02  0.00000000000E+00 0. -1.
          1    1    1    2  501    0  0.95585285561E+02 -0.12489538804E+02  0.46856156125E+03  0.47837482383E+03  0.00000000000E+00 0. -1.
<scales pt_clust_3="37.60848" pt_clust_4="153.07452" pt_clust_5="42.12627" pt_clust_6="37.60848"></scales>
<clustering>
<clus scale="   37.608">  3  6 -1 -1</clus>
<clus scale="   42.126">  2  5  1 -1</clus>
<clus scale="  153.075">  1  4  2 -1</clus>
<clus scale="   42.126">  2  3  1 -1</clus>
</clustering>
</event>
<event>
 6    0  0.3667994E+002  0.1000153E+03  0.7546771E-02  0.1280264E+00
         21   -1    0    0  505  502  0.00000000000E+00  0.00000000000E+00  0.39125655934E+03  0.39125655934E+03  0.00000000000E+00 0.  1.
          2   -1    0    0  503    0 -0.00000000000E+00 -0.00000000000E+00 -0.18268888172E+03  0.18268888172E+03  0.00000000000E+00 0.  1.
         21    1    1    2  503  504 -0.25388166362E+02  0.27455776097E+02  0.60661198105E+01  0.37883722651E+02  0.00000000000E+00 0.  1.
         21    1    1    2  504  502 -0.31469469003E+02 -0.28701817423E+02  0.30114971579E+03  0.30414679535E+03  0.00000000000E+00 0.  1.
         21    1    1    2  505  501  0.88583623792E+02 -0.75535080077E+02 -0.21187890732E+02  0.11832807545E+03  0.00000000000E+00 0.  1.
          2    1    1    2  501    0 -0.31725988427E+02  0.76781121404E+02 -0.77460267247E+02  0.11358684760E+03  0.00000000000E+00 0.  1.
<scales pt_clust_3="37.39490" pt_clust_4="42.59614" pt_clust_5="14000.00000" pt_clust_6="100.01530"></scales>
<clustering>
<clus scale="   37.395">  2  3  1 -1</clus>
<clus scale="   42.596">  1  4  2 -1</clus>
<clus scale="  100.015">  2  6  1 -1</clus>
<clus scale="   42.596">  1  3  2 -1</clus>
</clustering>
</event>
<event>
 6    0  0.3667994E+002  0.1358026E+03  0.7546771E-02  0.1219091E+00
         21   -1    0    0  501  502  0.00000000000E+00  0.00000000000E+00  0.75648393878E+03  0.75648393878E+03  0.00000000000E+00 0. -1.
          2   -1    0    0  503    0 -0.00000000000E+00 -0.00000000000E+00 -0.73390083583E+03  0.73390083583E+03  0.00000000000E+00 0. -1.
         21    1    1    2  503  505  0.33775899163E+02  0.33769470895E+01 -0.48223269966E+03  0.48342589066E+03  0.00000000000E+00 0. -1.
         21    1    1    2  504  502 -0.13920348511E+03  0.16426988772E+01  0.72721313255E+03  0.74041829318E+03  0.00000000000E+00 0. -1.
         21    1    1    2  505  504  0.59126780925E+02 -0.37897389212E+02 -0.53306437310E+02  0.88168954799E+02  0.00000000000E+00 0.  1.
          2    1    1    2  501    0  0.46300805027E+02  0.32877743245E+02 -0.16909089263E+03  0.17837163596E+03  0.00000000000E+00 0. -1.
<scales pt_clust_3="33.94429" pt_clust_4="14000.00000" pt_clust_5="77.95417" pt_clust_6="135.80256"></scales>
<clustering>
<clus scale="   33.944">  2  3  1 -1</clus>
<clus scale="   77.954">  2  5  1 -1</clus>
<clus scale="  135.803">  2  6  1 -1</clus>
<clus scale="  135.803">  1  3  2 -1</clus>
</clustering>
</event>
<event>
 6    0  0.3667994E+002  0.1202910E+03  0.7546771E-02  0.1242618E+00
         21   -1    0    0  505  502  0.00000000000E+00  0.00000000000E+00  0.36921387350E+02  0.36921387350E+02  0.00000000000E+00 0. -1.
          2   -1    0    0  503    0 -0.00000000000E+00 -0.00000000000E+00 -0.17771127050E+04  0.17771127050E+04  0.00000000000E+00 0. -1.
         21    1    1    2  503  502  0.77529137978E+02  0.62646431251E+02 -0.26114489519E+03  0.27952101686E+03  0.00000000000E+00 0. -1.
         21    1    1    2  504  501 -0.42269962601E+02 -0.15001760500E+02 -0.31951801056E+03  0.32265083547E+03  0.00000000000E+00 0. -1.
         21    1    1    2  505  504  0.35812854686E+02 -0.41774726036E+02 -0.51298601918E+01  0.55263041553E+02  0.00000000000E+00 0. -1.
          2    1    1    2  501    0 -0.71072030063E+02 -0.58699447153E+01 -0.11543985517E+04  0.11565991985E+04  0.00000000000E+00 0. -1.
<scales pt_clust_3="109.55057" pt_clust_4="39.40341" pt_clust_5="55.02443" pt_clust_6="39.40341"></scales>
<clustering>
<clus scale="   39.403">  4  6 -1 -1</clus>
<clus scale="   55.024">  1  5  2 -1</clus>
<clus scale="  109.551">  1  3  2 -1</clus>
<clus scale="   55.024">  1  3  2 -1</clus>
</clustering>
</event>
<event>
 6    0  0.3667994E+002  0.1590178E+03  0.7546771E-02  0.1189810E+00
         -1   -1    0    0    0  501 -0.00000000000E+00  0.00000000000E+00  0.30573113926E+03  0.30573113926E+03  0.00000000000E+00 0.  1.
         21   -1    0    0  503  502  0.00000000000E+00 -0.00000000000E+00 -0.78860369598E+03  0.78860369598E+03  0.00000000000E+00 0.  1.
         21    1    1    2  503  501  0.50936710119E+02  0.91851725471E+00 -0.49566333599E+01  0.51185548018E+02  0.00000000000E+00 0.  1.
         21    1    1    2  504  505 -0.16651346695E+02  0.11684817619E+03  0.20907881800E+02  0.11986618851E+03  0.00000000000E+00 0. -1.
         21    1    1    2  505  502  0.33094118484E+02 -0.16129885261E+03 -0.69347227569E+03  0.71275264832E+03  0.00000000000E+00 0.  1.
         -1    1    1    2    0  504 -0.67379481907E+02  0.43532159162E+02  0.19464847053E+03  0.21053045039E+03  0.00000000000E+00 0.  1.
<scales pt_clust_3="50.94499" pt_clust_4="14000.00000" pt_clust_5="159.01779" pt_clust_6="53.90301"></scales>
<clustering>
<clus scale="   50.945">  1  3  2 -1</clus>
<clus scale="   53.903">  1  6  2 -1</clus>
<clus scale="  159.018">  2  5  1 -1</clus>
<clus scale="  159.018">  2  3  1 -1</clus>
</clustering>
</event>
<event>
 6    0  0.3667994E+002  0.9011837E+02  0.7546771E-02  0.1302565E+00
          3   -1    0    0  505    0 -0.00000000000E+00  0.00000000000E+00  0.17888479485E+03  0.17888479485E+03  0.00000000000E+00 0.  1.
         21   -1    0    0  501  502  0.00000000000E+00 -0.00000000000E+00 -0.19293818790E+04  0.19293818790E+04  0.00000000000E+00 0. -1.
         21    1    1    2  503  502  0.20420292034E+02  0.32370618706E+02 -0.18218468291E+04  0.18222488068E+04  0.00000000000E+00 0. -1.
         21    1    1    2  504  503  0.38834878355E+02  0.52149736889E+02 -0.41786982603E+02  0.77290974567E+02  0.00000000000E+00 0.  1.
         21    1    1    2  505  504 -0.21708868279E+02  0.24630862480E+02  0.83252660605E+02  0.89492792147E+02  0.00000000000E+00 0.  1.
          3    1    1    2  501    0 -0.37546302110E+02 -0.10915121807E+03  0.29884066984E+02  0.11923410028E+03  0.00000000000E+00 0.  1.
<scales pt_clust_3="38.29345" pt_clust_4="90.11837" pt_clust_5="32.83222" pt_clust_6="14000.00000"></scales>
<clustering>
<clus scale="   32.832">  1  5  2 -1</clus>
<clus scale="   38.293">  2  3  1 -1</clus>
<clus scale="   90.118">  2  4  1 -1</clus>
<clus scale="   38.293">  2  3  1 -1</clus>
</clustering>
</event>
<event>
 6    0  0.3667994E+002  0.1176093E+03  0.7546771E-02  0.1247094E+00
         21   -1    0    0  503  502  0.00000000000E+00  0.00000000000E+00  0.87904376448E+03  0.87904376448E+03  0.00000000000E+00 0.  1.
         -1   -1    0    0    0  501 -0.00000000000E+00 -0.00000000000E+00 -0.21998665958E+03  0.21998665958E+03  0.00000000000E+00 0. -1.
         21    1    1    2  503  505 -0.18550962125E+02 -0.68126987059E+02  0.80452662120E+00  0.70612122363E+02  0.00000000000E+00 0. -1.
         21    1    1    2  504  502 -0.11511088423E+03  0.23914318076E+02  0.77373715417E+03  0.78261842172E+03  0.00000000000E+00 0.  1.
         21    1    1    2  505  501  0.17118681791E+02  0.68211268601E+02  0.12078482153E+02  0.71356262244E+02  0.00000000000E+00 0. -1.
         -1    1    1    2    0  504  0.11654316456E+03 -0.23998599617E+02 -0.12756305804E+03  0.17444361773E+03  0.00000000000E+00 0. -1.
<scales pt_clust_3="57.71500" pt_clust_4="14000.00000" pt_clust_5="70.32657" pt_clust_6="117.60930"></scales>
<clustering>
<clus scale="   70.327">  2  5  1 -1</clus>
<clus scale="   57.715">  2  3  1 -1</clus>
<clus scale="  117.609">  2  6  1 -1</clus>
<clus scale="  117.609">  1  3  2 -1</clus>
</clustering>
</event>
<event>
 6    0  0.3667994E+002  0.1279006E+03  0.7546771E-02  0.1230605E+00
          1   -1    0    0  503    0 -0.00000000000E+00  0.00000000000E+00  0.47860949676E+03  0.47860949676E+03  0.00000000000E+00 0. -1.
         21   -1    0    0  505  502  0.00000000000E+00 -0.00000000000E+00 -0.15463619225E+04  0.15463619225E+04  0.00000000000E+00 0.  1.
         21    1    1    2  503  504  0.13028894361E+01 -0.92268162306E+02  0.22263101842E+03  0.24099726484E+03  0.00000000000E+00 0. -1.
         21    1    1    2  504  502 -0.47115402619E+02  0.86272274258E+02 -0.13651699813E+04  0.13687044401E+04  0.00000000000E+00 0.  1.
         21    1    1    2  505  501  0.55745882772E+01  0.35947217669E+02 -0.16568028413E+03  0.16962675214E+03  0.00000000000E+00 0.  1.
          1    1    1    2  501    0  0.40237924905E+02 -0.29951329621E+02  0.24046682127E+03  0.24564296220E+03  0.00000000000E+00 0. -1.
<scales pt_clust_3="127.90056" pt_clust_4="14000.00000" pt_clust_5="36.37690" pt_clust_6="50.12961"></scales>
<clustering>
<clus scale="   36.377">  2  5  1 -1</clus>
<clus scale="   50.130">  1  6  2 -1</clus>
<clus scale="  127.901">  1  3  2 -1</clus>
<clus scale="   36.377">  2  3  1 -1</clus>
</clustering>
</event>
<event>
 6    0  0.3667994E+002  0.8528761E+02  0.7546771E-02  0.1314682E+00
          2   -1    0    0  504    0 -0.00000000000E+00  0.00000000000E+00  0.92091787171E+03  0.92091787171E+03  0.00000000000E+00 0.  1.
         21   -1    0    0  501  502  0.00000000000E+00 -0.00000000000E+00 -0.46953853595E+02  0.46953853595E+02  0.00000000000E+00 0.  1.
         21    1    1    2  503  502  0.97682374286E+02  0.23316966078E+02  0.51890527186E+02  0.11304049701E+03  0.00000000000E+00 0.  1.
         21    1    1    2  504  505 -0.70055094151E+02 -0.17427705681E+01  0.17884026404E+03  0.19207965407E+03  0.00000000000E+00 0.  1.
         21    1    1    2  505  503 -0.35573176181E+02  0.64263436261E+02  0.29473297177E+03  0.30374786378E+03  0.00000000000E+00 0.  1.
          2    1    1    2  501    0  0.79458960456E+01 -0.85837631772E+02  0.34850025511E+03  0.35900371044E+03  0.00000000000E+00 0.  1.
<scales pt_clust_3="85.28761" pt_clust_4="70.07677" pt_clust_5="90.24970" pt_clust_6="14000.00000"></scales>
<clustering>
<clus scale="   70.077">  1  4  2 -1</clus>
<clus scale="   90.250">  1  5  2 -1</clus>
<clus scale="   85.288">  2  3  1 -1</clus>
<clus scale="   85.288">  2  3  1 -1</clus>
</clustering>
</event>
<event>
 6    0  0.3667994E+002  0.8773613E+02  0.7546771E-02  0.1308428E+00
         -2   -1    0    0    0  501 -0.00000000000E+00  0.00000000000E+00  0.15610331872E+04  0.15610331872E+04  0.00000000000E+00 0. -1.
         21   -1    0    0  503  502  0.00000000000E+00 -0.00000000000E+00 -0.24090371995E+03  0.24090371995E+03  0.00000000000E+00 0. -1.
         21    1    1    2  503  505  0.75954634381E+02 -0.98318567318E+01 -0.20897531265E+03  0.22256786199E+03  0.00000000000E+00 0. -1.
         21    1    1    2  504  502 -0.94149212718E+02 -0.72384128681E+02  0.24599864352E+03  0.27316454556E+03  0.00000000000E+00 0.  1.
         21    1    1    2  505  501  0.51944291329E+02  0.60966042591E+01  0.57324994996E+02  0.77598537592E+02  0.00000000000E+00 0. -1.
         -2    1    1    2    0  504 -0.33749712992E+02  0.76119381154E+02  0.12257811414E+04  0.12286059621E+04  0.00000000000E+00 0. -1.
<scales pt_clust_3="76.81920" pt_clust_4="14000.00000" pt_clust_5="52.30084" pt_clust_6="87.73613"></scales>
<clustering>
<clus scale="   52.301">  1  5  2 -1</clus>
<clus scale="   76.819">  2  3  1 -1</clus>
<clus scale="   87.736">  1  6  2 -1</clus>
<clus scale="   76.819">  2  3  1 -1</clus>
</clustering>
</event>
<event>
 6    0  0.3667994E+002  0.8459354E+02  0.7546771E-02  0.1316499E+00
         21   -1    0    0  504  502  0.00000000000E+00  0.00000000000E+00  0.56453173903E+02  0.56453173903E+02  0.00000000000E+00 0. -1.
          3   -1    0    0  503    0 -0.00000000000E+00 -0.00000000000E+00 -0.22059301275E+04  0.22059301275E+04  0.00000000000E+00 0.  1.
         21    1    1    2  503  502  0.50878106083E+02  0.99402653435E+01 -0.23458029204E+03  0.24024009650E+03  0.00000000000E+00 0.  1.
         21    1    1    2  504  505 -0.38261705891E+02  0.17815202202E+02  0.40864427572E+02  0.58747263835E+02  0.00000000000E+00 0. -1.
         21    1    1    2  505  501  0.48121957788E+01  0.68320029183E+02 -0.55002830204E+03  0.55427602930E+03  0.00000000000E+00 0.  1.
          3    1    1    2  501    0 -0.17428595970E+02 -0.96075496729E+02 -0.14057327871E+04  0.14091199118E+04  0.00000000000E+00 0.  1.
<scales pt_clust_3="38.77540" pt_clust_4="42.20592" pt_clust_5="14000.00000" pt_clust_6="84.59354"></scales>
<clustering>
<clus scale="   42.206">  1  4  2 -1</clus>
<clus scale="   38.775">  1  3  2 -1</clus>
<clus scale="   84.594">  2  6  1 -1</clus>
<clus scale="   42.206">  1  3  2 -1</clus>
</clustering>
</event>
<event>
 6    0  0.3667994E+002  0.2058610E+03  0.7546771E-02  0.1144886E+00
          2   -1    0    0  505    0 -0.00000000000E+00  0.00000000000E+00  0.30131587979E+04  0.30131587979E+04  0.00000000000E+00 0.  1.
         21   -1    0    0  504  502  0.00000000000E+00 -0.00000000000E+00 -0.26388207373E+02  0.26388207373E+02  0.00000000000E+00 0.  1.
         21    1    1    2  503  501  0.88225927575E+02 -0.45964690202E+02  0.34602514338E+03  0.36004161828E+03  0.00000000000E+00 0.  1.
         21    1    1    2  504  503  0.74484845401E+02 -0.62835948583E+02  0.18132248628E+03  0.20584992752E+03  0.00000000000E+00 0.  1.
         21    1    1    2  505  502  0.18690671834E+02  0.25137307126E+02  0.10150947273E+04  0.10155779295E+04  0.00000000000E+00 0.  1.
          2    1    1    2  501    0 -0.18140144481E+03  0.83663331658E+02  0.14443282335E+04  0.14580775300E+04  0.00000000000E+00 0.  1.
<scales pt_clust_3="60.85779" pt_clust_4="60.85779" pt_clust_5="31.32452" pt_clust_6="196.35019"></scales>
<clustering>
<clus scale="   31.325">  1  5  2 -1</clus>
<clus scale="   60.858">  3  4 -1 -1</clus>
<clus scale="  196.350">  1  6  2 -1</clus>
<clus scale="  205.861">  2  3  1 -1</clus>
</clustering>
</event>
<event>
 6    0  0.3667994E+002  0.7615922E+02  0.7546771E-02  0.1340318E+00
         21   -1    0    0  501  502  0.00000000000E+00  0.00000000000E+00  0.48656466642E+02  0.48656466642E+02  0.00000000000E+00 0.  1.
          2   -1    0    0  505    0 -0.00000000000E+00 -0.00000000000E+00 -0.15904642038E+04  0.15904642038E+04  0.00000000000E+00 0.  1.
         21    1    1    2  503  502  0.32371867508E+02  0.48487810333E+02  0.20666013358E+02  0.61855393176E+02  0.00000000000E+00 0.  1.
         21    1    1    2  504  503  0.64673786997E+02 -0.60290890989E+02 -0.45380713462E+03  0.46234035698E+03  0.00000000000E+00 0.  1.
         21    1    1    2  505  504 -0.49633833671E+02 -0.23137825675E+02 -0.38643818524E+03  0.39029904873E+03  0.00000000000E+00 0.  1.
          2    1    1    2  501    0 -0.47411820834E+02  0.34940906330E+02 -0.72222843065E+03  0.72462587156E+03  0.00000000000E+00 0.  1.
<scales pt_clust_3="57.50122" pt_clust_4="76.15922" pt_clust_5="54.76200" pt_clust_6="14000.00000"></scales>
<clustering>
<clus scale="   54.762">  2  5  1 -1</clus>
<clus scale="   57.501">  1  3  2 -1</clus>
<clus scale="   76.159">  1  4  2 -1</clus>
<clus scale="   57.501">  1  3  2 -1</clus>
</clustering>
</event>
<event>
 6    0  0.3667994E+002  0.1537840E+03  0.7546771E-02  0.1195899E+00
         21   -1    0    0  504  502  0.00000000000E+00  0.00000000000E+00  0.17679235701E+02  0.17679235701E+02  0.00000000000E+00 0.  1.
          2   -1    0    0  503    0 -0.00000000000E+00 -0.00000000000E+00 -0.26920300526E+04  0.26920300526E+04  0.00000000000E+00 0. -1.
         21    1    1    2  503  505 -0.41040823335E+02 -0.27552030095E+02 -0.16899218799E+03  0.17607334592E+03  0.00000000000E+00 0.  1.
         21    1    1    2  504  501  0.58544485431E+02  0.56260780582E+02 -0.11333961504E+04  0.11363008255E+04  0.00000000000E+00 0.  1.
         21    1    1    2  505  502 -0.43511409087E+02 -0.90435329528E+02 -0.20297503587E+03  0.22643024695E+03  0.00000000000E+00 0.  1.
          2    1    1    2  501    0  0.26007746991E+02  0.61726579041E+02 -0.11689874426E+04  0.11709048699E+04  0.00000000000E+00 0. -1.
<scales pt_clust_3="35.64402" pt_clust_4="30.90522" pt_clust_5="35.64402" pt_clust_6="149.09028"></scales>
<clustering>
<clus scale="   30.905">  4  6 -1 -1</clus>
<clus scale="   35.644">  3  5 -1 -1</clus>
<clus scale="  149.090">  2  4  1 -1</clus>
<clus scale="  153.784">  1  3  2 -1</clus>
</clustering>
</event>
<event>
 6    0  0.3667994E+002  0.1738692E+03  0.7546771E-02  0.1173872E+00
          1   -1    0    0  503    0 -0.00000000000E+00  0.00000000000E+00  0.30578763401E+03  0.30578763401E+03  0.00000000000E+00 0. -1.
         21   -1    0    0  504  502  0.00000000000E+00 -0.00000000000E+00 -0.13197934612E+04  0.13197934612E+04  0.00000000000E+00 0.  1.
         21    1    1    2  503  505 -0.14659540059E+02 -0.35835161845E+02  0.50847373979E+01  0.39050166371E+02  0.00000000000E+00 0. -1.
         21    1    1    2  504  501  0.75942762629E+02  0.15880618866E+03 -0.12706772648E+04  0.12828123090E+04  0.00000000000E+00 0.  1.
         21    1    1    2  505  502 -0.55899785693E+02 -0.10689217315E+02  0.70874036703E+02  0.90896504256E+02  0.00000000000E+00 0. -1.
          1    1    1    2  501    0 -0.53834368761E+01 -0.11228180950E+03  0.18071266352E+03  0.21282211561E+03  0.00000000000E+00 0. -1.
<scales pt_clust_3="38.71771" pt_clust_4="173.86919" pt_clust_5="63.61232" pt_clust_6="14000.00000"></scales>
<clustering>
<clus scale="   38.718">  1  3  2 -1</clus>
<clus scale="   63.612">  1  5  2 -1</clus>
<clus scale="  173.869">  2  4  1 -1</clus>
<clus scale="  173.869">  2  3  1 -1</clus>
</clustering>
</event>
<event>
 6    0  0.3667994E+002  0.9827182E+02  0.7546771E-02  0.1283973E+00
         -4   -1    0    0    0  501 -0.00000000000E+00  0.00000000000E+00  0.70981277071E+03  0.70981277071E+03  0.00000000000E+00 0.  1.
         21   -1    0    0  503  502  0.00000000000E+00 -0.00000000000E+00 -0.41143115490E+02  0.41143115490E+02  0.00000000000E+00 0.  1.
         21    1    1    2  503  501  0.15160211829E+02  0.56130312687E+02  0.14220307536E+03  0.15362994065E+03  0.00000000000E+00 0.  1.
         21    1    1    2  504  502  0.41429741014E+02  0.15223835618E+02  0.43440458854E+01  0.44351542770E+02  0.00000000000E+00 0. -1.
         21    1    1    2  505  504  0.41012795180E+02  0.42441175946E+01  0.49146938167E+02  0.64152033746E+02  0.00000000000E+00 0.  1.
         -4    1    1    2    0  505 -0.97602748022E+02 -0.75598265900E+02  0.47297559581E+03  0.48882236903E+03  0.00000000000E+00 0.  1.
<scales pt_clust_3="58.14159" pt_clust_4="40.26978" pt_clust_5="40.26978" pt_clust_6="89.00216"></scales>
<clustering>
<clus scale="   40.270">  4  5 -1 -1</clus>
<clus scale="   58.142">  1  3  2 -1</clus>
<clus scale="   89.002">  1  6  2 -1</clus>
<clus scale="   98.272">  2  3  1 -1</clus>
</clustering>
</event>
<event>
 6    0  0.3667994E+002  0.1011487E+03  0.7546771E-02  0.1277899E+00
          2   -1    0    0  505    0 -0.00000000000E+00  0.00000000000E+00  0.24728171936E+04  0.24728171936E+04  0.00000000000E+00 0.  1.
         21   -1    0    0  503  502  0.00000000000E+00 -0.00000000000E+00 -0.34718307627E+02  0.34718307627E+02  0.00000000000E+00 0.  1.
         21    1    1    2  503  501 -0.65761315141E+02 -0.20978209757E+02  0.11838053715E+02  0.70034101475E+02  0.00000000000E+00 0.  1.
         21    1    1    2  504  502 -0.19819405339E+02 -0.39097972788E+02  0.17668391546E+03  0.18204028753E+03  0.00000000000E+00 0.  1.
         21    1    1    2  505  504  0.28535756754E+02 -0.38801183695E+02  0.75080367516E+03  0.75234698105E+03  0.00000000000E+00 0.  1.
          2    1    1    2  501    0  0.57044963726E+02  0.98877366241E+02  0.14987732417E+04  0.15031141312E+04  0.00000000000E+00 0.  1.
<scales pt_clust_3="101.14869" pt_clust_4="43.83446" pt_clust_5="48.64943" pt_clust_6="14000.00000"></scales>
<clustering>
<clus scale="   43.834">  2  4  1 -1</clus>
<clus scale="   48.649">  1  5  2 -1</clus>
<clus scale="  101.149">  2  3  1 -1</clus>
<clus scale="   43.834">  2  3  1 -1</clus>
</clustering>
</event>
<event>
 6    0  0.3667994E+002  0.7954492E+02  0.7546771E-02  0.1330348E+00
          2   -1    0    0  505    0 -0.00000000000E+00  0.00000000000E+00  0.41784726728E+03  0.41784726728E+03  0.00000000000E+00 0.  1.
         21   -1    0    0  503  502  0.00000000000E+00 -0.00000000000E+00 -0.72144007242E+02  0.72144007242E+02  0.00000000000E+00 0.  1.
         21    1    1    2  503  501  0.45448208648E+02  0.55892161107E+02  0.51752137095E+02  0.88700377882E+02  0.00000000000E+00 0.  1.
         21    1    1    2  504  502  0.40727921420E+02 -0.19714761784E+02 -0.52370310449E+01  0.45550652131E+02  0.00000000000E+00 0.  1.
         21    1    1    2  505  504  0.31186661124E+02 -0.64127151698E+02  0.12370402397E+03  0.14278510064E+03  0.00000000000E+00 0.  1.
          2    1    1    2  501    0 -0.11736279119E+03  0.27949752374E+02  0.17548413001E+03  0.21295514387E+03  0.00000000000E+00 0.  1.
<scales pt_clust_3="78.11045" pt_clust_4="45.24860" pt_clust_5="79.54492" pt_clust_6="14000.00000"></scales>
<clustering>
<clus scale="   45.249">  2  4  1 -1</clus>
<clus scale="   78.110">  2  3  1 -1</clus>
<clus scale="   79.545">  1  5  2 -1</clus>
<clus scale="   45.249">  2  3  1 -1</clus>
</clustering>
</event>
<event>
 6    0  0.3667994E+002  0.8201104E+02  0.7546771E-02  0.1323439E+00
         21   -1    0    0  501  502  0.00000000000E+00  0.00000000000E+00  0.41047907220E+02  0.41047907220E+02  0.00000000000E+00 0.  1.
          2   -1    0    0  504    0 -0.00000000000E+00 -0.00000000000E+00 -0.16302084583E+04  0.16302084583E+04  0.00000000000E+00 0.  1.
         21    1    1    2  503  505 -0.39717576422E+02 -0.72433120252E+02 -0.45633834947E+03  0.46375503446E+03  0.00000000000E+00 0.  1.
         21    1    1    2  504  503  0.57277580622E+02  0.59745240050E+02 -0.65844364940E+03  0.66362508571E+03  0.00000000000E+00 0. -1.
         21    1    1    2  505  502  0.12058321893E+00 -0.74553048088E+02 -0.15120251926E+02  0.76070976975E+02  0.00000000000E+00 0.  1.
          2    1    1    2  501    0 -0.17680587419E+02  0.87240928290E+02 -0.45925830024E+03  0.46780526833E+03  0.00000000000E+00 0.  1.
<scales pt_clust_3="82.01104" pt_clust_4="14000.00000" pt_clust_5="74.55315" pt_clust_6="59.76617"></scales>
<clustering>
<clus scale="   74.553">  1  5  2 -1</clus>
<clus scale="   59.766">  1  6  2 -1</clus>
<clus scale="   82.011">  1  3  2 -1</clus>
<clus scale="   74.553">  1  3  2 -1</clus>
</clustering>
</event>
<event>
 6    0  0.3667994E+002  0.1660411E+03  0.7546771E-02  0.1182040E+00
          2   -1    0    0  503    0 -0.00000000000E+00  0.00000000000E+00  0.23775359453E+04  0.23775359453E+04  0.00000000000E+00 0. -1.
         21   -1    0    0  501  502  0.00000000000E+00 -0.00000000000E+00 -0.57252851804E+03  0.57252851804E+03  0.00000000000E+00 0. -1.
         21    1    1    2  503  504  0.68538904503E+02  0.15691010568E+02  0.26371090897E+03  0.27292349249E+03  0.00000000000E+00 0. -1.
         21    1    1    2  504  505  0.92176681137E+02  0.27764777359E+02  0.12749454367E+04  0.12785747104E+04  0.00000000000E+00 0. -1.
         21    1    1    2  505  502  0.78050198775E+02  0.42041229330E+02 -0.54311399040E+03  0.55030183087E+03  0.00000000000E+00 0. -1.
          2    1    1    2  501    0 -0.23876578441E+03 -0.85497017258E+02  0.80946507193E+03  0.84826442955E+03  0.00000000000E+00 0. -1.
<scales pt_clust_3="70.31208" pt_clust_4="166.04111" pt_clust_5="88.76819" pt_clust_6="14000.00000"></scales>
<clustering>
<clus scale="   70.312">  1  3  2 -1</clus>
<clus scale="   88.768">  2  5  1 -1</clus>
<clus scale="  166.041">  1  4  2 -1</clus>
<clus scale="   88.768">  2  3  1 -1</clus>
</clustering>
</event>
<event>
 6    0  0.4427539E+002  0.1014857E+03  0.7546771E-02  0.1277202E+00
         21   -1    0    0  501  502  0.00000000000E+00  0.00000000000E+00  0.16217534714E+03  0.16217534714E+03  0.00000000000E+00 0. -1.
          2   -1    0    0  505    0 -0.00000000000E+00 -0.00000000000E+00 -0.82883869313E+03  0.82883869313E+03  0.00000000000E+00 0.  1.
         21    1    1    2  503  504 -0.10652567610E+01  0.42155540172E+02 -0.46479915552E+02  0.62758321272E+02  0.00000000000E+00 0.  1.
         21    1    1    2  504  502 -0.64476575354E+02  0.78635536063E+02  0.12730720209E+03  0.16293526324E+03  0.00000000000E+00 0. -1.
         21    1    1    2  505  503  0.25735409173E+02 -0.32332767023E+02 -0.72956867721E+02  0.83847621650E+02  0.00000000000E+00 0.  1.
          2    1    1    2  501    0  0.39806422942E+02 -0.88458309212E+02 -0.67453376480E+03  0.68147283412E+03  0.00000000000E+00 0.  1.
<scales pt_clust_3="39.81046" pt_clust_4="14000.00000" pt_clust_5="41.32456" pt_clust_6="101.48568"></scales>
<clustering>
<clus scale="   41.325">  2  5  1 -1</clus>
<clus scale="   39.810">  2  3  1 -1</clus>
<clus scale="  101.486">  2  6  1 -1</clus>
<clus scale="  101.486">  1  3  2 -1</clus>
</clustering>
</event>
<event>
 6    0  0.3667994E+002  0.1261896E+03  0.7546771E-02  0.1233222E+00
         21   -1    0    0  504  502  0.00000000000E+00  0.00000000000E+00  0.13051083008E+03  0.13051083008E+03  0.00000000000E+00 0.  1.
         -3   -1    0    0    0  501 -0.00000000000E+00 -0.00000000000E+00 -0.67087848902E+03  0.67087848902E+03  0.00000000000E+00 0.  1.
         21    1    1    2  503  505  0.14801021145E+02  0.12080195112E+03 -0.80720012925E+02  0.14604075496E+03  0.00000000000E+00 0. -1.
         21    1    1    2  504  503 -0.31124010978E+02  0.25114054300E+01  0.75941915277E+02  0.82110813615E+02  0.00000000000E+00 0.  1.
         21    1    1    2  505  501 -0.41614408831E+02  0.86652869509E+01 -0.24727498219E+03  0.25090189923E+03  0.00000000000E+00 0.  1.
         -3    1    1    2    0  502  0.57937398665E+02 -0.13197864350E+03 -0.28831457910E+03  0.32233585129E+03  0.00000000000E+00 0.  1.
<scales pt_clust_3="14000.00000" pt_clust_4="31.22517" pt_clust_5="43.59853" pt_clust_6="126.18963"></scales>
<clustering>
<clus scale="   31.225">  1  4  2 -1</clus>
<clus scale="   43.599">  2  5  1 -1</clus>
<clus scale="  126.190">  2  6  1 -1</clus>
<clus scale="   31.225">  1  3  2 -1</clus>
</clustering>
</event>
<event>
 6    0  0.3667994E+002  0.2361485E+03  0.7546771E-02  0.1122385E+00
         -4   -1    0    0    0  501 -0.00000000000E+00  0.00000000000E+00  0.10789193647E+04  0.10789193647E+04  0.00000000000E+00 0.  1.
         21   -1    0    0  503  502  0.00000000000E+00 -0.00000000000E+00 -0.96339617137E+03  0.96339617137E+03  0.00000000000E+00 0. -1.
         21    1    1    2  503  505  0.50025645959E+02 -0.23635418593E+01 -0.88207158699E+03  0.88349218229E+03  0.00000000000E+00 0. -1.
         21    1    1    2  504  502  0.20811963667E+03 -0.22997748734E+02  0.35578184607E+03  0.41282369313E+03  0.00000000000E+00 0.  1.
         21    1    1    2  505  501  0.46516355803E+01  0.71095232166E+02  0.27675447397E+02  0.76433632250E+02  0.00000000000E+00 0.  1.
         -4    1    1    2    0  504 -0.26279691821E+03 -0.45733941573E+02  0.61413748690E+03  0.66956602844E+03  0.00000000000E+00 0.  1.
<scales pt_clust_3="50.08145" pt_clust_4="14000.00000" pt_clust_5="73.10722" pt_clust_6="236.14849"></scales>
<clustering>
<clus scale="   50.081">  2  3  1 -1</clus>
<clus scale="   73.107">  2  5  1 -1</clus>
<clus scale="  236.148">  1  6  2 -1</clus>
<clus scale="   50.081">  2  3  1 -1</clus>
</clustering>
</event>
<event>
 6    0  0.3667994E+002  0.8369648E+02  0.7546771E-02  0.1318877E+00
          1   -1    0    0  505    0 -0.00000000000E+00  0.00000000000E+00  0.34091119813E+04  0.34091119813E+04  0.00000000000E+00 0. -1.
         21   -1    0    0  503  502  0.00000000000E+00 -0.00000000000E+00 -0.90897396495E+02  0.90897396495E+02  0.00000000000E+00 0.  1.
         21    1    1    2  503  501 -0.22947257846E+02  0.10252435081E+03  0.59706663931E+03  0.60623954913E+03  0.00000000000E+00 0.  1.
         21    1    1    2  504  502 -0.22083876458E+02 -0.34816921527E+02 -0.80259557678E+02  0.90230328730E+02  0.00000000000E+00 0.  1.
         21    1    1    2  505  504  0.29380164536E+02  0.91957968833E+01  0.82780140857E+03  0.82837366495E+03  0.00000000000E+00 0.  1.
          1    1    1    2  501    0  0.15650969769E+02 -0.76903226165E+02  0.19736060946E+04  0.19751658350E+04  0.00000000000E+00 0. -1.
<scales pt_clust_3="14000.00000" pt_clust_4="41.18466" pt_clust_5="30.78566" pt_clust_6="83.69648"></scales>
<clustering>
<clus scale="   30.786">  1  5  2 -1</clus>
<clus scale="   41.185">  2  4  1 -1</clus>
<clus scale="   83.696">  1  6  2 -1</clus>
<clus scale="   41.185">  2  3  1 -1</clus>
</clustering>
</event>
<event>
 6    0  0.3667994E+002  0.7435487E+02  0.7546771E-02  0.1345881E+00
         21   -1    0    0  504  502  0.00000000000E+00  0.00000000000E+00  0.43337092221E+02  0.43337092221E+02  0.00000000000E+00 0.  1.
          2   -1    0    0  503    0 -0.00000000000E+00 -0.00000000000E+00 -0.84138631712E+03  0.84138631712E+03  0.00000000000E+00 0.  1.
         21    1    1    2  503  505  0.75392475545E+02  0.14789684246E+02 -0.26669638116E+03  0.27754228481E+03  0.00000000000E+00 0.  1.
         21    1    1    2  504  501 -0.29250003492E+02 -0.20114633691E+02 -0.65683365672E+02  0.74662344718E+02  0.00000000000E+00 0. -1.
         21    1    1    2  505  502 -0.15835952072E+01  0.75729227871E+02 -0.18929457574E+02  0.78075271961E+02  0.00000000000E+00 0.  1.
          2    1    1    2  501    0 -0.44558876845E+02 -0.70404278426E+02 -0.44674002049E+03  0.45444350786E+03  0.00000000000E+00 0.  1.
<scales pt_clust_3="14000.00000" pt_clust_4="35.49875" pt_clust_5="64.95410" pt_clust_6="74.35487"></scales>
<clustering>
<clus scale="   35.499">  1  4  2 -1</clus>
<clus scale="   64.954">  1  5  2 -1</clus>
<clus scale="   74.355">  2  6  1 -1</clus>
<clus scale="   35.499">  1  3  2 -1</clus>
</clustering>
</event>
<event>
 6    0  0.3667994E+002  0.6601855E+02  0.7546771E-02  0.1374181E+00
         21   -1    0    0  504  502  0.00000000000E+00  0.00000000000E+00  0.27964632185E+04  0.27964632185E+04  0.00000000000E+00 0. -1.
         -2   -1    0    0    0  501 -0.00000000000E+00 -0.00000000000E+00 -0.42980695408E+02  0.42980695408E+02  0.00000000000E+00 0. -1.
         21    1    1    2  503  501 -0.12050937315E+02 -0.28339712475E+02  0.76869126291E+02  0.82808375000E+02  0.00000000000E+00 0. -1.
         21    1    1    2  504  505 -0.57770730233E+02 -0.29920178981E+02  0.23863949958E+04  0.23872816655E+04  0.00000000000E+00 0. -1.
         21    1    1    2  505  503 -0.56103916800E+02 -0.80614230090E+01  0.18182531925E+03  0.19045493625E+03  0.00000000000E+00 0. -1.
         -2    1    1    2    0  502  0.12592558435E+03  0.66321314465E+02  0.10839308172E+03  0.17889893714E+03  0.00000000000E+00 0. -1.
<scales pt_clust_3="30.79553" pt_clust_4="66.01855" pt_clust_5="58.47018" pt_clust_6="14000.00000"></scales>
<clustering>
<clus scale="   30.796">  2  3  1 -1</clus>
<clus scale="   58.470">  2  5  1 -1</clus>
<clus scale="   66.019">  1  4  2 -1</clus>
<clus scale="   66.019">  1  3  2 -1</clus>
</clustering>
</event>
<event>
 6    0  0.3667994E+002  0.9958394E+02  0.7546771E-02  0.1281173E+00
          1   -1    0    0  505    0 -0.00000000000E+00  0.00000000000E+00  0.18740953614E+04  0.18740953614E+04  0.00000000000E+00 0. -1.
         21   -1    0    0  503  502  0.00000000000E+00 -0.00000000000E+00 -0.67491603673E+02  0.67491603673E+02  0.00000000000E+00 0.  1.
         21    1    1    2  503  501 -0.76317870687E+02 -0.33627550058E+02 -0.33158759501E+02  0.89748163440E+02  0.00000000000E+00 0.  1.
         21    1    1    2  504  502  0.22655270114E+02 -0.36687649585E+02  0.23836153624E+03  0.24223019394E+03  0.00000000000E+00 0. -1.
         21    1    1    2  505  504  0.56610517478E+01 -0.40746969590E+02  0.44312950376E+03  0.44503496507E+03  0.00000000000E+00 0. -1.
          1    1    1    2  501    0  0.48001548826E+02  0.11106216923E+03  0.11582714772E+04  0.11645736426E+04  0.00000000000E+00 0. -1.
<scales pt_clust_3="83.39802" pt_clust_4="32.47538" pt_clust_5="32.47538" pt_clust_6="93.86977"></scales>
<clustering>
<clus scale="   32.475">  4  5 -1 -1</clus>
<clus scale="   83.398">  2  3  1 -1</clus>
<clus scale="   93.870">  2  6  1 -1</clus>
<clus scale="   83.398">  2  3  1 -1</clus>
</clustering>
</event>
<event>
 6    0  0.3667994E+002  0.1077330E+03  0.7546771E-02  0.1264826E+00
         -2   -1    0    0    0  501 -0.00000000000E+00  0.00000000000E+00  0.86213633087E+03  0.86213633087E+03  0.00000000000E+00 0.  1.
         21   -1    0    0  505  502  0.00000000000E+00 -0.00000000000E+00 -0.62108900191E+02  0.62108900191E+02  0.00000000000E+00 0.  1.
         21    1    1    2  503  502  0.84081221107E+02 -0.43947272423E+02  0.29611677051E+03  0.31094397610E+03  0.00000000000E+00 0.  1.
         21    1    1    2  504  503 -0.33615312697E+02  0.29423117699E+02  0.31227280128E+03  0.31545207484E+03  0.00000000000E+00 0.  1.
         21    1    1    2  505  501 -0.23698759001E+02 -0.44456082155E+02 -0.35517715841E+02  0.61639942872E+02  0.00000000000E+00 0.  1.
         -2    1    1    2    0  504 -0.26767149410E+02  0.58980236879E+02  0.22715557473E+03  0.23620923725E+03  0.00000000000E+00 0.  1.
<scales pt_clust_3="98.59195" pt_clust_4="36.06720" pt_clust_5="50.37831" pt_clust_6="36.06720"></scales>
<clustering>
<clus scale="   36.067">  4  6 -1 -1</clus>
<clus scale="   50.378">  2  5  1 -1</clus>
<clus scale="   98.592">  2  3  1 -1</clus>
<clus scale="   50.378">  2  3  1 -1</clus>
</clustering>
</event>
<event>
 6    0  0.3667994E+002  0.8277644E+02  0.7546771E-02  0.1321352E+00
          2   -1    0    0  504    0 -0.00000000000E+00  0.00000000000E+00  0.13609843869E+04  0.13609843869E+04  0.00000000000E+00 0. -1.
         21   -1    0    0  503  502  0.00000000000E+00 -0.00000000000E+00 -0.56257862631E+02  0.56257862631E+02  0.00000000000E+00 0.  1.
         21    1    1    2  503  505  0.43465845398E+02  0.24889739271E+02 -0.24588546243E+02  0.55797629372E+02  0.00000000000E+00 0.  1.
         21    1    1    2  504  502  0.45446268095E+01  0.73001914275E+02  0.10077675533E+03  0.12452263865E+03  0.00000000000E+00 0.  1.
         21    1    1    2  505  501  0.38858928867E+01 -0.69725077120E+02  0.38227382959E+03  0.38860000943E+03  0.00000000000E+00 0.  1.
          2    1    1    2  501    0 -0.51896365094E+02 -0.28166576426E+02  0.84626448562E+03  0.84832197210E+03  0.00000000000E+00 0. -1.
<scales pt_clust_3="50.08771" pt_clust_4="82.77644" pt_clust_5="14000.00000" pt_clust_6="55.84075"></scales>
<clustering>
<clus scale="   50.088">  2  3  1 -1</clus>
<clus scale="   55.841">  1  6  2 -1</clus>
<clus scale="   82.776">  2  4  1 -1</clus>
<clus scale="   50.088">  2  3  1 -1</clus>
</clustering>
</event>
<event>
 6    0  0.3667994E+002  0.1405974E+03  0.7546771E-02  0.1212527E+00
         -2   -1    0    0    0  501 -0.00000000000E+00  0.00000000000E+00  0.47474145440E+03  0.47474145440E+03  0.00000000000E+00 0. -1.
         21   -1    0    0  503  502  0.00000000000E+00 -0.00000000000E+00 -0.88089519928E+02  0.88089519928E+02  0.00000000000E+00 0.  1.
         21    1    1    2  503  505 -0.38154359891E+02 -0.10659817011E+02 -0.16433253564E+02  0.42888677994E+02  0.00000000000E+00 0.  1.
         21    1    1    2  504  502  0.70711724345E+02  0.47376384132E+02  0.58176541378E+02  0.10309791317E+03  0.00000000000E+00 0. -1.
         21    1    1    2  505  501 -0.11583405169E+03 -0.53440501469E+02  0.28691198620E+03  0.31399347534E+03  0.00000000000E+00 0.  1.
         -2    1    1    2    0  504  0.83276687236E+02  0.16723934348E+02  0.57996660458E+02  0.10285090783E+03  0.00000000000E+00 0. -1.
<scales pt_clust_3="39.61549" pt_clust_4="33.09305" pt_clust_5="136.63895" pt_clust_6="33.09305"></scales>
<clustering>
<clus scale="   33.093">  4  6 -1 -1</clus>
<clus scale="   39.615">  2  3  1 -1</clus>
<clus scale="  136.639">  1  5  2 -1</clus>
<clus scale="   39.615">  2  3  1 -1</clus>
</clustering>
</event>
<event>
 6    0  0.3667994E+002  0.1033526E+03  0.7546771E-02  0.1273400E+00
         -3   -1    0    0    0  501 -0.00000000000E+00  0.00000000000E+00  0.16168681615E+04  0.16168681615E+04  0.00000000000E+00 0. -1.
         21   -1    0    0  504  502  0.00000000000E+00 -0.00000000000E+00 -0.42123794144E+02  0.42123794144E+02  0.00000000000E+00 0. -1.
         21    1    1    2  503  505  0.10672974387E+03  0.37992561126E+02  0.37790669547E+03  0.39452267794E+03  0.00000000000E+00 0. -1.
         21    1    1    2  504  501 -0.19727585666E+02 -0.48317892587E+02  0.30160876133E+03  0.30609090364E+03  0.00000000000E+00 0. -1.
         21    1    1    2  505  502  0.38603736706E+01 -0.51196263650E+02 -0.49099282165E+01  0.51575840194E+02  0.00000000000E+00 0. -1.
         -3    1    1    2    0  503 -0.90862531877E+02  0.61521595111E+02  0.90013883878E+03  0.90680253387E+03  0.00000000000E+00 0. -1.
<scales pt_clust_3="103.35258" pt_clust_4="59.72161" pt_clust_5="51.34160" pt_clust_6="14000.00000"></scales>
<clustering>
<clus scale="   51.342">  2  5  1 -1</clus>
<clus scale="   59.722">  1  4  2 -1</clus>
<clus scale="  103.353">  2  3  1 -1</clus>
<clus scale="   51.342">  2  3  1 -1</clus>
</clustering>
</event>
<event>
 6    0  0.3667994E+002  0.1166130E+03  0.7546771E-02  0.1248792E+00
         -1   -1    0    0    0  501 -0.00000000000E+00  0.00000000000E+00  0.62264541837E+03  0.62264541837E+03  0.00000000000E+00 0.  1.
         21   -1    0    0  503  502  0.00000000000E+00 -0.00000000000E+00 -0.59294119597E+02  0.59294119597E+02  0.00000000000E+00 0.  1.
         21    1    1    2  503  501  0.82045038126E+02 -0.61268740402E+02  0.44607785831E+03  0.45767969422E+03  0.00000000000E+00 0.  1.
         21    1    1    2  504  502  0.31551456705E+02 -0.12201962202E+02 -0.75225568813E+01  0.34655030859E+02  0.00000000000E+00 0.  1.
         21    1    1    2  505  504 -0.53997064633E+02  0.52577888129E+02  0.44774354241E+02  0.87663333879E+02  0.00000000000E+00 0.  1.
         -1    1    1    2    0  505 -0.59599430198E+02  0.20892814476E+02  0.80021643105E+02  0.10194147901E+03  0.00000000000E+00 0.  1.
<scales pt_clust_3="107.35338" pt_clust_4="33.82872" pt_clust_5="43.57793" pt_clust_6="43.57793"></scales>
<clustering>
<clus scale="   33.829">  2  4  1 -1</clus>
<clus scale="   43.578">  5  6 -1 -1</clus>
<clus scale="  107.353">  1  3  2 -1</clus>
<clus scale="   33.829">  2  3  1 -1</clus>
</clustering>
</event>
<event>
 6    0  0.3667994E+002  0.1561991E+03  0.7546771E-02  0.1193056E+00
         21   -1    0    0  505  502  0.00000000000E+00  0.00000000000E+00  0.67128528099E+03  0.67128528099E+03  0.00000000000E+00 0. -1.
         -1   -1    0    0    0  501 -0.00000000000E+00 -0.00000000000E+00 -0.29409020611E+03  0.29409020611E+03  0.00000000000E+00 0. -1.
         21    1    1    2  503  502 -0.97707184138E+02  0.12402739695E+03  0.60694544240E+03  0.62714612259E+03  0.00000000000E+00 0. -1.
         21    1    1    2  504  501  0.29817208977E+02  0.22373352472E+02 -0.38167567197E+01  0.37472663154E+02  0.00000000000E+00 0. -1.
         21    1    1    2  505  504  0.47340867986E+02 -0.13330284421E+02 -0.16695647166E+02  0.51938414480E+02  0.00000000000E+00 0. -1.
         -1    1    1    2    0  503  0.20549107176E+02 -0.13307046500E+03 -0.20923796363E+03  0.24881828688E+03  0.00000000000E+00 0. -1.
<scales pt_clust_3="14000.00000" pt_clust_4="34.14777" pt_clust_5="87.02633" pt_clust_6="156.19906"></scales>
<clustering>
<clus scale="   34.148">  4  5 -1 -1</clus>
<clus scale="   87.026">  2  4  1 -1</clus>
<clus scale="  156.199">  2  6  1 -1</clus>
<clus scale="  156.199">  1  3  2 -1</clus>
</clustering>
</event>
<event>
 6    0  0.3667994E+002  0.1559393E+03  0.7546771E-02  0.1193359E+00
         21   -1    0    0  504  502  0.00000000000E+00  0.00000000000E+00  0.17666634391E+04  0.17666634391E+04  0.00000000000E+00 0. -1.
         -4   -1    0    0    0  501 -0.00000000000E+00 -0.00000000000E+00 -0.89580871113E+03  0.89580871113E+03  0.00000000000E+00 0.  1.
         21    1    1    2  503  502  0.39861563522E+02 -0.13440198776E+03  0.17449513021E+04  0.17505735875E+04  0.00000000000E+00 0. -1.
         21    1    1    2  504  501 -0.25380253762E+02  0.31291607456E+02 -0.67876858693E+03  0.67996332003E+03  0.00000000000E+00 0.  1.
         21    1    1    2  505  503  0.23757033709E+02  0.66287038065E+02 -0.92933107419E+02  0.11659730066E+03  0.00000000000E+00 0.  1.
         -4    1    1    2    0  505 -0.38238343469E+02  0.36823342243E+02 -0.10239487983E+03  0.11533794198E+03  0.00000000000E+00 0.  1.
<scales pt_clust_3="139.70536" pt_clust_4="40.29047" pt_clust_5="65.37914" pt_clust_6="65.37914"></scales>
<clustering>
<clus scale="   40.290">  2  4  1 -1</clus>
<clus scale="   65.379">  5  6 -1 -1</clus>
<clus scale="  139.705">  1  3  2 -1</clus>
<clus scale="  139.705">  1  3  2 -1</clus>
</clustering>
</event>
<event>
 6    0  0.3667994E+002  0.1203841E+03  0.7546771E-02  0.1242465E+00
         21   -1    0    0  505  502  0.00000000000E+00  0.00000000000E+00  0.13973340003E+03  0.13973340003E+03  0.00000000000E+00 0.  1.
          2   -1    0    0  503    0 -0.00000000000E+00 -0.00000000000E+00 -0.17442614385E+04  0.17442614385E+04  0.00000000000E+00 0. -1.
         21    1    1    2  503  502 -0.15384616073E+01  0.32695422408E+02 -0.80722794404E+02  0.87106412203E+02  0.00000000000E+00 0.  1.
         21    1    1    2  504  501  0.85322861399E+02 -0.15065130823E+03 -0.40966782163E+03  0.44475108930E+03  0.00000000000E+00 0.  1.
         21    1    1    2  505  504 -0.21516087251E+02  0.11538074918E+03  0.89055542372E+02  0.14733142543E+03  0.00000000000E+00 0.  1.
          2    1    1    2  501    0 -0.62268312541E+02  0.25751366402E+01 -0.12031929648E+04  0.12048059116E+04  0.00000000000E+00 0. -1.
<scales pt_clust_3="32.73160" pt_clust_4="14000.00000" pt_clust_5="120.38409" pt_clust_6="68.61765"></scales>
<clustering>
<clus scale="   32.732">  2  3  1 -1</clus>
<clus scale="   68.618">  2  6  1 -1</clus>
<clus scale="  120.384">  1  5  2 -1</clus>
<clus scale="  120.384">  1  3  2 -1</clus>
</clustering>
</event>
<event>
 6    0  0.3667994E+002  0.1033652E+03  0.7546771E-02  0.1273374E+00
         21   -1    0    0  503  502  0.00000000000E+00  0.00000000000E+00  0.13731987510E+03  0.13731987510E+03  0.00000000000E+00 0. -1.
          2   -1    0    0  505    0 -0.00000000000E+00 -0.00000000000E+00 -0.30258018691E+04  0.30258018691E+04  0.00000000000E+00 0. -1.
         21    1    1    2  503  501 -0.30230651725E+02  0.28703808294E+02 -0.74533920073E+02  0.85399684753E+02  0.00000000000E+00 0. -1.
         21    1    1    2  504  502  0.39972988409E+02 -0.13413042315E+03  0.90516634939E+02  0.16667954709E+03  0.00000000000E+00 0. -1.
         21    1    1    2  505  504  0.76919272629E+02  0.61056497520E+02 -0.14784234285E+04  0.14816815799E+04  0.00000000000E+00 0. -1.
          2    1    1    2  501    0 -0.86661609312E+02  0.44370117341E+02 -0.14260412804E+04  0.14293609325E+04  0.00000000000E+00 0. -1.
<scales pt_clust_3="41.68694" pt_clust_4="103.36521" pt_clust_5="14000.00000" pt_clust_6="97.86325"></scales>
<clustering>
<clus scale="   41.687">  1  3  2 -1</clus>
<clus scale="   97.863">  2  6  1 -1</clus>
<clus scale="  103.365">  1  4  2 -1</clus>
<clus scale="   41.687">  1  3  2 -1</clus>
</clustering>
</event>
<event>
 6    0  0.3667994E+002  0.9323105E+02  0.7546771E-02  0.1295211E+00
          1   -1    0    0  504    0 -0.00000000000E+00  0.00000000000E+00  0.23252356377E+03  0.23252356377E+03  0.00000000000E+00 0. -1.
         21   -1    0    0  501  502  0.00000000000E+00 -0.00000000000E+00 -0.10335657228E+04  0.10335657228E+04  0.00000000000E+00 0. -1.
         21    1    1    2  503  502 -0.35061496932E+02  0.18879434483E+00 -0.95903069133E+03  0.95967140789E+03  0.00000000000E+00 0. -1.
         21    1    1    2  504  505  0.18638116479E+02 -0.78248313021E+02  0.64678257501E+02  0.10321557474E+03  0.00000000000E+00 0. -1.
         21    1    1    2  505  503 -0.22342997771E+02 -0.36517488467E+02 -0.10190970351E+02  0.44006731190E+02  0.00000000000E+00 0. -1.
          1    1    1    2  501    0  0.38766378223E+02  0.11457700714E+03  0.10350124513E+03  0.15919557277E+03  0.00000000000E+00 0. -1.
<scales pt_clust_3="35.06201" pt_clust_4="14000.00000" pt_clust_5="50.63296" pt_clust_6="93.23105"></scales>
<clustering>
<clus scale="   35.062">  2  3  1 -1</clus>
<clus scale="   50.633">  2  5  1 -1</clus>
<clus scale="   93.231">  2  6  1 -1</clus>
<clus scale="   35.062">  2  3  1 -1</clus>
</clustering>
</event>
<event>
 6    0  0.3667994E+002  0.1589886E+03  0.7546771E-02  0.1189843E+00
          1   -1    0    0  505    0 -0.00000000000E+00  0.00000000000E+00  0.56935038392E+03  0.56935038392E+03  0.00000000000E+00 0.  1.
         21   -1    0    0  503  502  0.00000000000E+00 -0.00000000000E+00 -0.23279497471E+03  0.23279497471E+03  0.00000000000E+00 0. -1.
         21    1    1    2  503  501 -0.35863598407E+02 -0.29806788461E+01 -0.18197814697E+03  0.18550236686E+03  0.00000000000E+00 0. -1.
         21    1    1    2  504  502 -0.29180882217E+02 -0.55720066514E+02  0.92209351747E+02  0.11161905863E+03  0.00000000000E+00 0.  1.
         21    1    1    2  505  504 -0.52265321248E+02 -0.62489770308E+02  0.24119437627E+03  0.25458075800E+03  0.00000000000E+00 0.  1.
          1    1    1    2  501    0  0.11730980187E+03  0.12119051567E+03  0.18512982816E+03  0.25044317515E+03  0.00000000000E+00 0.  1.
<scales pt_clust_3="35.98725" pt_clust_4="42.91914" pt_clust_5="42.91914" pt_clust_6="151.46012"></scales>
<clustering>
<clus scale="   35.987">  2  3  1 -1</clus>
<clus scale="   42.919">  4  5 -1 -1</clus>
<clus scale="  151.460">  2  6  1 -1</clus>
<clus scale="   35.987">  2  3  1 -1</clus>
</clustering>
</event>
<event>
 6    0  0.3667994E+002  0.7760785E+02  0.7546771E-02  0.1335980E+00
          2   -1    0    0  504    0 -0.00000000000E+00  0.00000000000E+00  0.31388545258E+04  0.31388545258E+04  0.00000000000E+00 0.  1.
         21   -1    0    0  501  502  0.00000000000E+00 -0.00000000000E+00 -0.12209091886E+02  0.12209091886E+02  0.00000000000E+00 0. -1.
         21    1    1    2  503  505  0.42693096950E+02 -0.47054154749E+02  0.84025739358E+03  0.84265608731E+03  0.00000000000E+00 0.  1.
         21    1    1    2  504  503 -0.37596829404E+02 -0.41117307206E+02  0.66845315793E+03  0.67077103312E+03  0.00000000000E+00 0. -1.
         21    1    1    2  505  502 -0.46424610097E+02 -0.32616996634E+02  0.10520358569E+03  0.11952785171E+03  0.00000000000E+00 0. -1.
          2    1    1    2  501    0  0.41328342551E+02  0.12078845859E+03  0.15127312967E+04  0.15181086456E+04  0.00000000000E+00 0.  1.
<scales pt_clust_3="14000.00000" pt_clust_4="55.71494" pt_clust_5="59.21532" pt_clust_6="77.60785"></scales>
<clustering>
<clus scale="   55.715">  1  4  2 -1</clus>
<clus scale="   59.215">  2  5  1 -1</clus>
<clus scale="   77.608">  1  6  2 -1</clus>
<clus scale="   59.215">  2  3  1 -1</clus>
</clustering>
</event>
<event>
 6    0  0.3667994E+002  0.1743380E+03  0.7546771E-02  0.1173398E+00
         21   -1    0    0  504  502  0.00000000000E+00  0.00000000000E+00  0.99031702648E+02  0.99031702648E+02  0.00000000000E+00 0. -1.
         -3   -1    0    0    0  501 -0.00000000000E+00 -0.00000000000E+00 -0.24216455458E+04  0.24216455458E+04  0.00000000000E+00 0. -1.
         21    1    1    2  503  501 -0.72994383633E+02  0.13720744557E+03 -0.14962547138E+04  0.15043045675E+04  0.00000000000E+00 0. -1.
         21    1    1    2  504  503 -0.20975709838E+02  0.47294837957E+02  0.74595985654E+02  0.90781843869E+02  0.00000000000E+00 0. -1.
         21    1    1    2  505  502  0.67105266770E+02 -0.81466679287E+02 -0.43416002697E+03  0.44680517642E+03  0.00000000000E+00 0. -1.
         -3    1    1    2    0  505  0.26864826701E+02 -0.10303560424E+03 -0.46679508799E+03  0.47878566063E+03  0.00000000000E+00 0. -1.
<scales pt_clust_3="168.12773" pt_clust_4="51.73763" pt_clust_5="45.91453" pt_clust_6="45.91453"></scales>
<clustering>
<clus scale="   45.915">  5  6 -1 -1</clus>
<clus scale="   51.738">  1  4  2 -1</clus>
<clus scale="  168.128">  2  3  1 -1</clus>
<clus scale="   51.738">  1  3  2 -1</clus>
</clustering>
</event>
<event>
 6    0  0.3667994E+002  0.1649090E+03  0.7546771E-02  0.1183263E+00
         21   -1    0    0  503  502  0.00000000000E+00  0.00000000000E+00  0.49715577231E+03  0.49715577231E+03  0.00000000000E+00 0.  1.
          2   -1    0    0  504    0 -0.00000000000E+00 -0.00000000000E+00 -0.64678621727E+03  0.64678621727E+03  0.00000000000E+00 0.  1.
         21    1    1    2  503  505  0.88017416133E-01  0.13901547562E+03  0.41825064442E+03  0.44074812735E+03  0.00000000000E+00 0.  1.
         21    1    1    2  504  502 -0.29315327502E+02  0.74638589028E+02 -0.42324280046E+03  0.43077230127E+03  0.00000000000E+00 0.  1.
         21    1    1    2  505  501  0.31292427997E+02 -0.20034862809E+02 -0.25719644751E+02  0.45189732283E+02  0.00000000000E+00 0. -1.
          2    1    1    2  501    0 -0.20651179107E+01 -0.19361920184E+03 -0.11891864417E+03  0.22723182868E+03  0.00000000000E+00 0.  1.
<scales pt_clust_3="142.84262" pt_clust_4="80.18920" pt_clust_5="36.09919" pt_clust_6="36.09919"></scales>
<clustering>
<clus scale="   36.099">  5  6 -1 -1</clus>
<clus scale="   80.189">  2  4  1 -1</clus>
<clus scale="  142.843">  1  3  2 -1</clus>
<clus scale="  142.843">  1  3  2 -1</clus>
</clustering>
</event>
<event>
 6    0  0.4184593E+002  0.1811880E+03  0.7546771E-02  0.1166658E+00
         21   -1    0    0  501  502  0.00000000000E+00  0.00000000000E+00  0.45024486706E+03  0.45024486706E+03  0.00000000000E+00 0.  1.
          2   -1    0    0  503    0 -0.00000000000E+00 -0.00000000000E+00 -0.12024444732E+04  0.12024444732E+04  0.00000000000E+00 0. -1.
         21    1    1    2  503  504 -0.21028630189E+01 -0.30296241737E+02 -0.23904543812E+02  0.38648564153E+02  0.00000000000E+00 0. -1.
         21    1    1    2  504  505 -0.11695318849E+02  0.37354268262E+02 -0.64190901901E+02  0.75183733129E+02  0.00000000000E+00 0. -1.
         21    1    1    2  505  502 -0.14425078696E+03 -0.10944626667E+03  0.41008726834E+03  0.44828377450E+03  0.00000000000E+00 0.  1.
          2    1    1    2  501    0  0.15804896882E+03  0.10238824014E+03 -0.10741914287E+04  0.10905732684E+04  0.00000000000E+00 0. -1.
<scales pt_clust_3="30.36913" pt_clust_4="37.46514" pt_clust_5="14000.00000" pt_clust_6="181.18797"></scales>
<clustering>
<clus scale="   30.369">  2  3  1 -1</clus>
<clus scale="   37.465">  2  4  1 -1</clus>
<clus scale="  181.188">  2  6  1 -1</clus>
<clus scale="  181.188">  1  3  2 -1</clus>
</clustering>
</event>
<event>
 6    0  0.3667994E+002  0.1050827E+03  0.7546771E-02  0.1269957E+00
         21   -1    0    0  503  502  0.00000000000E+00  0.00000000000E+00  0.10723691374E+03  0.10723691374E+03  0.00000000000E+00 0.  1.
          1   -1    0    0  505    0 -0.00000000000E+00 -0.00000000000E+00 -0.41933399966E+03  0.41933399966E+03  0.00000000000E+00 0. -1.
         21    1    1    2  503  501 -0.78127220642E+02  0.85886563177E+01 -0.63209742919E+02  0.10086178276E+03  0.00000000000E+00 0.  1.
         21    1    1    2  504  502  0.12155979637E+03  0.25424694617E+02  0.18346557395E+02  0.12553802355E+03  0.00000000000E+00 0.  1.
         21    1    1    2  505  504  0.70946409879E+01  0.40113008517E+02 -0.46018948115E+02  0.61458367768E+02  0.00000000000E+00 0.  1.
          1    1    1    2  501    0 -0.50527216715E+02 -0.74126359451E+02 -0.22121495229E+03  0.23871273931E+03  0.00000000000E+00 0. -1.
<scales pt_clust_3="105.08271" pt_clust_4="14000.00000" pt_clust_5="40.73558" pt_clust_6="67.17625"></scales>
<clustering>
<clus scale="   40.736">  2  5  1 -1</clus>
<clus scale="   67.176">  2  6  1 -1</clus>
<clus scale="  105.083">  2  3  1 -1</clus>
<clus scale="  105.083">  1  3  2 -1</clus>
</clustering>
</event>
<event>
 6    0  0.3667994E+002  0.1362757E+03  0.7546771E-02  0.1218430E+00
          2   -1    0    0  505    0 -0.00000000000E+00  0.00000000000E+00  0.19498261139E+03  0.19498261139E+03  0.00000000000E+00 0.  1.
         21   -1    0    0  503  502  0.00000000000E+00 -0.00000000000E+00 -0.19760283759E+03  0.19760283759E+03  0.00000000000E+00 0. -1.
         21    1    1    2  503  501 -0.45476018053E+02  0.11711138749E+01 -0.86363093539E+02  0.97611595886E+02  0.00000000000E+00 0. -1.
         21    1    1    2  504  502 -0.10791686820E+02 -0.29871666317E+02 -0.55464650612E+01  0.32241901738E+02  0.00000000000E+00 0. -1.
         21    1    1    2  505  504 -0.77047469373E+02 -0.16108364933E+02 -0.23830158722E+02  0.82241524927E+02  0.00000000000E+00 0. -1.
          2    1    1    2  501    0  0.13331517425E+03  0.44808917376E+02  0.11311949113E+03  0.18049042643E+03  0.00000000000E+00 0.  1.
<scales pt_clust_3="45.49110" pt_clust_4="31.20730" pt_clust_5="31.20730" pt_clust_6="127.11204"></scales>
<clustering>
<clus scale="   31.207">  4  5 -1 -1</clus>
<clus scale="   45.491">  2  3  1 -1</clus>
<clus scale="  127.112">  1  6  2 -1</clus>
<clus scale="   45.491">  2  3  1 -1</clus>
</clustering>
</event>
<event>
 6    0  0.3667994E+002  0.8199942E+02  0.7546771E-02  0.1323471E+00
         -3   -1    0    0    0  501 -0.00000000000E+00  0.00000000000E+00  0.81907624726E+03  0.81907624726E+03  0.00000000000E+00 0. -1.
         21   -1    0    0  505  502  0.00000000000E+00 -0.00000000000E+00 -0.29526688885E+03  0.29526688885E+03  0.00000000000E+00 0.  1.
         21    1    1    2  503  501 -0.11086347890E+03 -0.66123415782E+02  0.30155409082E+03  0.32802116815E+03  0.00000000000E+00 0. -1.
         21    1    1    2  504  502  0.25985151674E+02  0.19631935497E+02  0.63442181266E+02  0.71313051840E+02  0.00000000000E+00 0. -1.
         21    1    1    2  505  503  0.15989486419E+02  0.25479796128E+02 -0.27430197927E+03  0.27594647944E+03  0.00000000000E+00 0.  1.
         -3    1    1    2    0  504  0.68888840812E+02  0.21011684157E+02  0.43311506559E+03  0.43906243668E+03  0.00000000000E+00 0. -1.
<scales pt_clust_3="81.99942" pt_clust_4="38.11825" pt_clust_5="30.08128" pt_clust_6="14000.00000"></scales>
<clustering>
<clus scale="   30.081">  2  5  1 -1</clus>
<clus scale="   38.118">  2  4  1 -1</clus>
<clus scale="   81.999">  2  3  1 -1</clus>
<clus scale="   30.081">  2  3  1 -1</clus>
</clustering>
</event>
<event>
 6    0  0.3667994E+002  0.1823009E+03  0.7546771E-02  0.1165595E+00
         21   -1    0    0  505  502  0.00000000000E+00  0.00000000000E+00  0.80337191837E+02  0.80337191837E+02  0.00000000000E+00 0. -1.
          2   -1    0    0  503    0 -0.00000000000E+00 -0.00000000000E+00 -0.99668872020E+03  0.99668872020E+03  0.00000000000E+00 0.  1.
         21    1    1    2  503  504 -0.30130972791E+02  0.94754405806E+01 -0.15374884516E+03  0.15695976198E+03  0.00000000000E+00 0. -1.
         21    1    1    2  504  502 -0.15482617617E+03  0.65637426637E+02 -0.46785101918E+02  0.17455160372E+03  0.00000000000E+00 0. -1.
         21    1    1    2  505  501  0.89094438474E+02 -0.61814085019E+02 -0.31366162422E+03  0.33187710765E+03  0.00000000000E+00 0.  1.
          2    1    1    2  501    0  0.95862710482E+02 -0.13298782199E+02 -0.40215595707E+03  0.41363743868E+03  0.00000000000E+00 0.  1.
<scales pt_clust_3="31.58575" pt_clust_4="172.30083" pt_clust_5="54.67560" pt_clust_6="54.67560"></scales>
<clustering>
<clus scale="   31.586">  2  3  1 -1</clus>
<clus scale="   54.676">  5  6 -1 -1</clus>
<clus scale="  172.301">  1  4  2 -1</clus>
<clus scale="  172.301">  1  3  2 -1</clus>
</clustering>
</event>
<event>
 6    0  0.3667994E+002  0.9012147E+02  0.7546771E-02  0.1302558E+00
         21   -1    0    0  504  502  0.00000000000E+00  0.00000000000E+00  0.23002271428E+04  0.23002271428E+04  0.00000000000E+00 0. -1.
         -3   -1    0    0    0  501 -0.00000000000E+00 -0.00000000000E+00 -0.32324877473E+02  0.32324877473E+02  0.00000000000E+00 0. -1.
         21    1    1    2  503  501  0.29459346390E+02 -0.70500506871E+01 -0.47981599441E+01  0.30668854613E+02  0.00000000000E+00 0.  1.
         21    1    1    2  504  503 -0.15277578367E+01 -0.92498617810E+02  0.18530218360E+04  0.18553296885E+04  0.00000000000E+00 0. -1.
         21    1    1    2  505  502  0.32820556013E+02  0.76448724243E+02  0.28691990389E+03  0.29873839322E+03  0.00000000000E+00 0. -1.
         -3    1    1    2    0  505 -0.60752144566E+02  0.23099944254E+02  0.13275868533E+03  0.14781508388E+03  0.00000000000E+00 0. -1.
<scales pt_clust_3="30.29119" pt_clust_4="90.12147" pt_clust_5="14000.00000" pt_clust_6="49.53656"></scales>
<clustering>
<clus scale="   30.291">  2  3  1 -1</clus>
<clus scale="   49.537">  2  6  1 -1</clus>
<clus scale="   90.121">  1  4  2 -1</clus>
<clus scale="   90.121">  1  3  2 -1</clus>
</clustering>
</event>
<event>
 6    0  0.3667994E+002  0.8060849E+02  0.7546771E-02  0.1327333E+00
         21   -1    0    0  501  502  0.00000000000E+00  0.00000000000E+00  0.11056233382E+04  0.11056233382E+04  0.00000000000E+00 0.  1.
          2   -1    0    0  505    0 -0.00000000000E+00 -0.00000000000E+00 -0.48748076826E+02  0.48748076826E+02  0.00000000000E+00 0.  1.
         21    1    1    2  503  504 -0.71876908668E+02 -0.33415901545E+02  0.13097044733E+03  0.15308876689E+03  0.00000000000E+00 0. -1.
         21    1    1    2  504  502  0.95690652290E+02  0.33835358896E+02  0.69426273052E+03  0.70164255247E+03  0.00000000000E+00 0.  1.
         21    1    1    2  505  503 -0.57585530444E+01  0.33698828173E+02 -0.23570251717E+02  0.41525037260E+02  0.00000000000E+00 0.  1.
          2    1    1    2  501    0 -0.18055190577E+02 -0.34118285524E+02  0.25521233524E+03  0.25811505840E+03  0.00000000000E+00 0.  1.
<scales pt_clust_3="80.60849" pt_clust_4="14000.00000" pt_clust_5="34.18731" pt_clust_6="36.22224"></scales>
<clustering>
<clus scale="   34.187">  2  5  1 -1</clus>
<clus scale="   36.222">  1  6  2 -1</clus>
<clus scale="   80.608">  2  3  1 -1</clus>
<clus scale="   36.222">  1  3  2 -1</clus>
</clustering>
</event>
<event>
 6    0  0.3667994E+002  0.1223442E+03  0.7546771E-02  0.1239279E+00
         21   -1    0    0  504  502  0.00000000000E+00  0.00000000000E+00  0.17442715452E+03  0.17442715452E+03  0.00000000000E+00 0. -1.
          2   -1    0    0  505    0 -0.00000000000E+00 -0.00000000000E+00 -0.41441274244E+04  0.41441274244E+04  0.00000000000E+00 0. -1.
         21    1    1    2  503  502  0.22706482760E+02  0.63346154916E+02 -0.53428024746E+03  0.53850134868E+03  0.00000000000E+00 0. -1.
         21    1    1    2  504  501  0.24744936312E+02  0.11943361690E+03  0.14733776855E+03  0.19127236800E+03  0.00000000000E+00 0. -1.
         21    1    1    2  505  503 -0.32379761980E+02 -0.94011320754E+01 -0.62005638539E+03  0.62097242397E+03  0.00000000000E+00 0. -1.
          2    1    1    2  501    0 -0.15071657092E+02 -0.17337863974E+03 -0.29627014056E+04  0.29678084382E+04  0.00000000000E+00 0. -1.
<scales pt_clust_3="64.41668" pt_clust_4="122.34419" pt_clust_5="33.71691" pt_clust_6="14000.00000"></scales>
<clustering>
<clus scale="   33.717">  2  5  1 -1</clus>
<clus scale="   64.417">  2  3  1 -1</clus>
<clus scale="  122.344">  1  4  2 -1</clus>
<clus scale="  122.344">  1  3  2 -1</clus>
</clustering>
</event>
<event>
 6    0  0.3667994E+002  0.1566821E+03  0.7546771E-02  0.1192494E+00
         21   -1    0    0  504  502  0.00000000000E+00  0.00000000000E+00  0.18113764522E+03  0.18113764522E+03  0.00000000000E+00 0. -1.
         -2   -1    0    0    0  501 -0.00000000000E+00 -0.00000000000E+00 -0.61638047243E+03  0.61638047243E+03  0.00000000000E+00 0.  1.
         21    1    1    2  503  505  0.75934686851E+02  0.11183720327E+03 -0.78241158984E+02  0.15618999860E+03  0.00000000000E+00 0. -1.
         21    1    1    2  504  503  0.18003723997E+02  0.42428785869E+02  0.11544716687E+03  0.12430761958E+03  0.00000000000E+00 0. -1.
         21    1    1    2  505  501  0.58788347891E+01 -0.40994178287E+02 -0.34904713564E+02  0.54161078100E+02  0.00000000000E+00 0. -1.
         -2    1    1    2    0  502 -0.99817245637E+02 -0.11327181086E+03 -0.43754412153E+03  0.46285942137E+03  0.00000000000E+00 0.  1.
<scales pt_clust_3="156.68213" pt_clust_4="45.81625" pt_clust_5="41.41356" pt_clust_6="14000.00000"></scales>
<clustering>
<clus scale="   41.414">  2  5  1 -1</clus>
<clus scale="   45.816">  1  4  2 -1</clus>
<clus scale="  156.682">  1  3  2 -1</clus>
<clus scale="   45.816">  1  3  2 -1</clus>
</clustering>
</event>
<event>
 6    0  0.3667994E+002  0.1073768E+03  0.7546771E-02  0.1265506E+00
          2   -1    0    0  504    0 -0.00000000000E+00  0.00000000000E+00  0.13635090130E+04  0.13635090130E+04  0.00000000000E+00 0.  1.
         21   -1    0    0  501  502  0.00000000000E+00 -0.00000000000E+00 -0.58185068063E+03  0.58185068063E+03  0.00000000000E+00 0. -1.
         21    1    1    2  503  502  0.85356248513E+02  0.65243882374E+02 -0.55868148824E+03  0.56891779603E+03  0.00000000000E+00 0. -1.
         21    1    1    2  504  505  0.31757170480E+02  0.20181665197E+02  0.11989853589E+03  0.12566414125E+03  0.00000000000E+00 0.  1.
         21    1    1    2  505  503 -0.38829893749E+02 -0.33535034952E+02  0.36137488337E+02  0.62755695208E+02  0.00000000000E+00 0. -1.
          2    1    1    2  501    0 -0.78283525244E+02 -0.51890512619E+02  0.11843037964E+04  0.11880220612E+04  0.00000000000E+00 0.  1.
<scales pt_clust_3="107.37683" pt_clust_4="37.62735" pt_clust_5="49.82345" pt_clust_6="14000.00000"></scales>
<clustering>
<clus scale="   37.627">  1  4  2 -1</clus>
<clus scale="   49.823">  1  5  2 -1</clus>
<clus scale="  107.377">  2  3  1 -1</clus>
<clus scale="  107.377">  2  3  1 -1</clus>
</clustering>
</event>
<event>
 6    0  0.3667994E+002  0.1377386E+03  0.7546771E-02  0.1216405E+00
         21   -1    0    0  504  502  0.00000000000E+00  0.00000000000E+00  0.42308752831E+02  0.42308752831E+02  0.00000000000E+00 0. -1.
          2   -1    0    0  505    0 -0.00000000000E+00 -0.00000000000E+00 -0.42345134680E+04  0.42345134680E+04  0.00000000000E+00 0.  1.
         21    1    1    2  503  501  0.75681466526E+02  0.35828833398E+02 -0.32590608025E+03  0.33649095504E+03  0.00000000000E+00 0.  1.
         21    1    1    2  504  503 -0.48123963948E+02  0.87430431214E+02 -0.54541238481E+03  0.55446791225E+03  0.00000000000E+00 0.  1.
         21    1    1    2  505  502  0.73006654434E+02  0.12500722821E+01 -0.13070633391E+02  0.74178000307E+02  0.00000000000E+00 0. -1.
          2    1    1    2  501    0 -0.10056415701E+03 -0.12450933689E+03 -0.33078156168E+04  0.33116853533E+04  0.00000000000E+00 0.  1.
<scales pt_clust_3="137.73859" pt_clust_4="90.15903" pt_clust_5="73.01736" pt_clust_6="14000.00000"></scales>
<clustering>
<clus scale="   73.017">  1  5  2 -1</clus>
<clus scale="   90.159">  1  4  2 -1</clus>
<clus scale="  137.739">  1  3  2 -1</clus>
<clus scale="   73.017">  1  3  2 -1</clus>
</clustering>
</event>
<event>
 6    0  0.3667994E+002  0.1000244E+03  0.7546771E-02  0.1280245E+00
          2   -1    0    0  505    0 -0.00000000000E+00  0.00000000000E+00  0.44667619164E+03  0.44667619164E+03  0.00000000000E+00 0. -1.
         21   -1    0    0  501  502  0.00000000000E+00 -0.00000000000E+00 -0.33253453348E+03  0.33253453348E+03  0.00000000000E+00 0. -1.
         21    1    1    2  503  504 -0.62756058411E+02  0.27065056393E+02 -0.24124097337E+03  0.25073501427E+03  0.00000000000E+00 0. -1.
         21    1    1    2  504  502  0.32285937986E+02  0.61127366000E+02 -0.16211905588E+02  0.71005369857E+02  0.00000000000E+00 0. -1.
         21    1    1    2  505  503  0.85712207381E+02 -0.53228702830E+02  0.37851192590E+03  0.39172842039E+03  0.00000000000E+00 0. -1.
          2    1    1    2  501    0 -0.55242086956E+02 -0.34963719563E+02 -0.69173887693E+01  0.65741920601E+02  0.00000000000E+00 0. -1.
<scales pt_clust_3="100.02444" pt_clust_4="60.96809" pt_clust_5="14000.00000" pt_clust_6="65.37698"></scales>
<clustering>
<clus scale="   65.377">  2  6  1 -1</clus>
<clus scale="   60.968">  2  4  1 -1</clus>
<clus scale="  100.024">  2  3  1 -1</clus>
<clus scale="   65.377">  2  3  1 -1</clus>
</clustering>
</event>
<event>
 6    0  0.3667994E+002  0.7713932E+02  0.7546771E-02  0.1337371E+00
          2   -1    0    0  504    0 -0.00000000000E+00  0.00000000000E+00  0.11425306590E+03  0.11425306590E+03  0.00000000000E+00 0. -1.
         21   -1    0    0  503  502  0.00000000000E+00 -0.00000000000E+00 -0.52259280618E+03  0.52259280618E+03  0.00000000000E+00 0. -1.
         21    1    1    2  503  505  0.37092509817E+02  0.60824092011E+01 -0.41964697566E+03  0.42132699197E+03  0.00000000000E+00 0. -1.
         21    1    1    2  504  502 -0.35243319522E+02 -0.39967932729E+02 -0.43474996638E+01  0.53464268170E+02  0.00000000000E+00 0. -1.
         21    1    1    2  505  501 -0.69677194141E+02  0.55798628050E+02  0.93524860623E+00  0.89270784501E+02  0.00000000000E+00 0. -1.
          2    1    1    2  501    0  0.67828003846E+02 -0.21913104521E+02  0.14719486439E+02  0.72783827438E+02  0.00000000000E+00 0. -1.
<scales pt_clust_3="37.58790" pt_clust_4="45.55163" pt_clust_5="14000.00000" pt_clust_6="77.13932"></scales>
<clustering>
<clus scale="   37.588">  2  3  1 -1</clus>
<clus scale="   45.552">  2  4  1 -1</clus>
<clus scale="   77.139">  1  6  2 -1</clus>
<clus scale="   37.588">  2  3  1 -1</clus>
</clustering>
</event>
<event>
 6    0  0.3667994E+002  0.4296493E+03  0.7546771E-02  0.1033971E+00
          2   -1    0    0  505    0 -0.00000000000E+00  0.00000000000E+00  0.29251794604E+04  0.29251794604E+04  0.00000000000E+00 0.  1.
         21   -1    0    0  504  502  0.00000000000E+00 -0.00000000000E+00 -0.31912259647E+03  0.31912259647E+03  0.00000000000E+00 0.  1.
         21    1    1    2  503  501  0.45735325416E+02 -0.11764283928E+03  0.15947095722E+03  0.20337783512E+03  0.00000000000E+00 0. -1.
         21    1    1    2  504  503  0.35495773285E+02  0.98205964788E+02 -0.21492777733E+03  0.23895252857E+03  0.00000000000E+00 0.  1.
         21    1    1    2  505  502  0.39591403963E+03  0.13247037655E+02  0.13171925004E+04  0.13754706445E+04  0.00000000000E+00 0.  1.
          2    1    1    2  501    0 -0.47714513833E+03  0.61898368331E+01  0.13443211837E+04  0.14265010487E+04  0.00000000000E+00 0.  1.
<scales pt_clust_3="108.72167" pt_clust_4="104.42395" pt_clust_5="429.64930" pt_clust_6="14000.00000"></scales>
<clustering>
<clus scale="  104.424">  2  4  1 -1</clus>
<clus scale="  108.722">  2  3  1 -1</clus>
<clus scale="  429.649">  1  5  2 -1</clus>
<clus scale="  104.424">  2  3  1 -1</clus>
</clustering>
</event>
<event>
 6    0  0.3667994E+002  0.9194276E+02  0.7546771E-02  0.1298214E+00
          2   -1    0    0  504    0 -0.00000000000E+00  0.00000000000E+00  0.62246861538E+03  0.62246861538E+03  0.00000000000E+00 0. -1.
         21   -1    0    0  505  502  0.00000000000E+00 -0.00000000000E+00 -0.58369922671E+03  0.58369922671E+03  0.00000000000E+00 0. -1.
         21    1    1    2  503  502 -0.64776244345E+02  0.66880707098E+02 -0.53043455631E+03  0.53854415728E+03  0.00000000000E+00 0. -1.
         21    1    1    2  504  503  0.90303588944E+02  0.49440208873E+02  0.53990644558E+02  0.11624999841E+03  0.00000000000E+00 0.  1.
         21    1    1    2  505  501 -0.52017533642E+02 -0.63974293537E+02  0.89713752763E+02  0.12184864166E+03  0.00000000000E+00 0.  1.
          2    1    1    2  501    0  0.26490189044E+02 -0.52346622433E+02  0.42549954766E+03  0.42952504474E+03  0.00000000000E+00 0. -1.
<scales pt_clust_3="91.94276" pt_clust_4="14000.00000" pt_clust_5="91.46592" pt_clust_6="58.66770"></scales>
<clustering>
<clus scale="   58.668">  1  6  2 -1</clus>
<clus scale="   91.943">  2  3  1 -1</clus>
<clus scale="   91.466">  1  5  2 -1</clus>
<clus scale="   91.943">  2  3  1 -1</clus>
</clustering>
</event>
<event>
 6    0  0.3667994E+002  0.1398055E+03  0.7546771E-02  0.1213591E+00
          3   -1    0    0  503    0 -0.00000000000E+00  0.00000000000E+00  0.53099543474E+03  0.53099543474E+03  0.00000000000E+00 0.  1.
         21   -1    0    0  504  502  0.00000000000E+00 -0.00000000000E+00 -0.58320694774E+03  0.58320694774E+03  0.00000000000E+00 0.  1.
         21    1    1    2  503  505 -0.40283095149E+02  0.91867288728E+02 -0.56477208860E+01  0.10047001167E+03  0.00000000000E+00 0.  1.
         21    1    1    2  504  501 -0.45242906108E+02 -0.33748466949E+02 -0.29313378120E-01  0.56443604011E+02  0.00000000000E+00 0. -1.
         21    1    1    2  505  502 -0.42990907293E+02  0.24739266213E+02 -0.48778173179E+03  0.49029712142E+03  0.00000000000E+00 0.  1.
          3    1    1    2  501    0  0.12851690855E+03 -0.82858087991E+02  0.44124725306E+03  0.46699164539E+03  0.00000000000E+00 0.  1.
<scales pt_clust_3="139.80554" pt_clust_4="63.81875" pt_clust_5="49.60090" pt_clust_6="14000.00000"></scales>
<clustering>
<clus scale="   49.601">  2  5  1 -1</clus>
<clus scale="   63.819">  2  4  1 -1</clus>
<clus scale="  139.806">  2  3  1 -1</clus>
<clus scale="   49.601">  2  3  1 -1</clus>
</clustering>
</event>
<event>
 6    0  0.3667994E+002  0.1176445E+03  0.7546771E-02  0.1247034E+00
          2   -1    0    0  505    0 -0.00000000000E+00  0.00000000000E+00  0.61171539861E+02  0.61171539861E+02  0.00000000000E+00 0.  1.
         21   -1    0    0  501  502  0.00000000000E+00 -0.00000000000E+00 -0.95138394386E+03  0.95138394386E+03  0.00000000000E+00 0.  1.
         21    1    1    2  503  504  0.30295168095E+02  0.20602864288E+02 -0.14650049522E+02  0.39457561731E+02  0.00000000000E+00 0.  1.
         21    1    1    2  504  502 -0.10846529757E+03 -0.75729025223E+02 -0.62770496938E+03  0.64149289522E+03  0.00000000000E+00 0.  1.
         21    1    1    2  505  503  0.19818753051E+02 -0.28493494488E+02  0.23370842072E+02  0.41843260626E+02  0.00000000000E+00 0.  1.
          2    1    1    2  501    0  0.58351376422E+02  0.83619655423E+02 -0.27122822717E+03  0.28976176614E+03  0.00000000000E+00 0.  1.
<scales pt_clust_3="39.76224" pt_clust_4="117.64452" pt_clust_5="34.70824" pt_clust_6="14000.00000"></scales>
<clustering>
<clus scale="   34.708">  1  5  2 -1</clus>
<clus scale="   39.762">  1  3  2 -1</clus>
<clus scale="  117.645">  2  4  1 -1</clus>
<clus scale="  117.645">  2  3  1 -1</clus>
</clustering>
</event>
<event>
 6    0  0.3667994E+002  0.1037636E+03  0.7546771E-02  0.1272575E+00
         21   -1    0    0  505  502  0.00000000000E+00  0.00000000000E+00  0.94709181587E+02  0.94709181587E+02  0.00000000000E+00 0.  1.
          2   -1    0    0  504    0 -0.00000000000E+00 -0.00000000000E+00 -0.15503023148E+04  0.15503023148E+04  0.00000000000E+00 0. -1.
         21    1    1    2  503  502 -0.39600650433E+02 -0.31891620594E+02  0.80505882795E+02  0.95218087270E+02  0.00000000000E+00 0.  1.
         21    1    1    2  504  503 -0.66252435283E+02  0.56104169454E+02 -0.70500325052E+03  0.71032854810E+03  0.00000000000E+00 0. -1.
         21    1    1    2  505  501  0.63111117754E+02  0.53296876936E+01 -0.54724638708E+03  0.55089928928E+03  0.00000000000E+00 0. -1.
          2    1    1    2  501    0  0.42741967962E+02 -0.29542236553E+02 -0.28384937839E+03  0.28856557172E+03  0.00000000000E+00 0. -1.
<scales pt_clust_3="50.84572" pt_clust_4="92.61174" pt_clust_5="42.38567" pt_clust_6="42.38567"></scales>
<clustering>
<clus scale="   42.386">  5  6 -1 -1</clus>
<clus scale="   50.846">  1  3  2 -1</clus>
<clus scale="   92.612">  2  4  1 -1</clus>
<clus scale="   50.846">  1  3  2 -1</clus>
</clustering>
</event>
<event>
 6    0  0.3667994E+002  0.1235774E+03  0.7546771E-02  0.1237309E+00
         21   -1    0    0  504  502  0.00000000000E+00  0.00000000000E+00  0.60275048532E+02  0.60275048532E+02  0.00000000000E+00 0.  1.
          2   -1    0    0  503    0 -0.00000000000E+00 -0.00000000000E+00 -0.18194379454E+04  0.18194379454E+04  0.00000000000E+00 0.  1.
         21    1    1    2  503  502  0.51082036200E+02  0.86029256779E+02 -0.12433076436E+04  0.12473268634E+04  0.00000000000E+00 0.  1.
         21    1    1    2  504  505  0.79270256575E+02  0.55007906705E+00  0.10131645827E+02  0.79916997013E+02  0.00000000000E+00 0.  1.
         21    1    1    2  505  501 -0.35720905346E+02 -0.37150947499E+00 -0.18114575782E+03  0.18463452190E+03  0.00000000000E+00 0.  1.
          2    1    1    2  501    0 -0.94631387429E+02 -0.86207826371E+02 -0.34484114119E+03  0.36783461157E+03  0.00000000000E+00 0.  1.
<scales pt_clust_3="105.82606" pt_clust_4="79.27217" pt_clust_5="33.71046" pt_clust_6="33.71046"></scales>
<clustering>
<clus scale="   33.710">  5  6 -1 -1</clus>
<clus scale="   79.272">  1  4  2 -1</clus>
<clus scale="  105.826">  2  3  1 -1</clus>
<clus scale="   79.272">  1  3  2 -1</clus>
</clustering>
</event>
<event>
 6    0  0.3667994E+002  0.1905650E+03  0.7546771E-02  0.1157953E+00
         21   -1    0    0  501  502  0.00000000000E+00  0.00000000000E+00  0.31363170786E+02  0.31363170786E+02  0.00000000000E+00 0.  1.
          2   -1    0    0  505    0 -0.00000000000E+00 -0.00000000000E+00 -0.34724783110E+04  0.34724783110E+04  0.00000000000E+00 0.  1.
         21    1    1    2  503  504 -0.14069596873E+03  0.94244781088E+02 -0.12635889689E+04  0.12748860799E+04  0.00000000000E+00 0. -1.
         21    1    1    2  504  502 -0.11845631433E+03  0.54097367318E+02 -0.36058195898E+03  0.38337680250E+03  0.00000000000E+00 0.  1.
         21    1    1    2  505  503  0.14348155790E+02 -0.27129519684E+02 -0.48176009916E+03  0.48273665031E+03  0.00000000000E+00 0. -1.
          2    1    1    2  501    0  0.24480412727E+03 -0.12121262872E+03 -0.13351841132E+04  0.13628419491E+04  0.00000000000E+00 0.  1.
<scales pt_clust_3="14000.00000" pt_clust_4="127.22026" pt_clust_5="30.69007" pt_clust_6="190.56501"></scales>
<clustering>
<clus scale="   30.690">  2  5  1 -1</clus>
<clus scale="  127.220">  1  4  2 -1</clus>
<clus scale="  190.565">  1  6  2 -1</clus>
<clus scale="  127.220">  1  3  2 -1</clus>
</clustering>
</event>
<event>
 6    0  0.3667994E+002  0.1118788E+03  0.7546771E-02  0.1257130E+00
         21   -1    0    0  504  502  0.00000000000E+00  0.00000000000E+00  0.10724125270E+03  0.10724125270E+03  0.00000000000E+00 0. -1.
         -2   -1    0    0    0  501 -0.00000000000E+00 -0.00000000000E+00 -0.60739800598E+03  0.60739800598E+03  0.00000000000E+00 0. -1.
         21    1    1    2  503  502 -0.47210549577E+02 -0.38408527282E+02 -0.17991724434E+03  0.18993226627E+03  0.00000000000E+00 0. -1.
         21    1    1    2  504  505  0.99936717812E+02  0.28049236550E+02  0.65706091275E+02  0.12284704990E+03  0.00000000000E+00 0. -1.
         21    1    1    2  505  501  0.22403756306E+02  0.20665838881E+02 -0.17641411064E+03  0.17902777334E+03  0.00000000000E+00 0. -1.
         -2    1    1    2    0  503 -0.75129924541E+02 -0.10306548149E+02 -0.20953148958E+03  0.22283216918E+03  0.00000000000E+00 0. -1.
<scales pt_clust_3="31.94267" pt_clust_4="105.60801" pt_clust_5="30.47959" pt_clust_6="31.94267"></scales>
<clustering>
<clus scale="   30.480">  2  5  1 -1</clus>
<clus scale="   31.943">  3  6 -1 -1</clus>
<clus scale="  105.608">  1  4  2 -1</clus>
<clus scale="  105.608">  1  3  2 -1</clus>
</clustering>
</event>
<event>
 6    0  0.3667994E+002  0.1512286E+03  0.7546771E-02  0.1198971E+00
          2   -1    0    0  505    0 -0.00000000000E+00  0.00000000000E+00  0.20309554894E+03  0.20309554894E+03  0.00000000000E+00 0. -1.
         21   -1    0    0  503  502  0.00000000000E+00 -0.00000000000E+00 -0.55559513827E+03  0.55559513827E+03  0.00000000000E+00 0.  1.
         21    1    1    2  503  504  0.12619749239E+03 -0.40457376605E+02  0.14560308737E+01  0.13253198268E+03  0.00000000000E+00 0.  1.
         21    1    1    2  504  501 -0.45975866965E+02  0.14790989670E+02  0.12215943765E+02  0.49817496933E+02  0.00000000000E+00 0.  1.
         21    1    1    2  505  502  0.26153055345E+02  0.64995718755E+02 -0.43703181966E+03  0.44261183576E+03  0.00000000000E+00 0.  1.
          2    1    1    2  501    0 -0.10637468077E+03 -0.39329331820E+02  0.70860255696E+02  0.13372937182E+03  0.00000000000E+00 0. -1.
<scales pt_clust_3="141.05004" pt_clust_4="35.59341" pt_clust_5="70.06016" pt_clust_6="35.59341"></scales>
<clustering>
<clus scale="   35.593">  4  6 -1 -1</clus>
<clus scale="   70.060">  2  5  1 -1</clus>
<clus scale="  141.050">  2  3  1 -1</clus>
<clus scale="   70.060">  2  3  1 -1</clus>
</clustering>
</event>
<event>
 6    0  0.3667994E+002  0.6926595E+02  0.7546771E-02  0.1362607E+00
          1   -1    0    0  504    0 -0.00000000000E+00  0.00000000000E+00  0.33776302904E+03  0.33776302904E+03  0.00000000000E+00 0. -1.
         21   -1    0    0  505  502  0.00000000000E+00 -0.00000000000E+00 -0.25087705836E+03  0.25087705836E+03  0.00000000000E+00 0. -1.
         21    1    1    2  503  502 -0.67151377523E+02  0.33919636605E+02 -0.11595439704E+02  0.76120322336E+02  0.00000000000E+00 0. -1.
         21    1    1    2  504  503 -0.24296192084E+01 -0.60415793338E+02  0.51654393199E+02  0.79524508618E+02  0.00000000000E+00 0. -1.
         21    1    1    2  505  501  0.20546804968E+02 -0.33380632550E+02 -0.18473231518E+03  0.18884508491E+03  0.00000000000E+00 0. -1.
          1    1    1    2  501    0  0.49034191763E+02  0.59876789283E+02  0.23155933236E+03  0.24415017153E+03  0.00000000000E+00 0. -1.
<scales pt_clust_3="54.23357" pt_clust_4="69.26595" pt_clust_5="39.19742" pt_clust_6="14000.00000"></scales>
<clustering>
<clus scale="   39.197">  2  5  1 -1</clus>
<clus scale="   54.234">  2  3  1 -1</clus>
<clus scale="   69.266">  2  4  1 -1</clus>
<clus scale="   39.197">  2  3  1 -1</clus>
</clustering>
</event>
<event>
 6    0  0.3667994E+002  0.1459606E+03  0.7546771E-02  0.1205526E+00
          2   -1    0    0  505    0 -0.00000000000E+00  0.00000000000E+00  0.11241195621E+03  0.11241195621E+03  0.00000000000E+00 0.  1.
         21   -1    0    0  503  502  0.00000000000E+00 -0.00000000000E+00 -0.27124028614E+04  0.27124028614E+04  0.00000000000E+00 0.  1.
         21    1    1    2  503  501  0.93128616662E+01  0.13452205290E+03 -0.28753793464E+03  0.31758617093E+03  0.00000000000E+00 0.  1.
         21    1    1    2  504  502  0.44521227663E+02  0.37540264556E+02 -0.22982732099E+04  0.22990109088E+04  0.00000000000E+00 0.  1.
         21    1    1    2  505  504  0.83237117820E+01 -0.90332732850E+02 -0.44654222097E+02  0.10111026829E+03  0.00000000000E+00 0.  1.
          2    1    1    2  501    0 -0.62157801111E+02 -0.81729584610E+02  0.30474461498E+02  0.10710746960E+03  0.00000000000E+00 0.  1.
<scales pt_clust_3="145.96056" pt_clust_4="58.23582" pt_clust_5="85.26667" pt_clust_6="14000.00000"></scales>
<clustering>
<clus scale="   58.236">  2  4  1 -1</clus>
<clus scale="   85.267">  1  5  2 -1</clus>
<clus scale="  145.961">  2  3  1 -1</clus>
<clus scale="   58.236">  2  3  1 -1</clus>
</clustering>
</event>
<event>
 6    0  0.3667994E+002  0.1992066E+03  0.7546771E-02  0.1150410E+00
         21   -1    0    0  501  502  0.00000000000E+00  0.00000000000E+00  0.97739133194E+02  0.97739133194E+02  0.00000000000E+00 0. -1.
          1   -1    0    0  503    0 -0.00000000000E+00 -0.00000000000E+00 -0.81067319204E+03  0.81067319204E+03  0.00000000000E+00 0. -1.
         21    1    1    2  503  504  0.59533300935E+02  0.10350846781E+03 -0.38686806485E+03  0.40487666817E+03  0.00000000000E+00 0. -1.
         21    1    1    2  504  505  0.58039375546E+02  0.44324491325E+02 -0.13885161711E+03  0.15688531231E+03  0.00000000000E+00 0. -1.
         21    1    1    2  505  502 -0.81959813131E+02 -0.17291047379E+03 -0.43164870787E+02  0.19615975373E+03  0.00000000000E+00 0. -1.
          1    1    1    2  501    0 -0.35612863349E+02  0.25077514654E+02 -0.14404950610E+03  0.15049059102E+03  0.00000000000E+00 0. -1.
<scales pt_clust_3="44.69886" pt_clust_4="44.69886" pt_clust_5="190.17323" pt_clust_6="43.55637"></scales>
<clustering>
<clus scale="   43.556">  2  6  1 -1</clus>
<clus scale="   44.699">  3  4 -1 -1</clus>
<clus scale="  190.173">  1  5  2 -1</clus>
<clus scale="  190.173">  1  3  2 -1</clus>
</clustering>
</event>
<event>
 6    0  0.3667994E+002  0.7182393E+02  0.7546771E-02  0.1353998E+00
         21   -1    0    0  503  502  0.00000000000E+00  0.00000000000E+00  0.22684496688E+04  0.22684496688E+04  0.00000000000E+00 0.  1.
         -3   -1    0    0    0  501 -0.00000000000E+00 -0.00000000000E+00 -0.13233940726E+02  0.13233940726E+02  0.00000000000E+00 0.  1.
         21    1    1    2  503  505 -0.49030828394E+02  0.68815844036E+02  0.22186891453E+03  0.23741410606E+03  0.00000000000E+00 0.  1.
         21    1    1    2  504  501 -0.38718127601E+02 -0.24689453724E+02  0.26013644418E+03  0.26415834668E+03  0.00000000000E+00 0.  1.
         21    1    1    2  505  504  0.66874432525E+02  0.23409783694E+02  0.50672714044E+03  0.51165672336E+03  0.00000000000E+00 0.  1.
         -3    1    1    2    0  502  0.20874523470E+02 -0.67536174006E+02  0.12664832289E+04  0.12684544334E+04  0.00000000000E+00 0.  1.
<scales pt_clust_3="71.82393" pt_clust_4="45.92018" pt_clust_5="61.07980" pt_clust_6="14000.00000"></scales>
<clustering>
<clus scale="   45.920">  2  4  1 -1</clus>
<clus scale="   61.080">  2  5  1 -1</clus>
<clus scale="   71.824">  2  3  1 -1</clus>
<clus scale="   71.824">  1  3  2 -1</clus>
</clustering>
</event>
<event>
 6    0  0.3667994E+002  0.1205720E+03  0.7546771E-02  0.1242156E+00
         21   -1    0    0  505  502  0.00000000000E+00  0.00000000000E+00  0.39814371471E+02  0.39814371471E+02  0.00000000000E+00 0.  1.
          1   -1    0    0  503    0 -0.00000000000E+00 -0.00000000000E+00 -0.29528629775E+04  0.29528629775E+04  0.00000000000E+00 0. -1.
         21    1    1    2  503  504 -0.33270503701E+02 -0.12584312860E+03 -0.19884422739E+04  0.19926981949E+04  0.00000000000E+00 0. -1.
         21    1    1    2  504  502  0.32055468432E+02  0.14489453293E+02 -0.88227877387E+02  0.94982396587E+02  0.00000000000E+00 0.  1.
         21    1    1    2  505  501 -0.57751432152E+02  0.20389917971E+02  0.37911566039E+00  0.61246390907E+02  0.00000000000E+00 0.  1.
          1    1    1    2  501    0  0.58966467420E+02  0.90963757335E+02 -0.83675757042E+03  0.84375036656E+03  0.00000000000E+00 0. -1.
<scales pt_clust_3="14000.00000" pt_clust_4="35.17808" pt_clust_5="44.77283" pt_clust_6="120.57203"></scales>
<clustering>
<clus scale="   35.178">  1  4  2 -1</clus>
<clus scale="   44.773">  1  5  2 -1</clus>
<clus scale="  120.572">  1  6  2 -1</clus>
<clus scale="   35.178">  1  3  2 -1</clus>
</clustering>
</event>
<event>
 6    0  0.3667994E+002  0.6156647E+02  0.7546771E-02  0.1391373E+00
         21   -1    0    0  503  502  0.00000000000E+00  0.00000000000E+00  0.10939652730E+03  0.10939652730E+03  0.00000000000E+00 0.  1.
          2   -1    0    0  505    0 -0.00000000000E+00 -0.00000000000E+00 -0.48067696805E+03  0.48067696805E+03  0.00000000000E+00 0.  1.
         21    1    1    2  503  501  0.37908551790E+02  0.45076609137E+02  0.54000054962E+02  0.79905975534E+02  0.00000000000E+00 0.  1.
         21    1    1    2  504  502  0.58879546301E+02 -0.30633291288E+02 -0.47288426172E+02  0.81494752945E+02  0.00000000000E+00 0.  1.
         21    1    1    2  505  504 -0.42946539440E+02  0.43643492095E+02 -0.33092246038E+03  0.33653949908E+03  0.00000000000E+00 0.  1.
          2    1    1    2  501    0 -0.53841558651E+02 -0.58086809945E+02 -0.47069609166E+02  0.92133267795E+02  0.00000000000E+00 0.  1.
<scales pt_clust_3="58.89787" pt_clust_4="14000.00000" pt_clust_5="61.56647" pt_clust_6="47.99542"></scales>
<clustering>
<clus scale="   58.898">  1  3  2 -1</clus>
<clus scale="   47.995">  1  6  2 -1</clus>
<clus scale="   61.566">  2  5  1 -1</clus>
<clus scale="   58.898">  1  3  2 -1</clus>
</clustering>
</event>
<event>
 6    0  0.3667994E+002  0.9868873E+02  0.7546771E-02  0.1283078E+00
         21   -1    0    0  505  502  0.00000000000E+00  0.00000000000E+00  0.24522083242E+03  0.24522083242E+03  0.00000000000E+00 0. -1.
          2   -1    0    0  503    0 -0.00000000000E+00 -0.00000000000E+00 -0.23136405112E+03  0.23136405112E+03  0.00000000000E+00 0.  1.
         21    1    1    2  503  504 -0.46050959506E+02  0.11339692214E+02 -0.20178729868E+02  0.51540863691E+02  0.00000000000E+00 0.  1.
         21    1    1    2  504  502 -0.78871340199E+02 -0.26783165700E+01  0.19676283266E+03  0.21199875943E+03  0.00000000000E+00 0. -1.
         21    1    1    2  505  501  0.26289952706E+02  0.21119893432E+02 -0.50198481136E+02  0.60473953238E+02  0.00000000000E+00 0. -1.
          2    1    1    2  501    0  0.98632346998E+02 -0.29781269076E+02 -0.11252884036E+03  0.15257130718E+03  0.00000000000E+00 0.  1.
<scales pt_clust_3="47.42657" pt_clust_4="80.69675" pt_clust_5="32.50206" pt_clust_6="32.50206"></scales>
<clustering>
<clus scale="   32.502">  5  6 -1 -1</clus>
<clus scale="   47.427">  2  3  1 -1</clus>
<clus scale="   80.697">  1  4  2 -1</clus>
<clus scale="   80.697">  1  3  2 -1</clus>
</clustering>
</event>
<event>
 6    0  0.3667994E+002  0.1976136E+03  0.7546771E-02  0.1151768E+00
         21   -1    0    0  505  502  0.00000000000E+00  0.00000000000E+00  0.33234910813E+02  0.33234910813E+02  0.00000000000E+00 0. -1.
          2   -1    0    0  504    0 -0.00000000000E+00 -0.00000000000E+00 -0.29541564627E+04  0.29541564627E+04  0.00000000000E+00 0. -1.
         21    1    1    2  503  501 -0.53627674641E+02  0.19242777919E+02 -0.37250599071E+03  0.37683806218E+03  0.00000000000E+00 0. -1.
         21    1    1    2  504  502  0.12427983904E+03 -0.81150901587E+02 -0.72892010994E+03  0.74387866880E+03  0.00000000000E+00 0. -1.
         21    1    1    2  505  503  0.38375101865E+02 -0.60241655037E+02 -0.44522703460E+02  0.84166362451E+02  0.00000000000E+00 0. -1.
          2    1    1    2  501    0 -0.10902726627E+03  0.12214977871E+03 -0.17749727478E+04  0.17825082801E+04  0.00000000000E+00 0. -1.
<scales pt_clust_3="40.28307" pt_clust_4="185.43985" pt_clust_5="71.42622" pt_clust_6="40.28307"></scales>
<clustering>
<clus scale="   40.283">  3  6 -1 -1</clus>
<clus scale="   71.426">  1  5  2 -1</clus>
<clus scale="  185.440">  1  4  2 -1</clus>
<clus scale="   71.426">  1  3  2 -1</clus>
</clustering>
</event>
<event>
 6    0  0.3667994E+002  0.9307855E+02  0.7546771E-02  0.1295563E+00
         21   -1    0    0  504  502  0.00000000000E+00  0.00000000000E+00  0.37526396166E+03  0.37526396166E+03  0.00000000000E+00 0. -1.
         -1   -1    0    0    0  501 -0.00000000000E+00 -0.00000000000E+00 -0.22935559793E+03  0.22935559793E+03  0.00000000000E+00 0. -1.
         21    1    1    2  503  505 -0.18414824101E+02  0.49436515299E+02  0.43898140469E+02  0.68630325135E+02  0.00000000000E+00 0. -1.
         21    1    1    2  504  503 -0.32400218014E+02 -0.65060649870E+02  0.27165314586E+03  0.28120827503E+03  0.00000000000E+00 0. -1.
         21    1    1    2  505  501 -0.22510731917E+02  0.56446701021E+02  0.50456611193E+01  0.60978863582E+02  0.00000000000E+00 0. -1.
         -1    1    1    2    0  502  0.73325774032E+02 -0.40822566450E+02 -0.17468858372E+03  0.19380209584E+03  0.00000000000E+00 0. -1.
<scales pt_clust_3="36.28812" pt_clust_4="72.68193" pt_clust_5="36.28812" pt_clust_6="84.53832"></scales>
<clustering>
<clus scale="   36.288">  3  5 -1 -1</clus>
<clus scale="   72.682">  1  4  2 -1</clus>
<clus scale="   84.538">  2  6  1 -1</clus>
<clus scale="   72.682">  1  3  2 -1</clus>
</clustering>
</event>
<event>
 6    0  0.3667994E+002  0.1133115E+03  0.7546771E-02  0.1254558E+00
         21   -1    0    0  505  502  0.00000000000E+00  0.00000000000E+00  0.36794205666E+02  0.36794205666E+02  0.00000000000E+00 0. -1.
          1   -1    0    0  504    0 -0.00000000000E+00 -0.00000000000E+00 -0.10896421967E+04  0.10896421967E+04  0.00000000000E+00 0.  1.
         21    1    1    2  503  502  0.10559688907E+03 -0.12544854472E+03 -0.26144777606E+03  0.30861461398E+03  0.00000000000E+00 0. -1.
         21    1    1    2  504  503  0.11381302371E+01  0.52940194428E+02 -0.16661982967E+03  0.17483171098E+03  0.00000000000E+00 0. -1.
         21    1    1    2  505  501 -0.74361842581E+02  0.30333198263E+02 -0.21029024132E+03  0.22510391410E+03  0.00000000000E+00 0. -1.
          1    1    1    2  501    0 -0.32373176725E+02  0.42175152029E+02 -0.41449014402E+03  0.41788616334E+03  0.00000000000E+00 0.  1.
<scales pt_clust_3="113.31152" pt_clust_4="52.95243" pt_clust_5="14000.00000" pt_clust_6="73.42379"></scales>
<clustering>
<clus scale="   52.952">  2  4  1 -1</clus>
<clus scale="   73.424">  2  6  1 -1</clus>
<clus scale="  113.312">  2  3  1 -1</clus>
<clus scale="  113.312">  1  3  2 -1</clus>
</clustering>
</event>
<event>
 6    0  0.3667995E+002  0.8731045E+02  0.7546771E-02  0.1309499E+00
         21   -1    0    0  503  502  0.00000000000E+00  0.00000000000E+00  0.41233940839E+03  0.41233940839E+03  0.00000000000E+00 0.  1.
          2   -1    0    0  505    0 -0.00000000000E+00 -0.00000000000E+00 -0.24766567440E+04  0.24766567440E+04  0.00000000000E+00 0. -1.
         21    1    1    2  503  501 -0.17749560147E+01  0.51836093075E+02 -0.12779153520E+03  0.13791594354E+03  0.00000000000E+00 0. -1.
         21    1    1    2  504  502  0.38429618133E+02  0.33395002691E+02  0.37259779216E+03  0.37606007030E+03  0.00000000000E+00 0.  1.
         21    1    1    2  505  504  0.27001767576E+02 -0.14376789516E+03 -0.13462285014E+03  0.19880043991E+03  0.00000000000E+00 0.  1.
          2    1    1    2  501    0 -0.63656429695E+02  0.58536799392E+02 -0.21745007425E+04  0.21762196987E+04  0.00000000000E+00 0. -1.
<scales pt_clust_3="56.38281" pt_clust_4="50.91229" pt_clust_5="14000.00000" pt_clust_6="87.31045"></scales>
<clustering>
<clus scale="   50.912">  1  4  2 -1</clus>
<clus scale="   56.383">  1  3  2 -1</clus>
<clus scale="   87.310">  2  6  1 -1</clus>
<clus scale="   50.912">  1  3  2 -1</clus>
</clustering>
</event>
<event>
 6    0  0.3667994E+002  0.1264319E+03  0.7546771E-02  0.1232848E+00
         21   -1    0    0  505  502  0.00000000000E+00  0.00000000000E+00  0.11040649360E+03  0.11040649360E+03  0.00000000000E+00 0.  1.
          4   -1    0    0  504    0 -0.00000000000E+00 -0.00000000000E+00 -0.25904164230E+03  0.25904164230E+03  0.00000000000E+00 0.  1.
         21    1    1    2  503  502  0.47862669123E+02 -0.33502940970E+02  0.34024299680E+02  0.67608691143E+02  0.00000000000E+00 0.  1.
         21    1    1    2  504  503  0.48669244223E+02 -0.66465531566E+02 -0.41691950962E+02  0.92328657493E+02  0.00000000000E+00 0.  1.
         21    1    1    2  505  501 -0.48583205726E+02  0.13090340327E+02 -0.22902682141E+02  0.55283069178E+02  0.00000000000E+00 0.  1.
          4    1    1    2  501    0 -0.47948707621E+02  0.86878132209E+02 -0.11806481528E+03  0.15422771808E+03  0.00000000000E+00 0.  1.
<scales pt_clust_3="58.42330" pt_clust_4="106.18000" pt_clust_5="48.87382" pt_clust_6="48.87382"></scales>
<clustering>
<clus scale="   48.874">  5  6 -1 -1</clus>
<clus scale="   58.423">  1  3  2 -1</clus>
<clus scale="  106.180">  2  4  1 -1</clus>
<clus scale="   58.423">  1  3  2 -1</clus>
</clustering>
</event>
<event>
 6    0  0.3667994E+002  0.9894648E+02  0.7546771E-02  0.1282527E+00
          1   -1    0    0  505    0 -0.00000000000E+00  0.00000000000E+00  0.52818619167E+03  0.52818619167E+03  0.00000000000E+00 0. -1.
         21   -1    0    0  503  502  0.00000000000E+00 -0.00000000000E+00 -0.20383926169E+03  0.20383926169E+03  0.00000000000E+00 0. -1.
         21    1    1    2  503  501 -0.22063744297E+02  0.24928686584E+02 -0.14358725549E+02  0.36254947615E+02  0.00000000000E+00 0.  1.
         21    1    1    2  504  502  0.63876758916E+02  0.82122958805E+01 -0.13967809329E+03  0.15381044138E+03  0.00000000000E+00 0. -1.
         21    1    1    2  505  504  0.27787457308E+02 -0.98674844124E+02  0.41448356286E+03  0.42697247162E+03  0.00000000000E+00 0. -1.
          1    1    1    2  501    0 -0.69600471928E+02  0.65533861659E+02  0.63900185969E+02  0.11498759274E+03  0.00000000000E+00 0. -1.
<scales pt_clust_3="33.29036" pt_clust_4="54.00104" pt_clust_5="98.94648" pt_clust_6="14000.00000"></scales>
<clustering>
<clus scale="   33.290">  2  3  1 -1</clus>
<clus scale="   54.001">  2  4  1 -1</clus>
<clus scale="   98.946">  1  5  2 -1</clus>
<clus scale="   33.290">  2  3  1 -1</clus>
</clustering>
</event>
<event>
 6    0  0.3667994E+002  0.1889810E+03  0.7546771E-02  0.1159384E+00
         -4   -1    0    0    0  501 -0.00000000000E+00  0.00000000000E+00  0.14549821220E+04  0.14549821220E+04  0.00000000000E+00 0.  1.
         21   -1    0    0  504  502  0.00000000000E+00 -0.00000000000E+00 -0.19297236039E+03  0.19297236039E+03  0.00000000000E+00 0. -1.
         21    1    1    2  503  502  0.13342415137E+03  0.16230604576E+03  0.14509958940E+03  0.25534123737E+03  0.00000000000E+00 0. -1.
         21    1    1    2  504  505 -0.50390361530E+02  0.81527493952E+01 -0.12417005485E+03  0.13425296414E+03  0.00000000000E+00 0. -1.
         21    1    1    2  505  501  0.14747150450E+02 -0.28096679576E+02  0.28952718854E+03  0.29126087061E+03  0.00000000000E+00 0.  1.
         -4    1    1    2    0  503 -0.97780940290E+02 -0.14236211557E+03  0.95155303850E+03  0.96709941026E+03  0.00000000000E+00 0.  1.
<scales pt_clust_3="188.98105" pt_clust_4="50.96330" pt_clust_5="31.73172" pt_clust_6="14000.00000"></scales>
<clustering>
<clus scale="   31.732">  1  5  2 -1</clus>
<clus scale="   50.963">  2  4  1 -1</clus>
<clus scale="  188.981">  2  3  1 -1</clus>
<clus scale="   50.963">  2  3  1 -1</clus>
</clustering>
</event>
<event>
 6    0  0.3667994E+002  0.8090893E+02  0.7546771E-02  0.1326492E+00
          1   -1    0    0  505    0 -0.00000000000E+00  0.00000000000E+00  0.60347186403E+03  0.60347186403E+03  0.00000000000E+00 0.  1.
         21   -1    0    0  503  502  0.00000000000E+00 -0.00000000000E+00 -0.34324823671E+03  0.34324823671E+03  0.00000000000E+00 0.  1.
         21    1    1    2  503  501  0.61963543332E+01 -0.38056813263E+02  0.19394997101E+01  0.38606702810E+02  0.00000000000E+00 0.  1.
         21    1    1    2  504  502 -0.46444525770E+02 -0.91489116326E+01 -0.31020408731E+03  0.31379511204E+03  0.00000000000E+00 0.  1.
         21    1    1    2  505  504 -0.60222451155E+02  0.12470770236E+02  0.14133743120E+03  0.15413803292E+03  0.00000000000E+00 0.  1.
          1    1    1    2  501    0  0.10047062259E+03  0.34734954659E+02  0.42715078372E+03  0.44018025298E+03  0.00000000000E+00 0.  1.
<scales pt_clust_3="38.55795" pt_clust_4="61.05451" pt_clust_5="80.90893" pt_clust_6="14000.00000"></scales>
<clustering>
<clus scale="   38.558">  2  3  1 -1</clus>
<clus scale="   61.055">  2  4  1 -1</clus>
<clus scale="   80.909">  1  5  2 -1</clus>
<clus scale="   38.558">  2  3  1 -1</clus>
</clustering>
</event>
<event>
 6    0  0.3667994E+002  0.1055117E+03  0.7546771E-02  0.1269115E+00
          2   -1    0    0  503    0 -0.00000000000E+00  0.00000000000E+00  0.12902809186E+04  0.12902809186E+04  0.00000000000E+00 0. -1.
         21   -1    0    0  505  502  0.00000000000E+00 -0.00000000000E+00 -0.65679516570E+03  0.65679516570E+03  0.00000000000E+00 0. -1.
         21    1    1    2  503  502  0.62005802196E+01  0.36827735067E+02  0.34261656859E+02  0.50681262770E+02  0.00000000000E+00 0.  1.
         21    1    1    2  504  501  0.85169796174E+02 -0.10488465615E+03  0.40503778058E+03  0.42697808957E+03  0.00000000000E+00 0. -1.
         21    1    1    2  505  504 -0.59894303901E+02  0.86493550908E+02 -0.63287065142E+03  0.64155570562E+03  0.00000000000E+00 0. -1.
          2    1    1    2  501    0 -0.31476072492E+02 -0.18436629820E+02  0.82705696689E+03  0.82786102635E+03  0.00000000000E+00 0. -1.
<scales pt_clust_3="35.29164" pt_clust_4="14000.00000" pt_clust_5="105.51166" pt_clust_6="36.47811"></scales>
<clustering>
<clus scale="   36.478">  1  6  2 -1</clus>
<clus scale="   35.292">  1  3  2 -1</clus>
<clus scale="  105.512">  2  5  1 -1</clus>
<clus scale="  105.512">  2  3  1 -1</clus>
</clustering>
</event>
<event>
 6    0  0.3667994E+002  0.8300661E+02  0.7546771E-02  0.1320729E+00
         -2   -1    0    0    0  501 -0.00000000000E+00  0.00000000000E+00  0.31167337284E+03  0.31167337284E+03  0.00000000000E+00 0. -1.
         21   -1    0    0  505  502  0.00000000000E+00 -0.00000000000E+00 -0.53615203080E+03  0.53615203080E+03  0.00000000000E+00 0. -1.
         21    1    1    2  503  502  0.35196801394E+02  0.13042350236E+03  0.76213169251E+02  0.15510497079E+03  0.00000000000E+00 0. -1.
         21    1    1    2  504  501 -0.63629563690E+01 -0.57816384916E+02 -0.16906049850E+01  0.58190031137E+02  0.00000000000E+00 0. -1.
         21    1    1    2  505  504  0.33388282774E+02 -0.75188653956E+02 -0.45718570901E+03  0.46452866826E+03  0.00000000000E+00 0. -1.
         -2    1    1    2    0  503 -0.62222127799E+02  0.25815365085E+01  0.15818448678E+03  0.17000173345E+03  0.00000000000E+00 0. -1.
<scales pt_clust_3="14000.00000" pt_clust_4="58.16547" pt_clust_5="83.00661" pt_clust_6="72.78697"></scales>
<clustering>
<clus scale="   58.165">  1  4  2 -1</clus>
<clus scale="   72.787">  1  6  2 -1</clus>
<clus scale="   83.007">  2  5  1 -1</clus>
<clus scale="   83.007">  2  3  1 -1</clus>
</clustering>
</event>
<event>
 6    0  0.3667994E+002  0.1200434E+03  0.7546771E-02  0.1243025E+00
         21   -1    0    0  503  502  0.00000000000E+00  0.00000000000E+00  0.86199340544E+02  0.86199340544E+02  0.00000000000E+00 0.  1.
          3   -1    0    0  504    0 -0.00000000000E+00 -0.00000000000E+00 -0.32903119017E+03  0.32903119017E+03  0.00000000000E+00 0. -1.
         21    1    1    2  503  501  0.76671713611E+02 -0.40022072002E+02 -0.90019432770E+02  0.12483515607E+03  0.00000000000E+00 0. -1.
         21    1    1    2  504  505 -0.86390321441E+02  0.38698043995E+02 -0.12208951770E+03  0.15448843510E+03  0.00000000000E+00 0.  1.
         21    1    1    2  505  502 -0.41042598427E+02  0.47087577193E+02 -0.42296479790E+01  0.62606906437E+02  0.00000000000E+00 0.  1.
          3    1    1    2  501    0  0.50761206257E+02 -0.45763549187E+02 -0.26493251173E+02  0.73300033101E+02  0.00000000000E+00 0. -1.
<scales pt_clust_3="40.58112" pt_clust_4="111.02429" pt_clust_5="62.46387" pt_clust_6="40.58112"></scales>
<clustering>
<clus scale="   40.581">  3  6 -1 -1</clus>
<clus scale="   62.464">  1  5  2 -1</clus>
<clus scale="  111.024">  2  4  1 -1</clus>
<clus scale="   62.464">  1  3  2 -1</clus>
</clustering>
</event>
<event>
 6    0  0.3667994E+002  0.7557566E+02  0.7546771E-02  0.1342098E+00
          2   -1    0    0  503    0 -0.00000000000E+00  0.00000000000E+00  0.67603577978E+03  0.67603577978E+03  0.00000000000E+00 0. -1.
         21   -1    0    0  504  502  0.00000000000E+00 -0.00000000000E+00 -0.18875742006E+03  0.18875742006E+03  0.00000000000E+00 0.  1.
         21    1    1    2  503  502  0.89175501589E+01 -0.57646422377E+02  0.13664610284E+03  0.14857587332E+03  0.00000000000E+00 0. -1.
         21    1    1    2  504  505  0.71706021466E+02  0.89367069702E+01 -0.14059666143E+03  0.15807921891E+03  0.00000000000E+00 0.  1.
         21    1    1    2  505  501 -0.14056957203E+03  0.92945585882E+01  0.13626205115E+03  0.19599372435E+03  0.00000000000E+00 0.  1.
          2    1    1    2  501    0  0.59946000405E+02  0.39415156818E+02  0.35496686716E+03  0.36214438327E+03  0.00000000000E+00 0. -1.
<scales pt_clust_3="58.33209" pt_clust_4="14000.00000" pt_clust_5="75.57566" pt_clust_6="65.94354"></scales>
<clustering>
<clus scale="   58.332">  1  3  2 -1</clus>
<clus scale="   65.944">  1  6  2 -1</clus>
<clus scale="   75.576">  1  5  2 -1</clus>
<clus scale="   75.576">  2  3  1 -1</clus>
</clustering>
</event>
<event>
 6    0  0.3667994E+002  0.1508415E+03  0.7546771E-02  0.1199443E+00
         21   -1    0    0  505  502  0.00000000000E+00  0.00000000000E+00  0.49268714016E+03  0.49268714016E+03  0.00000000000E+00 0. -1.
          3   -1    0    0  504    0 -0.00000000000E+00 -0.00000000000E+00 -0.14242336321E+04  0.14242336321E+04  0.00000000000E+00 0. -1.
         21    1    1    2  503  502  0.53276599913E+02  0.20210205851E+02  0.43969893141E+03  0.44337568585E+03  0.00000000000E+00 0. -1.
         21    1    1    2  504  503  0.13601294735E+02  0.46956003278E+02 -0.87871683155E+02  0.10055493107E+03  0.00000000000E+00 0.  1.
         21    1    1    2  505  501 -0.16448712177E+03 -0.11632256033E+03 -0.19917711030E+03  0.28329926321E+03  0.00000000000E+00 0.  1.
          3    1    1    2  501    0  0.97609227124E+02  0.49156351205E+02 -0.10841966299E+04  0.10896908921E+04  0.00000000000E+00 0. -1.
<scales pt_clust_3="57.02175" pt_clust_4="48.88621" pt_clust_5="14000.00000" pt_clust_6="150.84148"></scales>
<clustering>
<clus scale="   48.886">  2  4  1 -1</clus>
<clus scale="   57.022">  1  3  2 -1</clus>
<clus scale="  150.841">  2  6  1 -1</clus>
<clus scale="   57.022">  1  3  2 -1</clus>
</clustering>
</event>
<event>
 6    0  0.3667994E+002  0.7470993E+02  0.7546771E-02  0.1344772E+00
         -1   -1    0    0    0  501 -0.00000000000E+00  0.00000000000E+00  0.24026369734E+04  0.24026369734E+04  0.00000000000E+00 0. -1.
         21   -1    0    0  504  502  0.00000000000E+00 -0.00000000000E+00 -0.57529288065E+02  0.57529288065E+02  0.00000000000E+00 0. -1.
         21    1    1    2  503  502  0.43206356486E+02  0.35071881855E+02  0.49163189305E+03  0.49477140621E+03  0.00000000000E+00 0.  1.
         21    1    1    2  504  505 -0.39881089951E+02 -0.38775351043E+02 -0.32918739377E+02  0.64634917702E+02  0.00000000000E+00 0. -1.
         21    1    1    2  505  501 -0.22443720425E+02 -0.68845563698E+02  0.20013139352E+03  0.21282858572E+03  0.00000000000E+00 0. -1.
         -1    1    1    2    0  503  0.19118453890E+02  0.72549032885E+02  0.16862631381E+04  0.16879313518E+04  0.00000000000E+00 0. -1.
<scales pt_clust_3="45.72156" pt_clust_4="55.62400" pt_clust_5="74.70993" pt_clust_6="14000.00000"></scales>
<clustering>
<clus scale="   55.624">  2  4  1 -1</clus>
<clus scale="   45.722">  2  3  1 -1</clus>
<clus scale="   74.710">  2  5  1 -1</clus>
<clus scale="   55.624">  2  3  1 -1</clus>
</clustering>
</event>
<event>
 6    0  0.3667994E+002  0.1168497E+03  0.7546771E-02  0.1248386E+00
         -4   -1    0    0    0  501 -0.00000000000E+00  0.00000000000E+00  0.55952539149E+02  0.55952539149E+02  0.00000000000E+00 0. -1.
         21   -1    0    0  504  502  0.00000000000E+00 -0.00000000000E+00 -0.14619305355E+04  0.14619305355E+04  0.00000000000E+00 0. -1.
         21    1    1    2  503  505 -0.59709202246E+02 -0.56794427165E+02 -0.12112954005E+03  0.14650311008E+03  0.00000000000E+00 0. -1.
         21    1    1    2  504  503  0.27341099229E+02 -0.11534779881E+03 -0.10798317195E+04  0.10863191027E+04  0.00000000000E+00 0. -1.
         21    1    1    2  505  501 -0.10067563585E+02  0.61481037584E+02 -0.13171563136E+03  0.14570614731E+03  0.00000000000E+00 0. -1.
         -4    1    1    2    0  502  0.42435666601E+02  0.11066118839E+03 -0.73301105420E+02  0.13935471457E+03  0.00000000000E+00 0. -1.
<scales pt_clust_3="74.52026" pt_clust_4="14000.00000" pt_clust_5="62.29987" pt_clust_6="116.84968"></scales>
<clustering>
<clus scale="   62.300">  1  5  2 -1</clus>
<clus scale="   74.520">  1  3  2 -1</clus>
<clus scale="  116.850">  1  6  2 -1</clus>
<clus scale="  116.850">  2  3  1 -1</clus>
</clustering>
</event>
<event>
 6    0  0.3667994E+002  0.1466618E+03  0.7546771E-02  0.1204636E+00
         21   -1    0    0  505  502  0.00000000000E+00  0.00000000000E+00  0.13953826604E+03  0.13953826604E+03  0.00000000000E+00 0.  1.
          2   -1    0    0  503    0 -0.00000000000E+00 -0.00000000000E+00 -0.18682559302E+04  0.18682559302E+04  0.00000000000E+00 0. -1.
         21    1    1    2  503  502  0.33973705545E+02 -0.61154627861E+01 -0.21400885189E+03  0.21677499912E+03  0.00000000000E+00 0.  1.
         21    1    1    2  504  501 -0.10272338325E+03  0.78893665084E+02  0.85786529072E+02  0.15535646889E+03  0.00000000000E+00 0.  1.
         21    1    1    2  505  504  0.48320593069E+02  0.60562286292E+02 -0.88336758628E+02  0.11749916238E+03  0.00000000000E+00 0. -1.
          2    1    1    2  501    0  0.20429084632E+02 -0.13334048859E+03 -0.15121585827E+04  0.15181635658E+04  0.00000000000E+00 0. -1.
<scales pt_clust_3="34.51973" pt_clust_4="146.66183" pt_clust_5="78.52136" pt_clust_6="14000.00000"></scales>
<clustering>
<clus scale="   34.520">  2  3  1 -1</clus>
<clus scale="   78.521">  1  5  2 -1</clus>
<clus scale="  146.662">  1  4  2 -1</clus>
<clus scale="   78.521">  1  3  2 -1</clus>
</clustering>
</event>
<event>
 6    0  0.3667994E+002  0.1527465E+03  0.7546771E-02  0.1197138E+00
         21   -1    0    0  501  502  0.00000000000E+00  0.00000000000E+00  0.32654404861E+03  0.32654404861E+03  0.00000000000E+00 0. -1.
          3   -1    0    0  504    0 -0.00000000000E+00 -0.00000000000E+00 -0.12104459843E+04  0.12104459843E+04  0.00000000000E+00 0.  1.
         21    1    1    2  503  502  0.48725185096E+02  0.82067316135E+01  0.29773482423E+03  0.30180709015E+03  0.00000000000E+00 0. -1.
         21    1    1    2  504  505 -0.47783781243E+02 -0.64187868707E+01 -0.11270571428E+03  0.12258494445E+03  0.00000000000E+00 0. -1.
         21    1    1    2  505  503  0.82906143496E+02  0.11961350197E+03 -0.35674093106E+03  0.38528549204E+03  0.00000000000E+00 0.  1.
          3    1    1    2  501    0 -0.83847547350E+02 -0.12140144672E+03 -0.71219011455E+03  0.72731250624E+03  0.00000000000E+00 0.  1.
<scales pt_clust_3="49.32170" pt_clust_4="48.21297" pt_clust_5="152.74646" pt_clust_6="14000.00000"></scales>
<clustering>
<clus scale="   48.213">  2  4  1 -1</clus>
<clus scale="   49.322">  1  3  2 -1</clus>
<clus scale="  152.746">  1  5  2 -1</clus>
<clus scale="   49.322">  1  3  2 -1</clus>
</clustering>
</event>
<event>
 6    0  0.3667994E+002  0.1062618E+03  0.7546771E-02  0.1267653E+00
          2   -1    0    0  504    0 -0.00000000000E+00  0.00000000000E+00  0.27824598981E+04  0.27824598981E+04  0.00000000000E+00 0. -1.
         21   -1    0    0  505  502  0.00000000000E+00 -0.00000000000E+00 -0.25467942057E+03  0.25467942057E+03  0.00000000000E+00 0.  1.
         21    1    1    2  503  502  0.71703430569E+02 -0.31101225821E+02  0.17511772643E+03  0.19176779269E+03  0.00000000000E+00 0.  1.
         21    1    1    2  504  503 -0.51322332088E+02  0.13207274073E+02  0.12946209988E+04  0.12957051920E+04  0.00000000000E+00 0. -1.
         21    1    1    2  505  501 -0.77965762720E+02 -0.72236510133E+02 -0.23200560627E+03  0.25519281904E+03  0.00000000000E+00 0.  1.
          2    1    1    2  501    0  0.57584664238E+02  0.90130461881E+02  0.12900473585E+04  0.12944735150E+04  0.00000000000E+00 0. -1.
<scales pt_clust_3="71.70975" pt_clust_4="52.99447" pt_clust_5="14000.00000" pt_clust_6="106.26175"></scales>
<clustering>
<clus scale="   52.994">  1  4  2 -1</clus>
<clus scale="   71.710">  1  3  2 -1</clus>
<clus scale="  106.262">  1  6  2 -1</clus>
<clus scale="  106.262">  2  3  1 -1</clus>
</clustering>
</event>
<event>
 6    0  0.3667994E+002  0.1473250E+03  0.7546771E-02  0.1203799E+00
          2   -1    0    0  505    0 -0.00000000000E+00  0.00000000000E+00  0.16277973313E+04  0.16277973313E+04  0.00000000000E+00 0.  1.
         21   -1    0    0  503  502  0.00000000000E+00 -0.00000000000E+00 -0.37138661574E+03  0.37138661574E+03  0.00000000000E+00 0.  1.
         21    1    1    2  503  501  0.13109113396E+03 -0.84439158096E+01 -0.33352900487E+03  0.35846587314E+03  0.00000000000E+00 0.  1.
         21    1    1    2  504  502 -0.48776554207E+02 -0.14600709566E+03  0.37919444118E+03  0.40925010500E+03  0.00000000000E+00 0. -1.
         21    1    1    2  505  504  0.32501151480E+02  0.33493505941E+02  0.13425294417E+03  0.14213371453E+03  0.00000000000E+00 0. -1.
          2    1    1    2  501    0 -0.11481573123E+03  0.12095750553E+03  0.10764923351E+04  0.10893342544E+04  0.00000000000E+00 0.  1.
<scales pt_clust_3="131.61660" pt_clust_4="147.32505" pt_clust_5="46.67055" pt_clust_6="14000.00000"></scales>
<clustering>
<clus scale="   46.671">  1  5  2 -1</clus>
<clus scale="  131.617">  2  3  1 -1</clus>
<clus scale="  147.325">  2  4  1 -1</clus>
<clus scale="  131.617">  2  3  1 -1</clus>
</clustering>
</event>
<event>
 6    0  0.3667994E+002  0.3077609E+03  0.7546771E-02  0.1081424E+00
         21   -1    0    0  504  502  0.00000000000E+00  0.00000000000E+00  0.11334215249E+03  0.11334215249E+03  0.00000000000E+00 0. -1.
          1   -1    0    0  505    0 -0.00000000000E+00 -0.00000000000E+00 -0.15271410461E+04  0.15271410461E+04  0.00000000000E+00 0.  1.
         21    1    1    2  503  502  0.28794541352E+02  0.23336849359E+02  0.86892144742E+01  0.38068840248E+02  0.00000000000E+00 0. -1.
         21    1    1    2  504  501 -0.92577905526E+02 -0.12325910834E+02 -0.36405454941E+03  0.37584346691E+03  0.00000000000E+00 0.  1.
         21    1    1    2  505  503  0.26158441115E+03  0.90090906533E+02 -0.20402608233E+03  0.34375778954E+03  0.00000000000E+00 0. -1.
          1    1    1    2  501    0 -0.19780104697E+03 -0.10110184506E+03 -0.85440747631E+03  0.88281310187E+03  0.00000000000E+00 0.  1.
<scales pt_clust_3="37.06392" pt_clust_4="31.63832" pt_clust_5="303.86827" pt_clust_6="31.63832"></scales>
<clustering>
<clus scale="   31.638">  4  6 -1 -1</clus>
<clus scale="   37.064">  1  3  2 -1</clus>
<clus scale="  303.868">  1  5  2 -1</clus>
<clus scale="   37.064">  1  3  2 -1</clus>
</clustering>
</event>
<event>
 6    0  0.3667994E+002  0.1382711E+03  0.7546771E-02  0.1215674E+00
          2   -1    0    0  505    0 -0.00000000000E+00  0.00000000000E+00  0.22353359398E+04  0.22353359398E+04  0.00000000000E+00 0.  1.
         21   -1    0    0  503  502  0.00000000000E+00 -0.00000000000E+00 -0.62759742520E+02  0.62759742520E+02  0.00000000000E+00 0. -1.
         21    1    1    2  503  501 -0.44184882683E+02 -0.25345203066E+02 -0.32633878504E+02  0.60495067588E+02  0.00000000000E+00 0. -1.
         21    1    1    2  504  502 -0.10060516385E+03  0.65067156655E+02  0.32334941326E+03  0.34483325959E+03  0.00000000000E+00 0.  1.
         21    1    1    2  505  504  0.19166758888E+02  0.31146202736E+02  0.13200066187E+03  0.13697308248E+03  0.00000000000E+00 0.  1.
          2    1    1    2  501    0  0.12562328765E+03 -0.70868156325E+02  0.17498600006E+04  0.17557942726E+04  0.00000000000E+00 0.  1.
<scales pt_clust_3="50.72516" pt_clust_4="14000.00000" pt_clust_5="36.57117" pt_clust_6="138.27105"></scales>
<clustering>
<clus scale="   36.571">  1  5  2 -1</clus>
<clus scale="   50.725">  2  3  1 -1</clus>
<clus scale="  138.271">  1  6  2 -1</clus>
<clus scale="   50.725">  2  3  1 -1</clus>
</clustering>
</event>
<event>
 6    0  0.3667994E+002  0.1381673E+03  0.7546771E-02  0.1215817E+00
         21   -1    0    0  501  502  0.00000000000E+00  0.00000000000E+00  0.34528114598E+03  0.34528114598E+03  0.00000000000E+00 0. -1.
          2   -1    0    0  505    0 -0.00000000000E+00 -0.00000000000E+00 -0.15894405748E+04  0.15894405748E+04  0.00000000000E+00 0. -1.
         21    1    1    2  503  504 -0.78980654410E+02 -0.79872584791E+02 -0.13513712291E+02  0.11313794232E+03  0.00000000000E+00 0. -1.
         21    1    1    2  504  502 -0.77583816682E+01 -0.30880423152E+02  0.28674699670E+03  0.28850932937E+03  0.00000000000E+00 0. -1.
         21    1    1    2  505  503  0.11989866866E+02 -0.34857665671E+02 -0.10607745306E+03  0.11229977654E+03  0.00000000000E+00 0.  1.
          2    1    1    2  501    0  0.74749169211E+02  0.14561067361E+03 -0.14113152601E+04  0.14207746725E+04  0.00000000000E+00 0. -1.
<scales pt_clust_3="138.16725" pt_clust_4="31.84012" pt_clust_5="38.31320" pt_clust_6="14000.00000"></scales>
<clustering>
<clus scale="   31.840">  1  4  2 -1</clus>
<clus scale="   38.313">  2  5  1 -1</clus>
<clus scale="  138.167">  1  3  2 -1</clus>
<clus scale="   31.840">  1  3  2 -1</clus>
</clustering>
</event>
<event>
 6    0  0.3667994E+002  0.9074799E+02  0.7546771E-02  0.1301050E+00
          2   -1    0    0  503    0 -0.00000000000E+00  0.00000000000E+00  0.22295249513E+04  0.22295249513E+04  0.00000000000E+00 0. -1.
         21   -1    0    0  504  502  0.00000000000E+00 -0.00000000000E+00 -0.12298626377E+03  0.12298626377E+03  0.00000000000E+00 0.  1.
         21    1    1    2  503  505 -0.82372161226E+02  0.44037595950E+02  0.13908534490E+03  0.16753869991E+03  0.00000000000E+00 0.  1.
         21    1    1    2  504  501  0.28736705111E+02 -0.56533441899E+02  0.29109485908E+03  0.29792288474E+03  0.00000000000E+00 0.  1.
         21    1    1    2  505  502 -0.37801140664E+02  0.97513605640E+01 -0.10051141991E+03  0.10782653106E+03  0.00000000000E+00 0.  1.
          2    1    1    2  501    0  0.91436596778E+02  0.27444853849E+01  0.17768699035E+04  0.17792230994E+04  0.00000000000E+00 0. -1.
<scales pt_clust_3="90.74799" pt_clust_4="58.97280" pt_clust_5="39.03864" pt_clust_6="14000.00000"></scales>
<clustering>
<clus scale="   39.039">  2  5  1 -1</clus>
<clus scale="   58.973">  2  4  1 -1</clus>
<clus scale="   90.748">  2  3  1 -1</clus>
<clus scale="   39.039">  2  3  1 -1</clus>
</clustering>
</event>
<event>
 6    0  0.3667994E+002  0.2325282E+03  0.7546771E-02  0.1124873E+00
          1   -1    0    0  502    0 -0.00000000000E+00  0.00000000000E+00  0.48113804353E+03  0.48113804353E+03  0.00000000000E+00 0.  1.
         21   -1    0    0  505  502  0.00000000000E+00 -0.00000000000E+00 -0.28902591720E+03  0.28902591720E+03  0.00000000000E+00 0.  1.
         21    1    1    2  503  504  0.57873949826E+02  0.39384217183E+02  0.12623944680E+03  0.14434995171E+03  0.00000000000E+00 0.  1.
         21    1    1    2  504  501  0.71368789977E+02  0.95322824510E+02  0.62060062714E+02  0.13428103529E+03  0.00000000000E+00 0.  1.
         21    1    1    2  505  503 -0.10829899382E+03 -0.19612942267E+03 -0.18583831030E+03  0.29108641341E+03  0.00000000000E+00 0.  1.
          1    1    1    2  501    0 -0.20943745982E+02  0.61422380975E+02  0.18965092712E+03  0.20044656030E+03  0.00000000000E+00 0.  1.
<scales pt_clust_3="67.88046" pt_clust_4="67.88046" pt_clust_5="216.19558" pt_clust_6="64.89491"></scales>
<clustering>
<clus scale="   64.895">  1  6  2 -1</clus>
<clus scale="   67.880">  3  4 -1 -1</clus>
<clus scale="  216.196">  2  5  1 -1</clus>
<clus scale="  216.196">  2  3  1 -1</clus>
</clustering>
</event>
<event>
 6    0  0.3667994E+002  0.1702438E+03  0.7546771E-02  0.1177594E+00
         21   -1    0    0  505  502  0.00000000000E+00  0.00000000000E+00  0.74970335268E+02  0.74970335268E+02  0.00000000000E+00 0. -1.
          3   -1    0    0  503    0 -0.00000000000E+00 -0.00000000000E+00 -0.20981788065E+04  0.20981788065E+04  0.00000000000E+00 0. -1.
         21    1    1    2  503  504  0.15489947924E+03  0.66725785246E+02 -0.88091224317E+03  0.89691279356E+03  0.00000000000E+00 0. -1.
         21    1    1    2  504  502  0.22690783696E+02  0.31422375317E+02  0.48649036136E+02  0.62201013273E+02  0.00000000000E+00 0. -1.
         21    1    1    2  505  501 -0.35288889705E+02  0.34266640083E+00 -0.57587337270E+02  0.67540540202E+02  0.00000000000E+00 0. -1.
          3    1    1    2  501    0 -0.14230137323E+03 -0.98490826964E+02 -0.11333579269E+04  0.11464947947E+04  0.00000000000E+00 0. -1.
<scales pt_clust_3="170.24378" pt_clust_4="32.12609" pt_clust_5="35.29055" pt_clust_6="14000.00000"></scales>
<clustering>
<clus scale="   35.291">  1  5  2 -1</clus>
<clus scale="   32.126">  1  4  2 -1</clus>
<clus scale="  170.244">  1  3  2 -1</clus>
<clus scale="   35.291">  1  3  2 -1</clus>
</clustering>
</event>
<event>
 6    0  0.3667994E+002  0.7991749E+02  0.7546771E-02  0.1329286E+00
          1   -1    0    0  503    0 -0.00000000000E+00  0.00000000000E+00  0.51881834263E+03  0.51881834263E+03  0.00000000000E+00 0.  1.
         21   -1    0    0  505  502  0.00000000000E+00 -0.00000000000E+00 -0.10095463965E+03  0.10095463965E+03  0.00000000000E+00 0.  1.
         21    1    1    2  503  502  0.61097340999E+02  0.82973833165E+02  0.13339595263E+03  0.16855866114E+03  0.00000000000E+00 0.  1.
         21    1    1    2  504  501  0.11629721804E+02 -0.78892100648E+02  0.11507775619E+03  0.14000751388E+03  0.00000000000E+00 0.  1.
         21    1    1    2  505  504 -0.84205775560E+01 -0.48225136612E+02 -0.55009061478E+02  0.73638079635E+02  0.00000000000E+00 0.  1.
          1    1    1    2  501    0 -0.64306485247E+02  0.44143404095E+02  0.22439905564E+03  0.23756872762E+03  0.00000000000E+00 0.  1.
<scales pt_clust_3="14000.00000" pt_clust_4="79.91749" pt_clust_5="48.95477" pt_clust_6="74.77118"></scales>
<clustering>
<clus scale="   48.955">  2  5  1 -1</clus>
<clus scale="   74.771">  1  6  2 -1</clus>
<clus scale="   79.917">  1  4  2 -1</clus>
<clus scale="   48.955">  2  3  1 -1</clus>
</clustering>
</event>
<event>
 6    0  0.3667994E+002  0.2002827E+03  0.7546771E-02  0.1149501E+00
          2   -1    0    0  503    0 -0.00000000000E+00  0.00000000000E+00  0.18691628347E+04  0.18691628347E+04  0.00000000000E+00 0. -1.
         21   -1    0    0  504  502  0.00000000000E+00 -0.00000000000E+00 -0.80042715673E+03  0.80042715673E+03  0.00000000000E+00 0.  1.
         21    1    1    2  503  505 -0.25625378168E+03 -0.23042467501E+02  0.35173471105E+03  0.43579153605E+03  0.00000000000E+00 0. -1.
         21    1    1    2  504  501  0.13722540752E+03 -0.76787884988E+01 -0.73426611593E+03  0.74701841026E+03  0.00000000000E+00 0.  1.
         21    1    1    2  505  502 -0.40085551466E+02  0.36584738913E+02  0.42203369855E+02  0.68748956245E+02  0.00000000000E+00 0. -1.
          2    1    1    2  501    0  0.15911392563E+03 -0.58634829127E+01  0.14090637130E+04  0.14180310889E+04  0.00000000000E+00 0. -1.
<scales pt_clust_3="48.98012" pt_clust_4="137.44008" pt_clust_5="48.98012" pt_clust_6="169.52776"></scales>
<clustering>
<clus scale="   48.980">  3  5 -1 -1</clus>
<clus scale="  137.440">  2  4  1 -1</clus>
<clus scale="  169.528">  1  6  2 -1</clus>
<clus scale="  137.440">  2  3  1 -1</clus>
</clustering>
</event>
<event>
 6    0  0.3667994E+002  0.2115390E+03  0.7546771E-02  0.1140353E+00
          2   -1    0    0  504    0 -0.00000000000E+00  0.00000000000E+00  0.12143827278E+03  0.12143827278E+03  0.00000000000E+00 0. -1.
         21   -1    0    0  501  502  0.00000000000E+00 -0.00000000000E+00 -0.26179171797E+04  0.26179171797E+04  0.00000000000E+00 0. -1.
         21    1    1    2  503  505  0.83731570264E+02 -0.12445083054E+03 -0.17060532385E+03  0.22716769491E+03  0.00000000000E+00 0. -1.
         21    1    1    2  504  503  0.32296713345E+02 -0.89228636595E+00  0.33117839112E+02  0.46267322543E+02  0.00000000000E+00 0. -1.
         21    1    1    2  505  502  0.11257768469E+03  0.18388798358E+03 -0.21168672084E+04  0.21278193775E+04  0.00000000000E+00 0. -1.
          2    1    1    2  501    0 -0.22860596830E+03 -0.58544866669E+02 -0.24212421378E+03  0.33810105746E+03  0.00000000000E+00 0. -1.
<scales pt_clust_3="156.75434" pt_clust_4="32.30904" pt_clust_5="211.53905" pt_clust_6="14000.00000"></scales>
<clustering>
<clus scale="   32.309">  1  4  2 -1</clus>
<clus scale="  156.754">  1  3  2 -1</clus>
<clus scale="  211.539">  2  5  1 -1</clus>
<clus scale="  211.539">  2  3  1 -1</clus>
</clustering>
</event>
<event>
 6    0  0.3667994E+002  0.9124282E+02  0.7546771E-02  0.1299870E+00
          2   -1    0    0  504    0 -0.00000000000E+00  0.00000000000E+00  0.39209221690E+04  0.39209221690E+04  0.00000000000E+00 0. -1.
         21   -1    0    0  503  502  0.00000000000E+00 -0.00000000000E+00 -0.51970827058E+02  0.51970827058E+02  0.00000000000E+00 0.  1.
         21    1    1    2  503  505 -0.57525196329E+02 -0.23190518303E+02  0.51158105497E+03  0.51532720106E+03  0.00000000000E+00 0.  1.
         21    1    1    2  504  502  0.35225165621E+02 -0.31943289438E+02 -0.34662734335E+02  0.58844635989E+02  0.00000000000E+00 0.  1.
         21    1    1    2  505  501 -0.59760100200E+02  0.90599154400E+02  0.12100431058E+04  0.12149007343E+04  0.00000000000E+00 0.  1.
          2    1    1    2  501    0  0.82060130909E+02 -0.35465346659E+02  0.21819899155E+04  0.21838204247E+04  0.00000000000E+00 0. -1.
<scales pt_clust_3="56.70382" pt_clust_4="47.55193" pt_clust_5="91.24282" pt_clust_6="14000.00000"></scales>
<clustering>
<clus scale="   47.552">  2  4  1 -1</clus>
<clus scale="   56.704">  2  3  1 -1</clus>
<clus scale="   91.243">  2  5  1 -1</clus>
<clus scale="   47.552">  2  3  1 -1</clus>
</clustering>
</event>
<event>
 6    0  0.3667994E+002  0.6998218E+02  0.7546771E-02  0.1360154E+00
          2   -1    0    0  503    0 -0.00000000000E+00  0.00000000000E+00  0.22935686715E+04  0.22935686715E+04  0.00000000000E+00 0. -1.
         21   -1    0    0  504  502  0.00000000000E+00 -0.00000000000E+00 -0.17782170613E+03  0.17782170613E+03  0.00000000000E+00 0.  1.
         21    1    1    2  503  505 -0.52681532651E+02  0.18183386612E+02  0.35528715382E+03  0.35963167421E+03  0.00000000000E+00 0. -1.
         21    1    1    2  504  501  0.46795229561E+02 -0.92531262030E+02  0.72377590758E+03  0.73116577624E+03  0.00000000000E+00 0. -1.
         21    1    1    2  505  502 -0.43769402848E+02  0.23892534971E+02 -0.16727758410E+03  0.17455200942E+03  0.00000000000E+00 0.  1.
          2    1    1    2  501    0  0.49655705939E+02  0.50455340447E+02  0.12039614881E+04  0.12060409178E+04  0.00000000000E+00 0. -1.
<scales pt_clust_3="14000.00000" pt_clust_4="69.98218" pt_clust_5="49.86596" pt_clust_6="69.11134"></scales>
<clustering>
<clus scale="   49.866">  2  5  1 -1</clus>
<clus scale="   69.111">  1  6  2 -1</clus>
<clus scale="   69.982">  2  4  1 -1</clus>
<clus scale="   49.866">  2  3  1 -1</clus>
</clustering>
</event>
<event>
 6    0  0.3667994E+002  0.7596423E+02  0.7546771E-02  0.1340911E+00
          2   -1    0    0  503    0 -0.00000000000E+00  0.00000000000E+00  0.18058356974E+04  0.18058356974E+04  0.00000000000E+00 0.  1.
         21   -1    0    0  505  502  0.00000000000E+00 -0.00000000000E+00 -0.16057790803E+03  0.16057790803E+03  0.00000000000E+00 0. -1.
         21    1    1    2  503  504 -0.40812939975E+02  0.10829873787E+02  0.15336560553E+03  0.15907228292E+03  0.00000000000E+00 0.  1.
         21    1    1    2  504  502  0.11511720223E+03  0.53098306025E+01  0.95993386108E+03  0.96682634542E+03  0.00000000000E+00 0.  1.
         21    1    1    2  505  501 -0.29527951741E+02 -0.39771504490E+02 -0.14933859191E+03  0.15733940236E+03  0.00000000000E+00 0. -1.
          2    1    1    2  501    0 -0.44776310512E+02  0.23631800100E+02  0.68129691471E+03  0.68317557476E+03  0.00000000000E+00 0.  1.
<scales pt_clust_3="42.22537" pt_clust_4="14000.00000" pt_clust_5="49.57256" pt_clust_6="75.96423"></scales>
<clustering>
<clus scale="   42.225">  1  3  2 -1</clus>
<clus scale="   49.573">  2  5  1 -1</clus>
<clus scale="   75.964">  2  6  1 -1</clus>
<clus scale="   49.573">  2  3  1 -1</clus>
</clustering>
</event>
<event>
 6    0  0.3667994E+002  0.2002382E+03  0.7546771E-02  0.1149538E+00
          1   -1    0    0  504    0 -0.00000000000E+00  0.00000000000E+00  0.33985848430E+03  0.33985848430E+03  0.00000000000E+00 0. -1.
         21   -1    0    0  503  502  0.00000000000E+00 -0.00000000000E+00 -0.68601216923E+03  0.68601216923E+03  0.00000000000E+00 0.  1.
         21    1    1    2  503  501 -0.39078148087E+02  0.12781469072E+02 -0.53682702622E+03  0.53839922333E+03  0.00000000000E+00 0.  1.
         21    1    1    2  504  505 -0.66009931913E+02 -0.65078066259E+02  0.14211826312E+03  0.16967635820E+03  0.00000000000E+00 0. -1.
         21    1    1    2  505  502 -0.38522184995E+02 -0.88303096639E+02  0.64888031200E+02  0.11615443257E+03  0.00000000000E+00 0. -1.
          1    1    1    2  501    0  0.14361026500E+03  0.14059969383E+03 -0.16332953025E+02  0.20164063943E+03  0.00000000000E+00 0. -1.
<scales pt_clust_3="41.11530" pt_clust_4="65.34477" pt_clust_5="65.34477" pt_clust_6="188.94559"></scales>
<clustering>
<clus scale="   41.115">  2  3  1 -1</clus>
<clus scale="   65.345">  4  5 -1 -1</clus>
<clus scale="  188.946">  2  6  1 -1</clus>
<clus scale="   41.115">  2  3  1 -1</clus>
</clustering>
</event>
<event>
 6    0  0.3667994E+002  0.8794969E+02  0.7546771E-02  0.1307894E+00
         21   -1    0    0  504  502  0.00000000000E+00  0.00000000000E+00  0.28979676872E+03  0.28979676872E+03  0.00000000000E+00 0.  1.
          2   -1    0    0  503    0 -0.00000000000E+00 -0.00000000000E+00 -0.13803722824E+03  0.13803722824E+03  0.00000000000E+00 0.  1.
         21    1    1    2  503  505 -0.27915383350E+02 -0.58972545234E+02  0.28976743093E+02  0.71391045372E+02  0.00000000000E+00 0.  1.
         21    1    1    2  504  501  0.67328814866E+02  0.45257334805E+01  0.13618409730E+02  0.68841213371E+02  0.00000000000E+00 0.  1.
         21    1    1    2  505  502 -0.23962471530E+02 -0.54160025684E+02  0.15709463055E+03  0.16788755574E+03  0.00000000000E+00 0.  1.
          2    1    1    2  501    0 -0.15450959986E+02  0.10860683744E+03 -0.47930242891E+02  0.11971418248E+03  0.00000000000E+00 0.  1.
<scales pt_clust_3="87.94969" pt_clust_4="60.97341" pt_clust_5="59.22422" pt_clust_6="14000.00000"></scales>
<clustering>
<clus scale="   59.224">  1  5  2 -1</clus>
<clus scale="   60.973">  1  4  2 -1</clus>
<clus scale="   87.950">  1  3  2 -1</clus>
<clus scale="   59.224">  1  3  2 -1</clus>
</clustering>
</event>
<event>
 6    0  0.3667994E+002  0.8954736E+02  0.7546771E-02  0.1303952E+00
         21   -1    0    0  501  502  0.00000000000E+00  0.00000000000E+00  0.11866718391E+03  0.11866718391E+03  0.00000000000E+00 0. -1.
          2   -1    0    0  504    0 -0.00000000000E+00 -0.00000000000E+00 -0.10164160530E+04  0.10164160530E+04  0.00000000000E+00 0. -1.
         21    1    1    2  503  505  0.43852981083E+02  0.15158261344E+02 -0.63675444713E+03  0.63844270125E+03  0.00000000000E+00 0. -1.
         21    1    1    2  504  503  0.61622016958E+01 -0.44709538467E+02 -0.11766056425E+03  0.12601953793E+03  0.00000000000E+00 0.  1.
         21    1    1    2  505  502 -0.83129975317E+01 -0.87172965707E+02  0.77787603470E+02  0.11712874597E+03  0.00000000000E+00 0. -1.
          2    1    1    2  501    0 -0.41702185247E+02  0.11672424283E+03 -0.22112146122E+03  0.25349225181E+03  0.00000000000E+00 0. -1.
<scales pt_clust_3="51.05621" pt_clust_4="45.13220" pt_clust_5="89.54736" pt_clust_6="14000.00000"></scales>
<clustering>
<clus scale="   45.132">  2  4  1 -1</clus>
<clus scale="   51.056">  2  3  1 -1</clus>
<clus scale="   89.547">  1  5  2 -1</clus>
<clus scale="   89.547">  1  3  2 -1</clus>
</clustering>
</event>
<event>
 6    0  0.3667994E+002  0.6252487E+02  0.7546771E-02  0.1387531E+00
          2   -1    0    0  504    0 -0.00000000000E+00  0.00000000000E+00  0.11141377672E+03  0.11141377672E+03  0.00000000000E+00 0. -1.
         21   -1    0    0  503  502  0.00000000000E+00 -0.00000000000E+00 -0.67276259563E+03  0.67276259563E+03  0.00000000000E+00 0. -1.
         21    1    1    2  503  501 -0.52173847781E+02  0.29475377944E+02  0.17113242138E+02  0.62319911375E+02  0.00000000000E+00 0. -1.
         21    1    1    2  504  505 -0.63560369232E+02 -0.58935415922E+02 -0.13230842430E+03  0.15817339513E+03  0.00000000000E+00 0. -1.
         21    1    1    2  505  502  0.44373521982E+02  0.19326154454E+02 -0.48113695227E+03  0.48356517300E+03  0.00000000000E+00 0. -1.
          2    1    1    2  501    0  0.71360695031E+02  0.10133883523E+02  0.34983315512E+02  0.80117892851E+02  0.00000000000E+00 0. -1.
<scales pt_clust_3="14000.00000" pt_clust_4="53.25402" pt_clust_5="48.39948" pt_clust_6="62.52487"></scales>
<clustering>
<clus scale="   48.399">  2  5  1 -1</clus>
<clus scale="   53.254">  2  4  1 -1</clus>
<clus scale="   62.525">  1  6  2 -1</clus>
<clus scale="   48.399">  2  3  1 -1</clus>
</clustering>
</event>
<event>
 6    0  0.3667994E+002  0.1121917E+03  0.7546771E-02  0.1256564E+00
         21   -1    0    0  503  502  0.00000000000E+00  0.00000000000E+00  0.78673720059E+03  0.78673720059E+03  0.00000000000E+00 0.  1.
         -3   -1    0    0    0  501 -0.00000000000E+00 -0.00000000000E+00 -0.10986035051E+04  0.10986035051E+04  0.00000000000E+00 0. -1.
         21    1    1    2  503  504  0.34708151763E+02  0.43082579757E+02 -0.54934471724E+02  0.77965124645E+02  0.00000000000E+00 0.  1.
         21    1    1    2  504  501 -0.50344035715E+02 -0.61406972407E+01 -0.55721055639E+02  0.75346308046E+02  0.00000000000E+00 0.  1.
         21    1    1    2  505  502  0.78805890278E+01  0.11176139057E+03  0.75551892681E+03  0.76378109487E+03  0.00000000000E+00 0.  1.
         -3    1    1    2    0  505  0.77552949244E+01 -0.14870327308E+03 -0.95672970396E+03  0.96824817814E+03  0.00000000000E+00 0. -1.
<scales pt_clust_3="53.03381" pt_clust_4="50.71716" pt_clust_5="14000.00000" pt_clust_6="112.19170"></scales>
<clustering>
<clus scale="   50.717">  2  4  1 -1</clus>
<clus scale="   53.034">  2  3  1 -1</clus>
<clus scale="  112.192">  2  6  1 -1</clus>
<clus scale="  112.192">  1  3  2 -1</clus>
</clustering>
</event>
<event>
 6    0  0.3667994E+002  0.1130478E+03  0.7546771E-02  0.1255028E+00
         21   -1    0    0  505  502  0.00000000000E+00  0.00000000000E+00  0.12781664143E+03  0.12781664143E+03  0.00000000000E+00 0. -1.
          2   -1    0    0  503    0 -0.00000000000E+00 -0.00000000000E+00 -0.14640407976E+04  0.14640407976E+04  0.00000000000E+00 0. -1.
         21    1    1    2  503  504 -0.33189324133E+02  0.53776449029E+01 -0.11846304408E+03  0.12314196325E+03  0.00000000000E+00 0.  1.
         21    1    1    2  504  502 -0.15449404208E+02  0.15561937040E+03  0.61646326120E+02  0.16809622856E+03  0.00000000000E+00 0. -1.
         21    1    1    2  505  501  0.44114959199E+01 -0.45814961937E+02 -0.63277139029E+02  0.78246203468E+02  0.00000000000E+00 0. -1.
          2    1    1    2  501    0  0.44227232422E+02 -0.11518205336E+03 -0.12161302992E+04  0.12223730437E+04  0.00000000000E+00 0. -1.
<scales pt_clust_3="33.62217" pt_clust_4="14000.00000" pt_clust_5="45.60948" pt_clust_6="113.04785"></scales>
<clustering>
<clus scale="   33.622">  2  3  1 -1</clus>
<clus scale="   45.609">  1  5  2 -1</clus>
<clus scale="  113.048">  2  6  1 -1</clus>
<clus scale="   45.609">  1  3  2 -1</clus>
</clustering>
</event>
<event>
 6    0  0.3667994E+002  0.1075894E+03  0.7546771E-02  0.1265100E+00
          3   -1    0    0  503    0 -0.00000000000E+00  0.00000000000E+00  0.13313966644E+03  0.13313966644E+03  0.00000000000E+00 0. -1.
         21   -1    0    0  505  502  0.00000000000E+00 -0.00000000000E+00 -0.41422718923E+03  0.41422718923E+03  0.00000000000E+00 0.  1.
         21    1    1    2  503  502 -0.22794152587E+02  0.99872277834E+02  0.26589369100E+02  0.10583496502E+03  0.00000000000E+00 0. -1.
         21    1    1    2  504  501  0.36887607467E+02 -0.88875379514E+02 -0.26071259933E+03  0.27790391886E+03  0.00000000000E+00 0.  1.
         21    1    1    2  505  504 -0.57651552503E+02 -0.26758601850E+02 -0.83283110870E+02  0.10476545631E+03  0.00000000000E+00 0.  1.
          3    1    1    2  501    0  0.43558097623E+02  0.15761703530E+02  0.36318818307E+02  0.58862515491E+02  0.00000000000E+00 0. -1.
<scales pt_clust_3="107.58943" pt_clust_4="14000.00000" pt_clust_5="57.76722" pt_clust_6="46.32212"></scales>
<clustering>
<clus scale="   46.322">  1  6  2 -1</clus>
<clus scale="   57.767">  2  5  1 -1</clus>
<clus scale="  107.589">  1  3  2 -1</clus>
<clus scale="   57.767">  2  3  1 -1</clus>
</clustering>
</event>
<event>
 6    0  0.3667994E+002  0.1236695E+03  0.7546771E-02  0.1237163E+00
         21   -1    0    0  505  502  0.00000000000E+00  0.00000000000E+00  0.12290511446E+03  0.12290511446E+03  0.00000000000E+00 0. -1.
          2   -1    0    0  504    0 -0.00000000000E+00 -0.00000000000E+00 -0.23805307208E+04  0.23805307208E+04  0.00000000000E+00 0.  1.
         21    1    1    2  503  502 -0.48718110973E+02  0.10965924959E+02  0.98748935774E+02  0.11065739091E+03  0.00000000000E+00 0. -1.
         21    1    1    2  504  503 -0.10879950296E+03 -0.18746497089E+02 -0.91679122115E+03  0.92341480721E+03  0.00000000000E+00 0. -1.
         21    1    1    2  505  501  0.30523526292E+02 -0.52026143351E+02 -0.69155271130E+02  0.91765226390E+02  0.00000000000E+00 0. -1.
          2    1    1    2  501    0  0.12699408764E+03  0.59806715481E+02 -0.13704280499E+04  0.13775984108E+04  0.00000000000E+00 0.  1.
<scales pt_clust_3="49.93702" pt_clust_4="14000.00000" pt_clust_5="45.21614" pt_clust_6="123.66950"></scales>
<clustering>
<clus scale="   49.937">  1  3  2 -1</clus>
<clus scale="   45.216">  1  5  2 -1</clus>
<clus scale="  123.669">  1  6  2 -1</clus>
<clus scale="   49.937">  1  3  2 -1</clus>
</clustering>
</event>
<event>
 6    0  0.3667994E+002  0.7407841E+02  0.7546771E-02  0.1346749E+00
         21   -1    0    0  505  502  0.00000000000E+00  0.00000000000E+00  0.24659072796E+03  0.24659072796E+03  0.00000000000E+00 0.  1.
         -2   -1    0    0    0  501 -0.00000000000E+00 -0.00000000000E+00 -0.10560811281E+04  0.10560811281E+04  0.00000000000E+00 0.  1.
         21    1    1    2  503  502  0.95202118616E+01 -0.10026715235E+03 -0.57178809631E+03  0.58059087433E+03  0.00000000000E+00 0. -1.
         21    1    1    2  504  501  0.59216492064E+01  0.37415954556E+02 -0.51699277558E+02  0.64092393345E+02  0.00000000000E+00 0. -1.
         21    1    1    2  505  504  0.29778509088E+02  0.67674784420E+02  0.22892866979E+03  0.24057217608E+03  0.00000000000E+00 0.  1.
         -2    1    1    2    0  503 -0.45220370156E+02 -0.48235866265E+01 -0.41493169604E+03  0.41741641228E+03  0.00000000000E+00 0.  1.
<scales pt_clust_3="74.07841" pt_clust_4="37.88165" pt_clust_5="14000.00000" pt_clust_6="44.08871"></scales>
<clustering>
<clus scale="   37.882">  2  4  1 -1</clus>
<clus scale="   44.089">  2  6  1 -1</clus>
<clus scale="   74.078">  2  3  1 -1</clus>
<clus scale="   74.078">  1  3  2 -1</clus>
</clustering>
</event>
<event>
 6    0  0.3667994E+002  0.9686582E+02  0.7546771E-02  0.1287028E+00
         -1   -1    0    0    0  501 -0.00000000000E+00  0.00000000000E+00  0.19978226256E+03  0.19978226256E+03  0.00000000000E+00 0.  1.
         21   -1    0    0  505  502  0.00000000000E+00 -0.00000000000E+00 -0.26563016157E+03  0.26563016157E+03  0.00000000000E+00 0.  1.
         21    1    1    2  503  501 -0.29887666298E+02  0.20726945302E+02  0.96285965680E+02  0.10292650798E+03  0.00000000000E+00 0.  1.
         21    1    1    2  504  503 -0.48060371666E+02  0.18376603550E+02  0.10578096435E+02  0.52529943907E+02  0.00000000000E+00 0.  1.
         21    1    1    2  505  504  0.11008759204E+03  0.13473366313E+02 -0.21031478944E+03  0.23776694509E+03  0.00000000000E+00 0.  1.
         -1    1    1    2    0  502 -0.32139554076E+02 -0.52576915165E+02  0.37602828309E+02  0.72189027153E+02  0.00000000000E+00 0.  1.
<scales pt_clust_3="36.37140" pt_clust_4="62.63864" pt_clust_5="14000.00000" pt_clust_6="96.86582"></scales>
<clustering>
<clus scale="   36.371">  1  3  2 -1</clus>
<clus scale="   62.639">  1  4  2 -1</clus>
<clus scale="   96.866">  1  6  2 -1</clus>
<clus scale="   96.866">  2  3  1 -1</clus>
</clustering>
</event>
<event>
 6    0  0.3667994E+002  0.6556560E+02  0.7546771E-02  0.1375856E+00
         21   -1    0    0  505  502  0.00000000000E+00  0.00000000000E+00  0.13161907815E+04  0.13161907815E+04  0.00000000000E+00 0.  1.
          2   -1    0    0  504    0 -0.00000000000E+00 -0.00000000000E+00 -0.86528370795E+03  0.86528370795E+03  0.00000000000E+00 0. -1.
         21    1    1    2  503  501  0.60596535519E+02  0.59760696964E+01 -0.38576960074E+02  0.72082143243E+02  0.00000000000E+00 0.  1.
         21    1    1    2  504  502 -0.86815981826E+02 -0.34587445155E+02 -0.24745853524E+02  0.96672971038E+02  0.00000000000E+00 0. -1.
         21    1    1    2  505  503  0.42135155952E+01 -0.33254466719E+02  0.12618129608E+04  0.12622581200E+04  0.00000000000E+00 0.  1.
          2    1    1    2  501    0  0.22005930711E+02  0.61865842178E+02 -0.74758307372E+03  0.75046125518E+03  0.00000000000E+00 0. -1.
<scales pt_clust_3="62.04990" pt_clust_4="65.56560" pt_clust_5="33.52034" pt_clust_6="14000.00000"></scales>
<clustering>
<clus scale="   33.520">  1  5  2 -1</clus>
<clus scale="   62.050">  1  3  2 -1</clus>
<clus scale="   65.566">  1  4  2 -1</clus>
<clus scale="   33.520">  1  3  2 -1</clus>
</clustering>
</event>
<event>
 6    0  0.3667994E+002  0.1930428E+03  0.7546771E-02  0.1155745E+00
         21   -1    0    0  505  502  0.00000000000E+00  0.00000000000E+00  0.33267983509E+03  0.33267983509E+03  0.00000000000E+00 0. -1.
          2   -1    0    0  504    0 -0.00000000000E+00 -0.00000000000E+00 -0.11192916907E+04  0.11192916907E+04  0.00000000000E+00 0.  1.
         21    1    1    2  503  502  0.84134359307E+01  0.97961684392E+02  0.27911561134E+03  0.29592702142E+03  0.00000000000E+00 0. -1.
         21    1    1    2  504  503 -0.93530522677E+01  0.98676783468E+02 -0.38081344781E+02  0.10618274814E+03  0.00000000000E+00 0.  1.
         21    1    1    2  505  501  0.30484881905E+02 -0.66883588631E+02 -0.23836341613E+03  0.24943909197E+03  0.00000000000E+00 0.  1.
          2    1    1    2  501    0 -0.29545265568E+02 -0.12975487923E+03 -0.78928270603E+03  0.80042266425E+03  0.00000000000E+00 0.  1.
<scales pt_clust_3="98.32231" pt_clust_4="172.56869" pt_clust_5="64.30080" pt_clust_6="64.30080"></scales>
<clustering>
<clus scale="   64.301">  5  6 -1 -1</clus>
<clus scale="   98.322">  1  3  2 -1</clus>
<clus scale="  172.569">  1  4  2 -1</clus>
<clus scale="   98.322">  1  3  2 -1</clus>
</clustering>
</event>
<event>
 6    0  0.3667994E+002  0.1693999E+03  0.7546771E-02  0.1178475E+00
          2   -1    0    0  505    0 -0.00000000000E+00  0.00000000000E+00  0.58530325731E+03  0.58530325731E+03  0.00000000000E+00 0. -1.
         21   -1    0    0  503  502  0.00000000000E+00 -0.00000000000E+00 -0.16158396653E+03  0.16158396653E+03  0.00000000000E+00 0. -1.
         21    1    1    2  503  504 -0.71470421514E+02  0.14898440686E+03 -0.86926944057E+02  0.18671011821E+03  0.00000000000E+00 0. -1.
         21    1    1    2  504  501  0.30435286448E+02 -0.47403020717E+02  0.11463342983E+03  0.12772695983E+03  0.00000000000E+00 0.  1.
         21    1    1    2  505  502 -0.35736809521E+02 -0.33029380081E+02  0.43677222365E+02  0.65389290077E+02  0.00000000000E+00 0. -1.
          2    1    1    2  501    0  0.76771944587E+02 -0.68552006058E+02  0.35233558265E+03  0.36706085573E+03  0.00000000000E+00 0. -1.
<scales pt_clust_3="163.95231" pt_clust_4="31.52648" pt_clust_5="48.66271" pt_clust_6="31.52648"></scales>
<clustering>
<clus scale="   31.526">  4  6 -1 -1</clus>
<clus scale="   48.663">  1  5  2 -1</clus>
<clus scale="  163.952">  2  3  1 -1</clus>
<clus scale="  163.952">  2  3  1 -1</clus>
</clustering>
</event>
<event>
 6    0  0.3667994E+002  0.9610212E+02  0.7546771E-02  0.1288713E+00
         21   -1    0    0  504  502  0.00000000000E+00  0.00000000000E+00  0.30648592633E+03  0.30648592633E+03  0.00000000000E+00 0.  1.
          1   -1    0    0  505    0 -0.00000000000E+00 -0.00000000000E+00 -0.13814858199E+04  0.13814858199E+04  0.00000000000E+00 0.  1.
         21    1    1    2  503  502 -0.10118686551E+03 -0.85652529505E+02  0.26918406914E+03  0.30005866200E+03  0.00000000000E+00 0.  1.
         21    1    1    2  504  501  0.58422952203E+02 -0.12471703073E+02 -0.38478440425E+02  0.71058955095E+02  0.00000000000E+00 0.  1.
         21    1    1    2  505  503 -0.10968334655E+02  0.64813858487E+02 -0.22776304137E+03  0.23705936731E+03  0.00000000000E+00 0.  1.
          1    1    1    2  501    0  0.53732247957E+02  0.33310374091E+02 -0.10779424809E+04  0.10797947619E+04  0.00000000000E+00 0.  1.
<scales pt_clust_3="14000.00000" pt_clust_4="59.73931" pt_clust_5="96.10212" pt_clust_6="63.35738"></scales>
<clustering>
<clus scale="   59.739">  1  4  2 -1</clus>
<clus scale="   63.357">  2  6  1 -1</clus>
<clus scale="   96.102">  2  5  1 -1</clus>
<clus scale="   59.739">  1  3  2 -1</clus>
</clustering>
</event>
<event>
 6    0  0.3667994E+002  0.9059440E+02  0.7546771E-02  0.1301419E+00
         21   -1    0    0  501  502  0.00000000000E+00  0.00000000000E+00  0.63030670667E+02  0.63030670667E+02  0.00000000000E+00 0.  1.
          2   -1    0    0  503    0 -0.00000000000E+00 -0.00000000000E+00 -0.11315737127E+04  0.11315737127E+04  0.00000000000E+00 0. -1.
         21    1    1    2  503  504  0.44185351952E+02  0.14468417243E+02 -0.29486371105E+03  0.29850676462E+03  0.00000000000E+00 0. -1.
         21    1    1    2  504  505 -0.61193208245E+02  0.10850577250E+03 -0.25334693102E+03  0.28231680583E+03  0.00000000000E+00 0.  1.
         21    1    1    2  505  502  0.74542808388E+02 -0.45043107307E+02 -0.26728643809E+01  0.87135847975E+02  0.00000000000E+00 0.  1.
          2    1    1    2  501    0 -0.57534952096E+02 -0.77931082433E+02 -0.51765953556E+03  0.52664496492E+03  0.00000000000E+00 0. -1.
<scales pt_clust_3="46.49388" pt_clust_4="90.59440" pt_clust_5="14000.00000" pt_clust_6="75.09212"></scales>
<clustering>
<clus scale="   46.494">  2  3  1 -1</clus>
<clus scale="   75.092">  2  6  1 -1</clus>
<clus scale="   90.594">  2  4  1 -1</clus>
<clus scale="   90.594">  1  3  2 -1</clus>
</clustering>
</event>
<event>
 6    0  0.3667994E+002  0.1100323E+03  0.7546771E-02  0.1260510E+00
          4   -1    0    0  503    0 -0.00000000000E+00  0.00000000000E+00  0.55985564627E+03  0.55985564627E+03  0.00000000000E+00 0. -1.
         21   -1    0    0  504  502  0.00000000000E+00 -0.00000000000E+00 -0.21178954904E+03  0.21178954904E+03  0.00000000000E+00 0. -1.
         21    1    1    2  503  505 -0.40397973749E+02  0.87349763971E+02  0.74912164656E+02  0.12195823040E+03  0.00000000000E+00 0. -1.
         21    1    1    2  504  501  0.79477322748E+00 -0.11099924496E+03 -0.13509757626E+03  0.17485084831E+03  0.00000000000E+00 0. -1.
         21    1    1    2  505  502  0.72462570642E+02 -0.68990050080E+02  0.68761669685E+02  0.12140271155E+03  0.00000000000E+00 0. -1.
          4    1    1    2  501    0 -0.32859370120E+02  0.92639531064E+02  0.33948983914E+03  0.35343340504E+03  0.00000000000E+00 0. -1.
<scales pt_clust_3="96.23917" pt_clust_4="110.03229" pt_clust_5="81.93719" pt_clust_6="14000.00000"></scales>
<clustering>
<clus scale="   96.239">  1  3  2 -1</clus>
<clus scale="   81.937">  1  5  2 -1</clus>
<clus scale="  110.032">  2  4  1 -1</clus>
<clus scale="  110.032">  2  3  1 -1</clus>
</clustering>
</event>
<event>
 6    0  0.3667994E+002  0.8371613E+02  0.7546771E-02  0.1318825E+00
         21   -1    0    0  504  502  0.00000000000E+00  0.00000000000E+00  0.17610758249E+03  0.17610758249E+03  0.00000000000E+00 0.  1.
          2   -1    0    0  505    0 -0.00000000000E+00 -0.00000000000E+00 -0.46157750120E+04  0.46157750120E+04  0.00000000000E+00 0.  1.
         21    1    1    2  503  501 -0.70212478382E+02  0.16444193095E+02 -0.38481816255E+03  0.39151656649E+03  0.00000000000E+00 0. -1.
         21    1    1    2  504  503  0.24233704960E+01  0.57409167238E+02  0.16482505978E+03  0.17455367524E+03  0.00000000000E+00 0.  1.
         21    1    1    2  505  502 -0.10862587835E+02 -0.29436561786E+02 -0.93016223460E+02  0.98165802655E+02  0.00000000000E+00 0.  1.
          2    1    1    2  501    0  0.78651695722E+02 -0.44416798547E+02 -0.41266581033E+04  0.41276465501E+04  0.00000000000E+00 0.  1.
<scales pt_clust_3="83.71613" pt_clust_4="57.42815" pt_clust_5="31.37685" pt_clust_6="14000.00000"></scales>
<clustering>
<clus scale="   31.377">  2  5  1 -1</clus>
<clus scale="   57.428">  1  4  2 -1</clus>
<clus scale="   83.716">  1  3  2 -1</clus>
<clus scale="   57.428">  1  3  2 -1</clus>
</clustering>
</event>
<event>
 6    0  0.3667994E+002  0.9119367E+02  0.7546771E-02  0.1299987E+00
          2   -1    0    0  503    0 -0.00000000000E+00  0.00000000000E+00  0.75056669506E+03  0.75056669506E+03  0.00000000000E+00 0. -1.
         21   -1    0    0  504  502  0.00000000000E+00 -0.00000000000E+00 -0.26190423876E+03  0.26190423876E+03  0.00000000000E+00 0.  1.
         21    1    1    2  503  502 -0.19409138381E+02 -0.96630135771E+02  0.30212163004E+03  0.31779171973E+03  0.00000000000E+00 0. -1.
         21    1    1    2  504  505  0.17181302437E+02 -0.37190791786E+02 -0.23413156454E+03  0.23768874955E+03  0.00000000000E+00 0.  1.
         21    1    1    2  505  501  0.78646258133E+01  0.46133248415E+02  0.27846048761E+02  0.54456692703E+02  0.00000000000E+00 0.  1.
          2    1    1    2  501    0 -0.56367898685E+01  0.87687679141E+02  0.39282634204E+03  0.40253377184E+03  0.00000000000E+00 0. -1.
<scales pt_clust_3="14000.00000" pt_clust_4="40.96770" pt_clust_5="31.80816" pt_clust_6="91.19367"></scales>
<clustering>
<clus scale="   40.968">  2  4  1 -1</clus>
<clus scale="   31.808">  2  5  1 -1</clus>
<clus scale="   91.194">  1  6  2 -1</clus>
<clus scale="   40.968">  2  3  1 -1</clus>
</clustering>
</event>
<event>
 6    0  0.3667994E+002  0.8684592E+02  0.7546771E-02  0.1310675E+00
          3   -1    0    0  504    0 -0.00000000000E+00  0.00000000000E+00  0.32249302009E+03  0.32249302009E+03  0.00000000000E+00 0.  1.
         21   -1    0    0  505  502  0.00000000000E+00 -0.00000000000E+00 -0.55692549116E+03  0.55692549116E+03  0.00000000000E+00 0. -1.
         21    1    1    2  503  502 -0.13704718212E+02 -0.27348573133E+02 -0.58375403294E+02  0.65904866766E+02  0.00000000000E+00 0. -1.
         21    1    1    2  504  503  0.53446875597E+02  0.62401110580E+00  0.66699996876E+02  0.85474250416E+02  0.00000000000E+00 0. -1.
         21    1    1    2  505  501  0.19246531615E+02 -0.60299190969E+02 -0.47179666308E+03  0.47602364721E+03  0.00000000000E+00 0. -1.
          3    1    1    2  501    0 -0.58988689000E+02  0.87023752996E+02  0.22903959843E+03  0.25201574686E+03  0.00000000000E+00 0.  1.
<scales pt_clust_3="30.59026" pt_clust_4="53.18697" pt_clust_5="86.84592" pt_clust_6="14000.00000"></scales>
<clustering>
<clus scale="   30.590">  2  3  1 -1</clus>
<clus scale="   53.187">  1  4  2 -1</clus>
<clus scale="   86.846">  2  5  1 -1</clus>
<clus scale="   30.590">  2  3  1 -1</clus>
</clustering>
</event>
<event>
 6    0  0.3667994E+002  0.1180805E+03  0.7546771E-02  0.1246298E+00
          1   -1    0    0  504    0 -0.00000000000E+00  0.00000000000E+00  0.99351361295E+03  0.99351361295E+03  0.00000000000E+00 0. -1.
         21   -1    0    0  505  502  0.00000000000E+00 -0.00000000000E+00 -0.89017270783E+02  0.89017270783E+02  0.00000000000E+00 0.  1.
         21    1    1    2  503  501 -0.37874251687E+02 -0.42206552428E+02  0.40065302797E+03  0.40464638987E+03  0.00000000000E+00 0. -1.
         21    1    1    2  504  502  0.70707531328E+02 -0.40276510429E+01  0.14161319424E+03  0.15833532057E+03  0.00000000000E+00 0. -1.
         21    1    1    2  505  503  0.48202502994E+02  0.44169009371E+02 -0.60524371067E+02  0.89093109592E+02  0.00000000000E+00 0.  1.
          1    1    1    2  501    0 -0.81035782635E+02  0.20651941001E+01  0.42275449102E+03  0.43045606370E+03  0.00000000000E+00 0. -1.
<scales pt_clust_3="50.49847" pt_clust_4="101.47789" pt_clust_5="65.37876" pt_clust_6="50.49847"></scales>
<clustering>
<clus scale="   50.498">  3  6 -1 -1</clus>
<clus scale="   65.379">  2  5  1 -1</clus>
<clus scale="  101.478">  2  4  1 -1</clus>
<clus scale="   65.379">  2  3  1 -1</clus>
</clustering>
</event>
<event>
 6    0  0.3667994E+002  0.9725849E+02  0.7546771E-02  0.1286169E+00
         21   -1    0    0  504  502  0.00000000000E+00  0.00000000000E+00  0.71956001717E+02  0.71956001717E+02  0.00000000000E+00 0.  1.
          2   -1    0    0  503    0 -0.00000000000E+00 -0.00000000000E+00 -0.17949964668E+04  0.17949964668E+04  0.00000000000E+00 0. -1.
         21    1    1    2  503  505 -0.40234519862E+02 -0.94006310240E+01 -0.73082002667E+03  0.73198708993E+03  0.00000000000E+00 0. -1.
         21    1    1    2  504  501  0.36484688544E+02 -0.92716817750E+02  0.29378607295E+02  0.10387802154E+03  0.00000000000E+00 0.  1.
         21    1    1    2  505  502 -0.37918766382E+02  0.35854375217E+02 -0.24167542740E+03  0.24724558899E+03  0.00000000000E+00 0.  1.
          2    1    1    2  501    0  0.41668597699E+02  0.66263073557E+02 -0.77992361831E+03  0.78384176806E+03  0.00000000000E+00 0. -1.
<scales pt_clust_3="41.31814" pt_clust_4="97.25849" pt_clust_5="57.96497" pt_clust_6="14000.00000"></scales>
<clustering>
<clus scale="   41.318">  2  3  1 -1</clus>
<clus scale="   57.965">  2  5  1 -1</clus>
<clus scale="   97.258">  1  4  2 -1</clus>
<clus scale="   97.258">  1  3  2 -1</clus>
</clustering>
</event>
<event>
 6    0  0.3667994E+002  0.8704714E+02  0.7546771E-02  0.1310164E+00
         21   -1    0    0  505  502  0.00000000000E+00  0.00000000000E+00  0.92075483201E+03  0.92075483201E+03  0.00000000000E+00 0.  1.
         -1   -1    0    0    0  501 -0.00000000000E+00 -0.00000000000E+00 -0.15324590635E+03  0.15324590635E+03  0.00000000000E+00 0.  1.
         21    1    1    2  503  502 -0.34972517402E+02  0.76591818474E+02  0.72664242409E+03  0.73150433773E+03  0.00000000000E+00 0.  1.
         21    1    1    2  504  503  0.26704329608E+01  0.80798060081E+02  0.52685686289E+02  0.96494762888E+02  0.00000000000E+00 0. -1.
         21    1    1    2  505  501  0.69092545392E+02 -0.12200135014E+03  0.64381376382E+02  0.15428243870E+03  0.00000000000E+00 0. -1.
         -1    1    1    2    0  504 -0.36790460951E+02 -0.35388528412E+02 -0.76200561100E+02  0.91719199038E+02  0.00000000000E+00 0.  1.
<scales pt_clust_3="87.04714" pt_clust_4="70.18448" pt_clust_5="14000.00000" pt_clust_6="51.04788"></scales>
<clustering>
<clus scale="   51.048">  2  6  1 -1</clus>
<clus scale="   70.184">  2  4  1 -1</clus>
<clus scale="   87.047">  1  3  2 -1</clus>
<clus scale="   87.047">  1  3  2 -1</clus>
</clustering>
</event>
<event>
 6    0  0.3667994E+002  0.1270804E+03  0.7546771E-02  0.1231853E+00
         21   -1    0    0  501  502  0.00000000000E+00  0.00000000000E+00  0.11793373669E+03  0.11793373669E+03  0.00000000000E+00 0. -1.
          2   -1    0    0  504    0 -0.00000000000E+00 -0.00000000000E+00 -0.10004589141E+04  0.10004589141E+04  0.00000000000E+00 0.  1.
         21    1    1    2  503  505 -0.67285635164E+01 -0.32198432712E+02 -0.10575956164E+03  0.11075692987E+03  0.00000000000E+00 0.  1.
         21    1    1    2  504  503  0.13472350737E+03  0.11031810888E+02 -0.58194592297E+03  0.59743885172E+03  0.00000000000E+00 0.  1.
         21    1    1    2  505  502 -0.12732002787E+02  0.28294408046E+02  0.94083532788E+02  0.99067595931E+02  0.00000000000E+00 0. -1.
          2    1    1    2  501    0 -0.11526294107E+03 -0.71277862219E+01 -0.28890322556E+03  0.31112927323E+03  0.00000000000E+00 0.  1.
<scales pt_clust_3="30.03447" pt_clust_4="127.08038" pt_clust_5="31.02704" pt_clust_6="14000.00000"></scales>
<clustering>
<clus scale="   31.027">  1  5  2 -1</clus>
<clus scale="   30.034">  1  3  2 -1</clus>
<clus scale="  127.080">  2  4  1 -1</clus>
<clus scale="   31.027">  1  3  2 -1</clus>
</clustering>
</event>
<event>
 6    0  0.3667994E+002  0.1803304E+03  0.7546771E-02  0.1167484E+00
         21   -1    0    0  503  502  0.00000000000E+00  0.00000000000E+00  0.49107089582E+03  0.49107089582E+03  0.00000000000E+00 0. -1.
          2   -1    0    0  504    0 -0.00000000000E+00 -0.00000000000E+00 -0.39257973569E+03  0.39257973569E+03  0.00000000000E+00 0. -1.
         21    1    1    2  503  501  0.54590300581E+02  0.28703861639E+02  0.35218840681E+03  0.35754815966E+03  0.00000000000E+00 0. -1.
         21    1    1    2  504  505  0.11153886428E+02  0.56512867066E+02 -0.79253794826E+02  0.97975901735E+02  0.00000000000E+00 0. -1.
         21    1    1    2  505  502  0.11127292089E+03 -0.13777631044E+03 -0.44758013560E+01  0.17715532010E+03  0.00000000000E+00 0. -1.
          2    1    1    2  501    0 -0.17701710789E+03  0.52559581733E+02 -0.16996765049E+03  0.25097125001E+03  0.00000000000E+00 0. -1.
<scales pt_clust_3="61.99685" pt_clust_4="57.60307" pt_clust_5="14000.00000" pt_clust_6="180.33041"></scales>
<clustering>
<clus scale="   57.603">  2  4  1 -1</clus>
<clus scale="   61.997">  1  3  2 -1</clus>
<clus scale="  180.330">  2  6  1 -1</clus>
<clus scale="   61.997">  1  3  2 -1</clus>
</clustering>
</event>
<event>
 6    0  0.3667994E+002  0.6936907E+02  0.7546771E-02  0.1362252E+00
         -2   -1    0    0    0  501 -0.00000000000E+00  0.00000000000E+00  0.90944475524E+03  0.90944475524E+03  0.00000000000E+00 0.  1.
         21   -1    0    0  505  502  0.00000000000E+00 -0.00000000000E+00 -0.17827640861E+03  0.17827640861E+03  0.00000000000E+00 0.  1.
         21    1    1    2  503  502  0.65879410802E+02 -0.59869103110E+01  0.13601821722E+03  0.15125110009E+03  0.00000000000E+00 0.  1.
         21    1    1    2  504  501 -0.80732322406E+02  0.47277515620E+02  0.11285567090E+02  0.94235000869E+02  0.00000000000E+00 0.  1.
         21    1    1    2  505  504 -0.48583535986E+02 -0.15599058898E+02 -0.12242705328E+03  0.13263511595E+03  0.00000000000E+00 0.  1.
         -2    1    1    2    0  503  0.63436447590E+02 -0.25691546411E+02  0.70629161559E+03  0.70959994694E+03  0.00000000000E+00 0.  1.
<scales pt_clust_3="59.17640" pt_clust_4="69.36907" pt_clust_5="51.02637" pt_clust_6="14000.00000"></scales>
<clustering>
<clus scale="   51.026">  2  5  1 -1</clus>
<clus scale="   59.176">  2  3  1 -1</clus>
<clus scale="   69.369">  2  4  1 -1</clus>
<clus scale="   51.026">  2  3  1 -1</clus>
</clustering>
</event>
<event>
 6    0  0.3667994E+002  0.1474017E+03  0.7546771E-02  0.1203703E+00
          2   -1    0    0  504    0 -0.00000000000E+00  0.00000000000E+00  0.27519917241E+04  0.27519917241E+04  0.00000000000E+00 0. -1.
         21   -1    0    0  501  502  0.00000000000E+00 -0.00000000000E+00 -0.33650766803E+03  0.33650766803E+03  0.00000000000E+00 0.  1.
         21    1    1    2  503  502 -0.43876769549E+02  0.55291899805E+02 -0.29105668705E+03  0.29949350605E+03  0.00000000000E+00 0.  1.
         21    1    1    2  504  505  0.32191139965E+02 -0.23824845028E+02  0.10558817812E+04  0.10566410121E+04  0.00000000000E+00 0.  1.
         21    1    1    2  505  503  0.12336399828E+03  0.71499654490E+02  0.99701323341E+02  0.17398629412E+03  0.00000000000E+00 0.  1.
          2    1    1    2  501    0 -0.11167836870E+03 -0.10296670927E+03  0.15509576386E+04  0.15583785798E+04  0.00000000000E+00 0. -1.
<scales pt_clust_3="70.48967" pt_clust_4="40.04863" pt_clust_5="14000.00000" pt_clust_6="147.40174"></scales>
<clustering>
<clus scale="   40.049">  1  4  2 -1</clus>
<clus scale="   70.490">  2  3  1 -1</clus>
<clus scale="  147.402">  1  6  2 -1</clus>
<clus scale="   70.490">  2  3  1 -1</clus>
</clustering>
</event>
<event>
 6    0  0.3667994E+002  0.1693003E+03  0.7546771E-02  0.1178579E+00
         -1   -1    0    0    0  501 -0.00000000000E+00  0.00000000000E+00  0.62714702582E+03  0.62714702582E+03  0.00000000000E+00 0.  1.
         21   -1    0    0  504  502  0.00000000000E+00 -0.00000000000E+00 -0.16731098425E+03  0.16731098425E+03  0.00000000000E+00 0.  1.
         21    1    1    2  503  502 -0.12383887078E+03  0.12196925059E+03 -0.74918506450E+02  0.18927584795E+03  0.00000000000E+00 0.  1.
         21    1    1    2  504  505  0.12357651931E+02 -0.68098160023E+02  0.58502553874E+02  0.90623505613E+02  0.00000000000E+00 0. -1.
         21    1    1    2  505  501 -0.11526330370E+02  0.27827817179E+02  0.19090712882E+03  0.19326866154E+03  0.00000000000E+00 0.  1.
         -1    1    1    2    0  503  0.12300754922E+03 -0.81698907751E+02  0.28534486533E+03  0.32128999496E+03  0.00000000000E+00 0.  1.
<scales pt_clust_3="169.30035" pt_clust_4="64.17425" pt_clust_5="30.12049" pt_clust_6="14000.00000"></scales>
<clustering>
<clus scale="   30.120">  1  5  2 -1</clus>
<clus scale="   64.174">  1  4  2 -1</clus>
<clus scale="  169.300">  2  3  1 -1</clus>
<clus scale="  169.300">  2  3  1 -1</clus>
</clustering>
</event>
<event>
 6    0  0.3667994E+002  0.1068262E+03  0.7546771E-02  0.1266563E+00
         21   -1    0    0  503  502  0.00000000000E+00  0.00000000000E+00  0.29379261775E+03  0.29379261775E+03  0.00000000000E+00 0.  1.
         -2   -1    0    0    0  501 -0.00000000000E+00 -0.00000000000E+00 -0.78945784207E+02  0.78945784207E+02  0.00000000000E+00 0.  1.
         21    1    1    2  503  504  0.47419268528E+02  0.66853195003E+02  0.13057942206E+03  0.15417172949E+03  0.00000000000E+00 0.  1.
         21    1    1    2  504  501  0.55226418687E+02  0.16556368291E+02  0.30137989609E+02  0.65056660456E+02  0.00000000000E+00 0.  1.
         21    1    1    2  505  502 -0.57410639219E+02 -0.11291879338E+02  0.21199193041E+02  0.62232578447E+02  0.00000000000E+00 0. -1.
         -2    1    1    2    0  505 -0.45235047996E+02 -0.72117683956E+02  0.32930228836E+02  0.91277433561E+02  0.00000000000E+00 0.  1.
<scales pt_clust_3="90.93849" pt_clust_4="57.65475" pt_clust_5="46.47086" pt_clust_6="46.47086"></scales>
<clustering>
<clus scale="   46.471">  5  6 -1 -1</clus>
<clus scale="   57.655">  2  4  1 -1</clus>
<clus scale="   90.938">  1  3  2 -1</clus>
<clus scale="   90.938">  1  3  2 -1</clus>
</clustering>
</event>
<event>
 6    0  0.3667994E+002  0.2628792E+03  0.7546771E-02  0.1105426E+00
         21   -1    0    0  503  502  0.00000000000E+00  0.00000000000E+00  0.50380455489E+02  0.50380455489E+02  0.00000000000E+00 0.  1.
          1   -1    0    0  505    0 -0.00000000000E+00 -0.00000000000E+00 -0.22272623579E+04  0.22272623579E+04  0.00000000000E+00 0.  1.
         21    1    1    2  503  501  0.48119753710E+02  0.69802996235E+02 -0.13566897093E+03  0.15998136970E+03  0.00000000000E+00 0.  1.
         21    1    1    2  504  502  0.49761239580E+02  0.27194811305E+02 -0.19729875067E+02  0.60041707975E+02  0.00000000000E+00 0.  1.
         21    1    1    2  505  504 -0.20845226650E+03 -0.15207536331E+03 -0.14696464163E+04  0.14921259506E+04  0.00000000000E+00 0.  1.
          1    1    1    2  501    0  0.11057127321E+03  0.55077555771E+02 -0.55183664009E+03  0.56549378507E+03  0.00000000000E+00 0.  1.
<scales pt_clust_3="99.87452" pt_clust_4="56.70748" pt_clust_5="237.13552" pt_clust_6="99.87452"></scales>
<clustering>
<clus scale="   56.707">  1  4  2 -1</clus>
<clus scale="   99.875">  3  6 -1 -1</clus>
<clus scale="  237.136">  2  5  1 -1</clus>
<clus scale="   56.707">  1  3  2 -1</clus>
</clustering>
</event>
<event>
 6    0  0.3667994E+002  0.1217278E+03  0.7546771E-02  0.1240274E+00
          2   -1    0    0  504    0 -0.00000000000E+00  0.00000000000E+00  0.98702623349E+03  0.98702623349E+03  0.00000000000E+00 0.  1.
         21   -1    0    0  503  502  0.00000000000E+00 -0.00000000000E+00 -0.40006877911E+02  0.40006877911E+02  0.00000000000E+00 0.  1.
         21    1    1    2  503  501  0.32469605495E+02  0.23010471861E+02  0.40009660556E+03  0.40207095254E+03  0.00000000000E+00 0.  1.
         21    1    1    2  504  505 -0.13248679029E+02  0.39276448990E+02  0.23494854164E+03  0.23857699839E+03  0.00000000000E+00 0. -1.
         21    1    1    2  505  502 -0.49241391637E+02 -0.10765581989E+03  0.68217152312E+02  0.13663114607E+03  0.00000000000E+00 0.  1.
          2    1    1    2  501    0  0.30020465172E+02  0.45368899037E+02  0.24375705606E+03  0.24975401440E+03  0.00000000000E+00 0.  1.
<scales pt_clust_3="35.75395" pt_clust_4="41.45078" pt_clust_5="114.32476" pt_clust_6="35.75395"></scales>
<clustering>
<clus scale="   35.754">  3  6 -1 -1</clus>
<clus scale="   41.451">  1  4  2 -1</clus>
<clus scale="  114.325">  2  5  1 -1</clus>
<clus scale="  114.325">  2  3  1 -1</clus>
</clustering>
</event>
<event>
 6    0  0.3667994E+002  0.7391375E+02  0.7546771E-02  0.1347268E+00
          1   -1    0    0  503    0 -0.00000000000E+00  0.00000000000E+00  0.12747447781E+04  0.12747447781E+04  0.00000000000E+00 0.  1.
         21   -1    0    0  505  502  0.00000000000E+00 -0.00000000000E+00 -0.35203582551E+03  0.35203582551E+03  0.00000000000E+00 0.  1.
         21    1    1    2  503  504 -0.53690350833E+02  0.14489436711E+01  0.39973813378E+02  0.66952662130E+02  0.00000000000E+00 0. -1.
         21    1    1    2  504  502 -0.56599980318E+02  0.10198423417E+02  0.31720771089E+03  0.32237912069E+03  0.00000000000E+00 0.  1.
         21    1    1    2  505  501 -0.73141957343E+02 -0.63303269491E+01 -0.32245287362E+03  0.33070481501E+03  0.00000000000E+00 0.  1.
          1    1    1    2  501    0  0.18343228849E+03 -0.53170401394E+01  0.88798030197E+03  0.90674400580E+03  0.00000000000E+00 0.  1.
<scales pt_clust_3="53.70990" pt_clust_4="71.44621" pt_clust_5="73.91375" pt_clust_6="14000.00000"></scales>
<clustering>
<clus scale="   53.710">  1  3  2 -1</clus>
<clus scale="   71.446">  1  4  2 -1</clus>
<clus scale="   73.914">  2  5  1 -1</clus>
<clus scale="   73.914">  2  3  1 -1</clus>
</clustering>
</event>
<event>
 6    0  0.3667994E+002  0.1035895E+03  0.7546771E-02  0.1272924E+00
         21   -1    0    0  505  502  0.00000000000E+00  0.00000000000E+00  0.13107735926E+03  0.13107735926E+03  0.00000000000E+00 0. -1.
          2   -1    0    0  503    0 -0.00000000000E+00 -0.00000000000E+00 -0.17501108629E+04  0.17501108629E+04  0.00000000000E+00 0.  1.
         21    1    1    2  503  504  0.61993340816E+01 -0.59130070242E+02 -0.18150959882E+03  0.19099877333E+03  0.00000000000E+00 0. -1.
         21    1    1    2  504  502  0.85956767494E+02 -0.25514100275E+02  0.10708482180E+03  0.13966636765E+03  0.00000000000E+00 0. -1.
         21    1    1    2  505  501 -0.33718769641E+02  0.38033554817E+02 -0.36156091884E+03  0.36511615241E+03  0.00000000000E+00 0. -1.
          2    1    1    2  501    0 -0.58437331934E+02  0.46610615700E+02 -0.11830478077E+04  0.11854069287E+04  0.00000000000E+00 0.  1.
<scales pt_clust_3="59.45416" pt_clust_4="89.90246" pt_clust_5="42.43597" pt_clust_6="42.43597"></scales>
<clustering>
<clus scale="   42.436">  5  6 -1 -1</clus>
<clus scale="   59.454">  2  3  1 -1</clus>
<clus scale="   89.902">  1  4  2 -1</clus>
<clus scale="   89.902">  1  3  2 -1</clus>
</clustering>
</event>
<event>
 6    0  0.3667994E+002  0.9845242E+02  0.7546771E-02  0.1283584E+00
         21   -1    0    0  505  502  0.00000000000E+00  0.00000000000E+00  0.48107191414E+02  0.48107191414E+02  0.00000000000E+00 0. -1.
          2   -1    0    0  504    0 -0.00000000000E+00 -0.00000000000E+00 -0.16764202572E+04  0.16764202572E+04  0.00000000000E+00 0. -1.
         21    1    1    2  503  502  0.59365188992E+02  0.17760303816E+02  0.22354786074E+01  0.62005253167E+02  0.00000000000E+00 0. -1.
         21    1    1    2  504  503 -0.10196564315E+02  0.10393623921E+03 -0.23014114775E+03  0.25272843060E+03  0.00000000000E+00 0. -1.
         21    1    1    2  505  501 -0.17468972497E+02 -0.28146413551E+02 -0.94162756892E+02  0.99819889709E+02  0.00000000000E+00 0. -1.
          2    1    1    2  501    0 -0.31699652180E+02 -0.93550129474E+02 -0.13062446397E+04  0.13099738751E+04  0.00000000000E+00 0. -1.
<scales pt_clust_3="47.02461" pt_clust_4="14000.00000" pt_clust_5="33.12681" pt_clust_6="98.45242"></scales>
<clustering>
<clus scale="   33.127">  1  5  2 -1</clus>
<clus scale="   47.025">  1  3  2 -1</clus>
<clus scale="   98.452">  2  6  1 -1</clus>
<clus scale="   33.127">  1  3  2 -1</clus>
</clustering>
</event>
<event>
 6    0  0.3667994E+002  0.9624893E+02  0.7546771E-02  0.1288388E+00
         21   -1    0    0  504  502  0.00000000000E+00  0.00000000000E+00  0.24621089905E+03  0.24621089905E+03  0.00000000000E+00 0.  1.
         -3   -1    0    0    0  501 -0.00000000000E+00 -0.00000000000E+00 -0.21783640140E+04  0.21783640140E+04  0.00000000000E+00 0. -1.
         21    1    1    2  503  502 -0.55878439255E+02  0.60031286977E+02  0.23332536320E+03  0.24731938966E+03  0.00000000000E+00 0.  1.
         21    1    1    2  504  501 -0.24650575811E+02 -0.98599169009E+02 -0.59550032024E+03  0.60411098188E+03  0.00000000000E+00 0. -1.
         21    1    1    2  505  503  0.36994789814E+02 -0.17544422410E+00 -0.39714506481E+03  0.39886444785E+03  0.00000000000E+00 0. -1.
         -3    1    1    2    0  505  0.43534225252E+02  0.38743326256E+02 -0.11728330931E+04  0.11742800936E+04  0.00000000000E+00 0. -1.
<scales pt_clust_3="82.01314" pt_clust_4="85.34594" pt_clust_5="35.45249" pt_clust_6="35.45249"></scales>
<clustering>
<clus scale="   35.452">  5  6 -1 -1</clus>
<clus scale="   82.013">  1  3  2 -1</clus>
<clus scale="   85.346">  1  4  2 -1</clus>
<clus scale="   82.013">  1  3  2 -1</clus>
</clustering>
</event>
<event>
 6    0  0.3667994E+002  0.1908531E+03  0.7546771E-02  0.1157694E+00
         21   -1    0    0  503  502  0.00000000000E+00  0.00000000000E+00  0.52628009833E+03  0.52628009833E+03  0.00000000000E+00 0.  1.
          1   -1    0    0  502    0 -0.00000000000E+00 -0.00000000000E+00 -0.21819759822E+04  0.21819759822E+04  0.00000000000E+00 0.  1.
         21    1    1    2  503  504 -0.42417843427E+02 -0.83378062626E+01  0.44880135295E+03  0.45087852783E+03  0.00000000000E+00 0.  1.
         21    1    1    2  504  505 -0.14139238984E+03  0.19869031217E+02  0.12528757398E+01  0.14278710027E+03  0.00000000000E+00 0.  1.
         21    1    1    2  505  501  0.60687928496E+02 -0.21979545105E+02 -0.96817082209E+03  0.97031998115E+03  0.00000000000E+00 0.  1.
          1    1    1    2  501    0  0.12312230477E+03  0.10448320151E+02 -0.11375792905E+04  0.11442704713E+04  0.00000000000E+00 0.  1.
<scales pt_clust_3="43.22953" pt_clust_4="181.75487" pt_clust_5="42.08140" pt_clust_6="42.08140"></scales>
<clustering>
<clus scale="   42.081">  5  6 -1 -1</clus>
<clus scale="   43.230">  1  3  2 -1</clus>
<clus scale="  181.755">  1  4  2 -1</clus>
<clus scale="   43.230">  1  3  2 -1</clus>
</clustering>
</event>
<event>
 6    0  0.3667994E+002  0.1672878E+03  0.7546771E-02  0.1180706E+00
         21   -1    0    0  503  502  0.00000000000E+00  0.00000000000E+00  0.92627110145E+03  0.92627110145E+03  0.00000000000E+00 0. -1.
         -3   -1    0    0    0  501 -0.00000000000E+00 -0.00000000000E+00 -0.14842840109E+03  0.14842840109E+03  0.00000000000E+00 0. -1.
         21    1    1    2  503  505 -0.30855794386E+02 -0.17076890068E+03  0.81981763162E+03  0.83798272453E+03  0.00000000000E+00 0. -1.
         21    1    1    2  504  501  0.28538982549E+02  0.20112314834E+02 -0.32726073246E+02  0.47853679096E+02  0.00000000000E+00 0. -1.
         21    1    1    2  505  504 -0.48160431472E+02  0.32659080412E+02 -0.15985849467E+02  0.60345588704E+02  0.00000000000E+00 0. -1.
         -3    1    1    2    0  502  0.50477243308E+02  0.11799750543E+03  0.67369914523E+01  0.12851751022E+03  0.00000000000E+00 0. -1.
<scales pt_clust_3="167.28782" pt_clust_4="34.91388" pt_clust_5="55.05771" pt_clust_6="14000.00000"></scales>
<clustering>
<clus scale="   34.914">  2  4  1 -1</clus>
<clus scale="   55.058">  2  5  1 -1</clus>
<clus scale="  167.288">  1  3  2 -1</clus>
<clus scale="  167.288">  1  3  2 -1</clus>
</clustering>
</event>
<event>
 6    0  0.3667994E+002  0.1090678E+03  0.7546771E-02  0.1262306E+00
         21   -1    0    0  503  502  0.00000000000E+00  0.00000000000E+00  0.28550541099E+03  0.28550541099E+03  0.00000000000E+00 0.  1.
         -1   -1    0    0    0  501 -0.00000000000E+00 -0.00000000000E+00 -0.49088753060E+03  0.49088753060E+03  0.00000000000E+00 0.  1.
         21    1    1    2  503  505  0.77966203319E+02 -0.73304649312E+02  0.20045967770E+03  0.22723640301E+03  0.00000000000E+00 0.  1.
         21    1    1    2  504  502 -0.18023020806E+01  0.12224253652E+03 -0.12870401174E+03  0.17751396752E+03  0.00000000000E+00 0.  1.
         21    1    1    2  505  501  0.79102120414E+02 -0.88786330064E+01 -0.51409424636E+02  0.94757081632E+02  0.00000000000E+00 0.  1.
         -1    1    1    2    0  504 -0.15526602165E+03 -0.40059254201E+02 -0.22572836093E+03  0.27688548943E+03  0.00000000000E+00 0.  1.
<scales pt_clust_3="109.06776" pt_clust_4="14000.00000" pt_clust_5="79.59884" pt_clust_6="106.17968"></scales>
<clustering>
<clus scale="   79.599">  2  5  1 -1</clus>
<clus scale="  109.068">  1  3  2 -1</clus>
<clus scale="  106.180">  2  6  1 -1</clus>
<clus scale="  109.068">  1  3  2 -1</clus>
</clustering>
</event>
<event>
 6    0  0.3667994E+002  0.1304007E+03  0.7546771E-02  0.1226862E+00
         21   -1    0    0  505  502  0.00000000000E+00  0.00000000000E+00  0.23553472792E+04  0.23553472792E+04  0.00000000000E+00 0.  1.
          3   -1    0    0  503    0 -0.00000000000E+00 -0.00000000000E+00 -0.46771318192E+03  0.46771318192E+03  0.00000000000E+00 0.  1.
         21    1    1    2  503  502  0.24261051819E+02 -0.33243906317E+02 -0.47574251043E+02  0.62905208885E+02  0.00000000000E+00 0.  1.
         21    1    1    2  504  501  0.48278191096E+01 -0.45446344311E+02 -0.15398634735E+03  0.16062525710E+03  0.00000000000E+00 0.  1.
         21    1    1    2  505  504 -0.69829357677E+02  0.98631063301E+02  0.23407754742E+04  0.23438929255E+04  0.00000000000E+00 0.  1.
          3    1    1    2  501    0  0.40740486749E+02 -0.19940812672E+02 -0.25158077848E+03  0.25563706963E+03  0.00000000000E+00 0.  1.
<scales pt_clust_3="41.15527" pt_clust_4="46.04499" pt_clust_5="120.69244" pt_clust_6="46.04499"></scales>
<clustering>
<clus scale="   41.155">  2  3  1 -1</clus>
<clus scale="   46.045">  4  6 -1 -1</clus>
<clus scale="  120.692">  1  5  2 -1</clus>
<clus scale="  120.692">  1  3  2 -1</clus>
</clustering>
</event>
<event>
 6    0  0.3667994E+002  0.9429873E+02  0.7546771E-02  0.1292763E+00
         21   -1    0    0  501  502  0.00000000000E+00  0.00000000000E+00  0.30706051444E+02  0.30706051444E+02  0.00000000000E+00 0.  1.
          2   -1    0    0  503    0 -0.00000000000E+00 -0.00000000000E+00 -0.84463024280E+03  0.84463024280E+03  0.00000000000E+00 0.  1.
         21    1    1    2  503  505  0.13670923582E+02  0.32046975806E+02 -0.19733641995E+03  0.20038853622E+03  0.00000000000E+00 0.  1.
         21    1    1    2  504  502  0.10631077644E+03 -0.41985012946E+01 -0.13228799358E+03  0.16976372359E+03  0.00000000000E+00 0.  1.
         21    1    1    2  505  504 -0.42824350316E+02  0.38205276431E+01 -0.29775778415E+03  0.30084583998E+03  0.00000000000E+00 0. -1.
          2    1    1    2  501    0 -0.77157349702E+02 -0.31669002154E+02 -0.18654199368E+03  0.20433819447E+03  0.00000000000E+00 0.  1.
<scales pt_clust_3="34.84111" pt_clust_4="94.29873" pt_clust_5="40.98891" pt_clust_6="14000.00000"></scales>
<clustering>
<clus scale="   34.841">  2  3  1 -1</clus>
<clus scale="   40.989">  2  5  1 -1</clus>
<clus scale="   94.299">  1  4  2 -1</clus>
<clus scale="   94.299">  1  3  2 -1</clus>
</clustering>
</event>
<event>
 6    0  0.4270887E+002  0.9464386E+02  0.7546771E-02  0.1291980E+00
          2   -1    0    0  503    0 -0.00000000000E+00  0.00000000000E+00  0.15707896013E+04  0.15707896013E+04  0.00000000000E+00 0.  1.
         21   -1    0    0  505  502  0.00000000000E+00 -0.00000000000E+00 -0.22998680968E+03  0.22998680968E+03  0.00000000000E+00 0.  1.
         21    1    1    2  503  504 -0.25704762439E+02  0.20223676030E+02  0.86484347890E+02  0.92462285901E+02  0.00000000000E+00 0. -1.
         21    1    1    2  504  502  0.39518024612E+02  0.19226218346E+02 -0.19992604703E+03  0.20469915979E+03  0.00000000000E+00 0.  1.
         21    1    1    2  505  501 -0.38808333546E+02  0.77148554617E+02  0.62091646127E+02  0.10636427385E+03  0.00000000000E+00 0. -1.
          2    1    1    2  501    0  0.24995071373E+02 -0.11659844899E+03  0.13921528446E+04  0.13972506914E+04  0.00000000000E+00 0.  1.
<scales pt_clust_3="32.70676" pt_clust_4="43.92385" pt_clust_5="94.64386" pt_clust_6="14000.00000"></scales>
<clustering>
<clus scale="   32.707">  1  3  2 -1</clus>
<clus scale="   43.924">  2  4  1 -1</clus>
<clus scale="   94.644">  2  5  1 -1</clus>
<clus scale="   43.924">  2  3  1 -1</clus>
</clustering>
</event>
<event>
 6    0  0.3667994E+002  0.1461246E+03  0.7546771E-02  0.1205318E+00
          2   -1    0    0  505    0 -0.00000000000E+00  0.00000000000E+00  0.27803520572E+03  0.27803520572E+03  0.00000000000E+00 0. -1.
         21   -1    0    0  503  502  0.00000000000E+00 -0.00000000000E+00 -0.19335256015E+03  0.19335256015E+03  0.00000000000E+00 0. -1.
         21    1    1    2  503  501  0.54847069959E+02  0.56556186087E+02  0.97951887580E+02  0.12570352242E+03  0.00000000000E+00 0. -1.
         21    1    1    2  504  502 -0.39148897433E+02 -0.46779680179E+02 -0.96535986371E+02  0.11419356949E+03  0.00000000000E+00 0. -1.
         21    1    1    2  505  504 -0.35487072968E+02 -0.94485701086E+02 -0.12975693453E+02  0.10176074232E+03  0.00000000000E+00 0. -1.
          2    1    1    2  501    0  0.19788900442E+02  0.84709195177E+02  0.96242437808E+02  0.12972993164E+03  0.00000000000E+00 0. -1.
<scales pt_clust_3="42.64864" pt_clust_4="60.99979" pt_clust_5="139.08282" pt_clust_6="42.64864"></scales>
<clustering>
<clus scale="   42.649">  3  6 -1 -1</clus>
<clus scale="   61.000">  2  4  1 -1</clus>
<clus scale="  139.083">  2  5  1 -1</clus>
<clus scale="   61.000">  2  3  1 -1</clus>
</clustering>
</event>
<event>
 6    0  0.3667994E+002  0.7774976E+02  0.7546771E-02  0.1335561E+00
         21   -1    0    0  505  502  0.00000000000E+00  0.00000000000E+00  0.10840061142E+03  0.10840061142E+03  0.00000000000E+00 0. -1.
          1   -1    0    0  503    0 -0.00000000000E+00 -0.00000000000E+00 -0.43343387419E+03  0.43343387419E+03  0.00000000000E+00 0. -1.
         21    1    1    2  503  502  0.27238516746E+02 -0.18247412563E+02 -0.42757112224E+02  0.53880195856E+02  0.00000000000E+00 0. -1.
         21    1    1    2  504  501 -0.10545782046E+03 -0.51818288262E+02 -0.11920796420E+03  0.16738287136E+03  0.00000000000E+00 0. -1.
         21    1    1    2  505  504  0.48779299261E+02  0.13113225459E+02  0.65766565346E+02  0.82925375102E+02  0.00000000000E+00 0. -1.
          1    1    1    2  501    0  0.29440004454E+02  0.56952475366E+02 -0.22883475169E+03  0.23764604329E+03  0.00000000000E+00 0. -1.
<scales pt_clust_3="32.78574" pt_clust_4="77.74976" pt_clust_5="50.99459" pt_clust_6="14000.00000"></scales>
<clustering>
<clus scale="   32.786">  2  3  1 -1</clus>
<clus scale="   50.995">  1  5  2 -1</clus>
<clus scale="   77.750">  1  4  2 -1</clus>
<clus scale="   50.995">  1  3  2 -1</clus>
</clustering>
</event>
<event>
 6    0  0.3667994E+002  0.1004623E+03  0.7546771E-02  0.1279327E+00
         21   -1    0    0  504  502  0.00000000000E+00  0.00000000000E+00  0.25411390794E+03  0.25411390794E+03  0.00000000000E+00 0. -1.
          2   -1    0    0  503    0 -0.00000000000E+00 -0.00000000000E+00 -0.71002096849E+03  0.71002096849E+03  0.00000000000E+00 0.  1.
         21    1    1    2  503  502 -0.56940768629E+02  0.91696142195E+01 -0.45734977056E+02  0.73607208094E+02  0.00000000000E+00 0.  1.
         21    1    1    2  504  505 -0.87688502281E+02 -0.45465244921E+02  0.20130755223E+03  0.22423445880E+03  0.00000000000E+00 0. -1.
         21    1    1    2  505  501  0.10729711943E+03  0.12592337654E+03 -0.34340151210E+03  0.38117445757E+03  0.00000000000E+00 0.  1.
          2    1    1    2  501    0  0.37332151483E+02 -0.89627745836E+02 -0.26807812362E+03  0.28511875197E+03  0.00000000000E+00 0.  1.
<scales pt_clust_3="57.67437" pt_clust_4="100.46235" pt_clust_5="14000.00000" pt_clust_6="86.72521"></scales>
<clustering>
<clus scale="   57.674">  2  3  1 -1</clus>
<clus scale="   86.725">  2  6  1 -1</clus>
<clus scale="  100.462">  1  4  2 -1</clus>
<clus scale="  100.462">  1  3  2 -1</clus>
</clustering>
</event>
<event>
 6    0  0.3667994E+002  0.1347554E+03  0.7546771E-02  0.1220565E+00
         21   -1    0    0  505  502  0.00000000000E+00  0.00000000000E+00  0.20597321953E+03  0.20597321953E+03  0.00000000000E+00 0.  1.
          2   -1    0    0  503    0 -0.00000000000E+00 -0.00000000000E+00 -0.15261279032E+04  0.15261279032E+04  0.00000000000E+00 0.  1.
         21    1    1    2  503  504 -0.10164045877E+03 -0.29585973641E+02 -0.64347523862E+02  0.12388186519E+03  0.00000000000E+00 0. -1.
         21    1    1    2  504  502 -0.59646954256E+02  0.21323073837E+02  0.16421938629E+03  0.17601261166E+03  0.00000000000E+00 0.  1.
         21    1    1    2  505  501  0.84923346913E+02  0.49869338697E+02 -0.68191364587E+03  0.68898849498E+03  0.00000000000E+00 0. -1.
          2    1    1    2  501    0  0.76364066114E+02 -0.41606438892E+02 -0.73811290026E+03  0.74321815094E+03  0.00000000000E+00 0.  1.
<scales pt_clust_3="134.75541" pt_clust_4="63.34377" pt_clust_5="14000.00000" pt_clust_6="82.51106"></scales>
<clustering>
<clus scale="   63.344">  1  4  2 -1</clus>
<clus scale="   82.511">  2  6  1 -1</clus>
<clus scale="  134.755">  1  3  2 -1</clus>
<clus scale="   63.344">  1  3  2 -1</clus>
</clustering>
</event>
<event>
 6    0  0.3667994E+002  0.1072633E+03  0.7546771E-02  0.1265723E+00
         21   -1    0    0  503  502  0.00000000000E+00  0.00000000000E+00  0.78580584117E+02  0.78580584117E+02  0.00000000000E+00 0.  1.
          1   -1    0    0  504    0 -0.00000000000E+00 -0.00000000000E+00 -0.33767512834E+03  0.33767512834E+03  0.00000000000E+00 0.  1.
         21    1    1    2  503  501  0.67080692961E+02  0.46536975012E+02 -0.94647605714E+02  0.12499471460E+03  0.00000000000E+00 0.  1.
         21    1    1    2  504  505 -0.36754518262E+02 -0.17013767590E+02 -0.49607590133E+02  0.64041204697E+02  0.00000000000E+00 0. -1.
         21    1    1    2  505  502 -0.75615930619E+02 -0.54008506415E+02  0.87513429725E+01  0.93334204515E+02  0.00000000000E+00 0.  1.
          1    1    1    2  501    0  0.45289755921E+02  0.24485298993E+02 -0.12359069135E+03  0.13388558864E+03  0.00000000000E+00 0.  1.
<scales pt_clust_3="32.93195" pt_clust_4="40.50139" pt_clust_5="98.92236" pt_clust_6="32.93195"></scales>
<clustering>
<clus scale="   32.932">  3  6 -1 -1</clus>
<clus scale="   40.501">  2  4  1 -1</clus>
<clus scale="   98.922">  1  5  2 -1</clus>
<clus scale="   98.922">  1  3  2 -1</clus>
</clustering>
</event>
<event>
 6    0  0.3667994E+002  0.1257729E+03  0.7546771E-02  0.1233866E+00
         21   -1    0    0  505  502  0.00000000000E+00  0.00000000000E+00  0.32524803698E+02  0.32524803698E+02  0.00000000000E+00 0. -1.
          2   -1    0    0  503    0 -0.00000000000E+00 -0.00000000000E+00 -0.21605400881E+04  0.21605400881E+04  0.00000000000E+00 0. -1.
         21    1    1    2  503  502  0.97073522644E+02  0.57326809681E+02 -0.10170405618E+04  0.10232698257E+04  0.00000000000E+00 0. -1.
         21    1    1    2  504  501 -0.20276915816E+02 -0.24620031988E+02 -0.23216856721E+03  0.23434919008E+03  0.00000000000E+00 0. -1.
         21    1    1    2  505  504  0.21760465435E+02 -0.43247525422E+02  0.26006840860E+01  0.48483294739E+02  0.00000000000E+00 0. -1.
          2    1    1    2  501    0 -0.98557072262E+02  0.10540747729E+02 -0.88140683945E+03  0.88696258122E+03  0.00000000000E+00 0. -1.
<scales pt_clust_3="113.35196" pt_clust_4="30.91529" pt_clust_5="48.41349" pt_clust_6="30.91529"></scales>
<clustering>
<clus scale="   30.915">  4  6 -1 -1</clus>
<clus scale="   48.413">  1  5  2 -1</clus>
<clus scale="  113.352">  2  3  1 -1</clus>
<clus scale="   48.413">  1  3  2 -1</clus>
</clustering>
</event>
<event>
 6    0  0.3667994E+002  0.8385602E+02  0.7546771E-02  0.1318452E+00
         -2   -1    0    0    0  501 -0.00000000000E+00  0.00000000000E+00  0.76561816539E+03  0.76561816539E+03  0.00000000000E+00 0. -1.
         21   -1    0    0  504  502  0.00000000000E+00 -0.00000000000E+00 -0.50157059021E+03  0.50157059021E+03  0.00000000000E+00 0. -1.
         21    1    1    2  503  501  0.21141668607E+02 -0.26009152213E+02  0.12272487151E+03  0.12721965351E+03  0.00000000000E+00 0. -1.
         21    1    1    2  504  503  0.16071469845E+02 -0.49916517752E+02  0.55669050217E+02  0.76478716252E+02  0.00000000000E+00 0. -1.
         21    1    1    2  505  502  0.78174421368E+02 -0.29245194084E+02 -0.47460319719E+03  0.48188662185E+03  0.00000000000E+00 0. -1.
         -2    1    1    2    0  505 -0.11538755982E+03  0.10517086405E+03  0.56025685064E+03  0.58160376399E+03  0.00000000000E+00 0. -1.
<scales pt_clust_3="33.51785" pt_clust_4="55.67575" pt_clust_5="83.85602" pt_clust_6="14000.00000"></scales>
<clustering>
<clus scale="   33.518">  1  3  2 -1</clus>
<clus scale="   55.676">  1  4  2 -1</clus>
<clus scale="   83.856">  2  5  1 -1</clus>
<clus scale="   83.856">  2  3  1 -1</clus>
</clustering>
</event>
<event>
 6    0  0.3667994E+002  0.7727829E+02  0.7546771E-02  0.1336958E+00
         21   -1    0    0  503  502  0.00000000000E+00  0.00000000000E+00  0.34119846930E+03  0.34119846930E+03  0.00000000000E+00 0.  1.
          2   -1    0    0  504    0 -0.00000000000E+00 -0.00000000000E+00 -0.10161215860E+04  0.10161215860E+04  0.00000000000E+00 0. -1.
         21    1    1    2  503  505 -0.47824463596E+02 -0.60518616973E+02  0.32018950887E+03  0.32934936452E+03  0.00000000000E+00 0.  1.
         21    1    1    2  504  502 -0.34901097466E+02 -0.33585663880E+02 -0.13400774594E+03  0.14249266435E+03  0.00000000000E+00 0.  1.
         21    1    1    2  505  501  0.10354299122E+03  0.27498820864E+02 -0.27333631807E+03  0.29358146903E+03  0.00000000000E+00 0.  1.
          2    1    1    2  501    0 -0.20817430160E+02  0.66605459989E+02 -0.58776856156E+03  0.59189655739E+03  0.00000000000E+00 0. -1.
<scales pt_clust_3="77.27829" pt_clust_4="48.43639" pt_clust_5="14000.00000" pt_clust_6="62.44249"></scales>
<clustering>
<clus scale="   48.436">  2  4  1 -1</clus>
<clus scale="   62.442">  2  6  1 -1</clus>
<clus scale="   77.278">  1  3  2 -1</clus>
<clus scale="   77.278">  1  3  2 -1</clus>
</clustering>
</event>
<event>
 6    0  0.3667994E+002  0.9104934E+02  0.7546771E-02  0.1300330E+00
          2   -1    0    0  505    0 -0.00000000000E+00  0.00000000000E+00  0.16234064671E+04  0.16234064671E+04  0.00000000000E+00 0.  1.
         21   -1    0    0  503  502  0.00000000000E+00 -0.00000000000E+00 -0.20808780785E+03  0.20808780785E+03  0.00000000000E+00 0.  1.
         21    1    1    2  503  501 -0.33342100320E+02  0.67664950689E+02 -0.18508890968E+03  0.19987032219E+03  0.00000000000E+00 0.  1.
         21    1    1    2  504  502 -0.67514279632E+02 -0.48244066916E+02  0.14346274585E+03  0.16573239694E+03  0.00000000000E+00 0.  1.
         21    1    1    2  505  504  0.75060366641E+01  0.46703772552E+02  0.41934297330E+03  0.42200250261E+03  0.00000000000E+00 0. -1.
          2    1    1    2  501    0  0.93350343288E+02 -0.66124656325E+02  0.10376018498E+04  0.10438890532E+04  0.00000000000E+00 0.  1.
<scales pt_clust_3="75.67092" pt_clust_4="91.04934" pt_clust_5="47.30310" pt_clust_6="14000.00000"></scales>
<clustering>
<clus scale="   47.303">  1  5  2 -1</clus>
<clus scale="   75.671">  2  3  1 -1</clus>
<clus scale="   91.049">  2  4  1 -1</clus>
<clus scale="   75.671">  2  3  1 -1</clus>
</clustering>
</event>
<event>
 6    0  0.3667994E+002  0.8029458E+02  0.7546771E-02  0.1328218E+00
          1   -1    0    0  504    0 -0.00000000000E+00  0.00000000000E+00  0.55821754875E+03  0.55821754875E+03  0.00000000000E+00 0. -1.
         21   -1    0    0  505  502  0.00000000000E+00 -0.00000000000E+00 -0.24486455554E+03  0.24486455554E+03  0.00000000000E+00 0. -1.
         21    1    1    2  503  502 -0.94821642676E+00  0.76269121549E+02  0.10964238554E+03  0.13356395743E+03  0.00000000000E+00 0. -1.
         21    1    1    2  504  503  0.38771132242E+02  0.45140678236E+01  0.17858206555E+03  0.18279806246E+03  0.00000000000E+00 0. -1.
         21    1    1    2  505  501 -0.79822595414E+02  0.13461321320E+02 -0.21264111926E+03  0.22752823893E+03  0.00000000000E+00 0. -1.
          1    1    1    2  501    0  0.41999679599E+02 -0.94244510693E+02  0.23776966138E+03  0.25919184547E+03  0.00000000000E+00 0. -1.
<scales pt_clust_3="78.57518" pt_clust_4="39.03303" pt_clust_5="80.29458" pt_clust_6="14000.00000"></scales>
<clustering>
<clus scale="   39.033">  1  4  2 -1</clus>
<clus scale="   78.575">  1  3  2 -1</clus>
<clus scale="   80.295">  2  5  1 -1</clus>
<clus scale="   80.295">  2  3  1 -1</clus>
</clustering>
</event>
<event>
 6    0  0.3667994E+002  0.7963260E+02  0.7546771E-02  0.1330097E+00
          1   -1    0    0  505    0 -0.00000000000E+00  0.00000000000E+00  0.15128400752E+04  0.15128400752E+04  0.00000000000E+00 0.  1.
         21   -1    0    0  503  502  0.00000000000E+00 -0.00000000000E+00 -0.87261718832E+02  0.87261718832E+02  0.00000000000E+00 0. -1.
         21    1    1    2  503  504 -0.20907110855E+02  0.76905336792E+02 -0.62194759466E+02  0.10109266154E+03  0.00000000000E+00 0. -1.
         21    1    1    2  504  501  0.17722012192E+02 -0.74531825990E+02  0.92957187513E+03  0.93272339621E+03  0.00000000000E+00 0.  1.
         21    1    1    2  505  502 -0.38465223817E+02  0.23249730991E+02  0.31768123384E+03  0.32084496220E+03  0.00000000000E+00 0.  1.
          1    1    1    2  501    0  0.41650322480E+02 -0.25623241793E+02  0.24052000682E+03  0.24544077405E+03  0.00000000000E+00 0.  1.
<scales pt_clust_3="14000.00000" pt_clust_4="79.63260" pt_clust_5="44.94578" pt_clust_6="39.75150"></scales>
<clustering>
<clus scale="   44.946">  1  5  2 -1</clus>
<clus scale="   39.752">  1  6  2 -1</clus>
<clus scale="   79.633">  1  4  2 -1</clus>
<clus scale="   79.633">  2  3  1 -1</clus>
</clustering>
</event>
<event>
 6    0  0.3667994E+002  0.1235537E+03  0.7546771E-02  0.1237347E+00
         21   -1    0    0  505  502  0.00000000000E+00  0.00000000000E+00  0.92708861490E+03  0.92708861490E+03  0.00000000000E+00 0. -1.
          3   -1    0    0  503    0 -0.00000000000E+00 -0.00000000000E+00 -0.20364127839E+03  0.20364127839E+03  0.00000000000E+00 0. -1.
         21    1    1    2  503  502 -0.74956972142E+02 -0.40372242276E+02  0.11148334378E+02  0.85864724879E+02  0.00000000000E+00 0. -1.
         21    1    1    2  504  501  0.66711774475E+02  0.73434187689E+00 -0.43231008788E+02  0.79497925963E+02  0.00000000000E+00 0.  1.
         21    1    1    2  505  504 -0.41842463489E+02 -0.11885022918E+01  0.84993491585E+03  0.85096507887E+03  0.00000000000E+00 0. -1.
          3    1    1    2  501    0  0.50087661156E+02  0.40826402691E+02 -0.94404904921E+02  0.11440216357E+03  0.00000000000E+00 0. -1.
<scales pt_clust_3="109.45923" pt_clust_4="55.58899" pt_clust_5="41.85934" pt_clust_6="55.58899"></scales>
<clustering>
<clus scale="   41.859">  1  5  2 -1</clus>
<clus scale="   55.589">  4  6 -1 -1</clus>
<clus scale="  109.459">  1  3  2 -1</clus>
<clus scale="   41.859">  1  3  2 -1</clus>
</clustering>
</event>
<event>
 6    0  0.3667994E+002  0.7859642E+02  0.7546771E-02  0.1333082E+00
          2   -1    0    0  502    0 -0.00000000000E+00  0.00000000000E+00  0.23834252117E+04  0.23834252117E+04  0.00000000000E+00 0. -1.
         21   -1    0    0  504  502  0.00000000000E+00 -0.00000000000E+00 -0.65876485404E+02  0.65876485404E+02  0.00000000000E+00 0. -1.
         21    1    1    2  503  501  0.10178137571E+03 -0.43986267635E+01  0.31146364111E+03  0.32770168765E+03  0.00000000000E+00 0. -1.
         21    1    1    2  504  505  0.38245142602E+02 -0.26137624526E+02 -0.35300376962E+02  0.58240732844E+02  0.00000000000E+00 0. -1.
         21    1    1    2  505  503 -0.80795294894E+02  0.45863289389E+02  0.19541785084E+03  0.21637804282E+03  0.00000000000E+00 0. -1.
          2    1    1    2  501    0 -0.59231223420E+02 -0.15327038100E+02  0.18459676113E+04  0.18469812338E+04  0.00000000000E+00 0. -1.
<scales pt_clust_3="78.59642" pt_clust_4="46.32350" pt_clust_5="14000.00000" pt_clust_6="60.38078"></scales>
<clustering>
<clus scale="   46.323">  2  4  1 -1</clus>
<clus scale="   60.381">  1  6  2 -1</clus>
<clus scale="   78.596">  1  3  2 -1</clus>
<clus scale="   46.323">  2  3  1 -1</clus>
</clustering>
</event>
<event>
 6    0  0.3667994E+002  0.8152405E+02  0.7546771E-02  0.1324781E+00
          2   -1    0    0  505    0 -0.00000000000E+00  0.00000000000E+00  0.14348684544E+04  0.14348684544E+04  0.00000000000E+00 0.  1.
         21   -1    0    0  501  502  0.00000000000E+00 -0.00000000000E+00 -0.21044507913E+02  0.21044507913E+02  0.00000000000E+00 0.  1.
         21    1    1    2  503  502 -0.74761375060E+01  0.35639503833E+02  0.28633296671E+02  0.46324211205E+02  0.00000000000E+00 0.  1.
         21    1    1    2  504  503 -0.39209535275E+02  0.72738729210E+01  0.12024647796E+03  0.12668666996E+03  0.00000000000E+00 0.  1.
         21    1    1    2  505  504 -0.70668054203E+02  0.74264891406E+01  0.70550849807E+03  0.70907782892E+03  0.00000000000E+00 0.  1.
          2    1    1    2  501    0  0.11735372698E+03 -0.50339865895E+02  0.55943567384E+03  0.57382425227E+03  0.00000000000E+00 0.  1.
<scales pt_clust_3="36.41520" pt_clust_4="44.43314" pt_clust_5="14000.00000" pt_clust_6="81.52405"></scales>
<clustering>
<clus scale="   36.415">  2  3  1 -1</clus>
<clus scale="   44.433">  2  4  1 -1</clus>
<clus scale="   81.524">  2  6  1 -1</clus>
<clus scale="   36.415">  2  3  1 -1</clus>
</clustering>
</event>
<event>
 6    0  0.3667994E+002  0.2090538E+03  0.7546771E-02  0.1142317E+00
         21   -1    0    0  505  502  0.00000000000E+00  0.00000000000E+00  0.75994561042E+03  0.75994561042E+03  0.00000000000E+00 0.  1.
          2   -1    0    0  503    0 -0.00000000000E+00 -0.00000000000E+00 -0.70305667984E+03  0.70305667984E+03  0.00000000000E+00 0.  1.
         21    1    1    2  503  502  0.36908883190E+02 -0.54955315805E+01 -0.16052690947E+03  0.16480702409E+03  0.00000000000E+00 0. -1.
         21    1    1    2  504  501 -0.32981815812E+02  0.53288732235E+02 -0.14314734979E+03  0.15626468862E+03  0.00000000000E+00 0.  1.
         21    1    1    2  505  504  0.16486113968E+03 -0.10438883397E+03  0.71723167833E+03  0.74330175867E+03  0.00000000000E+00 0.  1.
          2    1    1    2  501    0 -0.16878820706E+03  0.56595633310E+02 -0.35666848849E+03  0.39862881888E+03  0.00000000000E+00 0.  1.
<scales pt_clust_3="37.31577" pt_clust_4="44.36530" pt_clust_5="195.95474" pt_clust_6="44.36530"></scales>
<clustering>
<clus scale="   37.316">  2  3  1 -1</clus>
<clus scale="   44.365">  4  6 -1 -1</clus>
<clus scale="  195.955">  1  5  2 -1</clus>
<clus scale="  195.955">  1  3  2 -1</clus>
</clustering>
</event>
<event>
 6    0  0.3667994E+002  0.3939540E+03  0.7546771E-02  0.1045894E+00
          2   -1    0    0  505    0 -0.00000000000E+00  0.00000000000E+00  0.93146433830E+03  0.93146433830E+03  0.00000000000E+00 0.  1.
         21   -1    0    0  503  502  0.00000000000E+00 -0.00000000000E+00 -0.31626472733E+03  0.31626472733E+03  0.00000000000E+00 0.  1.
         21    1    1    2  503  504  0.39266594293E+02 -0.36723986075E+03 -0.11768859970E+03  0.38763073569E+03  0.00000000000E+00 0.  1.
         21    1    1    2  504  501 -0.10135964858E+03  0.19595081608E+03  0.25668874262E+03  0.33846655857E+03  0.00000000000E+00 0.  1.
         21    1    1    2  505  502  0.28192200064E+02  0.13577921366E+02  0.19460891278E+03  0.19710857167E+03  0.00000000000E+00 0.  1.
          2    1    1    2  501    0  0.33900854218E+02  0.15771112330E+03  0.28159055527E+03  0.32452319970E+03  0.00000000000E+00 0.  1.
<scales pt_clust_3="367.44572" pt_clust_4="124.53766" pt_clust_5="31.29153" pt_clust_6="124.53766"></scales>
<clustering>
<clus scale="   31.292">  1  5  2 -1</clus>
<clus scale="  124.538">  4  6 -1 -1</clus>
<clus scale="  367.446">  2  3  1 -1</clus>
<clus scale="  367.446">  2  3  1 -1</clus>
</clustering>
</event>
<event>
 6    0  0.3667994E+002  0.2003788E+03  0.7546771E-02  0.1149420E+00
         21   -1    0    0  504  502  0.00000000000E+00  0.00000000000E+00  0.67889489662E+03  0.67889489662E+03  0.00000000000E+00 0. -1.
         -4   -1    0    0    0  501 -0.00000000000E+00 -0.00000000000E+00 -0.28537800074E+03  0.28537800074E+03  0.00000000000E+00 0. -1.
         21    1    1    2  503  502 -0.70784127454E+02  0.15615252814E+03  0.55228660125E+03  0.57828582436E+03  0.00000000000E+00 0. -1.
         21    1    1    2  504  501  0.68847837487E+02  0.37182489855E+02  0.51713631865E+02  0.93791588104E+02  0.00000000000E+00 0.  1.
         21    1    1    2  505  503 -0.22609306396E+02 -0.11772043581E+03 -0.15159186810E+03  0.19325986706E+03  0.00000000000E+00 0. -1.
         -4    1    1    2    0  505  0.24545596363E+02 -0.75614582184E+02 -0.58891469130E+02  0.98935617833E+02  0.00000000000E+00 0. -1.
<scales pt_clust_3="190.94209" pt_clust_4="78.24680" pt_clust_5="49.48785" pt_clust_6="49.48785"></scales>
<clustering>
<clus scale="   49.488">  5  6 -1 -1</clus>
<clus scale="   78.247">  1  4  2 -1</clus>
<clus scale="  190.942">  1  3  2 -1</clus>
<clus scale="   78.247">  1  3  2 -1</clus>
</clustering>
</event>
<event>
 6    0  0.3667994E+002  0.2386070E+03  0.7546771E-02  0.1120724E+00
          2   -1    0    0  503    0 -0.00000000000E+00  0.00000000000E+00  0.27667225159E+03  0.27667225159E+03  0.00000000000E+00 0.  1.
         21   -1    0    0  505  502  0.00000000000E+00 -0.00000000000E+00 -0.14267628824E+04  0.14267628824E+04  0.00000000000E+00 0.  1.
         21    1    1    2  503  504 -0.15855735676E+02  0.36951262073E+02  0.50320038261E+02  0.64412004885E+02  0.00000000000E+00 0.  1.
         21    1    1    2  504  502  0.22127953660E+03  0.52950193404E+02 -0.13439092364E+04  0.13630335256E+04  0.00000000000E+00 0.  1.
         21    1    1    2  505  501 -0.65352881470E+02 -0.60906631792E+02  0.32980177381E+02  0.95227669366E+02  0.00000000000E+00 0.  1.
          2    1    1    2  501    0 -0.14007091945E+03 -0.28994823685E+02  0.11051839000E+03  0.18076193406E+03  0.00000000000E+00 0.  1.
<scales pt_clust_3="40.20945" pt_clust_4="227.23576" pt_clust_5="55.01141" pt_clust_6="55.01141"></scales>
<clustering>
<clus scale="   40.209">  1  3  2 -1</clus>
<clus scale="   55.011">  5  6 -1 -1</clus>
<clus scale="  227.236">  2  4  1 -1</clus>
<clus scale="  227.236">  2  3  1 -1</clus>
</clustering>
</event>
<event>
 6    0  0.3667994E+002  0.8257293E+02  0.7546771E-02  0.1321904E+00
          1   -1    0    0  504    0 -0.00000000000E+00  0.00000000000E+00  0.24565038419E+04  0.24565038419E+04  0.00000000000E+00 0. -1.
         21   -1    0    0  501  502  0.00000000000E+00 -0.00000000000E+00 -0.13616005249E+03  0.13616005249E+03  0.00000000000E+00 0. -1.
         21    1    1    2  503  505 -0.26055987391E+02  0.59951530898E+02  0.32386207850E+03  0.33039332080E+03  0.00000000000E+00 0.  1.
         21    1    1    2  504  503  0.21344194382E+02  0.30857590213E+02  0.41717445675E+03  0.41885832077E+03  0.00000000000E+00 0.  1.
         21    1    1    2  505  502  0.41042778500E+02  0.70974478939E+02 -0.11487690831E+03  0.14113323631E+03  0.00000000000E+00 0. -1.
          1    1    1    2  501    0 -0.36330985491E+02 -0.16178360005E+03  0.16941841624E+04  0.17022790165E+04  0.00000000000E+00 0. -1.
<scales pt_clust_3="68.73577" pt_clust_4="37.52020" pt_clust_5="82.57293" pt_clust_6="14000.00000"></scales>
<clustering>
<clus scale="   37.520">  1  4  2 -1</clus>
<clus scale="   68.736">  1  3  2 -1</clus>
<clus scale="   82.573">  2  5  1 -1</clus>
<clus scale="   82.573">  2  3  1 -1</clus>
</clustering>
</event>
<event>
 6    0  0.3667994E+002  0.9969888E+02  0.7546771E-02  0.1280930E+00
          1   -1    0    0  503    0 -0.00000000000E+00  0.00000000000E+00  0.40922033973E+03  0.40922033973E+03  0.00000000000E+00 0.  1.
         21   -1    0    0  505  502  0.00000000000E+00 -0.00000000000E+00 -0.12073553498E+04  0.12073553498E+04  0.00000000000E+00 0.  1.
         21    1    1    2  503  502  0.10259277022E+03  0.62947811640E+02  0.84576544659E+02  0.14710844774E+03  0.00000000000E+00 0.  1.
         21    1    1    2  504  501 -0.69963361977E+02 -0.55094697637E+02  0.35840008618E+02  0.95993770342E+02  0.00000000000E+00 0. -1.
         21    1    1    2  505  504 -0.73097511774E+02 -0.10342485785E+02 -0.11430054153E+04  0.11453870929E+04  0.00000000000E+00 0.  1.
          1    1    1    2  501    0  0.40468103533E+02  0.24893717828E+01  0.22445385199E+03  0.22808637848E+03  0.00000000000E+00 0.  1.
<scales pt_clust_3="14000.00000" pt_clust_4="99.69888" pt_clust_5="73.56248" pt_clust_6="40.54460"></scales>
<clustering>
<clus scale="   40.545">  1  6  2 -1</clus>
<clus scale="   73.562">  2  5  1 -1</clus>
<clus scale="   99.699">  1  4  2 -1</clus>
<clus scale="   73.562">  2  3  1 -1</clus>
</clustering>
</event>
<event>
 6    0  0.3667994E+002  0.1192860E+03  0.7546771E-02  0.1244280E+00
          3   -1    0    0  504    0 -0.00000000000E+00  0.00000000000E+00  0.81598600346E+02  0.81598600346E+02  0.00000000000E+00 0.  1.
         21   -1    0    0  503  502  0.00000000000E+00 -0.00000000000E+00 -0.12001972226E+04  0.12001972226E+04  0.00000000000E+00 0.  1.
         21    1    1    2  503  501  0.14499344516E+02  0.44053129131E+02 -0.91764449384E+03  0.91881571942E+03  0.00000000000E+00 0.  1.
         21    1    1    2  504  505  0.37813906646E+02 -0.59053015130E+01  0.35545113128E+01  0.38436944110E+02  0.00000000000E+00 0.  1.
         21    1    1    2  505  502 -0.52282954309E+02 -0.13245406913E+03 -0.65935003467E+02  0.15692358785E+03  0.00000000000E+00 0.  1.
          3    1    1    2  501    0 -0.30296854252E-01  0.94306241511E+02 -0.13857363622E+03  0.16761957154E+03  0.00000000000E+00 0.  1.
<scales pt_clust_3="46.43936" pt_clust_4="38.27224" pt_clust_5="119.28602" pt_clust_6="14000.00000"></scales>
<clustering>
<clus scale="   38.272">  1  4  2 -1</clus>
<clus scale="   46.439">  2  3  1 -1</clus>
<clus scale="  119.286">  1  5  2 -1</clus>
<clus scale="   46.439">  2  3  1 -1</clus>
</clustering>
</event>
<event>
 6    0  0.3667994E+002  0.3025040E+03  0.7546771E-02  0.1083996E+00
          1   -1    0    0  504    0 -0.00000000000E+00  0.00000000000E+00  0.25027513372E+03  0.25027513372E+03  0.00000000000E+00 0. -1.
         21   -1    0    0  505  502  0.00000000000E+00 -0.00000000000E+00 -0.52076159151E+03  0.52076159151E+03  0.00000000000E+00 0. -1.
         21    1    1    2  503  502 -0.52861058025E+02  0.28075595594E+03 -0.26663557007E+03  0.39078475594E+03  0.00000000000E+00 0. -1.
         21    1    1    2  504  503 -0.13945516524E+02  0.29152639088E+02  0.42271033405E+02  0.53208965993E+02  0.00000000000E+00 0.  1.
         21    1    1    2  505  501  0.35933105795E+02 -0.48331273453E+02 -0.12549769141E+02  0.61519076644E+02  0.00000000000E+00 0. -1.
          1    1    1    2  501    0  0.30873468754E+02 -0.26157732157E+03 -0.33572151987E+02  0.26552392665E+03  0.00000000000E+00 0. -1.
<scales pt_clust_3="295.27147" pt_clust_4="32.31646" pt_clust_5="31.44144" pt_clust_6="31.44144"></scales>
<clustering>
<clus scale="   31.441">  5  6 -1 -1</clus>
<clus scale="   32.316">  1  4  2 -1</clus>
<clus scale="  295.271">  2  3  1 -1</clus>
<clus scale="  295.271">  2  3  1 -1</clus>
</clustering>
</event>
<event>
 6    0  0.3667994E+002  0.1502325E+03  0.7546771E-02  0.1200188E+00
          1   -1    0    0  503    0 -0.00000000000E+00  0.00000000000E+00  0.72861454559E+03  0.72861454559E+03  0.00000000000E+00 0.  1.
         21   -1    0    0  505  502  0.00000000000E+00 -0.00000000000E+00 -0.24878936771E+03  0.24878936771E+03  0.00000000000E+00 0. -1.
         21    1    1    2  503  502 -0.34237105661E+02 -0.56638489796E+01  0.26223063679E+02  0.43496064856E+02  0.00000000000E+00 0. -1.
         21    1    1    2  504  501  0.47767976409E+02 -0.13363137410E+03  0.19186143481E+03  0.23864185274E+03  0.00000000000E+00 0. -1.
         21    1    1    2  505  504  0.35769510782E+02 -0.56637487640E+01 -0.20286950173E+03  0.20607661363E+03  0.00000000000E+00 0. -1.
          1    1    1    2  501    0 -0.49300381530E+02  0.14495897184E+03  0.46461018112E+03  0.48918938208E+03  0.00000000000E+00 0.  1.
<scales pt_clust_3="34.70243" pt_clust_4="14000.00000" pt_clust_5="36.13903" pt_clust_6="150.23247"></scales>
<clustering>
<clus scale="   34.702">  1  3  2 -1</clus>
<clus scale="   36.139">  2  5  1 -1</clus>
<clus scale="  150.232">  1  6  2 -1</clus>
<clus scale="   36.139">  2  3  1 -1</clus>
</clustering>
</event>
<event>
 6    0  0.3667994E+002  0.1515491E+03  0.7546771E-02  0.1198582E+00
          2   -1    0    0  503    0 -0.00000000000E+00  0.00000000000E+00  0.10870332105E+04  0.10870332105E+04  0.00000000000E+00 0. -1.
         21   -1    0    0  504  502  0.00000000000E+00 -0.00000000000E+00 -0.32518651323E+03  0.32518651323E+03  0.00000000000E+00 0. -1.
         21    1    1    2  503  505  0.77007153826E+02  0.21967940368E+02  0.67740612495E+03  0.68212297297E+03  0.00000000000E+00 0. -1.
         21    1    1    2  504  501 -0.41847519658E+02 -0.16931575427E+02 -0.26149764826E+03  0.26536562172E+03  0.00000000000E+00 0. -1.
         21    1    1    2  505  502  0.49400756460E+02 -0.13587217047E+03  0.22530371280E+03  0.26770028848E+03  0.00000000000E+00 0. -1.
          2    1    1    2  501    0 -0.84560390629E+02  0.13083580553E+03  0.12063450782E+03  0.19703084060E+03  0.00000000000E+00 0. -1.
<scales pt_clust_3="78.36527" pt_clust_4="45.14303" pt_clust_5="151.54910" pt_clust_6="14000.00000"></scales>
<clustering>
<clus scale="   45.143">  2  4  1 -1</clus>
<clus scale="   78.365">  1  3  2 -1</clus>
<clus scale="  151.549">  1  5  2 -1</clus>
<clus scale="   45.143">  2  3  1 -1</clus>
</clustering>
</event>
<event>
 6    0  0.4856967E+002  0.8866965E+02  0.7546771E-02  0.1306106E+00
         21   -1    0    0  504  502  0.00000000000E+00  0.00000000000E+00  0.70957913917E+03  0.70957913917E+03  0.00000000000E+00 0. -1.
          2   -1    0    0  503    0 -0.00000000000E+00 -0.00000000000E+00 -0.13096982230E+04  0.13096982230E+04  0.00000000000E+00 0. -1.
         21    1    1    2  503  505  0.30150904496E+02 -0.40525073820E+02 -0.49896951708E+02  0.71000453800E+02  0.00000000000E+00 0.  1.
         21    1    1    2  504  501  0.11843954564E+02  0.87761841882E+02  0.67098480398E+03  0.67680353673E+03  0.00000000000E+00 0. -1.
         21    1    1    2  505  502 -0.33623354984E+02  0.85732366851E+02 -0.78447454789E+02  0.12097343464E+03  0.00000000000E+00 0. -1.
          2    1    1    2  501    0 -0.83715040755E+01 -0.13296913491E+03 -0.11427594813E+04  0.11504999370E+04  0.00000000000E+00 0. -1.
<scales pt_clust_3="50.51098" pt_clust_4="88.66965" pt_clust_5="88.20645" pt_clust_6="14000.00000"></scales>
<clustering>
<clus scale="   50.511">  2  3  1 -1</clus>
<clus scale="   88.206">  2  5  1 -1</clus>
<clus scale="   88.670">  1  4  2 -1</clus>
<clus scale="   88.670">  1  3  2 -1</clus>
</clustering>
</event>
<event>
 6    0  0.3667994E+002  0.1118407E+03  0.7546771E-02  0.1257199E+00
          1   -1    0    0  503    0 -0.00000000000E+00  0.00000000000E+00  0.36344116221E+04  0.36344116221E+04  0.00000000000E+00 0. -1.
         21   -1    0    0  504  502  0.00000000000E+00 -0.00000000000E+00 -0.14981322888E+03  0.14981322888E+03  0.00000000000E+00 0.  1.
         21    1    1    2  503  505 -0.59157600090E+02  0.27886868670E+02  0.16386119799E+03  0.17643069829E+03  0.00000000000E+00 0.  1.
         21    1    1    2  504  501  0.16568392919E+03 -0.47867268739E+02  0.49285509059E+03  0.52215762001E+03  0.00000000000E+00 0.  1.
         21    1    1    2  505  502  0.13617003219E+01  0.31576632809E+02 -0.12592814911E+03  0.12983388119E+03  0.00000000000E+00 0.  1.
          1    1    1    2  501    0 -0.10788802942E+03 -0.11596232739E+02  0.29538102537E+04  0.29558026515E+04  0.00000000000E+00 0. -1.
<scales pt_clust_3="69.41052" pt_clust_4="111.84068" pt_clust_5="31.60598" pt_clust_6="14000.00000"></scales>
<clustering>
<clus scale="   31.606">  2  5  1 -1</clus>
<clus scale="   69.411">  2  3  1 -1</clus>
<clus scale="  111.841">  2  4  1 -1</clus>
<clus scale="   31.606">  2  3  1 -1</clus>
</clustering>
</event>
<event>
 6    0  0.3667994E+002  0.9349971E+02  0.7546771E-02  0.1294591E+00
         21   -1    0    0  501  502  0.00000000000E+00  0.00000000000E+00  0.23566682672E+02  0.23566682672E+02  0.00000000000E+00 0.  1.
          1   -1    0    0  504    0 -0.00000000000E+00 -0.00000000000E+00 -0.19307319610E+04  0.19307319610E+04  0.00000000000E+00 0.  1.
         21    1    1    2  503  502  0.32377396962E+02 -0.23060618166E+02 -0.70056121460E+01  0.40362935297E+02  0.00000000000E+00 0.  1.
         21    1    1    2  504  505  0.16756700950E+02  0.25859586187E+02 -0.40133589852E+03  0.40251709115E+03  0.00000000000E+00 0.  1.
         21    1    1    2  505  503  0.33563208499E+02 -0.76278818091E+02 -0.57910538252E+03  0.58507092827E+03  0.00000000000E+00 0.  1.
          1    1    1    2  501    0 -0.82697306411E+02  0.73479850070E+02 -0.91971838515E+03  0.92634768896E+03  0.00000000000E+00 0.  1.
<scales pt_clust_3="39.73221" pt_clust_4="30.81404" pt_clust_5="14000.00000" pt_clust_6="93.49971"></scales>
<clustering>
<clus scale="   30.814">  2  4  1 -1</clus>
<clus scale="   39.732">  1  3  2 -1</clus>
<clus scale="   93.500">  1  6  2 -1</clus>
<clus scale="   39.732">  1  3  2 -1</clus>
</clustering>
</event>
<event>
 6    0  0.3667994E+002  0.1096109E+03  0.7546771E-02  0.1261292E+00
          1   -1    0    0  503    0 -0.00000000000E+00  0.00000000000E+00  0.40059556508E+03  0.40059556508E+03  0.00000000000E+00 0.  1.
         21   -1    0    0  505  502  0.00000000000E+00 -0.00000000000E+00 -0.19395777761E+03  0.19395777761E+03  0.00000000000E+00 0.  1.
         21    1    1    2  503  504  0.44271904113E+02 -0.20114777748E+02  0.13626662324E+03  0.14468309641E+03  0.00000000000E+00 0.  1.
         21    1    1    2  504  502 -0.63892416384E+01  0.10299207993E+03 -0.86890362486E+02  0.13490043006E+03  0.00000000000E+00 0.  1.
         21    1    1    2  505  501 -0.67378836934E+02 -0.12531698972E+03 -0.73136296897E+01  0.14247015392E+03  0.00000000000E+00 0.  1.
          1    1    1    2  501    0  0.29496174459E+02  0.42439687534E+02  0.16457515640E+03  0.17249966229E+03  0.00000000000E+00 0.  1.
<scales pt_clust_3="48.62721" pt_clust_4="14000.00000" pt_clust_5="109.61092" pt_clust_6="65.19030"></scales>
<clustering>
<clus scale="   48.627">  1  3  2 -1</clus>
<clus scale="   65.190">  1  6  2 -1</clus>
<clus scale="  109.611">  1  5  2 -1</clus>
<clus scale="  109.611">  2  3  1 -1</clus>
</clustering>
</event>
<event>
 6    0  0.3667994E+002  0.9230191E+02  0.7546771E-02  0.1297371E+00
         -3   -1    0    0    0  501 -0.00000000000E+00  0.00000000000E+00  0.42733015698E+03  0.42733015698E+03  0.00000000000E+00 0. -1.
         21   -1    0    0  503  502  0.00000000000E+00 -0.00000000000E+00 -0.10968016847E+03  0.10968016847E+03  0.00000000000E+00 0.  1.
         21    1    1    2  503  501  0.71495360595E+02  0.15327823791E+02  0.21012494084E+03  0.22248375116E+03  0.00000000000E+00 0.  1.
         21    1    1    2  504  502  0.67546367546E+02  0.34480281268E+02 -0.52976462136E+02  0.92508956893E+02  0.00000000000E+00 0.  1.
         21    1    1    2  505  504 -0.66657840797E+02 -0.11852962157E+02  0.48135038828E+02  0.83070707320E+02  0.00000000000E+00 0. -1.
         -3    1    1    2    0  505 -0.72383887343E+02 -0.37955142902E+02  0.11236647098E+03  0.13894691008E+03  0.00000000000E+00 0. -1.
<scales pt_clust_3="73.11996" pt_clust_4="82.47427" pt_clust_5="37.72045" pt_clust_6="37.72045"></scales>
<clustering>
<clus scale="   37.720">  5  6 -1 -1</clus>
<clus scale="   73.120">  1  3  2 -1</clus>
<clus scale="   82.474">  2  4  1 -1</clus>
<clus scale="   82.474">  2  3  1 -1</clus>
</clustering>
</event>
<event>
 6    0  0.3667994E+002  0.2462929E+03  0.7546771E-02  0.1115670E+00
         21   -1    0    0  505  502  0.00000000000E+00  0.00000000000E+00  0.69522044349E+03  0.69522044349E+03  0.00000000000E+00 0.  1.
         -2   -1    0    0    0  501 -0.00000000000E+00 -0.00000000000E+00 -0.25299998259E+03  0.25299998259E+03  0.00000000000E+00 0.  1.
         21    1    1    2  503  504  0.17015429144E+03 -0.84053365652E+02  0.31647093600E+02  0.19240319568E+03  0.00000000000E+00 0.  1.
         21    1    1    2  504  502 -0.21025541297E+03  0.17340603799E+03  0.49659140982E+03  0.56646272693E+03  0.00000000000E+00 0.  1.
         21    1    1    2  505  501  0.26621067106E+02  0.25334577993E+02  0.11184159313E+02  0.38413636582E+02  0.00000000000E+00 0.  1.
         -2    1    1    2    0  503  0.13480054429E+02 -0.11468725033E+03 -0.97202201832E+02  0.15094086689E+03  0.00000000000E+00 0.  1.
<scales pt_clust_3="246.29294" pt_clust_4="14000.00000" pt_clust_5="36.74945" pt_clust_6="105.15605"></scales>
<clustering>
<clus scale="   36.749">  2  5  1 -1</clus>
<clus scale="  105.156">  2  6  1 -1</clus>
<clus scale="  246.293">  2  3  1 -1</clus>
<clus scale="  246.293">  1  3  2 -1</clus>
</clustering>
</event>
<event>
 6    0  0.3667994E+002  0.1004551E+03  0.7546771E-02  0.1279342E+00
          2   -1    0    0  504    0 -0.00000000000E+00  0.00000000000E+00  0.78681881699E+03  0.78681881699E+03  0.00000000000E+00 0. -1.
         21   -1    0    0  503  502  0.00000000000E+00 -0.00000000000E+00 -0.63014608918E+02  0.63014608918E+02  0.00000000000E+00 0.  1.
         21    1    1    2  503  501  0.56614442433E+02  0.64974419960E+02  0.12007222215E+03  0.14779786491E+03  0.00000000000E+00 0.  1.
         21    1    1    2  504  505  0.16743335286E+02 -0.44399674334E+02  0.25332264628E+03  0.25772860430E+03  0.00000000000E+00 0. -1.
         21    1    1    2  505  502  0.25183244139E+02  0.23408485590E+02 -0.31996273669E+02  0.46967164186E+02  0.00000000000E+00 0.  1.
          2    1    1    2  501    0 -0.98541021858E+02 -0.43983231216E+02  0.38240561331E+03  0.39733979251E+03  0.00000000000E+00 0. -1.
<scales pt_clust_3="14000.00000" pt_clust_4="46.32909" pt_clust_5="34.38245" pt_clust_6="100.45507"></scales>
<clustering>
<clus scale="   34.382">  2  5  1 -1</clus>
<clus scale="   46.329">  1  4  2 -1</clus>
<clus scale="  100.455">  1  6  2 -1</clus>
<clus scale="   34.382">  2  3  1 -1</clus>
</clustering>
</event>
<event>
 6    0  0.3667994E+002  0.1154969E+03  0.7546771E-02  0.1250716E+00
         21   -1    0    0  504  502  0.00000000000E+00  0.00000000000E+00  0.31795109182E+02  0.31795109182E+02  0.00000000000E+00 0. -1.
          1   -1    0    0  505    0 -0.00000000000E+00 -0.00000000000E+00 -0.99777448911E+03  0.99777448911E+03  0.00000000000E+00 0.  1.
         21    1    1    2  503  502  0.19901440350E+02  0.59825020940E+02 -0.10835019658E+03  0.12535894686E+03  0.00000000000E+00 0.  1.
         21    1    1    2  504  501 -0.17613824413E+02 -0.27241737718E+02 -0.29641425659E+02  0.43942840139E+02  0.00000000000E+00 0. -1.
         21    1    1    2  505  503 -0.11389975590E+03 -0.40516007356E+02 -0.46222479093E+03  0.47777239204E+03  0.00000000000E+00 0. -1.
          1    1    1    2  501    0  0.11161213996E+03  0.79327241341E+01 -0.36576296676E+03  0.38249541926E+03  0.00000000000E+00 0.  1.
<scales pt_clust_3="52.28476" pt_clust_4="32.44008" pt_clust_5="115.49685" pt_clust_6="14000.00000"></scales>
<clustering>
<clus scale="   32.440">  1  4  2 -1</clus>
<clus scale="   52.285">  1  3  2 -1</clus>
<clus scale="  115.497">  2  5  1 -1</clus>
<clus scale="   32.440">  1  3  2 -1</clus>
</clustering>
</event>
<event>
 6    0  0.3667994E+002  0.1136749E+03  0.7546771E-02  0.1253912E+00
         -3   -1    0    0    0  501 -0.00000000000E+00  0.00000000000E+00  0.34324005252E+02  0.34324005252E+02  0.00000000000E+00 0. -1.
         21   -1    0    0  503  502  0.00000000000E+00 -0.00000000000E+00 -0.92263679641E+03  0.92263679641E+03  0.00000000000E+00 0. -1.
         21    1    1    2  503  501 -0.39760674339E+02 -0.32307324360E+02 -0.44249661384E+02  0.67695693835E+02  0.00000000000E+00 0. -1.
         21    1    1    2  504  505  0.57446127740E+02  0.80134326079E+02 -0.17565382631E+03  0.20143444220E+03  0.00000000000E+00 0. -1.
         21    1    1    2  505  502 -0.11320017128E+01 -0.88973151093E+02 -0.59823284989E+03  0.60481405881E+03  0.00000000000E+00 0. -1.
         -3    1    1    2    0  504 -0.16553451688E+02  0.41146149374E+02 -0.70176453575E+02  0.83016606817E+02  0.00000000000E+00 0. -1.
<scales pt_clust_3="51.23158" pt_clust_4="42.93799" pt_clust_5="93.93227" pt_clust_6="42.93799"></scales>
<clustering>
<clus scale="   42.938">  4  6 -1 -1</clus>
<clus scale="   51.232">  1  3  2 -1</clus>
<clus scale="   93.932">  2  5  1 -1</clus>
<clus scale="   93.932">  2  3  1 -1</clus>
</clustering>
</event>
<event>
 6    0  0.3667994E+002  0.6720922E+02  0.7546771E-02  0.1369849E+00
         21   -1    0    0  505  502  0.00000000000E+00  0.00000000000E+00  0.84852953374E+03  0.84852953374E+03  0.00000000000E+00 0.  1.
         -1   -1    0    0    0  501 -0.00000000000E+00 -0.00000000000E+00 -0.53285238701E+03  0.53285238701E+03  0.00000000000E+00 0. -1.
         21    1    1    2  503  504 -0.14118893152E+02  0.12134889462E+03 -0.10435310074E+03  0.16066881155E+03  0.00000000000E+00 0.  1.
         21    1    1    2  504  502  0.43553601748E+01 -0.35020566039E+02  0.78114990025E+03  0.78194665794E+03  0.00000000000E+00 0.  1.
         21    1    1    2  505  501  0.22562928480E+02 -0.24169807696E+02  0.28719282427E+02  0.43795690755E+02  0.00000000000E+00 0. -1.
         -1    1    1    2    0  503 -0.12799395502E+02 -0.62158520888E+02 -0.38983893521E+03  0.39497076050E+03  0.00000000000E+00 0. -1.
<scales pt_clust_3="14000.00000" pt_clust_4="67.20922" pt_clust_5="33.06456" pt_clust_6="63.52310"></scales>
<clustering>
<clus scale="   33.065">  1  5  2 -1</clus>
<clus scale="   63.523">  2  6  1 -1</clus>
<clus scale="   67.209">  1  4  2 -1</clus>
<clus scale="   33.065">  1  3  2 -1</clus>
</clustering>
</event>
<event>
 6    0  0.3667994E+002  0.5329410E+03  0.7546771E-02  0.1005521E+00
          2   -1    0    0  503    0 -0.00000000000E+00  0.00000000000E+00  0.28071309689E+04  0.28071309689E+04  0.00000000000E+00 0. -1.
         21   -1    0    0  504  502  0.00000000000E+00 -0.00000000000E+00 -0.13904257573E+03  0.13904257573E+03  0.00000000000E+00 0. -1.
         21    1    1    2  503  505  0.46855825541E+03 -0.26821544708E+03  0.12993709013E+04  0.14070718190E+04  0.00000000000E+00 0. -1.
         21    1    1    2  504  501 -0.56858637809E+02  0.14086152790E+02  0.93473569121E+02  0.11031152487E+03  0.00000000000E+00 0.  1.
         21    1    1    2  505  502 -0.19577060482E+02  0.27119368762E+02 -0.31363936312E+02  0.45852131468E+02  0.00000000000E+00 0. -1.
          2    1    1    2  501    0 -0.39212255712E+03  0.22700992553E+03  0.13066078591E+04  0.13829380693E+04  0.00000000000E+00 0. -1.
<scales pt_clust_3="523.61363" pt_clust_4="35.89062" pt_clust_5="33.44729" pt_clust_6="35.89062"></scales>
<clustering>
<clus scale="   33.447">  2  5  1 -1</clus>
<clus scale="   35.891">  4  6 -1 -1</clus>
<clus scale="  523.614">  2  3  1 -1</clus>
<clus scale="   33.447">  2  3  1 -1</clus>
</clustering>
</event>
<event>
 6    0  0.3667994E+002  0.1556793E+03  0.7546771E-02  0.1193663E+00
         21   -1    0    0  503  502  0.00000000000E+00  0.00000000000E+00  0.12832305207E+03  0.12832305207E+03  0.00000000000E+00 0. -1.
         -2   -1    0    0    0  501 -0.00000000000E+00 -0.00000000000E+00 -0.18567169991E+03  0.18567169991E+03  0.00000000000E+00 0. -1.
         21    1    1    2  503  505  0.25295953115E+02  0.41319203159E+02  0.27665629496E+02  0.55790221806E+02  0.00000000000E+00 0. -1.
         21    1    1    2  504  501  0.34933670087E+02  0.14163877924E+02 -0.14721281358E+01  0.37724579585E+02  0.00000000000E+00 0. -1.
         21    1    1    2  505  504  0.22902745335E+02  0.57398021675E+02 -0.11488474709E+02  0.62857407577E+02  0.00000000000E+00 0. -1.
         -2    1    1    2    0  502 -0.83132368538E+02 -0.11288110276E+03 -0.72053674484E+02  0.15762254301E+03  0.00000000000E+00 0. -1.
<scales pt_clust_3="33.60626" pt_clust_4="30.07251" pt_clust_5="33.60626" pt_clust_6="140.18964"></scales>
<clustering>
<clus scale="   30.073">  4  5 -1 -1</clus>
<clus scale="   33.606">  3  4 -1 -1</clus>
<clus scale="  140.190">  2  6  1 -1</clus>
<clus scale="  155.679">  1  3  2 -1</clus>
</clustering>
</event>
<event>
 6    0  0.3667994E+002  0.1268844E+03  0.7546771E-02  0.1232153E+00
         21   -1    0    0  503  502  0.00000000000E+00  0.00000000000E+00  0.32681632028E+02  0.32681632028E+02  0.00000000000E+00 0. -1.
          2   -1    0    0  505    0 -0.00000000000E+00 -0.00000000000E+00 -0.27368137540E+04  0.27368137540E+04  0.00000000000E+00 0. -1.
         21    1    1    2  503  504 -0.10143593431E+03 -0.61116612182E+02 -0.91415341187E+02  0.14960365523E+03  0.00000000000E+00 0. -1.
         21    1    1    2  504  501  0.45134219756E+02  0.15856511279E+02 -0.57043402622E+03  0.57243646373E+03  0.00000000000E+00 0.  1.
         21    1    1    2  505  502 -0.18375784728E+02  0.27752905404E+02 -0.15131945276E+03  0.15493698721E+03  0.00000000000E+00 0.  1.
          2    1    1    2  501    0  0.74677499285E+02  0.17507195499E+02 -0.18909633018E+04  0.18925182798E+04  0.00000000000E+00 0. -1.
<scales pt_clust_3="118.50128" pt_clust_4="36.49243" pt_clust_5="33.28503" pt_clust_6="36.49243"></scales>
<clustering>
<clus scale="   33.285">  2  5  1 -1</clus>
<clus scale="   36.492">  4  6 -1 -1</clus>
<clus scale="  118.501">  1  3  2 -1</clus>
<clus scale="  118.501">  1  3  2 -1</clus>
</clustering>
</event>
<event>
 6    0  0.3667994E+002  0.7270420E+02  0.7546771E-02  0.1351131E+00
         21   -1    0    0  504  502  0.00000000000E+00  0.00000000000E+00  0.12293881428E+04  0.12293881428E+04  0.00000000000E+00 0. -1.
          2   -1    0    0  505    0 -0.00000000000E+00 -0.00000000000E+00 -0.85632739811E+02  0.85632739811E+02  0.00000000000E+00 0. -1.
         21    1    1    2  503  501  0.14996063172E+02 -0.47975943571E+02  0.35050813881E+03  0.35409395426E+03  0.00000000000E+00 0. -1.
         21    1    1    2  504  503  0.40830893622E+02 -0.84707800231E+01  0.79759352057E+03  0.79868287827E+03  0.00000000000E+00 0. -1.
         21    1    1    2  505  502 -0.96674226906E+02  0.83315065755E+01  0.99135242333E+01  0.97537675349E+02  0.00000000000E+00 0. -1.
          2    1    1    2  501    0  0.40847270112E+02  0.48115217018E+02 -0.14259780644E+02  0.64706374712E+02  0.00000000000E+00 0. -1.
<scales pt_clust_3="72.70420" pt_clust_4="41.70031" pt_clust_5="14000.00000" pt_clust_6="64.31908"></scales>
<clustering>
<clus scale="   41.700">  1  4  2 -1</clus>
<clus scale="   64.319">  2  6  1 -1</clus>
<clus scale="   72.704">  1  3  2 -1</clus>
<clus scale="   41.700">  1  3  2 -1</clus>
</clustering>
</event>
<event>
 6    0  0.3667994E+002  0.7254795E+02  0.7546771E-02  0.1351637E+00
          1   -1    0    0  503    0 -0.00000000000E+00  0.00000000000E+00  0.38643215059E+03  0.38643215059E+03  0.00000000000E+00 0.  1.
         21   -1    0    0  504  502  0.00000000000E+00 -0.00000000000E+00 -0.17691519674E+04  0.17691519674E+04  0.00000000000E+00 0.  1.
         21    1    1    2  503  505  0.14601124459E+02 -0.56665772416E+02  0.29357787320E+01  0.58590284141E+02  0.00000000000E+00 0. -1.
         21    1    1    2  504  501 -0.42500486774E+02  0.74546567559E+02  0.63226735725E+02  0.10658847133E+03  0.00000000000E+00 0. -1.
         21    1    1    2  505  502  0.41684580823E+02 -0.59235212575E+02 -0.17171208715E+04  0.17186478703E+04  0.00000000000E+00 0.  1.
          1    1    1    2  501    0 -0.13785218507E+02  0.41354417433E+02  0.26823854026E+03  0.27175749220E+03  0.00000000000E+00 0.  1.
<scales pt_clust_3="47.03406" pt_clust_4="72.54795" pt_clust_5="14000.00000" pt_clust_6="43.59151"></scales>
<clustering>
<clus scale="   43.592">  1  6  2 -1</clus>
<clus scale="   47.034">  1  3  2 -1</clus>
<clus scale="   72.548">  1  4  2 -1</clus>
<clus scale="   72.548">  2  3  1 -1</clus>
</clustering>
</event>
<event>
 6    0  0.3667994E+002  0.1812547E+03  0.7546771E-02  0.1166594E+00
         21   -1    0    0  505  502  0.00000000000E+00  0.00000000000E+00  0.49428840189E+03  0.49428840189E+03  0.00000000000E+00 0.  1.
          1   -1    0    0  503    0 -0.00000000000E+00 -0.00000000000E+00 -0.75434874532E+03  0.75434874532E+03  0.00000000000E+00 0.  1.
         21    1    1    2  503  504  0.77564430301E+02  0.34866280471E+02 -0.32422867450E+03  0.33519566186E+03  0.00000000000E+00 0.  1.
         21    1    1    2  504  502  0.16964504467E+03 -0.16934165574E+02  0.43331246683E+03  0.46564568188E+03  0.00000000000E+00 0.  1.
         21    1    1    2  505  501 -0.15091626753E+03 -0.11477980308E+02 -0.17783798812E+03  0.23352476069E+03  0.00000000000E+00 0.  1.
          1    1    1    2  501    0 -0.96293207439E+02 -0.64541345901E+01 -0.19130614764E+03  0.21427104279E+03  0.00000000000E+00 0.  1.
<scales pt_clust_3="85.04057" pt_clust_4="173.30221" pt_clust_5="42.40180" pt_clust_6="42.40180"></scales>
<clustering>
<clus scale="   42.402">  5  6 -1 -1</clus>
<clus scale="   85.041">  2  3  1 -1</clus>
<clus scale="  173.302">  1  4  2 -1</clus>
<clus scale="  173.302">  1  3  2 -1</clus>
</clustering>
</event>
<event>
 6    0  0.4991167E+002  0.9487760E+02  0.7546771E-02  0.1291452E+00
         21   -1    0    0  504  502  0.00000000000E+00  0.00000000000E+00  0.58166835010E+03  0.58166835010E+03  0.00000000000E+00 0.  1.
         -3   -1    0    0    0  501 -0.00000000000E+00 -0.00000000000E+00 -0.49621492489E+03  0.49621492489E+03  0.00000000000E+00 0.  1.
         21    1    1    2  503  502 -0.48952074222E+02  0.81640633912E+02  0.54283798242E+03  0.55112119705E+03  0.00000000000E+00 0.  1.
         21    1    1    2  504  505  0.57660176963E+02  0.29887440424E+02 -0.34455316694E+02  0.73519548088E+02  0.00000000000E+00 0. -1.
         21    1    1    2  505  501  0.10741627041E+01 -0.31946239697E+02 -0.11340240670E+02  0.33916325196E+02  0.00000000000E+00 0.  1.
         -3    1    1    2    0  503 -0.97822654445E+01 -0.79581834639E+02 -0.41158899984E+03  0.41932620466E+03  0.00000000000E+00 0.  1.
<scales pt_clust_3="94.87760" pt_clust_4="63.46390" pt_clust_5="31.96429" pt_clust_6="14000.00000"></scales>
<clustering>
<clus scale="   31.964">  2  5  1 -1</clus>
<clus scale="   63.464">  2  4  1 -1</clus>
<clus scale="   94.878">  1  3  2 -1</clus>
<clus scale="   94.878">  1  3  2 -1</clus>
</clustering>
</event>
<event>
 6    0  0.3667994E+002  0.5527359E+03  0.7546771E-02  0.1000863E+00
          2   -1    0    0  505    0 -0.00000000000E+00  0.00000000000E+00  0.26236059359E+04  0.26236059359E+04  0.00000000000E+00 0. -1.
         21   -1    0    0  503  502  0.00000000000E+00 -0.00000000000E+00 -0.17823308345E+03  0.17823308345E+03  0.00000000000E+00 0. -1.
         21    1    1    2  503  504  0.49422520267E+03 -0.25452269147E+03  0.42437273530E+03  0.69938013261E+03  0.00000000000E+00 0. -1.
         21    1    1    2  504  501 -0.13817683174E+03  0.78573881898E+02  0.47119149647E+03  0.49728072363E+03  0.00000000000E+00 0. -1.
         21    1    1    2  505  502 -0.79992386373E+01  0.42047433627E+02  0.21703851435E+03  0.22121865022E+03  0.00000000000E+00 0.  1.
          2    1    1    2  501    0 -0.34804913229E+03  0.13390137595E+03  0.13327701063E+04  0.13839595129E+04  0.00000000000E+00 0. -1.
<scales pt_clust_3="549.81000" pt_clust_4="37.08161" pt_clust_5="42.80157" pt_clust_6="37.08161"></scales>
<clustering>
<clus scale="   37.082">  4  6 -1 -1</clus>
<clus scale="   42.802">  1  5  2 -1</clus>
<clus scale="  549.810">  2  3  1 -1</clus>
<clus scale="  549.810">  2  3  1 -1</clus>
</clustering>
</event>
<event>
 6    0  0.3667994E+002  0.1197852E+03  0.7546771E-02  0.1243452E+00
         21   -1    0    0  503  502  0.00000000000E+00  0.00000000000E+00  0.46148380598E+02  0.46148380598E+02  0.00000000000E+00 0. -1.
          2   -1    0    0  505    0 -0.00000000000E+00 -0.00000000000E+00 -0.85028203195E+03  0.85028203195E+03  0.00000000000E+00 0. -1.
         21    1    1    2  503  504 -0.27513077777E+02 -0.12731585097E+02  0.15580139067E+02  0.34085237878E+02  0.00000000000E+00 0. -1.
         21    1    1    2  504  501 -0.40677094610E+02  0.34920876460E+02 -0.35111202012E+03  0.35518128372E+03  0.00000000000E+00 0. -1.
         21    1    1    2  505  502  0.12498469842E+03 -0.29354895106E+02 -0.24806932543E+03  0.27932288651E+03  0.00000000000E+00 0. -1.
          2    1    1    2  501    0 -0.56794526029E+02  0.71656037432E+01 -0.22053244487E+03  0.22784100444E+03  0.00000000000E+00 0. -1.
<scales pt_clust_3="30.31605" pt_clust_4="40.72948" pt_clust_5="111.72687" pt_clust_6="40.72948"></scales>
<clustering>
<clus scale="   30.316">  1  3  2 -1</clus>
<clus scale="   40.729">  4  6 -1 -1</clus>
<clus scale="  111.727">  1  5  2 -1</clus>
<clus scale="   30.316">  1  3  2 -1</clus>
</clustering>
</event>
<event>
 6    0  0.5825227E+002  0.1400896E+03  0.7546771E-02  0.1213208E+00
         21   -1    0    0  501  502  0.00000000000E+00  0.00000000000E+00  0.27713645857E+04  0.27713645857E+04  0.00000000000E+00 0. -1.
          1   -1    0    0  503    0 -0.00000000000E+00 -0.00000000000E+00 -0.14826425831E+04  0.14826425831E+04  0.00000000000E+00 0. -1.
         21    1    1    2  503  505  0.11531870859E+03  0.58798384967E+02 -0.11763770874E+04  0.11834773789E+04  0.00000000000E+00 0. -1.
         21    1    1    2  504  502 -0.47672098146E+02  0.17966405756E+02  0.26697212696E+04  0.26702073099E+04  0.00000000000E+00 0. -1.
         21    1    1    2  505  504 -0.96408661876E+02 -0.25669752060E+02  0.68472456537E+02  0.12100431215E+03  0.00000000000E+00 0.  1.
          1    1    1    2  501    0  0.28762051436E+02 -0.51095038664E+02 -0.27309463610E+03  0.27931816777E+03  0.00000000000E+00 0. -1.
<scales pt_clust_3="14000.00000" pt_clust_4="50.94527" pt_clust_5="140.08957" pt_clust_6="57.44480"></scales>
<clustering>
<clus scale="   50.945">  1  4  2 -1</clus>
<clus scale="   57.445">  2  6  1 -1</clus>
<clus scale="  140.090">  1  5  2 -1</clus>
<clus scale="   50.945">  1  3  2 -1</clus>
</clustering>
</event>
<event>
 6    0  0.3667994E+002  0.1110399E+03  0.7546771E-02  0.1258656E+00
          2   -1    0    0  505    0 -0.00000000000E+00  0.00000000000E+00  0.10157149139E+04  0.10157149139E+04  0.00000000000E+00 0.  1.
         21   -1    0    0  504  502  0.00000000000E+00 -0.00000000000E+00 -0.64315385485E+02  0.64315385485E+02  0.00000000000E+00 0.  1.
         21    1    1    2  503  502  0.32094688649E+02 -0.86244010829E+02  0.60250470067E+01  0.92219301856E+02  0.00000000000E+00 0.  1.
         21    1    1    2  504  501 -0.83916738185E+01  0.75254700795E+02  0.13134838874E+03  0.15161164007E+03  0.00000000000E+00 0.  1.
         21    1    1    2  505  503  0.24858212275E+02 -0.34172831014E+02  0.71944933185E+03  0.72068929103E+03  0.00000000000E+00 0.  1.
          2    1    1    2  501    0 -0.48561227106E+02  0.45162141047E+02  0.94576760865E+02  0.11551006648E+03  0.00000000000E+00 0.  1.
<scales pt_clust_3="98.80224" pt_clust_4="47.41619" pt_clust_5="42.25770" pt_clust_6="47.41619"></scales>
<clustering>
<clus scale="   42.258">  1  5  2 -1</clus>
<clus scale="   47.416">  4  6 -1 -1</clus>
<clus scale="   98.802">  2  3  1 -1</clus>
<clus scale="   98.802">  2  3  1 -1</clus>
</clustering>
</event>
<event>
 6    0  0.3667994E+002  0.1668461E+03  0.7546771E-02  0.1181177E+00
          1   -1    0    0  503    0 -0.00000000000E+00  0.00000000000E+00  0.15966695276E+03  0.15966695276E+03  0.00000000000E+00 0. -1.
         21   -1    0    0  504  502  0.00000000000E+00 -0.00000000000E+00 -0.78749427555E+03  0.78749427555E+03  0.00000000000E+00 0. -1.
         21    1    1    2  503  502  0.33068376904E+02  0.41145885715E+02 -0.17892287243E+02  0.55737199474E+02  0.00000000000E+00 0. -1.
         21    1    1    2  504  505 -0.28287588516E+02 -0.69637022816E+02 -0.98434813060E+02  0.12385037357E+03  0.00000000000E+00 0. -1.
         21    1    1    2  505  501 -0.88972566054E+02 -0.70953825519E+02 -0.59958903999E+03  0.61029302777E+03  0.00000000000E+00 0. -1.
          1    1    1    2  501    0  0.84191777667E+02  0.99444962619E+02  0.88088817506E+02  0.15728062750E+03  0.00000000000E+00 0. -1.
<scales pt_clust_3="52.78732" pt_clust_4="70.61084" pt_clust_5="14000.00000" pt_clust_6="166.84605"></scales>
<clustering>
<clus scale="   52.787">  1  3  2 -1</clus>
<clus scale="   70.611">  2  4  1 -1</clus>
<clus scale="  166.846">  1  6  2 -1</clus>
<clus scale="   70.611">  2  3  1 -1</clus>
</clustering>
</event>
<event>
 6    0  0.3667994E+002  0.1345610E+03  0.7546771E-02  0.1220841E+00
          2   -1    0    0  505    0 -0.00000000000E+00  0.00000000000E+00  0.48559040068E+03  0.48559040068E+03  0.00000000000E+00 0. -1.
         21   -1    0    0  504  502  0.00000000000E+00 -0.00000000000E+00 -0.72841783388E+02  0.72841783388E+02  0.00000000000E+00 0. -1.
         21    1    1    2  503  502 -0.46093383969E+02  0.10708739175E+03  0.24563111124E+02  0.11914552423E+03  0.00000000000E+00 0. -1.
         21    1    1    2  504  501  0.28447455489E+02 -0.29639821909E+02  0.83908839529E+02  0.93426281729E+02  0.00000000000E+00 0. -1.
         21    1    1    2  505  503  0.22231840981E+02  0.26400429776E+02  0.18257233761E+03  0.18580607069E+03  0.00000000000E+00 0. -1.
          2    1    1    2  501    0 -0.45859125000E+01 -0.10384799961E+03  0.12170432903E+03  0.16005430741E+03  0.00000000000E+00 0. -1.
<scales pt_clust_3="120.49650" pt_clust_4="40.17839" pt_clust_5="34.51431" pt_clust_6="40.17839"></scales>
<clustering>
<clus scale="   34.514">  1  5  2 -1</clus>
<clus scale="   40.178">  4  6 -1 -1</clus>
<clus scale="  120.497">  2  3  1 -1</clus>
<clus scale="  120.497">  2  3  1 -1</clus>
</clustering>
</event>
<event>
 6    0  0.3667994E+002  0.8442158E+02  0.7546771E-02  0.1316952E+00
         21   -1    0    0  505  502  0.00000000000E+00  0.00000000000E+00  0.29766248165E+02  0.29766248165E+02  0.00000000000E+00 0. -1.
          2   -1    0    0  503    0 -0.00000000000E+00 -0.00000000000E+00 -0.11042921712E+04  0.11042921712E+04  0.00000000000E+00 0. -1.
         21    1    1    2  503  504  0.10460621309E+02 -0.41153667976E+02 -0.23081932471E+03  0.23469258541E+03  0.00000000000E+00 0.  1.
         21    1    1    2  504  502  0.51716035816E+02 -0.30457225149E+02 -0.11426842424E+03  0.12907154490E+03  0.00000000000E+00 0. -1.
         21    1    1    2  505  501 -0.95538468035E+02  0.78074346647E+02 -0.17122584353E+03  0.21104855359E+03  0.00000000000E+00 0. -1.
          2    1    1    2  501    0  0.33361810910E+02 -0.64634535211E+01 -0.55821233052E+03  0.55924573543E+03  0.00000000000E+00 0. -1.
<scales pt_clust_3="50.37840" pt_clust_4="14000.00000" pt_clust_5="84.42158" pt_clust_6="33.98215"></scales>
<clustering>
<clus scale="   33.982">  2  6  1 -1</clus>
<clus scale="   50.378">  2  3  1 -1</clus>
<clus scale="   84.422">  2  5  1 -1</clus>
<clus scale="   84.422">  1  3  2 -1</clus>
</clustering>
</event>
<event>
 6    0  0.3667994E+002  0.1150531E+03  0.7546771E-02  0.1251488E+00
         21   -1    0    0  503  502  0.00000000000E+00  0.00000000000E+00  0.65112085862E+03  0.65112085862E+03  0.00000000000E+00 0.  1.
          3   -1    0    0  504    0 -0.00000000000E+00 -0.00000000000E+00 -0.33738722154E+03  0.33738722154E+03  0.00000000000E+00 0. -1.
         21    1    1    2  503  501 -0.86488439184E+01 -0.58518147810E+02  0.22918596925E+02  0.63438460016E+02  0.00000000000E+00 0.  1.
         21    1    1    2  504  505  0.32152663925E+02 -0.24959068691E+02 -0.48606341144E+01  0.40992373332E+02  0.00000000000E+00 0. -1.
         21    1    1    2  505  502 -0.88760255139E+02 -0.79178136136E+01  0.57560479887E+03  0.58246198086E+03  0.00000000000E+00 0.  1.
          3    1    1    2  501    0  0.65256435133E+02  0.91395030115E+02 -0.27992912460E+03  0.30161526595E+03  0.00000000000E+00 0. -1.
<scales pt_clust_3="60.48488" pt_clust_4="40.70318" pt_clust_5="14000.00000" pt_clust_6="115.05310"></scales>
<clustering>
<clus scale="   40.703">  2  4  1 -1</clus>
<clus scale="   60.485">  1  3  2 -1</clus>
<clus scale="  115.053">  2  6  1 -1</clus>
<clus scale="   60.485">  1  3  2 -1</clus>
</clustering>
</event>
<event>
 6    0  0.3914703E+002  0.1324923E+03  0.7546771E-02  0.1223804E+00
          1   -1    0    0  505    0 -0.00000000000E+00  0.00000000000E+00  0.20694576248E+04  0.20694576248E+04  0.00000000000E+00 0.  1.
         21   -1    0    0  503  502  0.00000000000E+00 -0.00000000000E+00 -0.16169599532E+04  0.16169599532E+04  0.00000000000E+00 0.  1.
         21    1    1    2  503  504  0.52161685412E+02  0.10745815946E+03 -0.32794361741E+02  0.12386915525E+03  0.00000000000E+00 0. -1.
         21    1    1    2  504  501  0.85198981399E+02 -0.93178188829E+02  0.23712678972E+03  0.26864503663E+03  0.00000000000E+00 0.  1.
         21    1    1    2  505  502 -0.87111668334E+02  0.47186577425E+02 -0.15203662991E+04  0.15235907256E+04  0.00000000000E+00 0.  1.
          1    1    1    2  501    0 -0.50248998477E+02 -0.61466548061E+02  0.17685315427E+04  0.17703126605E+04  0.00000000000E+00 0.  1.
<scales pt_clust_3="14000.00000" pt_clust_4="132.49227" pt_clust_5="99.15175" pt_clust_6="79.39205"></scales>
<clustering>
<clus scale="   79.392">  1  6  2 -1</clus>
<clus scale="   99.152">  2  5  1 -1</clus>
<clus scale="  132.492">  1  4  2 -1</clus>
<clus scale="   99.152">  2  3  1 -1</clus>
</clustering>
</event>
<event>
 6    0  0.3667994E+002  0.1559605E+03  0.7546771E-02  0.1193334E+00
         21   -1    0    0  504  502  0.00000000000E+00  0.00000000000E+00  0.98258474879E+03  0.98258474879E+03  0.00000000000E+00 0.  1.
          2   -1    0    0  505    0 -0.00000000000E+00 -0.00000000000E+00 -0.59197567701E+03  0.59197567701E+03  0.00000000000E+00 0.  1.
         21    1    1    2  503  501 -0.72645840280E+02  0.11066543493E+03  0.31064418869E+02  0.13597519891E+03  0.00000000000E+00 0.  1.
         21    1    1    2  504  503 -0.37975552758E+02 -0.16047311899E+03  0.87925290491E+03  0.89458338646E+03  0.00000000000E+00 0.  1.
         21    1    1    2  505  502  0.50387624238E+02 -0.24820680950E+02 -0.11365929629E+03  0.12678097063E+03  0.00000000000E+00 0.  1.
          2    1    1    2  501    0  0.60233768800E+02  0.74628365007E+02 -0.40604895572E+03  0.41722086981E+03  0.00000000000E+00 0.  1.
<scales pt_clust_3="155.96050" pt_clust_4="14000.00000" pt_clust_5="56.16920" pt_clust_6="116.89117"></scales>
<clustering>
<clus scale="   56.169">  2  5  1 -1</clus>
<clus scale="  116.891">  2  6  1 -1</clus>
<clus scale="  155.960">  2  3  1 -1</clus>
<clus scale="  155.960">  1  3  2 -1</clus>
</clustering>
</event>
<event>
 6    0  0.3667994E+002  0.1121117E+03  0.7546771E-02  0.1256709E+00
          2   -1    0    0  504    0 -0.00000000000E+00  0.00000000000E+00  0.38042766305E+03  0.38042766305E+03  0.00000000000E+00 0.  1.
         21   -1    0    0  505  502  0.00000000000E+00 -0.00000000000E+00 -0.27369883777E+03  0.27369883777E+03  0.00000000000E+00 0.  1.
         21    1    1    2  503  502 -0.73211092210E+02  0.62752697747E+01 -0.94600921417E+02  0.11978554740E+03  0.00000000000E+00 0.  1.
         21    1    1    2  504  503 -0.71737167328E+02  0.56527086396E+02  0.12191001002E+03  0.15232722415E+03  0.00000000000E+00 0. -1.
         21    1    1    2  505  501 -0.35132283037E+02 -0.61214425688E+02 -0.10353013692E+03  0.12529953102E+03  0.00000000000E+00 0.  1.
          2    1    1    2  501    0  0.18008054258E+03 -0.15879304824E+01  0.18294987359E+03  0.25671419825E+03  0.00000000000E+00 0.  1.
<scales pt_clust_3="112.11166" pt_clust_4="90.59496" pt_clust_5="70.57962" pt_clust_6="14000.00000"></scales>
<clustering>
<clus scale="   70.580">  2  5  1 -1</clus>
<clus scale="   90.595">  1  4  2 -1</clus>
<clus scale="  112.112">  2  3  1 -1</clus>
<clus scale="   70.580">  2  3  1 -1</clus>
</clustering>
</event>
<event>
 6    0  0.3667994E+002  0.1110545E+03  0.7546771E-02  0.1258629E+00
         21   -1    0    0  504  502  0.00000000000E+00  0.00000000000E+00  0.41692014601E+03  0.41692014601E+03  0.00000000000E+00 0. -1.
         -2   -1    0    0    0  501 -0.00000000000E+00 -0.00000000000E+00 -0.19055475919E+03  0.19055475919E+03  0.00000000000E+00 0. -1.
         21    1    1    2  503  502 -0.30862153174E+02  0.30522775029E+02  0.26871798749E+02  0.51051012351E+02  0.00000000000E+00 0.  1.
         21    1    1    2  504  501  0.88540359297E+02 -0.11206519433E+03  0.34564953322E+03  0.37399412137E+03  0.00000000000E+00 0. -1.
         21    1    1    2  505  503 -0.22903161210E+02  0.22271960714E+02 -0.17141152645E+02  0.36254849902E+02  0.00000000000E+00 0.  1.
         -2    1    1    2    0  505 -0.34775044913E+02  0.59270458585E+02 -0.12901479251E+03  0.14617492157E+03  0.00000000000E+00 0. -1.
<scales pt_clust_3="43.40636" pt_clust_4="101.93128" pt_clust_5="30.05557" pt_clust_6="30.05557"></scales>
<clustering>
<clus scale="   30.056">  5  6 -1 -1</clus>
<clus scale="   43.406">  1  3  2 -1</clus>
<clus scale="  101.931">  1  4  2 -1</clus>
<clus scale="   43.406">  1  3  2 -1</clus>
</clustering>
</event>
<event>
 6    0  0.3667994E+002  0.1870043E+03  0.7546771E-02  0.1161191E+00
          1   -1    0    0  503    0 -0.00000000000E+00  0.00000000000E+00  0.44450355042E+03  0.44450355042E+03  0.00000000000E+00 0.  1.
         21   -1    0    0  504  502  0.00000000000E+00 -0.00000000000E+00 -0.51301021448E+03  0.51301021448E+03  0.00000000000E+00 0. -1.
         21    1    1    2  503  505  0.18074606271E+03 -0.21353054543E+03  0.19395341105E+03  0.34041498010E+03  0.00000000000E+00 0. -1.
         21    1    1    2  504  501 -0.69002561973E+02  0.19996036019E+02 -0.30640637452E+03  0.31471584224E+03  0.00000000000E+00 0.  1.
         21    1    1    2  505  502 -0.12529502189E+02  0.89283167023E+02 -0.73741108447E+02  0.11647413195E+03  0.00000000000E+00 0.  1.
          1    1    1    2  501    0 -0.99213998552E+02  0.10425134238E+03  0.11768740785E+03  0.18590881061E+03  0.00000000000E+00 0.  1.
<scales pt_clust_3="187.00430" pt_clust_4="71.84146" pt_clust_5="108.43102" pt_clust_6="14000.00000"></scales>
<clustering>
<clus scale="   71.841">  2  4  1 -1</clus>
<clus scale="  108.431">  2  5  1 -1</clus>
<clus scale="  187.004">  2  3  1 -1</clus>
<clus scale="   71.841">  2  3  1 -1</clus>
</clustering>
</event>
<event>
 6    0  0.3667994E+002  0.1384537E+03  0.7546771E-02  0.1215425E+00
          1   -1    0    0  505    0 -0.00000000000E+00  0.00000000000E+00  0.19049806647E+04  0.19049806647E+04  0.00000000000E+00 0. -1.
         21   -1    0    0  504  502  0.00000000000E+00 -0.00000000000E+00 -0.21181315541E+03  0.21181315541E+03  0.00000000000E+00 0. -1.
         21    1    1    2  503  502 -0.16165762021E+02 -0.27733099455E+02 -0.18228982890E+03  0.18509467412E+03  0.00000000000E+00 0. -1.
         21    1    1    2  504  501  0.13325336786E+03 -0.54784860149E+02  0.19057723259E+03  0.23890902564E+03  0.00000000000E+00 0. -1.
         21    1    1    2  505  503 -0.43345758435E+02 -0.10432852361E+02  0.42195855403E+03  0.42430734203E+03  0.00000000000E+00 0. -1.
          1    1    1    2  501    0 -0.73741847408E+02  0.92950811964E+02  0.12629215516E+04  0.12684827784E+04  0.00000000000E+00 0. -1.
<scales pt_clust_3="32.10073" pt_clust_4="138.45368" pt_clust_5="45.52132" pt_clust_6="14000.00000"></scales>
<clustering>
<clus scale="   32.101">  2  3  1 -1</clus>
<clus scale="   45.521">  1  5  2 -1</clus>
<clus scale="  138.454">  2  4  1 -1</clus>
<clus scale="   32.101">  2  3  1 -1</clus>
</clustering>
</event>
<event>
 6    0  0.3667994E+002  0.1386774E+03  0.7546771E-02  0.1215120E+00
          1   -1    0    0  504    0 -0.00000000000E+00  0.00000000000E+00  0.19511365009E+04  0.19511365009E+04  0.00000000000E+00 0.  1.
         21   -1    0    0  503  502  0.00000000000E+00 -0.00000000000E+00 -0.50991757569E+03  0.50991757569E+03  0.00000000000E+00 0. -1.
         21    1    1    2  503  501 -0.44583813984E+02  0.53767096474E+01  0.75383601744E+02  0.87745728601E+02  0.00000000000E+00 0.  1.
         21    1    1    2  504  505  0.69197567047E+02  0.39884772572E+01  0.15614764868E+04  0.15630140850E+04  0.00000000000E+00 0.  1.
         21    1    1    2  505  502  0.10084955369E+03  0.73941049086E+02 -0.47594239068E+03  0.49209660684E+03  0.00000000000E+00 0. -1.
          1    1    1    2  501    0 -0.12546330675E+03 -0.83306235991E+02  0.28030122741E+03  0.31819765616E+03  0.00000000000E+00 0.  1.
<scales pt_clust_3="31.31790" pt_clust_4="69.31242" pt_clust_5="126.26210" pt_clust_6="31.31790"></scales>
<clustering>
<clus scale="   31.318">  3  6 -1 -1</clus>
<clus scale="   69.312">  1  4  2 -1</clus>
<clus scale="  126.262">  2  5  1 -1</clus>
<clus scale="  126.262">  2  3  1 -1</clus>
</clustering>
</event>
<event>
 6    0  0.3667994E+002  0.8964593E+02  0.7546771E-02  0.1303711E+00
          2   -1    0    0  505    0 -0.00000000000E+00  0.00000000000E+00  0.62801635146E+02  0.62801635146E+02  0.00000000000E+00 0.  1.
         21   -1    0    0  504  502  0.00000000000E+00 -0.00000000000E+00 -0.13445288107E+04  0.13445288107E+04  0.00000000000E+00 0. -1.
         21    1    1    2  503  502  0.73930064113E+02  0.10888372547E+03 -0.39552582968E+03  0.41684769641E+03  0.00000000000E+00 0. -1.
         21    1    1    2  504  501  0.33376714923E+02  0.99509325206E+01 -0.76696264399E+03  0.76775303544E+03  0.00000000000E+00 0. -1.
         21    1    1    2  505  503 -0.65156589099E+02 -0.55226912813E+02 -0.52708049045E+01  0.85575547829E+02  0.00000000000E+00 0.  1.
          2    1    1    2  501    0 -0.42150189938E+02 -0.63607745177E+02 -0.11396789702E+03  0.13715416621E+03  0.00000000000E+00 0.  1.
<scales pt_clust_3="89.64593" pt_clust_4="34.82853" pt_clust_5="14000.00000" pt_clust_6="70.65760"></scales>
<clustering>
<clus scale="   34.829">  2  4  1 -1</clus>
<clus scale="   70.658">  2  6  1 -1</clus>
<clus scale="   89.646">  2  3  1 -1</clus>
<clus scale="   34.829">  2  3  1 -1</clus>
</clustering>
</event>
<event>
 6    0  0.3667994E+002  0.6760423E+02  0.7546771E-02  0.1368435E+00
         21   -1    0    0  504  502  0.00000000000E+00  0.00000000000E+00  0.77527835491E+02  0.77527835491E+02  0.00000000000E+00 0.  1.
         -1   -1    0    0    0  501 -0.00000000000E+00 -0.00000000000E+00 -0.16352316298E+04  0.16352316298E+04  0.00000000000E+00 0. -1.
         21    1    1    2  503  501 -0.71959916296E+01  0.41671059572E+02 -0.15785467904E+03  0.16342080405E+03  0.00000000000E+00 0.  1.
         21    1    1    2  504  505  0.48922390442E+01  0.50509102434E+02  0.58836557204E+02  0.77697129259E+02  0.00000000000E+00 0.  1.
         21    1    1    2  505  503  0.61437229429E+02 -0.10741696473E+02 -0.21426711932E+03  0.22315984322E+03  0.00000000000E+00 0.  1.
         -1    1    1    2    0  502 -0.59133476844E+02 -0.81438465533E+02 -0.12444185532E+04  0.12484816888E+04  0.00000000000E+00 0. -1.
<scales pt_clust_3="42.28782" pt_clust_4="51.00634" pt_clust_5="14000.00000" pt_clust_6="67.60423"></scales>
<clustering>
<clus scale="   42.288">  2  3  1 -1</clus>
<clus scale="   51.006">  1  4  2 -1</clus>
<clus scale="   67.604">  2  6  1 -1</clus>
<clus scale="   51.006">  1  3  2 -1</clus>
</clustering>
</event>
<event>
 6    0  0.3667994E+002  0.1666692E+03  0.7546771E-02  0.1181367E+00
         21   -1    0    0  503  502  0.00000000000E+00  0.00000000000E+00  0.61970564981E+02  0.61970564981E+02  0.00000000000E+00 0.  1.
          2   -1    0    0  505    0 -0.00000000000E+00 -0.00000000000E+00 -0.20653396663E+04  0.20653396663E+04  0.00000000000E+00 0.  1.
         21    1    1    2  503  501 -0.10926297475E+03 -0.60206813800E+02 -0.30939333997E+03  0.33359780709E+03  0.00000000000E+00 0. -1.
         21    1    1    2  504  502 -0.71403309559E+01 -0.10304643290E+03 -0.77690720230E+02  0.12924937009E+03  0.00000000000E+00 0.  1.
         21    1    1    2  505  504  0.77196142500E+02 -0.10128568142E+03 -0.43330765726E+03  0.45163432057E+03  0.00000000000E+00 0. -1.
          2    1    1    2  501    0  0.39207163207E+02  0.26453892812E+03 -0.11829773838E+04  0.12128287335E+04  0.00000000000E+00 0.  1.
<scales pt_clust_3="146.38093" pt_clust_4="103.29352" pt_clust_5="14000.00000" pt_clust_6="166.66921"></scales>
<clustering>
<clus scale="  103.294">  1  4  2 -1</clus>
<clus scale="  146.381">  1  3  2 -1</clus>
<clus scale="  166.669">  1  6  2 -1</clus>
<clus scale="  103.294">  1  3  2 -1</clus>
</clustering>
</event>
<event>
 6    0  0.3667994E+002  0.1335519E+03  0.7546771E-02  0.1222278E+00
         21   -1    0    0  501  502  0.00000000000E+00  0.00000000000E+00  0.14979621655E+03  0.14979621655E+03  0.00000000000E+00 0. -1.
          1   -1    0    0  503    0 -0.00000000000E+00 -0.00000000000E+00 -0.14526691674E+04  0.14526691674E+04  0.00000000000E+00 0.  1.
         21    1    1    2  503  504 -0.41468514818E+02 -0.25635391988E+02 -0.77971646096E+03  0.78123912507E+03  0.00000000000E+00 0. -1.
         21    1    1    2  504  505 -0.70051425147E+02 -0.30444127013E+02 -0.19692269296E+03  0.21121693596E+03  0.00000000000E+00 0.  1.
         21    1    1    2  505  502  0.98667807552E+02  0.10645873574E+03  0.10278071589E+03  0.17785576803E+03  0.00000000000E+00 0. -1.
          1    1    1    2  501    0  0.12852132413E+02 -0.50379216739E+02 -0.42901451279E+03  0.43215355486E+03  0.00000000000E+00 0.  1.
<scales pt_clust_3="48.75255" pt_clust_4="133.55193" pt_clust_5="14000.00000" pt_clust_6="68.19307"></scales>
<clustering>
<clus scale="   48.753">  2  3  1 -1</clus>
<clus scale="   68.193">  2  6  1 -1</clus>
<clus scale="  133.552">  2  4  1 -1</clus>
<clus scale="  133.552">  1  3  2 -1</clus>
</clustering>
</event>
<event>
 6    0  0.3667994E+002  0.1340646E+03  0.7546771E-02  0.1221546E+00
         21   -1    0    0  504  502  0.00000000000E+00  0.00000000000E+00  0.20527625284E+03  0.20527625284E+03  0.00000000000E+00 0.  1.
          3   -1    0    0  503    0 -0.00000000000E+00 -0.00000000000E+00 -0.60554945669E+03  0.60554945669E+03  0.00000000000E+00 0. -1.
         21    1    1    2  503  502  0.38404183224E+02  0.14695573524E+01  0.16779810535E+03  0.17214309468E+03  0.00000000000E+00 0.  1.
         21    1    1    2  504  505  0.71200995126E+01  0.12446445309E+03 -0.13301316150E+03  0.18230358481E+03  0.00000000000E+00 0. -1.
         21    1    1    2  505  501 -0.16217247559E+02 -0.61042935613E+02 -0.25616990262E+03  0.26384135027E+03  0.00000000000E+00 0. -1.
          3    1    1    2  501    0 -0.29307035178E+02 -0.64891074832E+02 -0.17888824508E+03  0.19253767977E+03  0.00000000000E+00 0. -1.
<scales pt_clust_3="38.43229" pt_clust_4="129.99591" pt_clust_5="30.87146" pt_clust_6="30.87146"></scales>
<clustering>
<clus scale="   30.871">  5  6 -1 -1</clus>
<clus scale="   38.432">  1  3  2 -1</clus>
<clus scale="  129.996">  1  4  2 -1</clus>
<clus scale="   38.432">  1  3  2 -1</clus>
</clustering>
</event>
<event>
 6    0  0.3667994E+002  0.2096735E+03  0.7546771E-02  0.1141825E+00
          2   -1    0    0  505    0 -0.00000000000E+00  0.00000000000E+00  0.52773179819E+03  0.52773179819E+03  0.00000000000E+00 0. -1.
         21   -1    0    0  501  502  0.00000000000E+00 -0.00000000000E+00 -0.16657269220E+03  0.16657269220E+03  0.00000000000E+00 0. -1.
         21    1    1    2  503  502 -0.15320818961E+03  0.13728090645E+03 -0.28914896520E+02  0.20773749753E+03  0.00000000000E+00 0. -1.
         21    1    1    2  504  503 -0.23228276149E+02  0.25613361212E+02  0.60526525901E+02  0.69706939562E+02  0.00000000000E+00 0. -1.
         21    1    1    2  505  504 -0.50305699610E+01 -0.29832010998E+02  0.40153362280E+02  0.50274725426E+02  0.00000000000E+00 0.  1.
          2    1    1    2  501    0  0.18146703572E+03 -0.13306225666E+03  0.28939411433E+03  0.36658532787E+03  0.00000000000E+00 0. -1.
<scales pt_clust_3="209.67350" pt_clust_4="32.21135" pt_clust_5="30.25319" pt_clust_6="14000.00000"></scales>
<clustering>
<clus scale="   30.253">  1  5  2 -1</clus>
<clus scale="   32.211">  1  4  2 -1</clus>
<clus scale="  209.673">  2  3  1 -1</clus>
<clus scale="  209.673">  2  3  1 -1</clus>
</clustering>
</event>
<event>
 6    0  0.3667994E+002  0.1101992E+03  0.7546771E-02  0.1260201E+00
         21   -1    0    0  505  502  0.00000000000E+00  0.00000000000E+00  0.19946684451E+02  0.19946684451E+02  0.00000000000E+00 0.  1.
          2   -1    0    0  504    0 -0.00000000000E+00 -0.00000000000E+00 -0.88805586001E+03  0.88805586001E+03  0.00000000000E+00 0.  1.
         21    1    1    2  503  502 -0.97138246026E+02  0.34017558530E+02 -0.30389374941E+03  0.32084956609E+03  0.00000000000E+00 0.  1.
         21    1    1    2  504  503 -0.78286873840E+01 -0.45295493182E+02 -0.21442929674E+03  0.21930091963E+03  0.00000000000E+00 0.  1.
         21    1    1    2  505  501  0.57097372098E+02  0.18700236321E+02 -0.24730656211E+03  0.25450018546E+03  0.00000000000E+00 0.  1.
          2    1    1    2  501    0  0.47869561312E+02 -0.74223016686E+01 -0.10247956730E+03  0.11335187328E+03  0.00000000000E+00 0.  1.
<scales pt_clust_3="101.60867" pt_clust_4="45.96705" pt_clust_5="38.30190" pt_clust_6="38.30190"></scales>
<clustering>
<clus scale="   38.302">  5  6 -1 -1</clus>
<clus scale="   45.967">  2  4  1 -1</clus>
<clus scale="  101.609">  1  3  2 -1</clus>
<clus scale="  101.609">  1  3  2 -1</clus>
</clustering>
</event>
<event>
 6    0  0.3667994E+002  0.1121250E+03  0.7546771E-02  0.1256685E+00
         21   -1    0    0  505  502  0.00000000000E+00  0.00000000000E+00  0.66012034230E+02  0.66012034230E+02  0.00000000000E+00 0. -1.
          2   -1    0    0  504    0 -0.00000000000E+00 -0.00000000000E+00 -0.13951944732E+04  0.13951944732E+04  0.00000000000E+00 0. -1.
         21    1    1    2  503  502 -0.11726517160E+02 -0.35336128630E+02  0.44247122314E+02  0.57826992178E+02  0.00000000000E+00 0. -1.
         21    1    1    2  504  503  0.95679687329E+01  0.13290310138E+03 -0.35078567688E+03  0.37524041824E+03  0.00000000000E+00 0. -1.
         21    1    1    2  505  501  0.10222227610E+02 -0.44592029612E+02 -0.29516070278E+03  0.29868509087E+03  0.00000000000E+00 0.  1.
          2    1    1    2  501    0 -0.80636791828E+01 -0.52974943136E+02 -0.72748318160E+03  0.72945400611E+03  0.00000000000E+00 0. -1.
<scales pt_clust_3="37.23108" pt_clust_4="104.05044" pt_clust_5="39.29746" pt_clust_6="39.29746"></scales>
<clustering>
<clus scale="   37.231">  1  3  2 -1</clus>
<clus scale="   39.297">  5  6 -1 -1</clus>
<clus scale="  104.050">  1  4  2 -1</clus>
<clus scale="   37.231">  1  3  2 -1</clus>
</clustering>
</event>
<event>
 6    0  0.3667994E+002  0.1237049E+03  0.7546771E-02  0.1237107E+00
         21   -1    0    0  504  502  0.00000000000E+00  0.00000000000E+00  0.40189680268E+02  0.40189680268E+02  0.00000000000E+00 0. -1.
          1   -1    0    0  505    0 -0.00000000000E+00 -0.00000000000E+00 -0.32531673527E+04  0.32531673527E+04  0.00000000000E+00 0. -1.
         21    1    1    2  503  502 -0.62493699259E+02  0.13687797721E+02 -0.12215014808E+02  0.65130828648E+02  0.00000000000E+00 0. -1.
         21    1    1    2  504  501  0.30177392865E+02 -0.12171494480E+02 -0.52980367766E+02  0.62175072872E+02  0.00000000000E+00 0. -1.
         21    1    1    2  505  503 -0.78839653386E+02  0.62481037911E+02 -0.32174021158E+03  0.33709988845E+03  0.00000000000E+00 0.  1.
          1    1    1    2  501    0  0.11115595978E+03 -0.63997341152E+02 -0.28260420782E+04  0.28289512430E+04  0.00000000000E+00 0. -1.
<scales pt_clust_3="40.32885" pt_clust_4="32.53952" pt_clust_5="14000.00000" pt_clust_6="123.70489"></scales>
<clustering>
<clus scale="   32.540">  1  4  2 -1</clus>
<clus scale="   40.329">  1  3  2 -1</clus>
<clus scale="  123.705">  2  6  1 -1</clus>
<clus scale="   32.540">  1  3  2 -1</clus>
</clustering>
</event>
<event>
 6    0  0.1139466E+003  0.8413837E+02  0.7546771E-02  0.1317701E+00
         -3   -1    0    0    0  501 -0.00000000000E+00  0.00000000000E+00  0.21639874534E+04  0.21639874534E+04  0.00000000000E+00 0.  1.
         21   -1    0    0  505  502  0.00000000000E+00 -0.00000000000E+00 -0.10446701148E+04  0.10446701148E+04  0.00000000000E+00 0.  1.
         21    1    1    2  503  501 -0.26325016163E+02  0.22679525892E+02  0.56553950533E+02  0.66375573003E+02  0.00000000000E+00 0. -1.
         21    1    1    2  504  502 -0.77758146014E+02  0.32121306196E+02 -0.10348367697E+04  0.10382510522E+04  0.00000000000E+00 0.  1.
         21    1    1    2  505  503  0.37522924541E+01 -0.62360615381E+02  0.67947957604E+03  0.68234552853E+03  0.00000000000E+00 0.  1.
         -3    1    1    2    0  504  0.10033086972E+03  0.75597832925E+01  0.14181205816E+04  0.14216854145E+04  0.00000000000E+00 0.  1.
<scales pt_clust_3="34.74719" pt_clust_4="84.13837" pt_clust_5="55.22241" pt_clust_6="14000.00000"></scales>
<clustering>
<clus scale="   34.747">  1  3  2 -1</clus>
<clus scale="   55.222">  1  5  2 -1</clus>
<clus scale="   84.138">  2  4  1 -1</clus>
<clus scale="   84.138">  2  3  1 -1</clus>
</clustering>
</event>
<event>
 6    0  0.3667994E+002  0.2421655E+03  0.7546771E-02  0.1118359E+00
         21   -1    0    0  504  502  0.00000000000E+00  0.00000000000E+00  0.34605548333E+03  0.34605548333E+03  0.00000000000E+00 0. -1.
         -1   -1    0    0    0  501 -0.00000000000E+00 -0.00000000000E+00 -0.65761978916E+03  0.65761978916E+03  0.00000000000E+00 0. -1.
         21    1    1    2  503  502 -0.16426981757E+03 -0.65666287027E+02 -0.23267216142E+03  0.29228918714E+03  0.00000000000E+00 0. -1.
         21    1    1    2  504  505  0.21158294103E+03 -0.41738944107E+02  0.25236141638E+03  0.33195747448E+03  0.00000000000E+00 0. -1.
         21    1    1    2  505  501  0.41643696791E+02  0.77362401623E+02 -0.12477066410E+03  0.15260031877E+03  0.00000000000E+00 0. -1.
         -1    1    1    2    0  503 -0.88956820249E+02  0.30042829511E+02 -0.20648289669E+03  0.22682829210E+03  0.00000000000E+00 0. -1.
<scales pt_clust_3="77.21303" pt_clust_4="217.74086" pt_clust_5="87.85863" pt_clust_6="77.21303"></scales>
<clustering>
<clus scale="   77.213">  3  6 -1 -1</clus>
<clus scale="   87.859">  2  5  1 -1</clus>
<clus scale="  217.741">  1  4  2 -1</clus>
<clus scale="  217.741">  1  3  2 -1</clus>
</clustering>
</event>
<event>
 6    0  0.3667994E+002  0.9419176E+02  0.7546771E-02  0.1293007E+00
         21   -1    0    0  503  502  0.00000000000E+00  0.00000000000E+00  0.12071127534E+03  0.12071127534E+03  0.00000000000E+00 0.  1.
          2   -1    0    0  505    0 -0.00000000000E+00 -0.00000000000E+00 -0.29651558763E+04  0.29651558763E+04  0.00000000000E+00 0.  1.
         21    1    1    2  503  501 -0.97667366052E+02 -0.26340003392E+02 -0.63198820394E+03  0.64003265549E+03  0.00000000000E+00 0. -1.
         21    1    1    2  504  502  0.37845910696E+00  0.71349630814E+02  0.10409969218E+03  0.12620482939E+03  0.00000000000E+00 0.  1.
         21    1    1    2  505  504  0.19472908203E+02 -0.23417106143E+02 -0.32136440371E+03  0.32280432925E+03  0.00000000000E+00 0. -1.
          2    1    1    2  501    0  0.77815998742E+02 -0.21592521279E+02 -0.19951916855E+04  0.19968253375E+04  0.00000000000E+00 0.  1.
<scales pt_clust_3="14000.00000" pt_clust_4="71.25319" pt_clust_5="30.45579" pt_clust_6="94.19176"></scales>
<clustering>
<clus scale="   30.456">  2  5  1 -1</clus>
<clus scale="   71.253">  1  4  2 -1</clus>
<clus scale="   94.192">  2  6  1 -1</clus>
<clus scale="   71.253">  1  3  2 -1</clus>
</clustering>
</event>
<event>
 6    0  0.3667994E+002  0.1043173E+03  0.7546771E-02  0.1271471E+00
         -1   -1    0    0    0  501 -0.00000000000E+00  0.00000000000E+00  0.31926940553E+03  0.31926940553E+03  0.00000000000E+00 0.  1.
         21   -1    0    0  505  502  0.00000000000E+00 -0.00000000000E+00 -0.17324289966E+03  0.17324289966E+03  0.00000000000E+00 0. -1.
         21    1    1    2  503  502 -0.16026886657E+02  0.43170207065E+02 -0.91333982970E+02  0.10228599278E+03  0.00000000000E+00 0. -1.
         21    1    1    2  504  501 -0.41633226736E+02 -0.45177076086E+02  0.12858719201E+03  0.14250950747E+03  0.00000000000E+00 0. -1.
         21    1    1    2  505  504  0.83840596239E+01 -0.10403909991E+03  0.64402332078E+02  0.12264618682E+03  0.00000000000E+00 0. -1.
         -1    1    1    2    0  503  0.49276053769E+02  0.10604596893E+03  0.44370964752E+02  0.12507061811E+03  0.00000000000E+00 0.  1.
<scales pt_clust_3="46.04919" pt_clust_4="59.65043" pt_clust_5="104.31730" pt_clust_6="14000.00000"></scales>
<clustering>
<clus scale="   46.049">  2  3  1 -1</clus>
<clus scale="   59.650">  1  4  2 -1</clus>
<clus scale="  104.317">  2  5  1 -1</clus>
<clus scale="   46.049">  2  3  1 -1</clus>
</clustering>
</event>
<event>
 6    0  0.3667994E+002  0.1498034E+03  0.7546771E-02  0.1200715E+00
         21   -1    0    0  505  502  0.00000000000E+00  0.00000000000E+00  0.23089796206E+03  0.23089796206E+03  0.00000000000E+00 0.  1.
          1   -1    0    0  504    0 -0.00000000000E+00 -0.00000000000E+00 -0.23060737445E+03  0.23060737445E+03  0.00000000000E+00 0.  1.
         21    1    1    2  503  502  0.65406704692E+02 -0.13277365788E+03  0.16787097601E+03  0.22380247057E+03  0.00000000000E+00 0.  1.
         21    1    1    2  504  503 -0.33128060564E+02  0.79767002898E+01 -0.30580977246E+02  0.45785284902E+02  0.00000000000E+00 0. -1.
         21    1    1    2  505  501 -0.65323753820E+01  0.49221604481E+02 -0.28640063090E+02  0.57320951576E+02  0.00000000000E+00 0. -1.
          1    1    1    2  501    0 -0.25746268746E+02  0.75575353108E+02 -0.10835934806E+03  0.13459662947E+03  0.00000000000E+00 0.  1.
<scales pt_clust_3="144.89218" pt_clust_4="34.07486" pt_clust_5="30.00167" pt_clust_6="30.00167"></scales>
<clustering>
<clus scale="   30.002">  5  6 -1 -1</clus>
<clus scale="   34.075">  2  4  1 -1</clus>
<clus scale="  144.892">  1  3  2 -1</clus>
<clus scale="  144.892">  1  3  2 -1</clus>
</clustering>
</event>
<event>
 6    0  0.7782267E+002  0.7991892E+02  0.7546771E-02  0.1329282E+00
          2   -1    0    0  504    0 -0.00000000000E+00  0.00000000000E+00  0.14182131592E+04  0.14182131592E+04  0.00000000000E+00 0. -1.
         21   -1    0    0  505  502  0.00000000000E+00 -0.00000000000E+00 -0.21003971543E+04  0.21003971543E+04  0.00000000000E+00 0.  1.
         21    1    1    2  503  502 -0.82125640193E+01  0.34722680941E+02 -0.20459900774E+04  0.20463011771E+04  0.00000000000E+00 0.  1.
         21    1    1    2  504  503  0.21861427289E+02  0.54427952214E+02  0.18570739904E+03  0.19474999883E+03  0.00000000000E+00 0.  1.
         21    1    1    2  505  501 -0.53468200302E+02  0.21070823990E+02 -0.29284773483E+02  0.64501364521E+02  0.00000000000E+00 0.  1.
          2    1    1    2  501    0  0.39819337032E+02 -0.11022145714E+03  0.12073834567E+04  0.12130577730E+04  0.00000000000E+00 0. -1.
<scales pt_clust_3="35.68068" pt_clust_4="61.10847" pt_clust_5="14000.00000" pt_clust_6="79.91892"></scales>
<clustering>
<clus scale="   35.681">  2  3  1 -1</clus>
<clus scale="   61.108">  1  4  2 -1</clus>
<clus scale="   79.919">  1  6  2 -1</clus>
<clus scale="   35.681">  2  3  1 -1</clus>
</clustering>
</event>
<event>
 6    0  0.3667994E+002  0.8065828E+02  0.7546771E-02  0.1327194E+00
          1   -1    0    0  505    0 -0.00000000000E+00  0.00000000000E+00  0.14155988009E+04  0.14155988009E+04  0.00000000000E+00 0.  1.
         21   -1    0    0  503  502  0.00000000000E+00 -0.00000000000E+00 -0.57308689236E+02  0.57308689236E+02  0.00000000000E+00 0.  1.
         21    1    1    2  503  504  0.82693130390E+02 -0.63749555658E+01  0.21942169936E+03  0.23457339154E+03  0.00000000000E+00 0.  1.
         21    1    1    2  504  501 -0.81787188697E+02  0.48699634135E+02  0.23261041268E+03  0.25133325026E+03  0.00000000000E+00 0.  1.
         21    1    1    2  505  502 -0.35209755367E+02  0.67000654853E+01 -0.31270243620E+02  0.47565175145E+02  0.00000000000E+00 0.  1.
          1    1    1    2  501    0  0.34303813675E+02 -0.49024744054E+02  0.93752824322E+03  0.93943567316E+03  0.00000000000E+00 0.  1.
<scales pt_clust_3="80.65828" pt_clust_4="14000.00000" pt_clust_5="35.84156" pt_clust_6="58.48108"></scales>
<clustering>
<clus scale="   35.842">  2  5  1 -1</clus>
<clus scale="   58.481">  1  6  2 -1</clus>
<clus scale="   80.658">  2  3  1 -1</clus>
<clus scale="   35.842">  2  3  1 -1</clus>
</clustering>
</event>
<event>
 6    0  0.3667994E+002  0.1425747E+03  0.7546771E-02  0.1209906E+00
          2   -1    0    0  504    0 -0.00000000000E+00  0.00000000000E+00  0.19646076597E+04  0.19646076597E+04  0.00000000000E+00 0.  1.
         21   -1    0    0  505  502  0.00000000000E+00 -0.00000000000E+00 -0.12924185989E+03  0.12924185989E+03  0.00000000000E+00 0. -1.
         21    1    1    2  503  501  0.77642634692E+02 -0.39531588046E+02  0.43091260452E+03  0.43963257149E+03  0.00000000000E+00 0.  1.
         21    1    1    2  504  502  0.97898536527E+00 -0.40422396772E+02  0.36193181311E+03  0.36418342345E+03  0.00000000000E+00 0.  1.
         21    1    1    2  505  503 -0.13516631946E+03  0.60963736578E+02 -0.78261530448E+02  0.16766448116E+03  0.00000000000E+00 0. -1.
          2    1    1    2  501    0  0.56544699403E+02  0.18990248240E+02  0.11207829127E+04  0.11223690435E+04  0.00000000000E+00 0.  1.
<scales pt_clust_3="142.57473" pt_clust_4="40.43425" pt_clust_5="14000.00000" pt_clust_6="57.98386"></scales>
<clustering>
<clus scale="   40.434">  1  4  2 -1</clus>
<clus scale="   57.984">  1  6  2 -1</clus>
<clus scale="  142.575">  1  3  2 -1</clus>
<clus scale="  142.575">  2  3  1 -1</clus>
</clustering>
</event>
<event>
 6    0  0.3667994E+002  0.1347722E+03  0.7546771E-02  0.1220542E+00
         21   -1    0    0  501  502  0.00000000000E+00  0.00000000000E+00  0.21710269581E+03  0.21710269581E+03  0.00000000000E+00 0. -1.
          2   -1    0    0  505    0 -0.00000000000E+00 -0.00000000000E+00 -0.31164203618E+03  0.31164203618E+03  0.00000000000E+00 0. -1.
         21    1    1    2  503  502  0.10375756395E+02  0.12864596614E+03  0.94705378486E+02  0.16008294612E+03  0.00000000000E+00 0. -1.
         21    1    1    2  504  503 -0.36207042591E+02 -0.22588826742E+02 -0.15676563887E+03  0.16247052212E+03  0.00000000000E+00 0. -1.
         21    1    1    2  505  504  0.37135672098E+01  0.42415687435E+02 -0.36418376769E+02  0.56028379313E+02  0.00000000000E+00 0.  1.
          2    1    1    2  501    0  0.22117718985E+02 -0.14847282683E+03  0.39392967801E+01  0.15016288443E+03  0.00000000000E+00 0. -1.
<scales pt_clust_3="134.77221" pt_clust_4="34.09896" pt_clust_5="42.57794" pt_clust_6="14000.00000"></scales>
<clustering>
<clus scale="   42.578">  2  5  1 -1</clus>
<clus scale="   34.099">  2  4  1 -1</clus>
<clus scale="  134.772">  1  3  2 -1</clus>
<clus scale="  134.772">  1  3  2 -1</clus>
</clustering>
</event>
<event>
 6    0  0.3667994E+002  0.1119585E+03  0.7546771E-02  0.1256985E+00
         21   -1    0    0  503  502  0.00000000000E+00  0.00000000000E+00  0.17927986002E+04  0.17927986002E+04  0.00000000000E+00 0.  1.
         -1   -1    0    0    0  501 -0.00000000000E+00 -0.00000000000E+00 -0.43062392418E+03  0.43062392418E+03  0.00000000000E+00 0. -1.
         21    1    1    2  503  504  0.75914252331E+02  0.18985573562E+02  0.17115311123E+04  0.17133190520E+04  0.00000000000E+00 0.  1.
         21    1    1    2  504  505  0.15708836583E+02  0.88824690392E+02 -0.57414669291E+00  0.90204893517E+02  0.00000000000E+00 0.  1.
         21    1    1    2  505  501  0.24795973226E+02 -0.54383078931E+02 -0.13914067247E+02  0.61367424824E+02  0.00000000000E+00 0.  1.
         -1    1    1    2    0  502 -0.11641906214E+03 -0.53427185023E+02 -0.33486822229E+03  0.35853115405E+03  0.00000000000E+00 0. -1.
<scales pt_clust_3="78.27714" pt_clust_4="14000.00000" pt_clust_5="59.76922" pt_clust_6="111.95854"></scales>
<clustering>
<clus scale="   59.769">  2  5  1 -1</clus>
<clus scale="   78.277">  1  3  2 -1</clus>
<clus scale="  111.959">  2  6  1 -1</clus>
<clus scale="   78.277">  1  3  2 -1</clus>
</clustering>
</event>
<event>
 6    0  0.3667994E+002  0.1480576E+03  0.7546771E-02  0.1202880E+00
         21   -1    0    0  504  502  0.00000000000E+00  0.00000000000E+00  0.46971949888E+03  0.46971949888E+03  0.00000000000E+00 0. -1.
          4   -1    0    0  505    0 -0.00000000000E+00 -0.00000000000E+00 -0.37945653939E+03  0.37945653939E+03  0.00000000000E+00 0. -1.
         21    1    1    2  503  501 -0.91684889064E+02 -0.10870144035E+03 -0.10527575473E+03  0.17693249151E+03  0.00000000000E+00 0. -1.
         21    1    1    2  504  503  0.87239001820E+02  0.12036264102E+03  0.39426819864E+03  0.42136115299E+03  0.00000000000E+00 0. -1.
         21    1    1    2  505  502 -0.38083994036E+02  0.27266743689E+02 -0.31083969273E+01  0.46941751614E+02  0.00000000000E+00 0. -1.
          4    1    1    2  501    0  0.42529881280E+02 -0.38927944355E+02 -0.19562108749E+03  0.20394064216E+03  0.00000000000E+00 0. -1.
<scales pt_clust_3="148.05763" pt_clust_4="14000.00000" pt_clust_5="46.83872" pt_clust_6="31.60172"></scales>
<clustering>
<clus scale="   46.839">  2  5  1 -1</clus>
<clus scale="   31.602">  2  6  1 -1</clus>
<clus scale="  148.058">  2  3  1 -1</clus>
<clus scale="  148.058">  1  3  2 -1</clus>
</clustering>
</event>
<event>
 6    0  0.3667994E+002  0.1432659E+03  0.7546771E-02  0.1209001E+00
         21   -1    0    0  503  502  0.00000000000E+00  0.00000000000E+00  0.47572654660E+02  0.47572654660E+02  0.00000000000E+00 0.  1.
         -1   -1    0    0    0  501 -0.00000000000E+00 -0.00000000000E+00 -0.88735305009E+03  0.88735305009E+03  0.00000000000E+00 0.  1.
         21    1    1    2  503  501 -0.36113721772E+02 -0.26248971286E+02 -0.94233111176E+02  0.10427410338E+03  0.00000000000E+00 0.  1.
         21    1    1    2  504  505 -0.86646332606E+02  0.77291873961E+02 -0.17663451156E+03  0.21137968542E+03  0.00000000000E+00 0.  1.
         21    1    1    2  505  502 -0.25350071816E+02  0.18521926236E+02 -0.46211882717E+01  0.31733945132E+02  0.00000000000E+00 0. -1.
         -1    1    1    2    0  504  0.14811012619E+03 -0.69564828911E+02 -0.56429158442E+03  0.58753797081E+03  0.00000000000E+00 0.  1.
<scales pt_clust_3="46.27530" pt_clust_4="143.26587" pt_clust_5="31.39567" pt_clust_6="14000.00000"></scales>
<clustering>
<clus scale="   31.396">  1  5  2 -1</clus>
<clus scale="   46.275">  1  3  2 -1</clus>
<clus scale="  143.266">  1  4  2 -1</clus>
<clus scale="   31.396">  1  3  2 -1</clus>
</clustering>
</event>
<event>
 6    0  0.3667994E+002  0.1791523E+03  0.7546771E-02  0.1168626E+00
          2   -1    0    0  505    0 -0.00000000000E+00  0.00000000000E+00  0.12043387540E+04  0.12043387540E+04  0.00000000000E+00 0.  1.
         21   -1    0    0  503  502  0.00000000000E+00 -0.00000000000E+00 -0.46957321804E+02  0.46957321804E+02  0.00000000000E+00 0.  1.
         21    1    1    2  503  504 -0.11951901491E+03  0.78321225823E+02  0.21178063815E+03  0.25548003451E+03  0.00000000000E+00 0.  1.
         21    1    1    2  504  501  0.58216347738E+02 -0.11842253865E+02  0.10162903705E+03  0.11771934120E+03  0.00000000000E+00 0. -1.
         21    1    1    2  505  502 -0.39196336979E+02  0.56265458699E+02  0.41712653736E+03  0.42272532789E+03  0.00000000000E+00 0.  1.
          2    1    1    2  501    0  0.10049900415E+03 -0.12274443066E+03  0.42684521965E+03  0.45537137221E+03  0.00000000000E+00 0.  1.
<scales pt_clust_3="162.02398" pt_clust_4="46.78076" pt_clust_5="68.57226" pt_clust_6="46.78076"></scales>
<clustering>
<clus scale="   46.781">  4  6 -1 -1</clus>
<clus scale="   68.572">  1  5  2 -1</clus>
<clus scale="  162.024">  2  3  1 -1</clus>
<clus scale="  162.024">  2  3  1 -1</clus>
</clustering>
</event>
<event>
 6    0  0.3667994E+002  0.1115180E+03  0.7546771E-02  0.1257784E+00
         21   -1    0    0  503  502  0.00000000000E+00  0.00000000000E+00  0.13925131743E+02  0.13925131743E+02  0.00000000000E+00 0. -1.
          2   -1    0    0  504    0 -0.00000000000E+00 -0.00000000000E+00 -0.17889215650E+04  0.17889215650E+04  0.00000000000E+00 0. -1.
         21    1    1    2  503  501 -0.70378729095E+02 -0.26585697465E+02 -0.37305231761E+03  0.38056273660E+03  0.00000000000E+00 0. -1.
         21    1    1    2  504  505  0.91881441045E+02 -0.15640354897E+02 -0.91912519752E+03  0.92383870271E+03  0.00000000000E+00 0. -1.
         21    1    1    2  505  502  0.36556315433E+02  0.27900195966E+02 -0.89671251718E+02  0.10077558493E+03  0.00000000000E+00 0. -1.
          2    1    1    2  501    0 -0.58059027383E+02  0.14325856396E+02 -0.39314766638E+03  0.39766967247E+03  0.00000000000E+00 0. -1.
<scales pt_clust_3="39.23560" pt_clust_4="102.46734" pt_clust_5="45.98679" pt_clust_6="39.23560"></scales>
<clustering>
<clus scale="   39.236">  3  6 -1 -1</clus>
<clus scale="   45.987">  1  5  2 -1</clus>
<clus scale="  102.467">  2  4  1 -1</clus>
<clus scale="   45.987">  1  3  2 -1</clus>
</clustering>
</event>
<event>
 6    0  0.3667994E+002  0.1544535E+03  0.7546771E-02  0.1195105E+00
         21   -1    0    0  504  502  0.00000000000E+00  0.00000000000E+00  0.19915331278E+03  0.19915331278E+03  0.00000000000E+00 0.  1.
          1   -1    0    0  505    0 -0.00000000000E+00 -0.00000000000E+00 -0.26457160662E+03  0.26457160662E+03  0.00000000000E+00 0. -1.
         21    1    1    2  503  502  0.33752694548E+02  0.14129368386E+03  0.10771946905E+03  0.18084975393E+03  0.00000000000E+00 0.  1.
         21    1    1    2  504  501 -0.19239536211E+02 -0.45673340406E+02 -0.15773161171E+02  0.52009675934E+02  0.00000000000E+00 0.  1.
         21    1    1    2  505  503  0.55954214633E+02 -0.96239394509E+01 -0.41805389387E+02  0.70506630381E+02  0.00000000000E+00 0.  1.
          1    1    1    2  501    0 -0.70467372970E+02 -0.85996403999E+02 -0.11555921233E+03  0.16035885915E+03  0.00000000000E+00 0. -1.
<scales pt_clust_3="146.24609" pt_clust_4="33.16814" pt_clust_5="56.77583" pt_clust_6="33.16814"></scales>
<clustering>
<clus scale="   33.168">  4  6 -1 -1</clus>
<clus scale="   56.776">  2  5  1 -1</clus>
<clus scale="  146.246">  1  3  2 -1</clus>
<clus scale="  146.246">  1  3  2 -1</clus>
</clustering>
</event>
<event>
 6    0  0.3667994E+002  0.1767797E+03  0.7546771E-02  0.1170957E+00
         21   -1    0    0  504  502  0.00000000000E+00  0.00000000000E+00  0.49363708128E+02  0.49363708128E+02  0.00000000000E+00 0. -1.
          2   -1    0    0  505    0 -0.00000000000E+00 -0.00000000000E+00 -0.12740117252E+04  0.12740117252E+04  0.00000000000E+00 0. -1.
         21    1    1    2  503  502 -0.11978098256E+03 -0.96085069729E+02 -0.15805575537E+03  0.22036661774E+03  0.00000000000E+00 0. -1.
         21    1    1    2  504  501  0.52739555095E+02  0.10196213171E+03 -0.28526706591E+03  0.30749802579E+03  0.00000000000E+00 0.  1.
         21    1    1    2  505  503 -0.11880422054E+01 -0.59929308165E+02 -0.39334321867E+03  0.39788418050E+03  0.00000000000E+00 0. -1.
          2    1    1    2  501    0  0.68229469668E+02  0.54052246181E+02 -0.38798197717E+03  0.39762660934E+03  0.00000000000E+00 0. -1.
<scales pt_clust_3="162.13752" pt_clust_4="61.08313" pt_clust_5="59.94108" pt_clust_6="61.08313"></scales>
<clustering>
<clus scale="   59.941">  2  5  1 -1</clus>
<clus scale="   61.083">  4  6 -1 -1</clus>
<clus scale="  162.138">  1  3  2 -1</clus>
<clus scale="  162.138">  1  3  2 -1</clus>
</clustering>
</event>
<event>
 6    0  0.3667994E+002  0.1674707E+03  0.7546771E-02  0.1180512E+00
         21   -1    0    0  503  502  0.00000000000E+00  0.00000000000E+00  0.36577361917E+03  0.36577361917E+03  0.00000000000E+00 0. -1.
         -1   -1    0    0    0  501 -0.00000000000E+00 -0.00000000000E+00 -0.15057953601E+03  0.15057953601E+03  0.00000000000E+00 0. -1.
         21    1    1    2  503  504 -0.19142368999E+02 -0.23926300821E+02  0.19089085601E+03  0.19333446943E+03  0.00000000000E+00 0. -1.
         21    1    1    2  504  501 -0.11405570721E+03  0.10243719190E+03  0.11068738486E+02  0.15370295899E+03  0.00000000000E+00 0. -1.
         21    1    1    2  505  502  0.82156646104E+02 -0.94678191664E+01  0.10967360741E+02  0.83424439467E+02  0.00000000000E+00 0. -1.
         -1    1    1    2    0  505  0.51041430100E+02 -0.69043071908E+02  0.22671279209E+01  0.85891287301E+02  0.00000000000E+00 0. -1.
<scales pt_clust_3="30.64145" pt_clust_4="153.16477" pt_clust_5="63.94095" pt_clust_6="63.94095"></scales>
<clustering>
<clus scale="   30.641">  1  3  2 -1</clus>
<clus scale="   63.941">  5  6 -1 -1</clus>
<clus scale="  153.165">  2  4  1 -1</clus>
<clus scale="   30.641">  1  3  2 -1</clus>
</clustering>
</event>
<event>
 6    0  0.3667994E+002  0.1795552E+03  0.7546771E-02  0.1168234E+00
          2   -1    0    0  503    0 -0.00000000000E+00  0.00000000000E+00  0.57647808810E+03  0.57647808810E+03  0.00000000000E+00 0. -1.
         21   -1    0    0  505  502  0.00000000000E+00 -0.00000000000E+00 -0.41858135268E+03  0.41858135268E+03  0.00000000000E+00 0. -1.
         21    1    1    2  503  502  0.26664446186E+02  0.32188417541E+02  0.19752873081E+03  0.20190266568E+03  0.00000000000E+00 0. -1.
         21    1    1    2  504  501  0.73359991521E+02 -0.12469547052E+03  0.20659530362E+03  0.25221472638E+03  0.00000000000E+00 0. -1.
         21    1    1    2  505  504 -0.10845333789E+03  0.12716426696E+03 -0.37327479916E+03  0.40898282725E+03  0.00000000000E+00 0. -1.
          2    1    1    2  501    0  0.84289001883E+01 -0.34657213987E+02  0.12704750015E+03  0.13195922148E+03  0.00000000000E+00 0. -1.
<scales pt_clust_3="41.79817" pt_clust_4="32.13782" pt_clust_5="167.48332" pt_clust_6="32.13782"></scales>
<clustering>
<clus scale="   32.138">  4  6 -1 -1</clus>
<clus scale="   41.798">  1  3  2 -1</clus>
<clus scale="  167.483">  2  5  1 -1</clus>
<clus scale="  167.483">  2  3  1 -1</clus>
</clustering>
</event>
<event>
 6    0  0.3667994E+002  0.1166274E+03  0.7546771E-02  0.1248767E+00
         21   -1    0    0  501  502  0.00000000000E+00  0.00000000000E+00  0.77608579436E+02  0.77608579436E+02  0.00000000000E+00 0. -1.
          2   -1    0    0  504    0 -0.00000000000E+00 -0.00000000000E+00 -0.13176082675E+04  0.13176082675E+04  0.00000000000E+00 0.  1.
         21    1    1    2  503  505 -0.59676902487E+02 -0.21611290054E+02 -0.13760158512E+03  0.15153407794E+03  0.00000000000E+00 0.  1.
         21    1    1    2  504  503 -0.32235531889E+01 -0.83310925949E+02 -0.24387472534E+03  0.25773238705E+03  0.00000000000E+00 0. -1.
         21    1    1    2  505  502  0.45611395158E+01 -0.31962573789E+02  0.53164074697E+02  0.62199911217E+02  0.00000000000E+00 0. -1.
          2    1    1    2  501    0  0.58339316160E+02  0.13688478979E+03 -0.91168745227E+03  0.92375047070E+03  0.00000000000E+00 0.  1.
<scales pt_clust_3="66.69657" pt_clust_4="14000.00000" pt_clust_5="32.28638" pt_clust_6="116.62742"></scales>
<clustering>
<clus scale="   32.286">  1  5  2 -1</clus>
<clus scale="   66.697">  1  3  2 -1</clus>
<clus scale="  116.627">  2  6  1 -1</clus>
<clus scale="   32.286">  1  3  2 -1</clus>
</clustering>
</event>
<event>
 6    0  0.3667994E+002  0.1699839E+03  0.7546771E-02  0.1177865E+00
         21   -1    0    0  501  502  0.00000000000E+00  0.00000000000E+00  0.46280290949E+02  0.46280290949E+02  0.00000000000E+00 0.  1.
          2   -1    0    0  503    0 -0.00000000000E+00 -0.00000000000E+00 -0.23591536683E+04  0.23591536683E+04  0.00000000000E+00 0.  1.
         21    1    1    2  503  504  0.86945538616E+02 -0.94536438290E+01 -0.56026783481E+03  0.56705285890E+03  0.00000000000E+00 0.  1.
         21    1    1    2  504  505 -0.46688777656E+02 -0.13820055432E+03 -0.89875799012E+03  0.91051917057E+03  0.00000000000E+00 0.  1.
         21    1    1    2  505  502 -0.17173480539E+02 -0.10648547895E+03 -0.24408281956E+03  0.26685297163E+03  0.00000000000E+00 0.  1.
          2    1    1    2  501    0 -0.23083280422E+02  0.25413967710E+03 -0.60976473282E+03  0.66100895811E+03  0.00000000000E+00 0.  1.
<scales pt_clust_3="87.45798" pt_clust_4="14000.00000" pt_clust_5="107.93747" pt_clust_6="169.98388"></scales>
<clustering>
<clus scale="   87.458">  2  3  1 -1</clus>
<clus scale="  107.937">  1  5  2 -1</clus>
<clus scale="  169.984">  1  6  2 -1</clus>
<clus scale="  107.937">  1  3  2 -1</clus>
</clustering>
</event>
<event>
 6    0  0.3667994E+002  0.1416201E+03  0.7546771E-02  0.1211165E+00
         -1   -1    0    0    0  501 -0.00000000000E+00  0.00000000000E+00  0.75104943433E+03  0.75104943433E+03  0.00000000000E+00 0.  1.
         21   -1    0    0  505  502  0.00000000000E+00 -0.00000000000E+00 -0.33895878196E+03  0.33895878196E+03  0.00000000000E+00 0. -1.
         21    1    1    2  503  501  0.77601688334E+02 -0.96039624113E+02  0.63049685933E+02  0.13863944002E+03  0.00000000000E+00 0. -1.
         21    1    1    2  504  502  0.91106475614E+02 -0.18632730970E+02 -0.25587795477E+03  0.27225189862E+03  0.00000000000E+00 0. -1.
         21    1    1    2  505  503 -0.13236631607E+03 -0.31531667198E+02  0.16359393298E+03  0.21278642479E+03  0.00000000000E+00 0. -1.
         -1    1    1    2    0  504 -0.36341847875E+02  0.14620402228E+03  0.44132498822E+03  0.46633045286E+03  0.00000000000E+00 0.  1.
<scales pt_clust_3="14000.00000" pt_clust_4="92.99230" pt_clust_5="109.14529" pt_clust_6="141.62015"></scales>
<clustering>
<clus scale="   92.992">  2  4  1 -1</clus>
<clus scale="  109.145">  2  5  1 -1</clus>
<clus scale="  141.620">  1  6  2 -1</clus>
<clus scale="   92.992">  2  3  1 -1</clus>
</clustering>
</event>
<event>
 6    0  0.3667994E+002  0.7379853E+02  0.7546771E-02  0.1347632E+00
         21   -1    0    0  503  502  0.00000000000E+00  0.00000000000E+00  0.15953289552E+04  0.15953289552E+04  0.00000000000E+00 0.  1.
          4   -1    0    0  504    0 -0.00000000000E+00 -0.00000000000E+00 -0.18439475580E+02  0.18439475580E+02  0.00000000000E+00 0.  1.
         21    1    1    2  503  505  0.65977560961E+02  0.19533272320E+02  0.54174165338E+03  0.54609395372E+03  0.00000000000E+00 0. -1.
         21    1    1    2  504  502 -0.80969824024E+01 -0.30068347726E+02  0.15560678529E+02  0.34810937581E+02  0.00000000000E+00 0.  1.
         21    1    1    2  505  501 -0.48665474493E+02 -0.69304898281E+02  0.53082991174E+03  0.53754245649E+03  0.00000000000E+00 0.  1.
          4    1    1    2  501    0 -0.92151040660E+01  0.79839973687E+02  0.48875723595E+03  0.49532108297E+03  0.00000000000E+00 0.  1.
<scales pt_clust_3="65.11450" pt_clust_4="31.13947" pt_clust_5="73.79853" pt_clust_6="14000.00000"></scales>
<clustering>
<clus scale="   31.139">  2  4  1 -1</clus>
<clus scale="   65.114">  1  3  2 -1</clus>
<clus scale="   73.799">  1  5  2 -1</clus>
<clus scale="   65.114">  1  3  2 -1</clus>
</clustering>
</event>
<event>
 6    0  0.3667994E+002  0.1248938E+03  0.7546771E-02  0.1235235E+00
         21   -1    0    0  501  502  0.00000000000E+00  0.00000000000E+00  0.66395162484E+02  0.66395162484E+02  0.00000000000E+00 0. -1.
          2   -1    0    0  504    0 -0.00000000000E+00 -0.00000000000E+00 -0.82684016909E+03  0.82684016909E+03  0.00000000000E+00 0. -1.
         21    1    1    2  503  505  0.43412769557E+02  0.33595328584E+02 -0.29765029677E+03  0.30266980991E+03  0.00000000000E+00 0. -1.
         21    1    1    2  504  503  0.24008904780E+01  0.38595736109E+02 -0.64533473698E+02  0.75232734554E+02  0.00000000000E+00 0. -1.
         21    1    1    2  505  502  0.99085625056E+02 -0.76774052449E+02 -0.44489866661E+02  0.13300964047E+03  0.00000000000E+00 0. -1.
          2    1    1    2  501    0 -0.14489928509E+03  0.45829877566E+01 -0.35377136948E+03  0.38232314664E+03  0.00000000000E+00 0. -1.
<scales pt_clust_3="66.02602" pt_clust_4="38.67034" pt_clust_5="14000.00000" pt_clust_6="124.89378"></scales>
<clustering>
<clus scale="   38.670">  2  4  1 -1</clus>
<clus scale="   66.026">  2  3  1 -1</clus>
<clus scale="  124.894">  2  6  1 -1</clus>
<clus scale="  124.894">  1  3  2 -1</clus>
</clustering>
</event>
<event>
 6    0  0.3667994E+002  0.1693640E+03  0.7546771E-02  0.1178513E+00
         21   -1    0    0  501  502  0.00000000000E+00  0.00000000000E+00  0.81731640421E+02  0.81731640421E+02  0.00000000000E+00 0. -1.
          2   -1    0    0  503    0 -0.00000000000E+00 -0.00000000000E+00 -0.19088023025E+04  0.19088023025E+04  0.00000000000E+00 0. -1.
         21    1    1    2  503  505  0.24495646905E+02 -0.23406313454E+02 -0.62194890628E+03  0.62287104142E+03  0.00000000000E+00 0. -1.
         21    1    1    2  504  502  0.11008339968E+03 -0.13219448625E+03 -0.34686077434E+02  0.17549034460E+03  0.00000000000E+00 0. -1.
         21    1    1    2  505  504 -0.18576031197E+02  0.64109105150E+02 -0.20755076598E+03  0.21801918896E+03  0.00000000000E+00 0.  1.
          2    1    1    2  501    0 -0.11600301538E+03  0.91491694554E+02 -0.96288491238E+03  0.97415336793E+03  0.00000000000E+00 0. -1.
<scales pt_clust_3="33.88056" pt_clust_4="169.36399" pt_clust_5="61.96368" pt_clust_6="14000.00000"></scales>
<clustering>
<clus scale="   33.881">  2  3  1 -1</clus>
<clus scale="   61.964">  2  5  1 -1</clus>
<clus scale="  169.364">  1  4  2 -1</clus>
<clus scale="  169.364">  1  3  2 -1</clus>
</clustering>
</event>
<event>
 6    0  0.3667994E+002  0.1605312E+03  0.7546771E-02  0.1188098E+00
         21   -1    0    0  504  502  0.00000000000E+00  0.00000000000E+00  0.11065245912E+03  0.11065245912E+03  0.00000000000E+00 0. -1.
          2   -1    0    0  505    0 -0.00000000000E+00 -0.00000000000E+00 -0.61211317019E+03  0.61211317019E+03  0.00000000000E+00 0.  1.
         21    1    1    2  503  502 -0.62232131276E+02 -0.13496359601E+03  0.11957134027E+02  0.14910058171E+03  0.00000000000E+00 0. -1.
         21    1    1    2  504  501  0.71482673587E+02  0.10656492078E+03 -0.18118101094E+03  0.22201894894E+03  0.00000000000E+00 0.  1.
         21    1    1    2  505  503 -0.55767006049E+02  0.13420789596E+02 -0.24528844062E+03  0.25190572772E+03  0.00000000000E+00 0. -1.
          2    1    1    2  501    0  0.46516463739E+02  0.14977885638E+02 -0.86948393533E+02  0.99740370938E+02  0.00000000000E+00 0.  1.
<scales pt_clust_3="151.09944" pt_clust_4="33.45683" pt_clust_5="57.35919" pt_clust_6="33.45683"></scales>
<clustering>
<clus scale="   33.457">  4  6 -1 -1</clus>
<clus scale="   57.359">  2  5  1 -1</clus>
<clus scale="  151.099">  1  3  2 -1</clus>
<clus scale="  151.099">  1  3  2 -1</clus>
</clustering>
</event>
<event>
 6    0  0.3667994E+002  0.2411420E+03  0.7546771E-02  0.1119034E+00
          1   -1    0    0  503    0 -0.00000000000E+00  0.00000000000E+00  0.15950520667E+04  0.15950520667E+04  0.00000000000E+00 0.  1.
         21   -1    0    0  504  502  0.00000000000E+00 -0.00000000000E+00 -0.45182947849E+02  0.45182947849E+02  0.00000000000E+00 0.  1.
         21    1    1    2  503  505 -0.54332653749E+01 -0.33913089705E+02  0.23930611374E+03  0.24175821413E+03  0.00000000000E+00 0. -1.
         21    1    1    2  504  501 -0.67397624617E+02 -0.11516119707E+03  0.26762219631E+03  0.29904210586E+03  0.00000000000E+00 0.  1.
         21    1    1    2  505  502  0.13995973416E+03  0.21308072020E+03  0.78119297995E+03  0.82173876167E+03  0.00000000000E+00 0.  1.
          1    1    1    2  501    0 -0.67128844167E+02 -0.64006433426E+02  0.26174782884E+03  0.27769593288E+03  0.00000000000E+00 0.  1.
<scales pt_clust_3="34.34557" pt_clust_4="39.23976" pt_clust_5="236.54542" pt_clust_6="39.23976"></scales>
<clustering>
<clus scale="   34.346">  1  3  2 -1</clus>
<clus scale="   39.240">  4  6 -1 -1</clus>
<clus scale="  236.545">  1  5  2 -1</clus>
<clus scale="  241.142">  2  3  1 -1</clus>
</clustering>
</event>
<event>
 6    0  0.3667994E+002  0.1202552E+03  0.7546771E-02  0.1242677E+00
          1   -1    0    0  504    0 -0.00000000000E+00  0.00000000000E+00  0.62177299133E+02  0.62177299133E+02  0.00000000000E+00 0.  1.
         21   -1    0    0  503  502  0.00000000000E+00 -0.00000000000E+00 -0.68886316649E+03  0.68886316649E+03  0.00000000000E+00 0.  1.
         21    1    1    2  503  501 -0.29768532478E+02 -0.64746540078E+02 -0.15629824168E+03  0.17177724043E+03  0.00000000000E+00 0.  1.
         21    1    1    2  504  505 -0.68459696965E+02  0.10914763886E+03 -0.11568375724E+03  0.17315504285E+03  0.00000000000E+00 0.  1.
         21    1    1    2  505  502  0.12758040649E+02  0.31945376827E+02 -0.24519424904E+03  0.24759542496E+03  0.00000000000E+00 0. -1.
          1    1    1    2  501    0  0.85470188794E+02 -0.76346475606E+02 -0.10950961941E+03  0.15851275738E+03  0.00000000000E+00 0.  1.
<scales pt_clust_3="58.52947" pt_clust_4="120.25520" pt_clust_5="34.39876" pt_clust_6="14000.00000"></scales>
<clustering>
<clus scale="   34.399">  2  5  1 -1</clus>
<clus scale="   58.529">  2  3  1 -1</clus>
<clus scale="  120.255">  2  4  1 -1</clus>
<clus scale="   34.399">  2  3  1 -1</clus>
</clustering>
</event>
<event>
 6    0  0.3667994E+002  0.7407795E+02  0.7546771E-02  0.1346750E+00
         21   -1    0    0  504  502  0.00000000000E+00  0.00000000000E+00  0.65901964149E+03  0.65901964149E+03  0.00000000000E+00 0. -1.
          2   -1    0    0  503    0 -0.00000000000E+00 -0.00000000000E+00 -0.13172694201E+03  0.13172694201E+03  0.00000000000E+00 0. -1.
         21    1    1    2  503  505  0.62023588406E+02  0.12113682342E+02 -0.79234143841E+02  0.10134947641E+03  0.00000000000E+00 0.  1.
         21    1    1    2  504  501 -0.98334909293E+02 -0.35577995969E+02  0.11948182088E+03  0.15878115034E+03  0.00000000000E+00 0. -1.
         21    1    1    2  505  502  0.34254387848E+02  0.64493337660E+02  0.48393946702E+03  0.48941818666E+03  0.00000000000E+00 0. -1.
          2    1    1    2  501    0  0.20569330392E+01 -0.41029024033E+02  0.31055554205E+01  0.41197770098E+02  0.00000000000E+00 0. -1.
<scales pt_clust_3="66.97169" pt_clust_4="14000.00000" pt_clust_5="74.07795" pt_clust_6="41.08055"></scales>
<clustering>
<clus scale="   41.081">  2  6  1 -1</clus>
<clus scale="   66.972">  2  3  1 -1</clus>
<clus scale="   74.078">  1  5  2 -1</clus>
<clus scale="   74.078">  1  3  2 -1</clus>
</clustering>
</event>
<event>
 6    0  0.3667994E+002  0.6013045E+02  0.7546771E-02  0.1397285E+00
         21   -1    0    0  504  502  0.00000000000E+00  0.00000000000E+00  0.87968187257E+02  0.87968187257E+02  0.00000000000E+00 0.  1.
          4   -1    0    0  503    0 -0.00000000000E+00 -0.00000000000E+00 -0.25301226595E+03  0.25301226595E+03  0.00000000000E+00 0.  1.
         21    1    1    2  503  505 -0.54094706495E+02  0.10025732914E+02 -0.78514369764E+02  0.95871053247E+02  0.00000000000E+00 0.  1.
         21    1    1    2  504  501  0.43934702898E+02 -0.10011521009E+02  0.22944304967E+02  0.50566093403E+02  0.00000000000E+00 0.  1.
         21    1    1    2  505  502 -0.72177362749E+02  0.79706096888E+00 -0.24518985705E+02  0.76232458045E+02  0.00000000000E+00 0.  1.
          4    1    1    2  501    0  0.82337366346E+02 -0.81127287394E+00 -0.84955028192E+02  0.11831084851E+03  0.00000000000E+00 0.  1.
<scales pt_clust_3="47.38746" pt_clust_4="45.06094" pt_clust_5="14000.00000" pt_clust_6="60.13045"></scales>
<clustering>
<clus scale="   45.061">  1  4  2 -1</clus>
<clus scale="   47.387">  2  3  1 -1</clus>
<clus scale="   60.130">  2  6  1 -1</clus>
<clus scale="   45.061">  1  3  2 -1</clus>
</clustering>
</event>
<event>
 6    0  0.3667994E+002  0.1327221E+03  0.7546771E-02  0.1223472E+00
          2   -1    0    0  503    0 -0.00000000000E+00  0.00000000000E+00  0.59004213702E+03  0.59004213702E+03  0.00000000000E+00 0. -1.
         21   -1    0    0  501  502  0.00000000000E+00 -0.00000000000E+00 -0.26644260615E+03  0.26644260615E+03  0.00000000000E+00 0. -1.
         21    1    1    2  503  505  0.42466717667E+01  0.41509119565E+02  0.56865781188E+02  0.70531966499E+02  0.00000000000E+00 0. -1.
         21    1    1    2  504  502 -0.75788862327E+02 -0.11143762863E+03 -0.22989415067E+03  0.26648380296E+03  0.00000000000E+00 0. -1.
         21    1    1    2  505  504 -0.30683127298E+02  0.28984372869E+02  0.14096636208E+03  0.14714979921E+03  0.00000000000E+00 0. -1.
          2    1    1    2  501    0  0.10222531786E+03  0.40944136191E+02  0.35566153827E+03  0.37231917451E+03  0.00000000000E+00 0. -1.
<scales pt_clust_3="41.72579" pt_clust_4="14000.00000" pt_clust_5="49.99219" pt_clust_6="132.72212"></scales>
<clustering>
<clus scale="   41.726">  1  3  2 -1</clus>
<clus scale="   49.992">  1  5  2 -1</clus>
<clus scale="  132.722">  1  6  2 -1</clus>
<clus scale="  132.722">  2  3  1 -1</clus>
</clustering>
</event>
<event>
 6    0  0.3667994E+002  0.1461717E+03  0.7546771E-02  0.1205258E+00
         21   -1    0    0  503  502  0.00000000000E+00  0.00000000000E+00  0.22583286862E+03  0.22583286862E+03  0.00000000000E+00 0. -1.
         -2   -1    0    0    0  501 -0.00000000000E+00 -0.00000000000E+00 -0.86856548200E+03  0.86856548200E+03  0.00000000000E+00 0. -1.
         21    1    1    2  503  501  0.12293215323E+02  0.43343450124E+02 -0.58624714731E+03  0.58797576101E+03  0.00000000000E+00 0. -1.
         21    1    1    2  504  502  0.12738966927E+03 -0.59277810652E+02  0.17984006555E+03  0.22822014778E+03  0.00000000000E+00 0. -1.
         21    1    1    2  505  504 -0.75735780071E+02 -0.38736561324E+01 -0.92895773419E+02  0.11991888222E+03  0.00000000000E+00 0. -1.
         -2    1    1    2    0  505 -0.63947104525E+02  0.19808016660E+02 -0.14342975820E+03  0.15828355960E+03  0.00000000000E+00 0. -1.
<scales pt_clust_3="45.05306" pt_clust_4="139.94472" pt_clust_5="39.65816" pt_clust_6="39.65816"></scales>
<clustering>
<clus scale="   39.658">  5  6 -1 -1</clus>
<clus scale="   45.053">  2  3  1 -1</clus>
<clus scale="  139.945">  1  4  2 -1</clus>
<clus scale="  139.945">  1  3  2 -1</clus>
</clustering>
</event>
<event>
 6    0  0.3667994E+002  0.1272120E+03  0.7546771E-02  0.1231652E+00
          2   -1    0    0  503    0 -0.00000000000E+00  0.00000000000E+00  0.20136030154E+04  0.20136030154E+04  0.00000000000E+00 0. -1.
         21   -1    0    0  504  502  0.00000000000E+00 -0.00000000000E+00 -0.22574684177E+02  0.22574684177E+02  0.00000000000E+00 0. -1.
         21    1    1    2  503  502 -0.66555216018E+02  0.26577704757E+02  0.56168853667E+03  0.56624198308E+03  0.00000000000E+00 0.  1.
         21    1    1    2  504  505 -0.98116225835E+02  0.35959867165E+02  0.18933648745E+03  0.21625959239E+03  0.00000000000E+00 0. -1.
         21    1    1    2  505  501  0.94318502919E+02 -0.35052582758E+02  0.51414551765E+03  0.52389910944E+03  0.00000000000E+00 0.  1.
          2    1    1    2  501    0  0.70352938934E+02 -0.27484989164E+02  0.72585778948E+03  0.72977701471E+03  0.00000000000E+00 0. -1.
<scales pt_clust_3="71.66569" pt_clust_4="114.52032" pt_clust_5="47.98937" pt_clust_6="47.98937"></scales>
<clustering>
<clus scale="   47.989">  5  6 -1 -1</clus>
<clus scale="   71.666">  1  3  2 -1</clus>
<clus scale="  114.520">  2  4  1 -1</clus>
<clus scale="  114.520">  2  3  1 -1</clus>
</clustering>
</event>
<event>
 6    0  0.3667994E+002  0.7051968E+02  0.7546771E-02  0.1358335E+00
         21   -1    0    0  505  502  0.00000000000E+00  0.00000000000E+00  0.29962587787E+03  0.29962587787E+03  0.00000000000E+00 0.  1.
          1   -1    0    0  503    0 -0.00000000000E+00 -0.00000000000E+00 -0.13897036744E+04  0.13897036744E+04  0.00000000000E+00 0.  1.
         21    1    1    2  503  504  0.13228140214E+02 -0.66437017880E+02 -0.96221469384E+02  0.11767511295E+03  0.00000000000E+00 0.  1.
         21    1    1    2  504  502 -0.70407380328E+02  0.11619023435E+02  0.26481810493E+03  0.27426416027E+03  0.00000000000E+00 0.  1.
         21    1    1    2  505  501  0.11163605791E+02  0.70093352022E+02 -0.47859774463E+02  0.85605269135E+02  0.00000000000E+00 0. -1.
          1    1    1    2  501    0  0.46015634324E+02 -0.15275357577E+02 -0.12108146576E+04  0.12117850099E+04  0.00000000000E+00 0.  1.
<scales pt_clust_3="14000.00000" pt_clust_4="70.09215" pt_clust_5="70.51968" pt_clust_6="48.48479"></scales>
<clustering>
<clus scale="   48.485">  2  6  1 -1</clus>
<clus scale="   70.092">  1  4  2 -1</clus>
<clus scale="   70.520">  1  5  2 -1</clus>
<clus scale="   70.092">  1  3  2 -1</clus>
</clustering>
</event>
<event>
 6    0  0.3667994E+002  0.1623182E+03  0.7546771E-02  0.1186104E+00
         21   -1    0    0  504  502  0.00000000000E+00  0.00000000000E+00  0.13196104017E+03  0.13196104017E+03  0.00000000000E+00 0.  1.
          2   -1    0    0  503    0 -0.00000000000E+00 -0.00000000000E+00 -0.25741519647E+04  0.25741519647E+04  0.00000000000E+00 0.  1.
         21    1    1    2  503  505 -0.32096143136E+02 -0.47566817063E+00 -0.91134812984E+02  0.96622682648E+02  0.00000000000E+00 0.  1.
         21    1    1    2  504  501 -0.69680334878E+02  0.71014380264E+02 -0.77368956270E+03  0.78006020967E+03  0.00000000000E+00 0.  1.
         21    1    1    2  505  502  0.15658098089E+03 -0.59391879084E+02  0.69716079479E+02  0.18139826519E+03  0.00000000000E+00 0.  1.
          2    1    1    2  501    0 -0.54804502873E+02 -0.11146833009E+02 -0.16470826283E+04  0.16480318473E+04  0.00000000000E+00 0.  1.
<scales pt_clust_3="32.09967" pt_clust_4="162.31822" pt_clust_5="14000.00000" pt_clust_6="76.98302"></scales>
<clustering>
<clus scale="   32.100">  2  3  1 -1</clus>
<clus scale="   76.983">  2  6  1 -1</clus>
<clus scale="  162.318">  2  4  1 -1</clus>
<clus scale="  162.318">  1  3  2 -1</clus>
</clustering>
</event>
<event>
 6    0  0.3667994E+002  0.1094937E+03  0.7546771E-02  0.1261510E+00
          2   -1    0    0  504    0 -0.00000000000E+00  0.00000000000E+00  0.28962484599E+04  0.28962484599E+04  0.00000000000E+00 0.  1.
         21   -1    0    0  505  502  0.00000000000E+00 -0.00000000000E+00 -0.26463654002E+02  0.26463654002E+02  0.00000000000E+00 0.  1.
         21    1    1    2  503  502 -0.69529960688E+01  0.49061126582E+02  0.21712950910E+02  0.54099820084E+02  0.00000000000E+00 0.  1.
         21    1    1    2  504  503 -0.36906134970E+02 -0.81462433306E+02  0.77788037012E+03  0.78300450896E+03  0.00000000000E+00 0.  1.
         21    1    1    2  505  501 -0.73642582371E+02 -0.47044936563E+01  0.23567381440E+03  0.24695649210E+03  0.00000000000E+00 0.  1.
          2    1    1    2  501    0  0.11750171341E+03  0.37105800380E+02  0.18345176704E+04  0.18386512927E+04  0.00000000000E+00 0.  1.
<scales pt_clust_3="49.55137" pt_clust_4="79.27783" pt_clust_5="109.49370" pt_clust_6="14000.00000"></scales>
<clustering>
<clus scale="   49.551">  2  3  1 -1</clus>
<clus scale="   79.278">  2  4  1 -1</clus>
<clus scale="  109.494">  2  5  1 -1</clus>
<clus scale="   49.551">  2  3  1 -1</clus>
</clustering>
</event>
<event>
 6    0  0.3667994E+002  0.1477196E+03  0.7546771E-02  0.1203303E+00
          1   -1    0    0  504    0 -0.00000000000E+00  0.00000000000E+00  0.21737237487E+04  0.21737237487E+04  0.00000000000E+00 0. -1.
         21   -1    0    0  503  502  0.00000000000E+00 -0.00000000000E+00 -0.18768436758E+03  0.18768436758E+03  0.00000000000E+00 0. -1.
         21    1    1    2  503  505 -0.42560631199E+02  0.56959235732E+01 -0.14769684530E+03  0.15381225239E+03  0.00000000000E+00 0. -1.
         21    1    1    2  504  502  0.82255834609E+01  0.40224148669E+02  0.90456074417E+02  0.99337524422E+02  0.00000000000E+00 0. -1.
         21    1    1    2  505  501 -0.10626194567E+03 -0.54179064709E+02  0.88780252583E+02  0.14869063655E+03  0.00000000000E+00 0. -1.
          1    1    1    2  501    0  0.14059699341E+03  0.82589924669E+01  0.19544998994E+04  0.19595677029E+04  0.00000000000E+00 0. -1.
<scales pt_clust_3="42.93598" pt_clust_4="41.05658" pt_clust_5="14000.00000" pt_clust_6="147.71960"></scales>
<clustering>
<clus scale="   41.057">  1  4  2 -1</clus>
<clus scale="   42.936">  2  3  1 -1</clus>
<clus scale="  147.720">  1  6  2 -1</clus>
<clus scale="   42.936">  2  3  1 -1</clus>
</clustering>
</event>
<event>
 6    0  0.3667994E+002  0.6950437E+02  0.7546771E-02  0.1361787E+00
         21   -1    0    0  501  502  0.00000000000E+00  0.00000000000E+00  0.10094393534E+04  0.10094393534E+04  0.00000000000E+00 0. -1.
          2   -1    0    0  505    0 -0.00000000000E+00 -0.00000000000E+00 -0.69408706061E+02  0.69408706061E+02  0.00000000000E+00 0.  1.
         21    1    1    2  503  504  0.59452007578E+02  0.41257234782E+02  0.78009894023E+02  0.10640603457E+03  0.00000000000E+00 0.  1.
         21    1    1    2  504  502  0.17159584020E+02  0.67733819179E+02  0.80449533843E+03  0.80752403750E+03  0.00000000000E+00 0. -1.
         21    1    1    2  505  503 -0.11673480261E+02 -0.60083685458E+02 -0.63428926375E+01  0.61534963124E+02  0.00000000000E+00 0.  1.
          2    1    1    2  501    0 -0.64938111337E+02 -0.48907368503E+02  0.63868307484E+02  0.10338302423E+03  0.00000000000E+00 0.  1.
<scales pt_clust_3="57.41806" pt_clust_4="69.50437" pt_clust_5="61.20718" pt_clust_6="14000.00000"></scales>
<clustering>
<clus scale="   61.207">  2  5  1 -1</clus>
<clus scale="   57.418">  2  3  1 -1</clus>
<clus scale="   69.504">  1  4  2 -1</clus>
<clus scale="   69.504">  1  3  2 -1</clus>
</clustering>
</event>
<event>
 6    0  0.3667994E+002  0.1101691E+03  0.7546771E-02  0.1260257E+00
          1   -1    0    0  503    0 -0.00000000000E+00  0.00000000000E+00  0.15283202439E+04  0.15283202439E+04  0.00000000000E+00 0. -1.
         21   -1    0    0  504  502  0.00000000000E+00 -0.00000000000E+00 -0.26301615767E+03  0.26301615767E+03  0.00000000000E+00 0.  1.
         21    1    1    2  503  505 -0.31506571456E+02 -0.66205018127E+00  0.56219962887E+03  0.56308216546E+03  0.00000000000E+00 0. -1.
         21    1    1    2  504  501  0.20663094198E+02 -0.59057257493E+02 -0.24464808482E+03  0.25252209513E+03  0.00000000000E+00 0.  1.
         21    1    1    2  505  502  0.23015412347E+02  0.14448359701E+03  0.60743986454E+03  0.62481069776E+03  0.00000000000E+00 0. -1.
          1    1    1    2  501    0 -0.12171935088E+02 -0.84764289333E+02  0.34031267759E+03  0.35092144317E+03  0.00000000000E+00 0. -1.
<scales pt_clust_3="31.51353" pt_clust_4="62.52799" pt_clust_5="14000.00000" pt_clust_6="110.16910"></scales>
<clustering>
<clus scale="   31.514">  1  3  2 -1</clus>
<clus scale="   62.528">  2  4  1 -1</clus>
<clus scale="  110.169">  1  6  2 -1</clus>
<clus scale="   62.528">  2  3  1 -1</clus>
</clustering>
</event>
<event>
 6    0  0.3667994E+002  0.2379901E+03  0.7546771E-02  0.1121139E+00
         21   -1    0    0  503  502  0.00000000000E+00  0.00000000000E+00  0.29329063366E+03  0.29329063366E+03  0.00000000000E+00 0. -1.
         -1   -1    0    0    0  501 -0.00000000000E+00 -0.00000000000E+00 -0.23362700382E+03  0.23362700382E+03  0.00000000000E+00 0. -1.
         21    1    1    2  503  504  0.36510903694E+02  0.21419759592E+03  0.81517167908E+02  0.23207478288E+03  0.00000000000E+00 0. -1.
         21    1    1    2  504  501  0.43845362177E+02  0.62030978724E+01  0.26474717197E+01  0.44361056278E+02  0.00000000000E+00 0. -1.
         21    1    1    2  505  502 -0.20806904141E+02 -0.11278477883E+03  0.25877065709E+02  0.11757106840E+03  0.00000000000E+00 0. -1.
         -1    1    1    2    0  505 -0.59549361730E+02 -0.10761591496E+03 -0.50378075494E+02  0.13291072991E+03  0.00000000000E+00 0. -1.
<scales pt_clust_3="222.55800" pt_clust_4="44.28199" pt_clust_5="84.10886" pt_clust_6="84.10886"></scales>
<clustering>
<clus scale="   44.282">  2  4  1 -1</clus>
<clus scale="   84.109">  5  6 -1 -1</clus>
<clus scale="  222.558">  1  3  2 -1</clus>
<clus scale="  222.558">  1  3  2 -1</clus>
</clustering>
</event>
<event>
 6    0  0.3667994E+002  0.5750253E+02  0.7546771E-02  0.1408622E+00
         21   -1    0    0  501  502  0.00000000000E+00  0.00000000000E+00  0.10307127649E+03  0.10307127649E+03  0.00000000000E+00 0. -1.
          1   -1    0    0  505    0 -0.00000000000E+00 -0.00000000000E+00 -0.39032275095E+03  0.39032275095E+03  0.00000000000E+00 0. -1.
         21    1    1    2  503  502  0.29113730713E+02  0.47798382554E+02  0.66782414585E+02  0.87133148621E+02  0.00000000000E+00 0. -1.
         21    1    1    2  504  503  0.61468434093E+02  0.24195101369E+02 -0.10139398912E+03  0.12101451297E+03  0.00000000000E+00 0. -1.
         21    1    1    2  505  504 -0.42085045714E+02  0.16635852534E+01 -0.59216908768E+02  0.72667467774E+02  0.00000000000E+00 0. -1.
          1    1    1    2  501    0 -0.48497119092E+02 -0.73657069177E+02 -0.19342299116E+03  0.21257889808E+03  0.00000000000E+00 0. -1.
<scales pt_clust_3="14000.00000" pt_clust_4="53.16169" pt_clust_5="42.11791" pt_clust_6="57.50253"></scales>
<clustering>
<clus scale="   42.118">  2  5  1 -1</clus>
<clus scale="   53.162">  2  4  1 -1</clus>
<clus scale="   57.503">  2  6  1 -1</clus>
<clus scale="   57.503">  1  3  2 -1</clus>
</clustering>
</event>
<event>
 6    0  0.3667994E+002  0.8158808E+02  0.7546771E-02  0.1324604E+00
          3   -1    0    0  504    0 -0.00000000000E+00  0.00000000000E+00  0.24053554978E+04  0.24053554978E+04  0.00000000000E+00 0.  1.
         21   -1    0    0  505  502  0.00000000000E+00 -0.00000000000E+00 -0.75941364168E+03  0.75941364168E+03  0.00000000000E+00 0. -1.
         21    1    1    2  503  501  0.89984520855E+02 -0.49435385572E+02  0.50371815640E+03  0.51407494826E+03  0.00000000000E+00 0.  1.
         21    1    1    2  504  502 -0.49466900511E+02  0.30531340111E+02  0.37215385322E+03  0.37666646710E+03  0.00000000000E+00 0. -1.
         21    1    1    2  505  503 -0.57450174859E+02 -0.46172001399E+02 -0.74942755760E+03  0.75304318628E+03  0.00000000000E+00 0. -1.
          3    1    1    2  501    0  0.16932554515E+02  0.65076046860E+02  0.15194974041E+04  0.15209845378E+04  0.00000000000E+00 0.  1.
<scales pt_clust_3="81.58808" pt_clust_4="58.13034" pt_clust_5="73.72197" pt_clust_6="14000.00000"></scales>
<clustering>
<clus scale="   58.130">  1  4  2 -1</clus>
<clus scale="   73.722">  2  5  1 -1</clus>
<clus scale="   81.588">  2  3  1 -1</clus>
<clus scale="   73.722">  2  3  1 -1</clus>
</clustering>
</event>
<event>
 6    0  0.3667994E+002  0.7572429E+02  0.7546771E-02  0.1341643E+00
         21   -1    0    0  504  502  0.00000000000E+00  0.00000000000E+00  0.18022875425E+02  0.18022875425E+02  0.00000000000E+00 0. -1.
          2   -1    0    0  505    0 -0.00000000000E+00 -0.00000000000E+00 -0.32177808230E+04  0.32177808230E+04  0.00000000000E+00 0.  1.
         21    1    1    2  503  502 -0.52976754392E+01 -0.79256281362E+02 -0.97916938162E+02  0.12608469487E+03  0.00000000000E+00 0. -1.
         21    1    1    2  504  501 -0.80337332871E+02  0.79958941988E+01 -0.10562636402E+04  0.10593445610E+04  0.00000000000E+00 0. -1.
         21    1    1    2  505  503  0.52699328547E+02  0.49494634796E+02 -0.61230275438E+03  0.61655624328E+03  0.00000000000E+00 0. -1.
          2    1    1    2  501    0  0.32935679763E+02  0.21765752367E+02 -0.14332746148E+04  0.14338181993E+04  0.00000000000E+00 0.  1.
<scales pt_clust_3="14000.00000" pt_clust_4="64.30234" pt_clust_5="75.72429" pt_clust_6="39.47793"></scales>
<clustering>
<clus scale="   39.478">  2  6  1 -1</clus>
<clus scale="   64.302">  2  4  1 -1</clus>
<clus scale="   75.724">  2  5  1 -1</clus>
<clus scale="   75.724">  1  3  2 -1</clus>
</clustering>
</event>
<event>
 6    0  0.3667994E+002  0.7931022E+02  0.7546771E-02  0.1331020E+00
         21   -1    0    0  503  502  0.00000000000E+00  0.00000000000E+00  0.45723844990E+03  0.45723844990E+03  0.00000000000E+00 0.  1.
          2   -1    0    0  505    0 -0.00000000000E+00 -0.00000000000E+00 -0.39992870576E+03  0.39992870576E+03  0.00000000000E+00 0.  1.
         21    1    1    2  503  504  0.30409307043E+02 -0.24556185948E+02  0.36969478062E+03  0.37175524615E+03  0.00000000000E+00 0.  1.
         21    1    1    2  504  501  0.75620779988E+02 -0.73774632023E+02 -0.19474906809E+02  0.10742658280E+03  0.00000000000E+00 0. -1.
         21    1    1    2  505  502 -0.65563989734E+02  0.49022956785E+02 -0.38334488946E+01  0.81954758081E+02  0.00000000000E+00 0.  1.
          2    1    1    2  501    0 -0.40466097297E+02  0.49307861186E+02 -0.28907668077E+03  0.29603056864E+03  0.00000000000E+00 0.  1.
<scales pt_clust_3="39.08622" pt_clust_4="79.31022" pt_clust_5="14000.00000" pt_clust_6="62.24952"></scales>
<clustering>
<clus scale="   39.086">  1  3  2 -1</clus>
<clus scale="   62.250">  2  6  1 -1</clus>
<clus scale="   79.310">  2  4  1 -1</clus>
<clus scale="   39.086">  1  3  2 -1</clus>
</clustering>
</event>
<event>
 6    0  0.3667994E+002  0.8187110E+02  0.7546771E-02  0.1323824E+00
          2   -1    0    0  503    0 -0.00000000000E+00  0.00000000000E+00  0.78391672961E+03  0.78391672961E+03  0.00000000000E+00 0. -1.
         21   -1    0    0  504  502  0.00000000000E+00 -0.00000000000E+00 -0.30987325873E+03  0.30987325873E+03  0.00000000000E+00 0.  1.
         21    1    1    2  503  505 -0.74157405681E+02  0.12578408407E+02  0.15022816656E+03  0.16800606894E+03  0.00000000000E+00 0. -1.
         21    1    1    2  504  501  0.18731075036E+02 -0.42873923164E+02 -0.27257949469E+03  0.27656573791E+03  0.00000000000E+00 0.  1.
         21    1    1    2  505  502 -0.11555193033E+02 -0.41214649446E+02 -0.20040993752E+01  0.42850743626E+02  0.00000000000E+00 0.  1.
          2    1    1    2  501    0  0.66981523678E+02  0.71510164203E+02  0.59839889839E+03  0.60636743786E+03  0.00000000000E+00 0. -1.
<scales pt_clust_3="75.36726" pt_clust_4="14000.00000" pt_clust_5="42.80385" pt_clust_6="81.87110"></scales>
<clustering>
<clus scale="   42.804">  2  5  1 -1</clus>
<clus scale="   75.367">  1  3  2 -1</clus>
<clus scale="   81.871">  1  6  2 -1</clus>
<clus scale="   42.804">  2  3  1 -1</clus>
</clustering>
</event>
<event>
 6    0  0.3667994E+002  0.1328451E+03  0.7546771E-02  0.1223294E+00
         21   -1    0    0  504  502  0.00000000000E+00  0.00000000000E+00  0.20919282722E+03  0.20919282722E+03  0.00000000000E+00 0. -1.
          2   -1    0    0  505    0 -0.00000000000E+00 -0.00000000000E+00 -0.58516048604E+03  0.58516048604E+03  0.00000000000E+00 0. -1.
         21    1    1    2  503  501  0.15432599504E+03  0.93114398347E+02 -0.95490204291E+02  0.20397348612E+03  0.00000000000E+00 0. -1.
         21    1    1    2  504  503  0.56638732529E+01  0.50947088112E+02  0.11361180869E+03  0.12464079718E+03  0.00000000000E+00 0. -1.
         21    1    1    2  505  502 -0.59243374608E+02 -0.73203757059E+02 -0.65194818057E+02  0.11453790545E+03  0.00000000000E+00 0. -1.
          2    1    1    2  501    0 -0.10074649369E+03 -0.70857729400E+02 -0.32889444516E+03  0.35120112452E+03  0.00000000000E+00 0. -1.
<scales pt_clust_3="132.84506" pt_clust_4="51.26095" pt_clust_5="82.69634" pt_clust_6="14000.00000"></scales>
<clustering>
<clus scale="   51.261">  1  4  2 -1</clus>
<clus scale="   82.696">  1  5  2 -1</clus>
<clus scale="  132.845">  1  3  2 -1</clus>
<clus scale="   51.261">  1  3  2 -1</clus>
</clustering>
</event>
<event>
 6    0  0.3667994E+002  0.1494783E+03  0.7546771E-02  0.1201115E+00
          1   -1    0    0  505    0 -0.00000000000E+00  0.00000000000E+00  0.88627684305E+03  0.88627684305E+03  0.00000000000E+00 0. -1.
         21   -1    0    0  503  502  0.00000000000E+00 -0.00000000000E+00 -0.11892117861E+03  0.11892117861E+03  0.00000000000E+00 0.  1.
         21    1    1    2  503  501 -0.65632509279E+02 -0.10125479160E+02  0.93194346774E+02  0.11443486301E+03  0.00000000000E+00 0. -1.
         21    1    1    2  504  502  0.92318664162E+02  0.10876142090E+03 -0.42716145842E+02  0.14891759985E+03  0.00000000000E+00 0.  1.
         21    1    1    2  505  504  0.26886713304E+02 -0.38342476969E+02  0.58765266545E+03  0.58951564534E+03  0.00000000000E+00 0. -1.
          1    1    1    2  501    0 -0.53572868187E+02 -0.60293464768E+02  0.12922479806E+03  0.15232991346E+03  0.00000000000E+00 0. -1.
<scales pt_clust_3="45.59072" pt_clust_4="140.78123" pt_clust_5="46.82991" pt_clust_6="45.59072"></scales>
<clustering>
<clus scale="   45.591">  3  6 -1 -1</clus>
<clus scale="   46.830">  1  5  2 -1</clus>
<clus scale="  140.781">  2  4  1 -1</clus>
<clus scale="  140.781">  2  3  1 -1</clus>
</clustering>
</event>
<event>
 6    0  0.3667994E+002  0.9640147E+02  0.7546771E-02  0.1288050E+00
         -3   -1    0    0    0  501 -0.00000000000E+00  0.00000000000E+00  0.44394686254E+03  0.44394686254E+03  0.00000000000E+00 0. -1.
         21   -1    0    0  505  502  0.00000000000E+00 -0.00000000000E+00 -0.85386804907E+03  0.85386804907E+03  0.00000000000E+00 0. -1.
         21    1    1    2  503  504 -0.71518137360E+02  0.22672743283E+02  0.63838189143E+02  0.98509957123E+02  0.00000000000E+00 0. -1.
         21    1    1    2  504  502  0.34383796932E+02  0.33015689383E+02 -0.75053568726E+03  0.75204793669E+03  0.00000000000E+00 0. -1.
         21    1    1    2  505  501  0.12671739912E+03 -0.77194078356E+02 -0.73569931473E+01  0.14856093134E+03  0.00000000000E+00 0.  1.
         -3    1    1    2    0  503 -0.89583058693E+02  0.21505645689E+02  0.28413330473E+03  0.29869608645E+03  0.00000000000E+00 0. -1.
<scales pt_clust_3="71.52364" pt_clust_4="47.66845" pt_clust_5="96.40147" pt_clust_6="14000.00000"></scales>
<clustering>
<clus scale="   47.668">  2  4  1 -1</clus>
<clus scale="   71.524">  2  3  1 -1</clus>
<clus scale="   96.401">  2  5  1 -1</clus>
<clus scale="   47.668">  2  3  1 -1</clus>
</clustering>
</event>
<event>
 6    0  0.3667994E+002  0.9848115E+02  0.7546771E-02  0.1283523E+00
         21   -1    0    0  504  502  0.00000000000E+00  0.00000000000E+00  0.20457833860E+04  0.20457833860E+04  0.00000000000E+00 0. -1.
         -3   -1    0    0    0  501 -0.00000000000E+00 -0.00000000000E+00 -0.11290343317E+03  0.11290343317E+03  0.00000000000E+00 0.  1.
         21    1    1    2  503  505 -0.84785874647E+02 -0.22933268600E+02  0.11418890003E+03  0.14406139052E+03  0.00000000000E+00 0. -1.
         21    1    1    2  504  501  0.82323494406E+02  0.87608994060E+01 -0.52390368326E+02  0.97972760414E+02  0.00000000000E+00 0.  1.
         21    1    1    2  505  502 -0.32747351111E+02  0.78008558969E+02  0.18319675885E+04  0.18339201099E+04  0.00000000000E+00 0. -1.
         -3    1    1    2    0  503  0.35209731351E+02 -0.63836189775E+02  0.39113832683E+02  0.82732558367E+02  0.00000000000E+00 0.  1.
<scales pt_clust_3="14000.00000" pt_clust_4="98.48115" pt_clust_5="83.82651" pt_clust_6="72.90257"></scales>
<clustering>
<clus scale="   72.903">  2  6  1 -1</clus>
<clus scale="   83.827">  1  5  2 -1</clus>
<clus scale="   98.481">  2  4  1 -1</clus>
<clus scale="   83.827">  1  3  2 -1</clus>
</clustering>
</event>
<event>
 6    0  0.3667994E+002  0.1034388E+03  0.7546771E-02  0.1273226E+00
          2   -1    0    0  503    0 -0.00000000000E+00  0.00000000000E+00  0.99651988124E+03  0.99651988124E+03  0.00000000000E+00 0. -1.
         21   -1    0    0  505  502  0.00000000000E+00 -0.00000000000E+00 -0.24381704670E+03  0.24381704670E+03  0.00000000000E+00 0. -1.
         21    1    1    2  503  504 -0.29122239170E+02 -0.74504694857E+01  0.27898243692E+03  0.28059724592E+03  0.00000000000E+00 0. -1.
         21    1    1    2  504  502  0.89623027695E+02 -0.50902685345E+02 -0.20976524826E+03  0.23371955384E+03  0.00000000000E+00 0. -1.
         21    1    1    2  505  501 -0.13850532719E+03 -0.60429808562E+01  0.46556005689E+03  0.48576373871E+03  0.00000000000E+00 0. -1.
          2    1    1    2  501    0  0.78004538661E+02  0.64396135687E+02  0.21792558899E+03  0.24025638947E+03  0.00000000000E+00 0. -1.
<scales pt_clust_3="30.06018" pt_clust_4="14000.00000" pt_clust_5="103.43879" pt_clust_6="92.54717"></scales>
<clustering>
<clus scale="   30.060">  1  3  2 -1</clus>
<clus scale="   92.547">  1  6  2 -1</clus>
<clus scale="  103.439">  1  5  2 -1</clus>
<clus scale="  103.439">  2  3  1 -1</clus>
</clustering>
</event>
<event>
 6    0  0.3667994E+002  0.1012517E+03  0.7546771E-02  0.1277686E+00
          1   -1    0    0  503    0 -0.00000000000E+00  0.00000000000E+00  0.18349637360E+03  0.18349637360E+03  0.00000000000E+00 0.  1.
         21   -1    0    0  505  502  0.00000000000E+00 -0.00000000000E+00 -0.22890325050E+03  0.22890325050E+03  0.00000000000E+00 0.  1.
         21    1    1    2  503  502  0.34618093783E+02  0.82229240306E+01  0.53427030318E+02  0.64190937564E+02  0.00000000000E+00 0.  1.
         21    1    1    2  504  501 -0.82682166140E+02 -0.64194857632E+02  0.29882520308E+02  0.10885901600E+03  0.00000000000E+00 0.  1.
         21    1    1    2  505  504  0.46175407331E+02  0.91285379039E+02 -0.16146965780E+03  0.19114821229E+03  0.00000000000E+00 0.  1.
          1    1    1    2  501    0  0.18886650263E+01 -0.35313445438E+02  0.32753230281E+02  0.48201458257E+02  0.00000000000E+00 0.  1.
<scales pt_clust_3="35.95064" pt_clust_4="14000.00000" pt_clust_5="101.25170" pt_clust_6="35.36392"></scales>
<clustering>
<clus scale="   35.364">  1  6  2 -1</clus>
<clus scale="   35.951">  1  3  2 -1</clus>
<clus scale="  101.252">  2  5  1 -1</clus>
<clus scale="  101.252">  2  3  1 -1</clus>
</clustering>
</event>
<event>
 6    0  0.3667994E+002  0.1964271E+03  0.7546771E-02  0.1152789E+00
          3   -1    0    0  503    0 -0.00000000000E+00  0.00000000000E+00  0.10352890380E+04  0.10352890380E+04  0.00000000000E+00 0. -1.
         21   -1    0    0  501  502  0.00000000000E+00 -0.00000000000E+00 -0.15977438910E+03  0.15977438910E+03  0.00000000000E+00 0. -1.
         21    1    1    2  503  505  0.72121090393E+02  0.45804310101E+02  0.41098393826E+03  0.41977051351E+03  0.00000000000E+00 0. -1.
         21    1    1    2  504  502 -0.18860494579E+02 -0.18413898039E+03 -0.69053537661E+02  0.19756334027E+03  0.00000000000E+00 0. -1.
         21    1    1    2  505  504  0.56895105191E+02  0.65875891483E+02  0.17024811980E+03  0.19120959277E+03  0.00000000000E+00 0. -1.
          3    1    1    2  501    0 -0.11015570101E+03  0.72458778803E+02  0.36333612854E+03  0.38651998059E+03  0.00000000000E+00 0. -1.
<scales pt_clust_3="78.93749" pt_clust_4="179.54182" pt_clust_5="78.93749" pt_clust_6="131.85050"></scales>
<clustering>
<clus scale="   78.937">  3  5 -1 -1</clus>
<clus scale="  131.850">  1  6  2 -1</clus>
<clus scale="  179.542">  2  4  1 -1</clus>
<clus scale="  179.542">  2  3  1 -1</clus>
</clustering>
</event>
<event>
 6    0  0.3667994E+002  0.1146893E+03  0.7546771E-02  0.1252124E+00
          2   -1    0    0  505    0 -0.00000000000E+00  0.00000000000E+00  0.93028891256E+03  0.93028891256E+03  0.00000000000E+00 0. -1.
         21   -1    0    0  504  502  0.00000000000E+00 -0.00000000000E+00 -0.15793579110E+04  0.15793579110E+04  0.00000000000E+00 0.  1.
         21    1    1    2  503  502 -0.70303839284E+01 -0.29718743468E+02 -0.15572464914E+04  0.15575459110E+04  0.00000000000E+00 0.  1.
         21    1    1    2  504  501 -0.14409233545E+02 -0.37423002327E+02  0.15779442263E+03  0.16281027894E+03  0.00000000000E+00 0.  1.
         21    1    1    2  505  503  0.23481541140E+02  0.12915932875E+03  0.22687449990E+03  0.26211744253E+03  0.00000000000E+00 0. -1.
          2    1    1    2  501    0 -0.20419236669E+01 -0.62017582950E+02  0.52350857044E+03  0.52717319105E+03  0.00000000000E+00 0. -1.
<scales pt_clust_3="30.53899" pt_clust_4="34.30893" pt_clust_5="106.81427" pt_clust_6="34.30893"></scales>
<clustering>
<clus scale="   30.539">  2  3  1 -1</clus>
<clus scale="   34.309">  4  6 -1 -1</clus>
<clus scale="  106.814">  2  5  1 -1</clus>
<clus scale="   30.539">  2  3  1 -1</clus>
</clustering>
</event>
<event>
 6    0  0.3667994E+002  0.1521314E+03  0.7546771E-02  0.1197878E+00
         21   -1    0    0  503  502  0.00000000000E+00  0.00000000000E+00  0.45471726751E+03  0.45471726751E+03  0.00000000000E+00 0. -1.
          1   -1    0    0  504    0 -0.00000000000E+00 -0.00000000000E+00 -0.42167290853E+03  0.42167290853E+03  0.00000000000E+00 0.  1.
         21    1    1    2  503  501 -0.65835328591E+02 -0.13750720763E+03  0.40216471472E+03  0.43009182788E+03  0.00000000000E+00 0. -1.
         21    1    1    2  504  505  0.30201873111E+01 -0.32313719488E+02 -0.56471587519E+02  0.65133234185E+02  0.00000000000E+00 0.  1.
         21    1    1    2  505  502 -0.99571484600E+01  0.44181487145E+02 -0.11323939025E+02  0.46683832392E+02  0.00000000000E+00 0.  1.
          1    1    1    2  501    0  0.72772289740E+02  0.12563943997E+03 -0.30132482920E+03  0.33448128157E+03  0.00000000000E+00 0.  1.
<scales pt_clust_3="14000.00000" pt_clust_4="32.45455" pt_clust_5="42.70397" pt_clust_6="152.13140"></scales>
<clustering>
<clus scale="   32.455">  2  4  1 -1</clus>
<clus scale="   42.704">  2  5  1 -1</clus>
<clus scale="  152.131">  2  6  1 -1</clus>
<clus scale="  152.131">  1  3  2 -1</clus>
</clustering>
</event>
<event>
 6    0  0.3667994E+002  0.6972491E+02  0.7546771E-02  0.1361031E+00
          2   -1    0    0  503    0 -0.00000000000E+00  0.00000000000E+00  0.52111173771E+03  0.52111173771E+03  0.00000000000E+00 0.  1.
         21   -1    0    0  501  502  0.00000000000E+00 -0.00000000000E+00 -0.79539093420E+02  0.79539093420E+02  0.00000000000E+00 0. -1.
         21    1    1    2  503  505 -0.32911434694E+02  0.20702784686E+02  0.67683230239E+02  0.78056309693E+02  0.00000000000E+00 0.  1.
         21    1    1    2  504  502 -0.46840176678E+02  0.48664666849E+02 -0.41283085045E+02  0.79161512502E+02  0.00000000000E+00 0. -1.
         21    1    1    2  505  504  0.38466600819E+02  0.27990776112E+02  0.16759733822E+03  0.17421834204E+03  0.00000000000E+00 0.  1.
          2    1    1    2  501    0  0.41285010553E+02 -0.97358227647E+02  0.24757516088E+03  0.26921466690E+03  0.00000000000E+00 0.  1.
<scales pt_clust_3="38.88146" pt_clust_4="69.72491" pt_clust_5="44.26549" pt_clust_6="14000.00000"></scales>
<clustering>
<clus scale="   38.881">  1  3  2 -1</clus>
<clus scale="   44.265">  1  5  2 -1</clus>
<clus scale="   69.725">  2  4  1 -1</clus>
<clus scale="   69.725">  2  3  1 -1</clus>
</clustering>
</event>
<event>
 6    0  0.3667994E+002  0.1312597E+03  0.7546771E-02  0.1225598E+00
         -1   -1    0    0    0  501 -0.00000000000E+00  0.00000000000E+00  0.11879714472E+04  0.11879714472E+04  0.00000000000E+00 0.  1.
         21   -1    0    0  505  502  0.00000000000E+00 -0.00000000000E+00 -0.41491313738E+03  0.41491313738E+03  0.00000000000E+00 0. -1.
         21    1    1    2  503  502  0.43582783926E+02  0.55604544027E+01  0.66757326313E+02  0.79918197705E+02  0.00000000000E+00 0.  1.
         21    1    1    2  504  501 -0.11257453591E+03  0.11856732737E+03  0.12487428773E+03  0.20572998078E+03  0.00000000000E+00 0.  1.
         21    1    1    2  505  504 -0.22966134831E+02 -0.35322998640E+02 -0.36237505988E+03  0.36481617508E+03  0.00000000000E+00 0. -1.
         -1    1    1    2    0  503  0.91957886815E+02 -0.88804783130E+02  0.94380175569E+03  0.95242023104E+03  0.00000000000E+00 0.  1.
<scales pt_clust_3="40.65092" pt_clust_4="14000.00000" pt_clust_5="42.13262" pt_clust_6="131.25972"></scales>
<clustering>
<clus scale="   42.133">  2  5  1 -1</clus>
<clus scale="   40.651">  2  3  1 -1</clus>
<clus scale="  131.260">  1  6  2 -1</clus>
<clus scale="   42.133">  2  3  1 -1</clus>
</clustering>
</event>
<event>
 6    0  0.3667994E+002  0.1028259E+03  0.7546771E-02  0.1274463E+00
         21   -1    0    0  505  502  0.00000000000E+00  0.00000000000E+00  0.11552616587E+03  0.11552616587E+03  0.00000000000E+00 0. -1.
          1   -1    0    0  504    0 -0.00000000000E+00 -0.00000000000E+00 -0.18085990565E+04  0.18085990565E+04  0.00000000000E+00 0.  1.
         21    1    1    2  503  502  0.41093375140E+02  0.65283365120E+02 -0.20232327757E+03  0.21653011774E+03  0.00000000000E+00 0.  1.
         21    1    1    2  504  503  0.30520794722E+02 -0.86425410358E+01 -0.27180936998E+03  0.27365406271E+03  0.00000000000E+00 0.  1.
         21    1    1    2  505  501  0.34454531285E+01  0.38524622975E+02  0.10115283068E+03  0.10829548872E+03  0.00000000000E+00 0. -1.
          1    1    1    2  501    0 -0.75059622990E+02 -0.95165447060E+02 -0.13200930738E+04  0.13256455532E+04  0.00000000000E+00 0.  1.
<scales pt_clust_3="102.82586" pt_clust_4="31.72085" pt_clust_5="38.66476" pt_clust_6="14000.00000"></scales>
<clustering>
<clus scale="   31.721">  2  4  1 -1</clus>
<clus scale="   38.665">  1  5  2 -1</clus>
<clus scale="  102.826">  1  3  2 -1</clus>
<clus scale="   38.665">  1  3  2 -1</clus>
</clustering>
</event>
<event>
 6    0  0.3667994E+002  0.9442048E+02  0.7546771E-02  0.1292487E+00
         21   -1    0    0  503  502  0.00000000000E+00  0.00000000000E+00  0.10042835649E+04  0.10042835649E+04  0.00000000000E+00 0. -1.
          2   -1    0    0  505    0 -0.00000000000E+00 -0.00000000000E+00 -0.21175430287E+04  0.21175430287E+04  0.00000000000E+00 0.  1.
         21    1    1    2  503  501  0.81142157077E+02 -0.48174606008E+02  0.98854990347E+03  0.99304368181E+03  0.00000000000E+00 0. -1.
         21    1    1    2  504  502  0.58126300989E+02  0.64840225790E+00 -0.13013805028E+03  0.14253069642E+03  0.00000000000E+00 0. -1.
         21    1    1    2  505  504 -0.29367885993E+02 -0.40658045958E+02 -0.13223987588E+03  0.14143172983E+03  0.00000000000E+00 0. -1.
          2    1    1    2  501    0 -0.10990057207E+03  0.88184249708E+02 -0.18394314411E+04  0.18448204856E+04  0.00000000000E+00 0.  1.
<scales pt_clust_3="14000.00000" pt_clust_4="56.14606" pt_clust_5="50.15525" pt_clust_6="94.42048"></scales>
<clustering>
<clus scale="   50.155">  2  5  1 -1</clus>
<clus scale="   56.146">  2  4  1 -1</clus>
<clus scale="   94.420">  2  6  1 -1</clus>
<clus scale="   94.420">  1  3  2 -1</clus>
</clustering>
</event>
<event>
 6    0  0.3667994E+002  0.2213963E+03  0.7546771E-02  0.1132846E+00
         21   -1    0    0  503  502  0.00000000000E+00  0.00000000000E+00  0.12839971808E+04  0.12839971808E+04  0.00000000000E+00 0.  1.
          2   -1    0    0  505    0 -0.00000000000E+00 -0.00000000000E+00 -0.24000218171E+03  0.24000218171E+03  0.00000000000E+00 0. -1.
         21    1    1    2  503  501  0.27958907513E+02 -0.42420719727E+02  0.95220820691E+01  0.51690308747E+02  0.00000000000E+00 0. -1.
         21    1    1    2  504  502 -0.66635062198E+02  0.95866466420E+02  0.10653221568E+04  0.10717004753E+04  0.00000000000E+00 0.  1.
         21    1    1    2  505  504 -0.47807613459E+02  0.13407641291E+03  0.83024637360E+02  0.16478817558E+03  0.00000000000E+00 0.  1.
          2    1    1    2  501    0  0.86483768144E+02 -0.18752215960E+03 -0.11387387720E+03  0.23582040285E+03  0.00000000000E+00 0. -1.
<scales pt_clust_3="37.78246" pt_clust_4="116.75021" pt_clust_5="207.87997" pt_clust_6="37.78246"></scales>
<clustering>
<clus scale="   37.782">  3  6 -1 -1</clus>
<clus scale="  116.750">  1  4  2 -1</clus>
<clus scale="  207.880">  1  5  2 -1</clus>
<clus scale="  116.750">  1  3  2 -1</clus>
</clustering>
</event>
<event>
 6    0  0.3667994E+002  0.1984792E+03  0.7546771E-02  0.1151028E+00
         21   -1    0    0  504  502  0.00000000000E+00  0.00000000000E+00  0.57774455330E+02  0.57774455330E+02  0.00000000000E+00 0.  1.
          2   -1    0    0  503    0 -0.00000000000E+00 -0.00000000000E+00 -0.90887293197E+03  0.90887293197E+03  0.00000000000E+00 0.  1.
         21    1    1    2  503  505 -0.20227860717E+02 -0.16930191267E+03 -0.41494586800E+03  0.44861161081E+03  0.00000000000E+00 0.  1.
         21    1    1    2  504  501  0.27591071846E+02  0.54500278436E+02 -0.78995716208E+02  0.99859254826E+02  0.00000000000E+00 0.  1.
         21    1    1    2  505  502  0.11151152161E+02 -0.43324112883E+02 -0.28649620748E+02  0.53123702060E+02  0.00000000000E+00 0.  1.
          2    1    1    2  501    0 -0.18514363290E+02  0.15812574712E+03 -0.32850727168E+03  0.36505281960E+03  0.00000000000E+00 0.  1.
<scales pt_clust_3="186.01520" pt_clust_4="42.88114" pt_clust_5="44.73619" pt_clust_6="42.88114"></scales>
<clustering>
<clus scale="   42.881">  4  6 -1 -1</clus>
<clus scale="   44.736">  1  5  2 -1</clus>
<clus scale="  186.015">  2  3  1 -1</clus>
<clus scale="   44.736">  1  3  2 -1</clus>
</clustering>
</event>
<event>
 6    0  0.3667994E+002  0.1621954E+03  0.7546771E-02  0.1186240E+00
         21   -1    0    0  501  502  0.00000000000E+00  0.00000000000E+00  0.57749088162E+03  0.57749088162E+03  0.00000000000E+00 0. -1.
          2   -1    0    0  503    0 -0.00000000000E+00 -0.00000000000E+00 -0.55181990301E+03  0.55181990301E+03  0.00000000000E+00 0. -1.
         21    1    1    2  503  504 -0.11830301352E+03 -0.89870962474E+02 -0.26818948976E+03  0.30659092505E+03  0.00000000000E+00 0. -1.
         21    1    1    2  504  505 -0.15367370565E+03  0.39980343467E+02  0.48586777499E+02  0.16605634773E+03  0.00000000000E+00 0. -1.
         21    1    1    2  505  502  0.54322717210E+02  0.10246451116E+02  0.38895631181E+03  0.39286506572E+03  0.00000000000E+00 0. -1.
          2    1    1    2  501    0  0.21765400196E+03  0.39644167891E+02 -0.14368262094E+03  0.26379844612E+03  0.00000000000E+00 0. -1.
<scales pt_clust_3="14000.00000" pt_clust_4="130.73955" pt_clust_5="55.28062" pt_clust_6="162.19544"></scales>
<clustering>
<clus scale="   55.281">  1  5  2 -1</clus>
<clus scale="  130.740">  1  4  2 -1</clus>
<clus scale="  162.195">  1  6  2 -1</clus>
<clus scale="   55.281">  1  3  2 -1</clus>
</clustering>
</event>
<event>
 6    0  0.3667994E+002  0.1117491E+03  0.7546771E-02  0.1257365E+00
          2   -1    0    0  503    0 -0.00000000000E+00  0.00000000000E+00  0.16229681654E+04  0.16229681654E+04  0.00000000000E+00 0.  1.
         21   -1    0    0  505  502  0.00000000000E+00 -0.00000000000E+00 -0.12213747556E+03  0.12213747556E+03  0.00000000000E+00 0. -1.
         21    1    1    2  503  504  0.41596167927E+02  0.16289567414E+01  0.32123453124E+03  0.32392054388E+03  0.00000000000E+00 0.  1.
         21    1    1    2  504  502  0.35389676628E+02 -0.29633949175E+02  0.20715025642E+03  0.21223060310E+03  0.00000000000E+00 0.  1.
         21    1    1    2  505  501  0.33517554348E+02 -0.34099147804E+02 -0.10956514933E+03  0.11954371701E+03  0.00000000000E+00 0. -1.
          2    1    1    2  501    0 -0.11050339890E+03  0.62104140237E+02  0.10820110515E+04  0.10894107769E+04  0.00000000000E+00 0.  1.
<scales pt_clust_3="37.46604" pt_clust_4="37.46604" pt_clust_5="47.81400" pt_clust_6="104.55334"></scales>
<clustering>
<clus scale="   37.466">  3  4 -1 -1</clus>
<clus scale="   47.814">  2  5  1 -1</clus>
<clus scale="  104.553">  2  6  1 -1</clus>
<clus scale="   47.814">  2  3  1 -1</clus>
</clustering>
</event>
<event>
 6    0  0.3667994E+002  0.1218642E+03  0.7546771E-02  0.1240053E+00
         21   -1    0    0  504  502  0.00000000000E+00  0.00000000000E+00  0.39742588272E+03  0.39742588272E+03  0.00000000000E+00 0. -1.
          2   -1    0    0  503    0 -0.00000000000E+00 -0.00000000000E+00 -0.51740367796E+03  0.51740367796E+03  0.00000000000E+00 0.  1.
         21    1    1    2  503  502 -0.42238908393E+02 -0.29554872644E+02 -0.48242922670E+02  0.70604500331E+02  0.00000000000E+00 0. -1.
         21    1    1    2  504  505 -0.94347178777E+02 -0.72117130068E+02  0.32313151655E+03  0.34426188807E+03  0.00000000000E+00 0. -1.
         21    1    1    2  505  501  0.97822166324E+02  0.15334350004E+03 -0.12070754689E+03  0.21829731356E+03  0.00000000000E+00 0. -1.
          2    1    1    2  501    0  0.38763920845E+02 -0.51671497332E+02 -0.27415884222E+03  0.28166585871E+03  0.00000000000E+00 0.  1.
<scales pt_clust_3="51.55207" pt_clust_4="14000.00000" pt_clust_5="121.86424" pt_clust_6="70.83405"></scales>
<clustering>
<clus scale="   51.552">  2  3  1 -1</clus>
<clus scale="   70.834">  2  6  1 -1</clus>
<clus scale="  121.864">  2  5  1 -1</clus>
<clus scale="  121.864">  1  3  2 -1</clus>
</clustering>
</event>
<event>
 6    0  0.3667994E+002  0.1689908E+03  0.7546771E-02  0.1178904E+00
          1   -1    0    0  503    0 -0.00000000000E+00  0.00000000000E+00  0.26742353028E+03  0.26742353028E+03  0.00000000000E+00 0.  1.
         21   -1    0    0  505  502  0.00000000000E+00 -0.00000000000E+00 -0.19602979292E+03  0.19602979292E+03  0.00000000000E+00 0.  1.
         21    1    1    2  503  502 -0.37974982968E+02  0.11961540851E+02  0.66901810048E+02  0.77852617031E+02  0.00000000000E+00 0.  1.
         21    1    1    2  504  501  0.16209962869E+03  0.97350298631E+02 -0.24841358364E+02  0.19071041752E+03  0.00000000000E+00 0.  1.
         21    1    1    2  505  504 -0.29219068874E+02  0.13600853217E+02 -0.11673646432E+02  0.34278436590E+02  0.00000000000E+00 0.  1.
          1    1    1    2  501    0 -0.94905576843E+02 -0.12291269270E+03  0.41006932116E+02  0.16061185207E+03  0.00000000000E+00 0.  1.
<scales pt_clust_3="40.82557" pt_clust_4="168.99085" pt_clust_5="32.22945" pt_clust_6="14000.00000"></scales>
<clustering>
<clus scale="   32.229">  2  5  1 -1</clus>
<clus scale="   40.826">  1  3  2 -1</clus>
<clus scale="  168.991">  2  4  1 -1</clus>
<clus scale="   32.229">  2  3  1 -1</clus>
</clustering>
</event>
<event>
 6    0  0.3667994E+002  0.1071879E+03  0.7546771E-02  0.1265868E+00
          1   -1    0    0  504    0 -0.00000000000E+00  0.00000000000E+00  0.26284020704E+04  0.26284020704E+04  0.00000000000E+00 0. -1.
         21   -1    0    0  505  502  0.00000000000E+00 -0.00000000000E+00 -0.45570317342E+03  0.45570317342E+03  0.00000000000E+00 0. -1.
         21    1    1    2  503  502  0.11480919549E+03  0.35710577747E+02  0.30354553580E+03  0.32649087130E+03  0.00000000000E+00 0. -1.
         21    1    1    2  504  503 -0.92239331868E+02 -0.42821947504E+02  0.18167216850E+04  0.18195657433E+04  0.00000000000E+00 0. -1.
         21    1    1    2  505  501 -0.71963349380E+01 -0.42639014921E+02 -0.44037782050E+03  0.44249576000E+03  0.00000000000E+00 0. -1.
          1    1    1    2  501    0 -0.15373528687E+02  0.49750384678E+02  0.49280949668E+03  0.49555286920E+03  0.00000000000E+00 0. -1.
<scales pt_clust_3="14000.00000" pt_clust_4="107.18789" pt_clust_5="43.24203" pt_clust_6="48.39511"></scales>
<clustering>
<clus scale="   43.242">  2  5  1 -1</clus>
<clus scale="   48.395">  1  6  2 -1</clus>
<clus scale="  107.188">  1  4  2 -1</clus>
<clus scale="   43.242">  2  3  1 -1</clus>
</clustering>
</event>
<event>
 6    0  0.3667994E+002  0.1204906E+03  0.7546771E-02  0.1242290E+00
          2   -1    0    0  504    0 -0.00000000000E+00  0.00000000000E+00  0.28348943193E+04  0.28348943193E+04  0.00000000000E+00 0. -1.
         21   -1    0    0  505  502  0.00000000000E+00 -0.00000000000E+00 -0.32129148678E+03  0.32129148678E+03  0.00000000000E+00 0.  1.
         21    1    1    2  503  502  0.10915165671E+02 -0.58270049347E+02 -0.30314298885E+03  0.30888543375E+03  0.00000000000E+00 0.  1.
         21    1    1    2  504  503  0.33109681858E+02 -0.45236107324E+02  0.11195166374E+03  0.12520276136E+03  0.00000000000E+00 0. -1.
         21    1    1    2  505  501 -0.12385090160E+02 -0.86044731816E+02  0.40164794512E+03  0.41094787765E+03  0.00000000000E+00 0. -1.
          2    1    1    2  501    0 -0.31639757369E+02  0.18955088849E+03  0.23031462125E+04  0.23111497333E+04  0.00000000000E+00 0. -1.
<scales pt_clust_3="59.33700" pt_clust_4="56.05851" pt_clust_5="120.49055" pt_clust_6="14000.00000"></scales>
<clustering>
<clus scale="   56.059">  1  4  2 -1</clus>
<clus scale="   59.337">  2  3  1 -1</clus>
<clus scale="  120.491">  2  5  1 -1</clus>
<clus scale="   59.337">  2  3  1 -1</clus>
</clustering>
</event>
<event>
 6    0  0.3667994E+002  0.8355179E+02  0.7546771E-02  0.1319264E+00
          2   -1    0    0  503    0 -0.00000000000E+00  0.00000000000E+00  0.17383355208E+04  0.17383355208E+04  0.00000000000E+00 0.  1.
         21   -1    0    0  504  502  0.00000000000E+00 -0.00000000000E+00 -0.11989879484E+02  0.11989879484E+02  0.00000000000E+00 0.  1.
         21    1    1    2  503  505 -0.27472168145E+01 -0.34446910045E+02  0.52728944012E+03  0.52842056213E+03  0.00000000000E+00 0.  1.
         21    1    1    2  504  501  0.78782431907E+02 -0.31670631681E+02  0.53258813003E+03  0.53931420966E+03  0.00000000000E+00 0.  1.
         21    1    1    2  505  502 -0.83247602102E+02  0.99597457188E+01  0.28956360320E+03  0.30145719446E+03  0.00000000000E+00 0.  1.
          2    1    1    2  501    0  0.72123870100E+01  0.56157796007E+02  0.37690446801E+03  0.38113343409E+03  0.00000000000E+00 0.  1.
<scales pt_clust_3="34.55628" pt_clust_4="83.55179" pt_clust_5="14000.00000" pt_clust_6="45.81447"></scales>
<clustering>
<clus scale="   34.556">  1  3  2 -1</clus>
<clus scale="   45.814">  1  6  2 -1</clus>
<clus scale="   83.552">  1  4  2 -1</clus>
<clus scale="   83.552">  2  3  1 -1</clus>
</clustering>
</event>
<event>
 6    0  0.3667994E+002  0.8378021E+02  0.7546771E-02  0.1318654E+00
          2   -1    0    0  503    0 -0.00000000000E+00  0.00000000000E+00  0.24556715656E+04  0.24556715656E+04  0.00000000000E+00 0.  1.
         21   -1    0    0  505  502  0.00000000000E+00 -0.00000000000E+00 -0.23918018596E+02  0.23918018596E+02  0.00000000000E+00 0.  1.
         21    1    1    2  503  504 -0.65752023336E+02 -0.44208275725E+02  0.11898703163E+04  0.11925053751E+04  0.00000000000E+00 0.  1.
         21    1    1    2  504  502  0.41290340041E+02 -0.64037863582E+01  0.11027810003E+02  0.43214734222E+02  0.00000000000E+00 0.  1.
         21    1    1    2  505  501 -0.73365749852E+02  0.28764927359E+02  0.49985688778E+03  0.50603049568E+03  0.00000000000E+00 0.  1.
          2    1    1    2  501    0  0.97827433148E+02  0.21847134725E+02  0.73099853292E+03  0.73783897912E+03  0.00000000000E+00 0.  1.
<scales pt_clust_3="14000.00000" pt_clust_4="41.78398" pt_clust_5="62.81884" pt_clust_6="83.78021"></scales>
<clustering>
<clus scale="   41.784">  2  4  1 -1</clus>
<clus scale="   62.819">  2  5  1 -1</clus>
<clus scale="   83.780">  2  6  1 -1</clus>
<clus scale="   41.784">  2  3  1 -1</clus>
</clustering>
</event>
<event>
 6    0  0.3667994E+002  0.1341243E+03  0.7546771E-02  0.1221461E+00
          2   -1    0    0  505    0 -0.00000000000E+00  0.00000000000E+00  0.84533390954E+03  0.84533390954E+03  0.00000000000E+00 0. -1.
         21   -1    0    0  504  502  0.00000000000E+00 -0.00000000000E+00 -0.51831625469E+02  0.51831625469E+02  0.00000000000E+00 0. -1.
         21    1    1    2  503  502  0.41014733279E+02 -0.92083754000E+01 -0.39673354788E+01  0.42222532779E+02  0.00000000000E+00 0. -1.
         21    1    1    2  504  501 -0.62556618951E+02 -0.11686422603E+02  0.67984139390E+02  0.93122211403E+02  0.00000000000E+00 0. -1.
         21    1    1    2  505  503  0.10161396614E+03  0.59691254577E+02  0.53680051877E+03  0.54958460762E+03  0.00000000000E+00 0. -1.
          2    1    1    2  501    0 -0.80072080471E+02 -0.38796456574E+02  0.19268496139E+03  0.21223618320E+03  0.00000000000E+00 0. -1.
<scales pt_clust_3="42.03573" pt_clust_4="41.46517" pt_clust_5="124.84156" pt_clust_6="41.46517"></scales>
<clustering>
<clus scale="   41.465">  4  6 -1 -1</clus>
<clus scale="   42.036">  2  3  1 -1</clus>
<clus scale="  124.842">  1  5  2 -1</clus>
<clus scale="   42.036">  2  3  1 -1</clus>
</clustering>
</event>
<event>
 6    0  0.3667994E+002  0.1530763E+03  0.7546771E-02  0.1196743E+00
         21   -1    0    0  501  502  0.00000000000E+00  0.00000000000E+00  0.43883419439E+02  0.43883419439E+02  0.00000000000E+00 0.  1.
          2   -1    0    0  503    0 -0.00000000000E+00 -0.00000000000E+00 -0.10594674454E+04  0.10594674454E+04  0.00000000000E+00 0.  1.
         21    1    1    2  503  504 -0.17463898220E+02  0.31439099254E+02 -0.19579849148E+03  0.19907399119E+03  0.00000000000E+00 0.  1.
         21    1    1    2  504  505 -0.19940685252E+02 -0.36184188001E+02 -0.27497856365E+03  0.27806498675E+03  0.00000000000E+00 0.  1.
         21    1    1    2  505  502  0.15301343272E+03 -0.72421469046E+02 -0.28195888300E+03  0.32887503930E+03  0.00000000000E+00 0.  1.
          2    1    1    2  501    0 -0.11560884925E+03  0.77166557793E+02 -0.26284808787E+03  0.29733684764E+03  0.00000000000E+00 0.  1.
<scales pt_clust_3="35.96394" pt_clust_4="36.51847" pt_clust_5="14000.00000" pt_clust_6="153.07629"></scales>
<clustering>
<clus scale="   35.964">  2  3  1 -1</clus>
<clus scale="   36.518">  2  4  1 -1</clus>
<clus scale="  153.076">  1  6  2 -1</clus>
<clus scale="  153.076">  1  3  2 -1</clus>
</clustering>
</event>
<event>
 6    0  0.3667994E+002  0.1828755E+03  0.7546771E-02  0.1165049E+00
          2   -1    0    0  503    0 -0.00000000000E+00  0.00000000000E+00  0.71318036077E+03  0.71318036077E+03  0.00000000000E+00 0. -1.
         21   -1    0    0  505  502  0.00000000000E+00 -0.00000000000E+00 -0.82464451086E+03  0.82464451086E+03  0.00000000000E+00 0. -1.
         21    1    1    2  503  504 -0.28450918533E+02 -0.26175265583E+02  0.78628211378E+02  0.87618462199E+02  0.00000000000E+00 0.  1.
         21    1    1    2  504  502 -0.54957725529E+02  0.20441276793E+02  0.87114705399E+02  0.10501032944E+03  0.00000000000E+00 0. -1.
         21    1    1    2  505  501  0.17478158939E+03 -0.58781156164E+02 -0.79466883286E+03  0.81578329367E+03  0.00000000000E+00 0. -1.
          2    1    1    2  501    0 -0.91372945324E+02  0.64515144954E+02  0.51746176599E+03  0.52941278632E+03  0.00000000000E+00 0. -1.
<scales pt_clust_3="38.66005" pt_clust_4="61.53517" pt_clust_5="182.87551" pt_clust_6="14000.00000"></scales>
<clustering>
<clus scale="   38.660">  1  3  2 -1</clus>
<clus scale="   61.535">  1  4  2 -1</clus>
<clus scale="  182.876">  2  5  1 -1</clus>
<clus scale="  182.876">  2  3  1 -1</clus>
</clustering>
</event>
<event>
 6    0  0.3667994E+002  0.1014676E+03  0.7546771E-02  0.1277240E+00
         21   -1    0    0  505  502  0.00000000000E+00  0.00000000000E+00  0.47570746418E+02  0.47570746418E+02  0.00000000000E+00 0. -1.
          2   -1    0    0  504    0 -0.00000000000E+00 -0.00000000000E+00 -0.88633619311E+03  0.88633619311E+03  0.00000000000E+00 0.  1.
         21    1    1    2  503  502  0.12312973554E+02 -0.94250161436E+02 -0.16815975933E+03  0.19316419675E+03  0.00000000000E+00 0. -1.
         21    1    1    2  504  503  0.39051776336E+02  0.86509273273E+01 -0.26126602484E+03  0.26431007456E+03  0.00000000000E+00 0.  1.
         21    1    1    2  505  501  0.36004137847E+02  0.22461150180E+01  0.12088837312E+02  0.38045800850E+02  0.00000000000E+00 0. -1.
          2    1    1    2  501    0 -0.87368887737E+02  0.83353119091E+02 -0.42142849984E+03  0.43838686738E+03  0.00000000000E+00 0.  1.
<scales pt_clust_3="14000.00000" pt_clust_4="42.41055" pt_clust_5="36.07413" pt_clust_6="101.46764"></scales>
<clustering>
<clus scale="   36.074">  1  5  2 -1</clus>
<clus scale="   42.411">  2  4  1 -1</clus>
<clus scale="  101.468">  2  6  1 -1</clus>
<clus scale="   36.074">  1  3  2 -1</clus>
</clustering>
</event>
<event>
 6    0  0.3667994E+002  0.1030122E+03  0.7546771E-02  0.1274086E+00
         21   -1    0    0  504  502  0.00000000000E+00  0.00000000000E+00  0.96977344146E+02  0.96977344146E+02  0.00000000000E+00 0. -1.
         -3   -1    0    0    0  501 -0.00000000000E+00 -0.00000000000E+00 -0.12681591494E+04  0.12681591494E+04  0.00000000000E+00 0.  1.
         21    1    1    2  503  505 -0.91738405841E+02  0.84512482493E+02 -0.67679925585E+03  0.68819730276E+03  0.00000000000E+00 0.  1.
         21    1    1    2  504  501  0.83341840487E+02  0.76341148920E+01 -0.14488372448E+03  0.16731836631E+03  0.00000000000E+00 0. -1.
         21    1    1    2  505  502  0.54354097510E+02 -0.10510460267E+02  0.64588837423E+02  0.85067947023E+02  0.00000000000E+00 0. -1.
         -3    1    1    2    0  503 -0.45957532156E+02 -0.81636137118E+02 -0.41408766232E+03  0.42455287743E+03  0.00000000000E+00 0.  1.
<scales pt_clust_3="103.01216" pt_clust_4="14000.00000" pt_clust_5="55.36098" pt_clust_6="90.40324"></scales>
<clustering>
<clus scale="   55.361">  1  5  2 -1</clus>
<clus scale="   90.403">  2  6  1 -1</clus>
<clus scale="  103.012">  2  3  1 -1</clus>
<clus scale="   55.361">  1  3  2 -1</clus>
</clustering>
</event>
<event>
 6    0  0.3667994E+002  0.1340545E+03  0.7546771E-02  0.1221561E+00
          1   -1    0    0  503    0 -0.00000000000E+00  0.00000000000E+00  0.22294911133E+03  0.22294911133E+03  0.00000000000E+00 0. -1.
         21   -1    0    0  505  502  0.00000000000E+00 -0.00000000000E+00 -0.35161023848E+03  0.35161023848E+03  0.00000000000E+00 0. -1.
         21    1    1    2  503  504 -0.37194012562E+02  0.15075718473E+02  0.42031709774E+02  0.58114855970E+02  0.00000000000E+00 0. -1.
         21    1    1    2  504  502 -0.58980925515E+02 -0.23060358972E+02  0.17339549058E+02  0.65659650411E+02  0.00000000000E+00 0. -1.
         21    1    1    2  505  501  0.12847172369E+03 -0.49704160740E+00 -0.30403895302E+03  0.33006804722E+03  0.00000000000E+00 0. -1.
          1    1    1    2  501    0 -0.32296785609E+02  0.84816821057E+01  0.11600656704E+03  0.12071679622E+03  0.00000000000E+00 0. -1.
<scales pt_clust_3="43.21675" pt_clust_4="43.21675" pt_clust_5="124.45406" pt_clust_6="33.39193"></scales>
<clustering>
<clus scale="   33.392">  1  6  2 -1</clus>
<clus scale="   43.217">  3  4 -1 -1</clus>
<clus scale="  124.454">  2  5  1 -1</clus>
<clus scale="  124.454">  2  3  1 -1</clus>
</clustering>
</event>
<event>
 6    0  0.3667994E+002  0.7360387E+02  0.7546771E-02  0.1348250E+00
         21   -1    0    0  501  502  0.00000000000E+00  0.00000000000E+00  0.91998557422E+02  0.91998557422E+02  0.00000000000E+00 0. -1.
          1   -1    0    0  503    0 -0.00000000000E+00 -0.00000000000E+00 -0.43878859556E+03  0.43878859556E+03  0.00000000000E+00 0. -1.
         21    1    1    2  503  504 -0.36836967089E+02  0.12815398286E+01 -0.22656207326E+03  0.22954079708E+03  0.00000000000E+00 0. -1.
         21    1    1    2  504  505 -0.14583043486E+02 -0.59690867003E+02 -0.10851248260E+03  0.12470213968E+03  0.00000000000E+00 0. -1.
         21    1    1    2  505  502 -0.27722548126E+02  0.77525652157E+02  0.26650455682E+02  0.86539084840E+02  0.00000000000E+00 0. -1.
          1    1    1    2  501    0  0.79142558701E+02 -0.19116324983E+02 -0.38365937970E+02  0.90005131381E+02  0.00000000000E+00 0. -1.
<scales pt_clust_3="36.85925" pt_clust_4="68.56729" pt_clust_5="73.60387" pt_clust_6="14000.00000"></scales>
<clustering>
<clus scale="   36.859">  2  3  1 -1</clus>
<clus scale="   68.567">  2  4  1 -1</clus>
<clus scale="   73.604">  1  5  2 -1</clus>
<clus scale="   73.604">  1  3  2 -1</clus>
</clustering>
</event>
<event>
 6    0  0.3667994E+002  0.9776867E+02  0.7546771E-02  0.1285059E+00
         21   -1    0    0  503  502  0.00000000000E+00  0.00000000000E+00  0.29567837986E+03  0.29567837986E+03  0.00000000000E+00 0. -1.
          4   -1    0    0  504    0 -0.00000000000E+00 -0.00000000000E+00 -0.44394401244E+03  0.44394401244E+03  0.00000000000E+00 0.  1.
         21    1    1    2  503  501  0.26081631555E+02 -0.60170277652E+02 -0.11315029773E+03  0.13078112897E+03  0.00000000000E+00 0.  1.
         21    1    1    2  504  505 -0.66051007595E+02  0.71509615939E+00 -0.87409564222E+02  0.10956130195E+03  0.00000000000E+00 0. -1.
         21    1    1    2  505  502  0.60204191046E+02  0.84288729138E+02  0.26481833594E+03  0.28435521013E+03  0.00000000000E+00 0. -1.
          4    1    1    2  501    0 -0.20234815006E+02 -0.24833547645E+02 -0.21252410657E+03  0.21492475125E+03  0.00000000000E+00 0.  1.
<scales pt_clust_3="74.91842" pt_clust_4="97.76867" pt_clust_5="14000.00000" pt_clust_6="32.03362"></scales>
<clustering>
<clus scale="   32.034">  2  6  1 -1</clus>
<clus scale="   74.918">  2  3  1 -1</clus>
<clus scale="   97.769">  2  4  1 -1</clus>
<clus scale="   97.769">  1  3  2 -1</clus>
</clustering>
</event>
<event>
 6    0  0.3667994E+002  0.1137804E+03  0.7546771E-02  0.1253725E+00
         21   -1    0    0  505  502  0.00000000000E+00  0.00000000000E+00  0.27583997531E+03  0.27583997531E+03  0.00000000000E+00 0.  1.
          1   -1    0    0  503    0 -0.00000000000E+00 -0.00000000000E+00 -0.87516605545E+03  0.87516605545E+03  0.00000000000E+00 0.  1.
         21    1    1    2  503  502  0.69633035007E+02 -0.28163390958E+01 -0.24195219217E+03  0.25178871028E+03  0.00000000000E+00 0. -1.
         21    1    1    2  504  501  0.15302355453E+02 -0.10416160096E+03 -0.25677498631E+02  0.10836574705E+03  0.00000000000E+00 0.  1.
         21    1    1    2  505  504  0.56009263772E+02  0.15864827881E+02  0.21303860098E+03  0.22084876251E+03  0.00000000000E+00 0.  1.
          1    1    1    2  501    0 -0.14094465423E+03  0.91113112179E+02 -0.54473499033E+03  0.57000281092E+03  0.00000000000E+00 0.  1.
<scales pt_clust_3="74.32517" pt_clust_4="14000.00000" pt_clust_5="58.21280" pt_clust_6="113.78038"></scales>
<clustering>
<clus scale="   58.213">  1  5  2 -1</clus>
<clus scale="   74.325">  2  3  1 -1</clus>
<clus scale="  113.780">  2  6  1 -1</clus>
<clus scale="   58.213">  1  3  2 -1</clus>
</clustering>
</event>
<event>
 6    0  0.3667994E+002  0.1196886E+03  0.7546771E-02  0.1243612E+00
          2   -1    0    0  504    0 -0.00000000000E+00  0.00000000000E+00  0.32930806620E+04  0.32930806620E+04  0.00000000000E+00 0. -1.
         21   -1    0    0  501  502  0.00000000000E+00 -0.00000000000E+00 -0.20559843800E+03  0.20559843800E+03  0.00000000000E+00 0.  1.
         21    1    1    2  503  502  0.28730163607E+02  0.11629462611E+03 -0.18119570450E+03  0.21721359463E+03  0.00000000000E+00 0.  1.
         21    1    1    2  504  505 -0.12328329238E+02  0.27680482561E+02  0.19255414152E+03  0.19492381648E+03  0.00000000000E+00 0.  1.
         21    1    1    2  505  503  0.33458757213E+01 -0.42962306633E+02  0.10318444071E+03  0.11182121212E+03  0.00000000000E+00 0. -1.
          2    1    1    2  501    0 -0.19747710090E+02 -0.10101280203E+03  0.29729393463E+04  0.29747204768E+04  0.00000000000E+00 0. -1.
<scales pt_clust_3="14000.00000" pt_clust_4="30.30176" pt_clust_5="42.10345" pt_clust_6="119.68865"></scales>
<clustering>
<clus scale="   30.302">  1  4  2 -1</clus>
<clus scale="   42.103">  1  5  2 -1</clus>
<clus scale="  119.689">  1  6  2 -1</clus>
<clus scale="  119.689">  2  3  1 -1</clus>
</clustering>
</event>
<event>
 6    0  0.3667994E+002  0.1276411E+03  0.7546771E-02  0.1230999E+00
         21   -1    0    0  504  502  0.00000000000E+00  0.00000000000E+00  0.25957759042E+02  0.25957759042E+02  0.00000000000E+00 0.  1.
         -1   -1    0    0    0  501 -0.00000000000E+00 -0.00000000000E+00 -0.15632613267E+04  0.15632613267E+04  0.00000000000E+00 0. -1.
         21    1    1    2  503  505 -0.88832579063E+01 -0.43309110646E+02 -0.27662931326E+03  0.28013990842E+03  0.00000000000E+00 0.  1.
         21    1    1    2  504  501  0.20281631962E+02  0.40853413462E+02 -0.12061001696E+03  0.12894619878E+03  0.00000000000E+00 0. -1.
         21    1    1    2  505  502 -0.29069682223E+02  0.81705495494E+02 -0.83282254955E+02  0.12023630237E+03  0.00000000000E+00 0.  1.
         -1    1    1    2    0  503  0.17671308167E+02 -0.79249798309E+02 -0.10567819824E+04  0.10598966761E+04  0.00000000000E+00 0. -1.
<scales pt_clust_3="37.72997" pt_clust_4="45.61081" pt_clust_5="116.95211" pt_clust_6="37.72997"></scales>
<clustering>
<clus scale="   37.730">  3  6 -1 -1</clus>
<clus scale="   45.611">  1  4  2 -1</clus>
<clus scale="  116.952">  1  5  2 -1</clus>
<clus scale="   45.611">  1  3  2 -1</clus>
</clustering>
</event>
<event>
 6    0  0.3667994E+002  0.1074651E+03  0.7546771E-02  0.1265337E+00
          2   -1    0    0  505    0 -0.00000000000E+00  0.00000000000E+00  0.42943291411E+04  0.42943291411E+04  0.00000000000E+00 0. -1.
         21   -1    0    0  503  502  0.00000000000E+00 -0.00000000000E+00 -0.14695613422E+02  0.14695613422E+02  0.00000000000E+00 0. -1.
         21    1    1    2  503  504 -0.12801956823E+02 -0.27287225601E+02  0.26599352172E+02  0.40199605912E+02  0.00000000000E+00 0. -1.
         21    1    1    2  504  501 -0.11126301914E+02 -0.83814420401E+02  0.50715480000E+03  0.51415429865E+03  0.00000000000E+00 0. -1.
         21    1    1    2  505  502  0.83753545989E+02 -0.41023397781E+02  0.14009852478E+04  0.14040859091E+04  0.00000000000E+00 0. -1.
          2    1    1    2  501    0 -0.59825287252E+02  0.15212504378E+03  0.23448941277E+04  0.23505849408E+04  0.00000000000E+00 0. -1.
<scales pt_clust_3="30.14105" pt_clust_4="14000.00000" pt_clust_5="93.54753" pt_clust_6="107.46511"></scales>
<clustering>
<clus scale="   30.141">  2  3  1 -1</clus>
<clus scale="   93.548">  1  5  2 -1</clus>
<clus scale="  107.465">  1  6  2 -1</clus>
<clus scale="   30.141">  2  3  1 -1</clus>
</clustering>
</event>
<event>
 6    0  0.3667994E+002  0.1305256E+03  0.7546771E-02  0.1226678E+00
          2   -1    0    0  503    0 -0.00000000000E+00  0.00000000000E+00  0.70208104595E+03  0.70208104595E+03  0.00000000000E+00 0.  1.
         21   -1    0    0  504  502  0.00000000000E+00 -0.00000000000E+00 -0.92731544749E+02  0.92731544749E+02  0.00000000000E+00 0. -1.
         21    1    1    2  503  505 -0.18266048988E+02  0.60670581613E+02  0.39751419644E+03  0.40253211597E+03  0.00000000000E+00 0.  1.
         21    1    1    2  504  501  0.40673536627E+02 -0.56137745041E+02  0.62545169002E+02  0.93368523419E+02  0.00000000000E+00 0.  1.
         21    1    1    2  505  502 -0.10208800225E+03  0.51330616375E+02 -0.73530154553E+01  0.11450266031E+03  0.00000000000E+00 0. -1.
          2    1    1    2  501    0  0.79680514613E+02 -0.55863452947E+02  0.15664315122E+03  0.18440929100E+03  0.00000000000E+00 0.  1.
<scales pt_clust_3="63.36062" pt_clust_4="38.56412" pt_clust_5="122.26732" pt_clust_6="38.56412"></scales>
<clustering>
<clus scale="   38.564">  4  6 -1 -1</clus>
<clus scale="   63.361">  1  3  2 -1</clus>
<clus scale="  122.267">  2  5  1 -1</clus>
<clus scale="  122.267">  2  3  1 -1</clus>
</clustering>
</event>
<event>
 6    0  0.3667994E+002  0.1087387E+03  0.7546771E-02  0.1262924E+00
         21   -1    0    0  505  502  0.00000000000E+00  0.00000000000E+00  0.11026560363E+03  0.11026560363E+03  0.00000000000E+00 0. -1.
          2   -1    0    0  504    0 -0.00000000000E+00 -0.00000000000E+00 -0.11446856542E+04  0.11446856542E+04  0.00000000000E+00 0.  1.
         21    1    1    2  503  502  0.76499032198E+02 -0.61043113211E+02 -0.37746690800E+03  0.38994824045E+03  0.00000000000E+00 0. -1.
         21    1    1    2  504  503  0.12531984548E+02  0.27571357356E+02 -0.30380104203E+03  0.30530690054E+03  0.00000000000E+00 0. -1.
         21    1    1    2  505  501  0.40196559886E+02  0.53027242300E+01  0.89206403479E+02  0.97988084646E+02  0.00000000000E+00 0. -1.
          2    1    1    2  501    0 -0.12922757663E+03  0.28169031624E+02 -0.44235850399E+03  0.46170803215E+03  0.00000000000E+00 0.  1.
<scales pt_clust_3="108.73874" pt_clust_4="30.28581" pt_clust_5="40.62882" pt_clust_6="14000.00000"></scales>
<clustering>
<clus scale="   30.286">  2  4  1 -1</clus>
<clus scale="   40.629">  1  5  2 -1</clus>
<clus scale="  108.739">  2  3  1 -1</clus>
<clus scale="   40.629">  1  3  2 -1</clus>
</clustering>
</event>
<event>
 6    0  0.3667994E+002  0.1107651E+03  0.7546771E-02  0.1259160E+00
         21   -1    0    0  501  502  0.00000000000E+00  0.00000000000E+00  0.12137647827E+03  0.12137647827E+03  0.00000000000E+00 0.  1.
          4   -1    0    0  504    0 -0.00000000000E+00 -0.00000000000E+00 -0.17225274336E+04  0.17225274336E+04  0.00000000000E+00 0. -1.
         21    1    1    2  503  502 -0.21358669581E+02  0.23440255470E+02  0.10572079785E+03  0.11037447821E+03  0.00000000000E+00 0.  1.
         21    1    1    2  504  505 -0.13681834481E+02  0.37391470016E+02 -0.28555298364E+03  0.28831548881E+03  0.00000000000E+00 0. -1.
         21    1    1    2  505  503  0.79582667442E+02  0.66929285102E+02 -0.34232485535E+03  0.35776980972E+03  0.00000000000E+00 0. -1.
          4    1    1    2  501    0 -0.44542163379E+02 -0.12776101059E+03 -0.10789939142E+04  0.10874441351E+04  0.00000000000E+00 0. -1.
<scales pt_clust_3="31.71180" pt_clust_4="42.87580" pt_clust_5="110.76511" pt_clust_6="14000.00000"></scales>
<clustering>
<clus scale="   31.712">  1  3  2 -1</clus>
<clus scale="   42.876">  2  4  1 -1</clus>
<clus scale="  110.765">  1  5  2 -1</clus>
<clus scale="   31.712">  1  3  2 -1</clus>
</clustering>
</event>
<event>
 6    0  0.3667994E+002  0.1221035E+03  0.7546771E-02  0.1239667E+00
          2   -1    0    0  505    0 -0.00000000000E+00  0.00000000000E+00  0.15030198844E+04  0.15030198844E+04  0.00000000000E+00 0. -1.
         21   -1    0    0  504  502  0.00000000000E+00 -0.00000000000E+00 -0.16091770370E+02  0.16091770370E+02  0.00000000000E+00 0. -1.
         21    1    1    2  503  501  0.17937143418E+02  0.33733210810E+02  0.12243648747E+03  0.12825897274E+03  0.00000000000E+00 0. -1.
         21    1    1    2  504  503 -0.19825029030E+02  0.39403857774E+02  0.77056922136E+02  0.88788878991E+02  0.00000000000E+00 0. -1.
         21    1    1    2  505  502 -0.25112759436E+02 -0.12906245425E+03  0.80891367488E+03  0.81952980494E+03  0.00000000000E+00 0. -1.
          2    1    1    2  501    0  0.27000645049E+02  0.55925385669E+02  0.47852102952E+03  0.48253399806E+03  0.00000000000E+00 0. -1.
<scales pt_clust_3="33.82768" pt_clust_4="44.11004" pt_clust_5="114.23317" pt_clust_6="33.82768"></scales>
<clustering>
<clus scale="   33.828">  3  6 -1 -1</clus>
<clus scale="   44.110">  2  4  1 -1</clus>
<clus scale="  114.233">  2  5  1 -1</clus>
<clus scale="   44.110">  2  3  1 -1</clus>
</clustering>
</event>
<event>
 6    0  0.3667994E+002  0.2134153E+03  0.7546771E-02  0.1138890E+00
          1   -1    0    0  503    0 -0.00000000000E+00  0.00000000000E+00  0.16248216817E+04  0.16248216817E+04  0.00000000000E+00 0. -1.
         21   -1    0    0  501  502  0.00000000000E+00 -0.00000000000E+00 -0.21065341552E+03  0.21065341552E+03  0.00000000000E+00 0.  1.
         21    1    1    2  503  505 -0.46705181250E+02  0.69399494905E+01  0.71515985322E+03  0.71671692634E+03  0.00000000000E+00 0. -1.
         21    1    1    2  504  502  0.18597237434E+03  0.14057235305E+03 -0.10692728733E+03  0.25647564258E+03  0.00000000000E+00 0.  1.
         21    1    1    2  505  504 -0.15349954027E+03 -0.14861454864E+02  0.27969186582E+03  0.31939084444E+03  0.00000000000E+00 0. -1.
          1    1    1    2  501    0  0.14232347183E+02 -0.13265084767E+03  0.52624383447E+03  0.54289168386E+03  0.00000000000E+00 0. -1.
<scales pt_clust_3="47.21797" pt_clust_4="213.41526" pt_clust_5="14000.00000" pt_clust_6="129.24875"></scales>
<clustering>
<clus scale="   47.218">  1  3  2 -1</clus>
<clus scale="  129.249">  1  6  2 -1</clus>
<clus scale="  213.415">  2  4  1 -1</clus>
<clus scale="  213.415">  2  3  1 -1</clus>
</clustering>
</event>
<event>
 6    0  0.3667994E+002  0.2886428E+03  0.7546771E-02  0.1091060E+00
          1   -1    0    0  503    0 -0.00000000000E+00  0.00000000000E+00  0.11323260720E+04  0.11323260720E+04  0.00000000000E+00 0. -1.
         21   -1    0    0  501  502  0.00000000000E+00 -0.00000000000E+00 -0.67342577334E+03  0.67342577334E+03  0.00000000000E+00 0.  1.
         21    1    1    2  503  504 -0.80730867010E+01 -0.31271947164E+02  0.16244355907E+03  0.16562312427E+03  0.00000000000E+00 0.  1.
         21    1    1    2  504  505  0.19323485176E+03 -0.27504949044E+03 -0.92207969596E+02  0.34856023838E+03  0.00000000000E+00 0.  1.
         21    1    1    2  505  502 -0.58277371491E+02  0.29809227332E+02 -0.42129789728E+03  0.42635285892E+03  0.00000000000E+00 0.  1.
          1    1    1    2  501    0 -0.12688439357E+03  0.27651221027E+03  0.80996260648E+03  0.86521562379E+03  0.00000000000E+00 0. -1.
<scales pt_clust_3="32.29720" pt_clust_4="288.64283" pt_clust_5="65.44035" pt_clust_6="14000.00000"></scales>
<clustering>
<clus scale="   32.297">  1  3  2 -1</clus>
<clus scale="   65.440">  2  5  1 -1</clus>
<clus scale="  288.643">  2  4  1 -1</clus>
<clus scale="   65.440">  2  3  1 -1</clus>
</clustering>
</event>
<event>
 6    0  0.3667994E+002  0.1828509E+03  0.7546771E-02  0.1165072E+00
          2   -1    0    0  505    0 -0.00000000000E+00  0.00000000000E+00  0.53982519235E+03  0.53982519235E+03  0.00000000000E+00 0. -1.
         21   -1    0    0  501  502  0.00000000000E+00 -0.00000000000E+00 -0.10795678458E+04  0.10795678458E+04  0.00000000000E+00 0. -1.
         21    1    1    2  503  504 -0.48894084899E+02  0.53231284938E+02  0.27866398724E+02  0.77464426753E+02  0.00000000000E+00 0. -1.
         21    1    1    2  504  502  0.16661889942E+03 -0.81878974583E+02 -0.10342221027E+04  0.10507527691E+04  0.00000000000E+00 0. -1.
         21    1    1    2  505  503 -0.31242140187E+02 -0.24279623830E+02  0.23548219159E+03  0.23878323646E+03  0.00000000000E+00 0. -1.
          2    1    1    2  501    0 -0.86482674337E+02  0.52927313475E+02  0.23113085898E+03  0.25239260577E+03  0.00000000000E+00 0. -1.
<scales pt_clust_3="73.16701" pt_clust_4="182.85087" pt_clust_5="39.56730" pt_clust_6="14000.00000"></scales>
<clustering>
<clus scale="   39.567">  1  5  2 -1</clus>
<clus scale="   73.167">  1  3  2 -1</clus>
<clus scale="  182.851">  2  4  1 -1</clus>
<clus scale="  182.851">  2  3  1 -1</clus>
</clustering>
</event>
<event>
 6    0  0.3667994E+002  0.2424885E+03  0.7546771E-02  0.1118146E+00
          2   -1    0    0  505    0 -0.00000000000E+00  0.00000000000E+00  0.38638375939E+03  0.38638375939E+03  0.00000000000E+00 0. -1.
         21   -1    0    0  504  502  0.00000000000E+00 -0.00000000000E+00 -0.31304644663E+03  0.31304644663E+03  0.00000000000E+00 0. -1.
         21    1    1    2  503  502  0.13610213802E+03 -0.20444996197E+03 -0.14886693431E+03  0.28720192035E+03  0.00000000000E+00 0. -1.
         21    1    1    2  504  501 -0.35547961475E+02  0.88921167612E+01 -0.12054692044E+02  0.38575159180E+02  0.00000000000E+00 0. -1.
         21    1    1    2  505  503  0.30881281612E+02  0.75700513378E+02  0.16237859939E+03  0.18179942469E+03  0.00000000000E+00 0.  1.
          2    1    1    2  501    0 -0.13143545816E+03  0.11985733183E+03  0.71880339723E+02  0.19185370180E+03  0.00000000000E+00 0. -1.
<scales pt_clust_3="231.82362" pt_clust_4="32.28076" pt_clust_5="81.75709" pt_clust_6="32.28076"></scales>
<clustering>
<clus scale="   32.281">  4  6 -1 -1</clus>
<clus scale="   81.757">  1  5  2 -1</clus>
<clus scale="  231.824">  2  3  1 -1</clus>
<clus scale="  231.824">  2  3  1 -1</clus>
</clustering>
</event>
<event>
 6    0  0.3667994E+002  0.8126740E+02  0.7546771E-02  0.1325493E+00
         21   -1    0    0  503  502  0.00000000000E+00  0.00000000000E+00  0.12783802053E+04  0.12783802053E+04  0.00000000000E+00 0.  1.
         -1   -1    0    0    0  501 -0.00000000000E+00 -0.00000000000E+00 -0.26846447820E+03  0.26846447820E+03  0.00000000000E+00 0.  1.
         21    1    1    2  503  504  0.66712861637E+02 -0.46498055420E+02  0.12300710724E+04  0.12327560660E+04  0.00000000000E+00 0.  1.
         21    1    1    2  504  505 -0.54780824075E+02 -0.13731836054E+02 -0.48212171984E+02  0.74255744122E+02  0.00000000000E+00 0.  1.
         21    1    1    2  505  501  0.14892604672E+01 -0.51488722737E+02 -0.33568839532E+02  0.61483115189E+02  0.00000000000E+00 0.  1.
         -1    1    1    2    0  502 -0.13421298029E+02  0.11171861421E+03 -0.13837433379E+03  0.17834975821E+03  0.00000000000E+00 0.  1.
<scales pt_clust_3="81.26740" pt_clust_4="61.15559" pt_clust_5="51.51026" pt_clust_6="14000.00000"></scales>
<clustering>
<clus scale="   51.510">  2  5  1 -1</clus>
<clus scale="   61.156">  2  4  1 -1</clus>
<clus scale="   81.267">  1  3  2 -1</clus>
<clus scale="   81.267">  1  3  2 -1</clus>
</clustering>
</event>
<event>
 6    0  0.3667994E+002  0.1180036E+03  0.7546771E-02  0.1246427E+00
          1   -1    0    0  503    0 -0.00000000000E+00  0.00000000000E+00  0.13921025639E+04  0.13921025639E+04  0.00000000000E+00 0.  1.
         21   -1    0    0  505  502  0.00000000000E+00 -0.00000000000E+00 -0.10226920186E+03  0.10226920186E+03  0.00000000000E+00 0.  1.
         21    1    1    2  503  504  0.16707606590E+02 -0.42213718864E+02  0.34331326338E+03  0.34630209210E+03  0.00000000000E+00 0.  1.
         21    1    1    2  504  502  0.83682780543E+02  0.18762908098E+01  0.48537507125E+03  0.49253963091E+03  0.00000000000E+00 0.  1.
         21    1    1    2  505  501 -0.12063231086E+03 -0.25908196611E+01 -0.58240393976E+02  0.13398063390E+03  0.00000000000E+00 0.  1.
          1    1    1    2  501    0  0.20241923731E+02  0.42928247715E+02  0.51938542135E+03  0.52154940882E+03  0.00000000000E+00 0.  1.
<scales pt_clust_3="45.39980" pt_clust_4="118.00358" pt_clust_5="14000.00000" pt_clust_6="36.00834"></scales>
<clustering>
<clus scale="   45.400">  1  3  2 -1</clus>
<clus scale="   36.008">  1  6  2 -1</clus>
<clus scale="  118.004">  1  4  2 -1</clus>
<clus scale="  118.004">  2  3  1 -1</clus>
</clustering>
</event>
<event>
 6    0  0.3667994E+002  0.1220414E+03  0.7546771E-02  0.1239767E+00
          1   -1    0    0  504    0 -0.00000000000E+00  0.00000000000E+00  0.18804752022E+04  0.18804752022E+04  0.00000000000E+00 0.  1.
         21   -1    0    0  501  502  0.00000000000E+00 -0.00000000000E+00 -0.35798887641E+02  0.35798887641E+02  0.00000000000E+00 0.  1.
         21    1    1    2  503  505 -0.79334555149E+02 -0.13814712036E+02  0.57074214802E+02  0.98703008590E+02  0.00000000000E+00 0.  1.
         21    1    1    2  504  503 -0.87292638991E+02  0.94985647569E+01  0.41996975148E+03  0.42905106889E+03  0.00000000000E+00 0.  1.
         21    1    1    2  505  502  0.63363058078E+01 -0.37097497148E+02  0.62699443851E+02  0.73127240651E+02  0.00000000000E+00 0.  1.
          1    1    1    2  501    0  0.16029088833E+03  0.41413644428E+02  0.13049329044E+04  0.13153927717E+04  0.00000000000E+00 0.  1.
<scales pt_clust_3="84.58214" pt_clust_4="122.04135" pt_clust_5="37.63473" pt_clust_6="14000.00000"></scales>
<clustering>
<clus scale="   37.635">  2  5  1 -1</clus>
<clus scale="   84.582">  2  3  1 -1</clus>
<clus scale="  122.041">  1  4  2 -1</clus>
<clus scale="   37.635">  2  3  1 -1</clus>
</clustering>
</event>
<event>
 6    0  0.3667994E+002  0.1522308E+03  0.7546771E-02  0.1197758E+00
          2   -1    0    0  503    0 -0.00000000000E+00  0.00000000000E+00  0.17188114398E+04  0.17188114398E+04  0.00000000000E+00 0. -1.
         21   -1    0    0  504  502  0.00000000000E+00 -0.00000000000E+00 -0.18938492675E+03  0.18938492675E+03  0.00000000000E+00 0.  1.
         21    1    1    2  503  502 -0.18193680606E+03  0.10979839943E+03  0.12152601847E+04  0.12336993177E+04  0.00000000000E+00 0. -1.
         21    1    1    2  504  505  0.48977418540E+02 -0.29349577827E+02 -0.14373395993E+03  0.15465974422E+03  0.00000000000E+00 0.  1.
         21    1    1    2  505  501  0.72874952818E+02  0.13895187851E+02  0.34327072936E+02  0.81744620190E+02  0.00000000000E+00 0. -1.
          2    1    1    2  501    0  0.60084434697E+02 -0.94344009458E+02  0.42357321534E+03  0.43809268445E+03  0.00000000000E+00 0. -1.
<scales pt_clust_3="152.23080" pt_clust_4="57.09803" pt_clust_5="101.82639" pt_clust_6="14000.00000"></scales>
<clustering>
<clus scale="   57.098">  2  4  1 -1</clus>
<clus scale="  101.826">  2  5  1 -1</clus>
<clus scale="  152.231">  2  3  1 -1</clus>
<clus scale="   57.098">  2  3  1 -1</clus>
</clustering>
</event>
<event>
 6    0  0.3667994E+002  0.1281255E+03  0.7546771E-02  0.1230264E+00
         21   -1    0    0  503  502  0.00000000000E+00  0.00000000000E+00  0.67049892602E+03  0.67049892602E+03  0.00000000000E+00 0. -1.
          1   -1    0    0  502    0 -0.00000000000E+00 -0.00000000000E+00 -0.89735704373E+02  0.89735704373E+02  0.00000000000E+00 0. -1.
         21    1    1    2  503  505 -0.57448879287E+01  0.34980279311E+02  0.25091149519E+03  0.25340324011E+03  0.00000000000E+00 0. -1.
         21    1    1    2  504  501 -0.39818197345E+02 -0.86912011151E+01  0.96470721340E+01  0.41881879344E+02  0.00000000000E+00 0. -1.
         21    1    1    2  505  504  0.11030706210E+03  0.25032406998E+02  0.35701310764E+03  0.37450317539E+03  0.00000000000E+00 0. -1.
          1    1    1    2  501    0 -0.64743976824E+02 -0.51321485194E+02 -0.36808453325E+02  0.90446335546E+02  0.00000000000E+00 0. -1.
<scales pt_clust_3="35.44889" pt_clust_4="33.22856" pt_clust_5="119.07099" pt_clust_6="33.22856"></scales>
<clustering>
<clus scale="   33.229">  4  6 -1 -1</clus>
<clus scale="   35.449">  1  3  2 -1</clus>
<clus scale="  119.071">  1  5  2 -1</clus>
<clus scale="   35.449">  1  3  2 -1</clus>
</clustering>
</event>
<event>
 6    0  0.3667994E+002  0.1393196E+03  0.7546771E-02  0.1214247E+00
          2   -1    0    0  505    0 -0.00000000000E+00  0.00000000000E+00  0.25672252849E+04  0.25672252849E+04  0.00000000000E+00 0.  1.
         21   -1    0    0  504  502  0.00000000000E+00 -0.00000000000E+00 -0.13722749406E+04  0.13722749406E+04  0.00000000000E+00 0.  1.
         21    1    1    2  503  501  0.16709830781E+03  0.40128844604E+02  0.37213226920E+03  0.40989583362E+03  0.00000000000E+00 0. -1.
         21    1    1    2  504  503 -0.36344410142E+02 -0.47077736193E+02 -0.13488061169E+04  0.13501167247E+04  0.00000000000E+00 0.  1.
         21    1    1    2  505  502  0.18962505984E+02 -0.25432100379E+02  0.35033132025E+03  0.35176469736E+03  0.00000000000E+00 0. -1.
          2    1    1    2  501    0 -0.14971640365E+03  0.32380991968E+02  0.18212928717E+04  0.18277229699E+04  0.00000000000E+00 0.  1.
<scales pt_clust_3="14000.00000" pt_clust_4="59.47714" pt_clust_5="31.72331" pt_clust_6="139.31962"></scales>
<clustering>
<clus scale="   31.723">  1  5  2 -1</clus>
<clus scale="   59.477">  2  4  1 -1</clus>
<clus scale="  139.320">  1  6  2 -1</clus>
<clus scale="   59.477">  2  3  1 -1</clus>
</clustering>
</event>
<event>
 6    0  0.3667994E+002  0.2542899E+03  0.7546771E-02  0.1110623E+00
          1   -1    0    0  505    0 -0.00000000000E+00  0.00000000000E+00  0.13051805019E+04  0.13051805019E+04  0.00000000000E+00 0. -1.
         21   -1    0    0  501  502  0.00000000000E+00 -0.00000000000E+00 -0.16577434583E+03  0.16577434583E+03  0.00000000000E+00 0. -1.
         21    1    1    2  503  502  0.79373073909E+02 -0.27475627785E+02 -0.68401310555E+02  0.10832236274E+03  0.00000000000E+00 0. -1.
         21    1    1    2  504  503 -0.27052610638E+03 -0.12217054997E+03  0.92271191251E+03  0.96928184292E+03  0.00000000000E+00 0. -1.
         21    1    1    2  505  504  0.11499398586E+02  0.47545024534E+02  0.11754942625E+03  0.12732098467E+03  0.00000000000E+00 0.  1.
          1    1    1    2  501    0  0.17965363388E+03  0.10210115322E+03  0.16754612784E+03  0.26602965739E+03  0.00000000000E+00 0. -1.
<scales pt_clust_3="83.91896" pt_clust_4="254.28987" pt_clust_5="48.91590" pt_clust_6="14000.00000"></scales>
<clustering>
<clus scale="   48.916">  1  5  2 -1</clus>
<clus scale="   83.919">  2  3  1 -1</clus>
<clus scale="  254.290">  1  4  2 -1</clus>
<clus scale="   83.919">  2  3  1 -1</clus>
</clustering>
</event>
<event>
 6    0  0.3667994E+002  0.1039729E+03  0.7546771E-02  0.1272157E+00
         21   -1    0    0  501  502  0.00000000000E+00  0.00000000000E+00  0.18480422487E+04  0.18480422487E+04  0.00000000000E+00 0.  1.
          2   -1    0    0  503    0 -0.00000000000E+00 -0.00000000000E+00 -0.50271555337E+03  0.50271555337E+03  0.00000000000E+00 0.  1.
         21    1    1    2  503  504  0.75655004089E+02 -0.11423966670E+03 -0.30253009366E+01  0.13705303184E+03  0.00000000000E+00 0. -1.
         21    1    1    2  504  505 -0.77820080995E+02  0.49857304070E+02 -0.47303727878E+02  0.10382368923E+03  0.00000000000E+00 0. -1.
         21    1    1    2  505  502  0.76353831573E+01 -0.37650262904E+02  0.17452436659E+04  0.17456664328E+04  0.00000000000E+00 0.  1.
          2    1    1    2  501    0 -0.54703062516E+01  0.10203262553E+03 -0.34958794175E+03  0.36421464817E+03  0.00000000000E+00 0.  1.
<scales pt_clust_3="103.97292" pt_clust_4="85.39405" pt_clust_5="38.41668" pt_clust_6="14000.00000"></scales>
<clustering>
<clus scale="   38.417">  1  5  2 -1</clus>
<clus scale="   85.394">  1  4  2 -1</clus>
<clus scale="  103.973">  1  3  2 -1</clus>
<clus scale="   38.417">  1  3  2 -1</clus>
</clustering>
</event>
<event>
 6    0  0.3667994E+002  0.1706812E+03  0.7546771E-02  0.1177139E+00
          2   -1    0    0  504    0 -0.00000000000E+00  0.00000000000E+00  0.12789159470E+04  0.12789159470E+04  0.00000000000E+00 0. -1.
         21   -1    0    0  503  502  0.00000000000E+00 -0.00000000000E+00 -0.42323913184E+03  0.42323913184E+03  0.00000000000E+00 0.  1.
         21    1    1    2  503  501  0.17855734959E+02 -0.45065210705E+02 -0.39663441201E+03  0.39958548182E+03  0.00000000000E+00 0.  1.
         21    1    1    2  504  505 -0.86940187462E+02 -0.86664037779E+02  0.30508323298E+03  0.32885411764E+03  0.00000000000E+00 0.  1.
         21    1    1    2  505  502 -0.32041402431E+02  0.36412335945E+00  0.38972845040E+02  0.50454600445E+02  0.00000000000E+00 0.  1.
          2    1    1    2  501    0  0.10112585493E+03  0.13136512512E+03  0.90825514918E+03  0.92326087897E+03  0.00000000000E+00 0. -1.
<scales pt_clust_3="48.47371" pt_clust_4="31.89105" pt_clust_5="31.89105" pt_clust_6="158.85798"></scales>
<clustering>
<clus scale="   31.891">  4  5 -1 -1</clus>
<clus scale="   48.474">  2  3  1 -1</clus>
<clus scale="  158.858">  1  6  2 -1</clus>
<clus scale="   48.474">  2  3  1 -1</clus>
</clustering>
</event>
<event>
 6    0  0.3667994E+002  0.8075876E+02  0.7546771E-02  0.1326912E+00
         21   -1    0    0  505  502  0.00000000000E+00  0.00000000000E+00  0.15518166741E+03  0.15518166741E+03  0.00000000000E+00 0.  1.
         -2   -1    0    0    0  501 -0.00000000000E+00 -0.00000000000E+00 -0.29770201930E+03  0.29770201930E+03  0.00000000000E+00 0. -1.
         21    1    1    2  503  501 -0.43660354192E+02  0.56521648564E+02 -0.26250526708E+02  0.76092137813E+02  0.00000000000E+00 0. -1.
         21    1    1    2  504  502 -0.12752519117E+01 -0.85026621433E+02 -0.51992963174E+02  0.99671564849E+02  0.00000000000E+00 0. -1.
         21    1    1    2  505  503 -0.37066081400E+02 -0.19252618898E+01  0.91347740552E+02  0.98600257239E+02  0.00000000000E+00 0.  1.
         -2    1    1    2    0  504  0.82001687504E+02  0.30430234759E+02 -0.15562460256E+03  0.17851972682E+03  0.00000000000E+00 0. -1.
<scales pt_clust_3="73.73933" pt_clust_4="14000.00000" pt_clust_5="37.11605" pt_clust_6="80.75876"></scales>
<clustering>
<clus scale="   37.116">  1  5  2 -1</clus>
<clus scale="   80.759">  2  6  1 -1</clus>
<clus scale="   73.739">  1  3  2 -1</clus>
<clus scale="   37.116">  1  3  2 -1</clus>
</clustering>
</event>
<event>
 6    0  0.3667994E+002  0.1670955E+03  0.7546771E-02  0.1180911E+00
         21   -1    0    0  501  502  0.00000000000E+00  0.00000000000E+00  0.32028528471E+03  0.32028528471E+03  0.00000000000E+00 0. -1.
          1   -1    0    0  503    0 -0.00000000000E+00 -0.00000000000E+00 -0.20135905826E+04  0.20135905826E+04  0.00000000000E+00 0. -1.
         21    1    1    2  503  504  0.30505928469E+02 -0.30890727464E+02 -0.52175982150E+03  0.52356294755E+03  0.00000000000E+00 0. -1.
         21    1    1    2  504  505  0.70194612592E+02  0.15135549135E+03 -0.44676656127E+03  0.47690264066E+03  0.00000000000E+00 0. -1.
         21    1    1    2  505  502 -0.33339103953E+02  0.22989327618E+02  0.29683099063E+03  0.29958077715E+03  0.00000000000E+00 0. -1.
          1    1    1    2  501    0 -0.67361437108E+02 -0.14345409150E+03 -0.10216099058E+04  0.10338295020E+04  0.00000000000E+00 0. -1.
<scales pt_clust_3="41.79151" pt_clust_4="167.09555" pt_clust_5="40.49698" pt_clust_6="14000.00000"></scales>
<clustering>
<clus scale="   40.497">  1  5  2 -1</clus>
<clus scale="   41.792">  2  3  1 -1</clus>
<clus scale="  167.096">  1  4  2 -1</clus>
<clus scale="   40.497">  1  3  2 -1</clus>
</clustering>
</event>
<event>
 6    0  0.3667994E+002  0.2746762E+03  0.7546771E-02  0.1098633E+00
          1   -1    0    0  503    0 -0.00000000000E+00  0.00000000000E+00  0.20829397912E+04  0.20829397912E+04  0.00000000000E+00 0.  1.
         21   -1    0    0  504  502  0.00000000000E+00 -0.00000000000E+00 -0.10805332641E+04  0.10805332641E+04  0.00000000000E+00 0.  1.
         21    1    1    2  503  505  0.38218958346E+02 -0.66280069858E+02  0.78486654485E+03  0.78858685613E+03  0.00000000000E+00 0.  1.
         21    1    1    2  504  501 -0.54556691356E+02  0.14957883335E+03  0.27773703733E+03  0.32013766080E+03  0.00000000000E+00 0. -1.
         21    1    1    2  505  502  0.75542636260E+02 -0.27173367418E+03 -0.10285184922E+04  0.10664877722E+04  0.00000000000E+00 0.  1.
          1    1    1    2  501    0 -0.59204903250E+02  0.18843491069E+03  0.96832143712E+03  0.98826076606E+03  0.00000000000E+00 0.  1.
<scales pt_clust_3="76.50971" pt_clust_4="274.67622" pt_clust_5="14000.00000" pt_clust_6="141.70188"></scales>
<clustering>
<clus scale="   76.510">  1  3  2 -1</clus>
<clus scale="  141.702">  1  6  2 -1</clus>
<clus scale="  274.676">  1  4  2 -1</clus>
<clus scale="  274.676">  2  3  1 -1</clus>
</clustering>
</event>
<event>
 6    0  0.3667994E+002  0.1840068E+03  0.7546771E-02  0.1163981E+00
         -4   -1    0    0    0  501 -0.00000000000E+00  0.00000000000E+00  0.25334473577E+03  0.25334473577E+03  0.00000000000E+00 0.  1.
         21   -1    0    0  504  502  0.00000000000E+00 -0.00000000000E+00 -0.42202923162E+03  0.42202923162E+03  0.00000000000E+00 0. -1.
         21    1    1    2  503  502 -0.11911108491E+03 -0.70352829735E+02 -0.55506712151E+02  0.14905692300E+03  0.00000000000E+00 0. -1.
         21    1    1    2  504  501 -0.42838668803E+02 -0.12594647873E+02 -0.27065730501E+03  0.27431579148E+03  0.00000000000E+00 0. -1.
         21    1    1    2  505  503  0.11388668407E+03  0.69800538293E+02  0.68729917219E+02  0.15022015003E+03  0.00000000000E+00 0. -1.
         -4    1    1    2    0  505  0.48063069646E+02  0.13146939315E+02  0.88749604089E+02  0.10178110288E+03  0.00000000000E+00 0.  1.
<scales pt_clust_3="168.11213" pt_clust_4="44.65173" pt_clust_5="46.89353" pt_clust_6="46.89353"></scales>
<clustering>
<clus scale="   44.652">  2  4  1 -1</clus>
<clus scale="   46.894">  5  6 -1 -1</clus>
<clus scale="  168.112">  2  3  1 -1</clus>
<clus scale="   44.652">  2  3  1 -1</clus>
</clustering>
</event>
<event>
 6    0  0.3667994E+002  0.1002060E+03  0.7546771E-02  0.1279863E+00
          1   -1    0    0  505    0 -0.00000000000E+00  0.00000000000E+00  0.30083128621E+04  0.30083128621E+04  0.00000000000E+00 0.  1.
         21   -1    0    0  504  502  0.00000000000E+00 -0.00000000000E+00 -0.96152666516E+02  0.96152666516E+02  0.00000000000E+00 0.  1.
         21    1    1    2  503  501 -0.80913309115E+02 -0.19499923528E+02  0.95988375261E+03  0.96348535491E+03  0.00000000000E+00 0. -1.
         21    1    1    2  504  503 -0.51621242745E+02 -0.19967591595E+02 -0.81614633734E+02  0.98612402142E+02  0.00000000000E+00 0.  1.
         21    1    1    2  505  502  0.15834976338E+02  0.26617873102E+02  0.94913503731E+02  0.99839024608E+02  0.00000000000E+00 0.  1.
          1    1    1    2  501    0  0.11669957552E+03  0.12849642022E+02  0.19389775730E+04  0.19425287470E+04  0.00000000000E+00 0.  1.
<scales pt_clust_3="14000.00000" pt_clust_4="55.27738" pt_clust_5="30.97188" pt_clust_6="100.20604"></scales>
<clustering>
<clus scale="   30.972">  1  5  2 -1</clus>
<clus scale="   55.277">  2  4  1 -1</clus>
<clus scale="  100.206">  1  6  2 -1</clus>
<clus scale="   55.277">  2  3  1 -1</clus>
</clustering>
</event>
<event>
 6    0  0.3667994E+002  0.7635878E+02  0.7546771E-02  0.1339714E+00
         21   -1    0    0  503  502  0.00000000000E+00  0.00000000000E+00  0.11413421435E+04  0.11413421435E+04  0.00000000000E+00 0. -1.
         -4   -1    0    0    0  501 -0.00000000000E+00 -0.00000000000E+00 -0.16793363834E+04  0.16793363834E+04  0.00000000000E+00 0.  1.
         21    1    1    2  503  501 -0.32696310696E+02  0.29296306454E+02  0.11134197749E+04  0.11142849354E+04  0.00000000000E+00 0. -1.
         21    1    1    2  504  505 -0.38897045024E+02 -0.72093709928E+02 -0.43094444717E+03  0.43866114447E+03  0.00000000000E+00 0.  1.
         21    1    1    2  505  502  0.10244347721E+03 -0.11997771381E+01 -0.91132204658E+02  0.13711741033E+03  0.00000000000E+00 0.  1.
         -4    1    1    2    0  504 -0.30850121494E+02  0.43997180612E+02 -0.11293373629E+04  0.11306150367E+04  0.00000000000E+00 0.  1.
<scales pt_clust_3="43.90128" pt_clust_4="14000.00000" pt_clust_5="76.35878" pt_clust_6="54.72945"></scales>
<clustering>
<clus scale="   43.901">  1  3  2 -1</clus>
<clus scale="   54.729">  2  6  1 -1</clus>
<clus scale="   76.359">  1  5  2 -1</clus>
<clus scale="   43.901">  1  3  2 -1</clus>
</clustering>
</event>
<event>
 6    0  0.3667994E+002  0.1127003E+03  0.7546771E-02  0.1255650E+00
         -2   -1    0    0    0  501 -0.00000000000E+00  0.00000000000E+00  0.12055158923E+03  0.12055158923E+03  0.00000000000E+00 0.  1.
         21   -1    0    0  505  502  0.00000000000E+00 -0.00000000000E+00 -0.16930266517E+04  0.16930266517E+04  0.00000000000E+00 0. -1.
         21    1    1    2  503  501 -0.92598408638E+02 -0.39150707966E+02  0.25080143917E+01  0.10056606462E+03  0.00000000000E+00 0.  1.
         21    1    1    2  504  502 -0.14825430149E+02  0.40680318123E+02 -0.43847790642E+01  0.43519052714E+02  0.00000000000E+00 0.  1.
         21    1    1    2  505  503  0.82134083449E+02 -0.64009150867E+02 -0.15945603656E+04  0.15979568012E+04  0.00000000000E+00 0. -1.
         -2    1    1    2    0  504  0.25289755338E+02  0.62479540710E+02  0.23962067761E+02  0.71536322409E+02  0.00000000000E+00 0.  1.
<scales pt_clust_3="100.53479" pt_clust_4="36.75451" pt_clust_5="102.94822" pt_clust_6="36.75451"></scales>
<clustering>
<clus scale="   36.755">  4  6 -1 -1</clus>
<clus scale="  100.535">  1  3  2 -1</clus>
<clus scale="  102.948">  2  5  1 -1</clus>
<clus scale="  102.948">  2  3  1 -1</clus>
</clustering>
</event>
<event>
 6    0  0.3667994E+002  0.9544726E+02  0.7546771E-02  0.1290172E+00
          1   -1    0    0  503    0 -0.00000000000E+00  0.00000000000E+00  0.13161881154E+04  0.13161881154E+04  0.00000000000E+00 0. -1.
         21   -1    0    0  505  502  0.00000000000E+00 -0.00000000000E+00 -0.37441713308E+03  0.37441713308E+03  0.00000000000E+00 0.  1.
         21    1    1    2  503  502 -0.33460296293E+02  0.25858297124E+02  0.17233512507E+03  0.17744756491E+03  0.00000000000E+00 0.  1.
         21    1    1    2  504  501 -0.27092005273E+02  0.64289156125E+02  0.10456970901E+03  0.12570559410E+03  0.00000000000E+00 0. -1.
         21    1    1    2  505  504  0.38464712495E+02  0.92531094754E+01 -0.35767362135E+03  0.35985493404E+03  0.00000000000E+00 0.  1.
          1    1    1    2  501    0  0.22087589071E+02 -0.99400562725E+02  0.10225397696E+04  0.10275971554E+04  0.00000000000E+00 0. -1.
<scales pt_clust_3="38.57159" pt_clust_4="14000.00000" pt_clust_5="39.56203" pt_clust_6="95.44726"></scales>
<clustering>
<clus scale="   39.562">  2  5  1 -1</clus>
<clus scale="   38.572">  2  3  1 -1</clus>
<clus scale="   95.447">  1  6  2 -1</clus>
<clus scale="   39.562">  2  3  1 -1</clus>
</clustering>
</event>
<event>
 6    0  0.3667994E+002  0.2920001E+03  0.7546771E-02  0.1089309E+00
         21   -1    0    0  503  502  0.00000000000E+00  0.00000000000E+00  0.22131913693E+03  0.22131913693E+03  0.00000000000E+00 0. -1.
         -4   -1    0    0    0  501 -0.00000000000E+00 -0.00000000000E+00 -0.94976994917E+03  0.94976994917E+03  0.00000000000E+00 0. -1.
         21    1    1    2  503  504 -0.30625821027E+02  0.41019477114E+01  0.49212948060E+02  0.58109217387E+02  0.00000000000E+00 0.  1.
         21    1    1    2  504  505 -0.14742240973E+03 -0.27007615760E+03 -0.36564922491E+03  0.47788477008E+03  0.00000000000E+00 0. -1.
         21    1    1    2  505  501  0.17893461528E+03 -0.31218355132E+02 -0.19909344364E+03  0.26950024405E+03  0.00000000000E+00 0. -1.
         -4    1    1    2    0  502 -0.88638452666E+00  0.29719256502E+03 -0.21292109175E+03  0.36559485457E+03  0.00000000000E+00 0. -1.
<scales pt_clust_3="30.89930" pt_clust_4="292.00011" pt_clust_5="175.15480" pt_clust_6="14000.00000"></scales>
<clustering>
<clus scale="   30.899">  1  3  2 -1</clus>
<clus scale="  175.155">  2  5  1 -1</clus>
<clus scale="  292.000">  2  4  1 -1</clus>
<clus scale="   30.899">  1  3  2 -1</clus>
</clustering>
</event>
<event>
 6    0  0.3667994E+002  0.1034239E+03  0.7546771E-02  0.1273256E+00
          2   -1    0    0  503    0 -0.00000000000E+00  0.00000000000E+00  0.15630700884E+04  0.15630700884E+04  0.00000000000E+00 0.  1.
         21   -1    0    0  501  502  0.00000000000E+00 -0.00000000000E+00 -0.11018537304E+03  0.11018537304E+03  0.00000000000E+00 0.  1.
         21    1    1    2  503  504 -0.43966051294E+02  0.72066618853E+01  0.12637376927E+03  0.13399731042E+03  0.00000000000E+00 0.  1.
         21    1    1    2  504  505  0.53912887343E+02  0.21593769548E+02  0.35684250930E+03  0.36153764223E+03  0.00000000000E+00 0.  1.
         21    1    1    2  505  502  0.10240053920E+03  0.11959382495E+02 -0.74206989261E+02  0.12702588127E+03  0.00000000000E+00 0.  1.
          2    1    1    2  501    0 -0.11234737525E+03 -0.40759813929E+02  0.10438754260E+04  0.10506946275E+04  0.00000000000E+00 0.  1.
<scales pt_clust_3="44.55277" pt_clust_4="48.85967" pt_clust_5="14000.00000" pt_clust_6="103.42393"></scales>
<clustering>
<clus scale="   44.553">  1  3  2 -1</clus>
<clus scale="   48.860">  1  4  2 -1</clus>
<clus scale="  103.424">  1  6  2 -1</clus>
<clus scale="  103.424">  2  3  1 -1</clus>
</clustering>
</event>
<event>
 6    0  0.3667994E+002  0.8845339E+02  0.7546771E-02  0.1306641E+00
          2   -1    0    0  505    0 -0.00000000000E+00  0.00000000000E+00  0.20264715320E+04  0.20264715320E+04  0.00000000000E+00 0. -1.
         21   -1    0    0  503  502  0.00000000000E+00 -0.00000000000E+00 -0.39775493020E+02  0.39775493020E+02  0.00000000000E+00 0. -1.
         21    1    1    2  503  501  0.49462220093E+02  0.61356872682E+02  0.54356071124E+03  0.54924441176E+03  0.00000000000E+00 0. -1.
         21    1    1    2  504  502  0.10561456200E+02  0.36745597236E+02 -0.21905996088E+02  0.44064225148E+02  0.00000000000E+00 0. -1.
         21    1    1    2  505  504 -0.43586198490E+02  0.77204929679E+00  0.25020376446E+03  0.25397298382E+03  0.00000000000E+00 0. -1.
          2    1    1    2  501    0 -0.16437477803E+02 -0.98874519215E+02  0.12148375594E+04  0.12189654043E+04  0.00000000000E+00 0. -1.
<scales pt_clust_3="14000.00000" pt_clust_4="38.23327" pt_clust_5="42.10911" pt_clust_6="88.45339"></scales>
<clustering>
<clus scale="   38.233">  2  4  1 -1</clus>
<clus scale="   42.109">  2  5  1 -1</clus>
<clus scale="   88.453">  1  6  2 -1</clus>
<clus scale="   38.233">  2  3  1 -1</clus>
</clustering>
</event>
<event>
 6    0  0.3667994E+002  0.1208553E+03  0.7546771E-02  0.1241693E+00
         21   -1    0    0  504  502  0.00000000000E+00  0.00000000000E+00  0.84983539291E+03  0.84983539291E+03  0.00000000000E+00 0. -1.
          1   -1    0    0  503    0 -0.00000000000E+00 -0.00000000000E+00 -0.41967258164E+03  0.41967258164E+03  0.00000000000E+00 0. -1.
         21    1    1    2  503  505 -0.33258725883E+02  0.11791174469E+02 -0.13054573374E+02  0.37624413998E+02  0.00000000000E+00 0. -1.
         21    1    1    2  504  501 -0.63108455448E+02 -0.10508436168E+03  0.79037924142E+03  0.79982794743E+03  0.00000000000E+00 0. -1.
         21    1    1    2  505  502  0.85967684230E+02  0.60476748184E+02 -0.24975583780E+02  0.10803545524E+03  0.00000000000E+00 0. -1.
          1    1    1    2  501    0  0.10399497100E+02  0.32816439028E+02 -0.32218627300E+03  0.32402015789E+03  0.00000000000E+00 0. -1.
<scales pt_clust_3="36.71951" pt_clust_4="14000.00000" pt_clust_5="120.85531" pt_clust_6="34.42482"></scales>
<clustering>
<clus scale="   34.425">  2  6  1 -1</clus>
<clus scale="   36.720">  2  3  1 -1</clus>
<clus scale="  120.855">  2  5  1 -1</clus>
<clus scale="  120.855">  1  3  2 -1</clus>
</clustering>
</event>
<event>
 6    0  0.3667994E+002  0.9411756E+02  0.7546771E-02  0.1293176E+00
          3   -1    0    0  505    0 -0.00000000000E+00  0.00000000000E+00  0.33189386435E+03  0.33189386435E+03  0.00000000000E+00 0.  1.
         21   -1    0    0  501  502  0.00000000000E+00 -0.00000000000E+00 -0.12021636993E+03  0.12021636993E+03  0.00000000000E+00 0. -1.
         21    1    1    2  503  502  0.72507494051E+02 -0.62841374106E+02 -0.63475949846E+02  0.11504595257E+03  0.00000000000E+00 0. -1.
         21    1    1    2  504  503 -0.15265138462E+02 -0.38617541695E+02  0.81476062890E+02  0.91447732629E+02  0.00000000000E+00 0. -1.
         21    1    1    2  505  504 -0.29845437341E+01  0.29998456306E+02  0.13519467358E+03  0.13851503401E+03  0.00000000000E+00 0.  1.
          3    1    1    2  501    0 -0.54257811854E+02  0.71460459494E+02  0.58482707794E+02  0.10710151507E+03  0.00000000000E+00 0.  1.
<scales pt_clust_3="14000.00000" pt_clust_4="30.26918" pt_clust_5="30.14656" pt_clust_6="94.11756"></scales>
<clustering>
<clus scale="   30.147">  1  5  2 -1</clus>
<clus scale="   30.269">  1  4  2 -1</clus>
<clus scale="   94.118">  1  6  2 -1</clus>
<clus scale="   94.118">  2  3  1 -1</clus>
</clustering>
</event>
<event>
 6    0  0.3667994E+002  0.9816218E+02  0.7546771E-02  0.1284209E+00
         21   -1    0    0  504  502  0.00000000000E+00  0.00000000000E+00  0.51549522472E+03  0.51549522472E+03  0.00000000000E+00 0. -1.
          2   -1    0    0  503    0 -0.00000000000E+00 -0.00000000000E+00 -0.31941976332E+03  0.31941976332E+03  0.00000000000E+00 0.  1.
         21    1    1    2  503  502  0.35818315408E+02 -0.55966614869E+02  0.54693540834E+02  0.86061589037E+02  0.00000000000E+00 0. -1.
         21    1    1    2  504  505  0.24724835080E+02 -0.19397023117E+02  0.40593860109E+03  0.40715317736E+03  0.00000000000E+00 0. -1.
         21    1    1    2  505  501 -0.55416291360E+02 -0.28333073086E+02 -0.53440685238E+01  0.62468291533E+02  0.00000000000E+00 0.  1.
          2    1    1    2  501    0 -0.51268591281E+01  0.10369671107E+03 -0.25921261201E+03  0.27923193012E+03  0.00000000000E+00 0.  1.
<scales pt_clust_3="14000.00000" pt_clust_4="31.42550" pt_clust_5="59.25668" pt_clust_6="98.16218"></scales>
<clustering>
<clus scale="   31.425">  1  4  2 -1</clus>
<clus scale="   59.257">  1  5  2 -1</clus>
<clus scale="   98.162">  2  6  1 -1</clus>
<clus scale="   31.425">  1  3  2 -1</clus>
</clustering>
</event>
<event>
 6    0  0.3667994E+002  0.1465937E+03  0.7546771E-02  0.1204722E+00
         21   -1    0    0  505  502  0.00000000000E+00  0.00000000000E+00  0.26810050132E+03  0.26810050132E+03  0.00000000000E+00 0. -1.
          1   -1    0    0  504    0 -0.00000000000E+00 -0.00000000000E+00 -0.50239231171E+03  0.50239231171E+03  0.00000000000E+00 0.  1.
         21    1    1    2  503  502 -0.22691905530E+02  0.29269958652E+02  0.20166600818E+03  0.20503861078E+03  0.00000000000E+00 0. -1.
         21    1    1    2  504  503 -0.99300179545E+02  0.39756713885E+02 -0.37791607665E+01  0.10702992111E+03  0.00000000000E+00 0.  1.
         21    1    1    2  505  501  0.73651584430E+01 -0.31184497762E+02 -0.83097084715E+02  0.89060900218E+02  0.00000000000E+00 0. -1.
          1    1    1    2  501    0  0.11462692663E+03 -0.37842174775E+02 -0.34908157309E+03  0.36936338093E+03  0.00000000000E+00 0.  1.
<scales pt_clust_3="37.03583" pt_clust_4="133.27424" pt_clust_5="31.45626" pt_clust_6="31.45626"></scales>
<clustering>
<clus scale="   31.456">  5  6 -1 -1</clus>
<clus scale="   37.036">  1  3  2 -1</clus>
<clus scale="  133.274">  1  4  2 -1</clus>
<clus scale="   37.036">  1  3  2 -1</clus>
</clustering>
</event>
<event>
 6    0  0.3667994E+002  0.9769647E+02  0.7546771E-02  0.1285216E+00
          2   -1    0    0  505    0 -0.00000000000E+00  0.00000000000E+00  0.18990477184E+04  0.18990477184E+04  0.00000000000E+00 0.  1.
         21   -1    0    0  504  502  0.00000000000E+00 -0.00000000000E+00 -0.84677963947E+02  0.84677963947E+02  0.00000000000E+00 0.  1.
         21    1    1    2  503  502  0.85543408808E+02  0.21230609662E+02  0.97276374679E+03  0.97674854525E+03  0.00000000000E+00 0.  1.
         21    1    1    2  504  501  0.73304636198E+01 -0.44906447186E+02 -0.70630196533E+02  0.84017553868E+02  0.00000000000E+00 0.  1.
         21    1    1    2  505  503  0.12754288610E+02  0.30242010280E+02  0.16159275756E+03  0.16489229927E+03  0.00000000000E+00 0. -1.
          2    1    1    2  501    0 -0.10562816104E+03 -0.65661727554E+01  0.75064344660E+03  0.75806728392E+03  0.00000000000E+00 0.  1.
<scales pt_clust_3="14000.00000" pt_clust_4="45.39370" pt_clust_5="32.82150" pt_clust_6="97.69647"></scales>
<clustering>
<clus scale="   32.822">  1  5  2 -1</clus>
<clus scale="   45.394">  2  4  1 -1</clus>
<clus scale="   97.696">  2  6  1 -1</clus>
<clus scale="   45.394">  2  3  1 -1</clus>
</clustering>
</event>
<event>
 6    0  0.3667994E+002  0.1629197E+03  0.7546771E-02  0.1185439E+00
          2   -1    0    0  505    0 -0.00000000000E+00  0.00000000000E+00  0.21116353830E+04  0.21116353830E+04  0.00000000000E+00 0.  1.
         21   -1    0    0  501  502  0.00000000000E+00 -0.00000000000E+00 -0.14720390393E+03  0.14720390393E+03  0.00000000000E+00 0. -1.
         21    1    1    2  503  502 -0.49838145904E+02  0.12909120683E+02 -0.99381899112E+02  0.11192518955E+03  0.00000000000E+00 0. -1.
         21    1    1    2  504  503 -0.13004010663E+03  0.58366832352E+02  0.22522200273E+03  0.26653717746E+03  0.00000000000E+00 0. -1.
         21    1    1    2  505  504 -0.24627137422E+01 -0.35752330654E+02  0.14418698496E+04  0.14423151380E+04  0.00000000000E+00 0.  1.
          2    1    1    2  501    0  0.18234096627E+03 -0.35523622381E+02  0.39672152588E+03  0.43806178198E+03  0.00000000000E+00 0.  1.
<scales pt_clust_3="51.42229" pt_clust_4="14000.00000" pt_clust_5="35.83705" pt_clust_6="162.91971"></scales>
<clustering>
<clus scale="   35.837">  1  5  2 -1</clus>
<clus scale="   51.422">  2  3  1 -1</clus>
<clus scale="  162.920">  2  6  1 -1</clus>
<clus scale="   51.422">  2  3  1 -1</clus>
</clustering>
</event>
<event>
 6    0  0.3667994E+002  0.7840163E+02  0.7546771E-02  0.1333650E+00
         21   -1    0    0  505  502  0.00000000000E+00  0.00000000000E+00  0.80268751971E+03  0.80268751971E+03  0.00000000000E+00 0.  1.
         -3   -1    0    0    0  501 -0.00000000000E+00 -0.00000000000E+00 -0.81651060416E+03  0.81651060416E+03  0.00000000000E+00 0.  1.
         21    1    1    2  503  501 -0.26616940064E+02 -0.22959526719E+02 -0.37572991258E+02  0.51452220920E+02  0.00000000000E+00 0.  1.
         21    1    1    2  504  502 -0.85061189167E+02  0.53212771971E+02 -0.17171886020E+03  0.19888280959E+03  0.00000000000E+00 0. -1.
         21    1    1    2  505  503  0.20012786904E+02 -0.69617582195E+02  0.77622670013E+03  0.77959926205E+03  0.00000000000E+00 0.  1.
         -3    1    1    2    0  504  0.91665342327E+02  0.39364336943E+02 -0.58075793312E+03  0.58926383131E+03  0.00000000000E+00 0.  1.
<scales pt_clust_3="35.15112" pt_clust_4="78.40163" pt_clust_5="72.46917" pt_clust_6="14000.00000"></scales>
<clustering>
<clus scale="   35.151">  2  3  1 -1</clus>
<clus scale="   72.469">  1  5  2 -1</clus>
<clus scale="   78.402">  1  4  2 -1</clus>
<clus scale="   72.469">  1  3  2 -1</clus>
</clustering>
</event>
<event>
 6    0  0.3667994E+002  0.1043282E+03  0.7546771E-02  0.1271449E+00
          2   -1    0    0  505    0 -0.00000000000E+00  0.00000000000E+00  0.49189155718E+03  0.49189155718E+03  0.00000000000E+00 0. -1.
         21   -1    0    0  503  502  0.00000000000E+00 -0.00000000000E+00 -0.11813514314E+03  0.11813514314E+03  0.00000000000E+00 0. -1.
         21    1    1    2  503  501 -0.20628154901E+02  0.35283572833E+02  0.14735030121E+02  0.43446201205E+02  0.00000000000E+00 0. -1.
         21    1    1    2  504  502 -0.13459738781E+02 -0.12502170641E+03 -0.18923498522E+02  0.12716009767E+03  0.00000000000E+00 0. -1.
         21    1    1    2  505  504 -0.47629859708E+02  0.11490070018E+03  0.29564244678E+03  0.32074168856E+03  0.00000000000E+00 0. -1.
          2    1    1    2  501    0  0.81717753389E+02 -0.25162566599E+02  0.82302435658E+02  0.11867871289E+03  0.00000000000E+00 0. -1.
<scales pt_clust_3="40.87115" pt_clust_4="14000.00000" pt_clust_5="104.32817" pt_clust_6="80.37537"></scales>
<clustering>
<clus scale="   40.871">  2  3  1 -1</clus>
<clus scale="   80.375">  1  6  2 -1</clus>
<clus scale="  104.328">  1  5  2 -1</clus>
<clus scale="   40.871">  2  3  1 -1</clus>
</clustering>
</event>
<event>
 6    0  0.3667994E+002  0.1294958E+03  0.7546771E-02  0.1228206E+00
         21   -1    0    0  505  502  0.00000000000E+00  0.00000000000E+00  0.21574039538E+02  0.21574039538E+02  0.00000000000E+00 0. -1.
          2   -1    0    0  504    0 -0.00000000000E+00 -0.00000000000E+00 -0.27709438654E+04  0.27709438654E+04  0.00000000000E+00 0. -1.
         21    1    1    2  503  502 -0.15505294412E+01  0.64297376729E+02 -0.24571178159E+03  0.25398983524E+03  0.00000000000E+00 0. -1.
         21    1    1    2  504  503 -0.19930869013E+02  0.59778319406E+02 -0.43236856187E+03  0.43693621995E+03  0.00000000000E+00 0. -1.
         21    1    1    2  505  501 -0.68112867921E+02 -0.11209119384E+03 -0.29313836491E+03  0.32114467066E+03  0.00000000000E+00 0. -1.
          2    1    1    2  501    0  0.89594266375E+02 -0.11984502297E+02 -0.17781511175E+04  0.17804471791E+04  0.00000000000E+00 0. -1.
<scales pt_clust_3="41.16552" pt_clust_4="41.16552" pt_clust_5="122.63577" pt_clust_6="90.39226"></scales>
<clustering>
<clus scale="   41.166">  3  4 -1 -1</clus>
<clus scale="   90.392">  2  6  1 -1</clus>
<clus scale="  122.636">  1  5  2 -1</clus>
<clus scale="  122.636">  1  3  2 -1</clus>
</clustering>
</event>
<event>
 6    0  0.3667994E+002  0.9755095E+02  0.7546771E-02  0.1285532E+00
          1   -1    0    0  503    0 -0.00000000000E+00  0.00000000000E+00  0.97168026314E+03  0.97168026314E+03  0.00000000000E+00 0. -1.
         21   -1    0    0  505  502  0.00000000000E+00 -0.00000000000E+00 -0.26685430515E+03  0.26685430515E+03  0.00000000000E+00 0. -1.
         21    1    1    2  503  504 -0.26548777457E+02  0.52456504566E+02  0.64091122217E+03  0.64360214197E+03  0.00000000000E+00 0. -1.
         21    1    1    2  504  502  0.18911772178E+02 -0.27286737807E+02  0.10132890140E+02  0.34711621248E+02  0.00000000000E+00 0. -1.
         21    1    1    2  505  501  0.81035984520E+02  0.96869159831E+01 -0.24100069990E+03  0.25444450177E+03  0.00000000000E+00 0. -1.
          1    1    1    2  501    0 -0.73398979241E+02 -0.34856682741E+02  0.29478254557E+03  0.30577630330E+03  0.00000000000E+00 0. -1.
<scales pt_clust_3="58.61839" pt_clust_4="33.19972" pt_clust_5="14000.00000" pt_clust_6="97.55095"></scales>
<clustering>
<clus scale="   33.200">  2  4  1 -1</clus>
<clus scale="   58.618">  1  3  2 -1</clus>
<clus scale="   97.551">  1  6  2 -1</clus>
<clus scale="   33.200">  2  3  1 -1</clus>
</clustering>
</event>
<event>
 6    0  0.3667994E+002  0.1548071E+03  0.7546771E-02  0.1194687E+00
          2   -1    0    0  502    0 -0.00000000000E+00  0.00000000000E+00  0.70942481770E+03  0.70942481770E+03  0.00000000000E+00 0. -1.
         21   -1    0    0  504  502  0.00000000000E+00 -0.00000000000E+00 -0.15100534181E+04  0.15100534181E+04  0.00000000000E+00 0.  1.
         21    1    1    2  503  505 -0.11534866210E+03  0.14168079712E+02 -0.13270127993E+03  0.17639636625E+03  0.00000000000E+00 0. -1.
         21    1    1    2  504  503 -0.24830753378E+02 -0.25210862377E+02 -0.13464085481E+04  0.13468734655E+04  0.00000000000E+00 0.  1.
         21    1    1    2  505  501  0.66817876943E+02  0.39236820276E+02  0.33028347340E+03  0.33925113050E+03  0.00000000000E+00 0. -1.
          2    1    1    2  501    0  0.73361538537E+02 -0.28194037611E+02  0.34819775419E+03  0.35695727351E+03  0.00000000000E+00 0. -1.
<scales pt_clust_3="139.16931" pt_clust_4="35.38579" pt_clust_5="67.07476" pt_clust_6="67.07476"></scales>
<clustering>
<clus scale="   35.386">  2  4  1 -1</clus>
<clus scale="   67.075">  5  6 -1 -1</clus>
<clus scale="  139.169">  2  3  1 -1</clus>
<clus scale="   35.386">  2  3  1 -1</clus>
</clustering>
</event>
<event>
 6    0  0.3667994E+002  0.8078385E+02  0.7546771E-02  0.1326842E+00
         21   -1    0    0  504  502  0.00000000000E+00  0.00000000000E+00  0.96008917747E+03  0.96008917747E+03  0.00000000000E+00 0. -1.
          3   -1    0    0  503    0 -0.00000000000E+00 -0.00000000000E+00 -0.32354619722E+02  0.32354619722E+02  0.00000000000E+00 0. -1.
         21    1    1    2  503  505 -0.58456148425E+02 -0.28847607620E+02  0.62197940430E+02  0.90099331561E+02  0.00000000000E+00 0. -1.
         21    1    1    2  504  501 -0.28474773938E+02  0.15465685063E+02  0.10872017668E+03  0.11344636170E+03  0.00000000000E+00 0. -1.
         21    1    1    2  505  502  0.86139325145E+02 -0.68509058348E+02  0.61800791202E+03  0.62773183265E+03  0.00000000000E+00 0. -1.
          3    1    1    2  501    0  0.79159721817E+00  0.81890980904E+02  0.13880852862E+03  0.16116627127E+03  0.00000000000E+00 0. -1.
<scales pt_clust_3="66.90522" pt_clust_4="32.40371" pt_clust_5="80.78385" pt_clust_6="14000.00000"></scales>
<clustering>
<clus scale="   32.404">  1  4  2 -1</clus>
<clus scale="   66.905">  2  3  1 -1</clus>
<clus scale="   80.784">  1  5  2 -1</clus>
<clus scale="   32.404">  1  3  2 -1</clus>
</clustering>
</event>
<event>
 6    0  0.3667994E+002  0.8865115E+02  0.7546771E-02  0.1306151E+00
          1   -1    0    0  503    0 -0.00000000000E+00  0.00000000000E+00  0.17746221702E+03  0.17746221702E+03  0.00000000000E+00 0. -1.
         21   -1    0    0  501  502  0.00000000000E+00 -0.00000000000E+00 -0.41694985240E+03  0.41694985240E+03  0.00000000000E+00 0. -1.
         21    1    1    2  503  504  0.20671499892E+02  0.22413765137E+02  0.22941448698E+02  0.38157539802E+02  0.00000000000E+00 0.  1.
         21    1    1    2  504  505 -0.27076678409E+02 -0.10683402509E+03  0.10285862257E+03  0.15075328078E+03  0.00000000000E+00 0. -1.
         21    1    1    2  505  502  0.48570766864E+02 -0.89539110886E+01 -0.23301095901E+03  0.23818773884E+03  0.00000000000E+00 0. -1.
          1    1    1    2  501    0 -0.42165588347E+02  0.93374171041E+02 -0.13227674763E+03  0.16731350998E+03  0.00000000000E+00 0. -1.
<scales pt_clust_3="30.49078" pt_clust_4="14000.00000" pt_clust_5="49.67784" pt_clust_6="88.65115"></scales>
<clustering>
<clus scale="   30.491">  1  3  2 -1</clus>
<clus scale="   49.678">  2  5  1 -1</clus>
<clus scale="   88.651">  2  6  1 -1</clus>
<clus scale="   49.678">  2  3  1 -1</clus>
</clustering>
</event>
<event>
 6    0  0.3667994E+002  0.8942951E+02  0.7546771E-02  0.1304239E+00
         21   -1    0    0  504  502  0.00000000000E+00  0.00000000000E+00  0.20923764935E+02  0.20923764935E+02  0.00000000000E+00 0.  1.
          2   -1    0    0  503    0 -0.00000000000E+00 -0.00000000000E+00 -0.25550670548E+04  0.25550670548E+04  0.00000000000E+00 0.  1.
         21    1    1    2  503  505 -0.37167340873E+01  0.31854821738E+02 -0.29309158382E+03  0.29484100848E+03  0.00000000000E+00 0.  1.
         21    1    1    2  504  501  0.35149165851E+02 -0.84547151864E+02 -0.99103180862E+02  0.13492636957E+03  0.00000000000E+00 0.  1.
         21    1    1    2  505  502  0.45750755877E+02  0.14012038606E+02 -0.90667484302E+03  0.90793652853E+03  0.00000000000E+00 0.  1.
          2    1    1    2  501    0 -0.77183187641E+02  0.38680291520E+02 -0.12352736822E+04  0.12382869132E+04  0.00000000000E+00 0.  1.
<scales pt_clust_3="32.07092" pt_clust_4="14000.00000" pt_clust_5="51.73806" pt_clust_6="89.42951"></scales>
<clustering>
<clus scale="   32.071">  2  3  1 -1</clus>
<clus scale="   51.738">  2  5  1 -1</clus>
<clus scale="   89.430">  2  6  1 -1</clus>
<clus scale="   89.430">  1  3  2 -1</clus>
</clustering>
</event>
<event>
 6    0  0.3667994E+002  0.1917314E+03  0.7546771E-02  0.1156909E+00
         21   -1    0    0  505  502  0.00000000000E+00  0.00000000000E+00  0.20440208144E+04  0.20440208144E+04  0.00000000000E+00 0. -1.
         -2   -1    0    0    0  501 -0.00000000000E+00 -0.00000000000E+00 -0.86573101805E+02  0.86573101805E+02  0.00000000000E+00 0.  1.
         21    1    1    2  503  501  0.18706968150E+03 -0.57961004135E+02  0.13333717071E+03  0.23692476618E+03  0.00000000000E+00 0.  1.
         21    1    1    2  504  502 -0.42771741590E+02 -0.69547724491E+00  0.14898402033E+03  0.15500368990E+03  0.00000000000E+00 0.  1.
         21    1    1    2  505  503  0.29212567119E+02 -0.81095355923E+01  0.14333689013E+04  0.14336894873E+04  0.00000000000E+00 0. -1.
         -2    1    1    2    0  504 -0.17351050703E+03  0.66766016973E+02  0.24175762021E+03  0.30497597283E+03  0.00000000000E+00 0.  1.
<scales pt_clust_3="14000.00000" pt_clust_4="35.60234" pt_clust_5="30.31730" pt_clust_6="191.73138"></scales>
<clustering>
<clus scale="   30.317">  1  5  2 -1</clus>
<clus scale="   35.602">  1  4  2 -1</clus>
<clus scale="  191.731">  1  6  2 -1</clus>
<clus scale="   30.317">  1  3  2 -1</clus>
</clustering>
</event>
<event>
 6    0  0.3667994E+002  0.1404056E+03  0.7546771E-02  0.1212784E+00
          2   -1    0    0  503    0 -0.00000000000E+00  0.00000000000E+00  0.95836269750E+03  0.95836269750E+03  0.00000000000E+00 0.  1.
         21   -1    0    0  504  502  0.00000000000E+00 -0.00000000000E+00 -0.77732949146E+02  0.77732949146E+02  0.00000000000E+00 0. -1.
         21    1    1    2  503  505 -0.26353892530E+02 -0.22351886366E+02  0.96095274569E+02  0.10211971538E+03  0.00000000000E+00 0. -1.
         21    1    1    2  504  501  0.24701198380E+02  0.38819702433E+02  0.42839754626E+02  0.62867822253E+02  0.00000000000E+00 0. -1.
         21    1    1    2  505  502 -0.97268477903E+02 -0.14298505293E+03  0.80614135630E+02  0.19079968820E+03  0.00000000000E+00 0. -1.
          2    1    1    2  501    0  0.98921172053E+02  0.12651723686E+03  0.66108058353E+03  0.68030842081E+03  0.00000000000E+00 0.  1.
<scales pt_clust_3="34.55625" pt_clust_4="43.98644" pt_clust_5="14000.00000" pt_clust_6="140.40562"></scales>
<clustering>
<clus scale="   34.556">  1  3  2 -1</clus>
<clus scale="   43.986">  2  4  1 -1</clus>
<clus scale="  140.406">  1  6  2 -1</clus>
<clus scale="   43.986">  2  3  1 -1</clus>
</clustering>
</event>
<event>
 6    0  0.3667994E+002  0.1802890E+03  0.7546771E-02  0.1167524E+00
         21   -1    0    0  504  502  0.00000000000E+00  0.00000000000E+00  0.15433372364E+03  0.15433372364E+03  0.00000000000E+00 0. -1.
          1   -1    0    0  503    0 -0.00000000000E+00 -0.00000000000E+00 -0.76760958444E+03  0.76760958444E+03  0.00000000000E+00 0. -1.
         21    1    1    2  503  505 -0.14878860061E+02 -0.18281519737E+03 -0.33237793949E+03  0.37962859683E+03  0.00000000000E+00 0. -1.
         21    1    1    2  504  501 -0.33979234136E+02  0.75764197333E+02 -0.27488410166E+02  0.87466648749E+02  0.00000000000E+00 0. -1.
         21    1    1    2  505  502  0.70033935984E+02 -0.70537945153E+02  0.43286792438E+02  0.10841632855E+03  0.00000000000E+00 0. -1.
          1    1    1    2  501    0 -0.21175841787E+02  0.17758894519E+03 -0.29669630358E+03  0.34643173395E+03  0.00000000000E+00 0. -1.
<scales pt_clust_3="180.28904" pt_clust_4="83.03494" pt_clust_5="54.97830" pt_clust_6="14000.00000"></scales>
<clustering>
<clus scale="   83.035">  1  4  2 -1</clus>
<clus scale="   54.978">  1  5  2 -1</clus>
<clus scale="  180.289">  2  3  1 -1</clus>
<clus scale="   83.035">  1  3  2 -1</clus>
</clustering>
</event>
<event>
 6    0  0.3667994E+002  0.1864346E+03  0.7546771E-02  0.1161717E+00
          1   -1    0    0  504    0 -0.00000000000E+00  0.00000000000E+00  0.16507641926E+04  0.16507641926E+04  0.00000000000E+00 0.  1.
         21   -1    0    0  503  502  0.00000000000E+00 -0.00000000000E+00 -0.20552200850E+03  0.20552200850E+03  0.00000000000E+00 0.  1.
         21    1    1    2  503  501 -0.17969454168E+03  0.60824951919E+02 -0.14576364009E+03  0.23924222424E+03  0.00000000000E+00 0.  1.
         21    1    1    2  504  505  0.38135288255E+02 -0.11679039730E+02  0.56291681159E+02  0.68988792909E+02  0.00000000000E+00 0.  1.
         21    1    1    2  505  502  0.63917797424E+02  0.29655266364E+02  0.29010970316E+03  0.29854406629E+03  0.00000000000E+00 0.  1.
          1    1    1    2  501    0  0.77641456003E+02 -0.78801178554E+02  0.12446044398E+04  0.12495111176E+04  0.00000000000E+00 0.  1.
<scales pt_clust_3="186.43456" pt_clust_4="39.88358" pt_clust_5="76.12274" pt_clust_6="14000.00000"></scales>
<clustering>
<clus scale="   39.884">  1  4  2 -1</clus>
<clus scale="   76.123">  1  5  2 -1</clus>
<clus scale="  186.435">  2  3  1 -1</clus>
<clus scale="  186.435">  2  3  1 -1</clus>
</clustering>
</event>
<event>
 6    0  0.3667994E+002  0.8810483E+02  0.7546771E-02  0.1307507E+00
         21   -1    0    0  503  502  0.00000000000E+00  0.00000000000E+00  0.14530255391E+03  0.14530255391E+03  0.00000000000E+00 0. -1.
          1   -1    0    0  504    0 -0.00000000000E+00 -0.00000000000E+00 -0.10835925280E+04  0.10835925280E+04  0.00000000000E+00 0.  1.
         21    1    1    2  503  501 -0.59601172071E+02 -0.11753037914E+01 -0.13123776633E+03  0.14414240307E+03  0.00000000000E+00 0.  1.
         21    1    1    2  504  505  0.65738068872E+02 -0.78935129166E+02 -0.11923127709E+03  0.15737962305E+03  0.00000000000E+00 0.  1.
         21    1    1    2  505  502  0.48473852113E+02  0.13254330881E+02  0.11207844940E+03  0.12282902932E+03  0.00000000000E+00 0. -1.
          1    1    1    2  501    0 -0.54610748913E+02  0.66856102076E+02 -0.79989938005E+03  0.80454402644E+03  0.00000000000E+00 0.  1.
<scales pt_clust_3="48.40735" pt_clust_4="88.10483" pt_clust_5="50.25327" pt_clust_6="14000.00000"></scales>
<clustering>
<clus scale="   50.253">  1  5  2 -1</clus>
<clus scale="   48.407">  1  3  2 -1</clus>
<clus scale="   88.105">  1  4  2 -1</clus>
<clus scale="   50.253">  1  3  2 -1</clus>
</clustering>
</event>
<event>
 6    0  0.3667994E+002  0.1713375E+03  0.7546771E-02  0.1176460E+00
          1   -1    0    0  504    0 -0.00000000000E+00  0.00000000000E+00  0.27395397873E+04  0.27395397873E+04  0.00000000000E+00 0. -1.
         21   -1    0    0  505  502  0.00000000000E+00 -0.00000000000E+00 -0.16872759589E+03  0.16872759589E+03  0.00000000000E+00 0. -1.
         21    1    1    2  503  501 -0.57956138989E+02  0.97440794543E+01  0.47899413213E+03  0.48258599207E+03  0.00000000000E+00 0. -1.
         21    1    1    2  504  502  0.10512907677E+03 -0.30879499263E+02  0.20813917497E+03  0.23521815919E+03  0.00000000000E+00 0. -1.
         21    1    1    2  505  503  0.62108020325E+02  0.44692909106E+02 -0.14221200289E+03  0.16149029717E+03  0.00000000000E+00 0. -1.
          1    1    1    2  501    0 -0.10928095811E+03 -0.23557489297E+02  0.20258908872E+04  0.20289729347E+04  0.00000000000E+00 0. -1.
<scales pt_clust_3="52.88559" pt_clust_4="155.03646" pt_clust_5="76.51707" pt_clust_6="52.88559"></scales>
<clustering>
<clus scale="   52.886">  3  6 -1 -1</clus>
<clus scale="   76.517">  2  5  1 -1</clus>
<clus scale="  155.036">  2  4  1 -1</clus>
<clus scale="   76.517">  2  3  1 -1</clus>
</clustering>
</event>
<event>
 6    0  0.3667994E+002  0.6918378E+02  0.7546771E-02  0.1362891E+00
         21   -1    0    0  501  502  0.00000000000E+00  0.00000000000E+00  0.17930790987E+03  0.17930790987E+03  0.00000000000E+00 0.  1.
          2   -1    0    0  504    0 -0.00000000000E+00 -0.00000000000E+00 -0.12645567196E+04  0.12645567196E+04  0.00000000000E+00 0.  1.
         21    1    1    2  503  505  0.67419868031E+02  0.13390050364E+02 -0.40260645361E+03  0.40843198766E+03  0.00000000000E+00 0.  1.
         21    1    1    2  504  503 -0.49510773412E+02 -0.27818871085E+02 -0.14105876796E+03  0.15206177130E+03  0.00000000000E+00 0.  1.
         21    1    1    2  505  502  0.44919149124E+02  0.52609037938E+02  0.16189803675E+03  0.17605798799E+03  0.00000000000E+00 0.  1.
          2    1    1    2  501    0 -0.62828243743E+02 -0.38180217217E+02 -0.70348162495E+03  0.70731288256E+03  0.00000000000E+00 0.  1.
<scales pt_clust_3="49.57128" pt_clust_4="56.79090" pt_clust_5="14000.00000" pt_clust_6="69.18378"></scales>
<clustering>
<clus scale="   56.791">  2  4  1 -1</clus>
<clus scale="   49.571">  2  3  1 -1</clus>
<clus scale="   69.184">  2  6  1 -1</clus>
<clus scale="   69.184">  1  3  2 -1</clus>
</clustering>
</event>
<event>
 6    0  0.3667994E+002  0.1748515E+03  0.7546771E-02  0.1172881E+00
          2   -1    0    0  505    0 -0.00000000000E+00  0.00000000000E+00  0.24040973524E+04  0.24040973524E+04  0.00000000000E+00 0. -1.
         21   -1    0    0  504  502  0.00000000000E+00 -0.00000000000E+00 -0.55955386074E+02  0.55955386074E+02  0.00000000000E+00 0. -1.
         21    1    1    2  503  501  0.41689350946E+01  0.77002691083E+02  0.50315052550E+03  0.50902578104E+03  0.00000000000E+00 0. -1.
         21    1    1    2  504  503  0.21690808246E+02 -0.15565731720E+03  0.11491646749E+03  0.19469331283E+03  0.00000000000E+00 0. -1.
         21    1    1    2  505  502  0.51373253707E+02 -0.87490607959E+02  0.35867110719E+03  0.37274492728E+03  0.00000000000E+00 0. -1.
          2    1    1    2  501    0 -0.77232997048E+02  0.16614523407E+03  0.13714038662E+04  0.13835887173E+04  0.00000000000E+00 0. -1.
<scales pt_clust_3="38.79686" pt_clust_4="164.30712" pt_clust_5="101.45845" pt_clust_6="38.79686"></scales>
<clustering>
<clus scale="   38.797">  3  6 -1 -1</clus>
<clus scale="  101.458">  1  5  2 -1</clus>
<clus scale="  164.307">  2  4  1 -1</clus>
<clus scale="  164.307">  2  3  1 -1</clus>
</clustering>
</event>
<event>
 6    0  0.3667994E+002  0.1061825E+03  0.7546771E-02  0.1267807E+00
          2   -1    0    0  503    0 -0.00000000000E+00  0.00000000000E+00  0.15957818605E+04  0.15957818605E+04  0.00000000000E+00 0. -1.
         21   -1    0    0  501  502  0.00000000000E+00 -0.00000000000E+00 -0.27939855691E+02  0.27939855691E+02  0.00000000000E+00 0. -1.
         21    1    1    2  503  504  0.34209384599E+02  0.30928593224E+02  0.63455053501E+03  0.63622420682E+03  0.00000000000E+00 0. -1.
         21    1    1    2  504  505  0.88917065936E+01  0.53394783138E+02  0.52971745577E+03  0.53247596026E+03  0.00000000000E+00 0. -1.
         21    1    1    2  505  502  0.60160061197E+02  0.36816374716E+01  0.57492843421E+02  0.83295945053E+02  0.00000000000E+00 0. -1.
          2    1    1    2  501    0 -0.10326115239E+03 -0.88005013834E+02  0.34608117061E+03  0.37172560404E+03  0.00000000000E+00 0. -1.
<scales pt_clust_3="34.18936" pt_clust_4="34.18936" pt_clust_5="60.27261" pt_clust_6="99.51249"></scales>
<clustering>
<clus scale="   34.189">  3  4 -1 -1</clus>
<clus scale="   60.273">  2  5  1 -1</clus>
<clus scale="   99.512">  2  6  1 -1</clus>
<clus scale="   60.273">  2  3  1 -1</clus>
</clustering>
</event>
<event>
 6    0  0.3667994E+002  0.1201574E+03  0.7546771E-02  0.1242838E+00
          2   -1    0    0  505    0 -0.00000000000E+00  0.00000000000E+00  0.45090122484E+03  0.45090122484E+03  0.00000000000E+00 0.  1.
         21   -1    0    0  504  502  0.00000000000E+00 -0.00000000000E+00 -0.14848651715E+03  0.14848651715E+03  0.00000000000E+00 0.  1.
         21    1    1    2  503  502 -0.71173771106E+01 -0.58436677378E+02 -0.55181998543E+02  0.80688012016E+02  0.00000000000E+00 0.  1.
         21    1    1    2  504  501 -0.25413264688E+02  0.10110608944E+03  0.11018650966E+03  0.15168830625E+03  0.00000000000E+00 0.  1.
         21    1    1    2  505  503  0.98455711277E+02 -0.91296996370E+02  0.34131042566E+02  0.13854095675E+03  0.00000000000E+00 0.  1.
          2    1    1    2  501    0 -0.65925069479E+02  0.48627584312E+02  0.21327915401E+03  0.22847046697E+03  0.00000000000E+00 0.  1.
<scales pt_clust_3="58.86852" pt_clust_4="14000.00000" pt_clust_5="120.15740" pt_clust_6="79.33570"></scales>
<clustering>
<clus scale="   58.869">  2  3  1 -1</clus>
<clus scale="   79.336">  1  6  2 -1</clus>
<clus scale="  120.157">  1  5  2 -1</clus>
<clus scale="   58.869">  2  3  1 -1</clus>
</clustering>
</event>
<event>
 6    0  0.3667994E+002  0.8309832E+02  0.7546771E-02  0.1320482E+00
         -3   -1    0    0    0  501 -0.00000000000E+00  0.00000000000E+00  0.15705180850E+04  0.15705180850E+04  0.00000000000E+00 0.  1.
         21   -1    0    0  504  502  0.00000000000E+00 -0.00000000000E+00 -0.20174387370E+03  0.20174387370E+03  0.00000000000E+00 0. -1.
         21    1    1    2  503  502  0.28003328498E+02 -0.43858148021E+02  0.71648258158E+02  0.88550530500E+02  0.00000000000E+00 0. -1.
         21    1    1    2  504  505  0.36782674322E+02  0.74727793571E+02 -0.18041038165E+03  0.19870861599E+03  0.00000000000E+00 0. -1.
         21    1    1    2  505  501 -0.37071228979E+02 -0.64530567150E+02  0.41824557481E+03  0.42481505501E+03  0.00000000000E+00 0.  1.
         -3    1    1    2    0  503 -0.27714773841E+02  0.33660921600E+02  0.10592907600E+04  0.10601877572E+04  0.00000000000E+00 0.  1.
<scales pt_clust_3="45.25526" pt_clust_4="14000.00000" pt_clust_5="83.09832" pt_clust_6="43.60237"></scales>
<clustering>
<clus scale="   43.602">  1  6  2 -1</clus>
<clus scale="   45.255">  1  3  2 -1</clus>
<clus scale="   83.098">  1  5  2 -1</clus>
<clus scale="   83.098">  2  3  1 -1</clus>
</clustering>
</event>
<event>
 6    0  0.3667994E+002  0.1072727E+03  0.7546771E-02  0.1265705E+00
          2   -1    0    0  503    0 -0.00000000000E+00  0.00000000000E+00  0.90216427430E+03  0.90216427430E+03  0.00000000000E+00 0.  1.
         21   -1    0    0  504  502  0.00000000000E+00 -0.00000000000E+00 -0.46162659634E+03  0.46162659634E+03  0.00000000000E+00 0. -1.
         21    1    1    2  503  505  0.77464253260E+02  0.18721863018E+02  0.24800310055E+03  0.26049329467E+03  0.00000000000E+00 0.  1.
         21    1    1    2  504  501  0.33646536814E+02 -0.23997295492E+02 -0.38122607590E+03  0.38345962053E+03  0.00000000000E+00 0. -1.
         21    1    1    2  505  502 -0.19578584191E+02 -0.87546883977E+02 -0.35729226749E+02  0.96562702412E+02  0.00000000000E+00 0. -1.
          2    1    1    2  501    0 -0.91532205884E+02  0.92822316451E+02  0.60948988005E+03  0.62327525302E+03  0.00000000000E+00 0.  1.
<scales pt_clust_3="81.86358" pt_clust_4="41.32747" pt_clust_5="14000.00000" pt_clust_6="107.27265"></scales>
<clustering>
<clus scale="   41.327">  2  4  1 -1</clus>
<clus scale="   81.864">  1  3  2 -1</clus>
<clus scale="  107.273">  1  6  2 -1</clus>
<clus scale="   41.327">  2  3  1 -1</clus>
</clustering>
</event>
<event>
 6    0  0.3667994E+002  0.1655790E+03  0.7546771E-02  0.1182538E+00
          2   -1    0    0  503    0 -0.00000000000E+00  0.00000000000E+00  0.18999549616E+04  0.18999549616E+04  0.00000000000E+00 0.  1.
         21   -1    0    0  501  502  0.00000000000E+00 -0.00000000000E+00 -0.47287017596E+02  0.47287017596E+02  0.00000000000E+00 0.  1.
         21    1    1    2  503  504 -0.31590980751E+02 -0.34780494380E+02  0.47131187648E+03  0.47364813708E+03  0.00000000000E+00 0. -1.
         21    1    1    2  504  505 -0.47093055701E+02  0.38024704436E+02  0.27410713597E+02  0.66445325363E+02  0.00000000000E+00 0.  1.
         21    1    1    2  505  502 -0.16025183270E+01  0.10453229485E+03  0.95656674454E+02  0.14170309841E+03  0.00000000000E+00 0.  1.
          2    1    1    2  501    0  0.80286554779E+02 -0.10777650491E+03  0.12582886795E+04  0.12654454184E+04  0.00000000000E+00 0.  1.
<scales pt_clust_3="46.98588" pt_clust_4="57.18646" pt_clust_5="57.18646" pt_clust_6="148.08769"></scales>
<clustering>
<clus scale="   46.986">  1  3  2 -1</clus>
<clus scale="   57.186">  4  5 -1 -1</clus>
<clus scale="  148.088">  1  6  2 -1</clus>
<clus scale="  165.579">  2  3  1 -1</clus>
</clustering>
</event>
<event>
 6    0  0.3667994E+002  0.1547207E+03  0.7546771E-02  0.1194789E+00
          2   -1    0    0  504    0 -0.00000000000E+00  0.00000000000E+00  0.25820326843E+04  0.25820326843E+04  0.00000000000E+00 0. -1.
         21   -1    0    0  501  502  0.00000000000E+00 -0.00000000000E+00 -0.11027245122E+03  0.11027245122E+03  0.00000000000E+00 0. -1.
         21    1    1    2  503  505  0.26373621103E+02 -0.91817575536E+02  0.14668656791E+03  0.17505137610E+03  0.00000000000E+00 0. -1.
         21    1    1    2  504  503 -0.79931093703E+01 -0.77578522636E+02  0.36726621358E+03  0.37545544158E+03  0.00000000000E+00 0. -1.
         21    1    1    2  505  502  0.56163510325E+02 -0.63151091928E+02 -0.63551765271E+02  0.10574132197E+03  0.00000000000E+00 0. -1.
          2    1    1    2  501    0 -0.74544022058E+02  0.23254719010E+03  0.20213592169E+04  0.20360569959E+04  0.00000000000E+00 0. -1.
<scales pt_clust_3="154.72072" pt_clust_4="77.98921" pt_clust_5="85.01697" pt_clust_6="14000.00000"></scales>
<clustering>
<clus scale="   77.989">  1  4  2 -1</clus>
<clus scale="   85.017">  2  5  1 -1</clus>
<clus scale="  154.721">  2  3  1 -1</clus>
<clus scale="   85.017">  2  3  1 -1</clus>
</clustering>
</event>
<event>
 6    0  0.3667994E+002  0.1548020E+03  0.7546771E-02  0.1194693E+00
         -2   -1    0    0    0  501 -0.00000000000E+00  0.00000000000E+00  0.11568329408E+03  0.11568329408E+03  0.00000000000E+00 0.  1.
         21   -1    0    0  503  502  0.00000000000E+00 -0.00000000000E+00 -0.77669755730E+03  0.77669755730E+03  0.00000000000E+00 0.  1.
         21    1    1    2  503  504 -0.12180912616E+03 -0.81410774310E+02 -0.53166739547E+03  0.55148472036E+03  0.00000000000E+00 0.  1.
         21    1    1    2  504  505 -0.42659522313E+02  0.21969901311E+01 -0.47506939730E+02  0.63887173456E+02  0.00000000000E+00 0. -1.
         21    1    1    2  505  501 -0.29370440911E+02 -0.29827424968E+02 -0.76262283638E+01  0.42549470485E+02  0.00000000000E+00 0.  1.
         -2    1    1    2    0  502  0.19383908939E+03  0.10904120915E+03 -0.74213699655E+02  0.23445948708E+03  0.00000000000E+00 0.  1.
<scales pt_clust_3="154.80204" pt_clust_4="45.10948" pt_clust_5="41.86046" pt_clust_6="14000.00000"></scales>
<clustering>
<clus scale="   41.860">  1  5  2 -1</clus>
<clus scale="   45.109">  1  4  2 -1</clus>
<clus scale="  154.802">  2  3  1 -1</clus>
<clus scale="  154.802">  2  3  1 -1</clus>
</clustering>
</event>
<event>
 6    0  0.3667994E+002  0.7521928E+02  0.7546771E-02  0.1343193E+00
          2   -1    0    0  503    0 -0.00000000000E+00  0.00000000000E+00  0.19632488161E+04  0.19632488161E+04  0.00000000000E+00 0. -1.
         21   -1    0    0  504  502  0.00000000000E+00 -0.00000000000E+00 -0.80294980683E+02  0.80294980683E+02  0.00000000000E+00 0.  1.
         21    1    1    2  503  505  0.19062806176E+02 -0.99926804897E+02  0.99075875364E+03  0.99596770270E+03  0.00000000000E+00 0. -1.
         21    1    1    2  504  501  0.35236628878E+02  0.28523441551E+02  0.22960117321E+03  0.23403398358E+03  0.00000000000E+00 0. -1.
         21    1    1    2  505  502 -0.39997078352E+02  0.11155270488E+02 -0.68352937099E+02  0.79977061376E+02  0.00000000000E+00 0.  1.
          2    1    1    2  501    0 -0.14302356702E+02  0.60248092859E+02  0.73094684562E+03  0.73356504908E+03  0.00000000000E+00 0. -1.
<scales pt_clust_3="75.21928" pt_clust_4="38.62054" pt_clust_5="41.52356" pt_clust_6="14000.00000"></scales>
<clustering>
<clus scale="   41.524">  2  5  1 -1</clus>
<clus scale="   38.621">  2  4  1 -1</clus>
<clus scale="   75.219">  2  3  1 -1</clus>
<clus scale="   41.524">  2  3  1 -1</clus>
</clustering>
</event>
<event>
 6    0  0.3667994E+002  0.8373264E+02  0.7546771E-02  0.1318780E+00
         21   -1    0    0  504  502  0.00000000000E+00  0.00000000000E+00  0.16899139470E+03  0.16899139470E+03  0.00000000000E+00 0.  1.
          1   -1    0    0  505    0 -0.00000000000E+00 -0.00000000000E+00 -0.15841332126E+04  0.15841332126E+04  0.00000000000E+00 0.  1.
         21    1    1    2  503  502 -0.53468366820E+01  0.67673703242E+02 -0.14686361413E+03  0.16179381920E+03  0.00000000000E+00 0.  1.
         21    1    1    2  504  501 -0.75456639516E+01  0.82704289544E+02  0.14220988462E+03  0.16468329556E+03  0.00000000000E+00 0.  1.
         21    1    1    2  505  503  0.40504838857E+02  0.12427469246E+02 -0.16920840643E+03  0.17443213228E+03  0.00000000000E+00 0.  1.
          1    1    1    2  501    0 -0.27612338224E+02 -0.16280546203E+03 -0.12412796819E+04  0.12522153603E+04  0.00000000000E+00 0.  1.
<scales pt_clust_3="69.03784" pt_clust_4="83.73264" pt_clust_5="42.36843" pt_clust_6="14000.00000"></scales>
<clustering>
<clus scale="   42.368">  2  5  1 -1</clus>
<clus scale="   69.038">  2  3  1 -1</clus>
<clus scale="   83.733">  1  4  2 -1</clus>
<clus scale="   83.733">  1  3  2 -1</clus>
</clustering>
</event>
<event>
 6    0  0.3667994E+002  0.1456236E+03  0.7546771E-02  0.1205956E+00
          2   -1    0    0  505    0 -0.00000000000E+00  0.00000000000E+00  0.80507981246E+03  0.80507981246E+03  0.00000000000E+00 0. -1.
         21   -1    0    0  504  502  0.00000000000E+00 -0.00000000000E+00 -0.14211381219E+04  0.14211381219E+04  0.00000000000E+00 0. -1.
         21    1    1    2  503  502 -0.50829789328E+02  0.37376540925E+02  0.10123600633E+03  0.11928705828E+03  0.00000000000E+00 0.  1.
         21    1    1    2  504  501  0.23200630861E+01 -0.14577796147E+03 -0.13970911391E+04  0.14046779871E+04  0.00000000000E+00 0. -1.
         21    1    1    2  505  503 -0.29774881889E+02 -0.11227455032E+02  0.93099096269E+02  0.98387199696E+02  0.00000000000E+00 0. -1.
          2    1    1    2  501    0  0.78284608130E+02  0.11962887558E+03  0.58669772702E+03  0.60386568923E+03  0.00000000000E+00 0. -1.
<scales pt_clust_3="65.91806" pt_clust_4="14000.00000" pt_clust_5="31.82137" pt_clust_6="145.62363"></scales>
<clustering>
<clus scale="   31.821">  1  5  2 -1</clus>
<clus scale="   65.918">  1  3  2 -1</clus>
<clus scale="  145.624">  1  6  2 -1</clus>
<clus scale="  145.624">  2  3  1 -1</clus>
</clustering>
</event>
<event>
 6    0  0.1257695E+003  0.2670462E+03  0.7546771E-02  0.1102982E+00
         21   -1    0    0  505  502  0.00000000000E+00  0.00000000000E+00  0.17585566892E+04  0.17585566892E+04  0.00000000000E+00 0. -1.
          1   -1    0    0  503    0 -0.00000000000E+00 -0.00000000000E+00 -0.24212117112E+04  0.24212117112E+04  0.00000000000E+00 0. -1.
         21    1    1    2  503  502 -0.30768734310E+02  0.22215851505E+02  0.16849574823E+04  0.16853848154E+04  0.00000000000E+00 0. -1.
         21    1    1    2  504  501 -0.21050615141E+03  0.90875496407E+02 -0.29356514547E+03  0.37249387950E+03  0.00000000000E+00 0.  1.
         21    1    1    2  505  504 -0.23369294500E+02 -0.34149586110E+02  0.73907849605E+01  0.42035007544E+02  0.00000000000E+00 0.  1.
          1    1    1    2  501    0  0.26464418022E+03 -0.78941761802E+02 -0.20614381437E+04  0.20798546979E+04  0.00000000000E+00 0. -1.
<scales pt_clust_3="37.95075" pt_clust_4="267.04624" pt_clust_5="42.99959" pt_clust_6="14000.00000"></scales>
<clustering>
<clus scale="   37.951">  1  3  2 -1</clus>
<clus scale="   43.000">  1  5  2 -1</clus>
<clus scale="  267.046">  1  4  2 -1</clus>
<clus scale="   37.951">  1  3  2 -1</clus>
</clustering>
</event>
<event>
 6    0  0.3667994E+002  0.1570439E+03  0.7546771E-02  0.1192075E+00
          2   -1    0    0  505    0 -0.00000000000E+00  0.00000000000E+00  0.10345099753E+04  0.10345099753E+04  0.00000000000E+00 0.  1.
         21   -1    0    0  503  502  0.00000000000E+00 -0.00000000000E+00 -0.52624780332E+03  0.52624780332E+03  0.00000000000E+00 0.  1.
         21    1    1    2  503  504  0.14285844692E+03  0.74196494907E+02 -0.50109779828E+03  0.52631992091E+03  0.00000000000E+00 0.  1.
         21    1    1    2  504  501 -0.93116960162E+02  0.97623432099E+01  0.24299015932E+03  0.26040408818E+03  0.00000000000E+00 0.  1.
         21    1    1    2  505  502 -0.16384209914E+02 -0.25925621818E+02  0.10800561023E+03  0.11227551845E+03  0.00000000000E+00 0.  1.
          2    1    1    2  501    0 -0.33357276844E+02 -0.58033216299E+02  0.65836420073E+03  0.66175825112E+03  0.00000000000E+00 0.  1.
<scales pt_clust_3="14000.00000" pt_clust_4="157.04387" pt_clust_5="30.66888" pt_clust_6="88.82213"></scales>
<clustering>
<clus scale="   30.669">  1  5  2 -1</clus>
<clus scale="   88.822">  1  6  2 -1</clus>
<clus scale="  157.044">  1  4  2 -1</clus>
<clus scale="  157.044">  2  3  1 -1</clus>
</clustering>
</event>
<event>
 6    0  0.3667994E+002  0.1174420E+03  0.7546771E-02  0.1247378E+00
          2   -1    0    0  503    0 -0.00000000000E+00  0.00000000000E+00  0.11459219599E+04  0.11459219599E+04  0.00000000000E+00 0. -1.
         21   -1    0    0  504  502  0.00000000000E+00 -0.00000000000E+00 -0.52838616212E+02  0.52838616212E+02  0.00000000000E+00 0. -1.
         21    1    1    2  503  502  0.85626157608E+02 -0.55928058606E+02  0.17667500269E+02  0.10378789511E+03  0.00000000000E+00 0. -1.
         21    1    1    2  504  505 -0.34849956823E+02  0.12681164976E+02  0.17363570160E+03  0.17755193129E+03  0.00000000000E+00 0. -1.
         21    1    1    2  505  501 -0.22758565852E+02  0.87362101515E+02  0.29778063589E+03  0.31116458059E+03  0.00000000000E+00 0. -1.
          2    1    1    2  501    0 -0.28017634932E+02 -0.44115207884E+02  0.60399950594E+03  0.60625616913E+03  0.00000000000E+00 0. -1.
<scales pt_clust_3="102.51610" pt_clust_4="36.72411" pt_clust_5="36.72411" pt_clust_6="52.26030"></scales>
<clustering>
<clus scale="   36.724">  4  5 -1 -1</clus>
<clus scale="   52.260">  1  6  2 -1</clus>
<clus scale="  102.516">  2  3  1 -1</clus>
<clus scale="  102.516">  2  3  1 -1</clus>
</clustering>
</event>
<event>
 6    0  0.3667994E+002  0.1658625E+03  0.7546771E-02  0.1182233E+00
          2   -1    0    0  505    0 -0.00000000000E+00  0.00000000000E+00  0.75437042014E+03  0.75437042014E+03  0.00000000000E+00 0.  1.
         21   -1    0    0  501  502  0.00000000000E+00 -0.00000000000E+00 -0.15356404610E+03  0.15356404610E+03  0.00000000000E+00 0. -1.
         21    1    1    2  503  504 -0.19828605800E+02 -0.72313168248E+02  0.91271156497E+02  0.11812193665E+03  0.00000000000E+00 0. -1.
         21    1    1    2  504  502  0.15701553336E+03 -0.63810625111E+02 -0.59396826904E+02  0.17959303059E+03  0.00000000000E+00 0. -1.
         21    1    1    2  505  503 -0.44466866074E+02  0.14070065237E+02  0.46871376686E+02  0.66122574562E+02  0.00000000000E+00 0.  1.
          2    1    1    2  501    0 -0.92720061481E+02  0.12205372812E+03  0.52206066777E+03  0.54409692443E+03  0.00000000000E+00 0.  1.
<scales pt_clust_3="75.03732" pt_clust_4="14000.00000" pt_clust_5="46.63978" pt_clust_6="165.86251"></scales>
<clustering>
<clus scale="   46.640">  1  5  2 -1</clus>
<clus scale="   75.037">  1  3  2 -1</clus>
<clus scale="  165.863">  1  6  2 -1</clus>
<clus scale="  165.863">  2  3  1 -1</clus>
</clustering>
</event>
<event>
 6    0  0.3667994E+002  0.8826196E+02  0.7546771E-02  0.1307116E+00
         21   -1    0    0  503  502  0.00000000000E+00  0.00000000000E+00  0.13324460579E+04  0.13324460579E+04  0.00000000000E+00 0.  1.
          2   -1    0    0  504    0 -0.00000000000E+00 -0.00000000000E+00 -0.64571234364E+02  0.64571234364E+02  0.00000000000E+00 0. -1.
         21    1    1    2  503  501 -0.49660754825E+02 -0.72448364356E+02  0.11727060907E+04  0.11759908721E+04  0.00000000000E+00 0.  1.
         21    1    1    2  504  505  0.30243485337E+02  0.12858524601E+02  0.48969317024E+02  0.58974605299E+02  0.00000000000E+00 0.  1.
         21    1    1    2  505  502 -0.49722532001E+02 -0.13638325463E+02  0.31107720002E+02  0.60216479088E+02  0.00000000000E+00 0.  1.
          2    1    1    2  501    0  0.69139801489E+02  0.73228165218E+02  0.15091695798E+02  0.10183533578E+03  0.00000000000E+00 0. -1.
<scales pt_clust_3="88.26196" pt_clust_4="32.86351" pt_clust_5="43.61507" pt_clust_6="14000.00000"></scales>
<clustering>
<clus scale="   32.864">  2  4  1 -1</clus>
<clus scale="   43.615">  2  5  1 -1</clus>
<clus scale="   88.262">  1  3  2 -1</clus>
<clus scale="   88.262">  1  3  2 -1</clus>
</clustering>
</event>
<event>
 6    0  0.3667994E+002  0.1227157E+03  0.7546771E-02  0.1238683E+00
          2   -1    0    0  505    0 -0.00000000000E+00  0.00000000000E+00  0.34900653376E+04  0.34900653376E+04  0.00000000000E+00 0. -1.
         21   -1    0    0  503  502  0.00000000000E+00 -0.00000000000E+00 -0.17227765059E+02  0.17227765059E+02  0.00000000000E+00 0. -1.
         21    1    1    2  503  501  0.40104836136E+02 -0.32377797008E+02  0.34907052486E+03  0.35285542499E+03  0.00000000000E+00 0.  1.
         21    1    1    2  504  502 -0.12825669561E+03  0.46568200244E+02  0.37808969347E+03  0.40195794997E+03  0.00000000000E+00 0. -1.
         21    1    1    2  505  504  0.66188743884E+02  0.34711736615E+02  0.24957010432E+04  0.24968198876E+04  0.00000000000E+00 0. -1.
          2    1    1    2  501    0  0.21963115588E+02 -0.48902139850E+02  0.24997631108E+03  0.25565984008E+03  0.00000000000E+00 0. -1.
<scales pt_clust_3="30.61561" pt_clust_4="118.67718" pt_clust_5="74.73857" pt_clust_6="30.61561"></scales>
<clustering>
<clus scale="   30.616">  3  6 -1 -1</clus>
<clus scale="   74.739">  1  5  2 -1</clus>
<clus scale="  118.677">  2  4  1 -1</clus>
<clus scale="  118.677">  2  3  1 -1</clus>
</clustering>
</event>
<event>
 6    0  0.3667994E+002  0.1313220E+03  0.7546771E-02  0.1225507E+00
         21   -1    0    0  504  502  0.00000000000E+00  0.00000000000E+00  0.20257659282E+03  0.20257659282E+03  0.00000000000E+00 0. -1.
          2   -1    0    0  505    0 -0.00000000000E+00 -0.00000000000E+00 -0.56768318846E+03  0.56768318846E+03  0.00000000000E+00 0.  1.
         21    1    1    2  503  502  0.89737882193E+01  0.70204807220E+02 -0.88150777325E+02  0.11304779244E+03  0.00000000000E+00 0. -1.
         21    1    1    2  504  501  0.66158100772E+02  0.10927956238E+03  0.12567977420E+03  0.17920469496E+03  0.00000000000E+00 0. -1.
         21    1    1    2  505  503 -0.48022943975E+02  0.16571755323E+02 -0.39177149450E+02  0.64153528832E+02  0.00000000000E+00 0. -1.
          2    1    1    2  501    0 -0.27108945017E+02 -0.19605612493E+03 -0.36345844306E+03  0.41385376506E+03  0.00000000000E+00 0.  1.
<scales pt_clust_3="73.43655" pt_clust_4="14000.00000" pt_clust_5="50.80183" pt_clust_6="131.32200"></scales>
<clustering>
<clus scale="   50.802">  2  5  1 -1</clus>
<clus scale="   73.437">  2  3  1 -1</clus>
<clus scale="  131.322">  2  6  1 -1</clus>
<clus scale="  131.322">  1  3  2 -1</clus>
</clustering>
</event>
<event>
 6    0  0.3667994E+002  0.7858988E+02  0.7546771E-02  0.1333101E+00
          2   -1    0    0  504    0 -0.00000000000E+00  0.00000000000E+00  0.66304869763E+03  0.66304869763E+03  0.00000000000E+00 0.  1.
         21   -1    0    0  503  502  0.00000000000E+00 -0.00000000000E+00 -0.65699272693E+02  0.65699272693E+02  0.00000000000E+00 0. -1.
         21    1    1    2  503  501 -0.25896929109E+02 -0.59133834302E+02  0.61719446398E+02  0.89312660693E+02  0.00000000000E+00 0. -1.
         21    1    1    2  504  505 -0.50704818429E+02 -0.19942381352E+02  0.12371393398E+03  0.13518067408E+03  0.00000000000E+00 0.  1.
         21    1    1    2  505  502 -0.15532852170E+02  0.30708478709E+02 -0.32791456204E+02  0.47534826823E+02  0.00000000000E+00 0. -1.
          2    1    1    2  501    0  0.92134599708E+02  0.48367736944E+02  0.44470750076E+03  0.45671980872E+03  0.00000000000E+00 0.  1.
<scales pt_clust_3="54.64081" pt_clust_4="14000.00000" pt_clust_5="34.41337" pt_clust_6="78.58988"></scales>
<clustering>
<clus scale="   34.413">  2  5  1 -1</clus>
<clus scale="   54.641">  2  3  1 -1</clus>
<clus scale="   78.590">  2  6  1 -1</clus>
<clus scale="   34.413">  2  3  1 -1</clus>
</clustering>
</event>
<event>
 6    0  0.3667994E+002  0.8430160E+02  0.7546771E-02  0.1317269E+00
          2   -1    0    0  503    0 -0.00000000000E+00  0.00000000000E+00  0.13977735823E+04  0.13977735823E+04  0.00000000000E+00 0. -1.
         21   -1    0    0  504  502  0.00000000000E+00 -0.00000000000E+00 -0.22757677343E+02  0.22757677343E+02  0.00000000000E+00 0.  1.
         21    1    1    2  503  505 -0.87643587571E+02 -0.64358240388E+02  0.55985460574E+03  0.57031619398E+03  0.00000000000E+00 0.  1.
         21    1    1    2  504  501  0.26578802740E+02  0.21710862216E+02  0.85388436913E+02  0.92027058258E+02  0.00000000000E+00 0. -1.
         21    1    1    2  505  502  0.20981131456E+02 -0.22903550432E+02  0.76501910534E+01  0.31989153204E+02  0.00000000000E+00 0.  1.
          2    1    1    2  501    0  0.40083653375E+02  0.65550928604E+02  0.72212267129E+03  0.72619885424E+03  0.00000000000E+00 0. -1.
<scales pt_clust_3="14000.00000" pt_clust_4="36.20053" pt_clust_5="31.06092" pt_clust_6="84.30160"></scales>
<clustering>
<clus scale="   31.061">  2  5  1 -1</clus>
<clus scale="   36.201">  2  4  1 -1</clus>
<clus scale="   84.302">  1  6  2 -1</clus>
<clus scale="   31.061">  2  3  1 -1</clus>
</clustering>
</event>
<event>
 6    0  0.3667994E+002  0.2135672E+03  0.7546771E-02  0.1138772E+00
         21   -1    0    0  504  502  0.00000000000E+00  0.00000000000E+00  0.78282590863E+03  0.78282590863E+03  0.00000000000E+00 0.  1.
          2   -1    0    0  505    0 -0.00000000000E+00 -0.00000000000E+00 -0.27169997424E+03  0.27169997424E+03  0.00000000000E+00 0.  1.
         21    1    1    2  503  501  0.21803535396E+02  0.24184465758E+02  0.24468918335E+01  0.32653787214E+02  0.00000000000E+00 0. -1.
         21    1    1    2  504  503  0.29123651070E+02 -0.98021449843E+01  0.54605089752E+03  0.54691484874E+03  0.00000000000E+00 0.  1.
         21    1    1    2  505  502  0.12563145742E+03 -0.14963405194E+03  0.93818686572E+02  0.21673845654E+03  0.00000000000E+00 0.  1.
          2    1    1    2  501    0 -0.17655864388E+03  0.13525173116E+03 -0.13119054154E+03  0.25821879037E+03  0.00000000000E+00 0.  1.
<scales pt_clust_3="33.53490" pt_clust_4="30.72896" pt_clust_5="213.56715" pt_clust_6="14000.00000"></scales>
<clustering>
<clus scale="   30.729">  1  4  2 -1</clus>
<clus scale="   33.535">  1  3  2 -1</clus>
<clus scale="  213.567">  1  5  2 -1</clus>
<clus scale="   30.729">  1  3  2 -1</clus>
</clustering>
</event>
<event>
 6    0  0.3667994E+002  0.1384684E+03  0.7546771E-02  0.1215405E+00
         21   -1    0    0  504  502  0.00000000000E+00  0.00000000000E+00  0.11104818414E+04  0.11104818414E+04  0.00000000000E+00 0. -1.
          2   -1    0    0  505    0 -0.00000000000E+00 -0.00000000000E+00 -0.82664091869E+03  0.82664091869E+03  0.00000000000E+00 0. -1.
         21    1    1    2  503  502 -0.93784737786E+01 -0.52235455995E+02 -0.41585618417E+02  0.67423010112E+02  0.00000000000E+00 0. -1.
         21    1    1    2  504  501  0.12587955286E+03  0.57461257229E+02  0.10802458958E+04  0.10890723820E+04  0.00000000000E+00 0. -1.
         21    1    1    2  505  503  0.31982607914E+02  0.31202967627E+02 -0.21388636640E+03  0.21850375313E+03  0.00000000000E+00 0.  1.
          2    1    1    2  501    0 -0.14848368699E+03 -0.36428768861E+02 -0.54093298829E+03  0.56212361481E+03  0.00000000000E+00 0. -1.
<scales pt_clust_3="49.87783" pt_clust_4="14000.00000" pt_clust_5="44.68235" pt_clust_6="138.46843"></scales>
<clustering>
<clus scale="   44.682">  2  5  1 -1</clus>
<clus scale="   49.878">  2  3  1 -1</clus>
<clus scale="  138.468">  2  6  1 -1</clus>
<clus scale="  138.468">  1  3  2 -1</clus>
</clustering>
</event>
<event>
 6    0  0.3667994E+002  0.1375991E+03  0.7546771E-02  0.1216597E+00
         21   -1    0    0  504  502  0.00000000000E+00  0.00000000000E+00  0.19487484641E+04  0.19487484641E+04  0.00000000000E+00 0. -1.
          1   -1    0    0  503    0 -0.00000000000E+00 -0.00000000000E+00 -0.62347619130E+03  0.62347619130E+03  0.00000000000E+00 0.  1.
         21    1    1    2  503  505 -0.36405907326E+02  0.48406503882E+01 -0.75781700289E+02  0.84212161135E+02  0.00000000000E+00 0.  1.
         21    1    1    2  504  501  0.48054952596E+02 -0.13542229350E+03  0.35603476006E+03  0.38393909206E+03  0.00000000000E+00 0. -1.
         21    1    1    2  505  502  0.26369252277E+02  0.19050154748E+02  0.15678202729E+04  0.15681577261E+04  0.00000000000E+00 0. -1.
          1    1    1    2  501    0 -0.38018297547E+02  0.11153148836E+03 -0.52280105979E+03  0.53591567616E+03  0.00000000000E+00 0.  1.
<scales pt_clust_3="36.46557" pt_clust_4="14000.00000" pt_clust_5="32.53069" pt_clust_6="137.59909"></scales>
<clustering>
<clus scale="   32.531">  1  5  2 -1</clus>
<clus scale="   36.466">  2  3  1 -1</clus>
<clus scale="  137.599">  2  6  1 -1</clus>
<clus scale="   32.531">  1  3  2 -1</clus>
</clustering>
</event>
<event>
 6    0  0.3667994E+002  0.1106774E+03  0.7546771E-02  0.1259321E+00
         21   -1    0    0  503  502  0.00000000000E+00  0.00000000000E+00  0.37907477618E+02  0.37907477618E+02  0.00000000000E+00 0.  1.
          2   -1    0    0  505    0 -0.00000000000E+00 -0.00000000000E+00 -0.20452991244E+04  0.20452991244E+04  0.00000000000E+00 0. -1.
         21    1    1    2  503  501  0.18936267775E+02  0.67984825972E+02 -0.51913069988E+03  0.52390571896E+03  0.00000000000E+00 0. -1.
         21    1    1    2  504  502 -0.21386206997E+02 -0.11684720450E+03 -0.71133875248E+02  0.13845817873E+03  0.00000000000E+00 0.  1.
         21    1    1    2  505  504 -0.37260213843E+02  0.11172465577E+02 -0.32085610608E+03  0.32320548933E+03  0.00000000000E+00 0.  1.
          2    1    1    2  501    0  0.39710153065E+02  0.37689912952E+02 -0.10962709656E+04  0.10976372150E+04  0.00000000000E+00 0. -1.
<scales pt_clust_3="110.67742" pt_clust_4="14000.00000" pt_clust_5="38.89920" pt_clust_6="47.57042"></scales>
<clustering>
<clus scale="   38.899">  2  5  1 -1</clus>
<clus scale="   47.570">  2  6  1 -1</clus>
<clus scale="  110.677">  2  3  1 -1</clus>
<clus scale="  110.677">  1  3  2 -1</clus>
</clustering>
</event>
<event>
 6    0  0.3667994E+002  0.7545279E+02  0.7546771E-02  0.1342475E+00
         21   -1    0    0  501  502  0.00000000000E+00  0.00000000000E+00  0.34074275816E+02  0.34074275816E+02  0.00000000000E+00 0.  1.
          2   -1    0    0  504    0 -0.00000000000E+00 -0.00000000000E+00 -0.77935255631E+03  0.77935255631E+03  0.00000000000E+00 0. -1.
         21    1    1    2  503  502  0.25757064119E+02 -0.34711125446E+02 -0.18797585834E+02  0.47134253096E+02  0.00000000000E+00 0.  1.
         21    1    1    2  504  505  0.70511040013E+02 -0.27805685513E+02 -0.44913567661E+03  0.45548635425E+03  0.00000000000E+00 0. -1.
         21    1    1    2  505  503 -0.48778190346E+02 -0.83438119068E+01 -0.63007242954E+02  0.80117686657E+02  0.00000000000E+00 0.  1.
          2    1    1    2  501    0 -0.47489913785E+02  0.70860622866E+02 -0.21433777510E+03  0.23068853812E+03  0.00000000000E+00 0. -1.
<scales pt_clust_3="43.22370" pt_clust_4="14000.00000" pt_clust_5="44.30615" pt_clust_6="75.45279"></scales>
<clustering>
<clus scale="   43.224">  1  3  2 -1</clus>
<clus scale="   44.306">  1  5  2 -1</clus>
<clus scale="   75.453">  1  6  2 -1</clus>
<clus scale="   43.224">  1  3  2 -1</clus>
</clustering>
</event>
<event>
 6    0  0.3667994E+002  0.7814136E+02  0.7546771E-02  0.1334410E+00
         21   -1    0    0  501  502  0.00000000000E+00  0.00000000000E+00  0.94465626880E+02  0.94465626880E+02  0.00000000000E+00 0. -1.
          1   -1    0    0  504    0 -0.00000000000E+00 -0.00000000000E+00 -0.12424675488E+04  0.12424675488E+04  0.00000000000E+00 0.  1.
         21    1    1    2  503  502 -0.42119504268E+02 -0.65009597339E+02  0.64460851119E+02  0.10077450924E+03  0.00000000000E+00 0. -1.
         21    1    1    2  504  505 -0.30786413062E+02 -0.23628006143E+02 -0.15982334588E+03  0.16446758888E+03  0.00000000000E+00 0.  1.
         21    1    1    2  505  503 -0.47023154645E+02  0.34974686283E+02 -0.18224045330E+03  0.19143142002E+03  0.00000000000E+00 0. -1.
          1    1    1    2  501    0  0.11992907197E+03  0.53662917200E+02 -0.87039897382E+03  0.88025965750E+03  0.00000000000E+00 0.  1.
<scales pt_clust_3="78.14136" pt_clust_4="38.80832" pt_clust_5="60.78117" pt_clust_6="14000.00000"></scales>
<clustering>
<clus scale="   38.808">  2  4  1 -1</clus>
<clus scale="   60.781">  2  5  1 -1</clus>
<clus scale="   78.141">  1  3  2 -1</clus>
<clus scale="   78.141">  1  3  2 -1</clus>
</clustering>
</event>
<event>
 6    0  0.3667994E+002  0.6440110E+02  0.7546771E-02  0.1380239E+00
         21   -1    0    0  503  502  0.00000000000E+00  0.00000000000E+00  0.13037973659E+02  0.13037973659E+02  0.00000000000E+00 0. -1.
          2   -1    0    0  505    0 -0.00000000000E+00 -0.00000000000E+00 -0.28920673944E+04  0.28920673944E+04  0.00000000000E+00 0.  1.
         21    1    1    2  503  501 -0.45692678884E+02  0.62871659630E+02 -0.10671369244E+04  0.10699634956E+04  0.00000000000E+00 0.  1.
         21    1    1    2  504  502 -0.25307757261E+01 -0.49131509107E+02 -0.64359458776E+02  0.81008949794E+02  0.00000000000E+00 0. -1.
         21    1    1    2  505  504  0.78360371959E+02  0.37484364758E+02 -0.79098485300E+03  0.79574019829E+03  0.00000000000E+00 0.  1.
          2    1    1    2  501    0 -0.30136917349E+02 -0.51224515282E+02 -0.95654818461E+03  0.95839272443E+03  0.00000000000E+00 0.  1.
<scales pt_clust_3="66.89649" pt_clust_4="49.19665" pt_clust_5="64.40110" pt_clust_6="14000.00000"></scales>
<clustering>
<clus scale="   49.197">  1  4  2 -1</clus>
<clus scale="   66.896">  1  3  2 -1</clus>
<clus scale="   64.401">  1  5  2 -1</clus>
<clus scale="   49.197">  1  3  2 -1</clus>
</clustering>
</event>
<event>
 6    0  0.3667994E+002  0.9611775E+02  0.7546771E-02  0.1288678E+00
         21   -1    0    0  504  502  0.00000000000E+00  0.00000000000E+00  0.48336796102E+02  0.48336796102E+02  0.00000000000E+00 0. -1.
          2   -1    0    0  503    0 -0.00000000000E+00 -0.00000000000E+00 -0.27472662217E+04  0.27472662217E+04  0.00000000000E+00 0.  1.
         21    1    1    2  503  505  0.20631932458E+01 -0.78972789932E+02 -0.33722451900E+03  0.34635434822E+03  0.00000000000E+00 0.  1.
         21    1    1    2  504  501  0.51328629094E+02  0.28607407638E+02 -0.11680780416E+04  0.11695551817E+04  0.00000000000E+00 0.  1.
         21    1    1    2  505  502 -0.58739404035E+02  0.82420879215E+02 -0.17012180459E+02  0.10263007942E+03  0.00000000000E+00 0. -1.
          2    1    1    2  501    0  0.53475816956E+01 -0.32055496921E+02 -0.11766146846E+04  0.11770634085E+04  0.00000000000E+00 0.  1.
<scales pt_clust_3="14000.00000" pt_clust_4="55.51221" pt_clust_5="96.11775" pt_clust_6="32.49848"></scales>
<clustering>
<clus scale="   32.498">  2  6  1 -1</clus>
<clus scale="   55.512">  2  4  1 -1</clus>
<clus scale="   96.118">  1  5  2 -1</clus>
<clus scale="   96.118">  1  3  2 -1</clus>
</clustering>
</event>
<event>
 6    0  0.3667994E+002  0.1605279E+03  0.7546771E-02  0.1188102E+00
          2   -1    0    0  505    0 -0.00000000000E+00  0.00000000000E+00  0.80789538884E+03  0.80789538884E+03  0.00000000000E+00 0.  1.
         21   -1    0    0  504  502  0.00000000000E+00 -0.00000000000E+00 -0.16479285094E+03  0.16479285094E+03  0.00000000000E+00 0.  1.
         21    1    1    2  503  502 -0.14970177653E+03  0.78103242810E+02 -0.71429878000E+02  0.18333839180E+03  0.00000000000E+00 0.  1.
         21    1    1    2  504  501  0.78379867097E+02 -0.12979186163E+03  0.14460273241E+03  0.20952155291E+03  0.00000000000E+00 0.  1.
         21    1    1    2  505  503  0.44949461254E+02  0.24029433888E+02  0.15549935282E+03  0.16363959328E+03  0.00000000000E+00 0.  1.
          2    1    1    2  501    0  0.26372448184E+02  0.27659184934E+02  0.41443033066E+03  0.41618870180E+03  0.00000000000E+00 0.  1.
<scales pt_clust_3="160.52788" pt_clust_4="14000.00000" pt_clust_5="65.90222" pt_clust_6="38.21697"></scales>
<clustering>
<clus scale="   38.217">  1  6  2 -1</clus>
<clus scale="   65.902">  1  5  2 -1</clus>
<clus scale="  160.528">  2  3  1 -1</clus>
<clus scale="  160.528">  2  3  1 -1</clus>
</clustering>
</event>
<event>
 6    0  0.3667994E+002  0.2160336E+03  0.7546771E-02  0.1136875E+00
          2   -1    0    0  503    0 -0.00000000000E+00  0.00000000000E+00  0.10137112401E+04  0.10137112401E+04  0.00000000000E+00 0. -1.
         21   -1    0    0  501  502  0.00000000000E+00 -0.00000000000E+00 -0.14503654735E+04  0.14503654735E+04  0.00000000000E+00 0. -1.
         21    1    1    2  503  505  0.48323276254E+02  0.13720984697E+02  0.45301127266E+02  0.67643156199E+02  0.00000000000E+00 0.  1.
         21    1    1    2  504  502 -0.75569207400E+02  0.20251644533E+03 -0.13999634847E+04  0.14165526373E+04  0.00000000000E+00 0. -1.
         21    1    1    2  505  504 -0.73462641136E+02 -0.36828563508E+02  0.72135291501E+02  0.10934625285E+03  0.00000000000E+00 0.  1.
          2    1    1    2  501    0  0.10070857228E+03 -0.17940886652E+03  0.84587283257E+03  0.87053466720E+03  0.00000000000E+00 0. -1.
<scales pt_clust_3="50.23350" pt_clust_4="14000.00000" pt_clust_5="77.50447" pt_clust_6="216.03356"></scales>
<clustering>
<clus scale="   50.233">  1  3  2 -1</clus>
<clus scale="   77.504">  1  5  2 -1</clus>
<clus scale="  216.034">  1  6  2 -1</clus>
<clus scale="  216.034">  2  3  1 -1</clus>
</clustering>
</event>
<event>
 6    0  0.3667994E+002  0.1794389E+03  0.7546771E-02  0.1168347E+00
          2   -1    0    0  504    0 -0.00000000000E+00  0.00000000000E+00  0.56401930999E+03  0.56401930999E+03  0.00000000000E+00 0. -1.
         21   -1    0    0  505  502  0.00000000000E+00 -0.00000000000E+00 -0.21025479104E+03  0.21025479104E+03  0.00000000000E+00 0. -1.
         21    1    1    2  503  502  0.15460925142E+03 -0.12869403513E+03  0.78980593442E+02  0.21611133576E+03  0.00000000000E+00 0.  1.
         21    1    1    2  504  503  0.45341300952E+01  0.30567281887E+02  0.87852196487E+02  0.93128542806E+02  0.00000000000E+00 0.  1.
         21    1    1    2  505  501  0.19111420790E+01  0.45681881978E+02 -0.11226626788E+03  0.12121964243E+03  0.00000000000E+00 0. -1.
          2    1    1    2  501    0 -0.16105452360E+03  0.52444871268E+02  0.29919799690E+03  0.34381458003E+03  0.00000000000E+00 0. -1.
<scales pt_clust_3="14000.00000" pt_clust_4="30.90173" pt_clust_5="46.01237" pt_clust_6="179.43885"></scales>
<clustering>
<clus scale="   30.902">  1  4  2 -1</clus>
<clus scale="   46.012">  2  5  1 -1</clus>
<clus scale="  179.439">  1  6  2 -1</clus>
<clus scale="   46.012">  2  3  1 -1</clus>
</clustering>
</event>
<event>
 6    0  0.3667994E+002  0.1146328E+03  0.7546771E-02  0.1252223E+00
         -3   -1    0    0    0  501 -0.00000000000E+00  0.00000000000E+00  0.21872075077E+02  0.21872075077E+02  0.00000000000E+00 0. -1.
         21   -1    0    0  505  502  0.00000000000E+00 -0.00000000000E+00 -0.19213892085E+04  0.19213892085E+04  0.00000000000E+00 0. -1.
         21    1    1    2  503  501  0.84489706878E+01  0.39914717733E+02 -0.10311772292E+03  0.11089560216E+03  0.00000000000E+00 0.  1.
         21    1    1    2  504  503  0.54566347617E+02  0.28617713733E+02 -0.15124359038E+03  0.16331283924E+03  0.00000000000E+00 0. -1.
         21    1    1    2  505  504  0.39601267131E+02  0.22372997215E+01 -0.13234019933E+04  0.13239962620E+04  0.00000000000E+00 0. -1.
         -3    1    1    2    0  502 -0.10261658544E+03 -0.70769731188E+02 -0.32175382680E+03  0.34505658017E+03  0.00000000000E+00 0. -1.
<scales pt_clust_3="34.74323" pt_clust_4="34.74323" pt_clust_5="39.66442" pt_clust_6="106.38477"></scales>
<clustering>
<clus scale="   34.743">  3  4 -1 -1</clus>
<clus scale="   39.664">  2  5  1 -1</clus>
<clus scale="  106.385">  2  6  1 -1</clus>
<clus scale="   39.664">  2  3  1 -1</clus>
</clustering>
</event>
<event>
 6    0  0.3667994E+002  0.1338552E+03  0.7546771E-02  0.1221845E+00
          4   -1    0    0  504    0 -0.00000000000E+00  0.00000000000E+00  0.22067314826E+04  0.22067314826E+04  0.00000000000E+00 0.  1.
         21   -1    0    0  505  502  0.00000000000E+00 -0.00000000000E+00 -0.10928406853E+03  0.10928406853E+03  0.00000000000E+00 0.  1.
         21    1    1    2  503  502 -0.38859092290E+02  0.22754920588E+01  0.72130635451E+02  0.81963622958E+02  0.00000000000E+00 0.  1.
         21    1    1    2  504  503 -0.61221861048E+02  0.43204772388E+01  0.76498355880E+03  0.76744161213E+03  0.00000000000E+00 0.  1.
         21    1    1    2  505  501  0.43722146491E+02  0.13131788958E+03 -0.50505406165E+02  0.14733231237E+03  0.00000000000E+00 0.  1.
          4    1    1    2  501    0  0.56358806847E+02 -0.13791385888E+03  0.13108386260E+04  0.13192780037E+04  0.00000000000E+00 0.  1.
<scales pt_clust_3="38.92566" pt_clust_4="61.83248" pt_clust_5="14000.00000" pt_clust_6="133.85515"></scales>
<clustering>
<clus scale="   38.926">  2  3  1 -1</clus>
<clus scale="   61.832">  1  4  2 -1</clus>
<clus scale="  133.855">  1  6  2 -1</clus>
<clus scale="   38.926">  2  3  1 -1</clus>
</clustering>
</event>
<event>
 6    0  0.3667994E+002  0.8625771E+02  0.7546771E-02  0.1312176E+00
         21   -1    0    0  505  502  0.00000000000E+00  0.00000000000E+00  0.18598235950E+03  0.18598235950E+03  0.00000000000E+00 0.  1.
         -1   -1    0    0    0  501 -0.00000000000E+00 -0.00000000000E+00 -0.39087436337E+03  0.39087436337E+03  0.00000000000E+00 0. -1.
         21    1    1    2  503  501  0.38036315985E+02 -0.29421359076E+02 -0.16551432708E+03  0.17235826110E+03  0.00000000000E+00 0. -1.
         21    1    1    2  504  503  0.16699448201E+02  0.48025475200E+02 -0.58191045665E+02  0.77275582391E+02  0.00000000000E+00 0.  1.
         21    1    1    2  505  504  0.23228442948E+02 -0.83208472032E+02  0.14295148848E+03  0.16702795705E+03  0.00000000000E+00 0.  1.
         -1    1    1    2    0  502 -0.77964207133E+02  0.64604355908E+02 -0.12413811961E+03  0.16019492231E+03  0.00000000000E+00 0. -1.
<scales pt_clust_3="48.08719" pt_clust_4="48.22808" pt_clust_5="14000.00000" pt_clust_6="86.25771"></scales>
<clustering>
<clus scale="   48.087">  2  3  1 -1</clus>
<clus scale="   48.228">  2  4  1 -1</clus>
<clus scale="   86.258">  2  6  1 -1</clus>
<clus scale="   86.258">  1  3  2 -1</clus>
</clustering>
</event>
<event>
 6    0  0.3667994E+002  0.8323073E+02  0.7546771E-02  0.1320125E+00
          2   -1    0    0  504    0 -0.00000000000E+00  0.00000000000E+00  0.72514145099E+03  0.72514145099E+03  0.00000000000E+00 0. -1.
         21   -1    0    0  505  502  0.00000000000E+00 -0.00000000000E+00 -0.39668617685E+02  0.39668617685E+02  0.00000000000E+00 0. -1.
         21    1    1    2  503  502  0.30774742814E+02 -0.71039078309E+02  0.61408860147E+02  0.98816413347E+02  0.00000000000E+00 0. -1.
         21    1    1    2  504  503  0.24286884319E+02 -0.20333188495E+02  0.88857849260E+02  0.94334557185E+02  0.00000000000E+00 0. -1.
         21    1    1    2  505  501  0.19141637139E+02  0.11986175552E+03  0.32156049721E+03  0.34370684613E+03  0.00000000000E+00 0. -1.
          2    1    1    2  501    0 -0.74203264272E+02 -0.28489488716E+02  0.21364562669E+03  0.22795225202E+03  0.00000000000E+00 0. -1.
<scales pt_clust_3="14000.00000" pt_clust_4="31.67477" pt_clust_5="83.23073" pt_clust_6="74.74794"></scales>
<clustering>
<clus scale="   31.675">  1  4  2 -1</clus>
<clus scale="   74.748">  1  6  2 -1</clus>
<clus scale="   83.231">  1  5  2 -1</clus>
<clus scale="   83.231">  2  3  1 -1</clus>
</clustering>
</event>
<event>
 6    0  0.3667994E+002  0.5776179E+02  0.7546771E-02  0.1407472E+00
          1   -1    0    0  504    0 -0.00000000000E+00  0.00000000000E+00  0.11960109007E+04  0.11960109007E+04  0.00000000000E+00 0. -1.
         21   -1    0    0  503  502  0.00000000000E+00 -0.00000000000E+00 -0.54820218624E+02  0.54820218624E+02  0.00000000000E+00 0.  1.
         21    1    1    2  503  501 -0.19273192628E+02 -0.27265158975E+02  0.67851695752E+02  0.75622069956E+02  0.00000000000E+00 0.  1.
         21    1    1    2  504  505  0.42884909351E+02 -0.68287157776E+02  0.25293538861E+03  0.26547798813E+03  0.00000000000E+00 0. -1.
         21    1    1    2  505  502  0.29865913534E+02  0.77207994893E+02 -0.44876040382E+01  0.82904679341E+02  0.00000000000E+00 0.  1.
          1    1    1    2  501    0 -0.53477630256E+02  0.18344321858E+02  0.82489120180E+03  0.82682638195E+03  0.00000000000E+00 0. -1.
<scales pt_clust_3="33.38929" pt_clust_4="14000.00000" pt_clust_5="55.44447" pt_clust_6="57.76179"></scales>
<clustering>
<clus scale="   33.389">  2  3  1 -1</clus>
<clus scale="   55.444">  2  5  1 -1</clus>
<clus scale="   57.762">  1  6  2 -1</clus>
<clus scale="   33.389">  2  3  1 -1</clus>
</clustering>
</event>
<event>
 6    0  0.3667994E+002  0.1889491E+03  0.7546771E-02  0.1159413E+00
         21   -1    0    0  504  502  0.00000000000E+00  0.00000000000E+00  0.26798693776E+02  0.26798693776E+02  0.00000000000E+00 0. -1.
          2   -1    0    0  503    0 -0.00000000000E+00 -0.00000000000E+00 -0.27571472496E+04  0.27571472496E+04  0.00000000000E+00 0. -1.
         21    1    1    2  503  505 -0.54086711367E+02  0.53051789934E+02 -0.82440776754E+03  0.82788165335E+03  0.00000000000E+00 0.  1.
         21    1    1    2  504  501 -0.67013722585E+02  0.19801737837E+02 -0.26706343501E+03  0.27605402760E+03  0.00000000000E+00 0. -1.
         21    1    1    2  505  502  0.20372590240E+03 -0.12026702505E+03 -0.14422174473E+04  0.14614922394E+04  0.00000000000E+00 0. -1.
          2    1    1    2  501    0 -0.82625468444E+02  0.47413497283E+02 -0.19665990603E+03  0.21851802306E+03  0.00000000000E+00 0. -1.
<scales pt_clust_3="75.76190" pt_clust_4="44.10912" pt_clust_5="181.79484" pt_clust_6="44.10912"></scales>
<clustering>
<clus scale="   44.109">  4  6 -1 -1</clus>
<clus scale="   75.762">  2  3  1 -1</clus>
<clus scale="  181.795">  2  5  1 -1</clus>
<clus scale="  188.949">  1  3  2 -1</clus>
</clustering>
</event>
<event>
 6    0  0.3667994E+002  0.1412146E+03  0.7546771E-02  0.1211704E+00
         -1   -1    0    0    0  501 -0.00000000000E+00  0.00000000000E+00  0.14178604585E+04  0.14178604585E+04  0.00000000000E+00 0.  1.
         21   -1    0    0  505  502  0.00000000000E+00 -0.00000000000E+00 -0.20884467400E+03  0.20884467400E+03  0.00000000000E+00 0. -1.
         21    1    1    2  503  502  0.25058822436E+02 -0.32148799898E+02  0.27205281397E+02  0.49006298091E+02  0.00000000000E+00 0. -1.
         21    1    1    2  504  501  0.34835280115E+02  0.18116331747E+02  0.12459403319E+04  0.12465588670E+04  0.00000000000E+00 0.  1.
         21    1    1    2  505  504 -0.13449848643E+03  0.15715246789E+02 -0.16002526157E+03  0.20963037989E+03  0.00000000000E+00 0. -1.
         -1    1    1    2    0  503  0.74604383874E+02 -0.16827786378E+01  0.95895432786E+02  0.12150958755E+03  0.00000000000E+00 0.  1.
<scales pt_clust_3="35.56402" pt_clust_4="39.26447" pt_clust_5="130.75549" pt_clust_6="35.56402"></scales>
<clustering>
<clus scale="   39.264">  1  4  2 -1</clus>
<clus scale="   35.564">  3  6 -1 -1</clus>
<clus scale="  130.755">  2  5  1 -1</clus>
<clus scale="  130.755">  2  3  1 -1</clus>
</clustering>
</event>
<event>
 6    0  0.3667994E+002  0.8349221E+02  0.7546771E-02  0.1319423E+00
         21   -1    0    0  504  502  0.00000000000E+00  0.00000000000E+00  0.10351298946E+03  0.10351298946E+03  0.00000000000E+00 0. -1.
          2   -1    0    0  505    0 -0.00000000000E+00 -0.00000000000E+00 -0.89807246659E+03  0.89807246659E+03  0.00000000000E+00 0. -1.
         21    1    1    2  503  501 -0.43298591081E+02 -0.22428613345E+02 -0.23484466058E+03  0.23985375813E+03  0.00000000000E+00 0. -1.
         21    1    1    2  504  503  0.65599762655E+02 -0.33226392783E+02  0.71706706951E+02  0.10270917125E+03  0.00000000000E+00 0. -1.
         21    1    1    2  505  502  0.45795539070E+02  0.55571561690E+02 -0.99852680676E+02  0.12310965724E+03  0.00000000000E+00 0. -1.
          2    1    1    2  501    0 -0.68096710645E+02  0.83444437990E-01 -0.53156884283E+03  0.53591286944E+03  0.00000000000E+00 0. -1.
<scales pt_clust_3="32.94793" pt_clust_4="73.85774" pt_clust_5="72.00993" pt_clust_6="32.94793"></scales>
<clustering>
<clus scale="   32.948">  3  6 -1 -1</clus>
<clus scale="   72.010">  2  5  1 -1</clus>
<clus scale="   73.858">  1  4  2 -1</clus>
<clus scale="   73.858">  1  3  2 -1</clus>
</clustering>
</event>
<event>
 6    0  0.3667994E+002  0.9723668E+02  0.7546771E-02  0.1286217E+00
         -3   -1    0    0    0  501 -0.00000000000E+00  0.00000000000E+00  0.68694735130E+03  0.68694735130E+03  0.00000000000E+00 0.  1.
         21   -1    0    0  505  502  0.00000000000E+00 -0.00000000000E+00 -0.72611546896E+02  0.72611546896E+02  0.00000000000E+00 0.  1.
         21    1    1    2  503  501  0.10171809267E+02  0.30865787590E+02  0.72652248403E+02  0.79589645968E+02  0.00000000000E+00 0.  1.
         21    1    1    2  504  502 -0.10024689374E+03  0.40994568245E+02 -0.80662843599E+01  0.10860506100E+03  0.00000000000E+00 0.  1.
         21    1    1    2  505  503  0.62895373087E+02 -0.28465024090E+02  0.11895410270E+03  0.13753604655E+03  0.00000000000E+00 0. -1.
         -3    1    1    2    0  504  0.27179711388E+02 -0.43395331744E+02  0.43079573766E+03  0.43382814468E+03  0.00000000000E+00 0.  1.
<scales pt_clust_3="32.49865" pt_clust_4="97.23668" pt_clust_5="14000.00000" pt_clust_6="40.57473"></scales>
<clustering>
<clus scale="   32.499">  1  3  2 -1</clus>
<clus scale="   40.575">  1  6  2 -1</clus>
<clus scale="   97.237">  2  4  1 -1</clus>
<clus scale="   97.237">  2  3  1 -1</clus>
</clustering>
</event>
<event>
 6    0  0.3667994E+002  0.1215613E+03  0.7546771E-02  0.1240543E+00
          1   -1    0    0  505    0 -0.00000000000E+00  0.00000000000E+00  0.12801640153E+04  0.12801640153E+04  0.00000000000E+00 0.  1.
         21   -1    0    0  503  502  0.00000000000E+00 -0.00000000000E+00 -0.12189022773E+03  0.12189022773E+03  0.00000000000E+00 0.  1.
         21    1    1    2  503  501  0.62949500656E+02 -0.86328842921E+02  0.96469170144E+02  0.14395002446E+03  0.00000000000E+00 0.  1.
         21    1    1    2  504  502  0.24391860476E+02  0.19196553524E+02 -0.85526976577E+02  0.90985351827E+02  0.00000000000E+00 0.  1.
         21    1    1    2  505  504 -0.38253576393E+02 -0.47092138961E+02  0.14608361100E+03  0.15818162681E+03  0.00000000000E+00 0. -1.
          1    1    1    2  501    0 -0.49087784740E+02  0.11422442836E+03  0.10012479830E+04  0.10089372400E+04  0.00000000000E+00 0.  1.
<scales pt_clust_3="14000.00000" pt_clust_4="31.03982" pt_clust_5="55.23929" pt_clust_6="121.56135"></scales>
<clustering>
<clus scale="   31.040">  2  4  1 -1</clus>
<clus scale="   55.239">  2  5  1 -1</clus>
<clus scale="  121.561">  1  6  2 -1</clus>
<clus scale="   31.040">  2  3  1 -1</clus>
</clustering>
</event>
<event>
 6    0  0.3667994E+002  0.1295399E+03  0.7546771E-02  0.1228140E+00
          2   -1    0    0  504    0 -0.00000000000E+00  0.00000000000E+00  0.15936167847E+04  0.15936167847E+04  0.00000000000E+00 0.  1.
         21   -1    0    0  503  502  0.00000000000E+00 -0.00000000000E+00 -0.28149866745E+03  0.28149866745E+03  0.00000000000E+00 0.  1.
         21    1    1    2  503  501 -0.51518825403E+02 -0.44531606462E+02 -0.25391393851E+03  0.26288693675E+03  0.00000000000E+00 0.  1.
         21    1    1    2  504  505  0.38352336910E+02  0.33898172597E+02  0.10331147895E+03  0.11529635525E+03  0.00000000000E+00 0. -1.
         21    1    1    2  505  502 -0.12224054804E+03  0.55553516866E+02  0.10830755180E+04  0.10913668139E+04  0.00000000000E+00 0.  1.
          2    1    1    2  501    0  0.13540703653E+03 -0.44920083001E+02  0.37964505885E+03  0.40556534628E+03  0.00000000000E+00 0.  1.
<scales pt_clust_3="67.94268" pt_clust_4="51.18582" pt_clust_5="14000.00000" pt_clust_6="129.53994"></scales>
<clustering>
<clus scale="   51.186">  1  4  2 -1</clus>
<clus scale="   67.943">  2  3  1 -1</clus>
<clus scale="  129.540">  2  6  1 -1</clus>
<clus scale="   67.943">  2  3  1 -1</clus>
</clustering>
</event>
<event>
 6    0  0.3667994E+002  0.2089829E+03  0.7546771E-02  0.1142374E+00
          2   -1    0    0  503    0 -0.00000000000E+00  0.00000000000E+00  0.82541859713E+03  0.82541859713E+03  0.00000000000E+00 0.  1.
         21   -1    0    0  504  502  0.00000000000E+00 -0.00000000000E+00 -0.65158332659E+03  0.65158332659E+03  0.00000000000E+00 0. -1.
         21    1    1    2  503  502  0.14107403778E+03  0.10117199378E+03 -0.62635718538E+03  0.64996998403E+03  0.00000000000E+00 0. -1.
         21    1    1    2  504  505 -0.51854385416E+02 -0.27735784253E+01  0.10817293867E+03  0.11999147755E+03  0.00000000000E+00 0.  1.
         21    1    1    2  505  501 -0.57643917476E+02 -0.21114585839E+02  0.28089331267E+03  0.28752339046E+03  0.00000000000E+00 0.  1.
          2    1    1    2  501    0 -0.31575734884E+02 -0.77283829513E+02  0.41112620459E+03  0.41951707169E+03  0.00000000000E+00 0.  1.
<scales pt_clust_3="173.60201" pt_clust_4="42.49968" pt_clust_5="82.78959" pt_clust_6="82.78959"></scales>
<clustering>
<clus scale="   42.500">  4  5 -1 -1</clus>
<clus scale="   82.790">  4  6 -1 -1</clus>
<clus scale="  173.602">  2  3  1 -1</clus>
<clus scale="  173.602">  2  3  1 -1</clus>
</clustering>
</event>
<event>
 6    0  0.3667994E+002  0.9584043E+02  0.7546771E-02  0.1289294E+00
         21   -1    0    0  504  502  0.00000000000E+00  0.00000000000E+00  0.35950527153E+03  0.35950527153E+03  0.00000000000E+00 0.  1.
          1   -1    0    0  503    0 -0.00000000000E+00 -0.00000000000E+00 -0.11191579183E+04  0.11191579183E+04  0.00000000000E+00 0.  1.
         21    1    1    2  503  502 -0.43912503021E+02  0.77043217150E+01  0.33252495367E+03  0.33550038645E+03  0.00000000000E+00 0.  1.
         21    1    1    2  504  505 -0.89764785381E+02  0.89107460909E+01 -0.11640646223E+03  0.14726704499E+03  0.00000000000E+00 0.  1.
         21    1    1    2  505  501  0.68244615663E+02 -0.69039480716E+02 -0.30942693199E+03  0.32429740009E+03  0.00000000000E+00 0.  1.
          1    1    1    2  501    0  0.65432672738E+02  0.52424412910E+02 -0.66634420626E+03  0.67159835835E+03  0.00000000000E+00 0.  1.
<scales pt_clust_3="44.58323" pt_clust_4="14000.00000" pt_clust_5="95.84043" pt_clust_6="80.88203"></scales>
<clustering>
<clus scale="   44.583">  1  3  2 -1</clus>
<clus scale="   80.882">  2  6  1 -1</clus>
<clus scale="   95.840">  2  5  1 -1</clus>
<clus scale="   44.583">  1  3  2 -1</clus>
</clustering>
</event>
<event>
 6    0  0.3667994E+002  0.1270975E+03  0.7546771E-02  0.1231827E+00
          2   -1    0    0  505    0 -0.00000000000E+00  0.00000000000E+00  0.17093316548E+04  0.17093316548E+04  0.00000000000E+00 0. -1.
         21   -1    0    0  503  502  0.00000000000E+00 -0.00000000000E+00 -0.18160374099E+03  0.18160374099E+03  0.00000000000E+00 0.  1.
         21    1    1    2  503  504  0.24639236677E+02  0.28033689098E+02 -0.14115386313E+03  0.14600476973E+03  0.00000000000E+00 0.  1.
         21    1    1    2  504  501  0.16875984052E+02 -0.48385991533E+02  0.14525636260E+03  0.15403056154E+03  0.00000000000E+00 0. -1.
         21    1    1    2  505  502  0.84223723068E+02  0.53546060858E+02  0.50147004122E+02  0.11169394873E+03  0.00000000000E+00 0. -1.
          2    1    1    2  501    0 -0.12573894380E+03 -0.33193758423E+02  0.14734784102E+04  0.14792061158E+04  0.00000000000E+00 0. -1.
<scales pt_clust_3="37.32264" pt_clust_4="49.26961" pt_clust_5="14000.00000" pt_clust_6="127.09749"></scales>
<clustering>
<clus scale="   37.323">  2  3  1 -1</clus>
<clus scale="   49.270">  2  4  1 -1</clus>
<clus scale="  127.097">  1  6  2 -1</clus>
<clus scale="   37.323">  2  3  1 -1</clus>
</clustering>
</event>
<event>
 6    0  0.3667994E+002  0.1036249E+03  0.7546771E-02  0.1272853E+00
         21   -1    0    0  503  502  0.00000000000E+00  0.00000000000E+00  0.66540148711E+03  0.66540148711E+03  0.00000000000E+00 0. -1.
          2   -1    0    0  505    0 -0.00000000000E+00 -0.00000000000E+00 -0.16264673014E+04  0.16264673014E+04  0.00000000000E+00 0.  1.
         21    1    1    2  503  501  0.48441168967E+02  0.63603831396E+01 -0.34182227332E+03  0.34529620308E+03  0.00000000000E+00 0. -1.
         21    1    1    2  504  502 -0.95260072676E+02 -0.13818771684E+01  0.65521746688E+03  0.66210748367E+03  0.00000000000E+00 0. -1.
         21    1    1    2  505  504 -0.32558809849E+02 -0.43178315133E+02 -0.22896862890E+03  0.23526809392E+03  0.00000000000E+00 0.  1.
          2    1    1    2  501    0  0.79377713558E+02  0.38199809162E+02 -0.10454923789E+04  0.10491970078E+04  0.00000000000E+00 0.  1.
<scales pt_clust_3="30.21512" pt_clust_4="95.35214" pt_clust_5="54.07812" pt_clust_6="30.21512"></scales>
<clustering>
<clus scale="   30.215">  3  6 -1 -1</clus>
<clus scale="   54.078">  2  5  1 -1</clus>
<clus scale="   95.352">  1  4  2 -1</clus>
<clus scale="   95.352">  1  3  2 -1</clus>
</clustering>
</event>
<event>
 6    0  0.3667994E+002  0.8468655E+02  0.7546771E-02  0.1316254E+00
          2   -1    0    0  504    0 -0.00000000000E+00  0.00000000000E+00  0.28262671032E+03  0.28262671032E+03  0.00000000000E+00 0.  1.
         21   -1    0    0  505  502  0.00000000000E+00 -0.00000000000E+00 -0.78240934087E+03  0.78240934087E+03  0.00000000000E+00 0. -1.
         21    1    1    2  503  502  0.34329350875E+02  0.11118461518E+02 -0.66963972931E+03  0.67061128203E+03  0.00000000000E+00 0. -1.
         21    1    1    2  504  503  0.24617895741E+02 -0.17778159367E+02  0.18388224899E+02  0.35499726142E+02  0.00000000000E+00 0. -1.
         21    1    1    2  505  501  0.43025167325E+02 -0.50761927581E+02 -0.77278283825E+02  0.10197976008E+03  0.00000000000E+00 0. -1.
          2    1    1    2  501    0 -0.10197241394E+03  0.57421625430E+02  0.22874715769E+03  0.25694528294E+03  0.00000000000E+00 0.  1.
<scales pt_clust_3="36.11908" pt_clust_4="30.36616" pt_clust_5="14000.00000" pt_clust_6="84.68655"></scales>
<clustering>
<clus scale="   30.366">  1  4  2 -1</clus>
<clus scale="   36.119">  2  3  1 -1</clus>
<clus scale="   84.687">  1  6  2 -1</clus>
<clus scale="   36.119">  2  3  1 -1</clus>
</clustering>
</event>
<event>
 6    0  0.3667994E+002  0.1529213E+03  0.7546771E-02  0.1196929E+00
         21   -1    0    0  505  502  0.00000000000E+00  0.00000000000E+00  0.47579108942E+02  0.47579108942E+02  0.00000000000E+00 0. -1.
          2   -1    0    0  503    0 -0.00000000000E+00 -0.00000000000E+00 -0.15865802050E+04  0.15865802050E+04  0.00000000000E+00 0. -1.
         21    1    1    2  503  502  0.65995347397E+02 -0.83795470233E+02 -0.24818600845E+03  0.27013582047E+03  0.00000000000E+00 0. -1.
         21    1    1    2  504  501  0.66735938632E+01  0.38607561407E+02 -0.16562975934E+03  0.17020075743E+03  0.00000000000E+00 0. -1.
         21    1    1    2  505  504 -0.34457419790E+02 -0.76899051711E+02 -0.27400237785E+02  0.88608977893E+02  0.00000000000E+00 0. -1.
          2    1    1    2  501    0 -0.38211521471E+02  0.12208696054E+03 -0.10977850905E+04  0.11052137582E+04  0.00000000000E+00 0. -1.
<scales pt_clust_3="140.48910" pt_clust_4="33.42436" pt_clust_5="84.26611" pt_clust_6="33.42436"></scales>
<clustering>
<clus scale="   33.424">  4  6 -1 -1</clus>
<clus scale="   84.266">  1  5  2 -1</clus>
<clus scale="  140.489">  1  3  2 -1</clus>
<clus scale="   84.266">  1  3  2 -1</clus>
</clustering>
</event>
<event>
 6    0  0.3667994E+002  0.1885995E+03  0.7546771E-02  0.1159731E+00
          2   -1    0    0  503    0 -0.00000000000E+00  0.00000000000E+00  0.12808071691E+04  0.12808071691E+04  0.00000000000E+00 0. -1.
         21   -1    0    0  504  502  0.00000000000E+00 -0.00000000000E+00 -0.85481478220E+03  0.85481478220E+03  0.00000000000E+00 0.  1.
         21    1    1    2  503  505  0.39349170615E+02  0.62884978937E+01  0.35651052249E+02  0.53468682052E+02  0.00000000000E+00 0. -1.
         21    1    1    2  504  501 -0.44627491828E+02  0.16295501529E+03  0.39741255132E+03  0.43183641113E+03  0.00000000000E+00 0. -1.
         21    1    1    2  505  502 -0.22572842782E+02  0.34884624053E+02 -0.81524194381E+03  0.81630012689E+03  0.00000000000E+00 0.  1.
          2    1    1    2  501    0  0.27851163994E+02 -0.20412813724E+03  0.80817072714E+03  0.83401673122E+03  0.00000000000E+00 0. -1.
<scales pt_clust_3="39.84849" pt_clust_4="14000.00000" pt_clust_5="41.54393" pt_clust_6="188.59953"></scales>
<clustering>
<clus scale="   39.848">  1  3  2 -1</clus>
<clus scale="   41.544">  2  5  1 -1</clus>
<clus scale="  188.600">  1  6  2 -1</clus>
<clus scale="   41.544">  2  3  1 -1</clus>
</clustering>
</event>
<event>
 6    0  0.3667994E+002  0.9941057E+02  0.7546771E-02  0.1281540E+00
          2   -1    0    0  505    0 -0.00000000000E+00  0.00000000000E+00  0.33950404161E+04  0.33950404161E+04  0.00000000000E+00 0.  1.
         21   -1    0    0  503  502  0.00000000000E+00 -0.00000000000E+00 -0.45546849384E+02  0.45546849384E+02  0.00000000000E+00 0.  1.
         21    1    1    2  503  501 -0.40277470311E+02 -0.28706207423E+02  0.34657340300E+03  0.35008491059E+03  0.00000000000E+00 0.  1.
         21    1    1    2  504  502  0.75968910015E+02 -0.73232130519E+01 -0.56754496534E+01  0.76531793831E+02  0.00000000000E+00 0.  1.
         21    1    1    2  505  504  0.61744563590E+02  0.23727735533E+02  0.18626986791E+04  0.18638727869E+04  0.00000000000E+00 0.  1.
          2    1    1    2  501    0 -0.97436003294E+02  0.12301684942E+02  0.11458969343E+04  0.11500977742E+04  0.00000000000E+00 0.  1.
<scales pt_clust_3="44.01204" pt_clust_4="77.69292" pt_clust_5="66.14678" pt_clust_6="44.01204"></scales>
<clustering>
<clus scale="   44.012">  3  6 -1 -1</clus>
<clus scale="   66.147">  1  5  2 -1</clus>
<clus scale="   77.693">  2  4  1 -1</clus>
<clus scale="   77.693">  2  3  1 -1</clus>
</clustering>
</event>
<event>
 6    0  0.3667994E+002  0.1673953E+03  0.7546771E-02  0.1180592E+00
         21   -1    0    0  504  502  0.00000000000E+00  0.00000000000E+00  0.31718496155E+03  0.31718496155E+03  0.00000000000E+00 0.  1.
          1   -1    0    0  503    0 -0.00000000000E+00 -0.00000000000E+00 -0.79401056477E+03  0.79401056477E+03  0.00000000000E+00 0.  1.
         21    1    1    2  503  502 -0.57419863395E+02 -0.36838577409E+01 -0.73700717818E+02  0.93500841317E+02  0.00000000000E+00 0.  1.
         21    1    1    2  504  505  0.11666514131E+03  0.10812777524E+03  0.27989803253E+03  0.32193986952E+03  0.00000000000E+00 0.  1.
         21    1    1    2  505  501 -0.90988087703E+01 -0.52010902793E+02 -0.40474052333E+03  0.40817007921E+03  0.00000000000E+00 0.  1.
          1    1    1    2  501    0 -0.50146469140E+02 -0.52433014704E+02 -0.27828239460E+03  0.28758473628E+03  0.00000000000E+00 0.  1.
<scales pt_clust_3="57.53791" pt_clust_4="157.75062" pt_clust_5="47.77229" pt_clust_6="47.77229"></scales>
<clustering>
<clus scale="   47.772">  5  6 -1 -1</clus>
<clus scale="   57.538">  2  3  1 -1</clus>
<clus scale="  157.751">  1  4  2 -1</clus>
<clus scale="  157.751">  1  3  2 -1</clus>
</clustering>
</event>
<event>
 6    0  0.3667994E+002  0.1256340E+03  0.7546771E-02  0.1234082E+00
          1   -1    0    0  503    0 -0.00000000000E+00  0.00000000000E+00  0.17177709366E+04  0.17177709366E+04  0.00000000000E+00 0. -1.
         21   -1    0    0  504  502  0.00000000000E+00 -0.00000000000E+00 -0.97888252567E+03  0.97888252567E+03  0.00000000000E+00 0. -1.
         21    1    1    2  503  505 -0.22861557244E+02 -0.41576345299E+02  0.10986033487E+04  0.10996274647E+04  0.00000000000E+00 0. -1.
         21    1    1    2  504  501 -0.77073331696E+02  0.59900211594E+02  0.10100636009E+03  0.14046572032E+03  0.00000000000E+00 0. -1.
         21    1    1    2  505  502 -0.66498177181E+02 -0.42286603399E+02 -0.94275365353E+03  0.94604155070E+03  0.00000000000E+00 0. -1.
          1    1    1    2  501    0  0.16643306612E+03  0.23962737103E+02  0.48203235562E+03  0.51051872652E+03  0.00000000000E+00 0. -1.
<scales pt_clust_3="47.44727" pt_clust_4="125.63403" pt_clust_5="78.91517" pt_clust_6="14000.00000"></scales>
<clustering>
<clus scale="   47.447">  1  3  2 -1</clus>
<clus scale="   78.915">  2  5  1 -1</clus>
<clus scale="  125.634">  2  4  1 -1</clus>
<clus scale="   78.915">  2  3  1 -1</clus>
</clustering>
</event>
<event>
 6    0  0.3667994E+002  0.1507772E+03  0.7546771E-02  0.1199521E+00
          2   -1    0    0  505    0 -0.00000000000E+00  0.00000000000E+00  0.23130729719E+04  0.23130729719E+04  0.00000000000E+00 0. -1.
         21   -1    0    0  503  502  0.00000000000E+00 -0.00000000000E+00 -0.40888834242E+02  0.40888834242E+02  0.00000000000E+00 0. -1.
         21    1    1    2  503  504  0.16067880247E+02  0.55474629645E+02  0.21504342268E+00  0.57755151749E+02  0.00000000000E+00 0. -1.
         21    1    1    2  504  501 -0.48159906616E+02 -0.12034932878E+02  0.61568226399E+03  0.61768022990E+03  0.00000000000E+00 0. -1.
         21    1    1    2  505  502  0.68285039577E+02  0.64956060846E+02  0.24314268590E+03  0.26076905909E+03  0.00000000000E+00 0. -1.
          2    1    1    2  501    0 -0.36193013208E+02 -0.10839575761E+03  0.14131441443E+04  0.14177573654E+04  0.00000000000E+00 0. -1.
<scales pt_clust_3="57.75475" pt_clust_4="47.75773" pt_clust_5="132.22376" pt_clust_6="47.75773"></scales>
<clustering>
<clus scale="   47.758">  4  6 -1 -1</clus>
<clus scale="   57.755">  2  3  1 -1</clus>
<clus scale="  132.224">  2  5  1 -1</clus>
<clus scale="   57.755">  2  3  1 -1</clus>
</clustering>
</event>
<event>
 6    0  0.3667994E+002  0.1931295E+03  0.7546771E-02  0.1155669E+00
          1   -1    0    0  505    0 -0.00000000000E+00  0.00000000000E+00  0.11952300444E+04  0.11952300444E+04  0.00000000000E+00 0.  1.
         21   -1    0    0  504  502  0.00000000000E+00 -0.00000000000E+00 -0.58321093615E+02  0.58321093615E+02  0.00000000000E+00 0. -1.
         21    1    1    2  503  502 -0.18579480373E+03  0.75510026112E+02  0.46051728050E+03  0.50229238375E+03  0.00000000000E+00 0. -1.
         21    1    1    2  504  501 -0.28953566528E+02 -0.29992521502E+02  0.13656878570E+02  0.43867649732E+02  0.00000000000E+00 0. -1.
         21    1    1    2  505  503  0.31495907751E+02  0.58545547050E+01  0.25984135908E+03  0.26180870861E+03  0.00000000000E+00 0.  1.
          1    1    1    2  501    0  0.18325246251E+03 -0.51372059315E+02  0.40289343263E+03  0.44558239592E+03  0.00000000000E+00 0.  1.
<scales pt_clust_3="193.12948" pt_clust_4="40.88866" pt_clust_5="32.03542" pt_clust_6="14000.00000"></scales>
<clustering>
<clus scale="   32.035">  1  5  2 -1</clus>
<clus scale="   40.889">  2  4  1 -1</clus>
<clus scale="  193.129">  1  3  2 -1</clus>
<clus scale="   40.889">  2  3  1 -1</clus>
</clustering>
</event>
<event>
 6    0  0.3667994E+002  0.1792426E+03  0.7546771E-02  0.1168538E+00
         21   -1    0    0  504  502  0.00000000000E+00  0.00000000000E+00  0.78777554826E+02  0.78777554826E+02  0.00000000000E+00 0.  1.
          2   -1    0    0  505    0 -0.00000000000E+00 -0.00000000000E+00 -0.12784082473E+04  0.12784082473E+04  0.00000000000E+00 0. -1.
         21    1    1    2  503  502 -0.12434702951E+03 -0.93101550683E+02 -0.10668904406E+03  0.18844796260E+03  0.00000000000E+00 0.  1.
         21    1    1    2  504  501  0.12333888156E+03  0.68738254183E+02 -0.16963771432E+03  0.22071334670E+03  0.00000000000E+00 0.  1.
         21    1    1    2  505  503 -0.76905594236E+02  0.23792784122E+00 -0.77470365624E+03  0.77851158117E+03  0.00000000000E+00 0. -1.
          2    1    1    2  501    0  0.77913742189E+02  0.24125368658E+02 -0.14860027787E+03  0.16951291165E+03  0.00000000000E+00 0. -1.
<scales pt_clust_3="173.93412" pt_clust_4="32.90885" pt_clust_5="76.90596" pt_clust_6="32.90885"></scales>
<clustering>
<clus scale="   32.909">  4  6 -1 -1</clus>
<clus scale="   76.906">  2  5  1 -1</clus>
<clus scale="  173.934">  1  3  2 -1</clus>
<clus scale="  173.934">  1  3  2 -1</clus>
</clustering>
</event>
<event>
 6    0  0.3667994E+002  0.1710240E+03  0.7546771E-02  0.1176784E+00
         21   -1    0    0  505  502  0.00000000000E+00  0.00000000000E+00  0.11460737219E+04  0.11460737219E+04  0.00000000000E+00 0.  1.
          2   -1    0    0  502    0 -0.00000000000E+00 -0.00000000000E+00 -0.46978097366E+02  0.46978097366E+02  0.00000000000E+00 0.  1.
         21    1    1    2  503  504  0.65568340234E+02 -0.75886990969E+02  0.65860623157E+03  0.66619832701E+03  0.00000000000E+00 0.  1.
         21    1    1    2  504  501 -0.48942380437E+02  0.61572574947E+02  0.14116069537E+03  0.16159480346E+03  0.00000000000E+00 0. -1.
         21    1    1    2  505  503  0.79226427272E+02 -0.27608963244E+02  0.21530771854E+03  0.23107681686E+03  0.00000000000E+00 0.  1.
          2    1    1    2  501    0 -0.95852387070E+02  0.41923379266E+02  0.84020979065E+02  0.13418187195E+03  0.00000000000E+00 0.  1.
<scales pt_clust_3="155.39981" pt_clust_4="61.92209" pt_clust_5="83.89923" pt_clust_6="61.92209"></scales>
<clustering>
<clus scale="   61.922">  4  6 -1 -1</clus>
<clus scale="   83.899">  1  5  2 -1</clus>
<clus scale="  155.400">  1  3  2 -1</clus>
<clus scale="   83.899">  1  3  2 -1</clus>
</clustering>
</event>
<event>
 6    0  0.3667994E+002  0.1338460E+03  0.7546771E-02  0.1221858E+00
         21   -1    0    0  505  502  0.00000000000E+00  0.00000000000E+00  0.10027625359E+04  0.10027625359E+04  0.00000000000E+00 0.  1.
          2   -1    0    0  503    0 -0.00000000000E+00 -0.00000000000E+00 -0.31560037710E+03  0.31560037710E+03  0.00000000000E+00 0.  1.
         21    1    1    2  503  504  0.39989774001E+01 -0.33576273809E+02 -0.40989434019E+02  0.53136538129E+02  0.00000000000E+00 0.  1.
         21    1    1    2  504  502  0.37686354179E+02 -0.38211059422E+02  0.90926985410E+01  0.54433661647E+02  0.00000000000E+00 0. -1.
         21    1    1    2  505  501 -0.76104487753E+02  0.11205032943E+03  0.95724853747E+03  0.96678432542E+03  0.00000000000E+00 0.  1.
          2    1    1    2  501    0  0.34419156174E+02 -0.40262996198E+02 -0.23818964322E+03  0.24400838779E+03  0.00000000000E+00 0.  1.
<scales pt_clust_3="33.81358" pt_clust_4="55.95146" pt_clust_5="14000.00000" pt_clust_6="133.84598"></scales>
<clustering>
<clus scale="   33.814">  2  3  1 -1</clus>
<clus scale="   55.951">  2  4  1 -1</clus>
<clus scale="  133.846">  2  6  1 -1</clus>
<clus scale="  133.846">  1  3  2 -1</clus>
</clustering>
</event>
<event>
 6    0  0.3667994E+002  0.1175042E+03  0.7546771E-02  0.1247272E+00
         -4   -1    0    0    0  501 -0.00000000000E+00  0.00000000000E+00  0.16296053779E+04  0.16296053779E+04  0.00000000000E+00 0.  1.
         21   -1    0    0  503  502  0.00000000000E+00 -0.00000000000E+00 -0.20081975011E+03  0.20081975011E+03  0.00000000000E+00 0.  1.
         21    1    1    2  503  504 -0.14881143164E+02 -0.51765754876E+02  0.27557080014E+03  0.28078534095E+03  0.00000000000E+00 0. -1.
         21    1    1    2  504  501 -0.20536594449E+02  0.31244778069E+02  0.11891218149E+03  0.12465189439E+03  0.00000000000E+00 0.  1.
         21    1    1    2  505  502  0.11801555181E+03 -0.89313499999E+00 -0.17587654229E+03  0.21180421687E+03  0.00000000000E+00 0.  1.
         -4    1    1    2    0  505 -0.82597814199E+02  0.21414111806E+02  0.12101791884E+04  0.12131836758E+04  0.00000000000E+00 0.  1.
<scales pt_clust_3="49.64571" pt_clust_4="37.38968" pt_clust_5="14000.00000" pt_clust_6="117.50419"></scales>
<clustering>
<clus scale="   37.390">  1  4  2 -1</clus>
<clus scale="   49.646">  1  3  2 -1</clus>
<clus scale="  117.504">  1  6  2 -1</clus>
<clus scale="  117.504">  2  3  1 -1</clus>
</clustering>
</event>
<event>
 6    0  0.3667994E+002  0.1143375E+03  0.7546771E-02  0.1252742E+00
          1   -1    0    0  504    0 -0.00000000000E+00  0.00000000000E+00  0.17422612276E+04  0.17422612276E+04  0.00000000000E+00 0.  1.
         21   -1    0    0  505  502  0.00000000000E+00 -0.00000000000E+00 -0.10692084658E+03  0.10692084658E+03  0.00000000000E+00 0.  1.
         21    1    1    2  503  502 -0.71308353657E+02 -0.30029154233E+02 -0.76512298830E+02  0.10881527134E+03  0.00000000000E+00 0.  1.
         21    1    1    2  504  503  0.30471076738E+02  0.20069497980E+01  0.57770500512E+03  0.57851152738E+03  0.00000000000E+00 0.  1.
         21    1    1    2  505  501 -0.34420019595E+01 -0.61213911534E+02  0.69994611468E+02  0.93049642543E+02  0.00000000000E+00 0.  1.
          1    1    1    2  501    0  0.44279278878E+02  0.89236115968E+02  0.10641530632E+04  0.10688056329E+04  0.00000000000E+00 0.  1.
<scales pt_clust_3="14000.00000" pt_clust_4="30.53710" pt_clust_5="61.08738" pt_clust_6="114.33750"></scales>
<clustering>
<clus scale="   30.537">  1  4  2 -1</clus>
<clus scale="   61.087">  2  5  1 -1</clus>
<clus scale="  114.338">  1  6  2 -1</clus>
<clus scale="   61.087">  2  3  1 -1</clus>
</clustering>
</event>
<event>
 6    0  0.3667994E+002  0.2325733E+03  0.7546771E-02  0.1124842E+00
         21   -1    0    0  501  502  0.00000000000E+00  0.00000000000E+00  0.99833548167E+02  0.99833548167E+02  0.00000000000E+00 0.  1.
          1   -1    0    0  505    0 -0.00000000000E+00 -0.00000000000E+00 -0.10937412798E+04  0.10937412798E+04  0.00000000000E+00 0. -1.
         21    1    1    2  503  502 -0.63956702791E+02  0.91335513495E+02  0.11957120114E+01  0.11150814134E+03  0.00000000000E+00 0.  1.
         21    1    1    2  504  503 -0.11236800183E+02  0.11485174530E+03 -0.95983521459E+02  0.15010005153E+03  0.00000000000E+00 0.  1.
         21    1    1    2  505  504  0.37115831577E+02 -0.58693412834E+02 -0.12493714306E+03  0.14293981733E+03  0.00000000000E+00 0. -1.
          1    1    1    2  501    0  0.38077671398E+02 -0.14749384596E+03 -0.77418277910E+03  0.78902681773E+03  0.00000000000E+00 0. -1.
<scales pt_clust_3="106.23607" pt_clust_4="106.23607" pt_clust_5="69.44423" pt_clust_6="206.89004"></scales>
<clustering>
<clus scale="   69.444">  2  5  1 -1</clus>
<clus scale="  106.236">  3  4 -1 -1</clus>
<clus scale="  206.890">  2  6  1 -1</clus>
<clus scale="  232.573">  1  3  2 -1</clus>
</clustering>
</event>
