<event>
 6    0  0.3446372E+002  0.1119985E+03  0.7546771E-02  0.1256913E+00
         21   -1    0    0  506  501  0.00000000000E+00  0.00000000000E+00  0.16827419175E+03  0.16827419175E+03  0.00000000000E+00 0. -1.
         21   -1    0    0  504  502 -0.00000000000E+00 -0.00000000000E+00 -0.19726977277E+04  0.19726977277E+04  0.00000000000E+00 0. -1.
         21    1    1    2  503  502  0.30513183331E+01  0.10470012276E+03  0.23765564627E+02  0.10740683550E+03  0.00000000000E+00 0. -1.
         21    1    1    2  504  505 -0.41275445089E+01 -0.40028727209E+02 -0.28704640940E+03  0.28985337116E+03  0.00000000000E+00 0.  1.
         21    1    1    2  505  501 -0.39758258822E+02 -0.65043229781E+02 -0.16373879248E+04  0.16391615409E+04  0.00000000000E+00 0. -1.
         21    1    1    2  506  503  0.40834484997E+02  0.37183422833E+00  0.96245233677E+02  0.10455017184E+03  0.00000000000E+00 0. -1.
<scales pt_clust_3="14000.00000" pt_clust_4="40.24097" pt_clust_5="111.99850" pt_clust_6="40.82522"></scales>
<clustering>
<clus scale="   40.241">  2  4  1 -1</clus>
<clus scale="   40.825">  1  6  2 -1</clus>
<clus scale="  111.999">  2  5  1 -1</clus>
<clus scale="   40.825">  1  3  2 -1</clus>
</clustering>
</event>
<event>
 6    0  0.3446372E+002  0.8380945E+02  0.7546771E-02  0.1318576E+00
         21   -1    0    0  506  501  0.00000000000E+00  0.00000000000E+00  0.90251842692E+02  0.90251842692E+02  0.00000000000E+00 0. -1.
         21   -1    0    0  504  502 -0.00000000000E+00 -0.00000000000E+00 -0.43763251146E+03  0.43763251146E+03  0.00000000000E+00 0.  1.
         21    1    1    2  503  501 -0.63186374359E+02  0.10380832675E+02 -0.48730900229E+02  0.80467261845E+02  0.00000000000E+00 0. -1.
         21    1    1    2  504  503 -0.21956203763E+02  0.26994190175E+02 -0.67514686724E+02  0.75953894635E+02  0.00000000000E+00 0. -1.
         21    1    1    2  505  502  0.49676759238E+02  0.58799475585E+02 -0.25487466790E+03  0.26624472779E+03  0.00000000000E+00 0.  1.
         21    1    1    2  506  505  0.35465818884E+02 -0.96174498435E+02  0.23739586082E+02  0.10521846989E+03  0.00000000000E+00 0. -1.
<scales pt_clust_3="68.75195" pt_clust_4="34.79599" pt_clust_5="83.80945" pt_clust_6="14000.00000"></scales>
<clustering>
<clus scale="   34.796">  2  4  1 -1</clus>
<clus scale="   68.752">  1  3  2 -1</clus>
<clus scale="   83.809">  2  5  1 -1</clus>
<clus scale="   68.752">  1  3  2 -1</clus>
</clustering>
</event>
<event>
 6    0  0.3446372E+002  0.1323103E+03  0.7546771E-02  0.1224067E+00
         21   -1    0    0  504  501  0.00000000000E+00  0.00000000000E+00  0.74535634433E+03  0.74535634433E+03  0.00000000000E+00 0. -1.
         21   -1    0    0  503  502 -0.00000000000E+00 -0.00000000000E+00 -0.74431698324E+02  0.74431698324E+02  0.00000000000E+00 0. -1.
         21    1    1    2  503  505 -0.70181628341E+02 -0.11543035460E+03  0.44645566162E+02  0.14227738506E+03  0.00000000000E+00 0. -1.
         21    1    1    2  504  506  0.60698475279E+02 -0.40818929097E+02  0.15479341388E+03  0.17120598954E+03  0.00000000000E+00 0. -1.
         21    1    1    2  505  501 -0.20964433798E+02  0.14552710856E+03  0.42496928387E+03  0.44968493308E+03  0.00000000000E+00 0. -1.
         21    1    1    2  506  502  0.30447586860E+02  0.10722175140E+02  0.46516382091E+02  0.56619734971E+02  0.00000000000E+00 0. -1.
<scales pt_clust_3="132.31033" pt_clust_4="106.67205" pt_clust_5="14000.00000" pt_clust_6="30.91367"></scales>
<clustering>
<clus scale="   30.914">  4  6 -1 -1</clus>
<clus scale="  106.672">  1  4  2 -1</clus>
<clus scale="  132.310">  2  3  1 -1</clus>
<clus scale="  106.672">  1  3  2 -1</clus>
</clustering>
</event>
<event>
 6    0  0.3446372E+002  0.9711035E+02  0.7546771E-02  0.1286493E+00
         21   -1    0    0  506  501  0.00000000000E+00  0.00000000000E+00  0.14664813439E+04  0.14664813439E+04  0.00000000000E+00 0. -1.
         21   -1    0    0  503  502 -0.00000000000E+00 -0.00000000000E+00 -0.30651794126E+02  0.30651794126E+02  0.00000000000E+00 0.  1.
         21    1    1    2  503  504  0.36047047560E+02 -0.53470292702E+02  0.60937858139E+02  0.88723640559E+02  0.00000000000E+00 0.  1.
         21    1    1    2  504  501  0.75175314654E+02  0.10037991400E+03  0.72101196255E+03  0.73183721223E+03  0.00000000000E+00 0. -1.
         21    1    1    2  505  502 -0.25257601814E+02 -0.23089633974E+02  0.27579171847E+02  0.43950976852E+02  0.00000000000E+00 0.  1.
         21    1    1    2  506  505 -0.85964760400E+02 -0.23819987320E+02  0.62630055724E+03  0.63262130839E+03  0.00000000000E+00 0. -1.
<scales pt_clust_3="70.76163" pt_clust_4="97.11035" pt_clust_5="34.22101" pt_clust_6="14000.00000"></scales>
<clustering>
<clus scale="   34.221">  2  5  1 -1</clus>
<clus scale="   70.762">  2  3  1 -1</clus>
<clus scale="   97.110">  2  4  1 -1</clus>
<clus scale="   97.110">  1  3  2 -1</clus>
</clustering>
</event>
<event>
 6    0  0.3446372E+002  0.1634761E+03  0.7546771E-02  0.1184827E+00
         21   -1    0    0  505  501  0.00000000000E+00  0.00000000000E+00  0.31227870612E+03  0.31227870612E+03  0.00000000000E+00 0.  1.
         21   -1    0    0  504  502 -0.00000000000E+00 -0.00000000000E+00 -0.14698953466E+03  0.14698953466E+03  0.00000000000E+00 0.  1.
         21    1    1    2  503  506 -0.47563489591E+02  0.12645834194E+03  0.15074711426E+02  0.13594574179E+03  0.00000000000E+00 0.  1.
         21    1    1    2  504  501  0.41371278000E+02 -0.17492679318E+02 -0.10766977977E+02  0.46189872135E+02  0.00000000000E+00 0. -1.
         21    1    1    2  505  503 -0.50151798304E+01 -0.14599969015E+03  0.18177859321E+03  0.23320488525E+03  0.00000000000E+00 0.  1.
         21    1    1    2  506  502  0.11207391421E+02  0.37034027536E+02 -0.20797155195E+02  0.43927741601E+02  0.00000000000E+00 0.  1.
<scales pt_clust_3="34.97029" pt_clust_4="44.91744" pt_clust_5="149.84741" pt_clust_6="34.97029"></scales>
<clustering>
<clus scale="   34.970">  3  6 -1 -1</clus>
<clus scale="   44.917">  2  4  1 -1</clus>
<clus scale="  149.847">  1  5  2 -1</clus>
<clus scale="  149.847">  1  3  2 -1</clus>
</clustering>
</event>
<event>
 6    0  0.3446372E+002  0.1088736E+03  0.7546771E-02  0.1262670E+00
         21   -1    0    0  504  501  0.00000000000E+00  0.00000000000E+00  0.59413019889E+03  0.59413019889E+03  0.00000000000E+00 0. -1.
         21   -1    0    0  506  502 -0.00000000000E+00 -0.00000000000E+00 -0.40180113303E+03  0.40180113303E+03  0.00000000000E+00 0. -1.
         21    1    1    2  503  502  0.93930477178E+02 -0.80066538857E+01 -0.78972566915E+02  0.12297848338E+03  0.00000000000E+00 0. -1.
         21    1    1    2  504  503 -0.20637059707E+02  0.46368694335E+02  0.52468439319E+03  0.52713343330E+03  0.00000000000E+00 0. -1.
         21    1    1    2  505  501 -0.12076563278E+03 -0.30394770870E+02 -0.45733749463E+02  0.13266407199E+03  0.00000000000E+00 0. -1.
         21    1    1    2  506  505  0.47472215314E+02 -0.79672695797E+01 -0.20764901094E+03  0.21315534325E+03  0.00000000000E+00 0. -1.
<scales pt_clust_3="108.87362" pt_clust_4="50.58435" pt_clust_5="14000.00000" pt_clust_6="48.13615"></scales>
<clustering>
<clus scale="   48.136">  2  6  1 -1</clus>
<clus scale="   50.584">  1  4  2 -1</clus>
<clus scale="  108.874">  1  3  2 -1</clus>
<clus scale="   50.584">  1  3  2 -1</clus>
</clustering>
</event>
<event>
 6    0  0.3446372E+002  0.1856826E+03  0.7546771E-02  0.1162414E+00
         21   -1    0    0  505  501  0.00000000000E+00  0.00000000000E+00  0.11756280765E+04  0.11756280765E+04  0.00000000000E+00 0. -1.
         21   -1    0    0  506  502 -0.00000000000E+00 -0.00000000000E+00 -0.40659339400E+02  0.40659339400E+02  0.00000000000E+00 0. -1.
         21    1    1    2  503  501  0.22319349142E+02  0.21390480856E+02  0.33903668144E+03  0.34044320728E+03  0.00000000000E+00 0. -1.
         21    1    1    2  504  503  0.45037220224E+02 -0.29637500544E+02  0.12370115452E+03  0.13493964679E+03  0.00000000000E+00 0.  1.
         21    1    1    2  505  502 -0.18323361667E+03 -0.27511210247E+02  0.46855389769E+03  0.50385928592E+03  0.00000000000E+00 0. -1.
         21    1    1    2  506  504  0.11587704731E+03  0.35758229936E+02  0.20367700341E+03  0.23704527588E+03  0.00000000000E+00 0. -1.
<scales pt_clust_3="30.91450" pt_clust_4="47.52979" pt_clust_5="170.91683" pt_clust_6="47.52979"></scales>
<clustering>
<clus scale="   30.914">  1  3  2 -1</clus>
<clus scale="   47.530">  4  6 -1 -1</clus>
<clus scale="  170.917">  1  5  2 -1</clus>
<clus scale="   30.914">  1  3  2 -1</clus>
</clustering>
</event>
<event>
 6    0  0.3446372E+002  0.1182994E+03  0.7546771E-02  0.1245929E+00
         21   -1    0    0  504  501  0.00000000000E+00  0.00000000000E+00  0.20110049289E+03  0.20110049289E+03  0.00000000000E+00 0. -1.
         21   -1    0    0  506  502 -0.00000000000E+00 -0.00000000000E+00 -0.38214552335E+03  0.38214552335E+03  0.00000000000E+00 0.  1.
         21    1    1    2  503  502 -0.24842482917E+02 -0.35275575396E+02 -0.28205779914E+02  0.51546883490E+02  0.00000000000E+00 0. -1.
         21    1    1    2  504  503  0.62226223338E+01  0.45375199691E+02  0.12776237965E+03  0.13572345202E+03  0.00000000000E+00 0. -1.
         21    1    1    2  505  501 -0.99303282637E+02  0.39953476878E+02 -0.24778867095E+02  0.10986998913E+03  0.00000000000E+00 0.  1.
         21    1    1    2  506  505  0.11792314322E+03 -0.50053101173E+02 -0.25582276310E+03  0.28610569160E+03  0.00000000000E+00 0.  1.
<scales pt_clust_3="43.14528" pt_clust_4="45.35478" pt_clust_5="14000.00000" pt_clust_6="118.29937"></scales>
<clustering>
<clus scale="   43.145">  2  3  1 -1</clus>
<clus scale="   45.355">  1  4  2 -1</clus>
<clus scale="  118.299">  2  6  1 -1</clus>
<clus scale="   45.355">  1  3  2 -1</clus>
</clustering>
</event>
<event>
 6    0  0.3446372E+002  0.1132853E+03  0.7546771E-02  0.1254604E+00
         21   -1    0    0  504  501  0.00000000000E+00  0.00000000000E+00  0.28611057664E+03  0.28611057664E+03  0.00000000000E+00 0.  1.
         21   -1    0    0  505  502 -0.00000000000E+00 -0.00000000000E+00 -0.71032840449E+02  0.71032840449E+02  0.00000000000E+00 0.  1.
         21    1    1    2  503  501  0.55639366633E+02 -0.10079946537E+03  0.15425258429E+03  0.19248410609E+03  0.00000000000E+00 0.  1.
         21    1    1    2  504  502 -0.48197146130E+02  0.86730670949E+01  0.84291196203E+01  0.49691418228E+02  0.00000000000E+00 0.  1.
         21    1    1    2  505  506 -0.12594142695E+02  0.31360190139E+02 -0.11471467857E+01  0.33814048878E+02  0.00000000000E+00 0.  1.
         21    1    1    2  506  503  0.51519221923E+01  0.60766208138E+02  0.53543179073E+02  0.81153843895E+02  0.00000000000E+00 0.  1.
<scales pt_clust_3="104.42202" pt_clust_4="48.97129" pt_clust_5="32.70016" pt_clust_6="32.70016"></scales>
<clustering>
<clus scale="   32.700">  5  6 -1 -1</clus>
<clus scale="   48.971">  2  4  1 -1</clus>
<clus scale="  104.422">  1  3  2 -1</clus>
<clus scale="  104.422">  1  3  2 -1</clus>
</clustering>
</event>
<event>
 6    0  0.3446372E+002  0.1779265E+03  0.7546771E-02  0.1169825E+00
         21   -1    0    0  505  501  0.00000000000E+00  0.00000000000E+00  0.23405540101E+03  0.23405540101E+03  0.00000000000E+00 0.  1.
         21   -1    0    0  503  502 -0.00000000000E+00 -0.00000000000E+00 -0.27288739655E+03  0.27288739655E+03  0.00000000000E+00 0.  1.
         21    1    1    2  503  504 -0.59057075809E+02 -0.24392632898E+02 -0.59972557733E+02  0.87632450747E+02  0.00000000000E+00 0.  1.
         21    1    1    2  504  506 -0.97731675831E+02 -0.40103063980E+02 -0.30371250492E+02  0.10991882941E+03  0.00000000000E+00 0.  1.
         21    1    1    2  505  502  0.19506482915E+03 -0.34304976776E+02  0.45782229534E+02  0.20328091781E+03  0.00000000000E+00 0.  1.
         21    1    1    2  506  501 -0.38276077512E+02  0.98800673654E+02  0.57295831551E+01  0.10611059960E+03  0.00000000000E+00 0.  1.
<scales pt_clust_3="35.82672" pt_clust_4="35.82672" pt_clust_5="171.85962" pt_clust_6="105.95580"></scales>
<clustering>
<clus scale="   35.827">  3  4 -1 -1</clus>
<clus scale="  105.956">  1  6  2 -1</clus>
<clus scale="  171.860">  1  5  2 -1</clus>
<clus scale="  105.956">  1  3  2 -1</clus>
</clustering>
</event>
<event>
 6    0  0.3446372E+002  0.7291460E+02  0.7546771E-02  0.1350453E+00
         21   -1    0    0  506  501  0.00000000000E+00  0.00000000000E+00  0.61610576515E+02  0.61610576515E+02  0.00000000000E+00 0.  1.
         21   -1    0    0  503  502 -0.00000000000E+00 -0.00000000000E+00 -0.19664598276E+04  0.19664598276E+04  0.00000000000E+00 0. -1.
         21    1    1    2  503  504  0.69594138024E+02 -0.14448342769E+02 -0.13922115547E+04  0.13940247888E+04  0.00000000000E+00 0. -1.
         21    1    1    2  504  501 -0.10027441783E+03 -0.67986137948E+02 -0.28500605604E+02  0.12445625073E+03  0.00000000000E+00 0.  1.
         21    1    1    2  505  502  0.96289124223E+00  0.30404542506E+02 -0.42262196278E+03  0.42371533697E+03  0.00000000000E+00 0.  1.
         21    1    1    2  506  505  0.29717388569E+02  0.52029938211E+02 -0.61515128051E+02  0.85874027696E+02  0.00000000000E+00 0.  1.
<scales pt_clust_3="72.91460" pt_clust_4="14000.00000" pt_clust_5="30.41979" pt_clust_6="61.20589"></scales>
<clustering>
<clus scale="   30.420">  2  5  1 -1</clus>
<clus scale="   61.206">  1  6  2 -1</clus>
<clus scale="   72.915">  2  3  1 -1</clus>
<clus scale="   61.206">  1  3  2 -1</clus>
</clustering>
</event>
<event>
 6    0  0.3446372E+002  0.1183060E+03  0.7546771E-02  0.1245918E+00
         21   -1    0    0  504  501  0.00000000000E+00  0.00000000000E+00  0.92610699214E+02  0.92610699214E+02  0.00000000000E+00 0.  1.
         21   -1    0    0  505  502 -0.00000000000E+00 -0.00000000000E+00 -0.11680593429E+04  0.11680593429E+04  0.00000000000E+00 0.  1.
         21    1    1    2  503  506  0.15231495962E+03 -0.25393100401E+02 -0.64208525254E+03  0.66039240456E+03  0.00000000000E+00 0.  1.
         21    1    1    2  504  502  0.29937316341E+02  0.83085408410E+01  0.34962400665E+02  0.46772259095E+02  0.00000000000E+00 0.  1.
         21    1    1    2  505  503 -0.48814253048E+02 -0.45474331604E+01 -0.39822243962E+03  0.40122888962E+03  0.00000000000E+00 0.  1.
         21    1    1    2  506  501 -0.13343802291E+03  0.21631992721E+02 -0.70103352206E+02  0.15227648885E+03  0.00000000000E+00 0.  1.
<scales pt_clust_3="14000.00000" pt_clust_4="31.06887" pt_clust_5="48.13751" pt_clust_6="118.30601"></scales>
<clustering>
<clus scale="   31.069">  1  4  2 -1</clus>
<clus scale="   48.138">  2  5  1 -1</clus>
<clus scale="  118.306">  1  6  2 -1</clus>
<clus scale="   31.069">  1  3  2 -1</clus>
</clustering>
</event>
<event>
 6    0  0.3446372E+002  0.2185195E+03  0.7546771E-02  0.1134992E+00
         21   -1    0    0  504  501  0.00000000000E+00  0.00000000000E+00  0.68847648245E+03  0.68847648245E+03  0.00000000000E+00 0. -1.
         21   -1    0    0  503  502 -0.00000000000E+00 -0.00000000000E+00 -0.46011185062E+03  0.46011185062E+03  0.00000000000E+00 0.  1.
         21    1    1    2  503  506  0.97890189191E+02  0.19203813478E+03 -0.36361603989E+03  0.42270292029E+03  0.00000000000E+00 0.  1.
         21    1    1    2  504  502 -0.85670764378E+02 -0.26942484313E+03  0.56997432668E+03  0.63623891663E+03  0.00000000000E+00 0. -1.
         21    1    1    2  505  501 -0.15814988318E+02  0.37033034110E+02  0.27499128966E+02  0.48762296550E+02  0.00000000000E+00 0.  1.
         21    1    1    2  506  505  0.35955635047E+01  0.40353674243E+02 -0.54927839252E+01  0.40884199601E+02  0.00000000000E+00 0.  1.
<scales pt_clust_3="14000.00000" pt_clust_4="218.51951" pt_clust_5="37.49197" pt_clust_6="86.90348"></scales>
<clustering>
<clus scale="   37.492">  5  6 -1 -1</clus>
<clus scale="   86.903">  1  5  2 -1</clus>
<clus scale="  218.520">  1  4  2 -1</clus>
<clus scale="   86.903">  1  3  2 -1</clus>
</clustering>
</event>
<event>
 6    0  0.3446372E+002  0.9956208E+02  0.7546771E-02  0.1281220E+00
         21   -1    0    0  504  501  0.00000000000E+00  0.00000000000E+00  0.87655917301E+02  0.87655917301E+02  0.00000000000E+00 0.  1.
         21   -1    0    0  503  502 -0.00000000000E+00 -0.00000000000E+00 -0.53433230116E+03  0.53433230116E+03  0.00000000000E+00 0.  1.
         21    1    1    2  503  505  0.27262863523E+02  0.83752639844E+02 -0.29645059637E+03  0.30925834588E+03  0.00000000000E+00 0.  1.
         21    1    1    2  504  506 -0.36635086231E+02 -0.76894777066E+02  0.42647459002E+02  0.95256191623E+02  0.00000000000E+00 0.  1.
         21    1    1    2  505  501  0.41239107760E+02  0.22510393974E+02 -0.14718671696E+03  0.15450343522E+03  0.00000000000E+00 0. -1.
         21    1    1    2  506  502 -0.31866885051E+02 -0.29368256753E+02 -0.45686529529E+02  0.62970245735E+02  0.00000000000E+00 0. -1.
<scales pt_clust_3="34.84784" pt_clust_4="87.38442" pt_clust_5="34.84784" pt_clust_6="43.33582"></scales>
<clustering>
<clus scale="   34.848">  3  5 -1 -1</clus>
<clus scale="   43.336">  2  6  1 -1</clus>
<clus scale="   87.384">  1  4  2 -1</clus>
<clus scale="   87.384">  1  3  2 -1</clus>
</clustering>
</event>
<event>
 6    0  0.3446372E+002  0.1070789E+03  0.7546771E-02  0.1266077E+00
         21   -1    0    0  506  501  0.00000000000E+00  0.00000000000E+00  0.67571135376E+03  0.67571135376E+03  0.00000000000E+00 0. -1.
         21   -1    0    0  504  502 -0.00000000000E+00 -0.00000000000E+00 -0.24624412585E+03  0.24624412585E+03  0.00000000000E+00 0. -1.
         21    1    1    2  503  501  0.18063617208E+02 -0.67658776423E+02  0.32628271031E+03  0.33371306738E+03  0.00000000000E+00 0. -1.
         21    1    1    2  504  503 -0.10036071583E+03  0.16570715978E+02 -0.20076433446E+03  0.22506261329E+03  0.00000000000E+00 0. -1.
         21    1    1    2  505  502 -0.64636442502E+01 -0.35075106168E+02  0.70242178812E+00  0.35672610866E+02  0.00000000000E+00 0. -1.
         21    1    1    2  506  505  0.88760742870E+02  0.86163166613E+02  0.30324643029E+03  0.32750718807E+03  0.00000000000E+00 0. -1.
<scales pt_clust_3="70.55232" pt_clust_4="107.07888" pt_clust_5="35.66569" pt_clust_6="14000.00000"></scales>
<clustering>
<clus scale="   35.666">  2  5  1 -1</clus>
<clus scale="   70.552">  1  3  2 -1</clus>
<clus scale="  107.079">  2  4  1 -1</clus>
<clus scale="   70.552">  1  3  2 -1</clus>
</clustering>
</event>
<event>
 6    0  0.3446372E+002  0.8407087E+02  0.7546771E-02  0.1317880E+00
         21   -1    0    0  503  501  0.00000000000E+00  0.00000000000E+00  0.34164357363E+03  0.34164357363E+03  0.00000000000E+00 0.  1.
         21   -1    0    0  504  502 -0.00000000000E+00 -0.00000000000E+00 -0.11025960058E+03  0.11025960058E+03  0.00000000000E+00 0.  1.
         21    1    1    2  503  506 -0.51052684653E+02  0.10057820389E+03  0.19770836226E+02  0.11451304586E+03  0.00000000000E+00 0.  1.
         21    1    1    2  504  505 -0.44841086618E+00 -0.53521104686E+02 -0.21521587771E+02  0.57687853655E+02  0.00000000000E+00 0.  1.
         21    1    1    2  505  501  0.82105007064E+02 -0.20787108891E+02  0.22237689024E+03  0.23795969700E+03  0.00000000000E+00 0.  1.
         21    1    1    2  506  502 -0.30603911545E+02 -0.26269990310E+02  0.10757834350E+02  0.41742577695E+02  0.00000000000E+00 0.  1.
<scales pt_clust_3="14000.00000" pt_clust_4="65.84428" pt_clust_5="84.07087" pt_clust_6="40.33252"></scales>
<clustering>
<clus scale="   40.333">  2  6  1 -1</clus>
<clus scale="   65.844">  2  4  1 -1</clus>
<clus scale="   84.071">  1  5  2 -1</clus>
<clus scale="   84.071">  1  3  2 -1</clus>
</clustering>
</event>
<event>
 6    0  0.3446372E+002  0.5629521E+02  0.7546771E-02  0.1414071E+00
         21   -1    0    0  506  501  0.00000000000E+00  0.00000000000E+00  0.63837156012E+03  0.63837156012E+03  0.00000000000E+00 0.  1.
         21   -1    0    0  504  502 -0.00000000000E+00 -0.00000000000E+00 -0.27016917751E+03  0.27016917751E+03  0.00000000000E+00 0.  1.
         21    1    1    2  503  502 -0.43878190384E+02 -0.30594215372E+02 -0.19761234497E+03  0.20472405939E+03  0.00000000000E+00 0.  1.
         21    1    1    2  504  501 -0.48021688664E+02  0.37803280203E+02  0.46765252799E+03  0.47162915252E+03  0.00000000000E+00 0.  1.
         21    1    1    2  505  503  0.82843793322E+02  0.45577187179E+02 -0.25069625745E+02  0.97820551104E+02  0.00000000000E+00 0.  1.
         21    1    1    2  506  505  0.90560857266E+01 -0.52786252011E+02  0.12323182535E+03  0.13436697462E+03  0.00000000000E+00 0.  1.
<scales pt_clust_3="53.49114" pt_clust_4="14000.00000" pt_clust_5="47.45478" pt_clust_6="56.29521"></scales>
<clustering>
<clus scale="   53.491">  2  3  1 -1</clus>
<clus scale="   47.455">  2  5  1 -1</clus>
<clus scale="   56.295">  2  6  1 -1</clus>
<clus scale="   56.295">  1  3  2 -1</clus>
</clustering>
</event>
<event>
 6    0  0.3446372E+002  0.1214832E+03  0.7546771E-02  0.1240670E+00
         21   -1    0    0  505  501  0.00000000000E+00  0.00000000000E+00  0.12978486015E+03  0.12978486015E+03  0.00000000000E+00 0. -1.
         21   -1    0    0  504  502 -0.00000000000E+00 -0.00000000000E+00 -0.12848141025E+04  0.12848141025E+04  0.00000000000E+00 0. -1.
         21    1    1    2  503  501  0.97439565125E+02  0.23531896997E+02 -0.51652214592E+03  0.52615905034E+03  0.00000000000E+00 0. -1.
         21    1    1    2  504  503  0.29426403990E+02 -0.18615835154E+02 -0.71675157010E+03  0.71759687555E+03  0.00000000000E+00 0. -1.
         21    1    1    2  505  506 -0.45195646236E+02  0.53370660625E+01 -0.13613141404E+02  0.47502087657E+02  0.00000000000E+00 0. -1.
         21    1    1    2  506  502 -0.81670322879E+02 -0.10253127905E+02  0.91857615085E+02  0.12334094908E+03  0.00000000000E+00 0. -1.
<scales pt_clust_3="14000.00000" pt_clust_4="34.82043" pt_clust_5="43.82646" pt_clust_6="121.48321"></scales>
<clustering>
<clus scale="   34.820">  2  4  1 -1</clus>
<clus scale="   43.826">  1  5  2 -1</clus>
<clus scale="  121.483">  1  6  2 -1</clus>
<clus scale="   43.826">  1  3  2 -1</clus>
</clustering>
</event>
<event>
 6    0  0.3446372E+002  0.1282027E+03  0.7546771E-02  0.1230147E+00
         21   -1    0    0  506  501  0.00000000000E+00  0.00000000000E+00  0.68059341568E+03  0.68059341568E+03  0.00000000000E+00 0. -1.
         21   -1    0    0  503  502 -0.00000000000E+00 -0.00000000000E+00 -0.18353404823E+03  0.18353404823E+03  0.00000000000E+00 0. -1.
         21    1    1    2  503  501 -0.45040116222E+01 -0.12985274162E+03  0.63071845748E+03  0.64396257130E+03  0.00000000000E+00 0. -1.
         21    1    1    2  504  502 -0.15827656447E+01  0.54619614670E+02 -0.12474430068E+03  0.13618718003E+03  0.00000000000E+00 0. -1.
         21    1    1    2  505  504 -0.74741383604E+01  0.37931573806E+02 -0.18925451383E+02  0.43044625050E+02  0.00000000000E+00 0. -1.
         21    1    1    2  506  505  0.13560915627E+02  0.37301553146E+02  0.10010662036E+02  0.40933087523E+02  0.00000000000E+00 0. -1.
<scales pt_clust_3="123.12690" pt_clust_4="54.64254" pt_clust_5="35.25097" pt_clust_6="35.25097"></scales>
<clustering>
<clus scale="   35.251">  5  6 -1 -1</clus>
<clus scale="   54.643">  2  4  1 -1</clus>
<clus scale="  123.127">  1  3  2 -1</clus>
<clus scale="  123.127">  1  3  2 -1</clus>
</clustering>
</event>
<event>
 6    0  0.3446372E+002  0.9810303E+02  0.7546771E-02  0.1284336E+00
         21   -1    0    0  506  501  0.00000000000E+00  0.00000000000E+00  0.67513475105E+02  0.67513475105E+02  0.00000000000E+00 0. -1.
         21   -1    0    0  504  502 -0.00000000000E+00 -0.00000000000E+00 -0.80256273823E+03  0.80256273823E+03  0.00000000000E+00 0. -1.
         21    1    1    2  503  502  0.94426664552E+02 -0.60230525972E+02 -0.37017761144E+03  0.38675001649E+03  0.00000000000E+00 0. -1.
         21    1    1    2  504  505 -0.67681521341E+02 -0.51032537172E+02 -0.32020702163E+03  0.33123653917E+03  0.00000000000E+00 0. -1.
         21    1    1    2  505  501 -0.73935965379E+01  0.47633019973E+02 -0.66461091806E+02  0.82101440825E+02  0.00000000000E+00 0. -1.
         21    1    1    2  506  503 -0.19351546673E+02  0.63630043172E+02  0.21796461758E+02  0.69988216850E+02  0.00000000000E+00 0. -1.
<scales pt_clust_3="98.10303" pt_clust_4="82.75419" pt_clust_5="48.20342" pt_clust_6="14000.00000"></scales>
<clustering>
<clus scale="   48.203">  1  5  2 -1</clus>
<clus scale="   82.754">  2  4  1 -1</clus>
<clus scale="   98.103">  2  3  1 -1</clus>
<clus scale="   48.203">  1  3  2 -1</clus>
</clustering>
</event>
<event>
 6    0  0.3446372E+002  0.1524211E+03  0.7546771E-02  0.1197529E+00
         21   -1    0    0  504  501  0.00000000000E+00  0.00000000000E+00  0.98990845873E+03  0.98990845873E+03  0.00000000000E+00 0.  1.
         21   -1    0    0  505  502 -0.00000000000E+00 -0.00000000000E+00 -0.12641010998E+03  0.12641010998E+03  0.00000000000E+00 0.  1.
         21    1    1    2  503  501  0.27090954894E+02 -0.43089577927E+02  0.11023890082E+03  0.12142177242E+03  0.00000000000E+00 0.  1.
         21    1    1    2  504  506 -0.55465708159E+02 -0.29480462148E+02  0.73497869764E+03  0.73765793455E+03  0.00000000000E+00 0.  1.
         21    1    1    2  505  503 -0.69884327909E+01 -0.72690916140E+02  0.67900578445E+02  0.99716077115E+02  0.00000000000E+00 0.  1.
         21    1    1    2  506  502  0.35363186056E+02  0.14526095621E+03 -0.49619828153E+02  0.15752278462E+03  0.00000000000E+00 0.  1.
<scales pt_clust_3="48.38604" pt_clust_4="62.81355" pt_clust_5="48.38604" pt_clust_6="140.97212"></scales>
<clustering>
<clus scale="   48.386">  3  5 -1 -1</clus>
<clus scale="   62.814">  1  4  2 -1</clus>
<clus scale="  140.972">  2  6  1 -1</clus>
<clus scale="   62.814">  1  3  2 -1</clus>
</clustering>
</event>
<event>
 6    0  0.4492365E+002  0.1093913E+03  0.7546771E-02  0.1261701E+00
         21   -1    0    0  503  501  0.00000000000E+00  0.00000000000E+00  0.20515798371E+04  0.20515798371E+04  0.00000000000E+00 0.  1.
         21   -1    0    0  504  502 -0.00000000000E+00 -0.00000000000E+00 -0.10118517750E+03  0.10118517750E+03  0.00000000000E+00 0.  1.
         21    1    1    2  503  506 -0.27234689050E+02 -0.15016189057E+02  0.16980324650E+04  0.16983172455E+04  0.00000000000E+00 0.  1.
         21    1    1    2  504  505  0.11630242189E+03 -0.26374532627E+02 -0.48443468431E+02  0.12871922522E+03  0.00000000000E+00 0.  1.
         21    1    1    2  505  501 -0.39980670496E+02  0.40209734812E+02  0.24464306188E+03  0.25112846218E+03  0.00000000000E+00 0.  1.
         21    1    1    2  506  502 -0.49087062343E+02  0.11809868719E+01  0.56162601177E+02  0.74600081705E+02  0.00000000000E+00 0. -1.
<scales pt_clust_3="31.10007" pt_clust_4="14000.00000" pt_clust_5="109.39125" pt_clust_6="54.14915"></scales>
<clustering>
<clus scale="   31.100">  1  3  2 -1</clus>
<clus scale="   54.149">  1  6  2 -1</clus>
<clus scale="  109.391">  1  5  2 -1</clus>
<clus scale="   31.100">  1  3  2 -1</clus>
</clustering>
</event>
<event>
 6    0  0.3446372E+002  0.8874763E+02  0.7546771E-02  0.1305913E+00
         21   -1    0    0  504  501  0.00000000000E+00  0.00000000000E+00  0.57257826678E+03  0.57257826678E+03  0.00000000000E+00 0. -1.
         21   -1    0    0  506  502 -0.00000000000E+00 -0.00000000000E+00 -0.39195172699E+02  0.39195172699E+02  0.00000000000E+00 0. -1.
         21    1    1    2  503  505  0.84435318005E+01 -0.88689780268E+02  0.15412774587E+03  0.17802396581E+03  0.00000000000E+00 0. -1.
         21    1    1    2  504  502  0.14592175632E+02  0.29685485336E+02  0.97933558677E+02  0.10336895832E+03  0.00000000000E+00 0. -1.
         21    1    1    2  505  501 -0.44033473567E+02 -0.28847190188E+02  0.20645708112E+03  0.21306251083E+03  0.00000000000E+00 0.  1.
         21    1    1    2  506  503  0.20997766134E+02  0.87851485119E+02  0.74864708416E+02  0.11731800453E+03  0.00000000000E+00 0. -1.
<scales pt_clust_3="14000.00000" pt_clust_4="33.07808" pt_clust_5="40.67962" pt_clust_6="88.74763"></scales>
<clustering>
<clus scale="   33.078">  1  4  2 -1</clus>
<clus scale="   40.680">  1  5  2 -1</clus>
<clus scale="   88.748">  2  6  1 -1</clus>
<clus scale="   33.078">  1  3  2 -1</clus>
</clustering>
</event>
<event>
 6    0  0.3446372E+002  0.1248965E+03  0.7546771E-02  0.1235231E+00
         21   -1    0    0  503  501  0.00000000000E+00  0.00000000000E+00  0.14364121016E+03  0.14364121016E+03  0.00000000000E+00 0. -1.
         21   -1    0    0  505  502 -0.00000000000E+00 -0.00000000000E+00 -0.31812134428E+03  0.31812134428E+03  0.00000000000E+00 0. -1.
         21    1    1    2  503  504  0.11887062474E+03 -0.30369125065E+02  0.38958063786E+02  0.12872544394E+03  0.00000000000E+00 0. -1.
         21    1    1    2  504  506  0.13694838947E+02 -0.34411731215E+02 -0.16611801970E+02  0.40591474766E+02  0.00000000000E+00 0.  1.
         21    1    1    2  505  501 -0.10307125379E+03  0.11592931681E+03 -0.16003540241E+03  0.22287803812E+03  0.00000000000E+00 0. -1.
         21    1    1    2  506  502 -0.29494209902E+02 -0.51148460533E+02 -0.36790993533E+02  0.69567597614E+02  0.00000000000E+00 0. -1.
<scales pt_clust_3="14000.00000" pt_clust_4="32.78009" pt_clust_5="124.89646" pt_clust_6="96.34917"></scales>
<clustering>
<clus scale="   32.780">  4  6 -1 -1</clus>
<clus scale="   96.349">  2  4  1 -1</clus>
<clus scale="  124.896">  2  5  1 -1</clus>
<clus scale="  124.896">  1  3  2 -1</clus>
</clustering>
</event>
<event>
 6    0  0.3446372E+002  0.1312571E+03  0.7546771E-02  0.1225602E+00
         21   -1    0    0  506  501  0.00000000000E+00  0.00000000000E+00  0.18963037920E+04  0.18963037920E+04  0.00000000000E+00 0.  1.
         21   -1    0    0  504  502 -0.00000000000E+00 -0.00000000000E+00 -0.46032380380E+02  0.46032380380E+02  0.00000000000E+00 0.  1.
         21    1    1    2  503  502 -0.65785165300E+01  0.44522344561E+02  0.31588940742E+02  0.54985245495E+02  0.00000000000E+00 0.  1.
         21    1    1    2  504  501 -0.11643583961E+03  0.44169414827E+02  0.19020009584E+03  0.22734185362E+03  0.00000000000E+00 0.  1.
         21    1    1    2  505  503  0.45842383113E+02 -0.15565692788E+03  0.47383039591E+03  0.50084513313E+03  0.00000000000E+00 0.  1.
         21    1    1    2  506  505  0.77171973026E+02  0.66965168489E+02  0.11546519791E+04  0.11591639401E+04  0.00000000000E+00 0.  1.
<scales pt_clust_3="45.00573" pt_clust_4="131.25714" pt_clust_5="14000.00000" pt_clust_6="103.79633"></scales>
<clustering>
<clus scale="   45.006">  2  3  1 -1</clus>
<clus scale="  103.796">  1  6  2 -1</clus>
<clus scale="  131.257">  2  4  1 -1</clus>
<clus scale="  103.796">  1  3  2 -1</clus>
</clustering>
</event>
<event>
 6    0  0.3446372E+002  0.1322475E+03  0.7546771E-02  0.1224158E+00
         21   -1    0    0  506  501  0.00000000000E+00  0.00000000000E+00  0.71164034925E+03  0.71164034925E+03  0.00000000000E+00 0. -1.
         21   -1    0    0  505  502 -0.00000000000E+00 -0.00000000000E+00 -0.70682113047E+03  0.70682113047E+03  0.00000000000E+00 0. -1.
         21    1    1    2  503  502 -0.33721916369E+02  0.53166903423E+02 -0.38993134781E+02  0.74056409738E+02  0.00000000000E+00 0. -1.
         21    1    1    2  504  501  0.19079397228E+03  0.90923264370E+02  0.36468780199E+03  0.42150512782E+03  0.00000000000E+00 0. -1.
         21    1    1    2  505  504 -0.81440015975E+02 -0.10807863469E+03 -0.60847879427E+03  0.62334573918E+03  0.00000000000E+00 0. -1.
         21    1    1    2  506  503 -0.75632039932E+02 -0.36011533099E+02  0.28760334585E+03  0.29955420298E+03  0.00000000000E+00 0. -1.
<scales pt_clust_3="62.95941" pt_clust_4="132.24750" pt_clust_5="14000.00000" pt_clust_6="83.83946"></scales>
<clustering>
<clus scale="   62.959">  2  3  1 -1</clus>
<clus scale="   83.839">  1  6  2 -1</clus>
<clus scale="  132.248">  1  4  2 -1</clus>
<clus scale="   83.839">  1  3  2 -1</clus>
</clustering>
</event>
<event>
 6    0  0.3446372E+002  0.1598998E+03  0.7546771E-02  0.1188810E+00
         21   -1    0    0  506  501  0.00000000000E+00  0.00000000000E+00  0.55100984867E+03  0.55100984867E+03  0.00000000000E+00 0.  1.
         21   -1    0    0  505  502 -0.00000000000E+00 -0.00000000000E+00 -0.19387727929E+04  0.19387727929E+04  0.00000000000E+00 0.  1.
         21    1    1    2  503  501  0.28574589115E+02  0.15530725054E+02  0.11912213570E+03  0.12348195730E+03  0.00000000000E+00 0. -1.
         21    1    1    2  504  503 -0.16997772071E+03  0.58485432560E+02  0.40406347339E+03  0.44224457248E+03  0.00000000000E+00 0.  1.
         21    1    1    2  505  504 -0.25996099507E+02 -0.46783760891E+02 -0.54398897024E+03  0.54661551132E+03  0.00000000000E+00 0. -1.
         21    1    1    2  506  502  0.16739923110E+03 -0.27232396724E+02 -0.13669595831E+04  0.13774406005E+04  0.00000000000E+00 0.  1.
<scales pt_clust_3="32.52246" pt_clust_4="159.89978" pt_clust_5="53.43731" pt_clust_6="14000.00000"></scales>
<clustering>
<clus scale="   32.522">  1  3  2 -1</clus>
<clus scale="   53.437">  2  5  1 -1</clus>
<clus scale="  159.900">  1  4  2 -1</clus>
<clus scale="   32.522">  1  3  2 -1</clus>
</clustering>
</event>
<event>
 6    0  0.3446372E+002  0.1061945E+03  0.7546771E-02  0.1267784E+00
         21   -1    0    0  503  501  0.00000000000E+00  0.00000000000E+00  0.71464660921E+03  0.71464660921E+03  0.00000000000E+00 0.  1.
         21   -1    0    0  505  502 -0.00000000000E+00 -0.00000000000E+00 -0.28814281263E+03  0.28814281263E+03  0.00000000000E+00 0.  1.
         21    1    1    2  503  502  0.73772897112E+02 -0.58549564502E+01  0.64134947732E+03  0.64560504406E+03  0.00000000000E+00 0.  1.
         21    1    1    2  504  501  0.38972755158E+02  0.36677032155E+02  0.36304945661E+02  0.64669385429E+02  0.00000000000E+00 0.  1.
         21    1    1    2  505  506 -0.39794258069E+02 -0.39835558781E+02 -0.18585029750E+03  0.19419265639E+03  0.00000000000E+00 0.  1.
         21    1    1    2  506  504 -0.72951394201E+02  0.90134830758E+01 -0.65300328906E+02  0.98322335958E+02  0.00000000000E+00 0.  1.
<scales pt_clust_3="14000.00000" pt_clust_4="53.51710" pt_clust_5="55.97084" pt_clust_6="106.19451"></scales>
<clustering>
<clus scale="   53.517">  1  4  2 -1</clus>
<clus scale="   55.971">  2  5  1 -1</clus>
<clus scale="  106.195">  2  6  1 -1</clus>
<clus scale="   53.517">  1  3  2 -1</clus>
</clustering>
</event>
<event>
 6    0  0.3446372E+002  0.1669186E+03  0.7546771E-02  0.1181100E+00
         21   -1    0    0  505  501  0.00000000000E+00  0.00000000000E+00  0.28421198197E+03  0.28421198197E+03  0.00000000000E+00 0.  1.
         21   -1    0    0  506  502 -0.00000000000E+00 -0.00000000000E+00 -0.32412773803E+03  0.32412773803E+03  0.00000000000E+00 0.  1.
         21    1    1    2  503  504  0.10321810531E+03  0.16627455422E+03 -0.72437434775E+02  0.20868250191E+03  0.00000000000E+00 0.  1.
         21    1    1    2  504  502 -0.12213180470E+03 -0.92746340067E+02 -0.94258518558E+02  0.18000758216E+03  0.00000000000E+00 0.  1.
         21    1    1    2  505  503  0.85575743100E+02 -0.60680863217E+02  0.47170244710E+02  0.11502350609E+03  0.00000000000E+00 0.  1.
         21    1    1    2  506  501 -0.66662043713E+02 -0.12847350940E+02  0.79609952556E+02  0.10462612984E+03  0.00000000000E+00 0.  1.
<scales pt_clust_3="166.91864" pt_clust_4="14000.00000" pt_clust_5="87.56915" pt_clust_6="67.88875"></scales>
<clustering>
<clus scale="   67.889">  1  6  2 -1</clus>
<clus scale="   87.569">  1  5  2 -1</clus>
<clus scale="  166.919">  1  3  2 -1</clus>
<clus scale="   67.889">  1  3  2 -1</clus>
</clustering>
</event>
<event>
 6    0  0.3446372E+002  0.1004785E+03  0.7546771E-02  0.1279293E+00
         21   -1    0    0  503  501  0.00000000000E+00  0.00000000000E+00  0.36377513132E+03  0.36377513132E+03  0.00000000000E+00 0. -1.
         21   -1    0    0  504  502 -0.00000000000E+00 -0.00000000000E+00 -0.32345562200E+04  0.32345562200E+04  0.00000000000E+00 0.  1.
         21    1    1    2  503  506  0.14223456320E+02  0.27992615714E+02  0.18210847908E+03  0.18479553944E+03  0.00000000000E+00 0. -1.
         21    1    1    2  504  501  0.46290648735E+02 -0.97718031914E+02 -0.31167971546E+04  0.31186721759E+04  0.00000000000E+00 0.  1.
         21    1    1    2  505  502 -0.33834942566E+02 -0.24998629192E+01 -0.10440337372E+03  0.10977758012E+03  0.00000000000E+00 0.  1.
         21    1    1    2  506  505 -0.26679162490E+02  0.72225279118E+02  0.16831096052E+03  0.18508605589E+03  0.00000000000E+00 0. -1.
<scales pt_clust_3="31.39894" pt_clust_4="100.47854" pt_clust_5="33.68743" pt_clust_6="14000.00000"></scales>
<clustering>
<clus scale="   31.399">  1  3  2 -1</clus>
<clus scale="   33.687">  2  5  1 -1</clus>
<clus scale="  100.479">  2  4  1 -1</clus>
<clus scale="   31.399">  1  3  2 -1</clus>
</clustering>
</event>
<event>
 6    0  0.3446372E+002  0.9553844E+02  0.7546771E-02  0.1289968E+00
         21   -1    0    0  505  501  0.00000000000E+00  0.00000000000E+00  0.14752937447E+03  0.14752937447E+03  0.00000000000E+00 0.  1.
         21   -1    0    0  506  502 -0.00000000000E+00 -0.00000000000E+00 -0.33666346635E+03  0.33666346635E+03  0.00000000000E+00 0. -1.
         21    1    1    2  503  501 -0.14161597373E+02 -0.76112430976E+02  0.77591984739E+02  0.10960916515E+03  0.00000000000E+00 0.  1.
         21    1    1    2  504  503 -0.14615566878E+02  0.10948000807E+03 -0.10871217187E+03  0.15497684754E+03  0.00000000000E+00 0. -1.
         21    1    1    2  505  502  0.54435492867E+02 -0.14579724024E+02  0.20725194153E+01  0.56392256322E+02  0.00000000000E+00 0.  1.
         21    1    1    2  506  504 -0.25658328617E+02 -0.18787853067E+02 -0.16008642416E+03  0.16321457181E+03  0.00000000000E+00 0. -1.
<scales pt_clust_3="14000.00000" pt_clust_4="95.53844" pt_clust_5="53.40091" pt_clust_6="31.80147"></scales>
<clustering>
<clus scale="   31.801">  2  6  1 -1</clus>
<clus scale="   53.401">  1  5  2 -1</clus>
<clus scale="   95.538">  2  4  1 -1</clus>
<clus scale="   53.401">  1  3  2 -1</clus>
</clustering>
</event>
<event>
 6    0  0.3446372E+002  0.1171284E+03  0.7546771E-02  0.1247911E+00
         21   -1    0    0  503  501  0.00000000000E+00  0.00000000000E+00  0.48523202124E+03  0.48523202124E+03  0.00000000000E+00 0. -1.
         21   -1    0    0  506  502 -0.00000000000E+00 -0.00000000000E+00 -0.87001955588E+02  0.87001955588E+02  0.00000000000E+00 0. -1.
         21    1    1    2  503  502  0.11647621268E+03  0.45904638070E+02  0.39365390911E+03  0.41308273272E+03  0.00000000000E+00 0. -1.
         21    1    1    2  504  501 -0.25680379173E+02 -0.18566862631E+02  0.38204642363E+02  0.49636729953E+02  0.00000000000E+00 0. -1.
         21    1    1    2  505  504 -0.42430092185E+02 -0.15395301246E+02  0.64246846019E+01  0.45591716304E+02  0.00000000000E+00 0. -1.
         21    1    1    2  506  505 -0.48365741326E+02 -0.11942474193E+02 -0.40053170422E+02  0.63922797848E+02  0.00000000000E+00 0. -1.
<scales pt_clust_3="111.51166" pt_clust_4="30.02685" pt_clust_5="30.02685" pt_clust_6="49.81835"></scales>
<clustering>
<clus scale="   30.027">  4  5 -1 -1</clus>
<clus scale="   49.818">  2  6  1 -1</clus>
<clus scale="  111.512">  1  3  2 -1</clus>
<clus scale="  111.512">  1  3  2 -1</clus>
</clustering>
</event>
<event>
 6    0  0.3446372E+002  0.1267480E+03  0.7546771E-02  0.1232362E+00
         21   -1    0    0  506  501  0.00000000000E+00  0.00000000000E+00  0.21664781563E+04  0.21664781563E+04  0.00000000000E+00 0.  1.
         21   -1    0    0  503  502 -0.00000000000E+00 -0.00000000000E+00 -0.11028732001E+03  0.11028732001E+03  0.00000000000E+00 0. -1.
         21    1    1    2  503  505 -0.16661818835E+03  0.60299691996E+02  0.20484334901E+02  0.17837399340E+03  0.00000000000E+00 0. -1.
         21    1    1    2  504  502  0.61147105941E+02 -0.24988739978E+02  0.36933620763E+02  0.75680235421E+02  0.00000000000E+00 0. -1.
         21    1    1    2  505  501 -0.75533406080E+02 -0.36331388735E+02  0.12326324729E+04  0.12354788863E+04  0.00000000000E+00 0. -1.
         21    1    1    2  506  504  0.18100448849E+03  0.10204367168E+01  0.76614040770E+03  0.78723236116E+03  0.00000000000E+00 0.  1.
<scales pt_clust_3="126.74803" pt_clust_4="66.05608" pt_clust_5="83.12734" pt_clust_6="14000.00000"></scales>
<clustering>
<clus scale="   66.056">  2  4  1 -1</clus>
<clus scale="   83.127">  1  5  2 -1</clus>
<clus scale="  126.748">  2  3  1 -1</clus>
<clus scale="   83.127">  1  3  2 -1</clus>
</clustering>
</event>
<event>
 6    0  0.3446372E+002  0.1064493E+03  0.7546771E-02  0.1267290E+00
         21   -1    0    0  506  501  0.00000000000E+00  0.00000000000E+00  0.12474251505E+04  0.12474251505E+04  0.00000000000E+00 0. -1.
         21   -1    0    0  504  502 -0.00000000000E+00 -0.00000000000E+00 -0.21764579061E+02  0.21764579061E+02  0.00000000000E+00 0.  1.
         21    1    1    2  503  505  0.25721036531E+02  0.36289690723E+02  0.17281944869E+03  0.17845188488E+03  0.00000000000E+00 0. -1.
         21    1    1    2  504  503  0.43999140585E+02  0.80949494527E+01  0.16367722044E+03  0.16968112762E+03  0.00000000000E+00 0. -1.
         21    1    1    2  505  501  0.43457253623E+02 -0.22278390277E+02  0.68371905940E+03  0.68546087543E+03  0.00000000000E+00 0. -1.
         21    1    1    2  506  502 -0.11317743074E+03 -0.22106249899E+02  0.20544484293E+03  0.23559584164E+03  0.00000000000E+00 0.  1.
<scales pt_clust_3="33.60297" pt_clust_4="33.60297" pt_clust_5="48.83502" pt_clust_6="100.97408"></scales>
<clustering>
<clus scale="   33.603">  3  4 -1 -1</clus>
<clus scale="   48.835">  1  5  2 -1</clus>
<clus scale="  100.974">  2  6  1 -1</clus>
<clus scale="   48.835">  1  3  2 -1</clus>
</clustering>
</event>
<event>
 6    0  0.3446372E+002  0.1313118E+03  0.7546771E-02  0.1225522E+00
         21   -1    0    0  503  501  0.00000000000E+00  0.00000000000E+00  0.54956769753E+03  0.54956769753E+03  0.00000000000E+00 0.  1.
         21   -1    0    0  504  502 -0.00000000000E+00 -0.00000000000E+00 -0.38594967310E+03  0.38594967310E+03  0.00000000000E+00 0.  1.
         21    1    1    2  503  506  0.13910430441E+02 -0.91432073331E+02  0.39326527051E+03  0.40399368448E+03  0.00000000000E+00 0.  1.
         21    1    1    2  504  505 -0.13555508912E+03  0.32715859636E+02 -0.28607422319E+03  0.31825142707E+03  0.00000000000E+00 0.  1.
         21    1    1    2  505  501  0.11881888038E+03  0.89835732090E+02  0.84508785934E+02  0.17126038653E+03  0.00000000000E+00 0.  1.
         21    1    1    2  506  502  0.28257783028E+01 -0.31119518394E+02 -0.28081808826E+02  0.42011872548E+02  0.00000000000E+00 0. -1.
<scales pt_clust_3="92.96099" pt_clust_4="14000.00000" pt_clust_5="131.31182" pt_clust_6="31.24755"></scales>
<clustering>
<clus scale="   31.248">  2  6  1 -1</clus>
<clus scale="   92.961">  1  3  2 -1</clus>
<clus scale="  131.312">  1  5  2 -1</clus>
<clus scale="   92.961">  1  3  2 -1</clus>
</clustering>
</event>
<event>
 6    0  0.3446372E+002  0.1790110E+03  0.7546771E-02  0.1168764E+00
         21   -1    0    0  504  501  0.00000000000E+00  0.00000000000E+00  0.16117533248E+04  0.16117533248E+04  0.00000000000E+00 0. -1.
         21   -1    0    0  506  502 -0.00000000000E+00 -0.00000000000E+00 -0.14264666640E+03  0.14264666640E+03  0.00000000000E+00 0. -1.
         21    1    1    2  503  502 -0.11089224709E+03 -0.14379242235E+03 -0.32721976673E+02  0.18451037626E+03  0.00000000000E+00 0. -1.
         21    1    1    2  504  503  0.13720882574E+03  0.12189334999E+03  0.60233480928E+03  0.62967568883E+03  0.00000000000E+00 0.  1.
         21    1    1    2  505  501  0.15399403627E+02 -0.27568372415E+02  0.86741564228E+03  0.86799023800E+03  0.00000000000E+00 0. -1.
         21    1    1    2  506  505 -0.41715982272E+02  0.49467444773E+02  0.32078183542E+02  0.72223688141E+02  0.00000000000E+00 0. -1.
<scales pt_clust_3="14000.00000" pt_clust_4="179.01096" pt_clust_5="31.57779" pt_clust_6="62.53741"></scales>
<clustering>
<clus scale="   31.578">  1  5  2 -1</clus>
<clus scale="   62.537">  2  6  1 -1</clus>
<clus scale="  179.011">  1  4  2 -1</clus>
<clus scale="   31.578">  1  3  2 -1</clus>
</clustering>
</event>
<event>
 6    0  0.3446372E+002  0.1919515E+03  0.7546771E-02  0.1156713E+00
         21   -1    0    0  505  501  0.00000000000E+00  0.00000000000E+00  0.24105020666E+03  0.24105020666E+03  0.00000000000E+00 0.  1.
         21   -1    0    0  503  502 -0.00000000000E+00 -0.00000000000E+00 -0.64103932096E+03  0.64103932096E+03  0.00000000000E+00 0.  1.
         21    1    1    2  503  501  0.69996911554E+02  0.25706295544E+03 -0.29306585006E+03  0.39606631157E+03  0.00000000000E+00 0.  1.
         21    1    1    2  504  506 -0.62136583239E+02 -0.17074348206E+02 -0.66276836198E+02  0.92439749890E+02  0.00000000000E+00 0.  1.
         21    1    1    2  505  504  0.43545710520E+02 -0.17976920115E+03  0.11581122121E+03  0.21823252174E+03  0.00000000000E+00 0.  1.
         21    1    1    2  506  502 -0.51406038835E+02 -0.60219406082E+02 -0.15645764925E+03  0.17535094442E+03  0.00000000000E+00 0.  1.
<scales pt_clust_3="191.95152" pt_clust_4="51.31121" pt_clust_5="14000.00000" pt_clust_6="148.66474"></scales>
<clustering>
<clus scale="   51.311">  4  6 -1 -1</clus>
<clus scale="  148.665">  2  4  1 -1</clus>
<clus scale="  191.952">  2  3  1 -1</clus>
<clus scale="  191.952">  1  3  2 -1</clus>
</clustering>
</event>
<event>
 6    0  0.3446372E+002  0.1061952E+03  0.7546771E-02  0.1267782E+00
         21   -1    0    0  505  501  0.00000000000E+00  0.00000000000E+00  0.56112697651E+03  0.56112697651E+03  0.00000000000E+00 0. -1.
         21   -1    0    0  503  502 -0.00000000000E+00 -0.00000000000E+00 -0.33374696318E+03  0.33374696318E+03  0.00000000000E+00 0.  1.
         21    1    1    2  503  504 -0.23980007080E+02 -0.44122136277E+02 -0.24701769893E+02  0.55964105327E+02  0.00000000000E+00 0. -1.
         21    1    1    2  504  501 -0.13229134858E+03 -0.40310802074E+01  0.48595191344E+03  0.50365316706E+03  0.00000000000E+00 0. -1.
         21    1    1    2  505  506  0.30050335653E+02  0.22026086621E+02  0.25824606600E+02  0.45333006416E+02  0.00000000000E+00 0.  1.
         21    1    1    2  506  502  0.12622102001E+03  0.26127129864E+02 -0.25969473682E+03  0.28992366088E+03  0.00000000000E+00 0.  1.
<scales pt_clust_3="49.21744" pt_clust_4="106.19524" pt_clust_5="37.25817" pt_clust_6="14000.00000"></scales>
<clustering>
<clus scale="   37.258">  1  5  2 -1</clus>
<clus scale="   49.217">  2  3  1 -1</clus>
<clus scale="  106.195">  1  4  2 -1</clus>
<clus scale="   37.258">  1  3  2 -1</clus>
</clustering>
</event>
<event>
 6    0  0.3446372E+002  0.1224717E+03  0.7546771E-02  0.1239074E+00
         21   -1    0    0  503  501  0.00000000000E+00  0.00000000000E+00  0.35672733296E+03  0.35672733296E+03  0.00000000000E+00 0. -1.
         21   -1    0    0  504  502 -0.00000000000E+00 -0.00000000000E+00 -0.22952203399E+03  0.22952203399E+03  0.00000000000E+00 0. -1.
         21    1    1    2  503  502  0.15515291215E+02  0.51218739567E+02 -0.63204694601E+02  0.82818578616E+02  0.00000000000E+00 0. -1.
         21    1    1    2  504  506  0.60972605574E+02 -0.14710706837E+01 -0.36781197699E+02  0.71222743444E+02  0.00000000000E+00 0. -1.
         21    1    1    2  505  501  0.99131083047E+02 -0.61450184594E+02  0.22810942030E+03  0.25619719835E+03  0.00000000000E+00 0. -1.
         21    1    1    2  506  505 -0.17561897984E+03  0.11702515712E+02 -0.91822903057E+00  0.17601084653E+03  0.00000000000E+00 0. -1.
<scales pt_clust_3="53.51713" pt_clust_4="68.27603" pt_clust_5="14000.00000" pt_clust_6="122.47170"></scales>
<clustering>
<clus scale="   53.517">  2  3  1 -1</clus>
<clus scale="   68.276">  2  4  1 -1</clus>
<clus scale="  122.472">  2  6  1 -1</clus>
<clus scale="  122.472">  1  3  2 -1</clus>
</clustering>
</event>
<event>
 6    0  0.3446372E+002  0.9441319E+02  0.7546771E-02  0.1292503E+00
         21   -1    0    0  503  501  0.00000000000E+00  0.00000000000E+00  0.11578269933E+04  0.11578269933E+04  0.00000000000E+00 0. -1.
         21   -1    0    0  505  502 -0.00000000000E+00 -0.00000000000E+00 -0.68128772868E+02  0.68128772868E+02  0.00000000000E+00 0. -1.
         21    1    1    2  503  502 -0.88612841342E+02  0.39529306228E+02  0.66132069146E+02  0.11742338894E+03  0.00000000000E+00 0. -1.
         21    1    1    2  504  501  0.16705880604E+02  0.38065741308E+02  0.85841017958E+03  0.85941615269E+03  0.00000000000E+00 0. -1.
         21    1    1    2  505  506  0.53131571182E+02  0.40276429027E+02  0.67795035109E+02  0.95085863181E+02  0.00000000000E+00 0. -1.
         21    1    1    2  506  504  0.18775389556E+02 -0.11787147656E+03  0.97360936585E+02  0.15403036133E+03  0.00000000000E+00 0. -1.
<scales pt_clust_3="94.41319" pt_clust_4="41.57027" pt_clust_5="76.76281" pt_clust_6="14000.00000"></scales>
<clustering>
<clus scale="   41.570">  1  4  2 -1</clus>
<clus scale="   76.763">  2  5  1 -1</clus>
<clus scale="   94.413">  2  3  1 -1</clus>
<clus scale="   41.570">  1  3  2 -1</clus>
</clustering>
</event>
<event>
 6    0  0.3446372E+002  0.7815902E+02  0.7546771E-02  0.1334359E+00
         21   -1    0    0  506  501  0.00000000000E+00  0.00000000000E+00  0.11583492676E+03  0.11583492676E+03  0.00000000000E+00 0.  1.
         21   -1    0    0  503  502 -0.00000000000E+00 -0.00000000000E+00 -0.33142286092E+03  0.33142286092E+03  0.00000000000E+00 0. -1.
         21    1    1    2  503  505  0.63352465408E+02 -0.61140364946E+01 -0.19528844840E+03  0.20539837973E+03  0.00000000000E+00 0. -1.
         21    1    1    2  504  502  0.32965374135E+01  0.53885605500E+02 -0.78260118239E+02  0.95074558877E+02  0.00000000000E+00 0. -1.
         21    1    1    2  505  501 -0.55942502811E+02 -0.80865257713E+02  0.52838221907E+02  0.11162719749E+03  0.00000000000E+00 0.  1.
         21    1    1    2  506  504 -0.10706500010E+02  0.33093688708E+02  0.51224105758E+01  0.35157651584E+02  0.00000000000E+00 0. -1.
<scales pt_clust_3="78.15902" pt_clust_4="56.84188" pt_clust_5="14000.00000" pt_clust_6="34.78249"></scales>
<clustering>
<clus scale="   34.782">  1  6  2 -1</clus>
<clus scale="   56.842">  2  4  1 -1</clus>
<clus scale="   78.159">  2  3  1 -1</clus>
<clus scale="   34.782">  1  3  2 -1</clus>
</clustering>
</event>
<event>
 6    0  0.3446372E+002  0.7713261E+02  0.7546771E-02  0.1337391E+00
         21   -1    0    0  506  501  0.00000000000E+00  0.00000000000E+00  0.11832260769E+04  0.11832260769E+04  0.00000000000E+00 0. -1.
         21   -1    0    0  505  502 -0.00000000000E+00 -0.00000000000E+00 -0.13649209476E+03  0.13649209476E+03  0.00000000000E+00 0. -1.
         21    1    1    2  503  501  0.16317236430E+02 -0.98280369341E+02  0.72740457108E+03  0.73419526914E+03  0.00000000000E+00 0. -1.
         21    1    1    2  504  502 -0.72470835308E+02 -0.46693989348E+02 -0.22966117467E+02  0.89217672929E+02  0.00000000000E+00 0. -1.
         21    1    1    2  505  503  0.19195909171E+02  0.78270706233E+02 -0.51206362171E+02  0.95482343446E+02  0.00000000000E+00 0. -1.
         21    1    1    2  506  504  0.36957689707E+02  0.66703652456E+02  0.39350189072E+03  0.40082288618E+03  0.00000000000E+00 0. -1.
<scales pt_clust_3="62.31665" pt_clust_4="14000.00000" pt_clust_5="77.13261" pt_clust_6="76.25777"></scales>
<clustering>
<clus scale="   76.258">  1  6  2 -1</clus>
<clus scale="   62.317">  1  3  2 -1</clus>
<clus scale="   77.133">  2  5  1 -1</clus>
<clus scale="   76.258">  1  3  2 -1</clus>
</clustering>
</event>
<event>
 6    0  0.3446372E+002  0.9290824E+02  0.7546771E-02  0.1295958E+00
         21   -1    0    0  505  501  0.00000000000E+00  0.00000000000E+00  0.16431623968E+03  0.16431623968E+03  0.00000000000E+00 0. -1.
         21   -1    0    0  504  502 -0.00000000000E+00 -0.00000000000E+00 -0.27651233559E+03  0.27651233559E+03  0.00000000000E+00 0. -1.
         21    1    1    2  503  502 -0.33265399836E+02  0.88902581827E+01 -0.38452525939E+02  0.51616085360E+02  0.00000000000E+00 0.  1.
         21    1    1    2  504  501 -0.28035042045E+02 -0.84011479974E+02 -0.16070484835E+03  0.18349370734E+03  0.00000000000E+00 0. -1.
         21    1    1    2  505  506  0.40334040872E+02 -0.20311606227E+02  0.97492693058E+02  0.10744403846E+03  0.00000000000E+00 0. -1.
         21    1    1    2  506  503  0.20966401009E+02  0.95432828018E+02 -0.10531414677E+02  0.98274744110E+02  0.00000000000E+00 0. -1.
<scales pt_clust_3="34.43288" pt_clust_4="92.90824" pt_clust_5="44.43534" pt_clust_6="14000.00000"></scales>
<clustering>
<clus scale="   34.433">  2  3  1 -1</clus>
<clus scale="   44.435">  1  5  2 -1</clus>
<clus scale="   92.908">  2  4  1 -1</clus>
<clus scale="   44.435">  1  3  2 -1</clus>
</clustering>
</event>
<event>
 6    0  0.3446372E+002  0.2111991E+03  0.7546771E-02  0.1140620E+00
         21   -1    0    0  504  501  0.00000000000E+00  0.00000000000E+00  0.65732617084E+03  0.65732617084E+03  0.00000000000E+00 0.  1.
         21   -1    0    0  503  502 -0.00000000000E+00 -0.00000000000E+00 -0.14876828136E+03  0.14876828136E+03  0.00000000000E+00 0. -1.
         21    1    1    2  503  501  0.56152133704E+02 -0.13422908378E+03  0.20674214584E+03  0.25280985724E+03  0.00000000000E+00 0.  1.
         21    1    1    2  504  505  0.12709962203E+03 -0.22761590557E+02  0.27225863901E+03  0.30132568831E+03  0.00000000000E+00 0.  1.
         21    1    1    2  505  506 -0.71531188341E+02  0.40431101572E+02  0.37476996574E+02  0.90310077799E+02  0.00000000000E+00 0.  1.
         21    1    1    2  506  502 -0.11172056739E+03  0.11655957276E+03 -0.79198919376E+01  0.16164882885E+03  0.00000000000E+00 0. -1.
<scales pt_clust_3="200.55589" pt_clust_4="129.12166" pt_clust_5="47.22570" pt_clust_6="47.22570"></scales>
<clustering>
<clus scale="   47.226">  5  6 -1 -1</clus>
<clus scale="  129.122">  1  4  2 -1</clus>
<clus scale="  200.556">  1  3  2 -1</clus>
<clus scale="  129.122">  1  3  2 -1</clus>
</clustering>
</event>
<event>
 6    0  0.3446372E+002  0.1122380E+03  0.7546771E-02  0.1256481E+00
         21   -1    0    0  506  501  0.00000000000E+00  0.00000000000E+00  0.83211248558E+03  0.83211248558E+03  0.00000000000E+00 0.  1.
         21   -1    0    0  505  502 -0.00000000000E+00 -0.00000000000E+00 -0.12982773595E+03  0.12982773595E+03  0.00000000000E+00 0.  1.
         21    1    1    2  503  502  0.27911440220E+02  0.15299068405E+02 -0.22813462371E+02  0.39160746348E+02  0.00000000000E+00 0.  1.
         21    1    1    2  504  503 -0.20758099736E+02  0.26056001539E+02 -0.13324013943E+02  0.35879566168E+02  0.00000000000E+00 0.  1.
         21    1    1    2  505  501 -0.81753488316E+02  0.75019199322E+02  0.74038563321E+03  0.74865372435E+03  0.00000000000E+00 0.  1.
         21    1    1    2  506  504  0.74600147832E+02 -0.11637426927E+03 -0.19634072683E+01  0.13824618466E+03  0.00000000000E+00 0.  1.
<scales pt_clust_3="31.82939" pt_clust_4="32.90285" pt_clust_5="14000.00000" pt_clust_6="112.23799"></scales>
<clustering>
<clus scale="   31.829">  2  3  1 -1</clus>
<clus scale="   32.903">  2  4  1 -1</clus>
<clus scale="  112.238">  2  6  1 -1</clus>
<clus scale="  112.238">  1  3  2 -1</clus>
</clustering>
</event>
<event>
 6    0  0.3446372E+002  0.8184273E+02  0.7546771E-02  0.1323902E+00
         21   -1    0    0  504  501  0.00000000000E+00  0.00000000000E+00  0.60485833403E+03  0.60485833403E+03  0.00000000000E+00 0. -1.
         21   -1    0    0  506  502 -0.00000000000E+00 -0.00000000000E+00 -0.15357309408E+04  0.15357309408E+04  0.00000000000E+00 0.  1.
         21    1    1    2  503  502 -0.24342552675E+02 -0.45418626379E+02 -0.19637291983E+03  0.20302151397E+03  0.00000000000E+00 0. -1.
         21    1    1    2  504  505  0.65744106139E+02 -0.13464903144E+02  0.44006316263E+03  0.44515073651E+03  0.00000000000E+00 0. -1.
         21    1    1    2  505  503 -0.15657290691E+01  0.12378973108E+03 -0.13213040166E+04  0.13270910494E+04  0.00000000000E+00 0.  1.
         21    1    1    2  506  501 -0.39835824395E+02 -0.64906201558E+02  0.14674116702E+03  0.16532597498E+03  0.00000000000E+00 0. -1.
<scales pt_clust_3="51.53068" pt_clust_4="67.08081" pt_clust_5="14000.00000" pt_clust_6="81.84273"></scales>
<clustering>
<clus scale="   51.531">  2  3  1 -1</clus>
<clus scale="   67.081">  1  4  2 -1</clus>
<clus scale="   81.843">  1  6  2 -1</clus>
<clus scale="   67.081">  1  3  2 -1</clus>
</clustering>
</event>
<event>
 6    0  0.3446372E+002  0.1315702E+03  0.7546771E-02  0.1225144E+00
         21   -1    0    0  503  501  0.00000000000E+00  0.00000000000E+00  0.32226573893E+03  0.32226573893E+03  0.00000000000E+00 0. -1.
         21   -1    0    0  506  502 -0.00000000000E+00 -0.00000000000E+00 -0.40973069445E+03  0.40973069445E+03  0.00000000000E+00 0. -1.
         21    1    1    2  503  505 -0.22555457931E+02  0.43602753127E+02  0.12979922942E+03  0.13877243502E+03  0.00000000000E+00 0. -1.
         21    1    1    2  504  502 -0.66101925329E+02 -0.12804638948E+02 -0.18017064533E+03  0.19234054370E+03  0.00000000000E+00 0. -1.
         21    1    1    2  505  504 -0.23199218793E+02 -0.97153237564E+02 -0.18111304012E+03  0.20683057952E+03  0.00000000000E+00 0. -1.
         21    1    1    2  506  501  0.11185660205E+03  0.66355123385E+02  0.14401950052E+03  0.19405287514E+03  0.00000000000E+00 0. -1.
<scales pt_clust_3="49.09123" pt_clust_4="67.79623" pt_clust_5="131.57024" pt_clust_6="14000.00000"></scales>
<clustering>
<clus scale="   49.091">  1  3  2 -1</clus>
<clus scale="   67.796">  2  4  1 -1</clus>
<clus scale="  131.570">  2  5  1 -1</clus>
<clus scale="   49.091">  1  3  2 -1</clus>
</clustering>
</event>
<event>
 6    0  0.3446372E+002  0.1411249E+03  0.7546771E-02  0.1211823E+00
         21   -1    0    0  504  501  0.00000000000E+00  0.00000000000E+00  0.31959834388E+03  0.31959834388E+03  0.00000000000E+00 0.  1.
         21   -1    0    0  506  502 -0.00000000000E+00 -0.00000000000E+00 -0.89048751071E+02  0.89048751071E+02  0.00000000000E+00 0.  1.
         21    1    1    2  503  502 -0.46253675202E+02 -0.10583949881E+02 -0.66714395582E+01  0.47915869715E+02  0.00000000000E+00 0.  1.
         21    1    1    2  504  505  0.52615498339E+02  0.12303662406E+02  0.57453213842E+02  0.78871050170E+02  0.00000000000E+00 0.  1.
         21    1    1    2  505  503  0.82278035421E+02 -0.63384771144E+02  0.11902024700E+03  0.15796557701E+03  0.00000000000E+00 0.  1.
         21    1    1    2  506  501 -0.88639858559E+02  0.61665058619E+02  0.60747571525E+02  0.12389459805E+03  0.00000000000E+00 0.  1.
<scales pt_clust_3="47.44916" pt_clust_4="46.42745" pt_clust_5="46.42745" pt_clust_6="125.59091"></scales>
<clustering>
<clus scale="   46.427">  4  5 -1 -1</clus>
<clus scale="   47.449">  2  3  1 -1</clus>
<clus scale="  125.591">  2  6  1 -1</clus>
<clus scale="  141.125">  1  3  2 -1</clus>
</clustering>
</event>
<event>
 6    0  0.3446372E+002  0.9525826E+02  0.7546771E-02  0.1290595E+00
         21   -1    0    0  503  501  0.00000000000E+00  0.00000000000E+00  0.14249921544E+04  0.14249921544E+04  0.00000000000E+00 0.  1.
         21   -1    0    0  506  502 -0.00000000000E+00 -0.00000000000E+00 -0.42242484317E+03  0.42242484317E+03  0.00000000000E+00 0.  1.
         21    1    1    2  503  505 -0.65275834515E+02 -0.45283891700E+02  0.12736884734E+04  0.12761637405E+04  0.00000000000E+00 0.  1.
         21    1    1    2  504  502  0.56989090576E+02  0.78844834407E+02 -0.37673455503E+03  0.38909277725E+03  0.00000000000E+00 0.  1.
         21    1    1    2  505  504 -0.87929735500E+01 -0.84941329746E+02  0.32925663363E+02  0.91522921668E+02  0.00000000000E+00 0.  1.
         21    1    1    2  506  501  0.17079717489E+02  0.51380387039E+02  0.72687729544E+02  0.90637558154E+02  0.00000000000E+00 0. -1.
<scales pt_clust_3="49.18910" pt_clust_4="95.25826" pt_clust_5="14000.00000" pt_clust_6="54.14481"></scales>
<clustering>
<clus scale="   54.145">  1  6  2 -1</clus>
<clus scale="   49.189">  1  3  2 -1</clus>
<clus scale="   95.258">  2  4  1 -1</clus>
<clus scale="   54.145">  1  3  2 -1</clus>
</clustering>
</event>
<event>
 6    0  0.3446372E+002  0.8244857E+02  0.7546771E-02  0.1322243E+00
         21   -1    0    0  503  501  0.00000000000E+00  0.00000000000E+00  0.11793555186E+03  0.11793555186E+03  0.00000000000E+00 0.  1.
         21   -1    0    0  504  502 -0.00000000000E+00 -0.00000000000E+00 -0.10462587922E+04  0.10462587922E+04  0.00000000000E+00 0.  1.
         21    1    1    2  503  506  0.58040071959E+02 -0.10615041172E+01 -0.54805001286E+02  0.79833357126E+02  0.00000000000E+00 0.  1.
         21    1    1    2  504  505  0.19182065214E+02 -0.53806229560E+02 -0.97324044771E+02  0.11284959750E+03  0.00000000000E+00 0.  1.
         21    1    1    2  505  501 -0.13739990450E+03  0.82116890605E+01  0.46510240961E+02  0.14529063325E+03  0.00000000000E+00 0.  1.
         21    1    1    2  506  502  0.60177767329E+02  0.46656044617E+02 -0.82270443520E+03  0.82622075614E+03  0.00000000000E+00 0.  1.
<scales pt_clust_3="59.61466" pt_clust_4="57.12322" pt_clust_5="14000.00000" pt_clust_6="82.44857"></scales>
<clustering>
<clus scale="   57.123">  2  4  1 -1</clus>
<clus scale="   59.615">  1  3  2 -1</clus>
<clus scale="   82.449">  2  6  1 -1</clus>
<clus scale="   59.615">  1  3  2 -1</clus>
</clustering>
</event>
<event>
 6    0  0.3446372E+002  0.1146201E+03  0.7546771E-02  0.1252246E+00
         21   -1    0    0  505  501  0.00000000000E+00  0.00000000000E+00  0.54780327336E+03  0.54780327336E+03  0.00000000000E+00 0.  1.
         21   -1    0    0  503  502 -0.00000000000E+00 -0.00000000000E+00 -0.19577029104E+03  0.19577029104E+03  0.00000000000E+00 0. -1.
         21    1    1    2  503  501 -0.61148158054E+02  0.60828152878E+02  0.43382887321E+03  0.44231962724E+03  0.00000000000E+00 0.  1.
         21    1    1    2  504  506  0.49195677040E+02 -0.30625394905E+02 -0.67309568263E+02  0.88818395799E+02  0.00000000000E+00 0. -1.
         21    1    1    2  505  504 -0.44128340637E+02 -0.25127193296E+02  0.84481965198E+02  0.98569207839E+02  0.00000000000E+00 0.  1.
         21    1    1    2  506  502  0.56080821651E+02 -0.50755646777E+01 -0.98968287827E+02  0.11386633352E+03  0.00000000000E+00 0. -1.
<scales pt_clust_3="109.83032" pt_clust_4="32.32122" pt_clust_5="50.78077" pt_clust_6="32.32122"></scales>
<clustering>
<clus scale="   32.321">  4  6 -1 -1</clus>
<clus scale="   50.781">  1  5  2 -1</clus>
<clus scale="  109.830">  1  3  2 -1</clus>
<clus scale="   50.781">  1  3  2 -1</clus>
</clustering>
</event>
<event>
 6    0  0.3446372E+002  0.1211335E+03  0.7546771E-02  0.1241239E+00
         21   -1    0    0  505  501  0.00000000000E+00  0.00000000000E+00  0.56795736934E+03  0.56795736934E+03  0.00000000000E+00 0.  1.
         21   -1    0    0  503  502 -0.00000000000E+00 -0.00000000000E+00 -0.16318318878E+03  0.16318318878E+03  0.00000000000E+00 0. -1.
         21    1    1    2  503  501  0.45791605919E+02  0.11078256949E+03  0.45102484264E+03  0.46668303757E+03  0.00000000000E+00 0.  1.
         21    1    1    2  504  506  0.18069976422E+02 -0.41238937451E+02 -0.19917143748E+02  0.49232779985E+02  0.00000000000E+00 0.  1.
         21    1    1    2  505  504 -0.66734350606E+02  0.48694730093E+00  0.69593099491E+02  0.96420486232E+02  0.00000000000E+00 0.  1.
         21    1    1    2  506  502  0.28727682644E+01 -0.70030579343E+02 -0.95926617818E+02  0.11880425433E+03  0.00000000000E+00 0. -1.
<scales pt_clust_3="112.58842" pt_clust_4="35.81815" pt_clust_5="66.73613" pt_clust_6="35.81815"></scales>
<clustering>
<clus scale="   35.818">  4  6 -1 -1</clus>
<clus scale="   66.736">  1  5  2 -1</clus>
<clus scale="  112.588">  1  3  2 -1</clus>
<clus scale="   66.736">  1  3  2 -1</clus>
</clustering>
</event>
<event>
 6    0  0.3446372E+002  0.9988434E+02  0.7546771E-02  0.1280539E+00
         21   -1    0    0  506  501  0.00000000000E+00  0.00000000000E+00  0.17398592207E+04  0.17398592207E+04  0.00000000000E+00 0. -1.
         21   -1    0    0  504  502 -0.00000000000E+00 -0.00000000000E+00 -0.90252261924E+03  0.90252261924E+03  0.00000000000E+00 0.  1.
         21    1    1    2  503  501 -0.49046923622E+02 -0.20762206673E+02  0.15877664067E+04  0.15886594450E+04  0.00000000000E+00 0. -1.
         21    1    1    2  504  505  0.17641731423E+02 -0.61623276271E+02 -0.78679035746E+03  0.78939706451E+03  0.00000000000E+00 0.  1.
         21    1    1    2  505  503  0.12983666131E+02  0.11490887106E+03  0.12369322408E+03  0.16932996757E+03  0.00000000000E+00 0. -1.
         21    1    1    2  506  502  0.18421526068E+02 -0.32523388119E+02 -0.87332671841E+02  0.94995362878E+02  0.00000000000E+00 0.  1.
<scales pt_clust_3="53.25804" pt_clust_4="99.88434" pt_clust_5="14000.00000" pt_clust_6="37.37811"></scales>
<clustering>
<clus scale="   37.378">  2  6  1 -1</clus>
<clus scale="   53.258">  1  3  2 -1</clus>
<clus scale="   99.884">  2  4  1 -1</clus>
<clus scale="   53.258">  1  3  2 -1</clus>
</clustering>
</event>
<event>
 6    0  0.3446372E+002  0.1821354E+03  0.7546771E-02  0.1165752E+00
         21   -1    0    0  503  501  0.00000000000E+00  0.00000000000E+00  0.21374389837E+03  0.21374389837E+03  0.00000000000E+00 0. -1.
         21   -1    0    0  505  502 -0.00000000000E+00 -0.00000000000E+00 -0.71426263881E+03  0.71426263881E+03  0.00000000000E+00 0. -1.
         21    1    1    2  503  506  0.16068795168E+03 -0.21978303670E+02 -0.25569850759E+03  0.30279595511E+03  0.00000000000E+00 0. -1.
         21    1    1    2  504  501  0.10506210069E+02  0.68870186675E+02  0.78045436384E+02  0.10461631423E+03  0.00000000000E+00 0. -1.
         21    1    1    2  505  504 -0.18865380895E+03  0.10574089130E+02  0.32663204872E+01  0.18897814646E+03  0.00000000000E+00 0. -1.
         21    1    1    2  506  502  0.17459647203E+02 -0.57465972135E+02 -0.32613198972E+03  0.33161612138E+03  0.00000000000E+00 0. -1.
<scales pt_clust_3="14000.00000" pt_clust_4="67.80524" pt_clust_5="182.13538" pt_clust_6="60.05978"></scales>
<clustering>
<clus scale="   60.060">  2  6  1 -1</clus>
<clus scale="   67.805">  1  4  2 -1</clus>
<clus scale="  182.135">  1  5  2 -1</clus>
<clus scale="   67.805">  1  3  2 -1</clus>
</clustering>
</event>
<event>
 6    0  0.3446372E+002  0.1197683E+03  0.7546771E-02  0.1243480E+00
         21   -1    0    0  506  501  0.00000000000E+00  0.00000000000E+00  0.22091960259E+03  0.22091960259E+03  0.00000000000E+00 0.  1.
         21   -1    0    0  505  502 -0.00000000000E+00 -0.00000000000E+00 -0.84821313565E+03  0.84821313565E+03  0.00000000000E+00 0.  1.
         21    1    1    2  503  501 -0.67630795473E+02 -0.10223824048E+03  0.18706188608E+03  0.22364867882E+03  0.00000000000E+00 0.  1.
         21    1    1    2  504  502 -0.35485230758E+02  0.31754982119E+02 -0.12421465334E+03  0.13302954783E+03  0.00000000000E+00 0.  1.
         21    1    1    2  505  503  0.28630234782E+02  0.14284814292E+02 -0.49624677422E+03  0.49727719351E+03  0.00000000000E+00 0.  1.
         21    1    1    2  506  504  0.74485791449E+02  0.56198444068E+02 -0.19389399158E+03  0.21517731808E+03  0.00000000000E+00 0.  1.
<scales pt_clust_3="119.76831" pt_clust_4="44.64411" pt_clust_5="31.99604" pt_clust_6="14000.00000"></scales>
<clustering>
<clus scale="   31.996">  2  5  1 -1</clus>
<clus scale="   44.644">  2  4  1 -1</clus>
<clus scale="  119.768">  1  3  2 -1</clus>
<clus scale="  119.768">  1  3  2 -1</clus>
</clustering>
</event>
<event>
 6    0  0.3446372E+002  0.1088616E+03  0.7546771E-02  0.1262693E+00
         21   -1    0    0  505  501  0.00000000000E+00  0.00000000000E+00  0.41318621784E+03  0.41318621784E+03  0.00000000000E+00 0. -1.
         21   -1    0    0  504  502 -0.00000000000E+00 -0.00000000000E+00 -0.94279024097E+02  0.94279024097E+02  0.00000000000E+00 0. -1.
         21    1    1    2  503  501  0.42320252005E+02 -0.13587877232E+02 -0.36067203785E+02  0.57240521716E+02  0.00000000000E+00 0. -1.
         21    1    1    2  504  503  0.37906566411E+02 -0.21950396485E+02 -0.81183663996E+00  0.43810806449E+02  0.00000000000E+00 0. -1.
         21    1    1    2  505  506 -0.57033599398E+02  0.90736553551E+02  0.31809725932E+03  0.33566623304E+03  0.00000000000E+00 0. -1.
         21    1    1    2  506  502 -0.23193219018E+02 -0.55198279834E+02  0.37688974849E+02  0.70747680741E+02  0.00000000000E+00 0. -1.
<scales pt_clust_3="33.69397" pt_clust_4="33.69397" pt_clust_5="103.43530" pt_clust_6="59.87299"></scales>
<clustering>
<clus scale="   33.694">  3  4 -1 -1</clus>
<clus scale="   59.873">  2  6  1 -1</clus>
<clus scale="  103.435">  1  5  2 -1</clus>
<clus scale="  103.435">  1  3  2 -1</clus>
</clustering>
</event>
<event>
 6    0  0.3446372E+002  0.9556192E+02  0.7546771E-02  0.1289915E+00
         21   -1    0    0  506  501  0.00000000000E+00  0.00000000000E+00  0.53875802617E+03  0.53875802617E+03  0.00000000000E+00 0. -1.
         21   -1    0    0  505  502 -0.00000000000E+00 -0.00000000000E+00 -0.96685498206E+02  0.96685498206E+02  0.00000000000E+00 0. -1.
         21    1    1    2  503  504 -0.36916994194E+02  0.64064408341E+02  0.54924130949E+01  0.74143640847E+02  0.00000000000E+00 0. -1.
         21    1    1    2  504  502  0.39373043732E+02  0.45836294284E+02 -0.33852410525E+02  0.69261736513E+02  0.00000000000E+00 0. -1.
         21    1    1    2  505  501 -0.37160329097E+02 -0.89754651719E+02  0.39296863522E+03  0.40479764801E+03  0.00000000000E+00 0. -1.
         21    1    1    2  506  503  0.34704279559E+02 -0.20146050906E+02  0.77463890175E+02  0.87240499012E+02  0.00000000000E+00 0.  1.
<scales pt_clust_3="14000.00000" pt_clust_4="60.72886" pt_clust_5="95.56192" pt_clust_6="40.12793"></scales>
<clustering>
<clus scale="   40.128">  1  6  2 -1</clus>
<clus scale="   60.729">  2  4  1 -1</clus>
<clus scale="   95.562">  1  5  2 -1</clus>
<clus scale="   40.128">  1  3  2 -1</clus>
</clustering>
</event>
<event>
 6    0  0.3446372E+002  0.9693720E+02  0.7546771E-02  0.1286872E+00
         21   -1    0    0  505  501  0.00000000000E+00  0.00000000000E+00  0.13016895137E+04  0.13016895137E+04  0.00000000000E+00 0. -1.
         21   -1    0    0  506  502 -0.00000000000E+00 -0.00000000000E+00 -0.86033287842E+02  0.86033287842E+02  0.00000000000E+00 0.  1.
         21    1    1    2  503  502  0.53955181051E+02  0.44290194201E+01 -0.23388759109E+02  0.58972975403E+02  0.00000000000E+00 0.  1.
         21    1    1    2  504  503  0.59265379727E+02  0.28505811867E+02  0.56184071651E+02  0.86496337793E+02  0.00000000000E+00 0.  1.
         21    1    1    2  505  504  0.16070183052E+02  0.28983857618E+02  0.10377361768E+04  0.10382652298E+04  0.00000000000E+00 0. -1.
         21    1    1    2  506  501 -0.12929074383E+03 -0.61918688904E+02  0.14512473653E+03  0.20398825856E+03  0.00000000000E+00 0.  1.
<scales pt_clust_3="55.40858" pt_clust_4="14000.00000" pt_clust_5="33.14083" pt_clust_6="96.93720"></scales>
<clustering>
<clus scale="   33.141">  1  5  2 -1</clus>
<clus scale="   55.409">  2  3  1 -1</clus>
<clus scale="   96.937">  2  6  1 -1</clus>
<clus scale="   33.141">  1  3  2 -1</clus>
</clustering>
</event>
<event>
 6    0  0.3446372E+002  0.8078937E+02  0.7546771E-02  0.1326826E+00
         21   -1    0    0  505  501  0.00000000000E+00  0.00000000000E+00  0.49509080796E+03  0.49509080796E+03  0.00000000000E+00 0.  1.
         21   -1    0    0  501  502 -0.00000000000E+00 -0.00000000000E+00 -0.22467757156E+04  0.22467757156E+04  0.00000000000E+00 0.  1.
         21    1    1    2  503  504 -0.10229622730E+03 -0.14281591170E+01 -0.46026205521E+03  0.47149519321E+03  0.00000000000E+00 0.  1.
         21    1    1    2  504  506 -0.24098495552E+02  0.52732697791E+02 -0.78912324667E+03  0.79125025962E+03  0.00000000000E+00 0.  1.
         21    1    1    2  505  503  0.71955026618E+02 -0.36578494224E+02  0.48426486125E+03  0.49094599289E+03  0.00000000000E+00 0.  1.
         21    1    1    2  506  502  0.54439696233E+02 -0.14726044450E+02 -0.98656446698E+03  0.98817507781E+03  0.00000000000E+00 0.  1.
<scales pt_clust_3="80.78937" pt_clust_4="44.64111" pt_clust_5="14000.00000" pt_clust_6="56.39625"></scales>
<clustering>
<clus scale="   56.396">  2  6  1 -1</clus>
<clus scale="   44.641">  2  4  1 -1</clus>
<clus scale="   80.789">  2  3  1 -1</clus>
<clus scale="   80.789">  1  3  2 -1</clus>
</clustering>
</event>
<event>
 6    0  0.3446372E+002  0.9484007E+02  0.7546771E-02  0.1291537E+00
         21   -1    0    0  505  501  0.00000000000E+00  0.00000000000E+00  0.24142201399E+03  0.24142201399E+03  0.00000000000E+00 0. -1.
         21   -1    0    0  504  502 -0.00000000000E+00 -0.00000000000E+00 -0.43006191584E+03  0.43006191584E+03  0.00000000000E+00 0.  1.
         21    1    1    2  503  506 -0.75163275859E+02 -0.42505288358E+02 -0.42507011570E+00  0.86350438684E+02  0.00000000000E+00 0.  1.
         21    1    1    2  504  503  0.83530789538E+02  0.47564821389E+02 -0.34910484300E+03  0.36209666726E+03  0.00000000000E+00 0.  1.
         21    1    1    2  505  502 -0.35084223521E+02  0.14582920339E+02 -0.17328668309E+02  0.41759394763E+02  0.00000000000E+00 0.  1.
         21    1    1    2  506  501  0.26716709841E+02 -0.19642453369E+02  0.17821867958E+03  0.18127742912E+03  0.00000000000E+00 0. -1.
<scales pt_clust_3="14000.00000" pt_clust_4="94.84007" pt_clust_5="31.65326" pt_clust_6="33.16035"></scales>
<clustering>
<clus scale="   33.160">  1  6  2 -1</clus>
<clus scale="   31.653">  1  5  2 -1</clus>
<clus scale="   94.840">  2  4  1 -1</clus>
<clus scale="   33.160">  1  3  2 -1</clus>
</clustering>
</event>
<event>
 6    0  0.3446372E+002  0.9197120E+02  0.7546771E-02  0.1298147E+00
         21   -1    0    0  505  501  0.00000000000E+00  0.00000000000E+00  0.77163547884E+02  0.77163547884E+02  0.00000000000E+00 0. -1.
         21   -1    0    0  504  502 -0.00000000000E+00 -0.00000000000E+00 -0.67375522855E+03  0.67375522855E+03  0.00000000000E+00 0. -1.
         21    1    1    2  503  501  0.63224017325E+02  0.15499970354E+02 -0.14702031429E+03  0.16078712094E+03  0.00000000000E+00 0. -1.
         21    1    1    2  504  503  0.95116883323E+01 -0.62745847310E+02 -0.35791930814E+03  0.36350205599E+03  0.00000000000E+00 0. -1.
         21    1    1    2  505  506 -0.29580101589E+02  0.11056443479E+03 -0.10368455624E+02  0.11492163209E+03  0.00000000000E+00 0. -1.
         21    1    1    2  506  502 -0.43155604068E+02 -0.63318557835E+02 -0.81283602613E+02  0.11170796741E+03  0.00000000000E+00 0. -1.
<scales pt_clust_3="69.61332" pt_clust_4="63.46269" pt_clust_5="91.97120" pt_clust_6="14000.00000"></scales>
<clustering>
<clus scale="   63.463">  2  4  1 -1</clus>
<clus scale="   69.613">  2  3  1 -1</clus>
<clus scale="   91.971">  1  5  2 -1</clus>
<clus scale="   91.971">  1  3  2 -1</clus>
</clustering>
</event>
<event>
 6    0  0.3446372E+002  0.7317238E+02  0.7546771E-02  0.1349626E+00
         21   -1    0    0  503  501  0.00000000000E+00  0.00000000000E+00  0.38339114822E+03  0.38339114822E+03  0.00000000000E+00 0. -1.
         21   -1    0    0  505  502 -0.00000000000E+00 -0.00000000000E+00 -0.67217889598E+02  0.67217889598E+02  0.00000000000E+00 0.  1.
         21    1    1    2  503  502 -0.78882904977E+02 -0.66954587813E+02  0.45213416695E+02  0.11291449232E+03  0.00000000000E+00 0.  1.
         21    1    1    2  504  506 -0.20422892090E+00  0.62712640110E+02  0.19306579975E+02  0.65617535533E+02  0.00000000000E+00 0.  1.
         21    1    1    2  505  504  0.25966531523E+02  0.16631159612E+02  0.27287603739E+02  0.41176079794E+02  0.00000000000E+00 0.  1.
         21    1    1    2  506  501  0.53120602375E+02 -0.12389211909E+02  0.22436565821E+03  0.23090093017E+03  0.00000000000E+00 0. -1.
<scales pt_clust_3="73.17238" pt_clust_4="14000.00000" pt_clust_5="30.83596" pt_clust_6="55.72525"></scales>
<clustering>
<clus scale="   30.836">  2  5  1 -1</clus>
<clus scale="   55.725">  1  6  2 -1</clus>
<clus scale="   73.172">  2  3  1 -1</clus>
<clus scale="   55.725">  1  3  2 -1</clus>
</clustering>
</event>
<event>
 6    0  0.3446372E+002  0.8944314E+02  0.7546771E-02  0.1304206E+00
         21   -1    0    0  504  501  0.00000000000E+00  0.00000000000E+00  0.52539438455E+03  0.52539438455E+03  0.00000000000E+00 0. -1.
         21   -1    0    0  505  502 -0.00000000000E+00 -0.00000000000E+00 -0.75461203310E+03  0.75461203310E+03  0.00000000000E+00 0.  1.
         21    1    1    2  503  506  0.38079367258E+02 -0.15169130517E+03  0.35174629175E+03  0.38494901485E+03  0.00000000000E+00 0. -1.
         21    1    1    2  504  503 -0.15921801071E+02  0.65765002296E+02  0.14031008379E+03  0.15577374262E+03  0.00000000000E+00 0. -1.
         21    1    1    2  505  501 -0.84628113988E+01  0.49592330685E+02 -0.68269956207E+03  0.68455073624E+03  0.00000000000E+00 0.  1.
         21    1    1    2  506  502 -0.13694754788E+02  0.36333972191E+02 -0.38574462014E+02  0.54732923945E+02  0.00000000000E+00 0. -1.
<scales pt_clust_3="89.44314" pt_clust_4="68.08579" pt_clust_5="14000.00000" pt_clust_6="38.82916"></scales>
<clustering>
<clus scale="   38.829">  2  6  1 -1</clus>
<clus scale="   68.086">  1  4  2 -1</clus>
<clus scale="   89.443">  1  3  2 -1</clus>
<clus scale="   68.086">  1  3  2 -1</clus>
</clustering>
</event>
<event>
 6    0  0.3446372E+002  0.1056090E+03  0.7546771E-02  0.1268924E+00
         21   -1    0    0  506  501  0.00000000000E+00  0.00000000000E+00  0.64073926245E+03  0.64073926245E+03  0.00000000000E+00 0.  1.
         21   -1    0    0  504  502 -0.00000000000E+00 -0.00000000000E+00 -0.48526877954E+02  0.48526877954E+02  0.00000000000E+00 0.  1.
         21    1    1    2  503  505  0.94891286313E+02  0.85402182291E+01  0.17881541208E+03  0.20261353149E+03  0.00000000000E+00 0.  1.
         21    1    1    2  504  503 -0.20573122713E+02 -0.60556491410E+02  0.63261897486E+02  0.89957821803E+02  0.00000000000E+00 0.  1.
         21    1    1    2  505  501  0.35350921537E+02 -0.32639165799E+01  0.19808108310E+03  0.20123731336E+03  0.00000000000E+00 0. -1.
         21    1    1    2  506  502 -0.10966908514E+03  0.55280189761E+02  0.15205399183E+03  0.19545747376E+03  0.00000000000E+00 0.  1.
<scales pt_clust_3="105.60900" pt_clust_4="62.80433" pt_clust_5="35.50128" pt_clust_6="14000.00000"></scales>
<clustering>
<clus scale="   35.501">  1  5  2 -1</clus>
<clus scale="   62.804">  2  4  1 -1</clus>
<clus scale="  105.609">  1  3  2 -1</clus>
<clus scale="   35.501">  1  3  2 -1</clus>
</clustering>
</event>
<event>
 6    0  0.3446372E+002  0.1156881E+03  0.7546771E-02  0.1250385E+00
         21   -1    0    0  505  501  0.00000000000E+00  0.00000000000E+00  0.39319576219E+03  0.39319576219E+03  0.00000000000E+00 0.  1.
         21   -1    0    0  503  502 -0.00000000000E+00 -0.00000000000E+00 -0.13713262793E+03  0.13713262793E+03  0.00000000000E+00 0. -1.
         21    1    1    2  503  506  0.64487382632E+02 -0.92424313100E+02  0.78582976983E+02  0.13739053986E+03  0.00000000000E+00 0. -1.
         21    1    1    2  504  502 -0.20710093363E+02  0.22102259520E+02  0.65006046840E+01  0.30978633027E+02  0.00000000000E+00 0.  1.
         21    1    1    2  505  504  0.15389699345E+01  0.10921748283E+03 -0.59144077673E+02  0.12421291764E+03  0.00000000000E+00 0. -1.
         21    1    1    2  506  501 -0.45316259203E+02 -0.38895429252E+02  0.23012363026E+03  0.23774629959E+03  0.00000000000E+00 0.  1.
<scales pt_clust_3="115.68813" pt_clust_4="30.28891" pt_clust_5="14000.00000" pt_clust_6="59.76691"></scales>
<clustering>
<clus scale="   30.289">  2  4  1 -1</clus>
<clus scale="   59.767">  1  6  2 -1</clus>
<clus scale="  115.688">  1  3  2 -1</clus>
<clus scale="   59.767">  1  3  2 -1</clus>
</clustering>
</event>
<event>
 6    0  0.3446372E+002  0.1530759E+03  0.7546771E-02  0.1196744E+00
         21   -1    0    0  506  501  0.00000000000E+00  0.00000000000E+00  0.29525905434E+03  0.29525905434E+03  0.00000000000E+00 0. -1.
         21   -1    0    0  503  502 -0.00000000000E+00 -0.00000000000E+00 -0.23039613621E+03  0.23039613621E+03  0.00000000000E+00 0. -1.
         21    1    1    2  503  504  0.29530470458E+02 -0.53335140198E+02 -0.78034854827E+02  0.99025877594E+02  0.00000000000E+00 0. -1.
         21    1    1    2  504  501  0.11124133388E+03  0.69495371349E+02 -0.80514553111E+02  0.15390527692E+03  0.00000000000E+00 0. -1.
         21    1    1    2  505  502 -0.56697211056E+02  0.21076389853E+02  0.59886656143E+02  0.85118737860E+02  0.00000000000E+00 0. -1.
         21    1    1    2  506  505 -0.84074593280E+02 -0.37236621004E+02  0.16352566992E+03  0.18760529817E+03  0.00000000000E+00 0. -1.
<scales pt_clust_3="60.96463" pt_clust_4="138.00269" pt_clust_5="53.72323" pt_clust_6="53.72323"></scales>
<clustering>
<clus scale="   53.723">  5  6 -1 -1</clus>
<clus scale="   60.965">  2  3  1 -1</clus>
<clus scale="  138.003">  2  4  1 -1</clus>
<clus scale="  153.076">  1  3  2 -1</clus>
</clustering>
</event>
<event>
 6    0  0.3446372E+002  0.1101959E+03  0.7546771E-02  0.1260207E+00
         21   -1    0    0  506  501  0.00000000000E+00  0.00000000000E+00  0.22869398525E+03  0.22869398525E+03  0.00000000000E+00 0.  1.
         21   -1    0    0  505  502 -0.00000000000E+00 -0.00000000000E+00 -0.81298396482E+03  0.81298396482E+03  0.00000000000E+00 0.  1.
         21    1    1    2  503  502  0.49559208482E+02 -0.47730276383E+01 -0.79612244154E+02  0.93898915636E+02  0.00000000000E+00 0.  1.
         21    1    1    2  504  501 -0.43245873701E+02  0.14747896416E+03  0.17188109709E+03  0.23057181527E+03  0.00000000000E+00 0.  1.
         21    1    1    2  505  504 -0.60902424257E+01 -0.95933256732E+02 -0.66094217171E+03  0.66789582657E+03  0.00000000000E+00 0.  1.
         21    1    1    2  506  503 -0.22309235585E+00 -0.46772679785E+02 -0.15616660790E+02  0.49311392586E+02  0.00000000000E+00 0. -1.
<scales pt_clust_3="49.95692" pt_clust_4="14000.00000" pt_clust_5="110.19593" pt_clust_6="46.77321"></scales>
<clustering>
<clus scale="   46.773">  1  6  2 -1</clus>
<clus scale="   49.957">  2  3  1 -1</clus>
<clus scale="  110.196">  2  5  1 -1</clus>
<clus scale="   46.773">  1  3  2 -1</clus>
</clustering>
</event>
<event>
 6    0  0.3446372E+002  0.1414034E+03  0.7546771E-02  0.1211453E+00
         21   -1    0    0  505  501  0.00000000000E+00  0.00000000000E+00  0.68983291998E+03  0.68983291998E+03  0.00000000000E+00 0.  1.
         21   -1    0    0  503  502 -0.00000000000E+00 -0.00000000000E+00 -0.57791747202E+03  0.57791747202E+03  0.00000000000E+00 0.  1.
         21    1    1    2  503  506 -0.28712587106E+02  0.23216919373E+02 -0.68601794070E+02  0.77907920990E+02  0.00000000000E+00 0. -1.
         21    1    1    2  504  502  0.24580343700E+02  0.59801551495E+02 -0.47018429030E+03  0.47460898190E+03  0.00000000000E+00 0.  1.
         21    1    1    2  505  504 -0.96928513466E+02  0.54043478169E+02  0.15158972411E+03  0.18787037742E+03  0.00000000000E+00 0.  1.
         21    1    1    2  506  501  0.10106075687E+03 -0.13706194904E+03  0.49911180822E+03  0.52736311168E+03  0.00000000000E+00 0.  1.
<scales pt_clust_3="36.92476" pt_clust_4="81.56641" pt_clust_5="14000.00000" pt_clust_6="141.40337"></scales>
<clustering>
<clus scale="   36.925">  2  3  1 -1</clus>
<clus scale="   81.566">  2  4  1 -1</clus>
<clus scale="  141.403">  1  6  2 -1</clus>
<clus scale="  141.403">  1  3  2 -1</clus>
</clustering>
</event>
<event>
 6    0  0.3446372E+002  0.1186456E+03  0.7546771E-02  0.1245348E+00
         21   -1    0    0  506  501  0.00000000000E+00  0.00000000000E+00  0.11629367152E+04  0.11629367152E+04  0.00000000000E+00 0.  1.
         21   -1    0    0  504  502 -0.00000000000E+00 -0.00000000000E+00 -0.77643504810E+02  0.77643504810E+02  0.00000000000E+00 0. -1.
         21    1    1    2  503  502  0.11377914493E+03  0.29555770292E+02  0.26961124239E+03  0.29412490442E+03  0.00000000000E+00 0.  1.
         21    1    1    2  504  501 -0.11305000185E+03  0.50235080266E+02  0.30545523321E+01  0.12374650095E+03  0.00000000000E+00 0. -1.
         21    1    1    2  505  503  0.19597165489E+02 -0.57713963919E+02  0.19389657977E+03  0.20325066832E+03  0.00000000000E+00 0.  1.
         21    1    1    2  506  505 -0.20326308565E+02 -0.22076886639E+02  0.61873083586E+03  0.61945814627E+03  0.00000000000E+00 0.  1.
<scales pt_clust_3="14000.00000" pt_clust_4="118.64556" pt_clust_5="66.89230" pt_clust_6="30.00913"></scales>
<clustering>
<clus scale="   30.009">  1  6  2 -1</clus>
<clus scale="   66.892">  1  5  2 -1</clus>
<clus scale="  118.646">  2  4  1 -1</clus>
<clus scale="   30.009">  1  3  2 -1</clus>
</clustering>
</event>
<event>
 6    0  0.3446372E+002  0.7581886E+02  0.7546771E-02  0.1341354E+00
         21   -1    0    0  505  501  0.00000000000E+00  0.00000000000E+00  0.38483765149E+03  0.38483765149E+03  0.00000000000E+00 0. -1.
         21   -1    0    0  504  502 -0.00000000000E+00 -0.00000000000E+00 -0.12901470480E+03  0.12901470480E+03  0.00000000000E+00 0.  1.
         21    1    1    2  503  501 -0.29960868844E+00  0.79865960408E+02  0.29620694957E+03  0.30678529686E+03  0.00000000000E+00 0. -1.
         21    1    1    2  504  503  0.67242598547E+02 -0.46971921037E+02  0.21041611859E+02  0.84679855071E+02  0.00000000000E+00 0. -1.
         21    1    1    2  505  506 -0.57244681673E+02  0.90809630108E+01 -0.16769153994E+02  0.60337567027E+02  0.00000000000E+00 0.  1.
         21    1    1    2  506  502 -0.96983081855E+01 -0.41975002381E+02 -0.44656460743E+02  0.62049637329E+02  0.00000000000E+00 0.  1.
<scales pt_clust_3="75.81886" pt_clust_4="14000.00000" pt_clust_5="63.39263" pt_clust_6="43.08083"></scales>
<clustering>
<clus scale="   43.081">  2  6  1 -1</clus>
<clus scale="   63.393">  2  5  1 -1</clus>
<clus scale="   75.819">  1  3  2 -1</clus>
<clus scale="   75.819">  1  3  2 -1</clus>
</clustering>
</event>
<event>
 6    0  0.3446372E+002  0.8466899E+02  0.7546771E-02  0.1316300E+00
         21   -1    0    0  506  501  0.00000000000E+00  0.00000000000E+00  0.21426309179E+04  0.21426309179E+04  0.00000000000E+00 0. -1.
         21   -1    0    0  505  502 -0.00000000000E+00 -0.00000000000E+00 -0.48928306222E+02  0.48928306222E+02  0.00000000000E+00 0. -1.
         21    1    1    2  503  501  0.83223145409E+02 -0.10318825754E+02  0.14609584351E+03  0.16845345229E+03  0.00000000000E+00 0. -1.
         21    1    1    2  504  502 -0.63735501244E+02 -0.92924705619E+02  0.74009944537E+02  0.13481352649E+03  0.00000000000E+00 0. -1.
         21    1    1    2  505  503  0.16950794349E+02  0.27252450258E+02  0.33959339637E+02  0.46725391627E+02  0.00000000000E+00 0. -1.
         21    1    1    2  506  504 -0.36438438514E+02  0.75991081115E+02  0.18396374840E+04  0.18415668537E+04  0.00000000000E+00 0. -1.
<scales pt_clust_3="14000.00000" pt_clust_4="79.52761" pt_clust_5="32.09401" pt_clust_6="84.66899"></scales>
<clustering>
<clus scale="   32.094">  2  5  1 -1</clus>
<clus scale="   84.669">  1  6  2 -1</clus>
<clus scale="   79.528">  2  4  1 -1</clus>
<clus scale="   84.669">  1  3  2 -1</clus>
</clustering>
</event>
<event>
 6    0  0.3446372E+002  0.1950605E+03  0.7546771E-02  0.1153975E+00
         21   -1    0    0  506  501  0.00000000000E+00  0.00000000000E+00  0.69541456991E+03  0.69541456991E+03  0.00000000000E+00 0.  1.
         21   -1    0    0  503  502 -0.00000000000E+00 -0.00000000000E+00 -0.55443857856E+03  0.55443857856E+03  0.00000000000E+00 0.  1.
         21    1    1    2  503  504  0.14239419517E+03 -0.18329064103E+00 -0.38017961733E+03  0.40597128204E+03  0.00000000000E+00 0.  1.
         21    1    1    2  504  505  0.41595606678E+02  0.35062895453E+02 -0.13151332715E+03  0.14232131376E+03  0.00000000000E+00 0.  1.
         21    1    1    2  505  501 -0.31907369676E+02  0.49505104648E+01  0.41711236067E+03  0.41836026247E+03  0.00000000000E+00 0.  1.
         21    1    1    2  506  502 -0.15208243217E+03 -0.39830115277E+02  0.23555657517E+03  0.28320029019E+03  0.00000000000E+00 0.  1.
<scales pt_clust_3="37.78553" pt_clust_4="37.78553" pt_clust_5="32.28913" pt_clust_6="185.26289"></scales>
<clustering>
<clus scale="   32.289">  1  5  2 -1</clus>
<clus scale="   37.786">  3  4 -1 -1</clus>
<clus scale="  185.263">  1  6  2 -1</clus>
<clus scale="   32.289">  1  3  2 -1</clus>
</clustering>
</event>
<event>
 6    0  0.3446372E+002  0.1715293E+03  0.7546771E-02  0.1176262E+00
         21   -1    0    0  503  501  0.00000000000E+00  0.00000000000E+00  0.15006974221E+03  0.15006974221E+03  0.00000000000E+00 0. -1.
         21   -1    0    0  505  502 -0.00000000000E+00 -0.00000000000E+00 -0.10069622818E+04  0.10069622818E+04  0.00000000000E+00 0. -1.
         21    1    1    2  503  504  0.13446127753E+02 -0.55633235498E+02  0.59009029600E+02  0.82206574055E+02  0.00000000000E+00 0. -1.
         21    1    1    2  504  506 -0.17980436265E+00  0.65644745077E+02  0.27125404392E+02  0.71028532642E+02  0.00000000000E+00 0. -1.
         21    1    1    2  505  501  0.75778562706E+02 -0.15551392987E+03 -0.45126649513E+03  0.48328917077E+03  0.00000000000E+00 0. -1.
         21    1    1    2  506  502 -0.89044886096E+02  0.14550242029E+03 -0.49176047846E+03  0.52050774655E+03  0.00000000000E+00 0. -1.
<scales pt_clust_3="57.23509" pt_clust_4="32.32256" pt_clust_5="171.52934" pt_clust_6="14000.00000"></scales>
<clustering>
<clus scale="   57.235">  1  3  2 -1</clus>
<clus scale="   32.323">  1  4  2 -1</clus>
<clus scale="  171.529">  1  5  2 -1</clus>
<clus scale="   57.235">  1  3  2 -1</clus>
</clustering>
</event>
<event>
 6    0  0.3446372E+002  0.1120165E+03  0.7546771E-02  0.1256880E+00
         21   -1    0    0  505  501  0.00000000000E+00  0.00000000000E+00  0.11858996974E+04  0.11858996974E+04  0.00000000000E+00 0.  1.
         21   -1    0    0  503  502 -0.00000000000E+00 -0.00000000000E+00 -0.59026987898E+03  0.59026987898E+03  0.00000000000E+00 0. -1.
         21    1    1    2  503  506 -0.72603458791E+02 -0.45753073795E+02 -0.50700580293E+03  0.51421735695E+03  0.00000000000E+00 0. -1.
         21    1    1    2  504  502 -0.22098749504E+01 -0.38782083697E+02 -0.68380502003E+02  0.78643668641E+02  0.00000000000E+00 0. -1.
         21    1    1    2  505  504  0.60130652797E+02  0.24509137060E+01  0.20367147299E+03  0.21237648479E+03  0.00000000000E+00 0.  1.
         21    1    1    2  506  501  0.14682680944E+02  0.82084243786E+02  0.96734465040E+03  0.97093206603E+03  0.00000000000E+00 0.  1.
<scales pt_clust_3="112.01654" pt_clust_4="38.84499" pt_clust_5="60.14956" pt_clust_6="14000.00000"></scales>
<clustering>
<clus scale="   38.845">  2  4  1 -1</clus>
<clus scale="   60.150">  1  5  2 -1</clus>
<clus scale="  112.017">  2  3  1 -1</clus>
<clus scale="   60.150">  1  3  2 -1</clus>
</clustering>
</event>
<event>
 6    0  0.3446372E+002  0.8153737E+02  0.7546771E-02  0.1324744E+00
         21   -1    0    0  504  501  0.00000000000E+00  0.00000000000E+00  0.47825657392E+03  0.47825657392E+03  0.00000000000E+00 0. -1.
         21   -1    0    0  506  502 -0.00000000000E+00 -0.00000000000E+00 -0.24996350874E+03  0.24996350874E+03  0.00000000000E+00 0.  1.
         21    1    1    2  503  505  0.11948552390E+02  0.92049244900E+02  0.20918734053E+03  0.22885623179E+03  0.00000000000E+00 0. -1.
         21    1    1    2  504  503  0.34962273903E+02 -0.24970642300E+02  0.23161364166E+03  0.23556479486E+03  0.00000000000E+00 0. -1.
         21    1    1    2  505  502 -0.34322795903E+01 -0.82183162259E+02 -0.19977005112E+03  0.21604149145E+03  0.00000000000E+00 0.  1.
         21    1    1    2  506  501 -0.43478546703E+02  0.15104559660E+02 -0.12737865887E+02  0.47757564566E+02  0.00000000000E+00 0.  1.
<scales pt_clust_3="81.53737" pt_clust_4="42.96386" pt_clust_5="14000.00000" pt_clust_6="43.08625"></scales>
<clustering>
<clus scale="   42.964">  1  4  2 -1</clus>
<clus scale="   43.086">  2  6  1 -1</clus>
<clus scale="   81.537">  1  3  2 -1</clus>
<clus scale="   42.964">  1  3  2 -1</clus>
</clustering>
</event>
<event>
 6    0  0.3446372E+002  0.1345988E+03  0.7546771E-02  0.1220787E+00
         21   -1    0    0  503  501  0.00000000000E+00  0.00000000000E+00  0.39248485111E+03  0.39248485111E+03  0.00000000000E+00 0.  1.
         21   -1    0    0  506  502 -0.00000000000E+00 -0.00000000000E+00 -0.57777963635E+03  0.57777963635E+03  0.00000000000E+00 0. -1.
         21    1    1    2  503  504  0.53714432315E+02  0.10135467234E+03  0.17976888668E+03  0.21324835864E+03  0.00000000000E+00 0.  1.
         21    1    1    2  504  502  0.34869448546E+02  0.81017267552E+02 -0.32347809735E+03  0.33528757142E+03  0.00000000000E+00 0. -1.
         21    1    1    2  505  501 -0.11304453704E+03 -0.16048543452E+03  0.13749462670E+03  0.23966521321E+03  0.00000000000E+00 0.  1.
         21    1    1    2  506  505  0.24460656184E+02 -0.21886505365E+02 -0.17908020126E+03  0.18206334420E+03  0.00000000000E+00 0.  1.
<scales pt_clust_3="134.59878" pt_clust_4="83.63177" pt_clust_5="14000.00000" pt_clust_6="32.82290"></scales>
<clustering>
<clus scale="   32.823">  2  6  1 -1</clus>
<clus scale="   83.632">  2  4  1 -1</clus>
<clus scale="  134.599">  1  3  2 -1</clus>
<clus scale="  134.599">  1  3  2 -1</clus>
</clustering>
</event>
<event>
 6    0  0.3446372E+002  0.1226866E+03  0.7546771E-02  0.1238730E+00
         21   -1    0    0  505  501  0.00000000000E+00  0.00000000000E+00  0.11996166698E+03  0.11996166698E+03  0.00000000000E+00 0.  1.
         21   -1    0    0  506  502 -0.00000000000E+00 -0.00000000000E+00 -0.38226635616E+03  0.38226635616E+03  0.00000000000E+00 0.  1.
         21    1    1    2  503  504  0.29293729291E+02  0.34327974844E+02 -0.32571295505E+02  0.55654485206E+02  0.00000000000E+00 0.  1.
         21    1    1    2  504  501 -0.95324466165E+02 -0.55638840231E+02  0.54182036703E+02  0.12295579487E+03  0.00000000000E+00 0.  1.
         21    1    1    2  505  502  0.48184073872E+02 -0.56817034417E+02 -0.12182034125E+03  0.14279382311E+03  0.00000000000E+00 0.  1.
         21    1    1    2  506  503  0.17846663002E+02  0.78127899804E+02 -0.16209508913E+03  0.18082391995E+03  0.00000000000E+00 0.  1.
<scales pt_clust_3="42.17328" pt_clust_4="109.05732" pt_clust_5="74.49752" pt_clust_6="42.17328"></scales>
<clustering>
<clus scale="   42.173">  3  6 -1 -1</clus>
<clus scale="   74.498">  2  5  1 -1</clus>
<clus scale="  109.057">  1  4  2 -1</clus>
<clus scale="  109.057">  1  3  2 -1</clus>
</clustering>
</event>
<event>
 6    0  0.3446372E+002  0.1232077E+03  0.7546771E-02  0.1237897E+00
         21   -1    0    0  504  501  0.00000000000E+00  0.00000000000E+00  0.64801928572E+02  0.64801928572E+02  0.00000000000E+00 0. -1.
         21   -1    0    0  505  502 -0.00000000000E+00 -0.00000000000E+00 -0.21834546774E+04  0.21834546774E+04  0.00000000000E+00 0. -1.
         21    1    1    2  503  502  0.10481842230E+03  0.40104170530E+02 -0.18118113017E+04  0.18152838453E+04  0.00000000000E+00 0. -1.
         21    1    1    2  504  503 -0.15578712348E+03 -0.52247227126E+02 -0.13303445656E+03  0.21141799171E+03  0.00000000000E+00 0. -1.
         21    1    1    2  505  506  0.15822712139E+02 -0.32911906355E+02 -0.15814347613E+03  0.16230499327E+03  0.00000000000E+00 0. -1.
         21    1    1    2  506  501  0.35145989044E+02  0.45054962952E+02 -0.15663514449E+02  0.59249775673E+02  0.00000000000E+00 0. -1.
<scales pt_clust_3="123.20773" pt_clust_4="14000.00000" pt_clust_5="36.51783" pt_clust_6="56.84482"></scales>
<clustering>
<clus scale="   36.518">  2  5  1 -1</clus>
<clus scale="   56.845">  1  6  2 -1</clus>
<clus scale="  123.208">  2  3  1 -1</clus>
<clus scale="   56.845">  1  3  2 -1</clus>
</clustering>
</event>
<event>
 6    0  0.3446372E+002  0.7039729E+02  0.7546771E-02  0.1358747E+00
         21   -1    0    0  503  501  0.00000000000E+00  0.00000000000E+00  0.27497859460E+04  0.27497859460E+04  0.00000000000E+00 0.  1.
         21   -1    0    0  505  502 -0.00000000000E+00 -0.00000000000E+00 -0.42835784414E+02  0.42835784414E+02  0.00000000000E+00 0.  1.
         21    1    1    2  503  504 -0.91100419007E+02  0.27663606959E+02  0.22705132545E+04  0.22725085259E+04  0.00000000000E+00 0.  1.
         21    1    1    2  504  502  0.10765572671E+02  0.66721047344E+02  0.11699482587E+02  0.68589165372E+02  0.00000000000E+00 0.  1.
         21    1    1    2  505  506  0.37791718634E+02 -0.88677398038E+02  0.19175314616E+03  0.21461864780E+03  0.00000000000E+00 0.  1.
         21    1    1    2  506  501  0.42543127702E+02 -0.57072562655E+01  0.23298427833E+03  0.23690539132E+03  0.00000000000E+00 0.  1.
<scales pt_clust_3="57.28133" pt_clust_4="70.39729" pt_clust_5="14000.00000" pt_clust_6="42.92424"></scales>
<clustering>
<clus scale="   42.924">  1  6  2 -1</clus>
<clus scale="   57.281">  1  3  2 -1</clus>
<clus scale="   70.397">  2  4  1 -1</clus>
<clus scale="   42.924">  1  3  2 -1</clus>
</clustering>
</event>
<event>
 6    0  0.3446372E+002  0.8846317E+02  0.7546771E-02  0.1306617E+00
         21   -1    0    0  504  501  0.00000000000E+00  0.00000000000E+00  0.11914460698E+03  0.11914460698E+03  0.00000000000E+00 0.  1.
         21   -1    0    0  505  502 -0.00000000000E+00 -0.00000000000E+00 -0.52451170242E+03  0.52451170242E+03  0.00000000000E+00 0.  1.
         21    1    1    2  503  501 -0.29515555084E+02 -0.22733662584E+02 -0.20342662340E+01  0.37311200001E+02  0.00000000000E+00 0.  1.
         21    1    1    2  504  502  0.88567384431E+02  0.99270965154E+02  0.48158010117E+02  0.14148533509E+03  0.00000000000E+00 0.  1.
         21    1    1    2  505  506 -0.22207868818E+02 -0.39338562651E+02 -0.32249501819E+03  0.32564359153E+03  0.00000000000E+00 0.  1.
         21    1    1    2  506  503 -0.36843960530E+02 -0.37198739919E+02 -0.12899582113E+03  0.13921618278E+03  0.00000000000E+00 0.  1.
<scales pt_clust_3="37.25570" pt_clust_4="14000.00000" pt_clust_5="45.70687" pt_clust_6="88.46317"></scales>
<clustering>
<clus scale="   37.256">  1  3  2 -1</clus>
<clus scale="   45.707">  2  5  1 -1</clus>
<clus scale="   88.463">  2  6  1 -1</clus>
<clus scale="   37.256">  1  3  2 -1</clus>
</clustering>
</event>
<event>
 6    0  0.3446372E+002  0.1024862E+03  0.7546771E-02  0.1275153E+00
         21   -1    0    0  504  501  0.00000000000E+00  0.00000000000E+00  0.45865777747E+03  0.45865777747E+03  0.00000000000E+00 0. -1.
         21   -1    0    0  506  502 -0.00000000000E+00 -0.00000000000E+00 -0.30064005357E+03  0.30064005357E+03  0.00000000000E+00 0. -1.
         21    1    1    2  503  501  0.47144985271E+02  0.11344321795E+02 -0.29240824988E+02  0.56624810103E+02  0.00000000000E+00 0.  1.
         21    1    1    2  504  505 -0.94375519576E+02  0.50377159410E+02  0.41739530135E+03  0.43088680007E+03  0.00000000000E+00 0. -1.
         21    1    1    2  505  502  0.36174829823E+01 -0.79295075711E+02 -0.73272178189E+02  0.10802595666E+03  0.00000000000E+00 0.  1.
         21    1    1    2  506  503  0.43613051322E+02  0.17573594505E+02 -0.15686457428E+03  0.16376026421E+03  0.00000000000E+00 0. -1.
<scales pt_clust_3="62.75683" pt_clust_4="14000.00000" pt_clust_5="102.48620" pt_clust_6="47.02052"></scales>
<clustering>
<clus scale="   47.021">  2  6  1 -1</clus>
<clus scale="   62.757">  2  3  1 -1</clus>
<clus scale="  102.486">  2  5  1 -1</clus>
<clus scale="  102.486">  1  3  2 -1</clus>
</clustering>
</event>
<event>
 6    0  0.3446372E+002  0.9252377E+02  0.7546771E-02  0.1296853E+00
         21   -1    0    0  502  501  0.00000000000E+00  0.00000000000E+00  0.10870282112E+04  0.10870282112E+04  0.00000000000E+00 0.  1.
         21   -1    0    0  504  502 -0.00000000000E+00 -0.00000000000E+00 -0.20844940882E+02  0.20844940882E+02  0.00000000000E+00 0. -1.
         21    1    1    2  503  505 -0.58093366458E+02 -0.59394082231E+02  0.20517059496E+03  0.22135371979E+03  0.00000000000E+00 0. -1.
         21    1    1    2  504  503  0.32807351021E+02 -0.54888528959E+02  0.17142892894E+03  0.18296707510E+03  0.00000000000E+00 0. -1.
         21    1    1    2  505  506  0.52401474665E+02  0.81624273452E+02  0.47048664043E+03  0.48038121881E+03  0.00000000000E+00 0.  1.
         21    1    1    2  506  501 -0.27115459229E+02  0.32658337738E+02  0.21909710597E+03  0.22317113836E+03  0.00000000000E+00 0. -1.
<scales pt_clust_3="14000.00000" pt_clust_4="55.37841" pt_clust_5="92.52377" pt_clust_6="42.44779"></scales>
<clustering>
<clus scale="   42.448">  1  6  2 -1</clus>
<clus scale="   55.378">  2  4  1 -1</clus>
<clus scale="   92.524">  1  5  2 -1</clus>
<clus scale="   42.448">  1  3  2 -1</clus>
</clustering>
</event>
<event>
 6    0  0.3446372E+002  0.1256385E+03  0.7546771E-02  0.1234075E+00
         21   -1    0    0  506  501  0.00000000000E+00  0.00000000000E+00  0.24438936548E+03  0.24438936548E+03  0.00000000000E+00 0. -1.
         21   -1    0    0  505  502 -0.00000000000E+00 -0.00000000000E+00 -0.47654054511E+03  0.47654054511E+03  0.00000000000E+00 0. -1.
         21    1    1    2  503  504 -0.56440788712E+02 -0.11189094579E+03 -0.86653825457E+02  0.15236151695E+03  0.00000000000E+00 0. -1.
         21    1    1    2  504  502  0.69879807623E+02 -0.23447154368E+02 -0.29979393115E+03  0.30872213674E+03  0.00000000000E+00 0. -1.
         21    1    1    2  505  501  0.51112145202E+02  0.11636888195E+03  0.51820033426E+02  0.13725699960E+03  0.00000000000E+00 0. -1.
         21    1    1    2  506  503 -0.64551164113E+02  0.18969218202E+02  0.10247654355E+03  0.12258925730E+03  0.00000000000E+00 0. -1.
<scales pt_clust_3="125.63845" pt_clust_4="71.43244" pt_clust_5="14000.00000" pt_clust_6="67.28064"></scales>
<clustering>
<clus scale="   67.281">  1  6  2 -1</clus>
<clus scale="   71.432">  2  4  1 -1</clus>
<clus scale="  125.638">  2  3  1 -1</clus>
<clus scale="   67.281">  1  3  2 -1</clus>
</clustering>
</event>
<event>
 6    0  0.3446372E+002  0.2563764E+03  0.7546771E-02  0.1109340E+00
         21   -1    0    0  505  501  0.00000000000E+00  0.00000000000E+00  0.59180793633E+02  0.59180793633E+02  0.00000000000E+00 0.  1.
         21   -1    0    0  506  502 -0.00000000000E+00 -0.00000000000E+00 -0.19181300408E+04  0.19181300408E+04  0.00000000000E+00 0.  1.
         21    1    1    2  503  502  0.10100113387E+03  0.11671975907E+03 -0.10049558877E+04  0.10167404130E+04  0.00000000000E+00 0.  1.
         21    1    1    2  504  503  0.72309027084E+02  0.69553178202E+02 -0.44941765670E+03  0.46048069466E+03  0.00000000000E+00 0.  1.
         21    1    1    2  505  504 -0.13277593657E+03 -0.20799985318E+03 -0.35635625108E+03  0.43345491800E+03  0.00000000000E+00 0.  1.
         21    1    1    2  506  501 -0.40534224389E+02  0.21726915907E+02 -0.48219451717E+02  0.66634808813E+02  0.00000000000E+00 0.  1.
<scales pt_clust_3="38.20700" pt_clust_4="38.20700" pt_clust_5="251.95849" pt_clust_6="45.99002"></scales>
<clustering>
<clus scale="   38.207">  3  4 -1 -1</clus>
<clus scale="   45.990">  1  6  2 -1</clus>
<clus scale="  251.958">  1  5  2 -1</clus>
<clus scale="   45.990">  1  3  2 -1</clus>
</clustering>
</event>
<event>
 6    0  0.3446372E+002  0.1586361E+03  0.7546771E-02  0.1190245E+00
         21   -1    0    0  506  501  0.00000000000E+00  0.00000000000E+00  0.97149842413E+03  0.97149842413E+03  0.00000000000E+00 0.  1.
         21   -1    0    0  505  502 -0.00000000000E+00 -0.00000000000E+00 -0.76475516275E+02  0.76475516275E+02  0.00000000000E+00 0.  1.
         21    1    1    2  503  501 -0.16743932881E+03  0.96666610251E+02  0.51756500714E+03  0.55249787238E+03  0.00000000000E+00 0.  1.
         21    1    1    2  504  503  0.33036223152E+02 -0.66595550618E+00  0.36231709561E+02  0.49036438641E+02  0.00000000000E+00 0.  1.
         21    1    1    2  505  504  0.97970563888E+02 -0.46033609005E+02  0.91254007965E+01  0.10863055503E+03  0.00000000000E+00 0.  1.
         21    1    1    2  506  502  0.36432541767E+02 -0.49967045740E+02  0.33210079035E+03  0.33780907435E+03  0.00000000000E+00 0.  1.
<scales pt_clust_3="147.33443" pt_clust_4="32.48956" pt_clust_5="32.48956" pt_clust_6="61.83879"></scales>
<clustering>
<clus scale="   32.490">  4  5 -1 -1</clus>
<clus scale="   61.839">  1  6  2 -1</clus>
<clus scale="  147.334">  1  3  2 -1</clus>
<clus scale="   61.839">  1  3  2 -1</clus>
</clustering>
</event>
<event>
 6    0  0.3446372E+002  0.1412337E+03  0.7546771E-02  0.1211678E+00
         21   -1    0    0  503  501  0.00000000000E+00  0.00000000000E+00  0.11344655394E+03  0.11344655394E+03  0.00000000000E+00 0.  1.
         21   -1    0    0  504  502 -0.00000000000E+00 -0.00000000000E+00 -0.11471914528E+04  0.11471914528E+04  0.00000000000E+00 0.  1.
         21    1    1    2  503  506  0.17290241608E+02 -0.44337264833E+02  0.37840024733E+02  0.60799777792E+02  0.00000000000E+00 0. -1.
         21    1    1    2  504  501  0.16358981545E+03 -0.22801042509E+02 -0.91792288186E+03  0.93266496251E+03  0.00000000000E+00 0.  1.
         21    1    1    2  505  502 -0.32767977600E+02 -0.52772522417E+01 -0.79974089426E+02  0.86587786244E+02  0.00000000000E+00 0. -1.
         21    1    1    2  506  505 -0.14811207945E+03  0.72415559584E+02 -0.73687952357E+02  0.18058548024E+03  0.00000000000E+00 0.  1.
<scales pt_clust_3="47.51522" pt_clust_4="141.23374" pt_clust_5="33.19021" pt_clust_6="14000.00000"></scales>
<clustering>
<clus scale="   33.190">  2  5  1 -1</clus>
<clus scale="   47.515">  1  3  2 -1</clus>
<clus scale="  141.234">  2  4  1 -1</clus>
<clus scale="   47.515">  1  3  2 -1</clus>
</clustering>
</event>
<event>
 6    0  0.3446372E+002  0.4038106E+03  0.7546771E-02  0.1042468E+00
         21   -1    0    0  503  501  0.00000000000E+00  0.00000000000E+00  0.82409106810E+02  0.82409106810E+02  0.00000000000E+00 0.  1.
         21   -1    0    0  505  502 -0.00000000000E+00 -0.00000000000E+00 -0.18397032277E+04  0.18397032277E+04  0.00000000000E+00 0. -1.
         21    1    1    2  503  502  0.31741007164E+03 -0.17045654130E+03 -0.10156685200E+04  0.10776767273E+04  0.00000000000E+00 0. -1.
         21    1    1    2  504  501 -0.21485460001E+03  0.92399876812E+02 -0.61361249707E+03  0.65667384060E+03  0.00000000000E+00 0.  1.
         21    1    1    2  505  506 -0.60039086206E+02  0.53003425876E+02 -0.10812733062E+03  0.13455695692E+03  0.00000000000E+00 0.  1.
         21    1    1    2  506  504 -0.42516385425E+02  0.25053238612E+02 -0.19885773146E+02  0.53204809634E+02  0.00000000000E+00 0.  1.
<scales pt_clust_3="360.28404" pt_clust_4="123.97210" pt_clust_5="123.97210" pt_clust_6="37.28964"></scales>
<clustering>
<clus scale="   37.290">  5  6 -1 -1</clus>
<clus scale="  123.972">  4  5 -1 -1</clus>
<clus scale="  360.284">  2  3  1 -1</clus>
<clus scale="  403.811">  1  3  2 -1</clus>
</clustering>
</event>
<event>
 6    0  0.3446372E+002  0.1738316E+03  0.7546771E-02  0.1173910E+00
         21   -1    0    0  505  501  0.00000000000E+00  0.00000000000E+00  0.53767859267E+03  0.53767859267E+03  0.00000000000E+00 0. -1.
         21   -1    0    0  503  502 -0.00000000000E+00 -0.00000000000E+00 -0.15159838168E+04  0.15159838168E+04  0.00000000000E+00 0.  1.
         21    1    1    2  503  504 -0.29434338205E+02 -0.17108176562E+02 -0.11461857505E+03  0.11956792094E+03  0.00000000000E+00 0.  1.
         21    1    1    2  504  501 -0.12697629071E+03 -0.59874704341E+02 -0.13698951016E+04  0.13770695509E+04  0.00000000000E+00 0.  1.
         21    1    1    2  505  506  0.13304468608E+02 -0.41882171607E+02  0.68008419286E+02  0.80970798917E+02  0.00000000000E+00 0.  1.
         21    1    1    2  506  502  0.14310616030E+03  0.11886505251E+03  0.43820003326E+03  0.47605413870E+03  0.00000000000E+00 0. -1.
<scales pt_clust_3="34.04512" pt_clust_4="14000.00000" pt_clust_5="43.97910" pt_clust_6="173.83162"></scales>
<clustering>
<clus scale="   34.045">  2  3  1 -1</clus>
<clus scale="   43.979">  1  5  2 -1</clus>
<clus scale="  173.832">  1  6  2 -1</clus>
<clus scale="   43.979">  1  3  2 -1</clus>
</clustering>
</event>
<event>
 6    0  0.3446372E+002  0.7179988E+02  0.7546771E-02  0.1354077E+00
         21   -1    0    0  505  501  0.00000000000E+00  0.00000000000E+00  0.90633151411E+03  0.90633151411E+03  0.00000000000E+00 0. -1.
         21   -1    0    0  504  502 -0.00000000000E+00 -0.00000000000E+00 -0.72651381707E+02  0.72651381707E+02  0.00000000000E+00 0. -1.
         21    1    1    2  503  501  0.35331380865E+02 -0.19109111085E+02  0.59453790546E+03  0.59589326698E+03  0.00000000000E+00 0. -1.
         21    1    1    2  504  506  0.14058904003E+01  0.46448006983E+02 -0.50453562607E+00  0.46472017782E+02  0.00000000000E+00 0. -1.
         21    1    1    2  505  502  0.22866057737E+02  0.60465018653E+02  0.21921226969E+03  0.22854516897E+03  0.00000000000E+00 0.  1.
         21    1    1    2  506  503 -0.59603329002E+02 -0.87803914552E+02  0.20434492876E+02  0.10807244208E+03  0.00000000000E+00 0. -1.
<scales pt_clust_3="40.16795" pt_clust_4="45.21502" pt_clust_5="14000.00000" pt_clust_6="71.79988"></scales>
<clustering>
<clus scale="   40.168">  1  3  2 -1</clus>
<clus scale="   45.215">  2  4  1 -1</clus>
<clus scale="   71.800">  2  6  1 -1</clus>
<clus scale="   40.168">  1  3  2 -1</clus>
</clustering>
</event>
<event>
 6    0  0.3446372E+002  0.9842591E+02  0.7546771E-02  0.1283641E+00
         21   -1    0    0  506  501  0.00000000000E+00  0.00000000000E+00  0.94501219679E+03  0.94501219679E+03  0.00000000000E+00 0.  1.
         21   -1    0    0  505  502 -0.00000000000E+00 -0.00000000000E+00 -0.58967882208E+02  0.58967882208E+02  0.00000000000E+00 0.  1.
         21    1    1    2  503  501  0.35861389326E+02 -0.18800741135E+02  0.13808281813E+03  0.14389708744E+03  0.00000000000E+00 0.  1.
         21    1    1    2  504  503  0.59405501284E+02 -0.39275352158E+02  0.64838514486E+03  0.65228434210E+03  0.00000000000E+00 0.  1.
         21    1    1    2  505  504 -0.31397213541E+02  0.98722770101E+02  0.76076665760E+02  0.12852871052E+03  0.00000000000E+00 0.  1.
         21    1    1    2  506  502 -0.63869677069E+02 -0.40646676808E+02  0.23499685825E+02  0.79269938932E+02  0.00000000000E+00 0.  1.
<scales pt_clust_3="40.49083" pt_clust_4="14000.00000" pt_clust_5="98.42591" pt_clust_6="74.45198"></scales>
<clustering>
<clus scale="   40.491">  1  3  2 -1</clus>
<clus scale="   74.452">  2  6  1 -1</clus>
<clus scale="   98.426">  2  5  1 -1</clus>
<clus scale="   40.491">  1  3  2 -1</clus>
</clustering>
</event>
<event>
 6    0  0.3446372E+002  0.1338508E+03  0.7546771E-02  0.1221851E+00
         21   -1    0    0  506  501  0.00000000000E+00  0.00000000000E+00  0.13093730574E+04  0.13093730574E+04  0.00000000000E+00 0.  1.
         21   -1    0    0  505  502 -0.00000000000E+00 -0.00000000000E+00 -0.25848290011E+02  0.25848290011E+02  0.00000000000E+00 0.  1.
         21    1    1    2  503  502 -0.51539607810E+02 -0.74878882655E+02  0.16497575901E+03  0.18836183080E+03  0.00000000000E+00 0.  1.
         21    1    1    2  504  503 -0.65311469739E+01 -0.49007669412E+02  0.14431317336E+03  0.15254736820E+03  0.00000000000E+00 0.  1.
         21    1    1    2  505  501  0.28379285569E+02  0.11357374202E+03  0.34555430341E+03  0.36484538552E+03  0.00000000000E+00 0.  1.
         21    1    1    2  506  504  0.29691469215E+02  0.10312810043E+02  0.62868153160E+03  0.62946676288E+03  0.00000000000E+00 0.  1.
<scales pt_clust_3="31.90994" pt_clust_4="31.90994" pt_clust_5="126.79392" pt_clust_6="31.43147"></scales>
<clustering>
<clus scale="   31.431">  1  6  2 -1</clus>
<clus scale="   31.910">  3  4 -1 -1</clus>
<clus scale="  126.794">  1  5  2 -1</clus>
<clus scale="   31.431">  1  3  2 -1</clus>
</clustering>
</event>
<event>
 6    0  0.3446372E+002  0.1212682E+03  0.7546771E-02  0.1241019E+00
         21   -1    0    0  505  501  0.00000000000E+00  0.00000000000E+00  0.46509831268E+03  0.46509831268E+03  0.00000000000E+00 0. -1.
         21   -1    0    0  503  502 -0.00000000000E+00 -0.00000000000E+00 -0.37446693284E+03  0.37446693284E+03  0.00000000000E+00 0. -1.
         21    1    1    2  503  506  0.26761959119E+02  0.73215183682E+02 -0.22226009087E+03  0.23553389049E+03  0.00000000000E+00 0.  1.
         21    1    1    2  504  502  0.65487994314E+02  0.13274588902E+02 -0.12523440950E+03  0.14194558617E+03  0.00000000000E+00 0. -1.
         21    1    1    2  505  504 -0.29777242727E+02 -0.21378458053E+02  0.41706142477E+02  0.55525894621E+02  0.00000000000E+00 0. -1.
         21    1    1    2  506  501 -0.62472710706E+02 -0.65111314531E+02  0.39641973774E+03  0.40655987423E+03  0.00000000000E+00 0. -1.
<scales pt_clust_3="121.26818" pt_clust_4="66.14984" pt_clust_5="36.65682" pt_clust_6="14000.00000"></scales>
<clustering>
<clus scale="   36.657">  1  5  2 -1</clus>
<clus scale="   66.150">  2  4  1 -1</clus>
<clus scale="  121.268">  2  3  1 -1</clus>
<clus scale="   36.657">  1  3  2 -1</clus>
</clustering>
</event>
<event>
 6    0  0.3446372E+002  0.1177205E+03  0.7546771E-02  0.1246906E+00
         21   -1    0    0  506  501  0.00000000000E+00  0.00000000000E+00  0.14283303524E+04  0.14283303524E+04  0.00000000000E+00 0. -1.
         21   -1    0    0  505  502 -0.00000000000E+00 -0.00000000000E+00 -0.67220272496E+02  0.67220272496E+02  0.00000000000E+00 0.  1.
         21    1    1    2  503  502 -0.24831612876E+02  0.39241781608E+02  0.26199103362E+02  0.53319034488E+02  0.00000000000E+00 0.  1.
         21    1    1    2  504  503  0.13962824018E+03 -0.63140119122E+02  0.94396671263E+02  0.17998180920E+03  0.00000000000E+00 0.  1.
         21    1    1    2  505  501 -0.10157635107E+03 -0.77473513607E+01  0.23475158304E+03  0.25590248590E+03  0.00000000000E+00 0.  1.
         21    1    1    2  506  504 -0.13220276234E+02  0.31645688875E+02  0.10057627222E+04  0.10063472953E+04  0.00000000000E+00 0. -1.
<scales pt_clust_3="49.62479" pt_clust_4="14000.00000" pt_clust_5="117.72048" pt_clust_6="34.29614"></scales>
<clustering>
<clus scale="   34.296">  1  6  2 -1</clus>
<clus scale="   49.625">  2  3  1 -1</clus>
<clus scale="  117.720">  1  5  2 -1</clus>
<clus scale="   34.296">  1  3  2 -1</clus>
</clustering>
</event>
<event>
 6    0  0.3446372E+002  0.1740503E+03  0.7546771E-02  0.1173689E+00
         21   -1    0    0  504  501  0.00000000000E+00  0.00000000000E+00  0.10615395156E+03  0.10615395156E+03  0.00000000000E+00 0. -1.
         21   -1    0    0  505  502 -0.00000000000E+00 -0.00000000000E+00 -0.68022327567E+03  0.68022327567E+03  0.00000000000E+00 0. -1.
         21    1    1    2  503  501 -0.48956605370E+02  0.14972171849E+03 -0.40939822005E+02  0.16275567954E+03  0.00000000000E+00 0. -1.
         21    1    1    2  504  506  0.70549947141E+02 -0.70857862257E+02 -0.14593592637E+03  0.17690513359E+03  0.00000000000E+00 0. -1.
         21    1    1    2  505  503 -0.10277875837E+03 -0.73310843041E+02 -0.15057652537E+03  0.19649743732E+03  0.00000000000E+00 0. -1.
         21    1    1    2  506  502  0.81185416597E+02 -0.55530131918E+01 -0.23661705036E+03  0.25021897679E+03  0.00000000000E+00 0. -1.
<scales pt_clust_3="151.87992" pt_clust_4="76.68573" pt_clust_5="126.24561" pt_clust_6="76.68573"></scales>
<clustering>
<clus scale="   76.686">  4  6 -1 -1</clus>
<clus scale="  126.246">  2  5  1 -1</clus>
<clus scale="  151.880">  1  3  2 -1</clus>
<clus scale="  151.880">  1  3  2 -1</clus>
</clustering>
</event>
<event>
 6    0  0.3446372E+002  0.9373326E+02  0.7546771E-02  0.1294055E+00
         21   -1    0    0  503  501  0.00000000000E+00  0.00000000000E+00  0.11267829170E+03  0.11267829170E+03  0.00000000000E+00 0.  1.
         21   -1    0    0  506  502 -0.00000000000E+00 -0.00000000000E+00 -0.23837094693E+03  0.23837094693E+03  0.00000000000E+00 0.  1.
         21    1    1    2  503  504 -0.14432970834E+02 -0.28203338978E+02  0.17299660893E+02  0.36097330145E+02  0.00000000000E+00 0.  1.
         21    1    1    2  504  502 -0.48551880941E+02 -0.77369914119E+02 -0.72887338298E+02  0.11685868747E+03  0.00000000000E+00 0.  1.
         21    1    1    2  505  501  0.55722308880E+02  0.38297017798E+01  0.22604391788E+02  0.60254467475E+02  0.00000000000E+00 0.  1.
         21    1    1    2  506  505  0.72625428948E+01  0.10174355132E+03 -0.92709369612E+02  0.13783875354E+03  0.00000000000E+00 0.  1.
<scales pt_clust_3="31.68184" pt_clust_4="93.73326" pt_clust_5="49.73485" pt_clust_6="14000.00000"></scales>
<clustering>
<clus scale="   31.682">  1  3  2 -1</clus>
<clus scale="   49.735">  1  5  2 -1</clus>
<clus scale="   93.733">  2  4  1 -1</clus>
<clus scale="   31.682">  1  3  2 -1</clus>
</clustering>
</event>
<event>
 6    0  0.3446372E+002  0.1339260E+03  0.7546771E-02  0.1221744E+00
         21   -1    0    0  503  501  0.00000000000E+00  0.00000000000E+00  0.32074695053E+03  0.32074695053E+03  0.00000000000E+00 0.  1.
         21   -1    0    0  506  502 -0.00000000000E+00 -0.00000000000E+00 -0.10024922466E+03  0.10024922466E+03  0.00000000000E+00 0. -1.
         21    1    1    2  503  505  0.18572210733E+02 -0.39878201345E+02  0.16707215210E+02  0.47056657278E+02  0.00000000000E+00 0. -1.
         21    1    1    2  504  502 -0.22674208340E+02 -0.28193404740E+02  0.26379095593E+01  0.36275974990E+02  0.00000000000E+00 0. -1.
         21    1    1    2  505  504  0.65977955810E+02 -0.42295960764E+02 -0.21767159157E+02  0.81337864292E+02  0.00000000000E+00 0. -1.
         21    1    1    2  506  501 -0.61875958204E+02  0.11036756685E+03  0.22291976026E+03  0.25632567864E+03  0.00000000000E+00 0.  1.
<scales pt_clust_3="39.08363" pt_clust_4="36.17994" pt_clust_5="39.08363" pt_clust_6="124.00785"></scales>
<clustering>
<clus scale="   36.180">  2  4  1 -1</clus>
<clus scale="   39.084">  3  5 -1 -1</clus>
<clus scale="  124.008">  1  6  2 -1</clus>
<clus scale="  124.008">  1  3  2 -1</clus>
</clustering>
</event>
<event>
 6    0  0.3446372E+002  0.1048513E+03  0.7546771E-02  0.1270413E+00
         21   -1    0    0  505  501  0.00000000000E+00  0.00000000000E+00  0.42076235489E+03  0.42076235489E+03  0.00000000000E+00 0.  1.
         21   -1    0    0  503  502 -0.00000000000E+00 -0.00000000000E+00 -0.54109208578E+02  0.54109208578E+02  0.00000000000E+00 0.  1.
         21    1    1    2  503  504 -0.40471160710E+01  0.69846489624E+02  0.30402720255E+02  0.76283921374E+02  0.00000000000E+00 0.  1.
         21    1    1    2  504  501  0.75523727388E+02  0.27041232754E+02  0.14979294700E+03  0.16992053624E+03  0.00000000000E+00 0.  1.
         21    1    1    2  505  506 -0.41579270025E+02 -0.87121435396E+02  0.16296036424E+03  0.18940712899E+03  0.00000000000E+00 0.  1.
         21    1    1    2  506  502 -0.29897341292E+02 -0.97662869821E+01  0.23497114825E+02  0.39259976858E+02  0.00000000000E+00 0.  1.
<scales pt_clust_3="69.96364" pt_clust_4="89.26180" pt_clust_5="31.39968" pt_clust_6="31.39968"></scales>
<clustering>
<clus scale="   31.400">  5  6 -1 -1</clus>
<clus scale="   69.964">  2  3  1 -1</clus>
<clus scale="   89.262">  1  4  2 -1</clus>
<clus scale="   89.262">  1  3  2 -1</clus>
</clustering>
</event>
<event>
 6    0  0.3446372E+002  0.8048469E+02  0.7546771E-02  0.1327682E+00
         21   -1    0    0  504  501  0.00000000000E+00  0.00000000000E+00  0.28856100365E+02  0.28856100365E+02  0.00000000000E+00 0. -1.
         21   -1    0    0  506  502 -0.00000000000E+00 -0.00000000000E+00 -0.23201469584E+04  0.23201469584E+04  0.00000000000E+00 0. -1.
         21    1    1    2  503  501 -0.16898330208E+02  0.81465642974E+02 -0.61334286613E+02  0.10336391664E+03  0.00000000000E+00 0. -1.
         21    1    1    2  504  502 -0.51095425247E+02  0.21433344878E+02 -0.39270575896E+03  0.39659544107E+03  0.00000000000E+00 0. -1.
         21    1    1    2  505  503 -0.13182797772E+02 -0.73786234672E+02 -0.29465228397E+03  0.30403645017E+03  0.00000000000E+00 0.  1.
         21    1    1    2  506  505  0.81176553227E+02 -0.29112753180E+02 -0.15425985285E+04  0.15450072509E+04  0.00000000000E+00 0. -1.
<scales pt_clust_3="80.48469" pt_clust_4="55.40876" pt_clust_5="14000.00000" pt_clust_6="41.94177"></scales>
<clustering>
<clus scale="   55.409">  2  4  1 -1</clus>
<clus scale="   41.942">  2  6  1 -1</clus>
<clus scale="   80.485">  1  3  2 -1</clus>
<clus scale="   80.485">  1  3  2 -1</clus>
</clustering>
</event>
<event>
 6    0  0.3446372E+002  0.8972023E+02  0.7546771E-02  0.1303531E+00
         21   -1    0    0  503  501  0.00000000000E+00  0.00000000000E+00  0.12836928359E+04  0.12836928359E+04  0.00000000000E+00 0.  1.
         21   -1    0    0  506  502 -0.00000000000E+00 -0.00000000000E+00 -0.49459116592E+03  0.49459116592E+03  0.00000000000E+00 0. -1.
         21    1    1    2  503  502 -0.31736436091E+02  0.38960335267E+01 -0.50834226267E+01  0.32376251152E+02  0.00000000000E+00 0. -1.
         21    1    1    2  504  501 -0.76204954146E+02 -0.19399018451E+01  0.11053922840E+04  0.11080176261E+04  0.00000000000E+00 0.  1.
         21    1    1    2  505  504  0.15707834280E+03 -0.24789513705E+02  0.12254798479E+03  0.20076387709E+03  0.00000000000E+00 0. -1.
         21    1    1    2  506  505 -0.49136952558E+02  0.22833382023E+02 -0.43375517614E+03  0.43712624752E+03  0.00000000000E+00 0. -1.
<scales pt_clust_3="31.97468" pt_clust_4="76.31689" pt_clust_5="14000.00000" pt_clust_6="89.72023"></scales>
<clustering>
<clus scale="   31.975">  2  3  1 -1</clus>
<clus scale="   76.317">  1  4  2 -1</clus>
<clus scale="   89.720">  2  6  1 -1</clus>
<clus scale="   76.317">  1  3  2 -1</clus>
</clustering>
</event>
<event>
 6    0  0.3446372E+002  0.1377010E+03  0.7546771E-02  0.1216456E+00
         21   -1    0    0  506  501  0.00000000000E+00  0.00000000000E+00  0.85039096214E+02  0.85039096214E+02  0.00000000000E+00 0.  1.
         21   -1    0    0  504  502 -0.00000000000E+00 -0.00000000000E+00 -0.38384061806E+03  0.38384061806E+03  0.00000000000E+00 0.  1.
         21    1    1    2  503  502 -0.50365964600E+02  0.15782258687E+02 -0.13897884211E+03  0.14866381078E+03  0.00000000000E+00 0.  1.
         21    1    1    2  504  501  0.15682564326E+03 -0.38187188779E+02 -0.86574131474E+02  0.18316010486E+03  0.00000000000E+00 0.  1.
         21    1    1    2  505  503 -0.62581165213E+02 -0.67581019379E+00 -0.57625513014E+02  0.85073842684E+02  0.00000000000E+00 0.  1.
         21    1    1    2  506  505 -0.43878513447E+02  0.23080740286E+02 -0.15623035239E+02  0.51981955952E+02  0.00000000000E+00 0.  1.
<scales pt_clust_3="52.78077" pt_clust_4="131.82668" pt_clust_5="35.41557" pt_clust_6="35.41557"></scales>
<clustering>
<clus scale="   35.416">  5  6 -1 -1</clus>
<clus scale="   52.781">  2  3  1 -1</clus>
<clus scale="  131.827">  2  4  1 -1</clus>
<clus scale="  137.701">  1  3  2 -1</clus>
</clustering>
</event>
<event>
 6    0  0.3446372E+002  0.2076811E+03  0.7546771E-02  0.1143416E+00
         21   -1    0    0  506  501  0.00000000000E+00  0.00000000000E+00  0.54750501812E+03  0.54750501812E+03  0.00000000000E+00 0.  1.
         21   -1    0    0  505  502 -0.00000000000E+00 -0.00000000000E+00 -0.28872810072E+03  0.28872810072E+03  0.00000000000E+00 0.  1.
         21    1    1    2  503  502  0.18546830276E+03  0.14133752731E+03 -0.27761132094E+02  0.23483072289E+03  0.00000000000E+00 0.  1.
         21    1    1    2  504  501 -0.14194244561E+03 -0.12244278390E+03 -0.40081295704E+02  0.19169351439E+03  0.00000000000E+00 0.  1.
         21    1    1    2  505  504 -0.26583125188E+02  0.24490232924E+02 -0.31880933260E+02  0.48195725526E+02  0.00000000000E+00 0.  1.
         21    1    1    2  506  503 -0.16942731961E+02 -0.43384976334E+02  0.35850027845E+03  0.36151315603E+03  0.00000000000E+00 0.  1.
<scales pt_clust_3="207.68106" pt_clust_4="14000.00000" pt_clust_5="36.14463" pt_clust_6="46.49671"></scales>
<clustering>
<clus scale="   36.145">  2  5  1 -1</clus>
<clus scale="   46.497">  1  6  2 -1</clus>
<clus scale="  207.681">  1  3  2 -1</clus>
<clus scale="   46.497">  1  3  2 -1</clus>
</clustering>
</event>
<event>
 6    0  0.3446372E+002  0.2355204E+03  0.7546771E-02  0.1122814E+00
         21   -1    0    0  504  501  0.00000000000E+00  0.00000000000E+00  0.35963527486E+03  0.35963527486E+03  0.00000000000E+00 0.  1.
         21   -1    0    0  503  502 -0.00000000000E+00 -0.00000000000E+00 -0.79685862076E+03  0.79685862076E+03  0.00000000000E+00 0. -1.
         21    1    1    2  503  505 -0.99689163826E+02  0.11940886256E+03 -0.59067813884E+03  0.61081672336E+03  0.00000000000E+00 0. -1.
         21    1    1    2  504  506 -0.19703927045E+02  0.34003931946E+02 -0.46701711013E+02  0.61037381499E+02  0.00000000000E+00 0. -1.
         21    1    1    2  505  501  0.80497557279E+02 -0.22848971771E+03  0.27867422214E+03  0.36925158079E+03  0.00000000000E+00 0.  1.
         21    1    1    2  506  502  0.38895533592E+02  0.75076923202E+02 -0.78517718191E+02  0.11538820997E+03  0.00000000000E+00 0. -1.
<scales pt_clust_3="235.52038" pt_clust_4="38.44012" pt_clust_5="14000.00000" pt_clust_6="124.28227"></scales>
<clustering>
<clus scale="   38.440">  4  6 -1 -1</clus>
<clus scale="  124.282">  2  4  1 -1</clus>
<clus scale="  235.520">  2  3  1 -1</clus>
<clus scale="  235.520">  1  3  2 -1</clus>
</clustering>
</event>
<event>
 6    0  0.3446372E+002  0.7106235E+02  0.7546771E-02  0.1356517E+00
         21   -1    0    0  503  501  0.00000000000E+00  0.00000000000E+00  0.46752245872E+03  0.46752245872E+03  0.00000000000E+00 0.  1.
         21   -1    0    0  505  502 -0.00000000000E+00 -0.00000000000E+00 -0.97648922413E+03  0.97648922413E+03  0.00000000000E+00 0. -1.
         21    1    1    2  503  504  0.20396953585E+02  0.43771804661E+02  0.69448730323E+01  0.48787681440E+02  0.00000000000E+00 0.  1.
         21    1    1    2  504  502  0.74211980582E+01  0.62060019662E+02 -0.17616634676E+03  0.18692539141E+03  0.00000000000E+00 0. -1.
         21    1    1    2  505  506  0.33470885424E+02 -0.69205172959E+02 -0.76915821596E+03  0.77299030868E+03  0.00000000000E+00 0. -1.
         21    1    1    2  506  501 -0.61289037067E+02 -0.36626651365E+02  0.42941292429E+03  0.43530830132E+03  0.00000000000E+00 0.  1.
<scales pt_clust_3="48.29085" pt_clust_4="14000.00000" pt_clust_5="71.06235" pt_clust_6="41.72720"></scales>
<clustering>
<clus scale="   48.291">  1  3  2 -1</clus>
<clus scale="   41.727">  1  6  2 -1</clus>
<clus scale="   71.062">  2  5  1 -1</clus>
<clus scale="   48.291">  1  3  2 -1</clus>
</clustering>
</event>
<event>
 6    0  0.3446372E+002  0.9519269E+02  0.7546771E-02  0.1290743E+00
         21   -1    0    0  505  501  0.00000000000E+00  0.00000000000E+00  0.56880163776E+03  0.56880163776E+03  0.00000000000E+00 0. -1.
         21   -1    0    0  506  502 -0.00000000000E+00 -0.00000000000E+00 -0.12477013163E+04  0.12477013163E+04  0.00000000000E+00 0.  1.
         21    1    1    2  503  502 -0.19113736884E+02 -0.11602814373E+03 -0.11450228155E+04  0.11510452263E+04  0.00000000000E+00 0.  1.
         21    1    1    2  504  501  0.24711084532E+02  0.38775831074E+02  0.43006909399E+03  0.43252009015E+03  0.00000000000E+00 0. -1.
         21    1    1    2  505  503 -0.32821722548E+02  0.57361239512E+02  0.12302916841E+03  0.13965583965E+03  0.00000000000E+00 0.  1.
         21    1    1    2  506  504  0.27224374900E+02  0.19891073141E+02 -0.86975125455E+02  0.93281797943E+02  0.00000000000E+00 0.  1.
<scales pt_clust_3="95.19269" pt_clust_4="46.01371" pt_clust_5="14000.00000" pt_clust_6="33.71678"></scales>
<clustering>
<clus scale="   33.717">  2  6  1 -1</clus>
<clus scale="   46.014">  1  4  2 -1</clus>
<clus scale="   95.193">  2  3  1 -1</clus>
<clus scale="   46.014">  1  3  2 -1</clus>
</clustering>
</event>
<event>
 6    0  0.3446372E+002  0.1064405E+03  0.7546771E-02  0.1267307E+00
         21   -1    0    0  506  501  0.00000000000E+00  0.00000000000E+00  0.39601604424E+03  0.39601604424E+03  0.00000000000E+00 0. -1.
         21   -1    0    0  504  502 -0.00000000000E+00 -0.00000000000E+00 -0.20195314311E+03  0.20195314311E+03  0.00000000000E+00 0. -1.
         21    1    1    2  503  501 -0.31239582098E+02 -0.10488863091E+03  0.33494805027E+03  0.35237442126E+03  0.00000000000E+00 0. -1.
         21    1    1    2  504  503  0.32458199464E+02 -0.13071633034E+02  0.78854837478E+01  0.35868972059E+02  0.00000000000E+00 0. -1.
         21    1    1    2  505  502 -0.44986046625E+02  0.54749508185E+02 -0.67912101660E+02  0.98149409520E+02  0.00000000000E+00 0. -1.
         21    1    1    2  506  505  0.43767429259E+02  0.63210755755E+02 -0.80858531227E+02  0.11157638451E+03  0.00000000000E+00 0. -1.
<scales pt_clust_3="14000.00000" pt_clust_4="34.99146" pt_clust_5="57.77422" pt_clust_6="106.44054"></scales>
<clustering>
<clus scale="   34.991">  2  4  1 -1</clus>
<clus scale="   57.774">  2  5  1 -1</clus>
<clus scale="  106.441">  2  6  1 -1</clus>
<clus scale="  106.441">  1  3  2 -1</clus>
</clustering>
</event>
<event>
 6    0  0.3446372E+002  0.1358374E+03  0.7546771E-02  0.1219042E+00
         21   -1    0    0  504  501  0.00000000000E+00  0.00000000000E+00  0.25940039077E+03  0.25940039077E+03  0.00000000000E+00 0.  1.
         21   -1    0    0  506  502 -0.00000000000E+00 -0.00000000000E+00 -0.36564737602E+03  0.36564737602E+03  0.00000000000E+00 0.  1.
         21    1    1    2  503  502 -0.94439140316E+01  0.46036921877E+02 -0.31678136964E+02  0.56675303702E+02  0.00000000000E+00 0.  1.
         21    1    1    2  504  503  0.10247722903E+03 -0.45265249654E+01  0.59282847617E+02  0.11847585374E+03  0.00000000000E+00 0.  1.
         21    1    1    2  505  501  0.45523454829E+02  0.12787298706E+02  0.13476052094E+03  0.14281560822E+03  0.00000000000E+00 0.  1.
         21    1    1    2  506  505 -0.13855676983E+03 -0.54297695619E+02 -0.26861221684E+03  0.30708100112E+03  0.00000000000E+00 0.  1.
<scales pt_clust_3="46.99559" pt_clust_4="14000.00000" pt_clust_5="47.33101" pt_clust_6="135.83745"></scales>
<clustering>
<clus scale="   46.996">  2  3  1 -1</clus>
<clus scale="   47.331">  1  5  2 -1</clus>
<clus scale="  135.837">  2  6  1 -1</clus>
<clus scale="   47.331">  1  3  2 -1</clus>
</clustering>
</event>
<event>
 6    0  0.3446372E+002  0.1360082E+03  0.7546771E-02  0.1218803E+00
         21   -1    0    0  503  501  0.00000000000E+00  0.00000000000E+00  0.82883126412E+02  0.82883126412E+02  0.00000000000E+00 0.  1.
         21   -1    0    0  506  502 -0.00000000000E+00 -0.00000000000E+00 -0.17306525522E+04  0.17306525522E+04  0.00000000000E+00 0.  1.
         21    1    1    2  503  504 -0.32376651239E+02  0.24288933710E+02 -0.73738678101E+02  0.84116541145E+02  0.00000000000E+00 0. -1.
         21    1    1    2  504  505 -0.41674968477E+02 -0.17836304381E+02 -0.66004222042E+02  0.80071805768E+02  0.00000000000E+00 0.  1.
         21    1    1    2  505  502  0.82105078159E+01 -0.12691999041E+03  0.76981585541E+01  0.12741804445E+03  0.00000000000E+00 0.  1.
         21    1    1    2  506  501  0.65841111900E+02  0.12046736109E+03 -0.15157246842E+04  0.15219292872E+04  0.00000000000E+00 0.  1.
<scales pt_clust_3="40.47468" pt_clust_4="47.26765" pt_clust_5="14000.00000" pt_clust_6="136.00816"></scales>
<clustering>
<clus scale="   40.475">  1  3  2 -1</clus>
<clus scale="   47.268">  1  4  2 -1</clus>
<clus scale="  136.008">  2  6  1 -1</clus>
<clus scale="   40.475">  1  3  2 -1</clus>
</clustering>
</event>
<event>
 6    0  0.3446372E+002  0.1390338E+03  0.7546771E-02  0.1214635E+00
         21   -1    0    0  505  501  0.00000000000E+00  0.00000000000E+00  0.14390937175E+04  0.14390937175E+04  0.00000000000E+00 0.  1.
         21   -1    0    0  504  502 -0.00000000000E+00 -0.00000000000E+00 -0.29124988295E+02  0.29124988295E+02  0.00000000000E+00 0. -1.
         21    1    1    2  503  506 -0.68895782892E+01 -0.49219014112E+02  0.34151314643E+03  0.34511042700E+03  0.00000000000E+00 0.  1.
         21    1    1    2  504  501  0.16944891903E+02  0.14266834383E+03  0.20388271548E+03  0.24941841825E+03  0.00000000000E+00 0. -1.
         21    1    1    2  505  503  0.10998756325E+02 -0.34000816950E+02  0.62288037921E+03  0.62390463614E+03  0.00000000000E+00 0.  1.
         21    1    1    2  506  502 -0.21054069938E+02 -0.59448512769E+02  0.24169248810E+03  0.24978522442E+03  0.00000000000E+00 0. -1.
<scales pt_clust_3="30.52687" pt_clust_4="134.71393" pt_clust_5="35.73553" pt_clust_6="30.52687"></scales>
<clustering>
<clus scale="   30.527">  3  6 -1 -1</clus>
<clus scale="   35.736">  1  5  2 -1</clus>
<clus scale="  134.714">  2  4  1 -1</clus>
<clus scale="   35.736">  1  3  2 -1</clus>
</clustering>
</event>
<event>
 6    0  0.3446372E+002  0.1320569E+03  0.7546771E-02  0.1224435E+00
         21   -1    0    0  505  501  0.00000000000E+00  0.00000000000E+00  0.11354087888E+03  0.11354087888E+03  0.00000000000E+00 0.  1.
         21   -1    0    0  504  502 -0.00000000000E+00 -0.00000000000E+00 -0.44785175634E+03  0.44785175634E+03  0.00000000000E+00 0. -1.
         21    1    1    2  503  501 -0.88228214864E+02  0.37996046981E+02  0.25179524228E+02  0.99307229972E+02  0.00000000000E+00 0.  1.
         21    1    1    2  504  506  0.82892501616E+02 -0.50500668916E+02 -0.13257238263E+03  0.16430739795E+03  0.00000000000E+00 0. -1.
         21    1    1    2  505  502  0.17722090171E+02 -0.28094105999E+02 -0.24811834083E+03  0.25033190434E+03  0.00000000000E+00 0. -1.
         21    1    1    2  506  503 -0.12386376923E+02  0.40598727934E+02  0.21200321775E+02  0.47446102964E+02  0.00000000000E+00 0.  1.
<scales pt_clust_3="36.97389" pt_clust_4="119.80816" pt_clust_5="33.21673" pt_clust_6="36.97389"></scales>
<clustering>
<clus scale="   33.217">  2  5  1 -1</clus>
<clus scale="   36.974">  3  6 -1 -1</clus>
<clus scale="  119.808">  2  4  1 -1</clus>
<clus scale="  132.057">  1  3  2 -1</clus>
</clustering>
</event>
<event>
 6    0  0.3446372E+002  0.1663996E+03  0.7546771E-02  0.1181655E+00
         21   -1    0    0  506  501  0.00000000000E+00  0.00000000000E+00  0.53257306612E+02  0.53257306612E+02  0.00000000000E+00 0.  1.
         21   -1    0    0  505  502 -0.00000000000E+00 -0.00000000000E+00 -0.13211553602E+04  0.13211553602E+04  0.00000000000E+00 0.  1.
         21    1    1    2  503  501  0.18932749082E+01 -0.63799387948E+02 -0.13878165527E+03  0.15275566841E+03  0.00000000000E+00 0.  1.
         21    1    1    2  504  503 -0.37788501964E+02 -0.61139377398E+02 -0.10063969099E+03  0.12367029454E+03  0.00000000000E+00 0.  1.
         21    1    1    2  505  504 -0.41533509769E+02  0.17335905568E+03 -0.97705149473E+03  0.99318075796E+03  0.00000000000E+00 0.  1.
         21    1    1    2  506  502  0.77428736824E+02 -0.48420290338E+02 -0.51425212569E+02  0.10480594587E+03  0.00000000000E+00 0.  1.
<scales pt_clust_3="44.10561" pt_clust_4="44.10561" pt_clust_5="159.68174" pt_clust_6="91.32214"></scales>
<clustering>
<clus scale="   44.106">  3  4 -1 -1</clus>
<clus scale="   91.322">  1  6  2 -1</clus>
<clus scale="  159.682">  2  5  1 -1</clus>
<clus scale="   91.322">  1  3  2 -1</clus>
</clustering>
</event>
<event>
 6    0  0.3446372E+002  0.1397561E+03  0.7546771E-02  0.1213658E+00
         21   -1    0    0  503  501  0.00000000000E+00  0.00000000000E+00  0.33619677767E+03  0.33619677767E+03  0.00000000000E+00 0. -1.
         21   -1    0    0  506  502 -0.00000000000E+00 -0.00000000000E+00 -0.17202430811E+03  0.17202430811E+03  0.00000000000E+00 0. -1.
         21    1    1    2  503  504  0.19411429522E+03 -0.80234500679E+02  0.13986901136E+03  0.25235149108E+03  0.00000000000E+00 0. -1.
         21    1    1    2  504  505 -0.56392338023E+02  0.16522666475E+02 -0.56732137349E+01  0.59036257073E+02  0.00000000000E+00 0. -1.
         21    1    1    2  505  502 -0.50575499460E+02  0.32037350114E+02 -0.47165115055E+02  0.76215621929E+02  0.00000000000E+00 0. -1.
         21    1    1    2  506  501 -0.87146457743E+02  0.31674484090E+02  0.77141786989E+02  0.12061771569E+03  0.00000000000E+00 0. -1.
<scales pt_clust_3="133.53194" pt_clust_4="40.86039" pt_clust_5="40.86039" pt_clust_6="92.72420"></scales>
<clustering>
<clus scale="   40.860">  4  5 -1 -1</clus>
<clus scale="   92.724">  1  6  2 -1</clus>
<clus scale="  133.532">  1  3  2 -1</clus>
<clus scale="   92.724">  1  3  2 -1</clus>
</clustering>
</event>
<event>
 6    0  0.3446372E+002  0.1808211E+03  0.7546771E-02  0.1167011E+00
         21   -1    0    0  503  501  0.00000000000E+00  0.00000000000E+00  0.15007509133E+04  0.15007509133E+04  0.00000000000E+00 0. -1.
         21   -1    0    0  505  502 -0.00000000000E+00 -0.00000000000E+00 -0.25935948117E+03  0.25935948117E+03  0.00000000000E+00 0. -1.
         21    1    1    2  503  502  0.23990353105E+02  0.89716722606E+02  0.23242303968E+03  0.25029002523E+03  0.00000000000E+00 0.  1.
         21    1    1    2  504  501 -0.63210873144E+02  0.62044635487E+02  0.10971298612E+04  0.11006993612E+04  0.00000000000E+00 0. -1.
         21    1    1    2  505  506 -0.10201025167E+03  0.74476115586E+02  0.55734832040E+01  0.12642723976E+03  0.00000000000E+00 0. -1.
         21    1    1    2  506  504  0.14123077171E+03 -0.22623747368E+03 -0.93734952039E+02  0.28269376825E+03  0.00000000000E+00 0. -1.
<scales pt_clust_3="127.74966" pt_clust_4="88.57286" pt_clust_5="180.82110" pt_clust_6="14000.00000"></scales>
<clustering>
<clus scale="   88.573">  1  4  2 -1</clus>
<clus scale="  127.750">  1  3  2 -1</clus>
<clus scale="  180.821">  2  5  1 -1</clus>
<clus scale="   88.573">  1  3  2 -1</clus>
</clustering>
</event>
<event>
 6    0  0.3446372E+002  0.2398413E+03  0.7546771E-02  0.1119899E+00
         21   -1    0    0  503  501  0.00000000000E+00  0.00000000000E+00  0.62761540616E+03  0.62761540616E+03  0.00000000000E+00 0. -1.
         21   -1    0    0  505  502 -0.00000000000E+00 -0.00000000000E+00 -0.36271805195E+03  0.36271805195E+03  0.00000000000E+00 0.  1.
         21    1    1    2  503  504 -0.24445670027E+02  0.20713084894E+02  0.11219764908E+02  0.33948575721E+02  0.00000000000E+00 0. -1.
         21    1    1    2  504  502 -0.20060876660E+03 -0.99611835415E+02 -0.19364838198E+03  0.29608460081E+03  0.00000000000E+00 0.  1.
         21    1    1    2  505  506  0.18910193916E+02 -0.61109488264E+02 -0.64619761491E+02  0.90926775842E+02  0.00000000000E+00 0. -1.
         21    1    1    2  506  501  0.20614424271E+03  0.14000823878E+03  0.51194573277E+03  0.56937350574E+03  0.00000000000E+00 0. -1.
<scales pt_clust_3="32.04095" pt_clust_4="239.84128" pt_clust_5="63.38229" pt_clust_6="14000.00000"></scales>
<clustering>
<clus scale="   32.041">  1  3  2 -1</clus>
<clus scale="   63.382">  2  5  1 -1</clus>
<clus scale="  239.841">  2  4  1 -1</clus>
<clus scale="   32.041">  1  3  2 -1</clus>
</clustering>
</event>
<event>
 6    0  0.3446372E+002  0.1559139E+03  0.7546771E-02  0.1193389E+00
         21   -1    0    0  506  501  0.00000000000E+00  0.00000000000E+00  0.27937186254E+03  0.27937186254E+03  0.00000000000E+00 0.  1.
         21   -1    0    0  503  502 -0.00000000000E+00 -0.00000000000E+00 -0.70307323516E+03  0.70307323516E+03  0.00000000000E+00 0.  1.
         21    1    1    2  503  504  0.72703732507E+00 -0.64841161765E+02 -0.25432693924E+03  0.26246351531E+03  0.00000000000E+00 0.  1.
         21    1    1    2  504  501  0.14251078116E+03 -0.80762957588E+02 -0.81850174901E+02  0.18311589007E+03  0.00000000000E+00 0.  1.
         21    1    1    2  505  502 -0.15583929899E+03  0.53697096203E+02 -0.27902753852E+03  0.32407658432E+03  0.00000000000E+00 0.  1.
         21    1    1    2  506  505  0.12601480502E+02  0.91907023150E+02  0.19150328004E+03  0.21278910800E+03  0.00000000000E+00 0.  1.
<scales pt_clust_3="64.84524" pt_clust_4="155.91386" pt_clust_5="14000.00000" pt_clust_6="91.23203"></scales>
<clustering>
<clus scale="   64.845">  2  3  1 -1</clus>
<clus scale="   91.232">  1  6  2 -1</clus>
<clus scale="  155.914">  1  4  2 -1</clus>
<clus scale="   91.232">  1  3  2 -1</clus>
</clustering>
</event>
<event>
 6    0  0.3446372E+002  0.2314446E+03  0.7546771E-02  0.1125627E+00
         21   -1    0    0  505  501  0.00000000000E+00  0.00000000000E+00  0.68319843624E+02  0.68319843624E+02  0.00000000000E+00 0.  1.
         21   -1    0    0  504  502 -0.00000000000E+00 -0.00000000000E+00 -0.15320032385E+04  0.15320032385E+04  0.00000000000E+00 0.  1.
         21    1    1    2  503  506  0.90789069843E+02  0.38201729606E+02 -0.97226812264E+02  0.13840187994E+03  0.00000000000E+00 0.  1.
         21    1    1    2  504  501 -0.19293749463E+03 -0.14486233240E+03 -0.11900409580E+04  0.12142518083E+04  0.00000000000E+00 0.  1.
         21    1    1    2  505  503  0.28027533768E+02  0.55036654081E+02 -0.16372037782E+02  0.63895379823E+02  0.00000000000E+00 0.  1.
         21    1    1    2  506  502  0.74120891023E+02  0.51623948717E+02 -0.16004358682E+03  0.18377401408E+03  0.00000000000E+00 0.  1.
<scales pt_clust_3="46.37587" pt_clust_4="226.32120" pt_clust_5="61.76225" pt_clust_6="46.37587"></scales>
<clustering>
<clus scale="   46.376">  3  6 -1 -1</clus>
<clus scale="   61.762">  1  5  2 -1</clus>
<clus scale="  226.321">  2  4  1 -1</clus>
<clus scale="   61.762">  1  3  2 -1</clus>
</clustering>
</event>
<event>
 6    0  0.3446372E+002  0.1107522E+03  0.7546771E-02  0.1259183E+00
         21   -1    0    0  503  501  0.00000000000E+00  0.00000000000E+00  0.14412157157E+04  0.14412157157E+04  0.00000000000E+00 0.  1.
         21   -1    0    0  505  502 -0.00000000000E+00 -0.00000000000E+00 -0.66959943561E+03  0.66959943561E+03  0.00000000000E+00 0. -1.
         21    1    1    2  503  506  0.54434444209E+02  0.64487040086E+01  0.11695468933E+04  0.11708307435E+04  0.00000000000E+00 0.  1.
         21    1    1    2  504  501  0.54379344316E+02 -0.40783075789E+02  0.24632590404E+03  0.25553243113E+03  0.00000000000E+00 0.  1.
         21    1    1    2  505  504  0.22996118425E+02  0.32190559390E+02 -0.16266300135E+02  0.42774362608E+02  0.00000000000E+00 0.  1.
         21    1    1    2  506  502 -0.13180990695E+03  0.21438123907E+01 -0.62799021711E+03  0.64167761398E+03  0.00000000000E+00 0. -1.
<scales pt_clust_3="54.84180" pt_clust_4="14000.00000" pt_clust_5="39.56076" pt_clust_6="110.75224"></scales>
<clustering>
<clus scale="   39.561">  2  5  1 -1</clus>
<clus scale="   54.842">  1  3  2 -1</clus>
<clus scale="  110.752">  2  6  1 -1</clus>
<clus scale="   54.842">  1  3  2 -1</clus>
</clustering>
</event>
<event>
 6    0  0.3446372E+002  0.1214457E+03  0.7546771E-02  0.1240731E+00
         21   -1    0    0  504  501  0.00000000000E+00  0.00000000000E+00  0.63588107882E+03  0.63588107882E+03  0.00000000000E+00 0. -1.
         21   -1    0    0  503  502 -0.00000000000E+00 -0.00000000000E+00 -0.17253169278E+03  0.17253169278E+03  0.00000000000E+00 0. -1.
         21    1    1    2  503  506 -0.21914145793E+02  0.23650769198E+02 -0.11332218756E+02  0.34176129849E+02  0.00000000000E+00 0. -1.
         21    1    1    2  504  505  0.95265642064E+02 -0.13466356620E+02  0.56805856935E+03  0.57614878593E+03  0.00000000000E+00 0. -1.
         21    1    1    2  505  502 -0.10304536175E+03 -0.19582862444E+02 -0.11836865104E+03  0.15815490074E+03  0.00000000000E+00 0. -1.
         21    1    1    2  506  501  0.29693865480E+02  0.93984498655E+01  0.24991686491E+02  0.39932955071E+02  0.00000000000E+00 0. -1.
<scales pt_clust_3="31.99557" pt_clust_4="121.44567" pt_clust_5="14000.00000" pt_clust_6="31.14573"></scales>
<clustering>
<clus scale="   31.146">  1  6  2 -1</clus>
<clus scale="   31.996">  2  3  1 -1</clus>
<clus scale="  121.446">  1  4  2 -1</clus>
<clus scale="   31.146">  1  3  2 -1</clus>
</clustering>
</event>
<event>
 6    0  0.3496737E+002  0.1235704E+03  0.7546771E-02  0.1237321E+00
         21   -1    0    0  505  501  0.00000000000E+00  0.00000000000E+00  0.52288670042E+03  0.52288670042E+03  0.00000000000E+00 0. -1.
         21   -1    0    0  504  502 -0.00000000000E+00 -0.00000000000E+00 -0.54186254333E+03  0.54186254333E+03  0.00000000000E+00 0.  1.
         21    1    1    2  503  506 -0.15709328139E+02 -0.49818112192E+02 -0.18526267604E+03  0.19248606814E+03  0.00000000000E+00 0.  1.
         21    1    1    2  504  501  0.57701300652E+02  0.10385054015E+03  0.50325044036E+03  0.51708353339E+03  0.00000000000E+00 0. -1.
         21    1    1    2  505  503  0.14917296584E+02 -0.51077373106E+02 -0.12884784271E+03  0.13940297827E+03  0.00000000000E+00 0.  1.
         21    1    1    2  506  502 -0.56909269096E+02 -0.29550548557E+01 -0.20811576452E+03  0.21577666394E+03  0.00000000000E+00 0.  1.
<scales pt_clust_3="35.78404" pt_clust_4="118.17466" pt_clust_5="35.78404" pt_clust_6="56.98594"></scales>
<clustering>
<clus scale="   35.784">  3  5 -1 -1</clus>
<clus scale="   56.986">  2  6  1 -1</clus>
<clus scale="  118.175">  1  4  2 -1</clus>
<clus scale="  118.175">  1  3  2 -1</clus>
</clustering>
</event>
<event>
 6    0  0.3446372E+002  0.1355394E+03  0.7546771E-02  0.1219460E+00
         21   -1    0    0  505  501  0.00000000000E+00  0.00000000000E+00  0.33044006783E+03  0.33044006783E+03  0.00000000000E+00 0.  1.
         21   -1    0    0  504  502 -0.00000000000E+00 -0.00000000000E+00 -0.20146542407E+03  0.20146542407E+03  0.00000000000E+00 0. -1.
         21    1    1    2  503  506  0.64742288466E+01  0.52184849379E+02 -0.29594419937E+02  0.60340731146E+02  0.00000000000E+00 0. -1.
         21    1    1    2  504  501 -0.38809340614E+02 -0.55404050704E+01  0.80587565271E+02  0.89617055763E+02  0.00000000000E+00 0.  1.
         21    1    1    2  505  503 -0.18129880311E+02 -0.10321945078E+03  0.20716353515E+03  0.23216304158E+03  0.00000000000E+00 0.  1.
         21    1    1    2  506  502  0.50464992079E+02  0.56575006475E+02 -0.12918203672E+03  0.14978466342E+03  0.00000000000E+00 0. -1.
<scales pt_clust_3="51.96236" pt_clust_4="39.20282" pt_clust_5="120.41175" pt_clust_6="51.96236"></scales>
<clustering>
<clus scale="   39.203">  1  4  2 -1</clus>
<clus scale="   51.962">  3  6 -1 -1</clus>
<clus scale="  120.412">  1  5  2 -1</clus>
<clus scale="   39.203">  1  3  2 -1</clus>
</clustering>
</event>
<event>
 6    0  0.3446372E+002  0.8352622E+02  0.7546771E-02  0.1319332E+00
         21   -1    0    0  505  501  0.00000000000E+00  0.00000000000E+00  0.13842209196E+03  0.13842209196E+03  0.00000000000E+00 0. -1.
         21   -1    0    0  506  502 -0.00000000000E+00 -0.00000000000E+00 -0.56331734154E+03  0.56331734154E+03  0.00000000000E+00 0. -1.
         21    1    1    2  503  502 -0.51264775909E+02  0.85891192555E+00 -0.25791668431E+03  0.26296355455E+03  0.00000000000E+00 0. -1.
         21    1    1    2  504  501  0.50528509807E+02  0.41222738443E+02  0.40653501097E+02  0.76844984348E+02  0.00000000000E+00 0. -1.
         21    1    1    2  505  503 -0.83918065078E+02 -0.10043002795E+03 -0.71483328860E+00  0.13087758840E+03  0.00000000000E+00 0. -1.
         21    1    1    2  506  504  0.84654331180E+02  0.58348377578E+02 -0.20691723309E+03  0.23105330619E+03  0.00000000000E+00 0. -1.
<scales pt_clust_3="51.27197" pt_clust_4="62.90099" pt_clust_5="83.52622" pt_clust_6="14000.00000"></scales>
<clustering>
<clus scale="   51.272">  2  3  1 -1</clus>
<clus scale="   62.901">  1  4  2 -1</clus>
<clus scale="   83.526">  1  5  2 -1</clus>
<clus scale="   62.901">  1  3  2 -1</clus>
</clustering>
</event>
<event>
 6    0  0.3446372E+002  0.7428314E+02  0.7546771E-02  0.1346105E+00
         21   -1    0    0  506  501  0.00000000000E+00  0.00000000000E+00  0.17140078141E+04  0.17140078141E+04  0.00000000000E+00 0.  1.
         21   -1    0    0  504  502 -0.00000000000E+00 -0.00000000000E+00 -0.52092073544E+02  0.52092073544E+02  0.00000000000E+00 0. -1.
         21    1    1    2  503  505  0.73768131765E+02  0.27629790194E+02  0.65522318650E+03  0.65994133580E+03  0.00000000000E+00 0.  1.
         21    1    1    2  504  503 -0.48140617373E+02 -0.73227405594E+02  0.71138620957E+02  0.11287371422E+03  0.00000000000E+00 0. -1.
         21    1    1    2  505  501 -0.16282516711E+02 -0.28114636522E+02  0.91583421613E+03  0.91641031453E+03  0.00000000000E+00 0.  1.
         21    1    1    2  506  502 -0.93449976800E+01  0.73712251922E+02  0.19719716986E+02  0.76874523108E+02  0.00000000000E+00 0. -1.
<scales pt_clust_3="60.51330" pt_clust_4="74.28314" pt_clust_5="32.48928" pt_clust_6="14000.00000"></scales>
<clustering>
<clus scale="   32.489">  1  5  2 -1</clus>
<clus scale="   60.513">  1  3  2 -1</clus>
<clus scale="   74.283">  1  4  2 -1</clus>
<clus scale="   32.489">  1  3  2 -1</clus>
</clustering>
</event>
<event>
 6    0  0.3446372E+002  0.1623449E+03  0.7546771E-02  0.1186075E+00
         21   -1    0    0  503  501  0.00000000000E+00  0.00000000000E+00  0.14811257692E+03  0.14811257692E+03  0.00000000000E+00 0.  1.
         21   -1    0    0  506  502 -0.00000000000E+00 -0.00000000000E+00 -0.85396398044E+03  0.85396398044E+03  0.00000000000E+00 0. -1.
         21    1    1    2  503  504 -0.54126377342E+02 -0.89176107857E+02  0.58463515025E+02  0.11958271416E+03  0.00000000000E+00 0.  1.
         21    1    1    2  504  502 -0.34346688277E+02 -0.87560906994E+02 -0.19258865288E+03  0.21432917825E+03  0.00000000000E+00 0.  1.
         21    1    1    2  505  501 -0.11270847367E+02 -0.61602767353E+02 -0.33234683262E+02  0.70897652411E+02  0.00000000000E+00 0.  1.
         21    1    1    2  506  505  0.99743912986E+02  0.23833978220E+03 -0.53849158239E+03  0.59726701254E+03  0.00000000000E+00 0. -1.
<scales pt_clust_3="162.34487" pt_clust_4="99.22960" pt_clust_5="62.62534" pt_clust_6="14000.00000"></scales>
<clustering>
<clus scale="   62.625">  1  5  2 -1</clus>
<clus scale="   99.230">  2  4  1 -1</clus>
<clus scale="  162.345">  1  3  2 -1</clus>
<clus scale="   62.625">  1  3  2 -1</clus>
</clustering>
</event>
<event>
 6    0  0.3446372E+002  0.8582507E+02  0.7546771E-02  0.1313289E+00
         21   -1    0    0  506  501  0.00000000000E+00  0.00000000000E+00  0.43385692854E+03  0.43385692854E+03  0.00000000000E+00 0. -1.
         21   -1    0    0  503  502 -0.00000000000E+00 -0.00000000000E+00 -0.68175938507E+02  0.68175938507E+02  0.00000000000E+00 0. -1.
         21    1    1    2  503  505  0.23750680000E+02  0.24205589500E+02  0.25447067287E+02  0.42397624898E+02  0.00000000000E+00 0.  1.
         21    1    1    2  504  501  0.47431163489E+02 -0.97981997915E+01  0.72128356461E+02  0.86880491452E+02  0.00000000000E+00 0. -1.
         21    1    1    2  505  504 -0.10110846031E+03 -0.66708949271E+02  0.26829531313E+02  0.12406783794E+03  0.00000000000E+00 0. -1.
         21    1    1    2  506  502  0.29926616823E+02  0.52301559563E+02  0.24127603498E+03  0.24868691277E+03  0.00000000000E+00 0. -1.
<scales pt_clust_3="33.91173" pt_clust_4="50.82357" pt_clust_5="14000.00000" pt_clust_6="85.82507"></scales>
<clustering>
<clus scale="   33.912">  2  3  1 -1</clus>
<clus scale="   50.824">  1  4  2 -1</clus>
<clus scale="   85.825">  1  6  2 -1</clus>
<clus scale="   50.824">  1  3  2 -1</clus>
</clustering>
</event>
<event>
 6    0  0.3446372E+002  0.7656146E+02  0.7546771E-02  0.1339103E+00
         21   -1    0    0  506  501  0.00000000000E+00  0.00000000000E+00  0.29952333863E+03  0.29952333863E+03  0.00000000000E+00 0. -1.
         21   -1    0    0  503  502 -0.00000000000E+00 -0.00000000000E+00 -0.23051941148E+03  0.23051941148E+03  0.00000000000E+00 0. -1.
         21    1    1    2  503  501  0.32587633717E+02  0.78091598527E+02 -0.16940895253E+03  0.18936643004E+03  0.00000000000E+00 0. -1.
         21    1    1    2  504  502 -0.38198282167E+02 -0.27775972359E+00 -0.14302456129E+02  0.40789044636E+02  0.00000000000E+00 0. -1.
         21    1    1    2  505  504 -0.44608019809E+02 -0.61615199564E+02  0.23033508596E+03  0.24257073211E+03  0.00000000000E+00 0. -1.
         21    1    1    2  506  505  0.50218668259E+02 -0.16198639239E+02  0.22380249842E+02  0.57316543318E+02  0.00000000000E+00 0. -1.
<scales pt_clust_3="14000.00000" pt_clust_4="38.19929" pt_clust_5="76.56146" pt_clust_6="49.65598"></scales>
<clustering>
<clus scale="   38.199">  2  4  1 -1</clus>
<clus scale="   49.656">  1  6  2 -1</clus>
<clus scale="   76.561">  1  5  2 -1</clus>
<clus scale="   49.656">  1  3  2 -1</clus>
</clustering>
</event>
<event>
 6    0  0.3446372E+002  0.1256969E+03  0.7546771E-02  0.1233984E+00
         21   -1    0    0  504  501  0.00000000000E+00  0.00000000000E+00  0.31122065422E+03  0.31122065422E+03  0.00000000000E+00 0.  1.
         21   -1    0    0  506  502 -0.00000000000E+00 -0.00000000000E+00 -0.61019697840E+03  0.61019697840E+03  0.00000000000E+00 0.  1.
         21    1    1    2  503  501 -0.28123319160E+02  0.10518012664E+02  0.85638710867E+02  0.90749867603E+02  0.00000000000E+00 0.  1.
         21    1    1    2  504  505  0.43555672141E+02  0.41683705603E+02  0.14785827490E+03  0.15967685288E+03  0.00000000000E+00 0.  1.
         21    1    1    2  505  502 -0.13563047754E+03 -0.15765066840E+02 -0.13699357860E+02  0.13722913749E+03  0.00000000000E+00 0.  1.
         21    1    1    2  506  503  0.12019812456E+03 -0.36436651427E+02 -0.51877395209E+03  0.53376177465E+03  0.00000000000E+00 0.  1.
<scales pt_clust_3="30.02582" pt_clust_4="54.57713" pt_clust_5="125.69691" pt_clust_6="14000.00000"></scales>
<clustering>
<clus scale="   30.026">  1  3  2 -1</clus>
<clus scale="   54.577">  1  4  2 -1</clus>
<clus scale="  125.697">  1  5  2 -1</clus>
<clus scale="   30.026">  1  3  2 -1</clus>
</clustering>
</event>
<event>
 6    0  0.3446372E+002  0.1419288E+03  0.7546771E-02  0.1210757E+00
         21   -1    0    0  506  501  0.00000000000E+00  0.00000000000E+00  0.19409779859E+03  0.19409779859E+03  0.00000000000E+00 0.  1.
         21   -1    0    0  505  502 -0.00000000000E+00 -0.00000000000E+00 -0.14800037068E+04  0.14800037068E+04  0.00000000000E+00 0.  1.
         21    1    1    2  503  501 -0.10999193062E+03 -0.99234235477E+02  0.14405327006E+03  0.20663253109E+03  0.00000000000E+00 0.  1.
         21    1    1    2  504  502  0.46386067325E+02  0.57293262518E+02 -0.53149567468E+03  0.53658348593E+03  0.00000000000E+00 0.  1.
         21    1    1    2  505  503 -0.17130215801E+02 -0.27467779281E+02 -0.73557545936E+03  0.73628743002E+03  0.00000000000E+00 0.  1.
         21    1    1    2  506  504  0.80736079094E+02  0.69408752239E+02 -0.16288804421E+03  0.19459805832E+03  0.00000000000E+00 0.  1.
<scales pt_clust_3="141.92877" pt_clust_4="50.73846" pt_clust_5="32.37164" pt_clust_6="14000.00000"></scales>
<clustering>
<clus scale="   32.372">  2  5  1 -1</clus>
<clus scale="   50.738">  2  4  1 -1</clus>
<clus scale="  141.929">  1  3  2 -1</clus>
<clus scale="  141.929">  1  3  2 -1</clus>
</clustering>
</event>
<event>
 6    0  0.3446372E+002  0.1540418E+03  0.7546771E-02  0.1195593E+00
         21   -1    0    0  506  501  0.00000000000E+00  0.00000000000E+00  0.30560769537E+02  0.30560769537E+02  0.00000000000E+00 0.  1.
         21   -1    0    0  505  502 -0.00000000000E+00 -0.00000000000E+00 -0.14184171016E+04  0.14184171016E+04  0.00000000000E+00 0. -1.
         21    1    1    2  503  501 -0.74985329430E+02 -0.13046074613E+03 -0.23976829911E+03  0.28307533127E+03  0.00000000000E+00 0.  1.
         21    1    1    2  504  503  0.50631592495E+02  0.29043625582E+02 -0.24875990832E+03  0.25551630542E+03  0.00000000000E+00 0.  1.
         21    1    1    2  505  504  0.56727787244E+02  0.58131589273E+02 -0.66292077931E+03  0.66787819485E+03  0.00000000000E+00 0. -1.
         21    1    1    2  506  502 -0.32374050308E+02  0.43285531279E+02 -0.23640734527E+03  0.24250803955E+03  0.00000000000E+00 0. -1.
<scales pt_clust_3="146.14612" pt_clust_4="41.27090" pt_clust_5="41.27090" pt_clust_6="54.05290"></scales>
<clustering>
<clus scale="   41.271">  4  5 -1 -1</clus>
<clus scale="   54.053">  2  6  1 -1</clus>
<clus scale="  146.146">  1  3  2 -1</clus>
<clus scale="  146.146">  1  3  2 -1</clus>
</clustering>
</event>
<event>
 6    0  0.3446372E+002  0.1571633E+03  0.7546771E-02  0.1191937E+00
         21   -1    0    0  506  501  0.00000000000E+00  0.00000000000E+00  0.21405811199E+02  0.21405811199E+02  0.00000000000E+00 0. -1.
         21   -1    0    0  504  502 -0.00000000000E+00 -0.00000000000E+00 -0.21082330039E+04  0.21082330039E+04  0.00000000000E+00 0. -1.
         21    1    1    2  503  505  0.63973062661E+02 -0.30332120106E+01 -0.47159055118E+03  0.47591953215E+03  0.00000000000E+00 0. -1.
         21    1    1    2  504  501  0.41272049321E+01  0.32530035324E+02 -0.21596477273E+02  0.39263785469E+02  0.00000000000E+00 0. -1.
         21    1    1    2  505  502  0.65334363546E+02  0.56279181149E+02 -0.83298005482E+03  0.83743160736E+03  0.00000000000E+00 0. -1.
         21    1    1    2  506  503 -0.13343463114E+03 -0.85776004462E+02 -0.76066010948E+03  0.77702389016E+03  0.00000000000E+00 0. -1.
<scales pt_clust_3="49.50642" pt_clust_4="32.79081" pt_clust_5="49.50642" pt_clust_6="145.83930"></scales>
<clustering>
<clus scale="   32.791">  1  4  2 -1</clus>
<clus scale="   49.506">  3  5 -1 -1</clus>
<clus scale="  145.839">  1  6  2 -1</clus>
<clus scale="   32.791">  1  3  2 -1</clus>
</clustering>
</event>
<event>
 6    0  0.3446372E+002  0.1295979E+03  0.7546771E-02  0.1228054E+00
         21   -1    0    0  503  501  0.00000000000E+00  0.00000000000E+00  0.27371838633E+04  0.27371838633E+04  0.00000000000E+00 0. -1.
         21   -1    0    0  504  502 -0.00000000000E+00 -0.00000000000E+00 -0.14759896328E+03  0.14759896328E+03  0.00000000000E+00 0. -1.
         21    1    1    2  503  506  0.78727490914E+02 -0.56467262439E+02  0.86486163769E+02  0.12987080533E+03  0.00000000000E+00 0. -1.
         21    1    1    2  504  505  0.56684927824E+02  0.78316629022E+02 -0.32390860930E+02  0.10196000832E+03  0.00000000000E+00 0. -1.
         21    1    1    2  505  501 -0.99896099705E+02  0.86629951521E+02  0.25353608603E+04  0.25388065446E+04  0.00000000000E+00 0. -1.
         21    1    1    2  506  502 -0.35516319032E+02 -0.10847931810E+03  0.12873695771E+00  0.11414546836E+03  0.00000000000E+00 0. -1.
<scales pt_clust_3="129.59795" pt_clust_4="96.67821" pt_clust_5="14000.00000" pt_clust_6="53.16947"></scales>
<clustering>
<clus scale="   96.678">  2  4  1 -1</clus>
<clus scale="   53.169">  2  6  1 -1</clus>
<clus scale="  129.598">  2  3  1 -1</clus>
<clus scale="  129.598">  1  3  2 -1</clus>
</clustering>
</event>
<event>
 6    0  0.3446372E+002  0.1742404E+03  0.7546771E-02  0.1173497E+00
         21   -1    0    0  505  501  0.00000000000E+00  0.00000000000E+00  0.99599918304E+03  0.99599918304E+03  0.00000000000E+00 0. -1.
         21   -1    0    0  501  502 -0.00000000000E+00 -0.00000000000E+00 -0.24339559011E+03  0.24339559011E+03  0.00000000000E+00 0. -1.
         21    1    1    2  503  506 -0.24836611214E+02 -0.92152290791E+02 -0.21704791023E+02  0.97877473956E+02  0.00000000000E+00 0. -1.
         21    1    1    2  504  503 -0.14642565449E+03  0.98752804135E+00  0.10724521995E+03  0.18150202397E+03  0.00000000000E+00 0. -1.
         21    1    1    2  505  504  0.17653574490E+03  0.49357975533E+02  0.79991068194E+03  0.82064497687E+03  0.00000000000E+00 0. -1.
         21    1    1    2  506  502 -0.52734791992E+01  0.41806787217E+02 -0.13284751794E+03  0.13937029835E+03  0.00000000000E+00 0. -1.
<scales pt_clust_3="74.24454" pt_clust_4="14000.00000" pt_clust_5="174.24043" pt_clust_6="42.13807"></scales>
<clustering>
<clus scale="   42.138">  2  6  1 -1</clus>
<clus scale="   74.245">  2  3  1 -1</clus>
<clus scale="  174.240">  1  5  2 -1</clus>
<clus scale="  174.240">  1  3  2 -1</clus>
</clustering>
</event>
<event>
 6    0  0.3446372E+002  0.8711785E+02  0.7546771E-02  0.1309985E+00
         21   -1    0    0  503  501  0.00000000000E+00  0.00000000000E+00  0.27830660779E+03  0.27830660779E+03  0.00000000000E+00 0. -1.
         21   -1    0    0  504  502 -0.00000000000E+00 -0.00000000000E+00 -0.25608447312E+03  0.25608447312E+03  0.00000000000E+00 0. -1.
         21    1    1    2  503  505  0.50263016388E+02 -0.10588288864E+03  0.76250247279E+02  0.13982724031E+03  0.00000000000E+00 0. -1.
         21    1    1    2  504  501  0.13666045773E+02  0.33821437772E+02  0.15003089303E+03  0.15440181127E+03  0.00000000000E+00 0. -1.
         21    1    1    2  505  506 -0.42860511175E+02  0.40294992684E+02 -0.38581221597E+02  0.70350696610E+02  0.00000000000E+00 0. -1.
         21    1    1    2  506  502 -0.21068550986E+02  0.31766458187E+02 -0.16547778404E+03  0.16981133271E+03  0.00000000000E+00 0. -1.
<scales pt_clust_3="14000.00000" pt_clust_4="36.47808" pt_clust_5="87.11785" pt_clust_6="38.47615"></scales>
<clustering>
<clus scale="   36.478">  1  4  2 -1</clus>
<clus scale="   38.476">  2  6  1 -1</clus>
<clus scale="   87.118">  2  5  1 -1</clus>
<clus scale="   36.478">  1  3  2 -1</clus>
</clustering>
</event>
<event>
 6    0  0.3446372E+002  0.1362600E+03  0.7546771E-02  0.1218452E+00
         21   -1    0    0  504  501  0.00000000000E+00  0.00000000000E+00  0.56870090109E+03  0.56870090109E+03  0.00000000000E+00 0. -1.
         21   -1    0    0  506  502 -0.00000000000E+00 -0.00000000000E+00 -0.83067950469E+03  0.83067950469E+03  0.00000000000E+00 0.  1.
         21    1    1    2  503  505  0.95238709647E+01  0.82446327794E+02 -0.51582928424E+03  0.52246334949E+03  0.00000000000E+00 0.  1.
         21    1    1    2  504  503 -0.84932838855E+02  0.26722823283E+02  0.37968666393E+03  0.38998674229E+03  0.00000000000E+00 0. -1.
         21    1    1    2  505  502 -0.24540784691E+02  0.45151717316E+02 -0.25635348782E+03  0.26145370223E+03  0.00000000000E+00 0.  1.
         21    1    1    2  506  501  0.99949752582E+02 -0.15432086839E+03  0.13051750454E+03  0.22547661177E+03  0.00000000000E+00 0. -1.
<scales pt_clust_3="32.94564" pt_clust_4="89.03761" pt_clust_5="32.94564" pt_clust_6="129.66824"></scales>
<clustering>
<clus scale="   32.946">  3  5 -1 -1</clus>
<clus scale="   89.038">  1  4  2 -1</clus>
<clus scale="  129.668">  1  6  2 -1</clus>
<clus scale="   89.038">  1  3  2 -1</clus>
</clustering>
</event>
<event>
 6    0  0.3446372E+002  0.1864254E+03  0.7546771E-02  0.1161725E+00
         21   -1    0    0  503  501  0.00000000000E+00  0.00000000000E+00  0.31368756976E+03  0.31368756976E+03  0.00000000000E+00 0.  1.
         21   -1    0    0  504  502 -0.00000000000E+00 -0.00000000000E+00 -0.24988846697E+03  0.24988846697E+03  0.00000000000E+00 0.  1.
         21    1    1    2  503  502  0.11783003277E+03 -0.17028229482E+03 -0.11891590711E+03  0.23879063951E+03  0.00000000000E+00 0.  1.
         21    1    1    2  504  506  0.38105323879E+01  0.60859511301E+02 -0.37654417759E+01  0.61094834681E+02  0.00000000000E+00 0.  1.
         21    1    1    2  505  501 -0.95958707474E+02  0.33988403425E+02  0.13396668133E+03  0.16825681803E+03  0.00000000000E+00 0.  1.
         21    1    1    2  506  505 -0.25681857684E+02  0.75434380097E+02  0.52513770341E+02  0.95433744505E+02  0.00000000000E+00 0.  1.
<scales pt_clust_3="178.00007" pt_clust_4="48.47256" pt_clust_5="101.80022" pt_clust_6="48.47256"></scales>
<clustering>
<clus scale="   48.473">  4  6 -1 -1</clus>
<clus scale="  101.800">  1  5  2 -1</clus>
<clus scale="  178.000">  2  3  1 -1</clus>
<clus scale="  101.800">  1  3  2 -1</clus>
</clustering>
</event>
<event>
 6    0  0.3446372E+002  0.1600151E+03  0.7546771E-02  0.1188680E+00
         21   -1    0    0  506  501  0.00000000000E+00  0.00000000000E+00  0.14960377097E+04  0.14960377097E+04  0.00000000000E+00 0.  1.
         21   -1    0    0  503  502 -0.00000000000E+00 -0.00000000000E+00 -0.71569860621E+02  0.71569860621E+02  0.00000000000E+00 0.  1.
         21    1    1    2  503  501 -0.14990858225E+03  0.89891605200E+02  0.54526267931E+03  0.57259451025E+03  0.00000000000E+00 0.  1.
         21    1    1    2  504  502  0.55137489195E+02 -0.55618316976E+02  0.15582381490E+02  0.79852053893E+02  0.00000000000E+00 0.  1.
         21    1    1    2  505  504  0.29759205078E+02 -0.73064875042E+02  0.40717418363E+02  0.88780597035E+02  0.00000000000E+00 0. -1.
         21    1    1    2  506  505  0.65011887975E+02  0.38791586818E+02  0.82290536996E+03  0.82638040919E+03  0.00000000000E+00 0.  1.
<scales pt_clust_3="155.25575" pt_clust_4="38.59451" pt_clust_5="38.59451" pt_clust_6="75.70557"></scales>
<clustering>
<clus scale="   38.595">  4  5 -1 -1</clus>
<clus scale="   75.706">  1  6  2 -1</clus>
<clus scale="  155.256">  1  3  2 -1</clus>
<clus scale="   75.706">  1  3  2 -1</clus>
</clustering>
</event>
<event>
 6    0  0.3446372E+002  0.8889972E+02  0.7546771E-02  0.1305538E+00
         21   -1    0    0  503  501  0.00000000000E+00  0.00000000000E+00  0.14364502485E+03  0.14364502485E+03  0.00000000000E+00 0. -1.
         21   -1    0    0  505  502 -0.00000000000E+00 -0.00000000000E+00 -0.42542646410E+03  0.42542646410E+03  0.00000000000E+00 0. -1.
         21    1    1    2  503  504  0.21921317261E+02  0.81007392983E+02  0.76877648624E+02  0.11381087262E+03  0.00000000000E+00 0. -1.
         21    1    1    2  504  506 -0.12256052923E+02  0.54872326296E+02 -0.11435890450E+03  0.12743289240E+03  0.00000000000E+00 0. -1.
         21    1    1    2  505  501  0.32120521275E+02 -0.12870607403E+03 -0.73111485821E+02  0.15146706156E+03  0.00000000000E+00 0. -1.
         21    1    1    2  506  502 -0.41785785613E+02 -0.71736452512E+01 -0.17118869755E+03  0.17636066237E+03  0.00000000000E+00 0. -1.
<scales pt_clust_3="88.89972" pt_clust_4="60.74445" pt_clust_5="14000.00000" pt_clust_6="42.39709"></scales>
<clustering>
<clus scale="   42.397">  2  6  1 -1</clus>
<clus scale="   60.744">  2  4  1 -1</clus>
<clus scale="   88.900">  1  3  2 -1</clus>
<clus scale="   88.900">  1  3  2 -1</clus>
</clustering>
</event>
<event>
 6    0  0.3446372E+002  0.8766533E+02  0.7546771E-02  0.1308606E+00
         21   -1    0    0  503  501  0.00000000000E+00  0.00000000000E+00  0.25040588990E+03  0.25040588990E+03  0.00000000000E+00 0. -1.
         21   -1    0    0  506  502 -0.00000000000E+00 -0.00000000000E+00 -0.23220120808E+03  0.23220120808E+03  0.00000000000E+00 0.  1.
         21    1    1    2  503  504  0.55541820173E+02 -0.65954875676E+00  0.11771947479E+03  0.13016606139E+03  0.00000000000E+00 0. -1.
         21    1    1    2  504  505  0.42771289726E+02 -0.77105583081E+02  0.61927470538E+02  0.10774815903E+03  0.00000000000E+00 0. -1.
         21    1    1    2  505  502 -0.55096391633E+02  0.68290276447E+02 -0.17719399994E+03  0.19772932975E+03  0.00000000000E+00 0.  1.
         21    1    1    2  506  501 -0.43216718266E+02  0.94748553912E+01  0.15751736434E+02  0.46963547812E+02  0.00000000000E+00 0. -1.
<scales pt_clust_3="31.44226" pt_clust_4="87.66533" pt_clust_5="14000.00000" pt_clust_6="44.24316"></scales>
<clustering>
<clus scale="   44.243">  1  6  2 -1</clus>
<clus scale="   31.442">  1  3  2 -1</clus>
<clus scale="   87.665">  1  4  2 -1</clus>
<clus scale="   44.243">  1  3  2 -1</clus>
</clustering>
</event>
<event>
 6    0  0.3446372E+002  0.1419322E+03  0.7546771E-02  0.1210752E+00
         21   -1    0    0  504  501  0.00000000000E+00  0.00000000000E+00  0.21155661098E+03  0.21155661098E+03  0.00000000000E+00 0.  1.
         21   -1    0    0  506  502 -0.00000000000E+00 -0.00000000000E+00 -0.26847058144E+03  0.26847058144E+03  0.00000000000E+00 0.  1.
         21    1    1    2  503  501 -0.88477710376E+02 -0.39207849357E+02 -0.60342185053E+02  0.11404709545E+03  0.00000000000E+00 0.  1.
         21    1    1    2  504  505  0.56462065527E+02 -0.11839352058E+03  0.48656247677E+01  0.13125800876E+03  0.00000000000E+00 0.  1.
         21    1    1    2  505  502  0.78837331297E+02  0.14447307234E+03  0.41627737106E+02  0.16976649238E+03  0.00000000000E+00 0.  1.
         21    1    1    2  506  503 -0.46821686448E+02  0.13128297599E+02 -0.43065147282E+02  0.64955595834E+02  0.00000000000E+00 0.  1.
<scales pt_clust_3="34.45657" pt_clust_4="131.16780" pt_clust_5="133.34895" pt_clust_6="34.45657"></scales>
<clustering>
<clus scale="   34.457">  3  6 -1 -1</clus>
<clus scale="  131.168">  1  4  2 -1</clus>
<clus scale="  133.349">  1  5  2 -1</clus>
<clus scale="  131.168">  1  3  2 -1</clus>
</clustering>
</event>
<event>
 6    0  0.3446372E+002  0.1998157E+03  0.7546771E-02  0.1149895E+00
         21   -1    0    0  504  501  0.00000000000E+00  0.00000000000E+00  0.35379329042E+03  0.35379329042E+03  0.00000000000E+00 0.  1.
         21   -1    0    0  506  502 -0.00000000000E+00 -0.00000000000E+00 -0.33715908544E+03  0.33715908544E+03  0.00000000000E+00 0.  1.
         21    1    1    2  503  501 -0.31120743012E+02  0.12907637573E+02  0.71232721664E+02  0.78798530373E+02  0.00000000000E+00 0.  1.
         21    1    1    2  504  505  0.13746396874E+03  0.15857429312E+03  0.18792813865E+03  0.28170753351E+03  0.00000000000E+00 0.  1.
         21    1    1    2  505  502 -0.36609518664E+02  0.24523923671E+01 -0.33031610008E+02  0.49369609527E+02  0.00000000000E+00 0. -1.
         21    1    1    2  506  503 -0.69733707067E+02 -0.17393432306E+03 -0.20949504532E+03  0.28107670244E+03  0.00000000000E+00 0.  1.
<scales pt_clust_3="33.69136" pt_clust_4="199.81572" pt_clust_5="37.62807" pt_clust_6="14000.00000"></scales>
<clustering>
<clus scale="   33.691">  1  3  2 -1</clus>
<clus scale="   37.628">  2  5  1 -1</clus>
<clus scale="  199.816">  1  4  2 -1</clus>
<clus scale="   33.691">  1  3  2 -1</clus>
</clustering>
</event>
<event>
 6    0  0.3446372E+002  0.2699525E+03  0.7546771E-02  0.1101307E+00
         21   -1    0    0  504  501  0.00000000000E+00  0.00000000000E+00  0.55475644678E+03  0.55475644678E+03  0.00000000000E+00 0.  1.
         21   -1    0    0  506  502 -0.00000000000E+00 -0.00000000000E+00 -0.10223421568E+04  0.10223421568E+04  0.00000000000E+00 0.  1.
         21    1    1    2  503  505 -0.54150058048E+02 -0.29162765238E+03  0.14303240063E+02  0.29695706608E+03  0.00000000000E+00 0.  1.
         21    1    1    2  504  503  0.76598973592E+02  0.42484879044E+02  0.33964411029E+03  0.35075702324E+03  0.00000000000E+00 0.  1.
         21    1    1    2  505  502 -0.17197551557E+02 -0.47283858378E+02 -0.45585198876E+03  0.45862027288E+03  0.00000000000E+00 0.  1.
         21    1    1    2  506  501 -0.52513639867E+01  0.29642663171E+03 -0.36568107157E+03  0.47076424133E+03  0.00000000000E+00 0.  1.
<scales pt_clust_3="269.95248" pt_clust_4="87.21928" pt_clust_5="50.31420" pt_clust_6="14000.00000"></scales>
<clustering>
<clus scale="   50.314">  2  5  1 -1</clus>
<clus scale="   87.219">  1  4  2 -1</clus>
<clus scale="  269.952">  1  3  2 -1</clus>
<clus scale="   87.219">  1  3  2 -1</clus>
</clustering>
</event>
<event>
 6    0  0.3446372E+002  0.6705974E+02  0.7546771E-02  0.1370387E+00
         21   -1    0    0  505  501  0.00000000000E+00  0.00000000000E+00  0.42327720764E+03  0.42327720764E+03  0.00000000000E+00 0.  1.
         21   -1    0    0  504  502 -0.00000000000E+00 -0.00000000000E+00 -0.91929892374E+02  0.91929892374E+02  0.00000000000E+00 0. -1.
         21    1    1    2  503  501  0.98910888888E+02  0.74381698644E+02  0.11869803157E+03  0.17147951403E+03  0.00000000000E+00 0. -1.
         21    1    1    2  504  503 -0.10110760619E+02 -0.28342576001E+02 -0.33990473241E+02  0.45396931237E+02  0.00000000000E+00 0. -1.
         21    1    1    2  505  506 -0.52195626243E+02 -0.28901616294E+02  0.25070735359E+03  0.25770887445E+03  0.00000000000E+00 0.  1.
         21    1    1    2  506  502 -0.36604502026E+02 -0.17137506349E+02 -0.40675966519E+01  0.40621780303E+02  0.00000000000E+00 0. -1.
<scales pt_clust_3="14000.00000" pt_clust_4="30.09201" pt_clust_5="67.05974" pt_clust_6="50.31356"></scales>
<clustering>
<clus scale="   30.092">  2  4  1 -1</clus>
<clus scale="   50.314">  2  6  1 -1</clus>
<clus scale="   67.060">  1  5  2 -1</clus>
<clus scale="   67.060">  1  3  2 -1</clus>
</clustering>
</event>
<event>
 6    0  0.3446372E+002  0.1733602E+03  0.7546771E-02  0.1174388E+00
         21   -1    0    0  504  501  0.00000000000E+00  0.00000000000E+00  0.18134811391E+04  0.18134811391E+04  0.00000000000E+00 0. -1.
         21   -1    0    0  506  502 -0.00000000000E+00 -0.00000000000E+00 -0.88733438249E+02  0.88733438249E+02  0.00000000000E+00 0. -1.
         21    1    1    2  503  502 -0.15645873327E+02 -0.24331575033E+03  0.29818015720E+03  0.38517366714E+03  0.00000000000E+00 0. -1.
         21    1    1    2  504  503 -0.31756107300E+02  0.71754962092E+02  0.12118941945E+04  0.12144318686E+04  0.00000000000E+00 0. -1.
         21    1    1    2  505  501  0.11099595734E+01  0.30687263989E+02  0.12631803038E+03  0.12999686527E+03  0.00000000000E+00 0. -1.
         21    1    1    2  506  505  0.46292021053E+02  0.14087352425E+03  0.88355318770E+02  0.17261217628E+03  0.00000000000E+00 0. -1.
<scales pt_clust_3="14000.00000" pt_clust_4="98.81904" pt_clust_5="30.70733" pt_clust_6="173.36020"></scales>
<clustering>
<clus scale="   30.707">  1  5  2 -1</clus>
<clus scale="   98.819">  1  4  2 -1</clus>
<clus scale="  173.360">  2  6  1 -1</clus>
<clus scale="   30.707">  1  3  2 -1</clus>
</clustering>
</event>
<event>
 6    0  0.3446372E+002  0.9575767E+02  0.7546771E-02  0.1289479E+00
         21   -1    0    0  504  501  0.00000000000E+00  0.00000000000E+00  0.54018661135E+03  0.54018661135E+03  0.00000000000E+00 0.  1.
         21   -1    0    0  506  502 -0.00000000000E+00 -0.00000000000E+00 -0.12381088354E+03  0.12381088354E+03  0.00000000000E+00 0.  1.
         21    1    1    2  503  501  0.58548567638E+02  0.69389118999E+01  0.30341373891E+03  0.30908895197E+03  0.00000000000E+00 0.  1.
         21    1    1    2  504  505  0.54182450172E+01 -0.35860995055E+02  0.12620927781E+03  0.13131698348E+03  0.00000000000E+00 0.  1.
         21    1    1    2  505  502  0.75271952464E+02 -0.12046914485E+02 -0.18176438092E+02  0.78366943784E+02  0.00000000000E+00 0.  1.
         21    1    1    2  506  503 -0.13923876512E+03  0.40968997640E+02  0.49291491903E+01  0.14522461565E+03  0.00000000000E+00 0.  1.
<scales pt_clust_3="65.62570" pt_clust_4="36.26801" pt_clust_5="95.75767" pt_clust_6="14000.00000"></scales>
<clustering>
<clus scale="   36.268">  1  4  2 -1</clus>
<clus scale="   65.626">  1  3  2 -1</clus>
<clus scale="   95.758">  2  5  1 -1</clus>
<clus scale="   36.268">  1  3  2 -1</clus>
</clustering>
</event>
<event>
 6    0  0.3446372E+002  0.1794852E+03  0.7546771E-02  0.1168302E+00
         21   -1    0    0  505  501  0.00000000000E+00  0.00000000000E+00  0.10235060052E+03  0.10235060052E+03  0.00000000000E+00 0. -1.
         21   -1    0    0  506  502 -0.00000000000E+00 -0.00000000000E+00 -0.51705466373E+03  0.51705466373E+03  0.00000000000E+00 0. -1.
         21    1    1    2  503  504 -0.13433763834E+03 -0.76782599838E+01 -0.41117216682E+02  0.14069890639E+03  0.00000000000E+00 0. -1.
         21    1    1    2  504  502  0.15083193893E+03 -0.33552594980E+02 -0.32914182949E+03  0.36360747291E+03  0.00000000000E+00 0. -1.
         21    1    1    2  505  503 -0.41354144832E+02  0.14231622024E+02  0.14143292462E+02  0.45964519816E+02  0.00000000000E+00 0. -1.
         21    1    1    2  506  501  0.24859844238E+02  0.26999232940E+02 -0.58588309493E+02  0.69134365146E+02  0.00000000000E+00 0.  1.
<scales pt_clust_3="32.27597" pt_clust_4="170.32278" pt_clust_5="32.27597" pt_clust_6="36.70110"></scales>
<clustering>
<clus scale="   32.276">  3  5 -1 -1</clus>
<clus scale="   36.701">  2  6  1 -1</clus>
<clus scale="  170.323">  2  4  1 -1</clus>
<clus scale="  179.485">  1  3  2 -1</clus>
</clustering>
</event>
<event>
 6    0  0.3446372E+002  0.1436276E+03  0.7546771E-02  0.1208529E+00
         21   -1    0    0  505  501  0.00000000000E+00  0.00000000000E+00  0.16853282890E+03  0.16853282890E+03  0.00000000000E+00 0.  1.
         21   -1    0    0  503  502 -0.00000000000E+00 -0.00000000000E+00 -0.82279153167E+03  0.82279153167E+03  0.00000000000E+00 0.  1.
         21    1    1    2  503  501  0.85984655404E-01 -0.33091696583E+02 -0.22312836427E+02  0.39911532738E+02  0.00000000000E+00 0. -1.
         21    1    1    2  504  502  0.13238802551E+03 -0.60786917877E+02 -0.72059085008E+03  0.73516856020E+03  0.00000000000E+00 0.  1.
         21    1    1    2  505  506 -0.50355329612E+02 -0.12539014999E+02  0.59041122032E+02  0.78604963000E+02  0.00000000000E+00 0.  1.
         21    1    1    2  506  504 -0.82118680549E+02  0.10641762946E+03  0.29603861703E+02  0.13763930464E+03  0.00000000000E+00 0.  1.
<scales pt_clust_3="33.09181" pt_clust_4="14000.00000" pt_clust_5="57.00883" pt_clust_6="143.62761"></scales>
<clustering>
<clus scale="   33.092">  1  3  2 -1</clus>
<clus scale="   57.009">  1  5  2 -1</clus>
<clus scale="  143.628">  1  6  2 -1</clus>
<clus scale="   33.092">  1  3  2 -1</clus>
</clustering>
</event>
<event>
 6    0  0.3446372E+002  0.1177915E+03  0.7546771E-02  0.1246785E+00
         21   -1    0    0  505  501  0.00000000000E+00  0.00000000000E+00  0.36250212703E+03  0.36250212703E+03  0.00000000000E+00 0.  1.
         21   -1    0    0  503  502 -0.00000000000E+00 -0.00000000000E+00 -0.18910334324E+03  0.18910334324E+03  0.00000000000E+00 0.  1.
         21    1    1    2  503  506 -0.34904919836E+02  0.29359989561E+02 -0.60710002725E+02  0.75934622186E+02  0.00000000000E+00 0.  1.
         21    1    1    2  504  502  0.77204322023E+02 -0.88806311643E+02  0.27867862729E+03  0.30250429027E+03  0.00000000000E+00 0.  1.
         21    1    1    2  505  504 -0.32093121212E+02 -0.11816713085E+02  0.46095045690E+02  0.57396483990E+02  0.00000000000E+00 0. -1.
         21    1    1    2  506  501 -0.10206280975E+02  0.71263035167E+02 -0.90664886472E+02  0.11577007382E+03  0.00000000000E+00 0.  1.
<scales pt_clust_3="32.58941" pt_clust_4="110.44689" pt_clust_5="34.19946" pt_clust_6="32.58941"></scales>
<clustering>
<clus scale="   32.589">  3  6 -1 -1</clus>
<clus scale="   34.199">  1  5  2 -1</clus>
<clus scale="  110.447">  1  4  2 -1</clus>
<clus scale="   34.199">  1  3  2 -1</clus>
</clustering>
</event>
<event>
 6    0  0.3446372E+002  0.1631460E+03  0.7546771E-02  0.1185190E+00
         21   -1    0    0  502  501  0.00000000000E+00  0.00000000000E+00  0.39156580511E+03  0.39156580511E+03  0.00000000000E+00 0.  1.
         21   -1    0    0  506  502 -0.00000000000E+00 -0.00000000000E+00 -0.42184113350E+03  0.42184113350E+03  0.00000000000E+00 0.  1.
         21    1    1    2  503  501 -0.59862565060E+02 -0.65399986336E+02  0.14168013864E+03  0.16713451646E+03  0.00000000000E+00 0. -1.
         21    1    1    2  504  503 -0.51597467618E+02 -0.45134995703E+02  0.21311227944E+03  0.22386672407E+03  0.00000000000E+00 0.  1.
         21    1    1    2  505  504  0.11270709825E+03  0.74113397987E+02 -0.32848238436E+03  0.35510049647E+03  0.00000000000E+00 0.  1.
         21    1    1    2  506  505 -0.12470655747E+01  0.36421584053E+02 -0.56585362109E+02  0.67305201601E+02  0.00000000000E+00 0. -1.
<scales pt_clust_3="42.85911" pt_clust_4="42.85911" pt_clust_5="155.73576" pt_clust_6="36.44293"></scales>
<clustering>
<clus scale="   36.443">  2  6  1 -1</clus>
<clus scale="   42.859">  3  4 -1 -1</clus>
<clus scale="  155.736">  2  5  1 -1</clus>
<clus scale="  163.146">  1  3  2 -1</clus>
</clustering>
</event>
<event>
 6    0  0.3446372E+002  0.1649038E+03  0.7546771E-02  0.1183269E+00
         21   -1    0    0  505  501  0.00000000000E+00  0.00000000000E+00  0.16862191829E+03  0.16862191829E+03  0.00000000000E+00 0. -1.
         21   -1    0    0  503  502 -0.00000000000E+00 -0.00000000000E+00 -0.54254312646E+03  0.54254312646E+03  0.00000000000E+00 0. -1.
         21    1    1    2  503  504 -0.11882809119E+03  0.47643853265E+02 -0.38907393767E+03  0.40959563106E+03  0.00000000000E+00 0. -1.
         21    1    1    2  504  506 -0.43786569788E+02 -0.23506829289E+01 -0.68256708813E+02  0.81128094407E+02  0.00000000000E+00 0. -1.
         21    1    1    2  505  502  0.11189244514E+03 -0.94695710937E+01 -0.49990596175E+01  0.11240365943E+03  0.00000000000E+00 0. -1.
         21    1    1    2  506  501  0.50722215832E+02 -0.35823599242E+02  0.88408497920E+02  0.10803765985E+03  0.00000000000E+00 0. -1.
<scales pt_clust_3="32.91688" pt_clust_4="32.91688" pt_clust_5="155.01549" pt_clust_6="62.09729"></scales>
<clustering>
<clus scale="   32.917">  3  4 -1 -1</clus>
<clus scale="   62.097">  1  6  2 -1</clus>
<clus scale="  155.015">  1  5  2 -1</clus>
<clus scale="   62.097">  1  3  2 -1</clus>
</clustering>
</event>
<event>
 6    0  0.3446372E+002  0.8496364E+02  0.7546771E-02  0.1315528E+00
         21   -1    0    0  504  501  0.00000000000E+00  0.00000000000E+00  0.64643017184E+03  0.64643017184E+03  0.00000000000E+00 0. -1.
         21   -1    0    0  506  502 -0.00000000000E+00 -0.00000000000E+00 -0.10294289161E+03  0.10294289161E+03  0.00000000000E+00 0. -1.
         21    1    1    2  503  501 -0.58092467697E+02  0.36404632862E+02  0.47352589767E+03  0.47846296394E+03  0.00000000000E+00 0. -1.
         21    1    1    2  504  505  0.34877767524E+02 -0.63604615445E+01  0.88895384719E+02  0.95704250495E+02  0.00000000000E+00 0.  1.
         21    1    1    2  505  502  0.83799908780E+02  0.29875053292E+02 -0.91569928065E+01  0.89435977314E+02  0.00000000000E+00 0. -1.
         21    1    1    2  506  503 -0.60585208607E+02 -0.59919224610E+02 -0.97770093609E+01  0.85769871702E+02  0.00000000000E+00 0. -1.
<scales pt_clust_3="41.81861" pt_clust_4="35.45298" pt_clust_5="14000.00000" pt_clust_6="84.96364"></scales>
<clustering>
<clus scale="   35.453">  1  4  2 -1</clus>
<clus scale="   41.819">  1  3  2 -1</clus>
<clus scale="   84.964">  2  6  1 -1</clus>
<clus scale="   35.453">  1  3  2 -1</clus>
</clustering>
</event>
<event>
 6    0  0.3446372E+002  0.1965701E+03  0.7546771E-02  0.1152666E+00
         21   -1    0    0  503  501  0.00000000000E+00  0.00000000000E+00  0.28275116737E+03  0.28275116737E+03  0.00000000000E+00 0. -1.
         21   -1    0    0  505  502 -0.00000000000E+00 -0.00000000000E+00 -0.41795818488E+03  0.41795818488E+03  0.00000000000E+00 0.  1.
         21    1    1    2  503  504 -0.90257499077E+02 -0.28717039587E+02  0.10568201811E+02  0.95303574916E+02  0.00000000000E+00 0.  1.
         21    1    1    2  504  502 -0.12665227301E+03 -0.13593499230E+03 -0.17158365284E+03  0.25290328253E+03  0.00000000000E+00 0.  1.
         21    1    1    2  505  506  0.56101692189E+02 -0.31877186315E+02 -0.56288022376E+02  0.85626493195E+02  0.00000000000E+00 0. -1.
         21    1    1    2  506  501  0.16080807990E+03  0.19652921820E+03  0.82096455892E+02  0.26687600161E+03  0.00000000000E+00 0. -1.
<scales pt_clust_3="89.55554" pt_clust_4="196.57008" pt_clust_5="64.52561" pt_clust_6="14000.00000"></scales>
<clustering>
<clus scale="   64.526">  2  5  1 -1</clus>
<clus scale="   89.556">  1  3  2 -1</clus>
<clus scale="  196.570">  2  4  1 -1</clus>
<clus scale="   89.556">  1  3  2 -1</clus>
</clustering>
</event>
<event>
 6    0  0.3446372E+002  0.1461291E+03  0.7546771E-02  0.1205312E+00
         21   -1    0    0  506  501  0.00000000000E+00  0.00000000000E+00  0.27008531830E+03  0.27008531830E+03  0.00000000000E+00 0.  1.
         21   -1    0    0  501  502 -0.00000000000E+00 -0.00000000000E+00 -0.27267588928E+03  0.27267588928E+03  0.00000000000E+00 0.  1.
         21    1    1    2  503  505  0.25171998287E+02 -0.13178906316E+03 -0.91461075462E+02  0.16237953994E+03  0.00000000000E+00 0.  1.
         21    1    1    2  504  503 -0.69754373575E+02  0.15233688279E+03  0.79426362984E+02  0.18542045633E+03  0.00000000000E+00 0.  1.
         21    1    1    2  505  502 -0.66286665132E+02 -0.22096453304E+02 -0.31656060375E+02  0.76709069747E+02  0.00000000000E+00 0.  1.
         21    1    1    2  506  504  0.11086904042E+03  0.15486336768E+01  0.41100201873E+02  0.11825214156E+03  0.00000000000E+00 0.  1.
<scales pt_clust_3="146.12912" pt_clust_4="14000.00000" pt_clust_5="69.87256" pt_clust_6="99.19374"></scales>
<clustering>
<clus scale="   69.873">  2  5  1 -1</clus>
<clus scale="   99.194">  1  6  2 -1</clus>
<clus scale="  146.129">  2  3  1 -1</clus>
<clus scale="   99.194">  1  3  2 -1</clus>
</clustering>
</event>
<event>
 6    0  0.3446372E+002  0.1057362E+03  0.7546771E-02  0.1268676E+00
         21   -1    0    0  506  501  0.00000000000E+00  0.00000000000E+00  0.66827655956E+03  0.66827655956E+03  0.00000000000E+00 0.  1.
         21   -1    0    0  503  502 -0.00000000000E+00 -0.00000000000E+00 -0.21466552158E+03  0.21466552158E+03  0.00000000000E+00 0. -1.
         21    1    1    2  503  505 -0.80043926004E+02 -0.47165087725E+02 -0.14654411351E+03  0.17351297587E+03  0.00000000000E+00 0. -1.
         21    1    1    2  504  502  0.13545532711E+02 -0.38238900449E+02 -0.31101335609E+02  0.51117394697E+02  0.00000000000E+00 0. -1.
         21    1    1    2  505  501  0.94576731072E+02  0.51198077430E+02  0.22208948334E+03  0.24675846450E+03  0.00000000000E+00 0.  1.
         21    1    1    2  506  504 -0.28078337779E+02  0.34205910744E+02  0.40916700376E+03  0.41155324606E+03  0.00000000000E+00 0.  1.
<scales pt_clust_3="105.73625" pt_clust_4="40.56717" pt_clust_5="14000.00000" pt_clust_6="43.99207"></scales>
<clustering>
<clus scale="   40.567">  2  4  1 -1</clus>
<clus scale="   43.992">  1  6  2 -1</clus>
<clus scale="  105.736">  2  3  1 -1</clus>
<clus scale="   43.992">  1  3  2 -1</clus>
</clustering>
</event>
<event>
 6    0  0.3446372E+002  0.1120010E+03  0.7546771E-02  0.1256909E+00
         21   -1    0    0  504  501  0.00000000000E+00  0.00000000000E+00  0.16589041528E+02  0.16589041528E+02  0.00000000000E+00 0.  1.
         21   -1    0    0  505  502 -0.00000000000E+00 -0.00000000000E+00 -0.37643522204E+04  0.37643522204E+04  0.00000000000E+00 0. -1.
         21    1    1    2  503  501  0.65597276105E+01  0.43074129743E+02 -0.48485168513E+02  0.65186058672E+02  0.00000000000E+00 0.  1.
         21    1    1    2  504  502  0.29892033705E+02  0.78210477120E+02 -0.14675102816E+04  0.14698968804E+04  0.00000000000E+00 0. -1.
         21    1    1    2  505  506 -0.64245126410E+01  0.32090436412E+02 -0.13467149637E+04  0.13471125654E+04  0.00000000000E+00 0. -1.
         21    1    1    2  506  503 -0.30027248674E+02 -0.15337504327E+03 -0.88505276507E+03  0.89874575744E+03  0.00000000000E+00 0.  1.
<scales pt_clust_3="44.29466" pt_clust_4="112.00102" pt_clust_5="32.72721" pt_clust_6="14000.00000"></scales>
<clustering>
<clus scale="   32.727">  2  5  1 -1</clus>
<clus scale="   44.295">  1  3  2 -1</clus>
<clus scale="  112.001">  2  4  1 -1</clus>
<clus scale="   44.295">  1  3  2 -1</clus>
</clustering>
</event>
<event>
 6    0  0.3446372E+002  0.1296091E+03  0.7546771E-02  0.1228037E+00
         21   -1    0    0  506  501  0.00000000000E+00  0.00000000000E+00  0.57938594128E+02  0.57938594128E+02  0.00000000000E+00 0.  1.
         21   -1    0    0  505  502 -0.00000000000E+00 -0.00000000000E+00 -0.16624694276E+04  0.16624694276E+04  0.00000000000E+00 0.  1.
         21    1    1    2  503  501 -0.11080293738E+03  0.90399363346E+02 -0.61552561137E+02  0.15568575274E+03  0.00000000000E+00 0.  1.
         21    1    1    2  504  503  0.65156411282E+02 -0.71456537419E+02 -0.26503617223E+03  0.28212686377E+03  0.00000000000E+00 0. -1.
         21    1    1    2  505  504 -0.13328402564E+02 -0.30372960599E+02 -0.18129476853E+03  0.18430397757E+03  0.00000000000E+00 0.  1.
         21    1    1    2  506  502  0.58974928659E+02  0.11430134673E+02 -0.10966473315E+04  0.10982914276E+04  0.00000000000E+00 0.  1.
<scales pt_clust_3="129.60906" pt_clust_4="14000.00000" pt_clust_5="33.16871" pt_clust_6="50.32802"></scales>
<clustering>
<clus scale="   33.169">  2  5  1 -1</clus>
<clus scale="   50.328">  2  6  1 -1</clus>
<clus scale="  129.609">  1  3  2 -1</clus>
<clus scale="  129.609">  1  3  2 -1</clus>
</clustering>
</event>
<event>
 6    0  0.3446372E+002  0.1726926E+03  0.7546771E-02  0.1175069E+00
         21   -1    0    0  504  501  0.00000000000E+00  0.00000000000E+00  0.18780024398E+03  0.18780024398E+03  0.00000000000E+00 0.  1.
         21   -1    0    0  505  502 -0.00000000000E+00 -0.00000000000E+00 -0.76532578216E+03  0.76532578216E+03  0.00000000000E+00 0.  1.
         21    1    1    2  503  502  0.38410421189E+02 -0.59822008768E+02 -0.19213329550E+03  0.20486394614E+03  0.00000000000E+00 0.  1.
         21    1    1    2  504  503  0.27233048218E+02 -0.86786315008E+02 -0.52105366256E+03  0.52893328753E+03  0.00000000000E+00 0.  1.
         21    1    1    2  505  506  0.48916231548E+01  0.41274807460E+02  0.14637652452E+02  0.44065843657E+02  0.00000000000E+00 0. -1.
         21    1    1    2  506  501 -0.70535092562E+02  0.10533351632E+03  0.12102376743E+03  0.17526294881E+03  0.00000000000E+00 0.  1.
<scales pt_clust_3="56.05092" pt_clust_4="56.05092" pt_clust_5="35.74977" pt_clust_6="172.34007"></scales>
<clustering>
<clus scale="   35.750">  5  6 -1 -1</clus>
<clus scale="   56.051">  3  4 -1 -1</clus>
<clus scale="  172.340">  1  5  2 -1</clus>
<clus scale="  172.340">  1  3  2 -1</clus>
</clustering>
</event>
<event>
 6    0  0.3446372E+002  0.6931444E+02  0.7546771E-02  0.1362440E+00
         21   -1    0    0  505  501  0.00000000000E+00  0.00000000000E+00  0.15194458528E+03  0.15194458528E+03  0.00000000000E+00 0.  1.
         21   -1    0    0  506  502 -0.00000000000E+00 -0.00000000000E+00 -0.75796554798E+03  0.75796554798E+03  0.00000000000E+00 0. -1.
         21    1    1    2  503  502 -0.37694868149E+02 -0.63122789714E+02 -0.63618208927E+03  0.64041630240E+03  0.00000000000E+00 0. -1.
         21    1    1    2  504  501 -0.10421030587E+02  0.88283775870E+02 -0.16113197534E+01  0.88911300247E+02  0.00000000000E+00 0.  1.
         21    1    1    2  505  503  0.20332930100E+02 -0.61708321856E+02  0.87115969576E+02  0.10867629543E+03  0.00000000000E+00 0.  1.
         21    1    1    2  506  504  0.27782968636E+02  0.36547335701E+02 -0.55343523247E+02  0.71906235185E+02  0.00000000000E+00 0.  1.
<scales pt_clust_3="31.92911" pt_clust_4="69.31444" pt_clust_5="14000.00000" pt_clust_6="45.90862"></scales>
<clustering>
<clus scale="   45.909">  2  6  1 -1</clus>
<clus scale="   31.929">  2  3  1 -1</clus>
<clus scale="   69.314">  2  4  1 -1</clus>
<clus scale="   69.314">  1  3  2 -1</clus>
</clustering>
</event>
<event>
 6    0  0.3446372E+002  0.1643774E+03  0.7546771E-02  0.1183841E+00
         21   -1    0    0  506  501  0.00000000000E+00  0.00000000000E+00  0.18593950242E+04  0.18593950242E+04  0.00000000000E+00 0. -1.
         21   -1    0    0  505  502 -0.00000000000E+00 -0.00000000000E+00 -0.10696654934E+03  0.10696654934E+03  0.00000000000E+00 0. -1.
         21    1    1    2  503  501  0.22101012340E+02 -0.66438938235E+02  0.14421258458E+04  0.14438246231E+04  0.00000000000E+00 0. -1.
         21    1    1    2  504  502 -0.11360682760E+03 -0.70539324813E+02  0.10101207760E+03  0.16758802894E+03  0.00000000000E+00 0. -1.
         21    1    1    2  505  503  0.14884209722E+03  0.13353481983E+03  0.83562706787E+02  0.21672158170E+03  0.00000000000E+00 0. -1.
         21    1    1    2  506  504 -0.57336281956E+02  0.34434432179E+01  0.12572784466E+03  0.13822733975E+03  0.00000000000E+00 0.  1.
<scales pt_clust_3="68.59684" pt_clust_4="164.37744" pt_clust_5="14000.00000" pt_clust_6="57.43959"></scales>
<clustering>
<clus scale="   57.440">  1  6  2 -1</clus>
<clus scale="   68.597">  1  3  2 -1</clus>
<clus scale="  164.377">  2  4  1 -1</clus>
<clus scale="   57.440">  1  3  2 -1</clus>
</clustering>
</event>
<event>
 6    0  0.3446372E+002  0.1323307E+03  0.7546771E-02  0.1224038E+00
         21   -1    0    0  505  501  0.00000000000E+00  0.00000000000E+00  0.13850997607E+04  0.13850997607E+04  0.00000000000E+00 0.  1.
         21   -1    0    0  504  502 -0.00000000000E+00 -0.00000000000E+00 -0.31538117316E+02  0.31538117316E+02  0.00000000000E+00 0. -1.
         21    1    1    2  503  501 -0.10615558080E+03 -0.11157987840E+03  0.70161421219E+03  0.71831857789E+03  0.00000000000E+00 0.  1.
         21    1    1    2  504  506  0.20980147049E+02  0.78887930118E+02  0.12107588147E+03  0.14602342676E+03  0.00000000000E+00 0. -1.
         21    1    1    2  505  502  0.48359188532E+02  0.12888203510E+02  0.49407645393E+03  0.49660473138E+03  0.00000000000E+00 0.  1.
         21    1    1    2  506  503  0.36816245217E+02  0.19803744777E+02  0.36795095758E+02  0.55691141943E+02  0.00000000000E+00 0. -1.
<scales pt_clust_3="121.76350" pt_clust_4="37.08201" pt_clust_5="50.04715" pt_clust_6="37.08201"></scales>
<clustering>
<clus scale="   37.082">  4  6 -1 -1</clus>
<clus scale="   50.047">  1  5  2 -1</clus>
<clus scale="  121.763">  1  3  2 -1</clus>
<clus scale="   50.047">  1  3  2 -1</clus>
</clustering>
</event>
<event>
 6    0  0.3446372E+002  0.8362807E+02  0.7546771E-02  0.1319060E+00
         21   -1    0    0  505  501  0.00000000000E+00  0.00000000000E+00  0.34350399348E+03  0.34350399348E+03  0.00000000000E+00 0. -1.
         21   -1    0    0  506  502 -0.00000000000E+00 -0.00000000000E+00 -0.44144018529E+03  0.44144018529E+03  0.00000000000E+00 0.  1.
         21    1    1    2  503  501  0.65369005518E+02 -0.50379385506E+01  0.11128736254E+03  0.12916410015E+03  0.00000000000E+00 0. -1.
         21    1    1    2  504  502 -0.33664619861E+01 -0.33500343389E+02 -0.28392653266E+03  0.28591586528E+03  0.00000000000E+00 0.  1.
         21    1    1    2  505  504 -0.11599228279E+03 -0.65398227843E+01  0.19704598933E+03  0.22874461931E+03  0.00000000000E+00 0. -1.
         21    1    1    2  506  503  0.53989739262E+02  0.45078104724E+02 -0.12234301103E+03  0.14111959403E+03  0.00000000000E+00 0.  1.
<scales pt_clust_3="14000.00000" pt_clust_4="33.66907" pt_clust_5="83.62807" pt_clust_6="53.87040"></scales>
<clustering>
<clus scale="   33.669">  2  4  1 -1</clus>
<clus scale="   53.870">  2  6  1 -1</clus>
<clus scale="   83.628">  2  5  1 -1</clus>
<clus scale="   83.628">  1  3  2 -1</clus>
</clustering>
</event>
<event>
 6    0  0.3446372E+002  0.9557008E+02  0.7546771E-02  0.1289897E+00
         21   -1    0    0  506  501  0.00000000000E+00  0.00000000000E+00  0.46091341710E+03  0.46091341710E+03  0.00000000000E+00 0. -1.
         21   -1    0    0  503  502 -0.00000000000E+00 -0.00000000000E+00 -0.10320051755E+03  0.10320051755E+03  0.00000000000E+00 0. -1.
         21    1    1    2  503  504  0.33024823994E+02  0.20066460476E+02 -0.47599876069E+02  0.61311092289E+02  0.00000000000E+00 0. -1.
         21    1    1    2  504  501  0.18668886802E+02 -0.10259030624E+03  0.37026561785E+03  0.38466859247E+03  0.00000000000E+00 0. -1.
         21    1    1    2  505  502 -0.41974733197E+02  0.15634178829E+02  0.89385133113E+01  0.45674969018E+02  0.00000000000E+00 0. -1.
         21    1    1    2  506  505 -0.97189775989E+01  0.66889666940E+02  0.26108644448E+02  0.72459280867E+02  0.00000000000E+00 0. -1.
<scales pt_clust_3="38.64326" pt_clust_4="95.57008" pt_clust_5="37.55095" pt_clust_6="14000.00000"></scales>
<clustering>
<clus scale="   38.643">  2  3  1 -1</clus>
<clus scale="   37.551">  2  5  1 -1</clus>
<clus scale="   95.570">  1  4  2 -1</clus>
<clus scale="   95.570">  1  3  2 -1</clus>
</clustering>
</event>
<event>
 6    0  0.3446372E+002  0.2213153E+03  0.7546771E-02  0.1132906E+00
         21   -1    0    0  504  501  0.00000000000E+00  0.00000000000E+00  0.47720318996E+03  0.47720318996E+03  0.00000000000E+00 0.  1.
         21   -1    0    0  501  502 -0.00000000000E+00 -0.00000000000E+00 -0.15847526009E+04  0.15847526009E+04  0.00000000000E+00 0. -1.
         21    1    1    2  503  506  0.71034571889E+02  0.46690200759E+02 -0.75551769456E+03  0.76028473090E+03  0.00000000000E+00 0. -1.
         21    1    1    2  504  505 -0.50562872174E+02 -0.50545880282E+02  0.81580735376E+02  0.10847537251E+03  0.00000000000E+00 0. -1.
         21    1    1    2  505  503 -0.13176783344E+03 -0.39150104915E+02  0.36276197514E+03  0.38793265298E+03  0.00000000000E+00 0.  1.
         21    1    1    2  506  502  0.11129613372E+03  0.43005784437E+02 -0.79637442695E+03  0.80526303452E+03  0.00000000000E+00 0. -1.
<scales pt_clust_3="30.20736" pt_clust_4="63.24529" pt_clust_5="63.24529" pt_clust_6="206.32656"></scales>
<clustering>
<clus scale="   30.207">  3  6 -1 -1</clus>
<clus scale="   63.245">  4  5 -1 -1</clus>
<clus scale="  206.327">  2  3  1 -1</clus>
<clus scale="  221.315">  1  3  2 -1</clus>
</clustering>
</event>
<event>
 6    0  0.3446372E+002  0.1134751E+03  0.7546771E-02  0.1254267E+00
         21   -1    0    0  505  501  0.00000000000E+00  0.00000000000E+00  0.12845678498E+03  0.12845678498E+03  0.00000000000E+00 0. -1.
         21   -1    0    0  506  502 -0.00000000000E+00 -0.00000000000E+00 -0.32705387980E+03  0.32705387980E+03  0.00000000000E+00 0. -1.
         21    1    1    2  503  504 -0.50687732354E+02 -0.37071830725E+02 -0.10632801033E+03  0.12348770232E+03  0.00000000000E+00 0. -1.
         21    1    1    2  504  501  0.18134804795E+02 -0.32943960262E+02  0.32297352002E+02  0.49571106595E+02  0.00000000000E+00 0. -1.
         21    1    1    2  505  502  0.71582471801E+02  0.90751171599E+02  0.31865359203E+02  0.11989673279E+03  0.00000000000E+00 0. -1.
         21    1    1    2  506  503 -0.39029544242E+02 -0.20735380612E+02 -0.15643179570E+03  0.16255512308E+03  0.00000000000E+00 0.  1.
<scales pt_clust_3="31.24232" pt_clust_4="37.60553" pt_clust_5="107.18991" pt_clust_6="31.24232"></scales>
<clustering>
<clus scale="   31.242">  3  6 -1 -1</clus>
<clus scale="   37.606">  1  4  2 -1</clus>
<clus scale="  107.190">  1  5  2 -1</clus>
<clus scale="   37.606">  1  3  2 -1</clus>
</clustering>
</event>
<event>
 6    0  0.3446372E+002  0.1156796E+03  0.7546771E-02  0.1250399E+00
         21   -1    0    0  505  501  0.00000000000E+00  0.00000000000E+00  0.21019400921E+03  0.21019400921E+03  0.00000000000E+00 0. -1.
         21   -1    0    0  503  502 -0.00000000000E+00 -0.00000000000E+00 -0.49814677288E+03  0.49814677288E+03  0.00000000000E+00 0. -1.
         21    1    1    2  503  501 -0.33087735438E+02 -0.62495017738E+02 -0.25157810161E+02  0.75055585339E+02  0.00000000000E+00 0. -1.
         21    1    1    2  504  502  0.66579058485E+02 -0.12907879689E+02 -0.29416472271E+03  0.30188121583E+03  0.00000000000E+00 0. -1.
         21    1    1    2  505  506 -0.75272966179E+02  0.53774850697E+02  0.16531403283E+03  0.18943728106E+03  0.00000000000E+00 0. -1.
         21    1    1    2  506  504  0.41781643133E+02  0.21628046730E+02 -0.13394426363E+03  0.14196669986E+03  0.00000000000E+00 0. -1.
<scales pt_clust_3="70.71369" pt_clust_4="36.35868" pt_clust_5="107.12693" pt_clust_6="36.35868"></scales>
<clustering>
<clus scale="   36.359">  4  6 -1 -1</clus>
<clus scale="   70.714">  1  3  2 -1</clus>
<clus scale="  107.127">  1  5  2 -1</clus>
<clus scale="   70.714">  1  3  2 -1</clus>
</clustering>
</event>
<event>
 6    0  0.3446372E+002  0.9649194E+02  0.7546771E-02  0.1287851E+00
         21   -1    0    0  506  501  0.00000000000E+00  0.00000000000E+00  0.12318058460E+03  0.12318058460E+03  0.00000000000E+00 0. -1.
         21   -1    0    0  505  502 -0.00000000000E+00 -0.00000000000E+00 -0.36603242580E+03  0.36603242580E+03  0.00000000000E+00 0.  1.
         21    1    1    2  503  504 -0.65312231150E+01 -0.75596849623E+02  0.33718776835E+01  0.75953341647E+02  0.00000000000E+00 0. -1.
         21    1    1    2  504  501 -0.30974663039E+02  0.88746230054E+00  0.36763604266E+02  0.48080972727E+02  0.00000000000E+00 0. -1.
         21    1    1    2  505  503 -0.37398837556E+02  0.96097260363E+02 -0.26622395150E+03  0.28549702074E+03  0.00000000000E+00 0.  1.
         21    1    1    2  506  502  0.74904723710E+02 -0.21387873040E+02 -0.16763371651E+02  0.79681675286E+02  0.00000000000E+00 0. -1.
<scales pt_clust_3="96.49194" pt_clust_4="30.98737" pt_clust_5="14000.00000" pt_clust_6="66.26814"></scales>
<clustering>
<clus scale="   30.987">  1  4  2 -1</clus>
<clus scale="   66.268">  1  6  2 -1</clus>
<clus scale="   96.492">  1  3  2 -1</clus>
<clus scale="   30.987">  1  3  2 -1</clus>
</clustering>
</event>
<event>
 6    0  0.3446372E+002  0.7578807E+02  0.7546771E-02  0.1341448E+00
         21   -1    0    0  505  501  0.00000000000E+00  0.00000000000E+00  0.55747133660E+02  0.55747133660E+02  0.00000000000E+00 0. -1.
         21   -1    0    0  503  502 -0.00000000000E+00 -0.00000000000E+00 -0.96777299274E+03  0.96777299274E+03  0.00000000000E+00 0.  1.
         21    1    1    2  503  504  0.45908133024E+02  0.14312890943E+01 -0.13255996232E+03  0.14029165648E+03  0.00000000000E+00 0.  1.
         21    1    1    2  504  501 -0.15497608909E+02 -0.31809168923E+02 -0.14774997405E+02  0.38344486667E+02  0.00000000000E+00 0. -1.
         21    1    1    2  505  506  0.38671510643E+02  0.96792191142E+02 -0.36534705540E+02  0.11044907745E+03  0.00000000000E+00 0. -1.
         21    1    1    2  506  502 -0.69082034758E+02 -0.66414311313E+02 -0.72815619381E+03  0.73443490580E+03  0.00000000000E+00 0.  1.
<scales pt_clust_3="44.56628" pt_clust_4="35.38360" pt_clust_5="75.78807" pt_clust_6="14000.00000"></scales>
<clustering>
<clus scale="   35.384">  1  4  2 -1</clus>
<clus scale="   44.566">  2  3  1 -1</clus>
<clus scale="   75.788">  1  5  2 -1</clus>
<clus scale="   35.384">  1  3  2 -1</clus>
</clustering>
</event>
<event>
 6    0  0.3446372E+002  0.6230668E+03  0.7546771E-02  0.9858673E-01
         21   -1    0    0  505  501  0.00000000000E+00  0.00000000000E+00  0.38805938642E+03  0.38805938642E+03  0.00000000000E+00 0.  1.
         21   -1    0    0  504  502 -0.00000000000E+00 -0.00000000000E+00 -0.21649450579E+04  0.21649450579E+04  0.00000000000E+00 0.  1.
         21    1    1    2  503  502  0.57608425751E+03  0.24548498164E+03 -0.53972397290E+02  0.62852920985E+03  0.00000000000E+00 0.  1.
         21    1    1    2  504  506 -0.41640466117E+03 -0.22761617712E+03 -0.14335659222E+04  0.15100706007E+04  0.00000000000E+00 0.  1.
         21    1    1    2  505  503 -0.26480058028E+02  0.35399743110E+02  0.37173458989E+02  0.57759859233E+02  0.00000000000E+00 0.  1.
         21    1    1    2  506  501 -0.13319953832E+03 -0.53268547630E+02 -0.32652081103E+03  0.35664477455E+03  0.00000000000E+00 0. -1.
<scales pt_clust_3="618.42722" pt_clust_4="41.72794" pt_clust_5="44.20786" pt_clust_6="41.72794"></scales>
<clustering>
<clus scale="   41.728">  4  6 -1 -1</clus>
<clus scale="   44.208">  1  5  2 -1</clus>
<clus scale="  618.427">  1  3  2 -1</clus>
<clus scale="   44.208">  1  3  2 -1</clus>
</clustering>
</event>
<event>
 6    0  0.3446372E+002  0.8833031E+02  0.7546771E-02  0.1306946E+00
         21   -1    0    0  504  501  0.00000000000E+00  0.00000000000E+00  0.67696736635E+02  0.67696736635E+02  0.00000000000E+00 0. -1.
         21   -1    0    0  503  502 -0.00000000000E+00 -0.00000000000E+00 -0.10568986191E+04  0.10568986191E+04  0.00000000000E+00 0. -1.
         21    1    1    2  503  505  0.54896795386E+02  0.70036862221E+02 -0.44948104281E+03  0.45820522483E+03  0.00000000000E+00 0. -1.
         21    1    1    2  504  506  0.38792042671E+02  0.10796341242E+02 -0.69640817461E+02  0.80443937095E+02  0.00000000000E+00 0. -1.
         21    1    1    2  505  501 -0.67282897761E+02 -0.57345213406E+02  0.23202581578E+02  0.91399243014E+02  0.00000000000E+00 0. -1.
         21    1    1    2  506  502 -0.26405940297E+02 -0.23487990057E+02 -0.49328260381E+03  0.49454695084E+03  0.00000000000E+00 0. -1.
<scales pt_clust_3="14000.00000" pt_clust_4="36.09563" pt_clust_5="88.33031" pt_clust_6="35.34062"></scales>
<clustering>
<clus scale="   35.341">  2  6  1 -1</clus>
<clus scale="   36.096">  2  4  1 -1</clus>
<clus scale="   88.330">  1  5  2 -1</clus>
<clus scale="   88.330">  1  3  2 -1</clus>
</clustering>
</event>
<event>
 6    0  0.3446372E+002  0.2305261E+03  0.7546771E-02  0.1126270E+00
         21   -1    0    0  506  501  0.00000000000E+00  0.00000000000E+00  0.93191425305E+03  0.93191425305E+03  0.00000000000E+00 0.  1.
         21   -1    0    0  505  502 -0.00000000000E+00 -0.00000000000E+00 -0.34489646094E+03  0.34489646094E+03  0.00000000000E+00 0.  1.
         21    1    1    2  503  502 -0.64338386003E+02 -0.11892070164E+03 -0.12109766779E+03  0.18151089867E+03  0.00000000000E+00 0.  1.
         21    1    1    2  504  503 -0.23596619855E+02 -0.11382573174E+03 -0.11688591452E+03  0.16484967300E+03  0.00000000000E+00 0.  1.
         21    1    1    2  505  501  0.77994771737E+02  0.60588991185E+01  0.36305475544E+01  0.78313955030E+02  0.00000000000E+00 0. -1.
         21    1    1    2  506  504  0.99402341200E+01  0.22668753426E+03  0.82137082687E+03  0.85213618728E+03  0.00000000000E+00 0.  1.
<scales pt_clust_3="35.01419" pt_clust_4="35.01419" pt_clust_5="78.22976" pt_clust_6="227.41218"></scales>
<clustering>
<clus scale="   35.014">  3  4 -1 -1</clus>
<clus scale="   78.230">  2  5  1 -1</clus>
<clus scale="  227.412">  1  6  2 -1</clus>
<clus scale="  227.412">  1  3  2 -1</clus>
</clustering>
</event>
<event>
 6    0  0.3446372E+002  0.1102675E+03  0.7546771E-02  0.1260075E+00
         21   -1    0    0  505  501  0.00000000000E+00  0.00000000000E+00  0.32797214712E+03  0.32797214712E+03  0.00000000000E+00 0. -1.
         21   -1    0    0  506  502 -0.00000000000E+00 -0.00000000000E+00 -0.47567679502E+03  0.47567679502E+03  0.00000000000E+00 0. -1.
         21    1    1    2  503  501 -0.59777358203E+01  0.10279983891E+03  0.55112101284E+00  0.10297496754E+03  0.00000000000E+00 0. -1.
         21    1    1    2  504  503  0.12522477045E+02  0.42381918018E+02 -0.90182199919E+02  0.10042842520E+03  0.00000000000E+00 0. -1.
         21    1    1    2  505  502 -0.19208121925E+02 -0.19634041491E+03  0.23250776718E+03  0.30492355152E+03  0.00000000000E+00 0. -1.
         21    1    1    2  506  504  0.12663380701E+02  0.51158657983E+02 -0.29058133617E+03  0.29532199787E+03  0.00000000000E+00 0. -1.
<scales pt_clust_3="102.97349" pt_clust_4="43.46872" pt_clust_5="99.52666" pt_clust_6="43.46872"></scales>
<clustering>
<clus scale="   43.469">  4  6 -1 -1</clus>
<clus scale="  102.973">  1  3  2 -1</clus>
<clus scale="   99.527">  1  5  2 -1</clus>
<clus scale="  102.973">  1  3  2 -1</clus>
</clustering>
</event>
<event>
 6    0  0.3446372E+002  0.8906963E+02  0.7546771E-02  0.1305120E+00
         21   -1    0    0  506  501  0.00000000000E+00  0.00000000000E+00  0.25646553765E+03  0.25646553765E+03  0.00000000000E+00 0. -1.
         21   -1    0    0  503  502 -0.00000000000E+00 -0.00000000000E+00 -0.36279274883E+03  0.36279274883E+03  0.00000000000E+00 0. -1.
         21    1    1    2  503  504 -0.65802023698E+02  0.40779584857E+02 -0.46152755091E+02  0.90127452346E+02  0.00000000000E+00 0. -1.
         21    1    1    2  504  501  0.32483836470E+02  0.54690354509E+01  0.17320376210E+03  0.17630840362E+03  0.00000000000E+00 0. -1.
         21    1    1    2  505  502  0.36397795002E+02 -0.91145697601E+02 -0.27471258693E+03  0.29171791699E+03  0.00000000000E+00 0. -1.
         21    1    1    2  506  505 -0.30796077743E+01  0.44897077293E+02  0.41334368753E+02  0.61104513530E+02  0.00000000000E+00 0. -1.
<scales pt_clust_3="89.06963" pt_clust_4="32.94101" pt_clust_5="14000.00000" pt_clust_6="51.32284"></scales>
<clustering>
<clus scale="   32.941">  1  4  2 -1</clus>
<clus scale="   51.323">  1  6  2 -1</clus>
<clus scale="   89.070">  1  3  2 -1</clus>
<clus scale="   32.941">  1  3  2 -1</clus>
</clustering>
</event>
<event>
 6    0  0.3446372E+002  0.1031736E+03  0.7546771E-02  0.1273760E+00
         21   -1    0    0  504  501  0.00000000000E+00  0.00000000000E+00  0.14126713167E+03  0.14126713167E+03  0.00000000000E+00 0.  1.
         21   -1    0    0  505  502 -0.00000000000E+00 -0.00000000000E+00 -0.70796482600E+03  0.70796482600E+03  0.00000000000E+00 0.  1.
         21    1    1    2  503  506  0.31394089825E+02 -0.11389036259E+03 -0.24907865744E+02  0.12073526967E+03  0.00000000000E+00 0.  1.
         21    1    1    2  504  502  0.33252182075E+02 -0.20660967549E+02 -0.44113429159E+03  0.44286797853E+03  0.00000000000E+00 0.  1.
         21    1    1    2  505  503  0.37503967080E+01  0.60498547034E+02 -0.15829750063E+03  0.16950586531E+03  0.00000000000E+00 0.  1.
         21    1    1    2  506  501 -0.68396668607E+02  0.74052783102E+02  0.57641963637E+02  0.11612284415E+03  0.00000000000E+00 0.  1.
<scales pt_clust_3="14000.00000" pt_clust_4="39.14822" pt_clust_5="53.56573" pt_clust_6="103.17356"></scales>
<clustering>
<clus scale="   39.148">  2  4  1 -1</clus>
<clus scale="   53.566">  2  5  1 -1</clus>
<clus scale="  103.174">  1  6  2 -1</clus>
<clus scale="  103.174">  1  3  2 -1</clus>
</clustering>
</event>
<event>
 6    0  0.3446372E+002  0.1726892E+03  0.7546771E-02  0.1175072E+00
         21   -1    0    0  506  501  0.00000000000E+00  0.00000000000E+00  0.34117159440E+03  0.34117159440E+03  0.00000000000E+00 0. -1.
         21   -1    0    0  504  502 -0.00000000000E+00 -0.00000000000E+00 -0.24617406815E+03  0.24617406815E+03  0.00000000000E+00 0. -1.
         21    1    1    2  503  502  0.30153772741E+02  0.53712042502E+02 -0.11138499129E+03  0.12728255892E+03  0.00000000000E+00 0. -1.
         21    1    1    2  504  505 -0.13917919405E+02 -0.17298821411E+03  0.87348751769E+02  0.19428956518E+03  0.00000000000E+00 0. -1.
         21    1    1    2  505  501 -0.37475197420E+02  0.30273826573E+02  0.15884250081E+03  0.16598745453E+03  0.00000000000E+00 0. -1.
         21    1    1    2  506  503  0.21239344084E+02  0.89002345038E+02 -0.39808735036E+02  0.99786083923E+02  0.00000000000E+00 0. -1.
<scales pt_clust_3="60.86080" pt_clust_4="155.33696" pt_clust_5="48.17567" pt_clust_6="60.86080"></scales>
<clustering>
<clus scale="   48.176">  1  5  2 -1</clus>
<clus scale="   60.861">  3  6 -1 -1</clus>
<clus scale="  155.337">  1  4  2 -1</clus>
<clus scale="   48.176">  1  3  2 -1</clus>
</clustering>
</event>
<event>
 6    0  0.3446372E+002  0.1737183E+03  0.7546771E-02  0.1174025E+00
         21   -1    0    0  505  501  0.00000000000E+00  0.00000000000E+00  0.50356011234E+03  0.50356011234E+03  0.00000000000E+00 0. -1.
         21   -1    0    0  503  502 -0.00000000000E+00 -0.00000000000E+00 -0.20675360379E+03  0.20675360379E+03  0.00000000000E+00 0. -1.
         21    1    1    2  503  504 -0.17976330087E+03 -0.23783594077E+02 -0.76880522776E+02  0.19695461017E+03  0.00000000000E+00 0. -1.
         21    1    1    2  504  501  0.28723450821E+02  0.37358155081E+02  0.27062530111E+03  0.27469750996E+03  0.00000000000E+00 0. -1.
         21    1    1    2  505  506  0.15375615829E+03 -0.44257059416E+02  0.12313501485E+03  0.20189570427E+03  0.00000000000E+00 0. -1.
         21    1    1    2  506  502 -0.27163082406E+01  0.30682498411E+02 -0.20073284622E+02  0.36765891730E+02  0.00000000000E+00 0. -1.
<scales pt_clust_3="14000.00000" pt_clust_4="47.38338" pt_clust_5="173.71830" pt_clust_6="30.80250"></scales>
<clustering>
<clus scale="   30.803">  2  6  1 -1</clus>
<clus scale="   47.383">  1  4  2 -1</clus>
<clus scale="  173.718">  1  5  2 -1</clus>
<clus scale="   47.383">  1  3  2 -1</clus>
</clustering>
</event>
<event>
 6    0  0.3446372E+002  0.3954066E+03  0.7546771E-02  0.1045382E+00
         21   -1    0    0  503  501  0.00000000000E+00  0.00000000000E+00  0.91210979881E+03  0.91210979881E+03  0.00000000000E+00 0.  1.
         21   -1    0    0  506  502 -0.00000000000E+00 -0.00000000000E+00 -0.76203481893E+03  0.76203481893E+03  0.00000000000E+00 0.  1.
         21    1    1    2  503  502 -0.38115578646E+03 -0.94170836738E+02  0.78841316575E+03  0.88076285115E+03  0.00000000000E+00 0.  1.
         21    1    1    2  504  505  0.15635492279E+03 -0.37483033772E+02 -0.22526968127E+03  0.27676392287E+03  0.00000000000E+00 0.  1.
         21    1    1    2  505  501  0.19762984620E+03  0.28749307175E+02 -0.22773556201E+03  0.30289860511E+03  0.00000000000E+00 0.  1.
         21    1    1    2  506  504  0.27171017476E+02  0.10290456333E+03 -0.18533294258E+03  0.21371923861E+03  0.00000000000E+00 0.  1.
<scales pt_clust_3="388.50096" pt_clust_4="66.01735" pt_clust_5="66.01735" pt_clust_6="106.43126"></scales>
<clustering>
<clus scale="   66.017">  4  5 -1 -1</clus>
<clus scale="  106.431">  2  6  1 -1</clus>
<clus scale="  388.501">  1  3  2 -1</clus>
<clus scale="  388.501">  1  3  2 -1</clus>
</clustering>
</event>
<event>
 6    0  0.3446372E+002  0.1056446E+03  0.7546771E-02  0.1268855E+00
         21   -1    0    0  504  501  0.00000000000E+00  0.00000000000E+00  0.10292696273E+04  0.10292696273E+04  0.00000000000E+00 0. -1.
         21   -1    0    0  506  502 -0.00000000000E+00 -0.00000000000E+00 -0.34189419233E+02  0.34189419233E+02  0.00000000000E+00 0.  1.
         21    1    1    2  503  501  0.27456475437E+02 -0.27841567862E+02  0.12410716132E+03  0.13012147569E+03  0.00000000000E+00 0.  1.
         21    1    1    2  504  505 -0.13270742818E+03 -0.26026241594E+02  0.71453278651E+03  0.72721780076E+03  0.00000000000E+00 0. -1.
         21    1    1    2  505  502  0.64356991209E+02  0.13489819107E+02  0.41899433291E+02  0.77970251039E+02  0.00000000000E+00 0.  1.
         21    1    1    2  506  503  0.40893961537E+02  0.40377990348E+02  0.11454082699E+03  0.12814951909E+03  0.00000000000E+00 0.  1.
<scales pt_clust_3="39.10257" pt_clust_4="14000.00000" pt_clust_5="105.64462" pt_clust_6="57.70606"></scales>
<clustering>
<clus scale="   39.103">  1  3  2 -1</clus>
<clus scale="   57.706">  2  6  1 -1</clus>
<clus scale="  105.645">  2  5  1 -1</clus>
<clus scale="   39.103">  1  3  2 -1</clus>
</clustering>
</event>
<event>
 6    0  0.3446372E+002  0.1009590E+03  0.7546771E-02  0.1278292E+00
         21   -1    0    0  506  501  0.00000000000E+00  0.00000000000E+00  0.40324748675E+03  0.40324748675E+03  0.00000000000E+00 0.  1.
         21   -1    0    0  505  502 -0.00000000000E+00 -0.00000000000E+00 -0.87894379665E+02  0.87894379665E+02  0.00000000000E+00 0.  1.
         21    1    1    2  503  504 -0.10879902745E+03 -0.44907322514E+02  0.22412040412E+03  0.25314788471E+03  0.00000000000E+00 0.  1.
         21    1    1    2  504  502  0.70039273910E+02 -0.37967800755E+02 -0.12321677472E+01  0.79677926814E+02  0.00000000000E+00 0.  1.
         21    1    1    2  505  501  0.47998912160E+02  0.43942052312E+02  0.89211482821E+01  0.65683989043E+02  0.00000000000E+00 0.  1.
         21    1    1    2  506  503 -0.92391586215E+01  0.38933070958E+02  0.83543722427E+02  0.92632065848E+02  0.00000000000E+00 0.  1.
<scales pt_clust_3="100.95902" pt_clust_4="14000.00000" pt_clust_5="67.50730" pt_clust_6="40.01432"></scales>
<clustering>
<clus scale="   40.014">  1  6  2 -1</clus>
<clus scale="   67.507">  2  5  1 -1</clus>
<clus scale="  100.959">  1  3  2 -1</clus>
<clus scale="   40.014">  1  3  2 -1</clus>
</clustering>
</event>
<event>
 6    0  0.7238241E+002  0.1414290E+03  0.7546771E-02  0.1211419E+00
         21   -1    0    0  502  501  0.00000000000E+00  0.00000000000E+00  0.14064886625E+04  0.14064886625E+04  0.00000000000E+00 0. -1.
         21   -1    0    0  504  502 -0.00000000000E+00 -0.00000000000E+00 -0.28038846501E+03  0.28038846501E+03  0.00000000000E+00 0. -1.
         21    1    1    2  503  505  0.48850443055E+02  0.31386344686E+02  0.45681520977E+02  0.73880104075E+02  0.00000000000E+00 0. -1.
         21    1    1    2  504  503 -0.86798346480E+02 -0.10829750349E+03 -0.22998288306E+03  0.26861576409E+03  0.00000000000E+00 0. -1.
         21    1    1    2  505  506  0.14477457414E+02  0.57404732653E+02  0.35326434890E+02  0.68940968271E+02  0.00000000000E+00 0. -1.
         21    1    1    2  506  501  0.23470446011E+02  0.19506426152E+02  0.12750751246E+04  0.12754402910E+04  0.00000000000E+00 0. -1.
<scales pt_clust_3="43.28172" pt_clust_4="134.39070" pt_clust_5="43.28172" pt_clust_6="30.51823"></scales>
<clustering>
<clus scale="   30.518">  1  6  2 -1</clus>
<clus scale="   43.282">  3  5 -1 -1</clus>
<clus scale="  134.391">  2  4  1 -1</clus>
<clus scale="   30.518">  1  3  2 -1</clus>
</clustering>
</event>
<event>
 6    0  0.3446372E+002  0.1338614E+03  0.7546771E-02  0.1221836E+00
         21   -1    0    0  504  501  0.00000000000E+00  0.00000000000E+00  0.25510465584E+03  0.25510465584E+03  0.00000000000E+00 0. -1.
         21   -1    0    0  506  502 -0.00000000000E+00 -0.00000000000E+00 -0.74800962049E+03  0.74800962049E+03  0.00000000000E+00 0. -1.
         21    1    1    2  503  502 -0.31412521002E+02 -0.27298431069E+02 -0.24084827663E+03  0.24441735448E+03  0.00000000000E+00 0. -1.
         21    1    1    2  504  505  0.91883217469E+02  0.99794800745E+02  0.18833559218E+03  0.23210304433E+03  0.00000000000E+00 0. -1.
         21    1    1    2  505  503 -0.11138344341E+03  0.72072426824E+02 -0.24095442160E+03  0.27506315541E+03  0.00000000000E+00 0. -1.
         21    1    1    2  506  501  0.50912746941E+02 -0.14456879650E+03 -0.19943785860E+03  0.25153072211E+03  0.00000000000E+00 0. -1.
<scales pt_clust_3="41.61671" pt_clust_4="133.86143" pt_clust_5="133.63972" pt_clust_6="14000.00000"></scales>
<clustering>
<clus scale="   41.617">  2  3  1 -1</clus>
<clus scale="  133.861">  1  4  2 -1</clus>
<clus scale="  133.640">  2  5  1 -1</clus>
<clus scale="  133.861">  1  3  2 -1</clus>
</clustering>
</event>
<event>
 6    0  0.3446372E+002  0.2676707E+03  0.7546771E-02  0.1102620E+00
         21   -1    0    0  505  501  0.00000000000E+00  0.00000000000E+00  0.92742453356E+03  0.92742453356E+03  0.00000000000E+00 0.  1.
         21   -1    0    0  504  502 -0.00000000000E+00 -0.00000000000E+00 -0.13046136042E+04  0.13046136042E+04  0.00000000000E+00 0. -1.
         21    1    1    2  503  502 -0.61780517014E+02  0.12349094333E+02 -0.53681912975E+03  0.54050357120E+03  0.00000000000E+00 0. -1.
         21    1    1    2  504  506  0.33061895958E+03 -0.20052550149E+03 -0.31204200565E+03  0.49687985114E+03  0.00000000000E+00 0.  1.
         21    1    1    2  505  503 -0.55310741715E+02  0.36960892324E+02 -0.33762306854E+03  0.34411440266E+03  0.00000000000E+00 0. -1.
         21    1    1    2  506  501 -0.21352770085E+03  0.15121551484E+03  0.80929513327E+03  0.85054031279E+03  0.00000000000E+00 0.  1.
<scales pt_clust_3="40.80342" pt_clust_4="14000.00000" pt_clust_5="133.79014" pt_clust_6="267.67072"></scales>
<clustering>
<clus scale="   40.803">  3  5 -1 -1</clus>
<clus scale="  133.790">  2  3  1 -1</clus>
<clus scale="  267.671">  1  6  2 -1</clus>
<clus scale="  267.671">  1  3  2 -1</clus>
</clustering>
</event>
<event>
 6    0  0.3446372E+002  0.1044768E+03  0.7546771E-02  0.1271154E+00
         21   -1    0    0  504  501  0.00000000000E+00  0.00000000000E+00  0.31584555460E+03  0.31584555460E+03  0.00000000000E+00 0.  1.
         21   -1    0    0  506  502 -0.00000000000E+00 -0.00000000000E+00 -0.72288302385E+03  0.72288302385E+03  0.00000000000E+00 0. -1.
         21    1    1    2  503  505 -0.72179305064E+02 -0.32079226329E+02 -0.27462195599E+02  0.83624763249E+02  0.00000000000E+00 0.  1.
         21    1    1    2  504  502  0.52640080091E+02  0.15844120034E+02  0.74635066960E+01  0.55477185436E+02  0.00000000000E+00 0. -1.
         21    1    1    2  505  501 -0.38013610155E+02 -0.78770160302E+02  0.24383596231E+03  0.25904777402E+03  0.00000000000E+00 0.  1.
         21    1    1    2  506  503  0.57552835128E+02  0.95005266596E+02 -0.63087474265E+03  0.64057885574E+03  0.00000000000E+00 0. -1.
<scales pt_clust_3="14000.00000" pt_clust_4="54.97285" pt_clust_5="65.32032" pt_clust_6="104.47680"></scales>
<clustering>
<clus scale="   54.973">  1  4  2 -1</clus>
<clus scale="   65.320">  1  5  2 -1</clus>
<clus scale="  104.477">  2  6  1 -1</clus>
<clus scale="   54.973">  1  3  2 -1</clus>
</clustering>
</event>
<event>
 6    0  0.3446372E+002  0.1674003E+03  0.7546771E-02  0.1180586E+00
         21   -1    0    0  504  501  0.00000000000E+00  0.00000000000E+00  0.19672858584E+04  0.19672858584E+04  0.00000000000E+00 0.  1.
         21   -1    0    0  505  502 -0.00000000000E+00 -0.00000000000E+00 -0.11449108056E+03  0.11449108056E+03  0.00000000000E+00 0.  1.
         21    1    1    2  503  501  0.12724584596E+03 -0.61488359808E+02  0.13281625419E+04  0.13356601594E+04  0.00000000000E+00 0.  1.
         21    1    1    2  504  506 -0.86903863791E+01 -0.64213354240E+02  0.49011666099E+03  0.49438165323E+03  0.00000000000E+00 0.  1.
         21    1    1    2  505  503  0.12532388831E+02  0.45525946151E+02  0.78759437411E+02  0.91829850942E+02  0.00000000000E+00 0.  1.
         21    1    1    2  506  502 -0.13108784841E+03  0.80175767898E+02 -0.44243862378E+02  0.15990527545E+03  0.00000000000E+00 0.  1.
<scales pt_clust_3="167.40027" pt_clust_4="63.87450" pt_clust_5="47.21941" pt_clust_6="14000.00000"></scales>
<clustering>
<clus scale="   47.219">  2  5  1 -1</clus>
<clus scale="   63.875">  1  4  2 -1</clus>
<clus scale="  167.400">  1  3  2 -1</clus>
<clus scale="   63.875">  1  3  2 -1</clus>
</clustering>
</event>
<event>
 6    0  0.3446372E+002  0.1600343E+03  0.7546771E-02  0.1188658E+00
         21   -1    0    0  506  501  0.00000000000E+00  0.00000000000E+00  0.46788587307E+03  0.46788587307E+03  0.00000000000E+00 0. -1.
         21   -1    0    0  505  502 -0.00000000000E+00 -0.00000000000E+00 -0.13129821326E+03  0.13129821326E+03  0.00000000000E+00 0. -1.
         21    1    1    2  503  502  0.10406288011E+03  0.66022719045E+01 -0.46393347814E+02  0.11412719103E+03  0.00000000000E+00 0. -1.
         21    1    1    2  504  503  0.37636372717E+02 -0.42914037308E+00  0.19657970318E+02  0.42463119407E+02  0.00000000000E+00 0. -1.
         21    1    1    2  505  501  0.23900104170E+02 -0.20033651326E+02  0.22278167234E+03  0.22495385237E+03  0.00000000000E+00 0. -1.
         21    1    1    2  506  504 -0.16559935700E+03  0.13860519794E+02  0.14054136496E+03  0.21763992353E+03  0.00000000000E+00 0. -1.
<scales pt_clust_3="37.42110" pt_clust_4="37.42110" pt_clust_5="31.18593" pt_clust_6="148.06090"></scales>
<clustering>
<clus scale="   31.186">  1  5  2 -1</clus>
<clus scale="   37.421">  3  4 -1 -1</clus>
<clus scale="  148.061">  1  6  2 -1</clus>
<clus scale="   31.186">  1  3  2 -1</clus>
</clustering>
</event>
<event>
 6    0  0.3446372E+002  0.2945834E+03  0.7546771E-02  0.1087980E+00
         21   -1    0    0  504  501  0.00000000000E+00  0.00000000000E+00  0.25696289072E+03  0.25696289072E+03  0.00000000000E+00 0.  1.
         21   -1    0    0  505  502 -0.00000000000E+00 -0.00000000000E+00 -0.41112107517E+03  0.41112107517E+03  0.00000000000E+00 0.  1.
         21    1    1    2  503  501 -0.17130049781E+03  0.37597714968E+02  0.92491040681E+02  0.19827264392E+03  0.00000000000E+00 0.  1.
         21    1    1    2  504  506  0.11274080170E+03  0.94064256040E+01 -0.35377557692E+02  0.11853497711E+03  0.00000000000E+00 0.  1.
         21    1    1    2  505  503 -0.95458491925E+02  0.15366756439E+02 -0.21523706165E+02  0.99054181189E+02  0.00000000000E+00 0.  1.
         21    1    1    2  506  502  0.15401818803E+03 -0.62370897012E+02 -0.18974796128E+03  0.25222216367E+03  0.00000000000E+00 0.  1.
<scales pt_clust_3="288.73323" pt_clust_4="93.40254" pt_clust_5="71.99313" pt_clust_6="93.40254"></scales>
<clustering>
<clus scale="   71.993">  3  5 -1 -1</clus>
<clus scale="   93.403">  4  6 -1 -1</clus>
<clus scale="  288.733">  1  3  2 -1</clus>
<clus scale="  288.733">  1  3  2 -1</clus>
</clustering>
</event>
<event>
 6    0  0.3446372E+002  0.1748548E+03  0.7546771E-02  0.1172878E+00
         21   -1    0    0  506  501  0.00000000000E+00  0.00000000000E+00  0.24132043515E+03  0.24132043515E+03  0.00000000000E+00 0.  1.
         21   -1    0    0  503  502 -0.00000000000E+00 -0.00000000000E+00 -0.54169331860E+03  0.54169331860E+03  0.00000000000E+00 0.  1.
         21    1    1    2  503  504 -0.26481804489E+02 -0.51565758591E+02 -0.26604616196E+02  0.63781807994E+02  0.00000000000E+00 0.  1.
         21    1    1    2  504  501  0.53010949179E+02  0.35581366504E+02 -0.24271560409E+02  0.68303023505E+02  0.00000000000E+00 0.  1.
         21    1    1    2  505  502  0.14426794058E+03 -0.32885264981E+02 -0.39467580358E+03  0.42150168358E+03  0.00000000000E+00 0.  1.
         21    1    1    2  506  505 -0.17079708527E+03  0.48869657068E+02  0.14517909673E+03  0.22942723867E+03  0.00000000000E+00 0.  1.
<scales pt_clust_3="57.96821" pt_clust_4="59.17388" pt_clust_5="174.85481" pt_clust_6="14000.00000"></scales>
<clustering>
<clus scale="   57.968">  2  3  1 -1</clus>
<clus scale="   59.174">  2  4  1 -1</clus>
<clus scale="  174.855">  2  5  1 -1</clus>
<clus scale="  174.855">  1  3  2 -1</clus>
</clustering>
</event>
<event>
 6    0  0.3446372E+002  0.7871619E+02  0.7546771E-02  0.1332735E+00
         21   -1    0    0  505  501  0.00000000000E+00  0.00000000000E+00  0.12036372453E+03  0.12036372453E+03  0.00000000000E+00 0.  1.
         21   -1    0    0  506  502 -0.00000000000E+00 -0.00000000000E+00 -0.39411335804E+03  0.39411335804E+03  0.00000000000E+00 0.  1.
         21    1    1    2  503  502  0.38941910090E+02  0.47399090259E+02 -0.36239884333E+02  0.71249388315E+02  0.00000000000E+00 0.  1.
         21    1    1    2  504  501  0.34971874219E+02  0.12295704613E+02  0.59747344062E+02  0.70313309272E+02  0.00000000000E+00 0.  1.
         21    1    1    2  505  503 -0.39821129701E+02 -0.96570036380E+02 -0.41707196739E+02  0.11247659560E+03  0.00000000000E+00 0.  1.
         21    1    1    2  506  504 -0.34092654608E+02  0.36875241507E+02 -0.25554989651E+03  0.26043778939E+03  0.00000000000E+00 0.  1.
<scales pt_clust_3="78.71619" pt_clust_4="37.07042" pt_clust_5="14000.00000" pt_clust_6="49.59339"></scales>
<clustering>
<clus scale="   37.070">  1  4  2 -1</clus>
<clus scale="   49.593">  2  6  1 -1</clus>
<clus scale="   78.716">  2  3  1 -1</clus>
<clus scale="   37.070">  1  3  2 -1</clus>
</clustering>
</event>
<event>
 6    0  0.3446372E+002  0.1102662E+03  0.7546771E-02  0.1260078E+00
         21   -1    0    0  504  501  0.00000000000E+00  0.00000000000E+00  0.14396575186E+03  0.14396575186E+03  0.00000000000E+00 0.  1.
         21   -1    0    0  503  502 -0.00000000000E+00 -0.00000000000E+00 -0.15255466976E+04  0.15255466976E+04  0.00000000000E+00 0. -1.
         21    1    1    2  503  501 -0.29206592481E+02 -0.21447126978E+02 -0.14675377023E+03  0.15116108420E+03  0.00000000000E+00 0. -1.
         21    1    1    2  504  505  0.41604604621E+02 -0.42337412713E+02  0.42772961441E+02  0.73163692302E+02  0.00000000000E+00 0.  1.
         21    1    1    2  505  506 -0.92955517145E+02 -0.54916011316E+02  0.43443383814E+02  0.11637793633E+03  0.00000000000E+00 0. -1.
         21    1    1    2  506  502  0.80557505004E+02  0.11870055101E+03 -0.13210435208E+04  0.13288097367E+04  0.00000000000E+00 0. -1.
<scales pt_clust_3="36.23540" pt_clust_4="59.30244" pt_clust_5="14000.00000" pt_clust_6="110.26618"></scales>
<clustering>
<clus scale="   36.235">  2  3  1 -1</clus>
<clus scale="   59.302">  1  4  2 -1</clus>
<clus scale="  110.266">  2  6  1 -1</clus>
<clus scale="   59.302">  1  3  2 -1</clus>
</clustering>
</event>
<event>
 6    0  0.3446372E+002  0.1545043E+03  0.7546771E-02  0.1195045E+00
         21   -1    0    0  506  501  0.00000000000E+00  0.00000000000E+00  0.36926808892E+03  0.36926808892E+03  0.00000000000E+00 0.  1.
         21   -1    0    0  503  502 -0.00000000000E+00 -0.00000000000E+00 -0.14868069192E+04  0.14868069192E+04  0.00000000000E+00 0.  1.
         21    1    1    2  503  505  0.12781461581E+03  0.92311372315E+02 -0.14270329407E+04  0.14357161903E+04  0.00000000000E+00 0.  1.
         21    1    1    2  504  501 -0.55535590080E+02 -0.18827604541E+02  0.23668095806E+03  0.24383715133E+03  0.00000000000E+00 0.  1.
         21    1    1    2  505  504 -0.30990443016E+02 -0.81209569207E+02  0.95208891442E+02  0.12891910137E+03  0.00000000000E+00 0.  1.
         21    1    1    2  506  502 -0.41288582713E+02  0.77258014341E+01 -0.22395739119E+02  0.47602565067E+02  0.00000000000E+00 0. -1.
<scales pt_clust_3="154.50431" pt_clust_4="84.45473" pt_clust_5="14000.00000" pt_clust_6="42.00518"></scales>
<clustering>
<clus scale="   42.005">  1  6  2 -1</clus>
<clus scale="   84.455">  1  4  2 -1</clus>
<clus scale="  154.504">  2  3  1 -1</clus>
<clus scale="   42.005">  1  3  2 -1</clus>
</clustering>
</event>
<event>
 6    0  0.3446372E+002  0.1017188E+03  0.7546771E-02  0.1276723E+00
         21   -1    0    0  503  501  0.00000000000E+00  0.00000000000E+00  0.30598772950E+03  0.30598772950E+03  0.00000000000E+00 0. -1.
         21   -1    0    0  505  502 -0.00000000000E+00 -0.00000000000E+00 -0.47568295645E+03  0.47568295645E+03  0.00000000000E+00 0.  1.
         21    1    1    2  503  504  0.12521634915E+02  0.28004873172E+02  0.20655399546E+03  0.20881958074E+03  0.00000000000E+00 0. -1.
         21    1    1    2  504  502 -0.85788858988E+02 -0.45717061141E+02 -0.32339468501E+03  0.33768905860E+03  0.00000000000E+00 0.  1.
         21    1    1    2  505  506  0.13917860616E+03  0.20679076848E+01 -0.81849212366E+02  0.16147524337E+03  0.00000000000E+00 0.  1.
         21    1    1    2  506  501 -0.65911382091E+02  0.15644280283E+02  0.28994674965E+02  0.73686803236E+02  0.00000000000E+00 0.  1.
<scales pt_clust_3="30.67677" pt_clust_4="101.71880" pt_clust_5="14000.00000" pt_clust_6="66.64307"></scales>
<clustering>
<clus scale="   30.677">  1  3  2 -1</clus>
<clus scale="   66.643">  1  6  2 -1</clus>
<clus scale="  101.719">  2  4  1 -1</clus>
<clus scale="   30.677">  1  3  2 -1</clus>
</clustering>
</event>
<event>
 6    0  0.3446372E+002  0.8019889E+02  0.7546771E-02  0.1328488E+00
         21   -1    0    0  506  501  0.00000000000E+00  0.00000000000E+00  0.35307765129E+03  0.35307765129E+03  0.00000000000E+00 0. -1.
         21   -1    0    0  505  502 -0.00000000000E+00 -0.00000000000E+00 -0.74384281654E+02  0.74384281654E+02  0.00000000000E+00 0. -1.
         21    1    1    2  503  504 -0.29635828480E+02  0.55377901015E+02  0.14497759126E+03  0.15799840575E+03  0.00000000000E+00 0. -1.
         21    1    1    2  504  502  0.14589764091E+02  0.60000300825E+02 -0.88113064270E+01  0.62374164814E+02  0.00000000000E+00 0. -1.
         21    1    1    2  505  501  0.45616214014E+02 -0.10758792814E+03  0.97959245855E+02  0.15248611448E+03  0.00000000000E+00 0. -1.
         21    1    1    2  506  503 -0.30570149625E+02 -0.77902737010E+01  0.44567838943E+02  0.54603247893E+02  0.00000000000E+00 0. -1.
<scales pt_clust_3="14000.00000" pt_clust_4="60.49328" pt_clust_5="80.19889" pt_clust_6="31.54715"></scales>
<clustering>
<clus scale="   31.547">  1  6  2 -1</clus>
<clus scale="   60.493">  2  4  1 -1</clus>
<clus scale="   80.199">  2  5  1 -1</clus>
<clus scale="   31.547">  1  3  2 -1</clus>
</clustering>
</event>
<event>
 6    0  0.3890432E+002  0.8933478E+02  0.7546771E-02  0.1304471E+00
         21   -1    0    0  503  501  0.00000000000E+00  0.00000000000E+00  0.25085829271E+03  0.25085829271E+03  0.00000000000E+00 0.  1.
         21   -1    0    0  504  502 -0.00000000000E+00 -0.00000000000E+00 -0.35244032912E+04  0.35244032912E+04  0.00000000000E+00 0. -1.
         21    1    1    2  503  502 -0.34050155183E+02 -0.28710411199E+02 -0.14236521306E+03  0.14916955008E+03  0.00000000000E+00 0. -1.
         21    1    1    2  504  506  0.54118572559E+02 -0.25349924880E+02 -0.10609688750E+04  0.10626506445E+04  0.00000000000E+00 0. -1.
         21    1    1    2  505  501  0.48813365336E+02  0.74963221647E+02  0.23792358267E+03  0.25418469746E+03  0.00000000000E+00 0.  1.
         21    1    1    2  506  505 -0.68881782712E+02 -0.20902885568E+02 -0.23081344931E+04  0.23092566919E+04  0.00000000000E+00 0. -1.
<scales pt_clust_3="44.53876" pt_clust_4="55.37666" pt_clust_5="89.33478" pt_clust_6="14000.00000"></scales>
<clustering>
<clus scale="   44.539">  2  3  1 -1</clus>
<clus scale="   55.377">  2  4  1 -1</clus>
<clus scale="   89.335">  1  5  2 -1</clus>
<clus scale="   89.335">  1  3  2 -1</clus>
</clustering>
</event>
<event>
 6    0  0.3446372E+002  0.1163793E+03  0.7546771E-02  0.1249192E+00
         21   -1    0    0  503  501  0.00000000000E+00  0.00000000000E+00  0.10099148189E+04  0.10099148189E+04  0.00000000000E+00 0. -1.
         21   -1    0    0  505  502 -0.00000000000E+00 -0.00000000000E+00 -0.68262575721E+03  0.68262575721E+03  0.00000000000E+00 0.  1.
         21    1    1    2  503  502  0.11691113251E+02  0.56283861240E+02  0.79270648312E+02  0.97920329089E+02  0.00000000000E+00 0. -1.
         21    1    1    2  504  501  0.92054994048E+02 -0.11001170359E+03  0.90335377404E+03  0.91467192913E+03  0.00000000000E+00 0. -1.
         21    1    1    2  505  506 -0.40992037787E+02 -0.13042738413E+02 -0.43100517480E+02  0.60894291968E+02  0.00000000000E+00 0.  1.
         21    1    1    2  506  504 -0.62754069512E+02  0.66770580767E+02 -0.61223484323E+03  0.61905402588E+03  0.00000000000E+00 0.  1.
<scales pt_clust_3="57.17585" pt_clust_4="14000.00000" pt_clust_5="43.01698" pt_clust_6="116.37932"></scales>
<clustering>
<clus scale="   43.017">  2  5  1 -1</clus>
<clus scale="   57.176">  1  3  2 -1</clus>
<clus scale="  116.379">  2  6  1 -1</clus>
<clus scale="   57.176">  1  3  2 -1</clus>
</clustering>
</event>
<event>
 6    0  0.3446372E+002  0.1589419E+03  0.7546771E-02  0.1189897E+00
         21   -1    0    0  505  501  0.00000000000E+00  0.00000000000E+00  0.23780361201E+03  0.23780361201E+03  0.00000000000E+00 0. -1.
         21   -1    0    0  506  502 -0.00000000000E+00 -0.00000000000E+00 -0.12569343617E+04  0.12569343617E+04  0.00000000000E+00 0.  1.
         21    1    1    2  503  502 -0.18787033979E+03 -0.58619799999E+02 -0.11156709037E+04  0.11328958958E+04  0.00000000000E+00 0.  1.
         21    1    1    2  504  501  0.15287108925E+03  0.25150747588E+02  0.18054432263E+03  0.23790414554E+03  0.00000000000E+00 0. -1.
         21    1    1    2  505  503 -0.10685645865E+02  0.42066934266E+02 -0.30433828991E+02  0.53009696596E+02  0.00000000000E+00 0.  1.
         21    1    1    2  506  504  0.45684896413E+02 -0.85978818551E+01 -0.53570339643E+02  0.70928235718E+02  0.00000000000E+00 0.  1.
<scales pt_clust_3="158.94192" pt_clust_4="14000.00000" pt_clust_5="43.40288" pt_clust_6="45.81129"></scales>
<clustering>
<clus scale="   43.403">  1  5  2 -1</clus>
<clus scale="   45.811">  2  6  1 -1</clus>
<clus scale="  158.942">  2  3  1 -1</clus>
<clus scale="   43.403">  1  3  2 -1</clus>
</clustering>
</event>
<event>
 6    0  0.3446372E+002  0.1607657E+03  0.7546771E-02  0.1187835E+00
         21   -1    0    0  505  501  0.00000000000E+00  0.00000000000E+00  0.56097741552E+03  0.56097741552E+03  0.00000000000E+00 0.  1.
         21   -1    0    0  506  502 -0.00000000000E+00 -0.00000000000E+00 -0.11040990197E+03  0.11040990197E+03  0.00000000000E+00 0.  1.
         21    1    1    2  503  504 -0.10342155172E+03 -0.10596760118E+03  0.15832490903E+03  0.21677621336E+03  0.00000000000E+00 0.  1.
         21    1    1    2  504  502  0.15472404500E+02  0.57461360970E+02  0.51994512716E+02  0.79022988162E+02  0.00000000000E+00 0.  1.
         21    1    1    2  505  503 -0.85827908012E+02  0.81167431857E+01  0.15611340537E+03  0.17833593763E+03  0.00000000000E+00 0.  1.
         21    1    1    2  506  501  0.17377705524E+03  0.40389497020E+02  0.84134686436E+02  0.19725217834E+03  0.00000000000E+00 0.  1.
<scales pt_clust_3="160.76570" pt_clust_4="59.50801" pt_clust_5="85.33043" pt_clust_6="14000.00000"></scales>
<clustering>
<clus scale="   59.508">  2  4  1 -1</clus>
<clus scale="   85.330">  1  5  2 -1</clus>
<clus scale="  160.766">  2  3  1 -1</clus>
<clus scale="   85.330">  1  3  2 -1</clus>
</clustering>
</event>
<event>
 6    0  0.3446372E+002  0.1730869E+03  0.7546771E-02  0.1174666E+00
         21   -1    0    0  503  501  0.00000000000E+00  0.00000000000E+00  0.22071987769E+02  0.22071987769E+02  0.00000000000E+00 0.  1.
         21   -1    0    0  505  502 -0.00000000000E+00 -0.00000000000E+00 -0.32313417304E+04  0.32313417304E+04  0.00000000000E+00 0. -1.
         21    1    1    2  503  502  0.93842796964E+01 -0.51533516510E+02 -0.58470833572E+02  0.78502270081E+02  0.00000000000E+00 0. -1.
         21    1    1    2  504  501 -0.59978751591E+02 -0.58623471589E+02 -0.29052669354E+03  0.30239034661E+03  0.00000000000E+00 0.  1.
         21    1    1    2  505  506  0.46976428992E+02  0.16715212344E+03 -0.26120280547E+04  0.26177924241E+04  0.00000000000E+00 0. -1.
         21    1    1    2  506  504  0.36180429023E+01 -0.56995135344E+02 -0.24824416086E+03  0.25472867740E+03  0.00000000000E+00 0.  1.
<scales pt_clust_3="52.38099" pt_clust_4="49.25878" pt_clust_5="162.46749" pt_clust_6="49.25878"></scales>
<clustering>
<clus scale="   49.259">  4  6 -1 -1</clus>
<clus scale="   52.381">  1  3  2 -1</clus>
<clus scale="  162.467">  2  5  1 -1</clus>
<clus scale="   52.381">  1  3  2 -1</clus>
</clustering>
</event>
<event>
 6    0  0.3446372E+002  0.1434926E+03  0.7546771E-02  0.1208705E+00
         21   -1    0    0  505  501  0.00000000000E+00  0.00000000000E+00  0.10003785013E+03  0.10003785013E+03  0.00000000000E+00 0.  1.
         21   -1    0    0  503  502 -0.00000000000E+00 -0.00000000000E+00 -0.11146614891E+04  0.11146614891E+04  0.00000000000E+00 0. -1.
         21    1    1    2  503  504  0.83340663318E+02  0.46286726222E+02 -0.66219619216E+03  0.66902311178E+03  0.00000000000E+00 0. -1.
         21    1    1    2  504  506  0.13304794841E+02  0.46033542285E+02 -0.36010403958E+03  0.36327816327E+03  0.00000000000E+00 0. -1.
         21    1    1    2  505  502 -0.74533810051E+02 -0.11917326462E+03  0.26208961741E+02  0.14298414429E+03  0.00000000000E+00 0.  1.
         21    1    1    2  506  501 -0.22111648108E+02  0.26852996116E+02 -0.18532368978E+02  0.39413919906E+02  0.00000000000E+00 0.  1.
<scales pt_clust_3="36.91428" pt_clust_4="36.91428" pt_clust_5="133.81080" pt_clust_6="34.78517"></scales>
<clustering>
<clus scale="   34.785">  1  6  2 -1</clus>
<clus scale="   36.914">  3  4 -1 -1</clus>
<clus scale="  133.811">  1  5  2 -1</clus>
<clus scale="   34.785">  1  3  2 -1</clus>
</clustering>
</event>
<event>
 6    0  0.3446372E+002  0.1093704E+03  0.7546771E-02  0.1261740E+00
         21   -1    0    0  503  501  0.00000000000E+00  0.00000000000E+00  0.47327999296E+03  0.47327999296E+03  0.00000000000E+00 0.  1.
         21   -1    0    0  506  502 -0.00000000000E+00 -0.00000000000E+00 -0.12287324740E+03  0.12287324740E+03  0.00000000000E+00 0.  1.
         21    1    1    2  503  505  0.53777790413E+02  0.40110851016E+02  0.32617481767E+03  0.33300291709E+03  0.00000000000E+00 0.  1.
         21    1    1    2  504  501  0.38885408563E+02 -0.15934523028E+02 -0.42642069999E+02  0.59869275568E+02  0.00000000000E+00 0.  1.
         21    1    1    2  505  502 -0.12109273518E+03  0.25745598137E+02  0.75771280450E+02  0.14514673017E+03  0.00000000000E+00 0.  1.
         21    1    1    2  506  504  0.28429536207E+02 -0.49921926126E+02 -0.88972825617E+01  0.58134317524E+02  0.00000000000E+00 0.  1.
<scales pt_clust_3="67.08898" pt_clust_4="41.90104" pt_clust_5="97.78405" pt_clust_6="41.90104"></scales>
<clustering>
<clus scale="   41.901">  4  6 -1 -1</clus>
<clus scale="   67.089">  1  3  2 -1</clus>
<clus scale="   97.784">  1  5  2 -1</clus>
<clus scale="   67.089">  1  3  2 -1</clus>
</clustering>
</event>
<event>
 6    0  0.3446372E+002  0.1333684E+03  0.7546771E-02  0.1222542E+00
         21   -1    0    0  505  501  0.00000000000E+00  0.00000000000E+00  0.11654168271E+04  0.11654168271E+04  0.00000000000E+00 0.  1.
         21   -1    0    0  503  502 -0.00000000000E+00 -0.00000000000E+00 -0.13946411528E+03  0.13946411528E+03  0.00000000000E+00 0.  1.
         21    1    1    2  503  501  0.20374506624E+02 -0.31412007728E+02  0.19508427948E+03  0.19864468493E+03  0.00000000000E+00 0. -1.
         21    1    1    2  504  506 -0.41344730979E+02  0.30709111019E+02 -0.13635404495E+02  0.53276266151E+02  0.00000000000E+00 0.  1.
         21    1    1    2  505  504  0.94756611865E+02 -0.66083708941E+01  0.93282055484E+03  0.93764421483E+03  0.00000000000E+00 0.  1.
         21    1    1    2  506  502 -0.73786387510E+02  0.73112676028E+01 -0.88316718024E+02  0.11531577645E+03  0.00000000000E+00 0.  1.
<scales pt_clust_3="37.44108" pt_clust_4="47.85000" pt_clust_5="120.24481" pt_clust_6="47.85000"></scales>
<clustering>
<clus scale="   37.441">  1  3  2 -1</clus>
<clus scale="   47.850">  4  6 -1 -1</clus>
<clus scale="  120.245">  1  5  2 -1</clus>
<clus scale="   37.441">  1  3  2 -1</clus>
</clustering>
</event>
<event>
 6    0  0.3446372E+002  0.1246878E+03  0.7546771E-02  0.1235558E+00
         21   -1    0    0  506  501  0.00000000000E+00  0.00000000000E+00  0.53978832027E+03  0.53978832027E+03  0.00000000000E+00 0. -1.
         21   -1    0    0  503  502 -0.00000000000E+00 -0.00000000000E+00 -0.42817163598E+03  0.42817163598E+03  0.00000000000E+00 0. -1.
         21    1    1    2  503  501 -0.73133591034E+02  0.13109502771E+02 -0.30032128527E+03  0.30937558984E+03  0.00000000000E+00 0. -1.
         21    1    1    2  504  505 -0.50405478205E+02 -0.11292267479E+02 -0.91361040463E+01  0.52456610022E+02  0.00000000000E+00 0. -1.
         21    1    1    2  505  502  0.96954846574E+00 -0.31594050990E+02 -0.81790132411E+02  0.87685516718E+02  0.00000000000E+00 0. -1.
         21    1    1    2  506  504  0.12256952077E+03  0.29776815698E+02  0.50286420602E+03  0.51844223967E+03  0.00000000000E+00 0. -1.
<scales pt_clust_3="14000.00000" pt_clust_4="52.26357" pt_clust_5="31.60892" pt_clust_6="124.68781"></scales>
<clustering>
<clus scale="   31.609">  2  5  1 -1</clus>
<clus scale="   52.264">  2  4  1 -1</clus>
<clus scale="  124.688">  1  6  2 -1</clus>
<clus scale="  124.688">  1  3  2 -1</clus>
</clustering>
</event>
<event>
 6    0  0.3446372E+002  0.9196677E+02  0.7546771E-02  0.1298158E+00
         21   -1    0    0  506  501  0.00000000000E+00  0.00000000000E+00  0.13955384437E+03  0.13955384437E+03  0.00000000000E+00 0. -1.
         21   -1    0    0  503  502 -0.00000000000E+00 -0.00000000000E+00 -0.55614285534E+03  0.55614285534E+03  0.00000000000E+00 0. -1.
         21    1    1    2  503  504 -0.22598502930E+02 -0.36038579743E+02 -0.10927363111E+03  0.11726123835E+03  0.00000000000E+00 0.  1.
         21    1    1    2  504  501 -0.27358161357E+02 -0.21791483892E+02  0.83293215276E+02  0.90338792742E+02  0.00000000000E+00 0. -1.
         21    1    1    2  505  502  0.11412686009E+03  0.65963480707E+02 -0.40142578100E+03  0.42251482652E+03  0.00000000000E+00 0. -1.
         21    1    1    2  506  505 -0.64170195799E+02 -0.81334170719E+01  0.10817185854E+02  0.65581842091E+02  0.00000000000E+00 0.  1.
<scales pt_clust_3="45.04523" pt_clust_4="34.97625" pt_clust_5="14000.00000" pt_clust_6="91.96677"></scales>
<clustering>
<clus scale="   34.976">  1  4  2 -1</clus>
<clus scale="   45.045">  2  3  1 -1</clus>
<clus scale="   91.967">  1  6  2 -1</clus>
<clus scale="   34.976">  1  3  2 -1</clus>
</clustering>
</event>
<event>
 6    0  0.3446372E+002  0.1664840E+03  0.7546771E-02  0.1181565E+00
         21   -1    0    0  503  501  0.00000000000E+00  0.00000000000E+00  0.21553604713E+03  0.21553604713E+03  0.00000000000E+00 0.  1.
         21   -1    0    0  505  502 -0.00000000000E+00 -0.00000000000E+00 -0.53070551254E+03  0.53070551254E+03  0.00000000000E+00 0.  1.
         21    1    1    2  503  504  0.11993608442E+03 -0.37731806195E+02 -0.28615679962E+03  0.31256050217E+03  0.00000000000E+00 0.  1.
         21    1    1    2  504  502  0.32365538661E+02  0.74793250153E+01 -0.17130118328E+03  0.17449230294E+03  0.00000000000E+00 0.  1.
         21    1    1    2  505  506 -0.15480052851E+03 -0.25828785425E+02  0.82986892327E+02  0.17753071307E+03  0.00000000000E+00 0.  1.
         21    1    1    2  506  501  0.24989054301E+01  0.56081266605E+02  0.59301625158E+02  0.81658041482E+02  0.00000000000E+00 0. -1.
<scales pt_clust_3="31.85856" pt_clust_4="31.85856" pt_clust_5="154.51632" pt_clust_6="56.13691"></scales>
<clustering>
<clus scale="   31.859">  3  4 -1 -1</clus>
<clus scale="   56.137">  1  6  2 -1</clus>
<clus scale="  154.516">  1  5  2 -1</clus>
<clus scale="   56.137">  1  3  2 -1</clus>
</clustering>
</event>
<event>
 6    0  0.3446372E+002  0.1654545E+03  0.7546771E-02  0.1182673E+00
         21   -1    0    0  506  501  0.00000000000E+00  0.00000000000E+00  0.15817543678E+03  0.15817543678E+03  0.00000000000E+00 0. -1.
         21   -1    0    0  504  502 -0.00000000000E+00 -0.00000000000E+00 -0.73847846894E+03  0.73847846894E+03  0.00000000000E+00 0. -1.
         21    1    1    2  503  501 -0.89124155616E+02  0.10022860455E+03  0.43801652759E+02  0.14109384490E+03  0.00000000000E+00 0. -1.
         21    1    1    2  504  503 -0.71829998112E+02  0.46153705097E+02 -0.23015803630E+02  0.88427599423E+02  0.00000000000E+00 0. -1.
         21    1    1    2  505  502  0.13039936215E+03 -0.64064637845E+02 -0.54239497261E+03  0.56151632014E+03  0.00000000000E+00 0. -1.
         21    1    1    2  506  505  0.30554791574E+02 -0.82317671798E+02 -0.58693908679E+02  0.10561614126E+03  0.00000000000E+00 0. -1.
<scales pt_clust_3="55.93003" pt_clust_4="55.93003" pt_clust_5="149.87055" pt_clust_6="87.80543"></scales>
<clustering>
<clus scale="   55.930">  3  4 -1 -1</clus>
<clus scale="   87.805">  1  6  2 -1</clus>
<clus scale="  149.871">  2  5  1 -1</clus>
<clus scale="   87.805">  1  3  2 -1</clus>
</clustering>
</event>
<event>
 6    0  0.3446372E+002  0.1486959E+03  0.7546771E-02  0.1202085E+00
         21   -1    0    0  503  501  0.00000000000E+00  0.00000000000E+00  0.58804728620E+03  0.58804728620E+03  0.00000000000E+00 0. -1.
         21   -1    0    0  506  502 -0.00000000000E+00 -0.00000000000E+00 -0.20830686669E+03  0.20830686669E+03  0.00000000000E+00 0.  1.
         21    1    1    2  503  505 -0.83218369076E+02 -0.93912752207E+02  0.47154252340E+03  0.48795210150E+03  0.00000000000E+00 0. -1.
         21    1    1    2  504  502  0.77727735873E+02  0.21829305480E+02 -0.76224368191E+02  0.11103276007E+03  0.00000000000E+00 0.  1.
         21    1    1    2  505  504  0.49717907887E+02  0.47288501687E+02 -0.86360237078E+02  0.11030033230E+03  0.00000000000E+00 0.  1.
         21    1    1    2  506  501 -0.44227274684E+02  0.24794945040E+02  0.70782501382E+02  0.87068959035E+02  0.00000000000E+00 0. -1.
<scales pt_clust_3="143.44184" pt_clust_4="36.11796" pt_clust_5="36.11796" pt_clust_6="50.70346"></scales>
<clustering>
<clus scale="   36.118">  4  5 -1 -1</clus>
<clus scale="   50.703">  1  6  2 -1</clus>
<clus scale="  143.442">  1  3  2 -1</clus>
<clus scale="   50.703">  1  3  2 -1</clus>
</clustering>
</event>
<event>
 6    0  0.3446372E+002  0.7032769E+02  0.7546771E-02  0.1358982E+00
         21   -1    0    0  504  501  0.00000000000E+00  0.00000000000E+00  0.39588695187E+02  0.39588695187E+02  0.00000000000E+00 0. -1.
         21   -1    0    0  506  502 -0.00000000000E+00 -0.00000000000E+00 -0.24094964669E+04  0.24094964669E+04  0.00000000000E+00 0.  1.
         21    1    1    2  503  501 -0.53496105361E+02 -0.80388265481E+01  0.94090421725E+01  0.54908889040E+02  0.00000000000E+00 0. -1.
         21    1    1    2  504  502  0.88752086294E+01 -0.41498844314E+02 -0.82914807638E+03  0.83023337440E+03  0.00000000000E+00 0.  1.
         21    1    1    2  505  503  0.87201944531E+02 -0.33296219099E+02 -0.43555855344E+03  0.44544816849E+03  0.00000000000E+00 0.  1.
         21    1    1    2  506  505 -0.42581047799E+02  0.82833889961E+02 -0.11146101840E+04  0.11184947301E+04  0.00000000000E+00 0.  1.
<scales pt_clust_3="54.06259" pt_clust_4="42.43729" pt_clust_5="14000.00000" pt_clust_6="70.32769"></scales>
<clustering>
<clus scale="   42.437">  2  4  1 -1</clus>
<clus scale="   54.063">  1  3  2 -1</clus>
<clus scale="   70.328">  2  6  1 -1</clus>
<clus scale="   54.063">  1  3  2 -1</clus>
</clustering>
</event>
<event>
 6    0  0.3446372E+002  0.1158400E+03  0.7546771E-02  0.1250122E+00
         21   -1    0    0  505  501  0.00000000000E+00  0.00000000000E+00  0.65817189743E+03  0.65817189743E+03  0.00000000000E+00 0.  1.
         21   -1    0    0  503  502 -0.00000000000E+00 -0.00000000000E+00 -0.12223007805E+03  0.12223007805E+03  0.00000000000E+00 0.  1.
         21    1    1    2  503  501 -0.20008978580E+02 -0.24496450347E+02  0.82832827690E+02  0.88666299385E+02  0.00000000000E+00 0.  1.
         21    1    1    2  504  506 -0.31310018634E+02 -0.75822898230E+02  0.39611090101E+02  0.91095925386E+02  0.00000000000E+00 0.  1.
         21    1    1    2  505  504 -0.51756424878E+02 -0.10445486546E+02  0.44329470049E+03  0.44642807617E+03  0.00000000000E+00 0.  1.
         21    1    1    2  506  502  0.10307542209E+03  0.11076483512E+03 -0.29796798905E+02  0.15421167454E+03  0.00000000000E+00 0.  1.
<scales pt_clust_3="31.62966" pt_clust_4="115.83999" pt_clust_5="73.48073" pt_clust_6="14000.00000"></scales>
<clustering>
<clus scale="   31.630">  1  3  2 -1</clus>
<clus scale="   73.481">  1  5  2 -1</clus>
<clus scale="  115.840">  1  4  2 -1</clus>
<clus scale="   31.630">  1  3  2 -1</clus>
</clustering>
</event>
<event>
 6    0  0.3446372E+002  0.7827907E+02  0.7546771E-02  0.1334007E+00
         21   -1    0    0  504  501  0.00000000000E+00  0.00000000000E+00  0.33088349052E+03  0.33088349052E+03  0.00000000000E+00 0. -1.
         21   -1    0    0  503  502 -0.00000000000E+00 -0.00000000000E+00 -0.49516064751E+03  0.49516064751E+03  0.00000000000E+00 0. -1.
         21    1    1    2  503  506 -0.18630510454E+02 -0.35854660236E+02 -0.27597819701E+02  0.48931505522E+02  0.00000000000E+00 0. -1.
         21    1    1    2  504  505  0.38144788538E+02 -0.33982809902E+02  0.17236476198E+03  0.17977615925E+03  0.00000000000E+00 0. -1.
         21    1    1    2  505  502  0.92131364543E+02  0.33338769449E+02 -0.42269037915E+03  0.43389724418E+03  0.00000000000E+00 0. -1.
         21    1    1    2  506  501 -0.11164564263E+03  0.36498700689E+02  0.11364627988E+03  0.16343922908E+03  0.00000000000E+00 0. -1.
<scales pt_clust_3="40.40610" pt_clust_4="51.16835" pt_clust_5="78.27907" pt_clust_6="14000.00000"></scales>
<clustering>
<clus scale="   40.406">  2  3  1 -1</clus>
<clus scale="   51.168">  1  4  2 -1</clus>
<clus scale="   78.279">  2  5  1 -1</clus>
<clus scale="   51.168">  1  3  2 -1</clus>
</clustering>
</event>
<event>
 6    0  0.3446372E+002  0.9015119E+02  0.7546771E-02  0.1302486E+00
         21   -1    0    0  506  501  0.00000000000E+00  0.00000000000E+00  0.30719274822E+03  0.30719274822E+03  0.00000000000E+00 0. -1.
         21   -1    0    0  503  502 -0.00000000000E+00 -0.00000000000E+00 -0.13543191610E+03  0.13543191610E+03  0.00000000000E+00 0. -1.
         21    1    1    2  503  504  0.36691686087E+02  0.95985355869E+02 -0.65181320422E+02  0.12168842550E+03  0.00000000000E+00 0. -1.
         21    1    1    2  504  505 -0.30954554218E+02 -0.10525854219E+03  0.17402476776E+03  0.20572351573E+03  0.00000000000E+00 0. -1.
         21    1    1    2  505  501 -0.22582103427E+02  0.40229715169E+02  0.65228059904E+02  0.79894187377E+02  0.00000000000E+00 0. -1.
         21    1    1    2  506  502  0.16844971558E+02 -0.30956528846E+02 -0.23106751249E+01  0.35318535708E+02  0.00000000000E+00 0.  1.
<scales pt_clust_3="90.15119" pt_clust_4="14000.00000" pt_clust_5="43.91846" pt_clust_6="35.24287"></scales>
<clustering>
<clus scale="   35.243">  2  6  1 -1</clus>
<clus scale="   43.918">  1  5  2 -1</clus>
<clus scale="   90.151">  2  3  1 -1</clus>
<clus scale="   43.918">  1  3  2 -1</clus>
</clustering>
</event>
<event>
 6    0  0.3446372E+002  0.1080074E+03  0.7546771E-02  0.1264305E+00
         21   -1    0    0  506  501  0.00000000000E+00  0.00000000000E+00  0.12297600755E+03  0.12297600755E+03  0.00000000000E+00 0. -1.
         21   -1    0    0  504  502 -0.00000000000E+00 -0.00000000000E+00 -0.10970287923E+04  0.10970287923E+04  0.00000000000E+00 0. -1.
         21    1    1    2  503  505  0.26116153647E+02 -0.86673095177E+02  0.91926146537E+01  0.90987818268E+02  0.00000000000E+00 0. -1.
         21    1    1    2  504  501  0.87328659069E+02  0.12188443359E+02 -0.25044200415E+03  0.26551092311E+03  0.00000000000E+00 0. -1.
         21    1    1    2  505  502 -0.11926330783E+03  0.35639315177E+02 -0.78688301560E+03  0.79666729418E+03  0.00000000000E+00 0. -1.
         21    1    1    2  506  503  0.58184951171E+01  0.38845336641E+02  0.54079620392E+02  0.66838764246E+02  0.00000000000E+00 0. -1.
<scales pt_clust_3="63.50588" pt_clust_4="14000.00000" pt_clust_5="108.00739" pt_clust_6="39.27868"></scales>
<clustering>
<clus scale="   39.279">  1  6  2 -1</clus>
<clus scale="   63.506">  1  3  2 -1</clus>
<clus scale="  108.007">  2  5  1 -1</clus>
<clus scale="   39.279">  1  3  2 -1</clus>
</clustering>
</event>
<event>
 6    0  0.3446372E+002  0.1757680E+03  0.7546771E-02  0.1171963E+00
         21   -1    0    0  503  501  0.00000000000E+00  0.00000000000E+00  0.73514244567E+03  0.73514244567E+03  0.00000000000E+00 0.  1.
         21   -1    0    0  501  502 -0.00000000000E+00 -0.00000000000E+00 -0.46766901629E+03  0.46766901629E+03  0.00000000000E+00 0.  1.
         21    1    1    2  503  504 -0.44609535178E+02 -0.12815870569E+02  0.10613958861E+03  0.11584416014E+03  0.00000000000E+00 0.  1.
         21    1    1    2  504  505 -0.78463326668E+01 -0.14329180155E+03  0.59853893418E+03  0.61550220232E+03  0.00000000000E+00 0.  1.
         21    1    1    2  505  506  0.21930300418E+02  0.32805583630E+02 -0.48464937692E+02  0.62497956601E+02  0.00000000000E+00 0.  1.
         21    1    1    2  506  502  0.30525567427E+02  0.12330208849E+03 -0.38874015573E+03  0.40896714290E+03  0.00000000000E+00 0.  1.
<scales pt_clust_3="46.41398" pt_clust_4="163.96519" pt_clust_5="35.29402" pt_clust_6="35.29402"></scales>
<clustering>
<clus scale="   35.294">  5  6 -1 -1</clus>
<clus scale="   46.414">  1  3  2 -1</clus>
<clus scale="  163.965">  1  4  2 -1</clus>
<clus scale="   46.414">  1  3  2 -1</clus>
</clustering>
</event>
<event>
 6    0  0.3446372E+002  0.1222574E+03  0.7546771E-02  0.1239419E+00
         21   -1    0    0  503  501  0.00000000000E+00  0.00000000000E+00  0.37640954344E+03  0.37640954344E+03  0.00000000000E+00 0.  1.
         21   -1    0    0  504  502 -0.00000000000E+00 -0.00000000000E+00 -0.58828190431E+03  0.58828190431E+03  0.00000000000E+00 0.  1.
         21    1    1    2  503  506 -0.58944837214E+02 -0.11325907838E+03  0.30731505029E+03  0.33278319189E+03  0.00000000000E+00 0.  1.
         21    1    1    2  504  505  0.33828859904E+02  0.99751137282E+02 -0.47564036079E+03  0.48716366240E+03  0.00000000000E+00 0.  1.
         21    1    1    2  505  501  0.53618971066E+02 -0.10389723633E+02  0.30009888920E+02  0.62318005812E+02  0.00000000000E+00 0.  1.
         21    1    1    2  506  502 -0.28502993756E+02  0.23897664734E+02 -0.73556939291E+02  0.82426587644E+02  0.00000000000E+00 0.  1.
<scales pt_clust_3="122.25743" pt_clust_4="14000.00000" pt_clust_5="53.58960" pt_clust_6="37.19569"></scales>
<clustering>
<clus scale="   37.196">  2  6  1 -1</clus>
<clus scale="   53.590">  1  5  2 -1</clus>
<clus scale="  122.257">  1  3  2 -1</clus>
<clus scale="   53.590">  1  3  2 -1</clus>
</clustering>
</event>
<event>
 6    0  0.3446372E+002  0.8646218E+02  0.7546771E-02  0.1311652E+00
         21   -1    0    0  504  501  0.00000000000E+00  0.00000000000E+00  0.18979303708E+04  0.18979303708E+04  0.00000000000E+00 0.  1.
         21   -1    0    0  503  502 -0.00000000000E+00 -0.00000000000E+00 -0.65952342034E+03  0.65952342034E+03  0.00000000000E+00 0. -1.
         21    1    1    2  503  501 -0.32214781274E+02  0.63287115301E+02 -0.39402309332E+03  0.40037138905E+03  0.00000000000E+00 0. -1.
         21    1    1    2  504  505 -0.45239666554E+02 -0.11175981127E+02  0.15470822681E+04  0.15477839236E+04  0.00000000000E+00 0.  1.
         21    1    1    2  505  506  0.11493617570E+03 -0.40019303019E+02  0.33507082056E+03  0.35648888326E+03  0.00000000000E+00 0.  1.
         21    1    1    2  506  502 -0.37481727870E+02 -0.12091831155E+02 -0.24972304485E+03  0.25280959522E+03  0.00000000000E+00 0. -1.
<scales pt_clust_3="86.46218" pt_clust_4="46.63344" pt_clust_5="14000.00000" pt_clust_6="39.38391"></scales>
<clustering>
<clus scale="   39.384">  2  6  1 -1</clus>
<clus scale="   46.633">  1  4  2 -1</clus>
<clus scale="   86.462">  2  3  1 -1</clus>
<clus scale="   46.633">  1  3  2 -1</clus>
</clustering>
</event>
<event>
 6    0  0.3446372E+002  0.9575865E+02  0.7546771E-02  0.1289477E+00
         21   -1    0    0  506  501  0.00000000000E+00  0.00000000000E+00  0.93530394561E+02  0.93530394561E+02  0.00000000000E+00 0.  1.
         21   -1    0    0  505  502 -0.00000000000E+00 -0.00000000000E+00 -0.22343758873E+04  0.22343758873E+04  0.00000000000E+00 0. -1.
         21    1    1    2  503  504 -0.87341574054E+02 -0.43304160520E+02 -0.83899788151E+02  0.12861949824E+03  0.00000000000E+00 0.  1.
         21    1    1    2  504  502  0.65234982483E+02  0.60137333448E+02 -0.11588699058E+04  0.11622613994E+04  0.00000000000E+00 0. -1.
         21    1    1    2  505  501  0.35239720341E+02 -0.63499048225E+02 -0.95754790634E+03  0.96029784960E+03  0.00000000000E+00 0. -1.
         21    1    1    2  506  503 -0.13133128770E+02  0.46665875297E+02  0.59472107600E+02  0.76727534633E+02  0.00000000000E+00 0.  1.
<scales pt_clust_3="14000.00000" pt_clust_4="95.75865" pt_clust_5="70.07397" pt_clust_6="48.47869"></scales>
<clustering>
<clus scale="   48.479">  1  6  2 -1</clus>
<clus scale="   70.074">  2  5  1 -1</clus>
<clus scale="   95.759">  2  4  1 -1</clus>
<clus scale="   48.479">  1  3  2 -1</clus>
</clustering>
</event>
<event>
 6    0  0.3446372E+002  0.1137479E+03  0.7546771E-02  0.1253783E+00
         21   -1    0    0  505  501  0.00000000000E+00  0.00000000000E+00  0.11543867667E+04  0.11543867667E+04  0.00000000000E+00 0. -1.
         21   -1    0    0  504  502 -0.00000000000E+00 -0.00000000000E+00 -0.25210081275E+03  0.25210081275E+03  0.00000000000E+00 0. -1.
         21    1    1    2  503  501  0.62427803600E+02  0.60745329987E+01  0.11029015098E+04  0.11046836067E+04  0.00000000000E+00 0. -1.
         21    1    1    2  504  503  0.43279638854E+02 -0.76509780485E+02 -0.74321515712E+02  0.11511108264E+03  0.00000000000E+00 0.  1.
         21    1    1    2  505  506 -0.61048847948E+02  0.25399173841E+02 -0.95582164177E+02  0.11622405077E+03  0.00000000000E+00 0. -1.
         21    1    1    2  506  502 -0.44658594506E+02  0.45036073645E+02 -0.30711875960E+02  0.70468839338E+02  0.00000000000E+00 0. -1.
<scales pt_clust_3="62.72265" pt_clust_4="100.84499" pt_clust_5="51.53550" pt_clust_6="51.53550"></scales>
<clustering>
<clus scale="   51.535">  5  6 -1 -1</clus>
<clus scale="   62.723">  1  3  2 -1</clus>
<clus scale="  100.845">  2  4  1 -1</clus>
<clus scale="   62.723">  1  3  2 -1</clus>
</clustering>
</event>
<event>
 6    0  0.3446372E+002  0.1240994E+03  0.7546771E-02  0.1236483E+00
         21   -1    0    0  503  501  0.00000000000E+00  0.00000000000E+00  0.32170384484E+03  0.32170384484E+03  0.00000000000E+00 0. -1.
         21   -1    0    0  504  502 -0.00000000000E+00 -0.00000000000E+00 -0.60901763888E+03  0.60901763888E+03  0.00000000000E+00 0.  1.
         21    1    1    2  503  506  0.56279212422E+02 -0.88039066218E+02  0.15174954298E+03  0.18424481193E+03  0.00000000000E+00 0. -1.
         21    1    1    2  504  501  0.54373430866E+02  0.61624180995E+02 -0.47797886597E+03  0.48499258343E+03  0.00000000000E+00 0.  1.
         21    1    1    2  505  502  0.39934437691E+02  0.29087115580E+02 -0.62680595042E+02  0.79810253735E+02  0.00000000000E+00 0. -1.
         21    1    1    2  506  505 -0.15058708098E+03 -0.26722303569E+01  0.10159612400E+03  0.18167383462E+03  0.00000000000E+00 0. -1.
<scales pt_clust_3="104.41035" pt_clust_4="14000.00000" pt_clust_5="49.40465" pt_clust_6="124.09945"></scales>
<clustering>
<clus scale="   49.405">  2  5  1 -1</clus>
<clus scale="  104.410">  1  3  2 -1</clus>
<clus scale="  124.099">  1  6  2 -1</clus>
<clus scale="  104.410">  1  3  2 -1</clus>
</clustering>
</event>
<event>
 6    0  0.3446372E+002  0.8307785E+02  0.7546771E-02  0.1320537E+00
         21   -1    0    0  505  501  0.00000000000E+00  0.00000000000E+00  0.52055418167E+02  0.52055418167E+02  0.00000000000E+00 0. -1.
         21   -1    0    0  506  502 -0.00000000000E+00 -0.00000000000E+00 -0.13605911222E+04  0.13605911222E+04  0.00000000000E+00 0.  1.
         21    1    1    2  503  501 -0.34156989576E+02  0.87087954211E+01 -0.68433902108E+02  0.76978841329E+02  0.00000000000E+00 0.  1.
         21    1    1    2  504  502 -0.80594335416E+02 -0.79126976934E+02 -0.11223955940E+04  0.11280640030E+04  0.00000000000E+00 0.  1.
         21    1    1    2  505  504  0.88006468387E+02  0.47616349070E+02 -0.17718347999E+02  0.10161887144E+03  0.00000000000E+00 0. -1.
         21    1    1    2  506  503  0.26744856605E+02  0.22801832443E+02 -0.99987859898E+02  0.10598482460E+03  0.00000000000E+00 0. -1.
<scales pt_clust_3="34.11751" pt_clust_4="14000.00000" pt_clust_5="83.07785" pt_clust_6="35.14557"></scales>
<clustering>
<clus scale="   35.146">  2  6  1 -1</clus>
<clus scale="   34.118">  1  3  2 -1</clus>
<clus scale="   83.078">  1  5  2 -1</clus>
<clus scale="   34.118">  1  3  2 -1</clus>
</clustering>
</event>
<event>
 6    0  0.3446372E+002  0.1645269E+03  0.7546771E-02  0.1183679E+00
         21   -1    0    0  505  501  0.00000000000E+00  0.00000000000E+00  0.70129119757E+02  0.70129119757E+02  0.00000000000E+00 0. -1.
         21   -1    0    0  504  502 -0.00000000000E+00 -0.00000000000E+00 -0.87388086427E+03  0.87388086427E+03  0.00000000000E+00 0. -1.
         21    1    1    2  503  502 -0.59378543446E+02  0.27715620615E+02 -0.10618624655E+03  0.12477774643E+03  0.00000000000E+00 0. -1.
         21    1    1    2  504  506  0.17090503105E+03  0.42056264442E+02 -0.52384084368E+03  0.55261785034E+03  0.00000000000E+00 0. -1.
         21    1    1    2  505  503 -0.82257642148E+02 -0.79695096565E+01 -0.17987900010E+03  0.19795526629E+03  0.00000000000E+00 0. -1.
         21    1    1    2  506  501 -0.29268845455E+02 -0.61802375400E+02  0.61543458076E+01  0.68659120965E+02  0.00000000000E+00 0. -1.
<scales pt_clust_3="38.53269" pt_clust_4="158.73416" pt_clust_5="38.53269" pt_clust_6="68.38274"></scales>
<clustering>
<clus scale="   38.533">  3  5 -1 -1</clus>
<clus scale="   68.383">  1  6  2 -1</clus>
<clus scale="  158.734">  2  4  1 -1</clus>
<clus scale="   68.383">  1  3  2 -1</clus>
</clustering>
</event>
<event>
 6    0  0.3446372E+002  0.1219851E+03  0.7546771E-02  0.1239858E+00
         21   -1    0    0  505  501  0.00000000000E+00  0.00000000000E+00  0.16157016965E+04  0.16157016965E+04  0.00000000000E+00 0.  1.
         21   -1    0    0  504  502 -0.00000000000E+00 -0.00000000000E+00 -0.28786064123E+02  0.28786064123E+02  0.00000000000E+00 0.  1.
         21    1    1    2  503  501  0.59081799191E-01 -0.59117013110E+02  0.69245230100E+03  0.69497123242E+03  0.00000000000E+00 0.  1.
         21    1    1    2  504  503 -0.33975154971E+02 -0.86763240928E+02  0.29570739672E+03  0.31004037738E+03  0.00000000000E+00 0.  1.
         21    1    1    2  505  506  0.30081788159E+02 -0.85741569556E+01  0.31358266943E+03  0.31513889115E+03  0.00000000000E+00 0.  1.
         21    1    1    2  506  502  0.38342850125E+01  0.15445441099E+03  0.28517326527E+03  0.32433725972E+03  0.00000000000E+00 0.  1.
<scales pt_clust_3="65.68993" pt_clust_4="121.98515" pt_clust_5="31.27987" pt_clust_6="14000.00000"></scales>
<clustering>
<clus scale="   31.280">  1  5  2 -1</clus>
<clus scale="   65.690">  1  3  2 -1</clus>
<clus scale="  121.985">  2  4  1 -1</clus>
<clus scale="   31.280">  1  3  2 -1</clus>
</clustering>
</event>
<event>
 6    0  0.3446372E+002  0.1669659E+03  0.7546771E-02  0.1181049E+00
         21   -1    0    0  503  501  0.00000000000E+00  0.00000000000E+00  0.19318948360E+04  0.19318948360E+04  0.00000000000E+00 0. -1.
         21   -1    0    0  504  502 -0.00000000000E+00 -0.00000000000E+00 -0.95399647656E+02  0.95399647656E+02  0.00000000000E+00 0.  1.
         21    1    1    2  503  505  0.11371367154E+03  0.50485967433E+02  0.15176065924E+04  0.15226980664E+04  0.00000000000E+00 0. -1.
         21    1    1    2  504  501 -0.14248980004E+03  0.16348251935E+02 -0.19576710971E+02  0.14475446822E+03  0.00000000000E+00 0.  1.
         21    1    1    2  505  506  0.36963707144E+02 -0.46504549853E+00  0.22595171322E+03  0.22895569139E+03  0.00000000000E+00 0. -1.
         21    1    1    2  506  502 -0.81875786458E+01 -0.66369173869E+02  0.11251359365E+03  0.13088625764E+03  0.00000000000E+00 0.  1.
<scales pt_clust_3="30.29792" pt_clust_4="157.44220" pt_clust_5="30.29792" pt_clust_6="66.87229"></scales>
<clustering>
<clus scale="   30.298">  3  5 -1 -1</clus>
<clus scale="   66.872">  2  6  1 -1</clus>
<clus scale="  157.442">  2  4  1 -1</clus>
<clus scale="  166.966">  1  3  2 -1</clus>
</clustering>
</event>
<event>
 6    0  0.3446372E+002  0.9222705E+02  0.7546771E-02  0.1297546E+00
         21   -1    0    0  504  501  0.00000000000E+00  0.00000000000E+00  0.32803975375E+03  0.32803975375E+03  0.00000000000E+00 0. -1.
         21   -1    0    0  505  502 -0.00000000000E+00 -0.00000000000E+00 -0.49484407161E+03  0.49484407161E+03  0.00000000000E+00 0. -1.
         21    1    1    2  503  506 -0.33267719851E+02 -0.70709015889E+02 -0.12853886685E+03  0.15042854252E+03  0.00000000000E+00 0. -1.
         21    1    1    2  504  502  0.34784796773E+02 -0.44368952334E+02  0.27472780177E+03  0.28045311744E+03  0.00000000000E+00 0. -1.
         21    1    1    2  505  503  0.26063978492E+02  0.99299589918E+02 -0.33692744515E+03  0.35222129809E+03  0.00000000000E+00 0. -1.
         21    1    1    2  506  501 -0.27581055414E+02  0.15778378306E+02  0.23934192374E+02  0.39780867314E+02  0.00000000000E+00 0. -1.
<scales pt_clust_3="14000.00000" pt_clust_4="30.90098" pt_clust_5="92.22705" pt_clust_6="31.77533"></scales>
<clustering>
<clus scale="   31.775">  1  6  2 -1</clus>
<clus scale="   30.901">  1  4  2 -1</clus>
<clus scale="   92.227">  2  5  1 -1</clus>
<clus scale="   31.775">  1  3  2 -1</clus>
</clustering>
</event>
<event>
 6    0  0.3446372E+002  0.1748820E+03  0.7546771E-02  0.1172850E+00
         21   -1    0    0  503  501  0.00000000000E+00  0.00000000000E+00  0.41493063293E+03  0.41493063293E+03  0.00000000000E+00 0. -1.
         21   -1    0    0  504  502 -0.00000000000E+00 -0.00000000000E+00 -0.19251457738E+03  0.19251457738E+03  0.00000000000E+00 0. -1.
         21    1    1    2  503  502 -0.10112388818E+03  0.19866240290E+03  0.23429731320E+03  0.32340071438E+03  0.00000000000E+00 0. -1.
         21    1    1    2  504  506 -0.10988561853E+02 -0.39070279788E+02 -0.43647386784E+02  0.59601423031E+02  0.00000000000E+00 0. -1.
         21    1    1    2  505  501  0.45798155468E+02 -0.31934874116E+02  0.55407545125E+02  0.78659413205E+02  0.00000000000E+00 0. -1.
         21    1    1    2  506  505  0.66314294570E+02 -0.12765724900E+03 -0.23641415992E+02  0.14578365970E+03  0.00000000000E+00 0. -1.
<scales pt_clust_3="174.88196" pt_clust_4="40.58615" pt_clust_5="57.02091" pt_clust_6="14000.00000"></scales>
<clustering>
<clus scale="   40.586">  2  4  1 -1</clus>
<clus scale="   57.021">  1  5  2 -1</clus>
<clus scale="  174.882">  1  3  2 -1</clus>
<clus scale="   57.021">  1  3  2 -1</clus>
</clustering>
</event>
<event>
 6    0  0.3446372E+002  0.6930146E+02  0.7546771E-02  0.1362485E+00
         21   -1    0    0  506  501  0.00000000000E+00  0.00000000000E+00  0.36289165842E+03  0.36289165842E+03  0.00000000000E+00 0.  1.
         21   -1    0    0  505  502 -0.00000000000E+00 -0.00000000000E+00 -0.73831045681E+03  0.73831045681E+03  0.00000000000E+00 0.  1.
         21    1    1    2  503  504 -0.74036481540E+02  0.84982505976E+01  0.61216184107E+01  0.74773625524E+02  0.00000000000E+00 0.  1.
         21    1    1    2  504  501  0.52708841647E+02 -0.46148565242E+02  0.31254484675E+03  0.32030016124E+03  0.00000000000E+00 0.  1.
         21    1    1    2  505  503 -0.17677220924E+01 -0.36137287105E+02 -0.88240527932E+02  0.95369906839E+02  0.00000000000E+00 0.  1.
         21    1    1    2  506  502  0.23095361985E+02  0.73787601749E+02 -0.60584473562E+03  0.61075842163E+03  0.00000000000E+00 0.  1.
<scales pt_clust_3="14000.00000" pt_clust_4="69.30146" pt_clust_5="36.18050" pt_clust_6="45.19117"></scales>
<clustering>
<clus scale="   36.180">  2  5  1 -1</clus>
<clus scale="   45.191">  2  6  1 -1</clus>
<clus scale="   69.301">  1  4  2 -1</clus>
<clus scale="   69.301">  1  3  2 -1</clus>
</clustering>
</event>
<event>
 6    0  0.3446372E+002  0.1710417E+03  0.7546771E-02  0.1176766E+00
         21   -1    0    0  503  501  0.00000000000E+00  0.00000000000E+00  0.29112872871E+03  0.29112872871E+03  0.00000000000E+00 0. -1.
         21   -1    0    0  504  502 -0.00000000000E+00 -0.00000000000E+00 -0.17997378365E+03  0.17997378365E+03  0.00000000000E+00 0.  1.
         21    1    1    2  503  505 -0.37735154456E+02 -0.36555146392E+01  0.10825667784E+03  0.11470315151E+03  0.00000000000E+00 0.  1.
         21    1    1    2  504  506 -0.42986885355E+02  0.11209088674E+03 -0.45852104012E+02  0.12850935625E+03  0.00000000000E+00 0.  1.
         21    1    1    2  505  502  0.54970188093E+02 -0.15171379586E+03  0.66446927817E+02  0.17451072073E+03  0.00000000000E+00 0. -1.
         21    1    1    2  506  501  0.25751851719E+02  0.43278423758E+02 -0.17696556592E+02  0.53379283857E+02  0.00000000000E+00 0. -1.
<scales pt_clust_3="37.91180" pt_clust_4="42.56635" pt_clust_5="156.99324" pt_clust_6="42.56635"></scales>
<clustering>
<clus scale="   37.912">  1  3  2 -1</clus>
<clus scale="   42.566">  4  6 -1 -1</clus>
<clus scale="  156.993">  1  5  2 -1</clus>
<clus scale="   37.912">  1  3  2 -1</clus>
</clustering>
</event>
<event>
 6    0  0.3446372E+002  0.1247487E+03  0.7546771E-02  0.1235463E+00
         21   -1    0    0  503  501  0.00000000000E+00  0.00000000000E+00  0.12902406496E+03  0.12902406496E+03  0.00000000000E+00 0.  1.
         21   -1    0    0  506  502 -0.00000000000E+00 -0.00000000000E+00 -0.31524226764E+03  0.31524226764E+03  0.00000000000E+00 0.  1.
         21    1    1    2  503  502 -0.28911950032E+02 -0.16743229214E+02 -0.36007444728E+02  0.49119982237E+02  0.00000000000E+00 0.  1.
         21    1    1    2  504  501  0.50976187118E+02 -0.53557940041E+01  0.76965569530E+00  0.51262545318E+02  0.00000000000E+00 0.  1.
         21    1    1    2  505  504 -0.37700298417E+02  0.13344945853E+03  0.19113413210E+02  0.13998354563E+03  0.00000000000E+00 0.  1.
         21    1    1    2  506  505  0.15636061331E+02 -0.11135043531E+03 -0.17009382685E+03  0.20390025942E+03  0.00000000000E+00 0.  1.
<scales pt_clust_3="33.41013" pt_clust_4="48.79054" pt_clust_5="14000.00000" pt_clust_6="124.74869"></scales>
<clustering>
<clus scale="   33.410">  2  3  1 -1</clus>
<clus scale="   48.791">  1  4  2 -1</clus>
<clus scale="  124.749">  2  6  1 -1</clus>
<clus scale="   48.791">  1  3  2 -1</clus>
</clustering>
</event>
<event>
 6    0  0.3446372E+002  0.1149831E+03  0.7546771E-02  0.1251611E+00
         21   -1    0    0  503  501  0.00000000000E+00  0.00000000000E+00  0.45160161858E+03  0.45160161858E+03  0.00000000000E+00 0. -1.
         21   -1    0    0  504  502 -0.00000000000E+00 -0.00000000000E+00 -0.20335740329E+03  0.20335740329E+03  0.00000000000E+00 0. -1.
         21    1    1    2  503  502 -0.43052459166E+02  0.46900814955E+02  0.28794887097E+03  0.29490295519E+03  0.00000000000E+00 0. -1.
         21    1    1    2  504  506  0.70653021710E+02  0.22082734355E+02 -0.14338117600E+03  0.16136188604E+03  0.00000000000E+00 0. -1.
         21    1    1    2  505  501 -0.63554754114E+02 -0.63385841197E+02  0.12696692613E+03  0.15549138872E+03  0.00000000000E+00 0. -1.
         21    1    1    2  506  505  0.35954191569E+02 -0.55977081134E+01 -0.23290405810E+02  0.43202791927E+02  0.00000000000E+00 0. -1.
<scales pt_clust_3="63.66475" pt_clust_4="34.56465" pt_clust_5="103.87819" pt_clust_6="34.56465"></scales>
<clustering>
<clus scale="   34.565">  4  6 -1 -1</clus>
<clus scale="   63.665">  1  3  2 -1</clus>
<clus scale="  103.878">  1  5  2 -1</clus>
<clus scale="   63.665">  1  3  2 -1</clus>
</clustering>
</event>
<event>
 6    0  0.3446372E+002  0.1866167E+03  0.7546771E-02  0.1161549E+00
         21   -1    0    0  502  501  0.00000000000E+00  0.00000000000E+00  0.53885434718E+03  0.53885434718E+03  0.00000000000E+00 0. -1.
         21   -1    0    0  503  502 -0.00000000000E+00 -0.00000000000E+00 -0.12776524962E+03  0.12776524962E+03  0.00000000000E+00 0. -1.
         21    1    1    2  503  505  0.64166844621E+01 -0.91273668490E+02 -0.61725870897E+01  0.91706909394E+02  0.00000000000E+00 0. -1.
         21    1    1    2  504  501 -0.12368013987E+02  0.13240408606E+03  0.25850891527E+03  0.29070718781E+03  0.00000000000E+00 0. -1.
         21    1    1    2  505  506  0.32814713181E+02 -0.76130862766E+02 -0.31664700726E+02  0.88743264188E+02  0.00000000000E+00 0. -1.
         21    1    1    2  506  504 -0.26863383656E+02  0.35000445200E+02  0.19041747010E+03  0.19546223540E+03  0.00000000000E+00 0. -1.
<scales pt_clust_3="176.43867" pt_clust_4="41.78519" pt_clust_5="37.68250" pt_clust_6="41.78519"></scales>
<clustering>
<clus scale="   37.683">  3  5 -1 -1</clus>
<clus scale="   41.785">  4  6 -1 -1</clus>
<clus scale="  176.439">  2  3  1 -1</clus>
<clus scale="  186.617">  1  3  2 -1</clus>
</clustering>
</event>
<event>
 6    0  0.3446372E+002  0.1587418E+03  0.7546771E-02  0.1190125E+00
         21   -1    0    0  506  501  0.00000000000E+00  0.00000000000E+00  0.75081934056E+03  0.75081934056E+03  0.00000000000E+00 0.  1.
         21   -1    0    0  505  502 -0.00000000000E+00 -0.00000000000E+00 -0.70208278191E+02  0.70208278191E+02  0.00000000000E+00 0.  1.
         21    1    1    2  503  504  0.10862275762E+03  0.22563269672E+00  0.71150296392E+02  0.12985114193E+03  0.00000000000E+00 0.  1.
         21    1    1    2  504  501 -0.14292452686E+03  0.46466252542E+02  0.47491570656E+03  0.49812795679E+03  0.00000000000E+00 0.  1.
         21    1    1    2  505  503  0.43373878159E+02  0.66699494221E+01 -0.42338937254E+01  0.44087496957E+02  0.00000000000E+00 0.  1.
         21    1    1    2  506  502 -0.90721089276E+01 -0.53361834661E+02  0.13877895314E+03  0.14896102307E+03  0.00000000000E+00 0.  1.
<scales pt_clust_3="32.57351" pt_clust_4="150.24197" pt_clust_5="32.57351" pt_clust_6="54.12752"></scales>
<clustering>
<clus scale="   32.574">  3  5 -1 -1</clus>
<clus scale="   54.128">  1  6  2 -1</clus>
<clus scale="  150.242">  1  4  2 -1</clus>
<clus scale="   54.128">  1  3  2 -1</clus>
</clustering>
</event>
<event>
 6    0  0.3446372E+002  0.1035483E+03  0.7546771E-02  0.1273006E+00
         21   -1    0    0  503  501  0.00000000000E+00  0.00000000000E+00  0.19172765828E+03  0.19172765828E+03  0.00000000000E+00 0.  1.
         21   -1    0    0  506  502 -0.00000000000E+00 -0.00000000000E+00 -0.23386561918E+04  0.23386561918E+04  0.00000000000E+00 0. -1.
         21    1    1    2  503  505  0.58553201183E+02 -0.17289098241E+02  0.17310148113E+03  0.18355248039E+03  0.00000000000E+00 0.  1.
         21    1    1    2  504  502  0.37796404004E+02 -0.94911615264E+02 -0.11895175046E+04  0.11938964262E+04  0.00000000000E+00 0. -1.
         21    1    1    2  505  504 -0.12951155337E+03  0.74237997504E+02 -0.53935724268E+03  0.55963448604E+03  0.00000000000E+00 0. -1.
         21    1    1    2  506  501  0.33161948183E+02  0.37962716002E+02 -0.59115526746E+03  0.59330045749E+03  0.00000000000E+00 0. -1.
<scales pt_clust_3="61.11551" pt_clust_4="103.54834" pt_clust_5="14000.00000" pt_clust_6="50.40717"></scales>
<clustering>
<clus scale="   50.407">  2  6  1 -1</clus>
<clus scale="   61.116">  1  3  2 -1</clus>
<clus scale="  103.548">  2  4  1 -1</clus>
<clus scale="   61.116">  1  3  2 -1</clus>
</clustering>
</event>
<event>
 6    0  0.3446372E+002  0.7947881E+02  0.7546771E-02  0.1330537E+00
         21   -1    0    0  506  501  0.00000000000E+00  0.00000000000E+00  0.30303550048E+02  0.30303550048E+02  0.00000000000E+00 0. -1.
         21   -1    0    0  505  502 -0.00000000000E+00 -0.00000000000E+00 -0.20241386707E+04  0.20241386707E+04  0.00000000000E+00 0.  1.
         21    1    1    2  503  501 -0.25826709715E+02  0.50543635721E+02 -0.32443140102E+02  0.65377636744E+02  0.00000000000E+00 0. -1.
         21    1    1    2  504  502  0.24121444144E+01  0.46719812065E+02 -0.52580363166E+03  0.52788068571E+03  0.00000000000E+00 0.  1.
         21    1    1    2  505  503  0.81994577726E+02 -0.59638591225E+02 -0.13350383049E+04  0.13388827984E+04  0.00000000000E+00 0.  1.
         21    1    1    2  506  504 -0.58580012425E+02 -0.37624856562E+02 -0.10055004404E+03  0.12230109993E+03  0.00000000000E+00 0. -1.
<scales pt_clust_3="58.08801" pt_clust_4="46.78204" pt_clust_5="14000.00000" pt_clust_6="79.47881"></scales>
<clustering>
<clus scale="   46.782">  2  4  1 -1</clus>
<clus scale="   58.088">  1  3  2 -1</clus>
<clus scale="   79.479">  1  6  2 -1</clus>
<clus scale="   58.088">  1  3  2 -1</clus>
</clustering>
</event>
<event>
 6    0  0.3446372E+002  0.1882639E+03  0.7546771E-02  0.1160037E+00
         21   -1    0    0  503  501  0.00000000000E+00  0.00000000000E+00  0.60180497788E+03  0.60180497788E+03  0.00000000000E+00 0.  1.
         21   -1    0    0  505  502 -0.00000000000E+00 -0.00000000000E+00 -0.13305560449E+03  0.13305560449E+03  0.00000000000E+00 0. -1.
         21    1    1    2  503  502  0.19121165383E+02  0.44405955451E+02  0.17370149382E+03  0.18030451132E+03  0.00000000000E+00 0.  1.
         21    1    1    2  504  501 -0.13568792968E+03  0.79287765360E+02  0.32487944317E+03  0.36089391321E+03  0.00000000000E+00 0.  1.
         21    1    1    2  505  506  0.74993870442E+02 -0.22702115469E+02 -0.31464750261E+02  0.84436349753E+02  0.00000000000E+00 0. -1.
         21    1    1    2  506  504  0.41572893859E+02 -0.10099160534E+03  0.16331866473E+01  0.10922580809E+03  0.00000000000E+00 0. -1.
<scales pt_clust_3="48.34778" pt_clust_4="166.48159" pt_clust_5="76.16302" pt_clust_6="76.16302"></scales>
<clustering>
<clus scale="   48.348">  1  3  2 -1</clus>
<clus scale="   76.163">  5  6 -1 -1</clus>
<clus scale="  166.482">  1  4  2 -1</clus>
<clus scale="   48.348">  1  3  2 -1</clus>
</clustering>
</event>
<event>
 6    0  0.3446372E+002  0.1955893E+03  0.7546771E-02  0.1153515E+00
         21   -1    0    0  505  501  0.00000000000E+00  0.00000000000E+00  0.58138991206E+03  0.58138991206E+03  0.00000000000E+00 0.  1.
         21   -1    0    0  504  502 -0.00000000000E+00 -0.00000000000E+00 -0.38121454751E+03  0.38121454751E+03  0.00000000000E+00 0. -1.
         21    1    1    2  503  506  0.55113972447E+02  0.15532417412E+03  0.15949788111E+03  0.22935283540E+03  0.00000000000E+00 0.  1.
         21    1    1    2  504  501 -0.40172681776E+02  0.25111964799E+02  0.11848149582E+02  0.48834760014E+02  0.00000000000E+00 0.  1.
         21    1    1    2  505  503  0.20720971668E+02 -0.24055395007E+03  0.31099765975E+03  0.39371957779E+03  0.00000000000E+00 0.  1.
         21    1    1    2  506  502 -0.35662262339E+02  0.60117811148E+02 -0.28216832589E+03  0.29069728638E+03  0.00000000000E+00 0. -1.
<scales pt_clust_3="195.58927" pt_clust_4="47.37568" pt_clust_5="14000.00000" pt_clust_6="70.22552"></scales>
<clustering>
<clus scale="   47.376">  1  4  2 -1</clus>
<clus scale="   70.226">  2  6  1 -1</clus>
<clus scale="  195.589">  2  3  1 -1</clus>
<clus scale="   47.376">  1  3  2 -1</clus>
</clustering>
</event>
<event>
 6    0  0.3446372E+002  0.1387363E+03  0.7546771E-02  0.1215040E+00
         21   -1    0    0  506  501  0.00000000000E+00  0.00000000000E+00  0.15843165051E+03  0.15843165051E+03  0.00000000000E+00 0.  1.
         21   -1    0    0  503  502 -0.00000000000E+00 -0.00000000000E+00 -0.64843057859E+03  0.64843057859E+03  0.00000000000E+00 0.  1.
         21    1    1    2  503  505 -0.72440884242E+02  0.11192852522E+02 -0.11322864870E+03  0.13488398179E+03  0.00000000000E+00 0. -1.
         21    1    1    2  504  502  0.14083837552E+03  0.33704217980E+02 -0.47908742653E+03  0.50049593863E+03  0.00000000000E+00 0.  1.
         21    1    1    2  505  501 -0.29734497664E+02  0.17285746407E+02 -0.11396818541E+02  0.36232924986E+02  0.00000000000E+00 0. -1.
         21    1    1    2  506  504 -0.38662993612E+02 -0.62182816909E+02  0.11371396569E+03  0.13524938368E+03  0.00000000000E+00 0.  1.
<scales pt_clust_3="34.24047" pt_clust_4="129.41832" pt_clust_5="34.24047" pt_clust_6="73.22247"></scales>
<clustering>
<clus scale="   34.240">  3  5 -1 -1</clus>
<clus scale="   73.222">  1  6  2 -1</clus>
<clus scale="  129.418">  2  4  1 -1</clus>
<clus scale="   73.222">  1  3  2 -1</clus>
</clustering>
</event>
<event>
 6    0  0.3446372E+002  0.1457443E+03  0.7546771E-02  0.1205802E+00
         21   -1    0    0  504  501  0.00000000000E+00  0.00000000000E+00  0.10686216481E+04  0.10686216481E+04  0.00000000000E+00 0. -1.
         21   -1    0    0  503  502 -0.00000000000E+00 -0.00000000000E+00 -0.10380378701E+03  0.10380378701E+03  0.00000000000E+00 0. -1.
         21    1    1    2  503  506  0.52020436119E+02 -0.30248588405E+02  0.48879573793E+02  0.77526225296E+02  0.00000000000E+00 0. -1.
         21    1    1    2  504  505 -0.41403749212E+02 -0.12836953949E+03  0.55499873273E+03  0.57115374677E+03  0.00000000000E+00 0. -1.
         21    1    1    2  505  502  0.12600654658E+03  0.14346776333E+03  0.33241842003E+03  0.38335708533E+03  0.00000000000E+00 0. -1.
         21    1    1    2  506  501 -0.13662323349E+03  0.15150364557E+02  0.28521134502E+02  0.14038837768E+03  0.00000000000E+00 0. -1.
<scales pt_clust_3="60.17560" pt_clust_4="145.74434" pt_clust_5="14000.00000" pt_clust_6="104.17342"></scales>
<clustering>
<clus scale="   60.176">  2  3  1 -1</clus>
<clus scale="  104.173">  2  6  1 -1</clus>
<clus scale="  145.744">  1  4  2 -1</clus>
<clus scale="  145.744">  1  3  2 -1</clus>
</clustering>
</event>
<event>
 6    0  0.3446372E+002  0.2265911E+03  0.7546771E-02  0.1129062E+00
         21   -1    0    0  504  501  0.00000000000E+00  0.00000000000E+00  0.42463392733E+03  0.42463392733E+03  0.00000000000E+00 0. -1.
         21   -1    0    0  506  502 -0.00000000000E+00 -0.00000000000E+00 -0.51995820117E+03  0.51995820117E+03  0.00000000000E+00 0. -1.
         21    1    1    2  503  502  0.21943061938E+03  0.22041659593E+02 -0.13048977045E+03  0.25624833984E+03  0.00000000000E+00 0. -1.
         21    1    1    2  504  503 -0.19528902461E+02  0.28027685341E+02  0.32301120319E+03  0.32481250986E+03  0.00000000000E+00 0. -1.
         21    1    1    2  505  501 -0.28935425846E+02  0.19297849766E+02 -0.27006756665E+02  0.44034427213E+02  0.00000000000E+00 0.  1.
         21    1    1    2  506  505 -0.17096629107E+03 -0.69367194699E+02 -0.26083894992E+03  0.31949685159E+03  0.00000000000E+00 0. -1.
<scales pt_clust_3="210.97710" pt_clust_4="34.16035" pt_clust_5="37.01076" pt_clust_6="37.01076"></scales>
<clustering>
<clus scale="   34.160">  1  4  2 -1</clus>
<clus scale="   37.011">  5  6 -1 -1</clus>
<clus scale="  210.977">  1  3  2 -1</clus>
<clus scale="   34.160">  1  3  2 -1</clus>
</clustering>
</event>
<event>
 6    0  0.3446372E+002  0.1533188E+03  0.7546771E-02  0.1196453E+00
         21   -1    0    0  505  501  0.00000000000E+00  0.00000000000E+00  0.62619708061E+03  0.62619708061E+03  0.00000000000E+00 0.  1.
         21   -1    0    0  504  502 -0.00000000000E+00 -0.00000000000E+00 -0.95166571397E+03  0.95166571397E+03  0.00000000000E+00 0. -1.
         21    1    1    2  503  501  0.25526163962E+02 -0.26900160821E+02  0.44009219999E+03  0.44165184047E+03  0.00000000000E+00 0.  1.
         21    1    1    2  504  506  0.35877948455E+02 -0.69469835843E+01 -0.18428820510E+03  0.18787663587E+03  0.00000000000E+00 0. -1.
         21    1    1    2  505  502 -0.11653316652E+03  0.13476475823E+03  0.13459620036E+03  0.22328828028E+03  0.00000000000E+00 0.  1.
         21    1    1    2  506  503  0.55129054104E+02 -0.10091761382E+03 -0.71586882861E+03  0.72504603796E+03  0.00000000000E+00 0. -1.
<scales pt_clust_3="37.08374" pt_clust_4="32.02910" pt_clust_5="142.40282" pt_clust_6="32.02910"></scales>
<clustering>
<clus scale="   32.029">  4  6 -1 -1</clus>
<clus scale="   37.084">  1  3  2 -1</clus>
<clus scale="  142.403">  1  5  2 -1</clus>
<clus scale="   37.084">  1  3  2 -1</clus>
</clustering>
</event>
<event>
 6    0  0.3446372E+002  0.1175755E+03  0.7546771E-02  0.1247151E+00
         21   -1    0    0  504  501  0.00000000000E+00  0.00000000000E+00  0.51122735698E+03  0.51122735698E+03  0.00000000000E+00 0.  1.
         21   -1    0    0  506  502 -0.00000000000E+00 -0.00000000000E+00 -0.85872171333E+03  0.85872171333E+03  0.00000000000E+00 0.  1.
         21    1    1    2  503  501  0.13845084662E+03 -0.27796538399E+02  0.43945023022E+03  0.46158183383E+03  0.00000000000E+00 0.  1.
         21    1    1    2  504  505 -0.22743221436E+02  0.22912432388E+02  0.37178054758E+02  0.49238617312E+02  0.00000000000E+00 0.  1.
         21    1    1    2  505  502  0.48658638895E+02  0.36371035231E+02 -0.11002146219E+03  0.12567910521E+03  0.00000000000E+00 0.  1.
         21    1    1    2  506  503 -0.16436626408E+03 -0.31486929221E+02 -0.71410117915E+03  0.73344951397E+03  0.00000000000E+00 0.  1.
<scales pt_clust_3="14000.00000" pt_clust_4="32.28364" pt_clust_5="60.67671" pt_clust_6="117.57547"></scales>
<clustering>
<clus scale="   32.284">  1  4  2 -1</clus>
<clus scale="   60.677">  2  5  1 -1</clus>
<clus scale="  117.575">  2  6  1 -1</clus>
<clus scale="   32.284">  1  3  2 -1</clus>
</clustering>
</event>
<event>
 6    0  0.3446372E+002  0.9213014E+02  0.7546771E-02  0.1297774E+00
         21   -1    0    0  504  501  0.00000000000E+00  0.00000000000E+00  0.22791412977E+04  0.22791412977E+04  0.00000000000E+00 0.  1.
         21   -1    0    0  505  502 -0.00000000000E+00 -0.00000000000E+00 -0.44805814864E+03  0.44805814864E+03  0.00000000000E+00 0.  1.
         21    1    1    2  503  501 -0.58699030568E+02  0.54826597077E+02  0.57111913292E+03  0.57673962576E+03  0.00000000000E+00 0.  1.
         21    1    1    2  504  502 -0.39414362283E+02 -0.69116103734E+02  0.16837519476E+04  0.16856307867E+04  0.00000000000E+00 0.  1.
         21    1    1    2  505  506  0.40000767339E+02  0.37972302448E+02 -0.38937042133E+03  0.39325727222E+03  0.00000000000E+00 0.  1.
         21    1    1    2  506  503  0.58112625511E+02 -0.23682795791E+02 -0.34417510195E+02  0.71571761668E+02  0.00000000000E+00 0.  1.
<scales pt_clust_3="14000.00000" pt_clust_4="78.69092" pt_clust_5="55.15394" pt_clust_6="92.13014"></scales>
<clustering>
<clus scale="   55.154">  2  5  1 -1</clus>
<clus scale="   78.691">  1  4  2 -1</clus>
<clus scale="   92.130">  2  6  1 -1</clus>
<clus scale="   78.691">  1  3  2 -1</clus>
</clustering>
</event>
<event>
 6    0  0.3446372E+002  0.1338851E+03  0.7546771E-02  0.1221802E+00
         21   -1    0    0  503  501  0.00000000000E+00  0.00000000000E+00  0.15649749382E+04  0.15649749382E+04  0.00000000000E+00 0.  1.
         21   -1    0    0  506  502 -0.00000000000E+00 -0.00000000000E+00 -0.24925471661E+03  0.24925471661E+03  0.00000000000E+00 0. -1.
         21    1    1    2  503  505 -0.16085706557E+03 -0.68792670275E+01  0.82573996344E+03  0.84128996612E+03  0.00000000000E+00 0.  1.
         21    1    1    2  504  502  0.30379773982E+02  0.34916469358E+02 -0.14046909499E+03  0.14789745484E+03  0.00000000000E+00 0. -1.
         21    1    1    2  505  504  0.27617375415E+02  0.48347621604E+02 -0.83129087873E+02  0.10005327176E+03  0.00000000000E+00 0. -1.
         21    1    1    2  506  501  0.10285991617E+03 -0.76384823935E+02  0.71357844102E+03  0.72498896210E+03  0.00000000000E+00 0.  1.
<scales pt_clust_3="133.88508" pt_clust_4="31.40922" pt_clust_5="107.16070" pt_clust_6="14000.00000"></scales>
<clustering>
<clus scale="   31.409">  4  5 -1 -1</clus>
<clus scale="  107.161">  2  4  1 -1</clus>
<clus scale="  133.885">  2  3  1 -1</clus>
<clus scale="  133.885">  1  3  2 -1</clus>
</clustering>
</event>
<event>
 6    0  0.3446372E+002  0.1547357E+03  0.7546771E-02  0.1194772E+00
         21   -1    0    0  506  501  0.00000000000E+00  0.00000000000E+00  0.81980810555E+03  0.81980810555E+03  0.00000000000E+00 0. -1.
         21   -1    0    0  501  502 -0.00000000000E+00 -0.00000000000E+00 -0.16487053414E+03  0.16487053414E+03  0.00000000000E+00 0.  1.
         21    1    1    2  503  504 -0.21156774007E+02 -0.37642379959E+02  0.47518350364E+01  0.43441199242E+02  0.00000000000E+00 0. -1.
         21    1    1    2  504  502  0.85879015354E+02  0.16256792877E+03 -0.66684146517E+02  0.19557687015E+03  0.00000000000E+00 0.  1.
         21    1    1    2  505  503 -0.20723359418E+02 -0.52962688169E+02  0.57348311444E+02  0.80767151672E+02  0.00000000000E+00 0. -1.
         21    1    1    2  506  505 -0.43998881930E+02 -0.71962860642E+02  0.65952157145E+03  0.66489341863E+03  0.00000000000E+00 0. -1.
<scales pt_clust_3="34.94166" pt_clust_4="149.44927" pt_clust_5="34.94166" pt_clust_6="84.34782"></scales>
<clustering>
<clus scale="   34.942">  3  5 -1 -1</clus>
<clus scale="   84.348">  1  6  2 -1</clus>
<clus scale="  149.449">  2  4  1 -1</clus>
<clus scale="   84.348">  1  3  2 -1</clus>
</clustering>
</event>
<event>
 6    0  0.3446372E+002  0.1638869E+03  0.7546771E-02  0.1184377E+00
         21   -1    0    0  502  501  0.00000000000E+00  0.00000000000E+00  0.39890296233E+03  0.39890296233E+03  0.00000000000E+00 0.  1.
         21   -1    0    0  506  502 -0.00000000000E+00 -0.00000000000E+00 -0.16227037561E+03  0.16227037561E+03  0.00000000000E+00 0.  1.
         21    1    1    2  503  501  0.17164214154E+03  0.11676726240E+02  0.21982000072E+03  0.27913832307E+03  0.00000000000E+00 0.  1.
         21    1    1    2  504  503 -0.14314554870E+03  0.84816123508E+02  0.36086314932E+02  0.17025464765E+03  0.00000000000E+00 0.  1.
         21    1    1    2  505  504 -0.39107243875E+02 -0.62381233097E+02 -0.67912981686E+01  0.73938599506E+02  0.00000000000E+00 0.  1.
         21    1    1    2  506  505  0.10610651040E+02 -0.34111616651E+02 -0.12482430766E+02  0.37841767716E+02  0.00000000000E+00 0.  1.
<scales pt_clust_3="163.88686" pt_clust_4="14000.00000" pt_clust_5="110.10619" pt_clust_6="31.15492"></scales>
<clustering>
<clus scale="   31.155">  5  6 -1 -1</clus>
<clus scale="  110.106">  2  5  1 -1</clus>
<clus scale="  163.887">  1  3  2 -1</clus>
<clus scale="  163.887">  1  3  2 -1</clus>
</clustering>
</event>
<event>
 6    0  0.3446372E+002  0.1618762E+03  0.7546771E-02  0.1186595E+00
         21   -1    0    0  504  501  0.00000000000E+00  0.00000000000E+00  0.10164886040E+03  0.10164886040E+03  0.00000000000E+00 0.  1.
         21   -1    0    0  505  502 -0.00000000000E+00 -0.00000000000E+00 -0.53253734788E+03  0.53253734788E+03  0.00000000000E+00 0.  1.
         21    1    1    2  503  506 -0.78623223928E+02 -0.17414208662E+03 -0.15323709360E+03  0.24492587558E+03  0.00000000000E+00 0.  1.
         21    1    1    2  504  503  0.32482045279E+02  0.36837511944E+02  0.54167301850E+01  0.49410793534E+02  0.00000000000E+00 0.  1.
         21    1    1    2  505  501 -0.31848498858E+02  0.97635155314E+01 -0.25157676140E+02  0.41744002968E+02  0.00000000000E+00 0. -1.
         21    1    1    2  506  502  0.77989677507E+02  0.12754105914E+03 -0.25791044792E+03  0.29810553620E+03  0.00000000000E+00 0.  1.
<scales pt_clust_3="161.87617" pt_clust_4="45.95039" pt_clust_5="33.31146" pt_clust_6="14000.00000"></scales>
<clustering>
<clus scale="   33.311">  1  5  2 -1</clus>
<clus scale="   45.950">  1  4  2 -1</clus>
<clus scale="  161.876">  1  3  2 -1</clus>
<clus scale="   33.311">  1  3  2 -1</clus>
</clustering>
</event>
<event>
 6    0  0.3446372E+002  0.1497256E+03  0.7546771E-02  0.1200811E+00
         21   -1    0    0  505  501  0.00000000000E+00  0.00000000000E+00  0.54510546856E+03  0.54510546856E+03  0.00000000000E+00 0. -1.
         21   -1    0    0  503  502 -0.00000000000E+00 -0.00000000000E+00 -0.89848246815E+02  0.89848246815E+02  0.00000000000E+00 0. -1.
         21    1    1    2  503  504  0.11461175367E+03 -0.67802021150E+02  0.88534470445E+02  0.15991035178E+03  0.00000000000E+00 0. -1.
         21    1    1    2  504  506 -0.73241848135E+02 -0.12275807530E+02  0.96912181429E+02  0.12209436792E+03  0.00000000000E+00 0. -1.
         21    1    1    2  505  502  0.65709016865E+02  0.82863863668E+02  0.19649312390E+03  0.22314489136E+03  0.00000000000E+00 0. -1.
         21    1    1    2  506  501 -0.10707892240E+03 -0.27860349877E+01  0.73317445968E+02  0.12980410431E+03  0.00000000000E+00 0. -1.
<scales pt_clust_3="143.82444" pt_clust_4="34.65537" pt_clust_5="105.75488" pt_clust_6="34.65537"></scales>
<clustering>
<clus scale="   34.655">  4  6 -1 -1</clus>
<clus scale="  105.755">  1  5  2 -1</clus>
<clus scale="  143.824">  2  3  1 -1</clus>
<clus scale="  105.755">  1  3  2 -1</clus>
</clustering>
</event>
<event>
 6    0  0.3446372E+002  0.1123064E+03  0.7546771E-02  0.1256358E+00
         21   -1    0    0  503  501  0.00000000000E+00  0.00000000000E+00  0.84985214294E+03  0.84985214294E+03  0.00000000000E+00 0. -1.
         21   -1    0    0  504  502 -0.00000000000E+00 -0.00000000000E+00 -0.70304396916E+03  0.70304396916E+03  0.00000000000E+00 0.  1.
         21    1    1    2  503  505  0.82968357428E+02  0.70908999406E+02  0.61082918184E+03  0.62050312160E+03  0.00000000000E+00 0. -1.
         21    1    1    2  504  506 -0.17212666169E+02 -0.14570586195E+03 -0.65185128068E+03  0.66815908750E+03  0.00000000000E+00 0.  1.
         21    1    1    2  505  502 -0.17011441143E+02  0.38599686188E+02 -0.20740966956E+02  0.47005453022E+02  0.00000000000E+00 0.  1.
         21    1    1    2  506  501 -0.48744250117E+02  0.36197176355E+02  0.20857123958E+03  0.21722844997E+03  0.00000000000E+00 0.  1.
<scales pt_clust_3="14000.00000" pt_clust_4="112.30635" pt_clust_5="42.18204" pt_clust_6="60.95175"></scales>
<clustering>
<clus scale="   42.182">  2  5  1 -1</clus>
<clus scale="   60.952">  1  6  2 -1</clus>
<clus scale="  112.306">  2  4  1 -1</clus>
<clus scale="   60.952">  1  3  2 -1</clus>
</clustering>
</event>
<event>
 6    0  0.3446372E+002  0.1783929E+03  0.7546771E-02  0.1169368E+00
         21   -1    0    0  504  501  0.00000000000E+00  0.00000000000E+00  0.27254691977E+04  0.27254691977E+04  0.00000000000E+00 0.  1.
         21   -1    0    0  505  502 -0.00000000000E+00 -0.00000000000E+00 -0.42877051749E+02  0.42877051749E+02  0.00000000000E+00 0.  1.
         21    1    1    2  503  501 -0.37079709474E+02  0.12085006561E+02  0.17646053438E+03  0.18071876614E+03  0.00000000000E+00 0.  1.
         21    1    1    2  504  506  0.16390712405E+02  0.18359849826E+03  0.20851927907E+04  0.20933241599E+04  0.00000000000E+00 0.  1.
         21    1    1    2  505  503  0.42703487318E+02 -0.48981310516E+02  0.21885802288E+02  0.68569271185E+02  0.00000000000E+00 0.  1.
         21    1    1    2  506  502 -0.22014490249E+02 -0.14670219430E+03  0.39905301857E+03  0.42573405223E+03  0.00000000000E+00 0.  1.
<scales pt_clust_3="38.99939" pt_clust_4="14000.00000" pt_clust_5="64.38925" pt_clust_6="178.39289"></scales>
<clustering>
<clus scale="   38.999">  1  3  2 -1</clus>
<clus scale="   64.389">  2  5  1 -1</clus>
<clus scale="  178.393">  2  6  1 -1</clus>
<clus scale="   38.999">  1  3  2 -1</clus>
</clustering>
</event>
<event>
 6    0  0.3446372E+002  0.1237313E+03  0.7546771E-02  0.1237066E+00
         21   -1    0    0  506  501  0.00000000000E+00  0.00000000000E+00  0.24785892794E+04  0.24785892794E+04  0.00000000000E+00 0.  1.
         21   -1    0    0  503  502 -0.00000000000E+00 -0.00000000000E+00 -0.10043870095E+03  0.10043870095E+03  0.00000000000E+00 0.  1.
         21    1    1    2  503  505 -0.29358097786E+02  0.42621864434E+02 -0.82266123181E+01  0.52404182883E+02  0.00000000000E+00 0. -1.
         21    1    1    2  504  502 -0.10133993257E+03 -0.47287890334E+02  0.32436643629E+02  0.11643909290E+03  0.00000000000E+00 0.  1.
         21    1    1    2  505  501  0.14278679849E+03 -0.38782581580E+02  0.16835103154E+03  0.22412993615E+03  0.00000000000E+00 0.  1.
         21    1    1    2  506  504 -0.12088768138E+02  0.43448607481E+02  0.21855895156E+04  0.21860547684E+04  0.00000000000E+00 0.  1.
<scales pt_clust_3="54.98266" pt_clust_4="14000.00000" pt_clust_5="123.73128" pt_clust_6="45.09900"></scales>
<clustering>
<clus scale="   45.099">  1  6  2 -1</clus>
<clus scale="   54.983">  2  3  1 -1</clus>
<clus scale="  123.731">  1  5  2 -1</clus>
<clus scale="   45.099">  1  3  2 -1</clus>
</clustering>
</event>
<event>
 6    0  0.3446372E+002  0.1021943E+03  0.7546771E-02  0.1275748E+00
         21   -1    0    0  505  501  0.00000000000E+00  0.00000000000E+00  0.21152858836E+04  0.21152858836E+04  0.00000000000E+00 0. -1.
         21   -1    0    0  504  502 -0.00000000000E+00 -0.00000000000E+00 -0.37824465907E+02  0.37824465907E+02  0.00000000000E+00 0. -1.
         21    1    1    2  503  502 -0.30200822656E+02 -0.33160509570E+01 -0.10689232078E+02  0.32207849438E+02  0.00000000000E+00 0. -1.
         21    1    1    2  504  501 -0.65367116193E+02 -0.50884036745E+02  0.89994301860E+03  0.90374746572E+03  0.00000000000E+00 0. -1.
         21    1    1    2  505  506  0.13873493409E+03  0.89587394592E+02  0.11029850265E+04  0.11152798984E+04  0.00000000000E+00 0. -1.
         21    1    1    2  506  503 -0.43166995239E+02 -0.35387306890E+02  0.85222604689E+02  0.10187513591E+03  0.00000000000E+00 0. -1.
<scales pt_clust_3="30.38233" pt_clust_4="14000.00000" pt_clust_5="102.19434" pt_clust_6="69.27706"></scales>
<clustering>
<clus scale="   30.382">  2  3  1 -1</clus>
<clus scale="   69.277">  2  6  1 -1</clus>
<clus scale="  102.194">  2  5  1 -1</clus>
<clus scale="  102.194">  1  3  2 -1</clus>
</clustering>
</event>
<event>
 6    0  0.3446372E+002  0.9110357E+02  0.7546771E-02  0.1300201E+00
         21   -1    0    0  505  501  0.00000000000E+00  0.00000000000E+00  0.18180687937E+03  0.18180687937E+03  0.00000000000E+00 0.  1.
         21   -1    0    0  503  502 -0.00000000000E+00 -0.00000000000E+00 -0.13791130314E+04  0.13791130314E+04  0.00000000000E+00 0.  1.
         21    1    1    2  503  504 -0.98342207662E+02 -0.13575509226E+02 -0.10272087761E+03  0.14285329172E+03  0.00000000000E+00 0.  1.
         21    1    1    2  504  501  0.14163294559E+02 -0.29741104824E+02  0.15351410002E+03  0.15700863394E+03  0.00000000000E+00 0.  1.
         21    1    1    2  505  506  0.30821246519E+02 -0.32971364283E+02 -0.10650015418E+03  0.11566910971E+03  0.00000000000E+00 0.  1.
         21    1    1    2  506  502  0.53357666584E+02  0.76287978332E+02 -0.11415992203E+04  0.11453888754E+04  0.00000000000E+00 0.  1.
<scales pt_clust_3="91.10357" pt_clust_4="32.94135" pt_clust_5="50.58568" pt_clust_6="14000.00000"></scales>
<clustering>
<clus scale="   32.941">  1  4  2 -1</clus>
<clus scale="   50.586">  1  5  2 -1</clus>
<clus scale="   91.104">  1  3  2 -1</clus>
<clus scale="   32.941">  1  3  2 -1</clus>
</clustering>
</event>
<event>
 6    0  0.3446372E+002  0.1096775E+03  0.7546771E-02  0.1261168E+00
         21   -1    0    0  506  501  0.00000000000E+00  0.00000000000E+00  0.14756822122E+04  0.14756822122E+04  0.00000000000E+00 0.  1.
         21   -1    0    0  505  502 -0.00000000000E+00 -0.00000000000E+00 -0.30949213724E+02  0.30949213724E+02  0.00000000000E+00 0. -1.
         21    1    1    2  503  502 -0.61756826346E+02  0.76015657431E+02  0.12487019711E+03  0.15869735946E+03  0.00000000000E+00 0. -1.
         21    1    1    2  504  501 -0.29806283784E+02 -0.23425682751E+02  0.10381401023E+03  0.11051934620E+03  0.00000000000E+00 0.  1.
         21    1    1    2  505  504 -0.20968659001E+02 -0.29605193552E+02  0.33749769962E+02  0.49549965873E+02  0.00000000000E+00 0. -1.
         21    1    1    2  506  503  0.11253176913E+03 -0.22984781129E+02  0.11822990212E+04  0.11878647544E+04  0.00000000000E+00 0.  1.
<scales pt_clust_3="109.67751" pt_clust_4="81.84370" pt_clust_5="35.37989" pt_clust_6="14000.00000"></scales>
<clustering>
<clus scale="   35.380">  4  5 -1 -1</clus>
<clus scale="   81.844">  2  4  1 -1</clus>
<clus scale="  109.678">  2  3  1 -1</clus>
<clus scale="  109.678">  1  3  2 -1</clus>
</clustering>
</event>
<event>
 6    0  0.3446372E+002  0.2387876E+03  0.7546771E-02  0.1120603E+00
         21   -1    0    0  506  501  0.00000000000E+00  0.00000000000E+00  0.19107631806E+03  0.19107631806E+03  0.00000000000E+00 0.  1.
         21   -1    0    0  503  502 -0.00000000000E+00 -0.00000000000E+00 -0.78399504162E+03  0.78399504162E+03  0.00000000000E+00 0.  1.
         21    1    1    2  503  504 -0.11891646248E+02 -0.64547614795E+02 -0.11964768483E+03  0.13646748445E+03  0.00000000000E+00 0.  1.
         21    1    1    2  504  505  0.64930598667E+02 -0.11620561959E+03 -0.17219991785E+03  0.21765233832E+03  0.00000000000E+00 0.  1.
         21    1    1    2  505  501 -0.66418607945E+02 -0.15922901781E+03 -0.93685631295E+01  0.17278044325E+03  0.00000000000E+00 0.  1.
         21    1    1    2  506  502  0.13379655527E+02  0.33998225220E+03 -0.29170255776E+03  0.44817109366E+03  0.00000000000E+00 0.  1.
<scales pt_clust_3="48.34851" pt_clust_4="48.34851" pt_clust_5="172.52626" pt_clust_6="228.64509"></scales>
<clustering>
<clus scale="   48.349">  3  4 -1 -1</clus>
<clus scale="  172.526">  1  5  2 -1</clus>
<clus scale="  228.645">  1  6  2 -1</clus>
<clus scale="  172.526">  1  3  2 -1</clus>
</clustering>
</event>
<event>
 6    0  0.3446372E+002  0.1434208E+03  0.7546771E-02  0.1208799E+00
         21   -1    0    0  504  501  0.00000000000E+00  0.00000000000E+00  0.79604594774E+02  0.79604594774E+02  0.00000000000E+00 0.  1.
         21   -1    0    0  506  502 -0.00000000000E+00 -0.00000000000E+00 -0.12545610679E+04  0.12545610679E+04  0.00000000000E+00 0. -1.
         21    1    1    2  503  502 -0.10890668764E+02  0.77327872487E+02 -0.66244701939E+03  0.66703392719E+03  0.00000000000E+00 0. -1.
         21    1    1    2  504  505 -0.70347910767E+02 -0.12212188968E+03 -0.64851040048E+01  0.14108380865E+03  0.00000000000E+00 0.  1.
         21    1    1    2  505  503  0.40954687722E+02  0.49880662531E+02 -0.46068869754E+03  0.46518753528E+03  0.00000000000E+00 0. -1.
         21    1    1    2  506  501  0.40283891809E+02 -0.50866453392E+01 -0.45335652186E+02  0.60860391546E+02  0.00000000000E+00 0. -1.
<scales pt_clust_3="53.44845" pt_clust_4="131.01061" pt_clust_5="53.44845" pt_clust_6="40.60377"></scales>
<clustering>
<clus scale="   40.604">  1  6  2 -1</clus>
<clus scale="   53.448">  3  5 -1 -1</clus>
<clus scale="  131.011">  1  4  2 -1</clus>
<clus scale="   40.604">  1  3  2 -1</clus>
</clustering>
</event>
<event>
 6    0  0.3446372E+002  0.1760823E+03  0.7546771E-02  0.1171649E+00
         21   -1    0    0  503  501  0.00000000000E+00  0.00000000000E+00  0.77328065490E+02  0.77328065490E+02  0.00000000000E+00 0. -1.
         21   -1    0    0  506  502 -0.00000000000E+00 -0.00000000000E+00 -0.18614436965E+04  0.18614436965E+04  0.00000000000E+00 0.  1.
         21    1    1    2  503  504  0.17265169864E+03  0.96465947649E+02 -0.11956893900E+03  0.23110824146E+03  0.00000000000E+00 0. -1.
         21    1    1    2  504  502  0.50779560586E+02 -0.57747436271E+02 -0.21565681722E+03  0.22895674915E+03  0.00000000000E+00 0. -1.
         21    1    1    2  505  501 -0.87659471598E+02 -0.93984252321E+02 -0.41408692926E+03  0.43357260941E+03  0.00000000000E+00 0.  1.
         21    1    1    2  506  505 -0.13577178762E+03  0.55265740943E+02 -0.10348029455E+04  0.10451341619E+04  0.00000000000E+00 0.  1.
<scales pt_clust_3="176.08231" pt_clust_4="76.89818" pt_clust_5="14000.00000" pt_clust_6="105.21612"></scales>
<clustering>
<clus scale="   76.898">  2  4  1 -1</clus>
<clus scale="  105.216">  2  6  1 -1</clus>
<clus scale="  176.082">  1  3  2 -1</clus>
<clus scale="  176.082">  1  3  2 -1</clus>
</clustering>
</event>
<event>
 6    0  0.3446372E+002  0.1063479E+03  0.7546771E-02  0.1267486E+00
         21   -1    0    0  503  501  0.00000000000E+00  0.00000000000E+00  0.10053432977E+04  0.10053432977E+04  0.00000000000E+00 0.  1.
         21   -1    0    0  505  502 -0.00000000000E+00 -0.00000000000E+00 -0.36216431796E+02  0.36216431796E+02  0.00000000000E+00 0.  1.
         21    1    1    2  503  504  0.14431643927E+03  0.14768633734E+01  0.72136043877E+03  0.73565637250E+03  0.00000000000E+00 0.  1.
         21    1    1    2  504  502 -0.80904746097E+02  0.11113561878E+02  0.54247072763E+02  0.98039961761E+02  0.00000000000E+00 0.  1.
         21    1    1    2  505  506 -0.25297843732E+02 -0.23424922609E+02  0.68045365812E+02  0.76281581690E+02  0.00000000000E+00 0.  1.
         21    1    1    2  506  501 -0.38113849444E+02  0.10834497357E+02  0.12547398859E+03  0.13158181358E+03  0.00000000000E+00 0.  1.
<scales pt_clust_3="106.34794" pt_clust_4="14000.00000" pt_clust_5="34.47764" pt_clust_6="41.42452"></scales>
<clustering>
<clus scale="   34.478">  2  5  1 -1</clus>
<clus scale="   41.425">  1  6  2 -1</clus>
<clus scale="  106.348">  1  3  2 -1</clus>
<clus scale="   41.425">  1  3  2 -1</clus>
</clustering>
</event>
<event>
 6    0  0.3446372E+002  0.1465177E+03  0.7546771E-02  0.1204819E+00
         21   -1    0    0  504  501  0.00000000000E+00  0.00000000000E+00  0.71842685957E+02  0.71842685957E+02  0.00000000000E+00 0. -1.
         21   -1    0    0  506  502 -0.00000000000E+00 -0.00000000000E+00 -0.60067620065E+03  0.60067620065E+03  0.00000000000E+00 0.  1.
         21    1    1    2  503  502 -0.39692794066E+02 -0.80392808662E+01 -0.11676340786E+03  0.12358738347E+03  0.00000000000E+00 0.  1.
         21    1    1    2  504  505  0.54720378280E+02  0.12493299170E+03 -0.22591135176E+02  0.13824952659E+03  0.00000000000E+00 0. -1.
         21    1    1    2  505  503 -0.19974640135E+02 -0.84875214956E+02 -0.19614795718E+03  0.21465509421E+03  0.00000000000E+00 0.  1.
         21    1    1    2  506  501  0.49470559216E+01 -0.32018495882E+02 -0.19333101447E+03  0.19602688233E+03  0.00000000000E+00 0.  1.
<scales pt_clust_3="41.99153" pt_clust_4="131.02017" pt_clust_5="41.99153" pt_clust_6="32.39842"></scales>
<clustering>
<clus scale="   32.398">  2  6  1 -1</clus>
<clus scale="   41.992">  3  5 -1 -1</clus>
<clus scale="  131.020">  1  4  2 -1</clus>
<clus scale="  131.020">  1  3  2 -1</clus>
</clustering>
</event>
<event>
 6    0  0.3446372E+002  0.1712066E+03  0.7546771E-02  0.1176595E+00
         21   -1    0    0  506  501  0.00000000000E+00  0.00000000000E+00  0.75682275736E+03  0.75682275736E+03  0.00000000000E+00 0. -1.
         21   -1    0    0  501  502 -0.00000000000E+00 -0.00000000000E+00 -0.57020536572E+02  0.57020536572E+02  0.00000000000E+00 0. -1.
         21    1    1    2  503  505  0.10038192914E+03  0.15917920404E+02  0.76931820244E+02  0.12746927808E+03  0.00000000000E+00 0. -1.
         21    1    1    2  504  503 -0.16960970270E+03  0.13508761491E+02  0.30285654382E+03  0.34737879041E+03  0.00000000000E+00 0. -1.
         21    1    1    2  505  502  0.58321059843E+02  0.89182229435E+01  0.10612060943E+03  0.12141855075E+03  0.00000000000E+00 0. -1.
         21    1    1    2  506  504  0.10906713716E+02 -0.38344904839E+02  0.21389324730E+03  0.21757667469E+03  0.00000000000E+00 0. -1.
<scales pt_clust_3="39.09882" pt_clust_4="163.33463" pt_clust_5="39.09882" pt_clust_6="39.86588"></scales>
<clustering>
<clus scale="   39.099">  3  5 -1 -1</clus>
<clus scale="   39.866">  1  6  2 -1</clus>
<clus scale="  163.335">  1  4  2 -1</clus>
<clus scale="   39.866">  1  3  2 -1</clus>
</clustering>
</event>
<event>
 6    0  0.3446372E+002  0.3167863E+03  0.7546771E-02  0.1077138E+00
         21   -1    0    0  505  501  0.00000000000E+00  0.00000000000E+00  0.61445660703E+03  0.61445660703E+03  0.00000000000E+00 0.  1.
         21   -1    0    0  506  502 -0.00000000000E+00 -0.00000000000E+00 -0.93413411505E+03  0.93413411505E+03  0.00000000000E+00 0.  1.
         21    1    1    2  503  504 -0.48630107491E+02  0.27669826481E+02 -0.32351725454E+02  0.64630803738E+02  0.00000000000E+00 0.  1.
         21    1    1    2  504  502 -0.14964633941E+03  0.38811525788E+03 -0.37570802884E+03  0.56052118892E+03  0.00000000000E+00 0.  1.
         21    1    1    2  505  503  0.23319506692E+03 -0.16781225066E+03  0.41940130059E+03  0.50836831298E+03  0.00000000000E+00 0.  1.
         21    1    1    2  506  501 -0.34918620016E+02 -0.24797283370E+03 -0.33101905432E+03  0.41507041644E+03  0.00000000000E+00 0.  1.
<scales pt_clust_3="40.36205" pt_clust_4="40.36205" pt_clust_5="297.05571" pt_clust_6="250.41932"></scales>
<clustering>
<clus scale="   40.362">  3  4 -1 -1</clus>
<clus scale="  250.419">  2  6  1 -1</clus>
<clus scale="  297.056">  1  5  2 -1</clus>
<clus scale="  297.056">  1  3  2 -1</clus>
</clustering>
</event>
<event>
 6    0  0.3446372E+002  0.1394595E+03  0.7546771E-02  0.1214058E+00
         21   -1    0    0  505  501  0.00000000000E+00  0.00000000000E+00  0.18898037432E+04  0.18898037432E+04  0.00000000000E+00 0. -1.
         21   -1    0    0  506  502 -0.00000000000E+00 -0.00000000000E+00 -0.17914014937E+03  0.17914014937E+03  0.00000000000E+00 0. -1.
         21    1    1    2  503  502  0.82680707947E+01  0.52424980222E+02  0.30818592875E+01  0.53162368294E+02  0.00000000000E+00 0. -1.
         21    1    1    2  504  503 -0.27183495014E+02  0.90074198263E+02 -0.10663347996E+03  0.14220760403E+03  0.00000000000E+00 0. -1.
         21    1    1    2  505  504 -0.10017076576E+03 -0.19379448333E+03  0.41939214571E+03  0.47273698392E+03  0.00000000000E+00 0. -1.
         21    1    1    2  506  501  0.11908618998E+03  0.51295304849E+02  0.13948230688E+04  0.14008369363E+04  0.00000000000E+00 0. -1.
<scales pt_clust_3="53.07296" pt_clust_4="139.45946" pt_clust_5="14000.00000" pt_clust_6="130.21971"></scales>
<clustering>
<clus scale="   53.073">  2  3  1 -1</clus>
<clus scale="  130.220">  1  6  2 -1</clus>
<clus scale="  139.459">  2  4  1 -1</clus>
<clus scale="  130.220">  1  3  2 -1</clus>
</clustering>
</event>
<event>
 6    0  0.3446372E+002  0.1128771E+03  0.7546771E-02  0.1255333E+00
         21   -1    0    0  505  501  0.00000000000E+00  0.00000000000E+00  0.53671011550E+03  0.53671011550E+03  0.00000000000E+00 0.  1.
         21   -1    0    0  504  502 -0.00000000000E+00 -0.00000000000E+00 -0.38279206754E+03  0.38279206754E+03  0.00000000000E+00 0.  1.
         21    1    1    2  503  502  0.47381687485E+02 -0.34837710765E+02 -0.37888777599E+02  0.69958915574E+02  0.00000000000E+00 0.  1.
         21    1    1    2  504  501 -0.11778164533E+02 -0.77852314794E+02 -0.31389882758E+03  0.32362351897E+03  0.00000000000E+00 0.  1.
         21    1    1    2  505  506 -0.39841202001E+02  0.47417842695E+02  0.12352106024E+03  0.13817823817E+03  0.00000000000E+00 0. -1.
         21    1    1    2  506  503  0.42376790487E+01  0.65272182864E+02  0.38218459290E+03  0.38774151032E+03  0.00000000000E+00 0.  1.
<scales pt_clust_3="58.81063" pt_clust_4="112.87709" pt_clust_5="60.66080" pt_clust_6="14000.00000"></scales>
<clustering>
<clus scale="   58.811">  2  3  1 -1</clus>
<clus scale="   60.661">  1  5  2 -1</clus>
<clus scale="  112.877">  2  4  1 -1</clus>
<clus scale="   60.661">  1  3  2 -1</clus>
</clustering>
</event>
<event>
 6    0  0.3446372E+002  0.1453366E+03  0.7546771E-02  0.1206323E+00
         21   -1    0    0  503  501  0.00000000000E+00  0.00000000000E+00  0.32280322427E+03  0.32280322427E+03  0.00000000000E+00 0.  1.
         21   -1    0    0  504  502 -0.00000000000E+00 -0.00000000000E+00 -0.19693687519E+03  0.19693687519E+03  0.00000000000E+00 0. -1.
         21    1    1    2  503  506 -0.32500655854E+02 -0.12423899725E+02  0.32461342392E+02  0.47585551013E+02  0.00000000000E+00 0.  1.
         21    1    1    2  504  505 -0.37791717085E+02 -0.16209213871E+02 -0.38067228284E+02  0.56036295057E+02  0.00000000000E+00 0. -1.
         21    1    1    2  505  501  0.69384378215E+02  0.15525535939E+03  0.20760931772E+03  0.26836551076E+03  0.00000000000E+00 0.  1.
         21    1    1    2  506  502  0.90799472431E+00 -0.12662224580E+03 -0.76137082754E+02  0.14775274263E+03  0.00000000000E+00 0. -1.
<scales pt_clust_3="34.79434" pt_clust_4="42.22582" pt_clust_5="145.33659" pt_clust_6="14000.00000"></scales>
<clustering>
<clus scale="   34.794">  1  3  2 -1</clus>
<clus scale="   42.226">  2  4  1 -1</clus>
<clus scale="  145.337">  1  5  2 -1</clus>
<clus scale="   34.794">  1  3  2 -1</clus>
</clustering>
</event>
<event>
 6    0  0.3837873E+002  0.9859331E+02  0.7546771E-02  0.1283282E+00
         21   -1    0    0  505  501  0.00000000000E+00  0.00000000000E+00  0.19293738937E+03  0.19293738937E+03  0.00000000000E+00 0. -1.
         21   -1    0    0  504  502 -0.00000000000E+00 -0.00000000000E+00 -0.13354370840E+04  0.13354370840E+04  0.00000000000E+00 0.  1.
         21    1    1    2  503  502  0.54463713122E+02 -0.11191557279E+02 -0.76744974194E+03  0.76946127479E+03  0.00000000000E+00 0.  1.
         21    1    1    2  504  506 -0.22375311054E+02  0.10464796057E+03 -0.50387933188E+03  0.51511768684E+03  0.00000000000E+00 0.  1.
         21    1    1    2  505  503 -0.63595070194E+02 -0.93654257030E+02  0.16226614896E+03  0.19785286429E+03  0.00000000000E+00 0. -1.
         21    1    1    2  506  501  0.31506668126E+02  0.19785373449E+00 -0.33436769786E+02  0.45942647466E+02  0.00000000000E+00 0.  1.
<scales pt_clust_3="55.76775" pt_clust_4="98.59331" pt_clust_5="14000.00000" pt_clust_6="31.50729"></scales>
<clustering>
<clus scale="   31.507">  1  6  2 -1</clus>
<clus scale="   55.768">  2  3  1 -1</clus>
<clus scale="   98.593">  2  4  1 -1</clus>
<clus scale="   31.507">  1  3  2 -1</clus>
</clustering>
</event>
<event>
 6    0  0.4063361E+002  0.7452172E+02  0.7546771E-02  0.1345359E+00
         21   -1    0    0  505  501  0.00000000000E+00  0.00000000000E+00  0.28077793617E+03  0.28077793617E+03  0.00000000000E+00 0. -1.
         21   -1    0    0  504  502 -0.00000000000E+00 -0.00000000000E+00 -0.10706479199E+04  0.10706479199E+04  0.00000000000E+00 0. -1.
         21    1    1    2  503  502  0.65266583363E+02 -0.15653918602E+02 -0.76429490087E+03  0.76723625277E+03  0.00000000000E+00 0. -1.
         21    1    1    2  504  506 -0.13077032707E+03  0.73023717729E+01 -0.25072461267E+03  0.28287282386E+03  0.00000000000E+00 0.  1.
         21    1    1    2  505  503  0.90429044062E+02 -0.17676355229E+02  0.24387761204E+03  0.26070319369E+03  0.00000000000E+00 0. -1.
         21    1    1    2  506  501 -0.24925300356E+02  0.26027902058E+02 -0.18728082196E+02  0.40613585733E+02  0.00000000000E+00 0.  1.
<scales pt_clust_3="66.95249" pt_clust_4="14000.00000" pt_clust_5="74.52172" pt_clust_6="36.03779"></scales>
<clustering>
<clus scale="   36.038">  1  6  2 -1</clus>
<clus scale="   66.952">  2  3  1 -1</clus>
<clus scale="   74.522">  1  5  2 -1</clus>
<clus scale="   36.038">  1  3  2 -1</clus>
</clustering>
</event>
<event>
 6    0  0.3446372E+002  0.1160600E+03  0.7546771E-02  0.1249742E+00
         21   -1    0    0  505  501  0.00000000000E+00  0.00000000000E+00  0.14133643991E+04  0.14133643991E+04  0.00000000000E+00 0. -1.
         21   -1    0    0  506  502 -0.00000000000E+00 -0.00000000000E+00 -0.19600220451E+03  0.19600220451E+03  0.00000000000E+00 0. -1.
         21    1    1    2  503  501 -0.42310962588E+02 -0.28272600518E+02  0.94275630813E+03  0.94412870628E+03  0.00000000000E+00 0.  1.
         21    1    1    2  504  503 -0.13252872223E+02  0.82588012217E+02  0.38175653258E+03  0.39081257471E+03  0.00000000000E+00 0. -1.
         21    1    1    2  505  502  0.13167354627E+03 -0.98455638973E+02 -0.75541947397E+02  0.18093651221E+03  0.00000000000E+00 0. -1.
         21    1    1    2  506  504 -0.76109711458E+02  0.44140227273E+02 -0.31608698705E+02  0.93488810431E+02  0.00000000000E+00 0. -1.
<scales pt_clust_3="50.88769" pt_clust_4="76.34992" pt_clust_5="14000.00000" pt_clust_6="116.06002"></scales>
<clustering>
<clus scale="   50.888">  1  3  2 -1</clus>
<clus scale="   76.350">  1  4  2 -1</clus>
<clus scale="  116.060">  2  6  1 -1</clus>
<clus scale="   50.888">  1  3  2 -1</clus>
</clustering>
</event>
<event>
 6    0  0.3446372E+002  0.2196620E+03  0.7546771E-02  0.1134135E+00
         21   -1    0    0  504  501  0.00000000000E+00  0.00000000000E+00  0.31828615360E+03  0.31828615360E+03  0.00000000000E+00 0. -1.
         21   -1    0    0  503  502 -0.00000000000E+00 -0.00000000000E+00 -0.32510232176E+03  0.32510232176E+03  0.00000000000E+00 0. -1.
         21    1    1    2  503  506 -0.68502654782E+02  0.31365981167E+02 -0.95576183281E+01  0.75945944954E+02  0.00000000000E+00 0. -1.
         21    1    1    2  504  505 -0.34995804165E+02 -0.91018730784E+02  0.16064240503E+03  0.18792311714E+03  0.00000000000E+00 0. -1.
         21    1    1    2  505  502  0.14954642382E+03 -0.96958937893E+02 -0.54869262751E+02  0.18648271906E+03  0.00000000000E+00 0. -1.
         21    1    1    2  506  501 -0.46047964868E+02  0.15661168751E+03 -0.10303169210E+03  0.19303669421E+03  0.00000000000E+00 0. -1.
<scales pt_clust_3="71.95472" pt_clust_4="97.51469" pt_clust_5="192.44099" pt_clust_6="71.95472"></scales>
<clustering>
<clus scale="   71.955">  3  6 -1 -1</clus>
<clus scale="   97.515">  1  4  2 -1</clus>
<clus scale="  192.441">  2  5  1 -1</clus>
<clus scale="   97.515">  1  3  2 -1</clus>
</clustering>
</event>
<event>
 6    0  0.3446372E+002  0.1835256E+03  0.7546771E-02  0.1164434E+00
         21   -1    0    0  503  501  0.00000000000E+00  0.00000000000E+00  0.19404311210E+03  0.19404311210E+03  0.00000000000E+00 0.  1.
         21   -1    0    0  506  502 -0.00000000000E+00 -0.00000000000E+00 -0.52853085850E+03  0.52853085850E+03  0.00000000000E+00 0.  1.
         21    1    1    2  503  505 -0.13636686260E+03  0.95585025584E+02  0.51744057897E+02  0.17438424774E+03  0.00000000000E+00 0.  1.
         21    1    1    2  504  501  0.19857728054E+03 -0.12785606428E+03 -0.11594612725E+03  0.26310380831E+03  0.00000000000E+00 0.  1.
         21    1    1    2  505  502 -0.36000187739E+02 -0.89608748776E+01 -0.73579536442E+02  0.82403027728E+02  0.00000000000E+00 0.  1.
         21    1    1    2  506  504 -0.26210230201E+02  0.41231913576E+02 -0.19670614060E+03  0.20268288683E+03  0.00000000000E+00 0. -1.
<scales pt_clust_3="183.52560" pt_clust_4="14000.00000" pt_clust_5="37.09866" pt_clust_6="56.27035"></scales>
<clustering>
<clus scale="   37.099">  2  5  1 -1</clus>
<clus scale="   56.270">  2  6  1 -1</clus>
<clus scale="  183.526">  1  3  2 -1</clus>
<clus scale="  183.526">  1  3  2 -1</clus>
</clustering>
</event>
<event>
 6    0  0.3446372E+002  0.2179246E+03  0.7546771E-02  0.1135440E+00
         21   -1    0    0  503  501  0.00000000000E+00  0.00000000000E+00  0.65177822065E+02  0.65177822065E+02  0.00000000000E+00 0. -1.
         21   -1    0    0  505  502 -0.00000000000E+00 -0.00000000000E+00 -0.15507127601E+04  0.15507127601E+04  0.00000000000E+00 0.  1.
         21    1    1    2  503  502 -0.56694802157E+02 -0.67046838917E+02 -0.25905611715E+03  0.27353180991E+03  0.00000000000E+00 0. -1.
         21    1    1    2  504  501  0.21853723007E+02 -0.41806032609E+02 -0.16481048369E+02  0.49969535991E+02  0.00000000000E+00 0. -1.
         21    1    1    2  505  506  0.13546077762E+02  0.25723307200E+03 -0.10107113623E+04  0.10430195623E+04  0.00000000000E+00 0.  1.
         21    1    1    2  506  504  0.21295001387E+02 -0.14838020047E+03 -0.19928641025E+03  0.24936967395E+03  0.00000000000E+00 0. -1.
<scales pt_clust_3="87.80421" pt_clust_4="39.72967" pt_clust_5="206.09557" pt_clust_6="39.72967"></scales>
<clustering>
<clus scale="   39.730">  4  6 -1 -1</clus>
<clus scale="   87.804">  2  3  1 -1</clus>
<clus scale="  206.096">  2  5  1 -1</clus>
<clus scale="  217.925">  1  3  2 -1</clus>
</clustering>
</event>
<event>
 6    0  0.3446372E+002  0.1292057E+03  0.7546771E-02  0.1228639E+00
         21   -1    0    0  504  501  0.00000000000E+00  0.00000000000E+00  0.10263573994E+03  0.10263573994E+03  0.00000000000E+00 0. -1.
         21   -1    0    0  503  502 -0.00000000000E+00 -0.00000000000E+00 -0.33669082592E+03  0.33669082592E+03  0.00000000000E+00 0. -1.
         21    1    1    2  503  501 -0.11176582235E+03  0.12419294668E+01  0.19345574454E+02  0.11343453039E+03  0.00000000000E+00 0. -1.
         21    1    1    2  504  505  0.49793064083E+02 -0.54141944143E+01 -0.30442563002E+02  0.58612390960E+02  0.00000000000E+00 0. -1.
         21    1    1    2  505  506  0.73117771273E+02  0.55621252490E+02 -0.11516581714E+03  0.14731971233E+03  0.00000000000E+00 0. -1.
         21    1    1    2  506  502 -0.11145013004E+02 -0.51448987542E+02 -0.10779228030E+03  0.11995993217E+03  0.00000000000E+00 0. -1.
<scales pt_clust_3="114.52378" pt_clust_4="44.16933" pt_clust_5="44.16933" pt_clust_6="52.64228"></scales>
<clustering>
<clus scale="   44.169">  4  5 -1 -1</clus>
<clus scale="   52.642">  2  6  1 -1</clus>
<clus scale="  114.524">  1  3  2 -1</clus>
<clus scale="  114.524">  1  3  2 -1</clus>
</clustering>
</event>
<event>
 6    0  0.3446372E+002  0.8681918E+02  0.7546771E-02  0.1310743E+00
         21   -1    0    0  506  501  0.00000000000E+00  0.00000000000E+00  0.52556085126E+03  0.52556085126E+03  0.00000000000E+00 0. -1.
         21   -1    0    0  504  502 -0.00000000000E+00 -0.00000000000E+00 -0.32999523744E+03  0.32999523744E+03  0.00000000000E+00 0. -1.
         21    1    1    2  503  502 -0.24813607089E+01 -0.66187620966E+02  0.47526768550E+01  0.66404414442E+02  0.00000000000E+00 0. -1.
         21    1    1    2  504  505  0.89211485533E+02  0.36743134054E+02 -0.28557204707E+03  0.30143015960E+03  0.00000000000E+00 0. -1.
         21    1    1    2  505  501 -0.40533956408E+02  0.86054832929E+01  0.10477023831E+03  0.11266702623E+03  0.00000000000E+00 0. -1.
         21    1    1    2  506  503 -0.46196168416E+02  0.20839003619E+02  0.37161474572E+03  0.37505448842E+03  0.00000000000E+00 0. -1.
<scales pt_clust_3="65.72220" pt_clust_4="86.81918" pt_clust_5="41.43737" pt_clust_6="14000.00000"></scales>
<clustering>
<clus scale="   41.437">  1  5  2 -1</clus>
<clus scale="   65.722">  2  3  1 -1</clus>
<clus scale="   86.819">  2  4  1 -1</clus>
<clus scale="   41.437">  1  3  2 -1</clus>
</clustering>
</event>
<event>
 6    0  0.3446372E+002  0.1091096E+03  0.7546771E-02  0.1262228E+00
         21   -1    0    0  503  501  0.00000000000E+00  0.00000000000E+00  0.21140216164E+03  0.21140216164E+03  0.00000000000E+00 0. -1.
         21   -1    0    0  506  502 -0.00000000000E+00 -0.00000000000E+00 -0.10432859312E+03  0.10432859312E+03  0.00000000000E+00 0.  1.
         21    1    1    2  503  502 -0.19802269350E+02  0.49213596202E+02 -0.58411729975E+01  0.53368785114E+02  0.00000000000E+00 0.  1.
         21    1    1    2  504  505 -0.46389949330E+02 -0.31784214352E+02  0.89393619351E+01  0.56940107768E+02  0.00000000000E+00 0. -1.
         21    1    1    2  505  501  0.10501367204E+03 -0.21891480281E+02  0.12194416960E+03  0.16241147966E+03  0.00000000000E+00 0. -1.
         21    1    1    2  506  504 -0.38821453364E+02  0.44620984313E+01 -0.17968790018E+02  0.43010382216E+02  0.00000000000E+00 0.  1.
<scales pt_clust_3="53.04817" pt_clust_4="36.34650" pt_clust_5="100.01905" pt_clust_6="36.34650"></scales>
<clustering>
<clus scale="   36.346">  4  6 -1 -1</clus>
<clus scale="   53.048">  2  3  1 -1</clus>
<clus scale="  100.019">  1  5  2 -1</clus>
<clus scale="  100.019">  1  3  2 -1</clus>
</clustering>
</event>
<event>
 6    0  0.3446372E+002  0.2755798E+03  0.7546771E-02  0.1098128E+00
         21   -1    0    0  504  501  0.00000000000E+00  0.00000000000E+00  0.79820177217E+03  0.79820177217E+03  0.00000000000E+00 0.  1.
         21   -1    0    0  503  502 -0.00000000000E+00 -0.00000000000E+00 -0.12025482357E+03  0.12025482357E+03  0.00000000000E+00 0.  1.
         21    1    1    2  503  501  0.28539575624E+02 -0.16983055570E+02  0.99109840427E+02  0.10452603514E+03  0.00000000000E+00 0.  1.
         21    1    1    2  504  505 -0.56524198502E+02  0.36382664629E+02  0.16161011300E+03  0.17503288813E+03  0.00000000000E+00 0.  1.
         21    1    1    2  505  506 -0.15833381255E+03  0.15257052449E+03  0.26018622115E+03  0.34065265420E+03  0.00000000000E+00 0.  1.
         21    1    1    2  506  502  0.18631843543E+03 -0.17197013355E+03  0.15704077403E+03  0.29824501826E+03  0.00000000000E+00 0.  1.
<scales pt_clust_3="33.21041" pt_clust_4="42.05183" pt_clust_5="42.05183" pt_clust_6="264.18185"></scales>
<clustering>
<clus scale="   33.210">  1  3  2 -1</clus>
<clus scale="   42.052">  4  5 -1 -1</clus>
<clus scale="  264.182">  2  6  1 -1</clus>
<clus scale="   33.210">  1  3  2 -1</clus>
</clustering>
</event>
<event>
 6    0  0.3446372E+002  0.8300533E+02  0.7546771E-02  0.1320733E+00
         21   -1    0    0  503  501  0.00000000000E+00  0.00000000000E+00  0.16964482099E+03  0.16964482099E+03  0.00000000000E+00 0.  1.
         21   -1    0    0  505  502 -0.00000000000E+00 -0.00000000000E+00 -0.19096336671E+03  0.19096336671E+03  0.00000000000E+00 0. -1.
         21    1    1    2  503  504  0.71071340150E+02  0.36180633917E+02  0.86492950625E+02  0.11764864712E+03  0.00000000000E+00 0.  1.
         21    1    1    2  504  506  0.58396230746E+02 -0.68205992254E+01  0.12942196252E+01  0.58807442927E+02  0.00000000000E+00 0.  1.
         21    1    1    2  505  501 -0.98110273625E+02 -0.46760203729E+02 -0.98697972949E+02  0.14681087258E+03  0.00000000000E+00 0. -1.
         21    1    1    2  506  502 -0.31357297271E+02  0.17400169037E+02 -0.10407743024E+02  0.37341225067E+02  0.00000000000E+00 0. -1.
<scales pt_clust_3="83.00533" pt_clust_4="53.13744" pt_clust_5="14000.00000" pt_clust_6="35.86148"></scales>
<clustering>
<clus scale="   35.861">  2  6  1 -1</clus>
<clus scale="   53.137">  2  4  1 -1</clus>
<clus scale="   83.005">  1  3  2 -1</clus>
<clus scale="   83.005">  1  3  2 -1</clus>
</clustering>
</event>
<event>
 6    0  0.3446372E+002  0.1981849E+03  0.7546771E-02  0.1151280E+00
         21   -1    0    0  504  501  0.00000000000E+00  0.00000000000E+00  0.13067853581E+03  0.13067853581E+03  0.00000000000E+00 0.  1.
         21   -1    0    0  503  502 -0.00000000000E+00 -0.00000000000E+00 -0.18562455122E+04  0.18562455122E+04  0.00000000000E+00 0.  1.
         21    1    1    2  503  505 -0.16304163297E+03 -0.80326238040E+02  0.25043844602E+02  0.18347226698E+03  0.00000000000E+00 0.  1.
         21    1    1    2  504  506  0.82528322694E+02  0.92543134655E+02 -0.87462785075E+03  0.88337366563E+03  0.00000000000E+00 0.  1.
         21    1    1    2  505  501  0.18258768417E+02 -0.32916103315E+02  0.38182197915E+01  0.37834260717E+02  0.00000000000E+00 0.  1.
         21    1    1    2  506  502  0.62254541862E+02  0.20699206701E+02 -0.87980118999E+03  0.88224385464E+03  0.00000000000E+00 0.  1.
<scales pt_clust_3="183.51888" pt_clust_4="54.56280" pt_clust_5="37.64110" pt_clust_6="54.56280"></scales>
<clustering>
<clus scale="   37.641">  1  5  2 -1</clus>
<clus scale="   54.563">  4  6 -1 -1</clus>
<clus scale="  183.519">  1  3  2 -1</clus>
<clus scale="   37.641">  1  3  2 -1</clus>
</clustering>
</event>
<event>
 6    0  0.3446372E+002  0.1357604E+03  0.7546771E-02  0.1219150E+00
         21   -1    0    0  503  501  0.00000000000E+00  0.00000000000E+00  0.51827582052E+03  0.51827582052E+03  0.00000000000E+00 0. -1.
         21   -1    0    0  504  502 -0.00000000000E+00 -0.00000000000E+00 -0.17825492555E+03  0.17825492555E+03  0.00000000000E+00 0.  1.
         21    1    1    2  503  506 -0.72937773951E+02 -0.13954232895E+03  0.15767491749E+03  0.22283033914E+03  0.00000000000E+00 0. -1.
         21    1    1    2  504  501 -0.24968421780E+02  0.13367902415E+03  0.27870435483E+03  0.31011227158E+03  0.00000000000E+00 0. -1.
         21    1    1    2  505  502  0.29528451629E+02  0.61414314666E+01  0.14400907177E+02  0.33422040087E+02  0.00000000000E+00 0. -1.
         21    1    1    2  506  505  0.68377744101E+02 -0.27812665987E+00 -0.11075928453E+03  0.13016609525E+03  0.00000000000E+00 0.  1.
<scales pt_clust_3="135.76036" pt_clust_4="14000.00000" pt_clust_5="30.16035" pt_clust_6="89.55161"></scales>
<clustering>
<clus scale="   30.160">  2  5  1 -1</clus>
<clus scale="   89.552">  2  6  1 -1</clus>
<clus scale="  135.760">  2  3  1 -1</clus>
<clus scale="  135.760">  1  3  2 -1</clus>
</clustering>
</event>
<event>
 6    0  0.3446372E+002  0.1037294E+03  0.7546771E-02  0.1272643E+00
         21   -1    0    0  503  501  0.00000000000E+00  0.00000000000E+00  0.83542108944E+02  0.83542108944E+02  0.00000000000E+00 0. -1.
         21   -1    0    0  504  502 -0.00000000000E+00 -0.00000000000E+00 -0.59530584920E+03  0.59530584920E+03  0.00000000000E+00 0. -1.
         21    1    1    2  503  502  0.17974109079E+02  0.33416411271E+02  0.23069908306E+02  0.44406596454E+02  0.00000000000E+00 0. -1.
         21    1    1    2  504  505  0.35113928471E+02  0.33542042086E+02 -0.19154309707E+03  0.19760266849E+03  0.00000000000E+00 0. -1.
         21    1    1    2  505  506  0.15337507751E+02  0.47231554867E+02 -0.28873060359E+03  0.29296999910E+03  0.00000000000E+00 0. -1.
         21    1    1    2  506  501 -0.68425545301E+02 -0.11419000822E+03 -0.54559947899E+02  0.14386869410E+03  0.00000000000E+00 0. -1.
<scales pt_clust_3="37.94371" pt_clust_4="30.14005" pt_clust_5="30.14005" pt_clust_6="99.15037"></scales>
<clustering>
<clus scale="   30.140">  4  5 -1 -1</clus>
<clus scale="   37.944">  1  3  2 -1</clus>
<clus scale="   99.150">  1  6  2 -1</clus>
<clus scale="   37.944">  1  3  2 -1</clus>
</clustering>
</event>
<event>
 6    0  0.3446372E+002  0.8733244E+02  0.7546771E-02  0.1309443E+00
         21   -1    0    0  503  501  0.00000000000E+00  0.00000000000E+00  0.11359410168E+03  0.11359410168E+03  0.00000000000E+00 0.  1.
         21   -1    0    0  504  502 -0.00000000000E+00 -0.00000000000E+00 -0.28735463649E+03  0.28735463649E+03  0.00000000000E+00 0.  1.
         21    1    1    2  503  502 -0.35855877433E+02 -0.45846698644E+02 -0.75898534996E+02  0.95645968748E+02  0.00000000000E+00 0.  1.
         21    1    1    2  504  505  0.50830309488E+02  0.68399634251E+02 -0.92595507394E+02  0.12584179877E+03  0.00000000000E+00 0.  1.
         21    1    1    2  505  506 -0.57538667783E+02  0.59230053021E+02 -0.22679899449E+02  0.85634545074E+02  0.00000000000E+00 0.  1.
         21    1    1    2  506  501  0.42564235728E+02 -0.81782988627E+02  0.17413407033E+02  0.93826425577E+02  0.00000000000E+00 0.  1.
<scales pt_clust_3="58.20278" pt_clust_4="53.69925" pt_clust_5="87.33244" pt_clust_6="14000.00000"></scales>
<clustering>
<clus scale="   58.203">  2  3  1 -1</clus>
<clus scale="   53.699">  2  4  1 -1</clus>
<clus scale="   87.332">  2  5  1 -1</clus>
<clus scale="   87.332">  1  3  2 -1</clus>
</clustering>
</event>
<event>
 6    0  0.3446372E+002  0.1511715E+03  0.7546771E-02  0.1199041E+00
         21   -1    0    0  504  501  0.00000000000E+00  0.00000000000E+00  0.35139709386E+03  0.35139709386E+03  0.00000000000E+00 0. -1.
         21   -1    0    0  506  502 -0.00000000000E+00 -0.00000000000E+00 -0.65017321376E+03  0.65017321376E+03  0.00000000000E+00 0. -1.
         21    1    1    2  503  502  0.53465580928E+02  0.15946270292E+03 -0.58010578951E+03  0.60399474252E+03  0.00000000000E+00 0. -1.
         21    1    1    2  504  503 -0.54959189823E+01 -0.45428948502E+02  0.70507037840E+02  0.84054963402E+02  0.00000000000E+00 0. -1.
         21    1    1    2  505  501  0.15590555328E+02 -0.44916732018E+02  0.21434542342E+03  0.21955532053E+03  0.00000000000E+00 0. -1.
         21    1    1    2  506  505 -0.63560217273E+02 -0.69117022396E+02 -0.35227916504E+01  0.93965281172E+02  0.00000000000E+00 0. -1.
<scales pt_clust_3="151.17152" pt_clust_4="45.76018" pt_clust_5="81.64914" pt_clust_6="14000.00000"></scales>
<clustering>
<clus scale="   45.760">  1  4  2 -1</clus>
<clus scale="   81.649">  1  5  2 -1</clus>
<clus scale="  151.172">  2  3  1 -1</clus>
<clus scale="   45.760">  1  3  2 -1</clus>
</clustering>
</event>
<event>
 6    0  0.3446372E+002  0.1165339E+03  0.7546771E-02  0.1248927E+00
         21   -1    0    0  506  501  0.00000000000E+00  0.00000000000E+00  0.10964195748E+04  0.10964195748E+04  0.00000000000E+00 0. -1.
         21   -1    0    0  505  502 -0.00000000000E+00 -0.00000000000E+00 -0.25303971467E+03  0.25303971467E+03  0.00000000000E+00 0. -1.
         21    1    1    2  503  502 -0.30559204072E+02 -0.82025611455E+02  0.11990975138E+02  0.88350718010E+02  0.00000000000E+00 0. -1.
         21    1    1    2  504  501  0.83625654849E+02  0.11736168393E+03  0.72861825959E+03  0.74273251121E+03  0.00000000000E+00 0. -1.
         21    1    1    2  505  504 -0.17202003501E+02 -0.27583324885E+02 -0.20543643698E+03  0.20799249596E+03  0.00000000000E+00 0. -1.
         21    1    1    2  506  503 -0.35864447277E+02 -0.77527475874E+01  0.30820706237E+03  0.31038356427E+03  0.00000000000E+00 0. -1.
<scales pt_clust_3="14000.00000" pt_clust_4="116.53390" pt_clust_5="32.50767" pt_clust_6="37.22875"></scales>
<clustering>
<clus scale="   32.508">  2  5  1 -1</clus>
<clus scale="   37.229">  1  6  2 -1</clus>
<clus scale="  116.534">  1  4  2 -1</clus>
<clus scale="   37.229">  1  3  2 -1</clus>
</clustering>
</event>
<event>
 6    0  0.3446372E+002  0.8402049E+02  0.7546771E-02  0.1318014E+00
         21   -1    0    0  503  501  0.00000000000E+00  0.00000000000E+00  0.30628035751E+03  0.30628035751E+03  0.00000000000E+00 0.  1.
         21   -1    0    0  505  502 -0.00000000000E+00 -0.00000000000E+00 -0.61478035554E+03  0.61478035554E+03  0.00000000000E+00 0. -1.
         21    1    1    2  503  506 -0.32457550446E+02 -0.52125641585E+02  0.15437295083E+03  0.16613724158E+03  0.00000000000E+00 0.  1.
         21    1    1    2  504  501  0.51499437028E+02 -0.98882262506E+01  0.12084730874E+03  0.13173473749E+03  0.00000000000E+00 0.  1.
         21    1    1    2  505  504 -0.81240324719E+02  0.45477949149E+02 -0.53347687417E+03  0.54154021964E+03  0.00000000000E+00 0. -1.
         21    1    1    2  506  502  0.62198438137E+02  0.16535918686E+02 -0.50243383436E+02  0.81648514332E+02  0.00000000000E+00 0. -1.
<scales pt_clust_3="62.38483" pt_clust_4="52.44015" pt_clust_5="14000.00000" pt_clust_6="84.02049"></scales>
<clustering>
<clus scale="   52.440">  1  4  2 -1</clus>
<clus scale="   62.385">  1  3  2 -1</clus>
<clus scale="   84.020">  1  6  2 -1</clus>
<clus scale="   52.440">  1  3  2 -1</clus>
</clustering>
</event>
<event>
 6    0  0.3446372E+002  0.7754660E+02  0.7546771E-02  0.1336162E+00
         21   -1    0    0  505  501  0.00000000000E+00  0.00000000000E+00  0.62306154862E+02  0.62306154862E+02  0.00000000000E+00 0. -1.
         21   -1    0    0  504  502 -0.00000000000E+00 -0.00000000000E+00 -0.82373553345E+03  0.82373553345E+03  0.00000000000E+00 0.  1.
         21    1    1    2  503  502 -0.50973574033E+01  0.76450160450E+02 -0.48319411369E+03  0.48923119441E+03  0.00000000000E+00 0.  1.
         21    1    1    2  504  506  0.38187311835E+02 -0.75219836710E+02 -0.24465522905E+03  0.25879040887E+03  0.00000000000E+00 0.  1.
         21    1    1    2  505  503  0.28687448926E+01  0.40997136847E+02 -0.63013255899E+02  0.75230747344E+02  0.00000000000E+00 0.  1.
         21    1    1    2  506  501 -0.35958699324E+02 -0.42227460587E+02  0.29433220050E+02  0.62789337687E+02  0.00000000000E+00 0. -1.
<scales pt_clust_3="77.54660" pt_clust_4="14000.00000" pt_clust_5="41.09738" pt_clust_6="34.68493"></scales>
<clustering>
<clus scale="   41.097">  1  5  2 -1</clus>
<clus scale="   34.685">  1  6  2 -1</clus>
<clus scale="   77.547">  2  3  1 -1</clus>
<clus scale="   41.097">  1  3  2 -1</clus>
</clustering>
</event>
<event>
 6    0  0.3446372E+002  0.9823139E+02  0.7546771E-02  0.1284060E+00
         21   -1    0    0  503  501  0.00000000000E+00  0.00000000000E+00  0.20669691258E+04  0.20669691258E+04  0.00000000000E+00 0. -1.
         21   -1    0    0  506  502 -0.00000000000E+00 -0.00000000000E+00 -0.37241339508E+03  0.37241339508E+03  0.00000000000E+00 0. -1.
         21    1    1    2  503  505  0.24203590109E+02  0.10175018951E+03  0.11743113767E+04  0.11789597637E+04  0.00000000000E+00 0. -1.
         21    1    1    2  504  501  0.28480009965E+02 -0.47143408273E+02  0.83633102971E+03  0.83814271051E+03  0.00000000000E+00 0. -1.
         21    1    1    2  505  502 -0.74757380169E+02  0.63734429827E+02 -0.27980455545E+03  0.29654903926E+03  0.00000000000E+00 0. -1.
         21    1    1    2  506  504  0.22073780095E+02 -0.11834121106E+03 -0.36282120203E+02  0.12573100751E+03  0.00000000000E+00 0.  1.
<scales pt_clust_3="76.52357" pt_clust_4="55.07823" pt_clust_5="98.23139" pt_clust_6="14000.00000"></scales>
<clustering>
<clus scale="   55.078">  1  4  2 -1</clus>
<clus scale="   76.524">  1  3  2 -1</clus>
<clus scale="   98.231">  2  5  1 -1</clus>
<clus scale="   55.078">  1  3  2 -1</clus>
</clustering>
</event>
<event>
 6    0  0.3446372E+002  0.2896882E+03  0.7546771E-02  0.1090512E+00
         21   -1    0    0  505  501  0.00000000000E+00  0.00000000000E+00  0.15405950552E+04  0.15405950552E+04  0.00000000000E+00 0.  1.
         21   -1    0    0  504  502 -0.00000000000E+00 -0.00000000000E+00 -0.48040600056E+03  0.48040600056E+03  0.00000000000E+00 0. -1.
         21    1    1    2  503  506 -0.57852675116E+02  0.39410002363E+02  0.70846420740E+03  0.71191404922E+03  0.00000000000E+00 0.  1.
         21    1    1    2  504  501  0.17839022564E+03 -0.15530102990E+03 -0.41534486226E+03  0.47796740171E+03  0.00000000000E+00 0. -1.
         21    1    1    2  505  503 -0.14541722021E+03  0.13342367873E+03  0.77494563447E+03  0.79968042514E+03  0.00000000000E+00 0.  1.
         21    1    1    2  506  502  0.24879669686E+02 -0.17532651201E+02 -0.78759250150E+01  0.31439179643E+02  0.00000000000E+00 0.  1.
<scales pt_clust_3="68.56988" pt_clust_4="265.88771" pt_clust_5="68.56988" pt_clust_6="30.43669"></scales>
<clustering>
<clus scale="   30.437">  2  6  1 -1</clus>
<clus scale="   68.570">  3  5 -1 -1</clus>
<clus scale="  265.888">  2  4  1 -1</clus>
<clus scale="  289.688">  1  3  2 -1</clus>
</clustering>
</event>
<event>
 6    0  0.3446372E+002  0.8320267E+02  0.7546771E-02  0.1320201E+00
         21   -1    0    0  503  501  0.00000000000E+00  0.00000000000E+00  0.46935302801E+03  0.46935302801E+03  0.00000000000E+00 0.  1.
         21   -1    0    0  504  502 -0.00000000000E+00 -0.00000000000E+00 -0.14764490360E+03  0.14764490360E+03  0.00000000000E+00 0.  1.
         21    1    1    2  503  502  0.66444989172E+01  0.35193039908E+02  0.12546870063E+02  0.37948957459E+02  0.00000000000E+00 0. -1.
         21    1    1    2  504  505 -0.33835019798E+02  0.73677156617E+02 -0.10071843754E+03  0.12929553601E+03  0.00000000000E+00 0.  1.
         21    1    1    2  505  506  0.51955764836E+02 -0.91268014596E+02  0.12501409936E+03  0.16327209506E+03  0.00000000000E+00 0.  1.
         21    1    1    2  506  501 -0.24765243955E+02 -0.17602181928E+02  0.28486559254E+03  0.28648134307E+03  0.00000000000E+00 0.  1.
<scales pt_clust_3="32.93331" pt_clust_4="14000.00000" pt_clust_5="83.20267" pt_clust_6="30.38345"></scales>
<clustering>
<clus scale="   30.383">  1  6  2 -1</clus>
<clus scale="   32.933">  1  3  2 -1</clus>
<clus scale="   83.203">  1  5  2 -1</clus>
<clus scale="   30.383">  1  3  2 -1</clus>
</clustering>
</event>
<event>
 6    0  0.3446372E+002  0.2453019E+03  0.7546771E-02  0.1116310E+00
         21   -1    0    0  503  501  0.00000000000E+00  0.00000000000E+00  0.71186817465E+03  0.71186817465E+03  0.00000000000E+00 0.  1.
         21   -1    0    0  506  502 -0.00000000000E+00 -0.00000000000E+00 -0.39415331216E+03  0.39415331216E+03  0.00000000000E+00 0. -1.
         21    1    1    2  503  504  0.26070574059E+03  0.11932901677E+03  0.46184894763E+03  0.54360955460E+03  0.00000000000E+00 0.  1.
         21    1    1    2  504  502  0.54609499605E+02  0.50319202153E+01  0.73478504711E+01  0.55330900722E+02  0.00000000000E+00 0. -1.
         21    1    1    2  505  501 -0.10431624106E+03 -0.16559121335E+03  0.60811899582E+02  0.20494002834E+03  0.00000000000E+00 0.  1.
         21    1    1    2  506  505 -0.21099899914E+03  0.41230276358E+02 -0.21229383519E+03  0.30214100315E+03  0.00000000000E+00 0. -1.
<scales pt_clust_3="14000.00000" pt_clust_4="54.84084" pt_clust_5="245.30191" pt_clust_6="178.73863"></scales>
<clustering>
<clus scale="   54.841">  2  4  1 -1</clus>
<clus scale="  178.739">  2  6  1 -1</clus>
<clus scale="  245.302">  2  5  1 -1</clus>
<clus scale="  245.302">  1  3  2 -1</clus>
</clustering>
</event>
<event>
 6    0  0.3446372E+002  0.9676479E+02  0.7546771E-02  0.1287250E+00
         21   -1    0    0  505  501  0.00000000000E+00  0.00000000000E+00  0.62282204843E+02  0.62282204843E+02  0.00000000000E+00 0. -1.
         21   -1    0    0  503  502 -0.00000000000E+00 -0.00000000000E+00 -0.48149743763E+03  0.48149743763E+03  0.00000000000E+00 0. -1.
         21    1    1    2  503  504 -0.52705584702E+02 -0.12772040202E+03 -0.94674051076E+02  0.16749195711E+03  0.00000000000E+00 0. -1.
         21    1    1    2  504  501  0.19334753381E+02  0.73121204563E+02 -0.46873095256E+02  0.88981067110E+02  0.00000000000E+00 0. -1.
         21    1    1    2  505  506  0.33996837644E+02  0.20654984900E+02 -0.15576746274E+03  0.16076665021E+03  0.00000000000E+00 0. -1.
         21    1    1    2  506  502 -0.62600632347E+00  0.33944212556E+02 -0.12190062372E+03  0.12653996805E+03  0.00000000000E+00 0. -1.
<scales pt_clust_3="96.76479" pt_clust_4="14000.00000" pt_clust_5="49.10091" pt_clust_6="33.94998"></scales>
<clustering>
<clus scale="   33.950">  2  6  1 -1</clus>
<clus scale="   49.101">  2  5  1 -1</clus>
<clus scale="   96.765">  2  3  1 -1</clus>
<clus scale="   96.765">  1  3  2 -1</clus>
</clustering>
</event>
<event>
 6    0  0.3446372E+002  0.1586882E+03  0.7546771E-02  0.1190186E+00
         21   -1    0    0  503  501  0.00000000000E+00  0.00000000000E+00  0.85555603547E+03  0.85555603547E+03  0.00000000000E+00 0. -1.
         21   -1    0    0  506  502 -0.00000000000E+00 -0.00000000000E+00 -0.12980711998E+03  0.12980711998E+03  0.00000000000E+00 0. -1.
         21    1    1    2  503  504  0.11664313671E+03 -0.26621778697E+02  0.11343673589E+03  0.16487035359E+03  0.00000000000E+00 0. -1.
         21    1    1    2  504  502  0.39828474288E+02 -0.10777791364E+02 -0.33349860140E+02  0.53053570305E+02  0.00000000000E+00 0. -1.
         21    1    1    2  505  501 -0.17708284008E+03 -0.60062648810E+01  0.68361734327E+03  0.70620611686E+03  0.00000000000E+00 0. -1.
         21    1    1    2  506  505  0.20611229083E+02  0.43405834942E+02 -0.37955303518E+02  0.61233114705E+02  0.00000000000E+00 0. -1.
<scales pt_clust_3="158.68816" pt_clust_4="41.26098" pt_clust_5="14000.00000" pt_clust_6="57.19759"></scales>
<clustering>
<clus scale="   41.261">  2  4  1 -1</clus>
<clus scale="   57.198">  2  6  1 -1</clus>
<clus scale="  158.688">  2  3  1 -1</clus>
<clus scale="  158.688">  1  3  2 -1</clus>
</clustering>
</event>
<event>
 6    0  0.3446372E+002  0.1142694E+03  0.7546771E-02  0.1252862E+00
         21   -1    0    0  504  501  0.00000000000E+00  0.00000000000E+00  0.35374525987E+03  0.35374525987E+03  0.00000000000E+00 0. -1.
         21   -1    0    0  506  502 -0.00000000000E+00 -0.00000000000E+00 -0.31162305516E+03  0.31162305516E+03  0.00000000000E+00 0.  1.
         21    1    1    2  503  501  0.77553550918E+02 -0.78961647019E+02  0.26964261663E+03  0.29147321603E+03  0.00000000000E+00 0. -1.
         21    1    1    2  504  505  0.48799963703E+00 -0.56453066171E+02 -0.97473400509E+01  0.57290465715E+02  0.00000000000E+00 0.  1.
         21    1    1    2  505  502  0.35323069277E+02 -0.17343097720E+02 -0.32095196624E+02  0.50779955770E+02  0.00000000000E+00 0. -1.
         21    1    1    2  506  503 -0.11336461983E+03  0.15275781091E+03 -0.18567787524E+03  0.26582467751E+03  0.00000000000E+00 0.  1.
<scales pt_clust_3="14000.00000" pt_clust_4="58.80664" pt_clust_5="39.35101" pt_clust_6="114.26937"></scales>
<clustering>
<clus scale="   39.351">  2  5  1 -1</clus>
<clus scale="   58.807">  2  4  1 -1</clus>
<clus scale="  114.269">  2  6  1 -1</clus>
<clus scale="  114.269">  1  3  2 -1</clus>
</clustering>
</event>
<event>
 6    0  0.3446372E+002  0.6974134E+02  0.7546771E-02  0.1360975E+00
         21   -1    0    0  503  501  0.00000000000E+00  0.00000000000E+00  0.14935060683E+03  0.14935060683E+03  0.00000000000E+00 0.  1.
         21   -1    0    0  506  502 -0.00000000000E+00 -0.00000000000E+00 -0.22690462526E+03  0.22690462526E+03  0.00000000000E+00 0.  1.
         21    1    1    2  503  502  0.75327723236E+01 -0.31790807297E+02  0.11263840010E+02  0.34558243289E+02  0.00000000000E+00 0.  1.
         21    1    1    2  504  501  0.48980803201E+02  0.54803875537E+02  0.75382523509E+02  0.10528584286E+03  0.00000000000E+00 0.  1.
         21    1    1    2  505  504 -0.97094275433E+02 -0.59716455468E+02 -0.12455643217E+03  0.16884211018E+03  0.00000000000E+00 0.  1.
         21    1    1    2  506  505  0.40580699909E+02  0.36703387229E+02 -0.39643949774E+02  0.67569035755E+02  0.00000000000E+00 0.  1.
<scales pt_clust_3="32.67106" pt_clust_4="14000.00000" pt_clust_5="69.74134" pt_clust_6="53.07314"></scales>
<clustering>
<clus scale="   32.671">  1  3  2 -1</clus>
<clus scale="   53.073">  2  6  1 -1</clus>
<clus scale="   69.741">  2  5  1 -1</clus>
<clus scale="   32.671">  1  3  2 -1</clus>
</clustering>
</event>
<event>
 6    0  0.3446372E+002  0.1373211E+03  0.7546771E-02  0.1216980E+00
         21   -1    0    0  505  501  0.00000000000E+00  0.00000000000E+00  0.23819209011E+02  0.23819209011E+02  0.00000000000E+00 0.  1.
         21   -1    0    0  504  502 -0.00000000000E+00 -0.00000000000E+00 -0.36350188624E+04  0.36350188624E+04  0.00000000000E+00 0.  1.
         21    1    1    2  503  501  0.24195266236E+02  0.50370031482E+02 -0.98103186867E+03  0.98262204246E+03  0.00000000000E+00 0.  1.
         21    1    1    2  504  503  0.26126371416E+02  0.65727192155E+02 -0.24432717529E+04  0.24442952992E+04  0.00000000000E+00 0.  1.
         21    1    1    2  505  506 -0.23305321832E+02 -0.65240407827E+02 -0.14501868800E+03  0.16071673437E+03  0.00000000000E+00 0.  1.
         21    1    1    2  506  502 -0.27016315820E+02 -0.50856815810E+02 -0.41877343813E+02  0.71203995391E+02  0.00000000000E+00 0.  1.
<scales pt_clust_3="38.70665" pt_clust_4="133.81769" pt_clust_5="48.64108" pt_clust_6="48.64108"></scales>
<clustering>
<clus scale="   38.707">  3  4 -1 -1</clus>
<clus scale="   48.641">  5  6 -1 -1</clus>
<clus scale="  133.818">  2  3  1 -1</clus>
<clus scale="  137.321">  1  3  2 -1</clus>
</clustering>
</event>
<event>
 6    0  0.3446372E+002  0.1100389E+03  0.7546771E-02  0.1260498E+00
         21   -1    0    0  504  501  0.00000000000E+00  0.00000000000E+00  0.24024219084E+03  0.24024219084E+03  0.00000000000E+00 0.  1.
         21   -1    0    0  506  502 -0.00000000000E+00 -0.00000000000E+00 -0.36457172211E+03  0.36457172211E+03  0.00000000000E+00 0.  1.
         21    1    1    2  503  502  0.77223699793E+02 -0.41527417860E+02 -0.28953782530E+03  0.30252302147E+03  0.00000000000E+00 0.  1.
         21    1    1    2  504  503 -0.10132777038E+03 -0.51294452533E+01  0.18986385209E+03  0.21527171340E+03  0.00000000000E+00 0.  1.
         21    1    1    2  505  501 -0.82766475916E+01  0.35135450524E+02  0.10761528463E+02  0.37667137850E+02  0.00000000000E+00 0.  1.
         21    1    1    2  506  505  0.32380718174E+02  0.11521412589E+02 -0.35417086525E+02  0.49352040236E+02  0.00000000000E+00 0. -1.
<scales pt_clust_3="110.03891" pt_clust_4="14000.00000" pt_clust_5="36.28342" pt_clust_6="34.36937"></scales>
<clustering>
<clus scale="   34.369">  2  6  1 -1</clus>
<clus scale="   36.283">  1  5  2 -1</clus>
<clus scale="  110.039">  2  3  1 -1</clus>
<clus scale="   36.283">  1  3  2 -1</clus>
</clustering>
</event>
<event>
 6    0  0.3446372E+002  0.9961435E+02  0.7546771E-02  0.1281109E+00
         21   -1    0    0  506  501  0.00000000000E+00  0.00000000000E+00  0.46189451293E+03  0.46189451293E+03  0.00000000000E+00 0.  1.
         21   -1    0    0  505  502 -0.00000000000E+00 -0.00000000000E+00 -0.10275316938E+04  0.10275316938E+04  0.00000000000E+00 0. -1.
         21    1    1    2  503  501 -0.30398346921E+02 -0.93670014178E+02  0.34883661114E+03  0.36247084341E+03  0.00000000000E+00 0.  1.
         21    1    1    2  504  502 -0.35996615457E+02 -0.41113404339E+02 -0.17097249621E+03  0.17949279317E+03  0.00000000000E+00 0.  1.
         21    1    1    2  505  503  0.78330771078E+02  0.22575472130E+02 -0.81158781882E+03  0.81567159402E+03  0.00000000000E+00 0. -1.
         21    1    1    2  506  504 -0.11935808700E+02  0.11220794639E+03  0.68086523041E+02  0.13179097610E+03  0.00000000000E+00 0.  1.
<scales pt_clust_3="14000.00000" pt_clust_4="54.64493" pt_clust_5="47.02236" pt_clust_6="99.61435"></scales>
<clustering>
<clus scale="   54.645">  2  4  1 -1</clus>
<clus scale="   47.022">  2  5  1 -1</clus>
<clus scale="   99.614">  2  6  1 -1</clus>
<clus scale="   99.614">  1  3  2 -1</clus>
</clustering>
</event>
<event>
 6    0  0.3446372E+002  0.1073077E+03  0.7546771E-02  0.1265638E+00
         21   -1    0    0  505  501  0.00000000000E+00  0.00000000000E+00  0.50169422085E+03  0.50169422085E+03  0.00000000000E+00 0. -1.
         21   -1    0    0  504  502 -0.00000000000E+00 -0.00000000000E+00 -0.67126395626E+03  0.67126395626E+03  0.00000000000E+00 0. -1.
         21    1    1    2  503  501 -0.19484573469E+02 -0.73271540185E+02  0.78166246455E+02  0.10889595626E+03  0.00000000000E+00 0. -1.
         21    1    1    2  504  503 -0.46181827884E+02  0.78849267606E+02 -0.53954207168E+03  0.54722537893E+03  0.00000000000E+00 0. -1.
         21    1    1    2  505  506  0.18799018635E+02 -0.40620184374E+02  0.39536330519E+03  0.39788886082E+03  0.00000000000E+00 0. -1.
         21    1    1    2  506  502  0.46867382718E+02  0.35042456953E+02 -0.10355721537E+03  0.11894798110E+03  0.00000000000E+00 0.  1.
<scales pt_clust_3="107.30774" pt_clust_4="14000.00000" pt_clust_5="44.75938" pt_clust_6="57.92947"></scales>
<clustering>
<clus scale="   44.759">  1  5  2 -1</clus>
<clus scale="   57.929">  2  6  1 -1</clus>
<clus scale="  107.308">  1  3  2 -1</clus>
<clus scale="   44.759">  1  3  2 -1</clus>
</clustering>
</event>
<event>
 6    0  0.3446372E+002  0.8376349E+02  0.7546771E-02  0.1318698E+00
         21   -1    0    0  505  501  0.00000000000E+00  0.00000000000E+00  0.25063231106E+03  0.25063231106E+03  0.00000000000E+00 0. -1.
         21   -1    0    0  503  502 -0.00000000000E+00 -0.00000000000E+00 -0.11766420917E+03  0.11766420917E+03  0.00000000000E+00 0. -1.
         21    1    1    2  503  504 -0.98546304713E+02  0.44734347628E+02  0.64740111946E+02  0.12611034107E+03  0.00000000000E+00 0. -1.
         21    1    1    2  504  501 -0.30077337035E+02 -0.35195969957E+02  0.85254950257E+02  0.97014478546E+02  0.00000000000E+00 0. -1.
         21    1    1    2  505  506  0.53509253620E+02  0.10769977034E+02  0.21103389939E+02  0.58519959802E+02  0.00000000000E+00 0. -1.
         21    1    1    2  506  502  0.75114388128E+02 -0.20308354705E+02 -0.38130350253E+02  0.86651740808E+02  0.00000000000E+00 0. -1.
<scales pt_clust_3="14000.00000" pt_clust_4="46.29690" pt_clust_5="46.04455" pt_clust_6="83.76349"></scales>
<clustering>
<clus scale="   46.297">  1  4  2 -1</clus>
<clus scale="   46.045">  1  5  2 -1</clus>
<clus scale="   83.763">  2  6  1 -1</clus>
<clus scale="   46.297">  1  3  2 -1</clus>
</clustering>
</event>
<event>
 6    0  0.3446372E+002  0.1595869E+03  0.7546771E-02  0.1189164E+00
         21   -1    0    0  505  501  0.00000000000E+00  0.00000000000E+00  0.34268343586E+03  0.34268343586E+03  0.00000000000E+00 0. -1.
         21   -1    0    0  503  502 -0.00000000000E+00 -0.00000000000E+00 -0.24845836008E+03  0.24845836008E+03  0.00000000000E+00 0. -1.
         21    1    1    2  503  504  0.49238830539E+02  0.29585342860E+02 -0.44555534839E+02  0.72697665917E+02  0.00000000000E+00 0. -1.
         21    1    1    2  504  506  0.80851497333E+01  0.10012318441E+03 -0.13247854265E+03  0.16625458179E+03  0.00000000000E+00 0. -1.
         21    1    1    2  505  502  0.58347168826E+02 -0.37824687527E+02  0.48040518923E+02  0.84516214746E+02  0.00000000000E+00 0. -1.
         21    1    1    2  506  501 -0.11567114910E+03 -0.91883839747E+02  0.22321863435E+03  0.26767333349E+03  0.00000000000E+00 0. -1.
<scales pt_clust_3="56.82605" pt_clust_4="56.82605" pt_clust_5="69.53488" pt_clust_6="140.78780"></scales>
<clustering>
<clus scale="   56.826">  3  4 -1 -1</clus>
<clus scale="   69.535">  1  5  2 -1</clus>
<clus scale="  140.788">  1  6  2 -1</clus>
<clus scale="   69.535">  1  3  2 -1</clus>
</clustering>
</event>
<event>
 6    0  0.3446372E+002  0.1012885E+03  0.7546771E-02  0.1277610E+00
         21   -1    0    0  503  501  0.00000000000E+00  0.00000000000E+00  0.10500826137E+03  0.10500826137E+03  0.00000000000E+00 0.  1.
         21   -1    0    0  504  502 -0.00000000000E+00 -0.00000000000E+00 -0.21065959277E+04  0.21065959277E+04  0.00000000000E+00 0.  1.
         21    1    1    2  503  506  0.94030860591E+02 -0.40868601435E+02  0.62744209856E+02  0.12020349911E+03  0.00000000000E+00 0.  1.
         21    1    1    2  504  505  0.16626247857E+01  0.35929986639E+02 -0.34447557915E+02  0.49803237920E+02  0.00000000000E+00 0.  1.
         21    1    1    2  505  501 -0.25464935722E+02  0.37412546348E+02 -0.95650646198E+02  0.10581685921E+03  0.00000000000E+00 0.  1.
         21    1    1    2  506  502 -0.70228549654E+02 -0.32473931551E+02 -0.19342336721E+04  0.19357805928E+04  0.00000000000E+00 0.  1.
<scales pt_clust_3="94.40845" pt_clust_4="32.71191" pt_clust_5="32.71191" pt_clust_6="77.37316"></scales>
<clustering>
<clus scale="   32.712">  4  5 -1 -1</clus>
<clus scale="   77.373">  2  6  1 -1</clus>
<clus scale="   94.408">  1  3  2 -1</clus>
<clus scale="   94.408">  1  3  2 -1</clus>
</clustering>
</event>
<event>
 6    0  0.3446372E+002  0.1711755E+03  0.7546771E-02  0.1176628E+00
         21   -1    0    0  505  501  0.00000000000E+00  0.00000000000E+00  0.42863072669E+02  0.42863072669E+02  0.00000000000E+00 0. -1.
         21   -1    0    0  504  502 -0.00000000000E+00 -0.00000000000E+00 -0.13861124238E+04  0.13861124238E+04  0.00000000000E+00 0. -1.
         21    1    1    2  503  502  0.45647079281E+02  0.18004081183E+03 -0.32801889019E+03  0.37695456237E+03  0.00000000000E+00 0. -1.
         21    1    1    2  504  506 -0.70785993371E+02 -0.10557191142E+03 -0.80693315578E+03  0.81688261289E+03  0.00000000000E+00 0. -1.
         21    1    1    2  505  503  0.12398017276E+02 -0.40111468989E+02 -0.26417042742E+02  0.49603436615E+02  0.00000000000E+00 0. -1.
         21    1    1    2  506  501  0.12740896814E+02 -0.34357431415E+02 -0.18188026238E+03  0.18553488456E+03  0.00000000000E+00 0. -1.
<scales pt_clust_3="158.62419" pt_clust_4="34.54499" pt_clust_5="41.98382" pt_clust_6="34.54499"></scales>
<clustering>
<clus scale="   34.545">  4  6 -1 -1</clus>
<clus scale="   41.984">  1  5  2 -1</clus>
<clus scale="  158.624">  1  3  2 -1</clus>
<clus scale="   41.984">  1  3  2 -1</clus>
</clustering>
</event>
<event>
 6    0  0.3446372E+002  0.1123411E+03  0.7546771E-02  0.1256295E+00
         21   -1    0    0  506  501  0.00000000000E+00  0.00000000000E+00  0.49381760007E+03  0.49381760007E+03  0.00000000000E+00 0. -1.
         21   -1    0    0  505  502 -0.00000000000E+00 -0.00000000000E+00 -0.13045277029E+04  0.13045277029E+04  0.00000000000E+00 0.  1.
         21    1    1    2  503  502 -0.86795788194E+02 -0.77259919340E+02 -0.93845726252E+03  0.94562394087E+03  0.00000000000E+00 0.  1.
         21    1    1    2  504  503  0.19763437463E+02  0.11931146300E+03 -0.31920407792E+03  0.34134595651E+03  0.00000000000E+00 0. -1.
         21    1    1    2  505  501  0.23748669114E+02 -0.55676958571E+02 -0.15835583612E+01  0.60551058269E+02  0.00000000000E+00 0. -1.
         21    1    1    2  506  504  0.43283681617E+02  0.13625414907E+02  0.44853479592E+03  0.45082434736E+03  0.00000000000E+00 0. -1.
<scales pt_clust_3="112.34111" pt_clust_4="14000.00000" pt_clust_5="70.30304" pt_clust_6="45.37763"></scales>
<clustering>
<clus scale="   45.378">  1  6  2 -1</clus>
<clus scale="   70.303">  1  5  2 -1</clus>
<clus scale="  112.341">  2  3  1 -1</clus>
<clus scale="   45.378">  1  3  2 -1</clus>
</clustering>
</event>
<event>
 6    0  0.3446372E+002  0.1080599E+03  0.7546771E-02  0.1264205E+00
         21   -1    0    0  503  501  0.00000000000E+00  0.00000000000E+00  0.18901306738E+03  0.18901306738E+03  0.00000000000E+00 0. -1.
         21   -1    0    0  506  502 -0.00000000000E+00 -0.00000000000E+00 -0.73092836651E+03  0.73092836651E+03  0.00000000000E+00 0. -1.
         21    1    1    2  503  504 -0.30086778502E+02 -0.10837924997E+02  0.92858071635E+01  0.33300166269E+02  0.00000000000E+00 0.  1.
         21    1    1    2  504  505  0.78937760414E+02  0.46913969224E+01 -0.24138432940E+03  0.25400703475E+03  0.00000000000E+00 0. -1.
         21    1    1    2  505  502  0.32343564398E+01  0.77640773338E+02 -0.45556454976E+03  0.46214457667E+03  0.00000000000E+00 0. -1.
         21    1    1    2  506  501 -0.52085338351E+02 -0.71494245263E+02  0.14574777287E+03  0.17048965620E+03  0.00000000000E+00 0. -1.
<scales pt_clust_3="31.97929" pt_clust_4="108.05987" pt_clust_5="77.47331" pt_clust_6="14000.00000"></scales>
<clustering>
<clus scale="   31.979">  1  3  2 -1</clus>
<clus scale="   77.473">  2  5  1 -1</clus>
<clus scale="  108.060">  2  4  1 -1</clus>
<clus scale="   31.979">  1  3  2 -1</clus>
</clustering>
</event>
<event>
 6    0  0.3446372E+002  0.2060318E+03  0.7546771E-02  0.1144748E+00
         21   -1    0    0  506  501  0.00000000000E+00  0.00000000000E+00  0.19153122564E+04  0.19153122564E+04  0.00000000000E+00 0. -1.
         21   -1    0    0  504  502 -0.00000000000E+00 -0.00000000000E+00 -0.13519485034E+03  0.13519485034E+03  0.00000000000E+00 0. -1.
         21    1    1    2  503  502  0.57497125659E+02 -0.19511700025E+03 -0.42491405667E+02  0.20780299035E+03  0.00000000000E+00 0. -1.
         21    1    1    2  504  505 -0.25248474361E+02  0.11632049405E+03  0.49743348241E+03  0.51147630661E+03  0.00000000000E+00 0. -1.
         21    1    1    2  505  501  0.68296350069E+01  0.63454371404E+02  0.39645201346E+03  0.40155609837E+03  0.00000000000E+00 0. -1.
         21    1    1    2  506  503 -0.39078286305E+02  0.15342134798E+02  0.92872331584E+03  0.92967171138E+03  0.00000000000E+00 0. -1.
<scales pt_clust_3="201.27208" pt_clust_4="32.24058" pt_clust_5="32.24058" pt_clust_6="41.98206"></scales>
<clustering>
<clus scale="   32.241">  4  5 -1 -1</clus>
<clus scale="   41.982">  1  6  2 -1</clus>
<clus scale="  201.272">  2  3  1 -1</clus>
<clus scale="   41.982">  1  3  2 -1</clus>
</clustering>
</event>
<event>
 6    0  0.3446372E+002  0.3717536E+03  0.7546771E-02  0.1054024E+00
         21   -1    0    0  506  501  0.00000000000E+00  0.00000000000E+00  0.99932525099E+03  0.99932525099E+03  0.00000000000E+00 0. -1.
         21   -1    0    0  503  502 -0.00000000000E+00 -0.00000000000E+00 -0.46607097879E+03  0.46607097879E+03  0.00000000000E+00 0. -1.
         21    1    1    2  503  501 -0.23927020988E+03 -0.29274447979E+03  0.43993719201E+03  0.58008128456E+03  0.00000000000E+00 0. -1.
         21    1    1    2  504  505  0.70219443916E+02  0.58042647006E+02 -0.77957348172E+02  0.11990440905E+03  0.00000000000E+00 0. -1.
         21    1    1    2  505  502  0.26953982791E+03  0.91213793803E+02 -0.20476411138E+03  0.35057098614E+03  0.00000000000E+00 0. -1.
         21    1    1    2  506  504 -0.10048906195E+03  0.14348803898E+03  0.37603853974E+03  0.41483955004E+03  0.00000000000E+00 0. -1.
<scales pt_clust_3="366.74096" pt_clust_4="34.42632" pt_clust_5="34.42632" pt_clust_6="175.17668"></scales>
<clustering>
<clus scale="   34.426">  4  5 -1 -1</clus>
<clus scale="  175.177">  1  6  2 -1</clus>
<clus scale="  366.741">  1  3  2 -1</clus>
<clus scale="  175.177">  1  3  2 -1</clus>
</clustering>
</event>
<event>
 6    0  0.3446372E+002  0.8666385E+02  0.7546771E-02  0.1311138E+00
         21   -1    0    0  503  501  0.00000000000E+00  0.00000000000E+00  0.10123085008E+03  0.10123085008E+03  0.00000000000E+00 0.  1.
         21   -1    0    0  504  502 -0.00000000000E+00 -0.00000000000E+00 -0.58044493214E+03  0.58044493214E+03  0.00000000000E+00 0. -1.
         21    1    1    2  503  505  0.17794923857E+02 -0.44751786611E+02  0.55292034050E+02  0.73325239511E+02  0.00000000000E+00 0.  1.
         21    1    1    2  504  506 -0.11320162553E+02 -0.59505984455E+02 -0.12599113534E+03  0.13979583130E+03  0.00000000000E+00 0.  1.
         21    1    1    2  505  502  0.23287151118E+02  0.11453737047E+03 -0.41928917519E+03  0.43527521532E+03  0.00000000000E+00 0. -1.
         21    1    1    2  506  501 -0.29761912422E+02 -0.10279599404E+02  0.10774194411E+02  0.33279496092E+02  0.00000000000E+00 0. -1.
<scales pt_clust_3="53.47888" pt_clust_4="86.66385" pt_clust_5="14000.00000" pt_clust_6="31.48717"></scales>
<clustering>
<clus scale="   31.487">  1  6  2 -1</clus>
<clus scale="   53.479">  1  3  2 -1</clus>
<clus scale="   86.664">  2  4  1 -1</clus>
<clus scale="   31.487">  1  3  2 -1</clus>
</clustering>
</event>
<event>
 6    0  0.3446372E+002  0.1395015E+03  0.7546771E-02  0.1214001E+00
         21   -1    0    0  504  501  0.00000000000E+00  0.00000000000E+00  0.94940621666E+03  0.94940621666E+03  0.00000000000E+00 0. -1.
         21   -1    0    0  505  502 -0.00000000000E+00 -0.00000000000E+00 -0.37333865572E+03  0.37333865572E+03  0.00000000000E+00 0.  1.
         21    1    1    2  503  501  0.15044202850E+02 -0.34767767574E+02  0.41621313124E+02  0.56280186634E+02  0.00000000000E+00 0.  1.
         21    1    1    2  504  506  0.87571485431E+01  0.68041015572E+02  0.84454120081E+03  0.84732290617E+03  0.00000000000E+00 0. -1.
         21    1    1    2  505  503  0.34644659992E+02  0.11503196465E+03 -0.10633275082E+03  0.16043459494E+03  0.00000000000E+00 0.  1.
         21    1    1    2  506  502 -0.58446011385E+02 -0.14830521265E+03 -0.20376220217E+03  0.25870718463E+03  0.00000000000E+00 0.  1.
<scales pt_clust_3="37.88305" pt_clust_4="42.13795" pt_clust_5="139.50151" pt_clust_6="14000.00000"></scales>
<clustering>
<clus scale="   37.883">  1  3  2 -1</clus>
<clus scale="   42.138">  1  4  2 -1</clus>
<clus scale="  139.502">  2  5  1 -1</clus>
<clus scale="   37.883">  1  3  2 -1</clus>
</clustering>
</event>
<event>
 6    0  0.3446372E+002  0.1319945E+03  0.7546771E-02  0.1224526E+00
         21   -1    0    0  503  501  0.00000000000E+00  0.00000000000E+00  0.13688171551E+03  0.13688171551E+03  0.00000000000E+00 0. -1.
         21   -1    0    0  505  502 -0.00000000000E+00 -0.00000000000E+00 -0.57410325579E+03  0.57410325579E+03  0.00000000000E+00 0. -1.
         21    1    1    2  503  506 -0.95257736131E+02 -0.65666244830E+02  0.87399029856E+02  0.14499890490E+03  0.00000000000E+00 0. -1.
         21    1    1    2  504  501  0.96341737776E+02 -0.17399112931E+01 -0.24430107502E+03  0.26261716049E+03  0.00000000000E+00 0.  1.
         21    1    1    2  505  504  0.33861990669E+02  0.29289500762E+02 -0.21722355754E+03  0.22178950204E+03  0.00000000000E+00 0. -1.
         21    1    1    2  506  502 -0.34945992314E+02  0.38116655361E+02 -0.63095937586E+02  0.81579403862E+02  0.00000000000E+00 0.  1.
<scales pt_clust_3="116.14521" pt_clust_4="42.74766" pt_clust_5="42.74766" pt_clust_6="51.71172"></scales>
<clustering>
<clus scale="   42.748">  4  5 -1 -1</clus>
<clus scale="   51.712">  2  6  1 -1</clus>
<clus scale="  116.145">  1  3  2 -1</clus>
<clus scale="  116.145">  1  3  2 -1</clus>
</clustering>
</event>
<event>
 6    0  0.3446372E+002  0.8785346E+02  0.7546771E-02  0.1308135E+00
         21   -1    0    0  504  501  0.00000000000E+00  0.00000000000E+00  0.29715941695E+03  0.29715941695E+03  0.00000000000E+00 0. -1.
         21   -1    0    0  505  502 -0.00000000000E+00 -0.00000000000E+00 -0.11758466752E+04  0.11758466752E+04  0.00000000000E+00 0.  1.
         21    1    1    2  503  501  0.93803857921E+01  0.41216379098E+02  0.26802471114E+03  0.27133747866E+03  0.00000000000E+00 0. -1.
         21    1    1    2  504  506 -0.36605204021E+02  0.58958068000E+01  0.29734322620E+01  0.37196005144E+02  0.00000000000E+00 0.  1.
         21    1    1    2  505  503  0.92298339843E+02 -0.68157877824E+02 -0.79709176354E+03  0.80530724531E+03  0.00000000000E+00 0.  1.
         21    1    1    2  506  502 -0.65073521614E+02  0.21045691926E+02 -0.35259363813E+03  0.35916536305E+03  0.00000000000E+00 0.  1.
<scales pt_clust_3="53.79329" pt_clust_4="37.07697" pt_clust_5="14000.00000" pt_clust_6="87.85346"></scales>
<clustering>
<clus scale="   37.077">  1  4  2 -1</clus>
<clus scale="   53.793">  1  3  2 -1</clus>
<clus scale="   87.853">  2  6  1 -1</clus>
<clus scale="   37.077">  1  3  2 -1</clus>
</clustering>
</event>
<event>
 6    0  0.3446372E+002  0.1758935E+03  0.7546771E-02  0.1171838E+00
         21   -1    0    0  503  501  0.00000000000E+00  0.00000000000E+00  0.58186145556E+02  0.58186145556E+02  0.00000000000E+00 0. -1.
         21   -1    0    0  506  502 -0.00000000000E+00 -0.00000000000E+00 -0.11513415895E+04  0.11513415895E+04  0.00000000000E+00 0. -1.
         21    1    1    2  503  502 -0.67737573275E+02  0.16237155008E+03 -0.33464017712E+03  0.37807002957E+03  0.00000000000E+00 0. -1.
         21    1    1    2  504  505  0.15226879414E+02 -0.65513560794E+02 -0.18575887365E+03  0.19756073406E+03  0.00000000000E+00 0. -1.
         21    1    1    2  505  501 -0.10853036813E+02 -0.36527415168E+02  0.14043049160E+02  0.40610930753E+02  0.00000000000E+00 0. -1.
         21    1    1    2  506  504  0.63363730674E+02 -0.60330574122E+02 -0.58679944236E+03  0.59328604070E+03  0.00000000000E+00 0. -1.
<scales pt_clust_3="156.07522" pt_clust_4="73.64301" pt_clust_5="38.10565" pt_clust_6="73.64301"></scales>
<clustering>
<clus scale="   38.106">  1  5  2 -1</clus>
<clus scale="   73.643">  4  6 -1 -1</clus>
<clus scale="  156.075">  1  3  2 -1</clus>
<clus scale="   38.106">  1  3  2 -1</clus>
</clustering>
</event>
<event>
 6    0  0.3446372E+002  0.6393838E+02  0.7546771E-02  0.1382010E+00
         21   -1    0    0  504  501  0.00000000000E+00  0.00000000000E+00  0.75710399906E+02  0.75710399906E+02  0.00000000000E+00 0.  1.
         21   -1    0    0  506  502 -0.00000000000E+00 -0.00000000000E+00 -0.17356721619E+04  0.17356721619E+04  0.00000000000E+00 0.  1.
         21    1    1    2  503  505  0.87473769036E+02 -0.86494206017E+02 -0.12500775024E+04  0.12561157072E+04  0.00000000000E+00 0.  1.
         21    1    1    2  504  503 -0.68742033815E+02 -0.27986758247E+02  0.11618732967E+02  0.75124701703E+02  0.00000000000E+00 0.  1.
         21    1    1    2  505  502 -0.37166170224E+02  0.52026840803E+02 -0.40883366392E+03  0.41380319130E+03  0.00000000000E+00 0.  1.
         21    1    1    2  506  501  0.18434435003E+02  0.62454123461E+02 -0.12669328606E+02  0.66338961542E+02  0.00000000000E+00 0.  1.
<scales pt_clust_3="64.22509" pt_clust_4="63.44138" pt_clust_5="63.93838" pt_clust_6="14000.00000"></scales>
<clustering>
<clus scale="   63.938">  2  5  1 -1</clus>
<clus scale="   64.225">  2  3  1 -1</clus>
<clus scale="   63.441">  1  4  2 -1</clus>
<clus scale="   63.441">  1  3  2 -1</clus>
</clustering>
</event>
<event>
 6    0  0.3446372E+002  0.1453232E+03  0.7546771E-02  0.1206341E+00
         21   -1    0    0  506  501  0.00000000000E+00  0.00000000000E+00  0.54224748656E+03  0.54224748656E+03  0.00000000000E+00 0.  1.
         21   -1    0    0  501  502 -0.00000000000E+00 -0.00000000000E+00 -0.12264800492E+04  0.12264800492E+04  0.00000000000E+00 0. -1.
         21    1    1    2  503  504 -0.11165812544E+03  0.33315992149E+02  0.13108489413E+03  0.17538740484E+03  0.00000000000E+00 0.  1.
         21    1    1    2  504  505  0.59298454732E+02 -0.21325673751E+02 -0.43311639420E+03  0.43767670948E+03  0.00000000000E+00 0. -1.
         21    1    1    2  505  502  0.81186292491E+02  0.40233621025E+01 -0.76607514499E+03  0.77037557678E+03  0.00000000000E+00 0. -1.
         21    1    1    2  506  503 -0.28826621787E+02 -0.16013680501E+02  0.38387408242E+03  0.38528784466E+03  0.00000000000E+00 0.  1.
<scales pt_clust_3="140.79834" pt_clust_4="31.68072" pt_clust_5="31.68072" pt_clust_6="32.97593"></scales>
<clustering>
<clus scale="   31.681">  4  5 -1 -1</clus>
<clus scale="   32.976">  1  6  2 -1</clus>
<clus scale="  140.798">  1  3  2 -1</clus>
<clus scale="   32.976">  1  3  2 -1</clus>
</clustering>
</event>
<event>
 6    0  0.3446372E+002  0.8224405E+02  0.7546771E-02  0.1322801E+00
         21   -1    0    0  504  501  0.00000000000E+00  0.00000000000E+00  0.62045712664E+03  0.62045712664E+03  0.00000000000E+00 0.  1.
         21   -1    0    0  503  502 -0.00000000000E+00 -0.00000000000E+00 -0.16818922423E+03  0.16818922423E+03  0.00000000000E+00 0. -1.
         21    1    1    2  503  505 -0.77786537897E+01 -0.48140963399E+02 -0.57118723365E+02  0.75103983721E+02  0.00000000000E+00 0. -1.
         21    1    1    2  504  502  0.74109621466E+02  0.63856683748E+02 -0.16966343768E+02  0.99286297514E+02  0.00000000000E+00 0. -1.
         21    1    1    2  505  506 -0.49934728268E+02 -0.57715392921E+02 -0.91438751262E+01  0.76864517949E+02  0.00000000000E+00 0. -1.
         21    1    1    2  506  501 -0.16396239408E+02  0.41999672572E+02  0.53549684468E+03  0.53739155169E+03  0.00000000000E+00 0.  1.
<scales pt_clust_3="44.67449" pt_clust_4="14000.00000" pt_clust_5="82.24405" pt_clust_6="45.08668"></scales>
<clustering>
<clus scale="   45.087">  1  6  2 -1</clus>
<clus scale="   44.674">  2  3  1 -1</clus>
<clus scale="   82.244">  1  5  2 -1</clus>
<clus scale="   45.087">  1  3  2 -1</clus>
</clustering>
</event>
<event>
 6    0  0.3446372E+002  0.1525690E+03  0.7546771E-02  0.1197351E+00
         21   -1    0    0  506  501  0.00000000000E+00  0.00000000000E+00  0.10639050111E+03  0.10639050111E+03  0.00000000000E+00 0.  1.
         21   -1    0    0  505  502 -0.00000000000E+00 -0.00000000000E+00 -0.68782816081E+03  0.68782816081E+03  0.00000000000E+00 0. -1.
         21    1    1    2  503  501 -0.21898727150E+02 -0.10577485214E+03 -0.25171114027E+03  0.27390942250E+03  0.00000000000E+00 0. -1.
         21    1    1    2  504  502  0.85958943557E+02  0.23974295496E+02 -0.14431907557E+03  0.16968117867E+03  0.00000000000E+00 0. -1.
         21    1    1    2  505  503 -0.73820930819E+02 -0.46633055849E+02 -0.20266359954E+03  0.22067330220E+03  0.00000000000E+00 0. -1.
         21    1    1    2  506  504  0.97607144121E+01  0.12843361249E+03  0.17256155682E+02  0.12995475856E+03  0.00000000000E+00 0.  1.
<scales pt_clust_3="68.26673" pt_clust_4="89.23960" pt_clust_5="68.26673" pt_clust_6="132.33310"></scales>
<clustering>
<clus scale="   68.267">  3  5 -1 -1</clus>
<clus scale="   89.240">  2  4  1 -1</clus>
<clus scale="  132.333">  1  6  2 -1</clus>
<clus scale="  132.333">  1  3  2 -1</clus>
</clustering>
</event>
<event>
 6    0  0.3446372E+002  0.1545239E+03  0.7546771E-02  0.1195022E+00
         21   -1    0    0  504  501  0.00000000000E+00  0.00000000000E+00  0.82263400878E+03  0.82263400878E+03  0.00000000000E+00 0. -1.
         21   -1    0    0  505  502 -0.00000000000E+00 -0.00000000000E+00 -0.16010936301E+04  0.16010936301E+04  0.00000000000E+00 0.  1.
         21    1    1    2  503  502  0.79801247387E+01  0.15773082325E+03 -0.78258476469E+03  0.79836182832E+03  0.00000000000E+00 0.  1.
         21    1    1    2  504  506 -0.39682790965E+02  0.17727114178E+02  0.68930612442E+03  0.69067496526E+03  0.00000000000E+00 0. -1.
         21    1    1    2  505  501  0.87567802856E+02 -0.14126179975E+03 -0.79207532705E+03  0.80932461959E+03  0.00000000000E+00 0.  1.
         21    1    1    2  506  503 -0.55865136630E+02 -0.34196137686E+02  0.10689434604E+03  0.12536622567E+03  0.00000000000E+00 0. -1.
<scales pt_clust_3="14000.00000" pt_clust_4="43.46233" pt_clust_5="154.52387" pt_clust_6="92.51241"></scales>
<clustering>
<clus scale="   43.462">  1  4  2 -1</clus>
<clus scale="   92.512">  1  6  2 -1</clus>
<clus scale="  154.524">  1  5  2 -1</clus>
<clus scale="   43.462">  1  3  2 -1</clus>
</clustering>
</event>
<event>
 6    0  0.3446372E+002  0.1702792E+03  0.7546771E-02  0.1177557E+00
         21   -1    0    0  503  501  0.00000000000E+00  0.00000000000E+00  0.39292473350E+03  0.39292473350E+03  0.00000000000E+00 0. -1.
         21   -1    0    0  504  502 -0.00000000000E+00 -0.00000000000E+00 -0.98939702722E+03  0.98939702722E+03  0.00000000000E+00 0. -1.
         21    1    1    2  503  506 -0.39084186595E+02  0.27631723294E+02 -0.11537917690E+02  0.49236260201E+02  0.00000000000E+00 0. -1.
         21    1    1    2  504  505  0.15560881365E+03  0.12652478416E+03 -0.88706912068E+03  0.90945821716E+03  0.00000000000E+00 0. -1.
         21    1    1    2  505  501 -0.10375841976E+03 -0.11900420955E+03  0.33721778910E+03  0.37234882683E+03  0.00000000000E+00 0. -1.
         21    1    1    2  506  502 -0.12766207298E+02 -0.35152297901E+02 -0.35083044440E+02  0.51278456526E+02  0.00000000000E+00 0. -1.
<scales pt_clust_3="47.56248" pt_clust_4="170.27923" pt_clust_5="14000.00000" pt_clust_6="37.39866"></scales>
<clustering>
<clus scale="   37.399">  2  6  1 -1</clus>
<clus scale="   47.562">  1  3  2 -1</clus>
<clus scale="  170.279">  2  4  1 -1</clus>
<clus scale="   47.562">  1  3  2 -1</clus>
</clustering>
</event>
<event>
 6    0  0.3446372E+002  0.1218066E+03  0.7546771E-02  0.1240146E+00
         21   -1    0    0  504  501  0.00000000000E+00  0.00000000000E+00  0.58513932420E+03  0.58513932420E+03  0.00000000000E+00 0. -1.
         21   -1    0    0  505  502 -0.00000000000E+00 -0.00000000000E+00 -0.44250273648E+03  0.44250273648E+03  0.00000000000E+00 0.  1.
         21    1    1    2  503  502  0.66214262194E+01 -0.73025905903E+02 -0.33681393350E+03  0.34470313607E+03  0.00000000000E+00 0.  1.
         21    1    1    2  504  506 -0.71240081839E+02  0.93059475419E+02  0.32233249270E+03  0.34297733318E+03  0.00000000000E+00 0. -1.
         21    1    1    2  505  501  0.46972361910E+02  0.16879510356E+02  0.24127628469E+03  0.24638499590E+03  0.00000000000E+00 0. -1.
         21    1    1    2  506  503  0.17646293709E+02 -0.36913079873E+02 -0.84158256172E+02  0.93576595521E+02  0.00000000000E+00 0. -1.
<scales pt_clust_3="35.00491" pt_clust_4="112.43134" pt_clust_5="49.91313" pt_clust_6="35.00491"></scales>
<clustering>
<clus scale="   35.005">  3  6 -1 -1</clus>
<clus scale="   49.913">  1  5  2 -1</clus>
<clus scale="  112.431">  1  4  2 -1</clus>
<clus scale="   49.913">  1  3  2 -1</clus>
</clustering>
</event>
<event>
 6    0  0.3446372E+002  0.2248331E+03  0.7546771E-02  0.1130330E+00
         21   -1    0    0  506  501  0.00000000000E+00  0.00000000000E+00  0.16770063475E+04  0.16770063475E+04  0.00000000000E+00 0. -1.
         21   -1    0    0  503  502 -0.00000000000E+00 -0.00000000000E+00 -0.86305950145E+02  0.86305950145E+02  0.00000000000E+00 0. -1.
         21    1    1    2  503  505 -0.66623850466E+02  0.10088965581E+03  0.54161690473E+02  0.13247999402E+03  0.00000000000E+00 0.  1.
         21    1    1    2  504  501  0.37290597462E+02 -0.15624958950E+02  0.13647513085E+03  0.14233829190E+03  0.00000000000E+00 0. -1.
         21    1    1    2  505  504 -0.27984034279E+01  0.10651715029E+03  0.38779248940E+02  0.11339120123E+03  0.00000000000E+00 0. -1.
         21    1    1    2  506  502  0.32131656432E+02 -0.19178184715E+03  0.13612843271E+04  0.13751028105E+04  0.00000000000E+00 0. -1.
<scales pt_clust_3="59.48494" pt_clust_4="40.43177" pt_clust_5="59.48494" pt_clust_6="215.80624"></scales>
<clustering>
<clus scale="   40.432">  1  4  2 -1</clus>
<clus scale="   59.485">  3  5 -1 -1</clus>
<clus scale="  215.806">  1  6  2 -1</clus>
<clus scale="   40.432">  1  3  2 -1</clus>
</clustering>
</event>
<event>
 6    0  0.3446372E+002  0.1236316E+03  0.7546771E-02  0.1237223E+00
         21   -1    0    0  504  501  0.00000000000E+00  0.00000000000E+00  0.21997245842E+04  0.21997245842E+04  0.00000000000E+00 0.  1.
         21   -1    0    0  503  502 -0.00000000000E+00 -0.00000000000E+00 -0.60799970428E+03  0.60799970428E+03  0.00000000000E+00 0.  1.
         21    1    1    2  503  505  0.11103273365E+03  0.69572131346E+02 -0.33363999480E+03  0.35844692150E+03  0.00000000000E+00 0.  1.
         21    1    1    2  504  506  0.56737001393E+02 -0.73917506840E+02 -0.77956644919E+02  0.12149124920E+03  0.00000000000E+00 0.  1.
         21    1    1    2  505  501 -0.58517362114E+02  0.37588043284E+02  0.21448236600E+04  0.21459509955E+04  0.00000000000E+00 0.  1.
         21    1    1    2  506  502 -0.10925237293E+03 -0.33242667790E+02 -0.14150214037E+03  0.18183512225E+03  0.00000000000E+00 0. -1.
<scales pt_clust_3="123.63160" pt_clust_4="67.62435" pt_clust_5="69.54957" pt_clust_6="14000.00000"></scales>
<clustering>
<clus scale="   69.550">  1  5  2 -1</clus>
<clus scale="   67.624">  1  4  2 -1</clus>
<clus scale="  123.632">  2  3  1 -1</clus>
<clus scale="   69.550">  1  3  2 -1</clus>
</clustering>
</event>
<event>
 6    0  0.3446372E+002  0.1379932E+03  0.7546771E-02  0.1216055E+00
         21   -1    0    0  502  501  0.00000000000E+00  0.00000000000E+00  0.48454953767E+03  0.48454953767E+03  0.00000000000E+00 0. -1.
         21   -1    0    0  505  502 -0.00000000000E+00 -0.00000000000E+00 -0.29377103366E+03  0.29377103366E+03  0.00000000000E+00 0. -1.
         21    1    1    2  503  504 -0.51731756453E+02  0.25881789347E+02  0.16024089378E+03  0.17036192557E+03  0.00000000000E+00 0. -1.
         21    1    1    2  504  501 -0.67440622542E+02 -0.32248742272E+01  0.29877424167E+03  0.30630815344E+03  0.00000000000E+00 0. -1.
         21    1    1    2  505  506  0.60340391303E+02 -0.38841435515E+02 -0.18511189373E+03  0.19853471519E+03  0.00000000000E+00 0. -1.
         21    1    1    2  506  503  0.58831987692E+02  0.16184520396E+02 -0.83124737700E+02  0.10311577713E+03  0.00000000000E+00 0. -1.
<scales pt_clust_3="39.31441" pt_clust_4="128.52809" pt_clust_5="60.65462" pt_clust_6="60.65462"></scales>
<clustering>
<clus scale="   39.314">  3  4 -1 -1</clus>
<clus scale="   60.655">  5  6 -1 -1</clus>
<clus scale="  128.528">  1  3  2 -1</clus>
<clus scale="  128.528">  1  3  2 -1</clus>
</clustering>
</event>
<event>
 6    0  0.3446372E+002  0.1650728E+03  0.7546771E-02  0.1183086E+00
         21   -1    0    0  504  501  0.00000000000E+00  0.00000000000E+00  0.97824632590E+02  0.97824632590E+02  0.00000000000E+00 0.  1.
         21   -1    0    0  503  502 -0.00000000000E+00 -0.00000000000E+00 -0.86374093696E+03  0.86374093696E+03  0.00000000000E+00 0.  1.
         21    1    1    2  503  501  0.12219403137E+03  0.11500502544E+02 -0.23080231230E+03  0.26140648466E+03  0.00000000000E+00 0.  1.
         21    1    1    2  504  505  0.82498673038E+02  0.29375215824E+02  0.92169162485E+01  0.88056151988E+02  0.00000000000E+00 0.  1.
         21    1    1    2  505  506 -0.23051908809E+03 -0.10924530675E+02 -0.39356839249E+03  0.45623949294E+03  0.00000000000E+00 0.  1.
         21    1    1    2  506  502  0.25826383684E+02 -0.29951187694E+02 -0.15076251582E+03  0.15586343996E+03  0.00000000000E+00 0.  1.
<scales pt_clust_3="165.07279" pt_clust_4="88.38868" pt_clust_5="14000.00000" pt_clust_6="39.54840"></scales>
<clustering>
<clus scale="   39.548">  2  6  1 -1</clus>
<clus scale="   88.389">  1  4  2 -1</clus>
<clus scale="  165.073">  2  3  1 -1</clus>
<clus scale="   88.389">  1  3  2 -1</clus>
</clustering>
</event>
<event>
 6    0  0.3446372E+002  0.1184412E+03  0.7546771E-02  0.1245691E+00
         21   -1    0    0  504  501  0.00000000000E+00  0.00000000000E+00  0.32360453904E+03  0.32360453904E+03  0.00000000000E+00 0.  1.
         21   -1    0    0  506  502 -0.00000000000E+00 -0.00000000000E+00 -0.13334496276E+03  0.13334496276E+03  0.00000000000E+00 0.  1.
         21    1    1    2  503  501 -0.97119273485E+02 -0.71810392984E+01 -0.36574012582E+02  0.10402585738E+03  0.00000000000E+00 0.  1.
         21    1    1    2  504  505  0.56639220001E+02  0.15620063452E+01  0.15729136341E+03  0.16718556789E+03  0.00000000000E+00 0.  1.
         21    1    1    2  505  502  0.43875680719E+02  0.43906082959E+02  0.11225718610E+03  0.12827507673E+03  0.00000000000E+00 0.  1.
         21    1    1    2  506  503 -0.33956272348E+01 -0.38287050006E+02 -0.42714960649E+02  0.57462999797E+02  0.00000000000E+00 0.  1.
<scales pt_clust_3="107.50970" pt_clust_4="48.49363" pt_clust_5="48.49363" pt_clust_6="38.43733"></scales>
<clustering>
<clus scale="   38.437">  2  6  1 -1</clus>
<clus scale="   48.494">  4  5 -1 -1</clus>
<clus scale="  107.510">  2  3  1 -1</clus>
<clus scale="  118.441">  1  3  2 -1</clus>
</clustering>
</event>
<event>
 6    0  0.3446372E+002  0.1561851E+03  0.7546771E-02  0.1193072E+00
         21   -1    0    0  504  501  0.00000000000E+00  0.00000000000E+00  0.12040198601E+03  0.12040198601E+03  0.00000000000E+00 0. -1.
         21   -1    0    0  505  502 -0.00000000000E+00 -0.00000000000E+00 -0.12783712155E+04  0.12783712155E+04  0.00000000000E+00 0. -1.
         21    1    1    2  503  502  0.80543181623E+02  0.22304241955E+02 -0.46767746782E+03  0.47508619978E+03  0.00000000000E+00 0. -1.
         21    1    1    2  504  503  0.25934108113E+02  0.54847507990E+02 -0.22434812146E+03  0.23240676991E+03  0.00000000000E+00 0. -1.
         21    1    1    2  505  506 -0.16036718090E+03 -0.36358166984E+02 -0.55536018857E+03  0.57919296272E+03  0.00000000000E+00 0. -1.
         21    1    1    2  506  501  0.53889891165E+02 -0.40793582961E+02  0.89416548349E+02  0.11208726912E+03  0.00000000000E+00 0. -1.
<scales pt_clust_3="56.24028" pt_clust_4="56.24028" pt_clust_5="141.55106" pt_clust_6="67.58873"></scales>
<clustering>
<clus scale="   56.240">  3  4 -1 -1</clus>
<clus scale="   67.589">  1  6  2 -1</clus>
<clus scale="  141.551">  1  5  2 -1</clus>
<clus scale="   67.589">  1  3  2 -1</clus>
</clustering>
</event>
<event>
 6    0  0.3446372E+002  0.1183550E+03  0.7546771E-02  0.1245836E+00
         21   -1    0    0  506  501  0.00000000000E+00  0.00000000000E+00  0.60327327804E+03  0.60327327804E+03  0.00000000000E+00 0.  1.
         21   -1    0    0  505  502 -0.00000000000E+00 -0.00000000000E+00 -0.39827101977E+03  0.39827101977E+03  0.00000000000E+00 0.  1.
         21    1    1    2  503  501 -0.90485848268E+02  0.89098040281E+02  0.35134397790E+03  0.37358899920E+03  0.00000000000E+00 0.  1.
         21    1    1    2  504  502  0.10602383700E+03 -0.78281163851E+02 -0.33840785597E+03  0.36316507487E+03  0.00000000000E+00 0.  1.
         21    1    1    2  505  503  0.34592638372E+01  0.34324896007E+02 -0.24783862748E+02  0.42478286746E+02  0.00000000000E+00 0.  1.
         21    1    1    2  506  504 -0.18997252573E+02 -0.45141772437E+02  0.21684999909E+03  0.22231193699E+03  0.00000000000E+00 0.  1.
<scales pt_clust_3="14000.00000" pt_clust_4="118.35504" pt_clust_5="34.49877" pt_clust_6="48.72933"></scales>
<clustering>
<clus scale="   34.499">  2  5  1 -1</clus>
<clus scale="   48.729">  1  6  2 -1</clus>
<clus scale="  118.355">  2  4  1 -1</clus>
<clus scale="   48.729">  1  3  2 -1</clus>
</clustering>
</event>
<event>
 6    0  0.3446372E+002  0.2202698E+03  0.7546771E-02  0.1133682E+00
         21   -1    0    0  506  501  0.00000000000E+00  0.00000000000E+00  0.98128377977E+03  0.98128377977E+03  0.00000000000E+00 0.  1.
         21   -1    0    0  503  502 -0.00000000000E+00 -0.00000000000E+00 -0.98476618472E+02  0.98476618472E+02  0.00000000000E+00 0. -1.
         21    1    1    2  503  504 -0.58844735558E+02 -0.13518288745E+03  0.19680077846E+02  0.14874280294E+03  0.00000000000E+00 0. -1.
         21    1    1    2  504  505 -0.23966103396E+02 -0.47215781215E+02  0.60799175881E+02  0.80624090045E+02  0.00000000000E+00 0. -1.
         21    1    1    2  505  501  0.20436190333E+02 -0.41660436066E+02  0.18428832969E+03  0.19004057006E+03  0.00000000000E+00 0. -1.
         21    1    1    2  506  502  0.62374648621E+02  0.22405910473E+03  0.61803957788E+03  0.66035293520E+03  0.00000000000E+00 0.  1.
<scales pt_clust_3="47.04711" pt_clust_4="47.04711" pt_clust_5="46.40291" pt_clust_6="206.18783"></scales>
<clustering>
<clus scale="   46.403">  1  5  2 -1</clus>
<clus scale="   47.047">  3  4 -1 -1</clus>
<clus scale="  206.188">  1  6  2 -1</clus>
<clus scale="   46.403">  1  3  2 -1</clus>
</clustering>
</event>
<event>
 6    0  0.3446372E+002  0.9059072E+02  0.7546771E-02  0.1301427E+00
         21   -1    0    0  504  501  0.00000000000E+00  0.00000000000E+00  0.28124938493E+03  0.28124938493E+03  0.00000000000E+00 0.  1.
         21   -1    0    0  506  502 -0.00000000000E+00 -0.00000000000E+00 -0.91814771192E+02  0.91814771192E+02  0.00000000000E+00 0. -1.
         21    1    1    2  503  502  0.16979530894E+02 -0.25752203518E+02  0.39006773724E+01  0.31091731045E+02  0.00000000000E+00 0. -1.
         21    1    1    2  504  505 -0.24315365023E+02 -0.57438042996E+02  0.83216555558E+02  0.10399692725E+03  0.00000000000E+00 0. -1.
         21    1    1    2  505  503  0.84790699446E+02  0.12540178098E+02 -0.76366994098E+01  0.86052530219E+02  0.00000000000E+00 0. -1.
         21    1    1    2  506  501 -0.77454865317E+02  0.70650068417E+02  0.10995408021E+03  0.15192296760E+03  0.00000000000E+00 0.  1.
<scales pt_clust_3="30.84608" pt_clust_4="64.73357" pt_clust_5="90.59072" pt_clust_6="14000.00000"></scales>
<clustering>
<clus scale="   30.846">  2  3  1 -1</clus>
<clus scale="   64.734">  1  4  2 -1</clus>
<clus scale="   90.591">  2  5  1 -1</clus>
<clus scale="   64.734">  1  3  2 -1</clus>
</clustering>
</event>
<event>
 6    0  0.3446372E+002  0.1194708E+03  0.7546771E-02  0.1243973E+00
         21   -1    0    0  505  501  0.00000000000E+00  0.00000000000E+00  0.83100411735E+03  0.83100411735E+03  0.00000000000E+00 0.  1.
         21   -1    0    0  503  502 -0.00000000000E+00 -0.00000000000E+00 -0.91552622381E+02  0.91552622381E+02  0.00000000000E+00 0.  1.
         21    1    1    2  503  506 -0.89294567827E+02 -0.10572813003E+03  0.15723484722E+02  0.13928095812E+03  0.00000000000E+00 0.  1.
         21    1    1    2  504  502 -0.16180151038E+01  0.40938244447E+02  0.96735235744E+01  0.42096732529E+02  0.00000000000E+00 0.  1.
         21    1    1    2  505  504 -0.48391001583E+02  0.15737417595E+02  0.19361900538E+03  0.20019409230E+03  0.00000000000E+00 0.  1.
         21    1    1    2  506  501  0.13930358451E+03  0.49052467991E+02  0.52043548129E+03  0.54098495678E+03  0.00000000000E+00 0.  1.
<scales pt_clust_3="14000.00000" pt_clust_4="40.97021" pt_clust_5="51.53261" pt_clust_6="119.47080"></scales>
<clustering>
<clus scale="   40.970">  2  4  1 -1</clus>
<clus scale="   51.533">  1  5  2 -1</clus>
<clus scale="  119.471">  1  6  2 -1</clus>
<clus scale="   51.533">  1  3  2 -1</clus>
</clustering>
</event>
<event>
 6    0  0.3446372E+002  0.7812846E+02  0.7546771E-02  0.1334448E+00
         21   -1    0    0  505  501  0.00000000000E+00  0.00000000000E+00  0.11143173040E+04  0.11143173040E+04  0.00000000000E+00 0.  1.
         21   -1    0    0  503  502 -0.00000000000E+00 -0.00000000000E+00 -0.31948478321E+02  0.31948478321E+02  0.00000000000E+00 0.  1.
         21    1    1    2  503  506 -0.24666100857E+02 -0.89214460793E+02  0.96821380928E+02  0.13394781204E+03  0.00000000000E+00 0.  1.
         21    1    1    2  504  502  0.54934761175E+02  0.26291291956E+02  0.12391585665E+03  0.13807316737E+03  0.00000000000E+00 0.  1.
         21    1    1    2  505  504 -0.48898840589E+02  0.92311972897E+02  0.75206909691E+03  0.75928948595E+03  0.00000000000E+00 0.  1.
         21    1    1    2  506  501  0.18630180271E+02 -0.29388804061E+02  0.10956249121E+03  0.11495531698E+03  0.00000000000E+00 0. -1.
<scales pt_clust_3="14000.00000" pt_clust_4="61.60614" pt_clust_5="78.12846" pt_clust_6="34.79634"></scales>
<clustering>
<clus scale="   34.796">  1  6  2 -1</clus>
<clus scale="   61.606">  2  4  1 -1</clus>
<clus scale="   78.128">  1  5  2 -1</clus>
<clus scale="   34.796">  1  3  2 -1</clus>
</clustering>
</event>
<event>
 6    0  0.3446372E+002  0.9103773E+02  0.7546771E-02  0.1300358E+00
         21   -1    0    0  504  501  0.00000000000E+00  0.00000000000E+00  0.77772138144E+03  0.77772138144E+03  0.00000000000E+00 0. -1.
         21   -1    0    0  506  502 -0.00000000000E+00 -0.00000000000E+00 -0.22577575843E+03  0.22577575843E+03  0.00000000000E+00 0. -1.
         21    1    1    2  503  501  0.52297832073E+01 -0.10674286318E+03  0.53672536849E+03  0.54726183007E+03  0.00000000000E+00 0. -1.
         21    1    1    2  504  505  0.29946976282E+02  0.19594491727E+02  0.21084103728E+03  0.21385674760E+03  0.00000000000E+00 0. -1.
         21    1    1    2  505  502 -0.63378296179E+02  0.25140945741E+02 -0.13478029933E+03  0.15104504185E+03  0.00000000000E+00 0. -1.
         21    1    1    2  506  503  0.28201536690E+02  0.62007425715E+02 -0.60840483430E+02  0.91333520349E+02  0.00000000000E+00 0. -1.
<scales pt_clust_3="14000.00000" pt_clust_4="35.78778" pt_clust_5="67.88749" pt_clust_6="91.03773"></scales>
<clustering>
<clus scale="   35.788">  1  4  2 -1</clus>
<clus scale="   67.887">  2  5  1 -1</clus>
<clus scale="   91.038">  2  6  1 -1</clus>
<clus scale="   35.788">  1  3  2 -1</clus>
</clustering>
</event>
<event>
 6    0  0.3446372E+002  0.1122579E+03  0.7546771E-02  0.1256445E+00
         21   -1    0    0  506  501  0.00000000000E+00  0.00000000000E+00  0.16565174004E+03  0.16565174004E+03  0.00000000000E+00 0.  1.
         21   -1    0    0  503  502 -0.00000000000E+00 -0.00000000000E+00 -0.29719417049E+03  0.29719417049E+03  0.00000000000E+00 0.  1.
         21    1    1    2  503  504  0.15934062024E+02  0.42521665174E+02 -0.25656645354E+02  0.52156013963E+02  0.00000000000E+00 0.  1.
         21    1    1    2  504  505  0.81926399710E+02 -0.10637770061E+03  0.83871196390E+02  0.15831148960E+03  0.00000000000E+00 0.  1.
         21    1    1    2  505  501 -0.31532502117E+02  0.40566436664E+01  0.10197000134E+02  0.33387630334E+02  0.00000000000E+00 0. -1.
         21    1    1    2  506  502 -0.66327959617E+02  0.59799391770E+02 -0.19995398163E+03  0.21899077663E+03  0.00000000000E+00 0.  1.
<scales pt_clust_3="44.83061" pt_clust_4="14000.00000" pt_clust_5="31.79237" pt_clust_6="112.25787"></scales>
<clustering>
<clus scale="   31.792">  1  5  2 -1</clus>
<clus scale="   44.831">  2  3  1 -1</clus>
<clus scale="  112.258">  2  6  1 -1</clus>
<clus scale="   31.792">  1  3  2 -1</clus>
</clustering>
</event>
<event>
 6    0  0.3446372E+002  0.1104655E+03  0.7546771E-02  0.1259710E+00
         21   -1    0    0  503  501  0.00000000000E+00  0.00000000000E+00  0.49704110222E+03  0.49704110222E+03  0.00000000000E+00 0.  1.
         21   -1    0    0  505  502 -0.00000000000E+00 -0.00000000000E+00 -0.81561098649E+03  0.81561098649E+03  0.00000000000E+00 0.  1.
         21    1    1    2  503  502 -0.77473472381E+02 -0.14299468455E+02 -0.65498455511E+03  0.65970552609E+03  0.00000000000E+00 0.  1.
         21    1    1    2  504  506  0.45120432704E+02  0.76620454808E+02  0.33920847943E+03  0.35066927447E+03  0.00000000000E+00 0.  1.
         21    1    1    2  505  504 -0.19478777311E+02 -0.41705850042E+02 -0.14361464169E+03  0.15081102745E+03  0.00000000000E+00 0.  1.
         21    1    1    2  506  501  0.51831816988E+02 -0.20615136311E+02  0.14082083310E+03  0.15146626070E+03  0.00000000000E+00 0.  1.
<scales pt_clust_3="110.46547" pt_clust_4="14000.00000" pt_clust_5="46.03043" pt_clust_6="55.76082"></scales>
<clustering>
<clus scale="   46.030">  2  5  1 -1</clus>
<clus scale="   55.761">  1  6  2 -1</clus>
<clus scale="  110.465">  2  3  1 -1</clus>
<clus scale="   55.761">  1  3  2 -1</clus>
</clustering>
</event>
<event>
 6    0  0.3446372E+002  0.6910123E+02  0.7546771E-02  0.1363176E+00
         21   -1    0    0  505  501  0.00000000000E+00  0.00000000000E+00  0.35028712476E+03  0.35028712476E+03  0.00000000000E+00 0. -1.
         21   -1    0    0  503  502 -0.00000000000E+00 -0.00000000000E+00 -0.70603153286E+02  0.70603153286E+02  0.00000000000E+00 0.  1.
         21    1    1    2  503  506  0.44976687679E+02 -0.76034856709E+02  0.89742206619E+01  0.88796050057E+02  0.00000000000E+00 0.  1.
         21    1    1    2  504  502 -0.32997587310E+02  0.24277975932E+02  0.14384899882E+02  0.43418731306E+02  0.00000000000E+00 0. -1.
         21    1    1    2  505  504 -0.22667928099E+02  0.89591690057E+02  0.19562551791E+03  0.21635583919E+03  0.00000000000E+00 0. -1.
         21    1    1    2  506  501  0.10688827730E+02 -0.37834809281E+02  0.60699333018E+02  0.72319657496E+02  0.00000000000E+00 0.  1.
<scales pt_clust_3="69.10123" pt_clust_4="37.88598" pt_clust_5="14000.00000" pt_clust_6="39.31569"></scales>
<clustering>
<clus scale="   39.316">  1  6  2 -1</clus>
<clus scale="   37.886">  2  4  1 -1</clus>
<clus scale="   69.101">  2  3  1 -1</clus>
<clus scale="   39.316">  1  3  2 -1</clus>
</clustering>
</event>
<event>
 6    0  0.3446372E+002  0.8465012E+02  0.7546771E-02  0.1316350E+00
         21   -1    0    0  506  501  0.00000000000E+00  0.00000000000E+00  0.20165996399E+04  0.20165996399E+04  0.00000000000E+00 0.  1.
         21   -1    0    0  503  502 -0.00000000000E+00 -0.00000000000E+00 -0.36476011166E+03  0.36476011166E+03  0.00000000000E+00 0.  1.
         21    1    1    2  503  505 -0.47197218418E+02 -0.69689414520E+02 -0.26511098829E+03  0.27815108850E+03  0.00000000000E+00 0.  1.
         21    1    1    2  504  501 -0.32655530259E+02  0.58093772708E+02  0.17080512373E+04  0.17093508415E+04  0.00000000000E+00 0.  1.
         21    1    1    2  505  504  0.76660142331E+02  0.50434575079E+02 -0.68011066909E+02  0.11421877695E+03  0.00000000000E+00 0.  1.
         21    1    1    2  506  502  0.31926063464E+01 -0.38838933267E+02  0.27691034613E+03  0.27963904461E+03  0.00000000000E+00 0. -1.
<scales pt_clust_3="14000.00000" pt_clust_4="35.60826" pt_clust_5="84.65012" pt_clust_6="38.96993"></scales>
<clustering>
<clus scale="   38.970">  1  6  2 -1</clus>
<clus scale="   35.608">  1  4  2 -1</clus>
<clus scale="   84.650">  1  5  2 -1</clus>
<clus scale="   38.970">  1  3  2 -1</clus>
</clustering>
</event>
<event>
 6    0  0.3446372E+002  0.1258738E+03  0.7546771E-02  0.1233710E+00
         21   -1    0    0  505  501  0.00000000000E+00  0.00000000000E+00  0.18840494132E+04  0.18840494132E+04  0.00000000000E+00 0. -1.
         21   -1    0    0  503  502 -0.00000000000E+00 -0.00000000000E+00 -0.10953286142E+03  0.10953286142E+03  0.00000000000E+00 0.  1.
         21    1    1    2  503  506  0.13778862550E+02  0.89127297374E+02 -0.75308843535E+02  0.11749448542E+03  0.00000000000E+00 0.  1.
         21    1    1    2  504  502  0.20347095326E+02  0.32327149279E+02  0.35250938778E+02  0.51977663986E+02  0.00000000000E+00 0. -1.
         21    1    1    2  505  504 -0.58180122539E+02 -0.14247297160E+03  0.15469481758E+04  0.15545842315E+04  0.00000000000E+00 0. -1.
         21    1    1    2  506  501  0.24054164664E+02  0.21018524947E+02  0.26762628069E+03  0.26952589364E+03  0.00000000000E+00 0. -1.
<scales pt_clust_3="125.87384" pt_clust_4="39.02446" pt_clust_5="14000.00000" pt_clust_6="31.94341"></scales>
<clustering>
<clus scale="   31.943">  1  6  2 -1</clus>
<clus scale="   39.024">  2  4  1 -1</clus>
<clus scale="  125.874">  2  3  1 -1</clus>
<clus scale="   31.943">  1  3  2 -1</clus>
</clustering>
</event>
<event>
 6    0  0.3446372E+002  0.8321484E+02  0.7546771E-02  0.1320168E+00
         21   -1    0    0  506  501  0.00000000000E+00  0.00000000000E+00  0.10242332752E+03  0.10242332752E+03  0.00000000000E+00 0.  1.
         21   -1    0    0  503  502 -0.00000000000E+00 -0.00000000000E+00 -0.45520386857E+03  0.45520386857E+03  0.00000000000E+00 0.  1.
         21    1    1    2  503  504 -0.13721257878E+02  0.49918050626E+02 -0.17431393415E+03  0.18183902863E+03  0.00000000000E+00 0.  1.
         21    1    1    2  504  501 -0.77432984087E+02 -0.14710021440E+02 -0.22178071927E+03  0.23536979245E+03  0.00000000000E+00 0.  1.
         21    1    1    2  505  502  0.67782087429E+02  0.13520750938E+02 -0.30888746495E+01  0.69186438185E+02  0.00000000000E+00 0.  1.
         21    1    1    2  506  505  0.23372154536E+02 -0.48728780124E+02  0.46402987019E+02  0.71231936828E+02  0.00000000000E+00 0.  1.
<scales pt_clust_3="51.76953" pt_clust_4="83.21484" pt_clust_5="14000.00000" pt_clust_6="51.76355"></scales>
<clustering>
<clus scale="   51.770">  2  3  1 -1</clus>
<clus scale="   51.764">  1  6  2 -1</clus>
<clus scale="   83.215">  2  4  1 -1</clus>
<clus scale="   51.764">  1  3  2 -1</clus>
</clustering>
</event>
<event>
 6    0  0.3446372E+002  0.1466932E+03  0.7546771E-02  0.1204596E+00
         21   -1    0    0  503  501  0.00000000000E+00  0.00000000000E+00  0.58935736120E+03  0.58935736120E+03  0.00000000000E+00 0. -1.
         21   -1    0    0  505  502 -0.00000000000E+00 -0.00000000000E+00 -0.65814637135E+03  0.65814637135E+03  0.00000000000E+00 0. -1.
         21    1    1    2  503  502 -0.34553057177E+02 -0.10175686902E+02  0.13222098870E+02  0.38370330501E+02  0.00000000000E+00 0.  1.
         21    1    1    2  504  501 -0.21178039461E+02 -0.11757813587E+03  0.54867822014E+03  0.56153443050E+03  0.00000000000E+00 0. -1.
         21    1    1    2  505  506  0.51532962814E+02  0.61098691447E+02 -0.32270386304E+03  0.33245522943E+03  0.00000000000E+00 0.  1.
         21    1    1    2  506  504  0.41981338236E+01  0.66655131330E+02 -0.30798546611E+03  0.31514374211E+03  0.00000000000E+00 0. -1.
<scales pt_clust_3="36.02025" pt_clust_4="139.03417" pt_clust_5="42.80661" pt_clust_6="42.80661"></scales>
<clustering>
<clus scale="   36.020">  1  3  2 -1</clus>
<clus scale="   42.807">  5  6 -1 -1</clus>
<clus scale="  139.034">  1  4  2 -1</clus>
<clus scale="   36.020">  1  3  2 -1</clus>
</clustering>
</event>
<event>
 6    0  0.3446372E+002  0.7197165E+02  0.7546771E-02  0.1353514E+00
         21   -1    0    0  506  501  0.00000000000E+00  0.00000000000E+00  0.94814871967E+02  0.94814871967E+02  0.00000000000E+00 0.  1.
         21   -1    0    0  504  502 -0.00000000000E+00 -0.00000000000E+00 -0.86978066375E+03  0.86978066375E+03  0.00000000000E+00 0. -1.
         21    1    1    2  503  501  0.38601459543E+01  0.37969932261E+02  0.65272216005E+02  0.75611365977E+02  0.00000000000E+00 0.  1.
         21    1    1    2  504  503 -0.10462868431E+02  0.87726338083E+02 -0.59408365246E+03  0.60061698955E+03  0.00000000000E+00 0. -1.
         21    1    1    2  505  502 -0.17627013525E+02 -0.32215440747E+02 -0.14053925058E+03  0.14525779560E+03  0.00000000000E+00 0. -1.
         21    1    1    2  506  505  0.24229736001E+02 -0.93480829597E+02 -0.10561510474E+03  0.14310938459E+03  0.00000000000E+00 0. -1.
<scales pt_clust_3="37.92516" pt_clust_4="71.97165" pt_clust_5="36.72256" pt_clust_6="14000.00000"></scales>
<clustering>
<clus scale="   36.723">  2  5  1 -1</clus>
<clus scale="   37.925">  1  3  2 -1</clus>
<clus scale="   71.972">  2  4  1 -1</clus>
<clus scale="   37.925">  1  3  2 -1</clus>
</clustering>
</event>
<event>
 6    0  0.3446372E+002  0.1204281E+03  0.7546771E-02  0.1242392E+00
         21   -1    0    0  505  501  0.00000000000E+00  0.00000000000E+00  0.11302365934E+04  0.11302365934E+04  0.00000000000E+00 0.  1.
         21   -1    0    0  504  502 -0.00000000000E+00 -0.00000000000E+00 -0.40411798309E+02  0.40411798309E+02  0.00000000000E+00 0.  1.
         21    1    1    2  503  502  0.20436864821E+02 -0.36593368683E+02  0.81665874295E+02  0.91793546067E+02  0.00000000000E+00 0.  1.
         21    1    1    2  504  506 -0.41294129690E+02  0.25078272089E+02  0.19778624331E+02  0.52204586563E+02  0.00000000000E+00 0.  1.
         21    1    1    2  505  503  0.91444316696E+02 -0.53329317392E+02  0.85970997690E+03  0.86620281893E+03  0.00000000000E+00 0.  1.
         21    1    1    2  506  501 -0.70587051827E+02  0.64844413987E+02  0.12867031955E+03  0.16044744013E+03  0.00000000000E+00 0.  1.
<scales pt_clust_3="41.91348" pt_clust_4="36.06363" pt_clust_5="109.19080" pt_clust_6="36.06363"></scales>
<clustering>
<clus scale="   36.064">  4  6 -1 -1</clus>
<clus scale="   41.913">  2  3  1 -1</clus>
<clus scale="  109.191">  1  5  2 -1</clus>
<clus scale="  109.191">  1  3  2 -1</clus>
</clustering>
</event>
<event>
 6    0  0.3446372E+002  0.1572224E+03  0.7546771E-02  0.1191869E+00
         21   -1    0    0  503  501  0.00000000000E+00  0.00000000000E+00  0.14188541510E+03  0.14188541510E+03  0.00000000000E+00 0. -1.
         21   -1    0    0  504  502 -0.00000000000E+00 -0.00000000000E+00 -0.15330976112E+04  0.15330976112E+04  0.00000000000E+00 0. -1.
         21    1    1    2  503  505  0.84038900280E+02 -0.18270390320E+03 -0.42811138717E+03  0.47299324818E+03  0.00000000000E+00 0. -1.
         21    1    1    2  504  506 -0.75644976797E+02  0.99638784868E+02 -0.28098596627E+03  0.30757627217E+03  0.00000000000E+00 0. -1.
         21    1    1    2  505  502 -0.16404564521E+02  0.52999532155E+02 -0.78498380940E+03  0.78694195540E+03  0.00000000000E+00 0. -1.
         21    1    1    2  506  501  0.80106410381E+01  0.30065586175E+02  0.10286896678E+03  0.10747155051E+03  0.00000000000E+00 0. -1.
<scales pt_clust_3="157.22236" pt_clust_4="14000.00000" pt_clust_5="56.18474" pt_clust_6="31.11446"></scales>
<clustering>
<clus scale="   31.114">  1  6  2 -1</clus>
<clus scale="   56.185">  2  5  1 -1</clus>
<clus scale="  157.222">  2  3  1 -1</clus>
<clus scale="   31.114">  1  3  2 -1</clus>
</clustering>
</event>
<event>
 6    0  0.3446372E+002  0.1125375E+03  0.7546771E-02  0.1255942E+00
         21   -1    0    0  506  501  0.00000000000E+00  0.00000000000E+00  0.11194419492E+03  0.11194419492E+03  0.00000000000E+00 0.  1.
         21   -1    0    0  503  502 -0.00000000000E+00 -0.00000000000E+00 -0.51610249703E+03  0.51610249703E+03  0.00000000000E+00 0. -1.
         21    1    1    2  503  505  0.36640317332E+02 -0.26143190588E+02 -0.52736628879E+02  0.69333478882E+02  0.00000000000E+00 0.  1.
         21    1    1    2  504  502 -0.59047937598E+02 -0.30843890838E+02 -0.30087730591E+03  0.30816417337E+03  0.00000000000E+00 0. -1.
         21    1    1    2  505  501  0.51612097818E+02  0.92711181978E+02  0.66165941857E+02  0.12504840569E+03  0.00000000000E+00 0.  1.
         21    1    1    2  506  504 -0.29204477552E+02 -0.35724100552E+02 -0.11671030917E+03  0.12550063401E+03  0.00000000000E+00 0. -1.
<scales pt_clust_3="45.01088" pt_clust_4="31.86502" pt_clust_5="105.82404" pt_clust_6="31.86502"></scales>
<clustering>
<clus scale="   31.865">  4  6 -1 -1</clus>
<clus scale="   45.011">  2  3  1 -1</clus>
<clus scale="  105.824">  1  5  2 -1</clus>
<clus scale="  105.824">  1  3  2 -1</clus>
</clustering>
</event>
<event>
 6    0  0.3446372E+002  0.1092939E+03  0.7546771E-02  0.1261883E+00
         21   -1    0    0  506  501  0.00000000000E+00  0.00000000000E+00  0.20306097899E+04  0.20306097899E+04  0.00000000000E+00 0. -1.
         21   -1    0    0  504  502 -0.00000000000E+00 -0.00000000000E+00 -0.55379532639E+02  0.55379532639E+02  0.00000000000E+00 0.  1.
         21    1    1    2  503  505 -0.47719339745E+02  0.46175627753E+02  0.34661614281E+02  0.74904949694E+02  0.00000000000E+00 0.  1.
         21    1    1    2  504  503 -0.43299006465E+02  0.21225200813E+02 -0.71827937023E+01  0.48753519214E+02  0.00000000000E+00 0.  1.
         21    1    1    2  505  501  0.75433765324E+02  0.10374112288E+02  0.17100412598E+04  0.17117356646E+04  0.00000000000E+00 0. -1.
         21    1    1    2  506  502  0.15584580886E+02 -0.77774940853E+02  0.23771017689E+03  0.25059518907E+03  0.00000000000E+00 0. -1.
<scales pt_clust_3="35.23008" pt_clust_4="35.23008" pt_clust_5="76.14378" pt_clust_6="101.17334"></scales>
<clustering>
<clus scale="   35.230">  3  4 -1 -1</clus>
<clus scale="   76.144">  1  5  2 -1</clus>
<clus scale="  101.173">  1  6  2 -1</clus>
<clus scale="   76.144">  1  3  2 -1</clus>
</clustering>
</event>
<event>
 6    0  0.3446372E+002  0.8150176E+02  0.7546771E-02  0.1324843E+00
         21   -1    0    0  503  501  0.00000000000E+00  0.00000000000E+00  0.34604955758E+03  0.34604955758E+03  0.00000000000E+00 0.  1.
         21   -1    0    0  506  502 -0.00000000000E+00 -0.00000000000E+00 -0.14113843851E+03  0.14113843851E+03  0.00000000000E+00 0.  1.
         21    1    1    2  503  505 -0.63243101161E+02  0.13370179256E+02  0.21624058059E+03  0.22569545904E+03  0.00000000000E+00 0.  1.
         21    1    1    2  504  501  0.30692347685E+02 -0.47262629691E+02  0.31712720725E+02  0.64664310307E+02  0.00000000000E+00 0.  1.
         21    1    1    2  505  502  0.31470716988E+02  0.10631318238E+03  0.31593142334E+01  0.11091834854E+03  0.00000000000E+00 0.  1.
         21    1    1    2  506  504  0.10800364890E+01 -0.72420731950E+02 -0.46201496476E+02  0.85909878196E+02  0.00000000000E+00 0.  1.
<scales pt_clust_3="45.92025" pt_clust_4="56.35403" pt_clust_5="81.50176" pt_clust_6="14000.00000"></scales>
<clustering>
<clus scale="   56.354">  1  4  2 -1</clus>
<clus scale="   45.920">  1  3  2 -1</clus>
<clus scale="   81.502">  1  5  2 -1</clus>
<clus scale="   56.354">  1  3  2 -1</clus>
</clustering>
</event>
<event>
 6    0  0.3446372E+002  0.1419763E+03  0.7546771E-02  0.1210694E+00
         21   -1    0    0  502  501  0.00000000000E+00  0.00000000000E+00  0.32696510332E+03  0.32696510332E+03  0.00000000000E+00 0. -1.
         21   -1    0    0  504  502 -0.00000000000E+00 -0.00000000000E+00 -0.67623020653E+02  0.67623020653E+02  0.00000000000E+00 0. -1.
         21    1    1    2  503  506  0.56712139469E+02  0.82059613742E+01  0.53848586076E+02  0.78633801813E+02  0.00000000000E+00 0. -1.
         21    1    1    2  504  503  0.62491910372E+02  0.46406353448E+02  0.15468915328E+02  0.79360417361E+02  0.00000000000E+00 0. -1.
         21    1    1    2  505  501 -0.71665068346E+02 -0.33094977596E+02  0.15440799019E+03  0.17341564807E+03  0.00000000000E+00 0. -1.
         21    1    1    2  506  505 -0.47538981496E+02 -0.21517337226E+02  0.35616591076E+02  0.63178256725E+02  0.00000000000E+00 0. -1.
<scales pt_clust_3="46.72124" pt_clust_4="46.72124" pt_clust_5="140.95153" pt_clust_6="42.05308"></scales>
<clustering>
<clus scale="   42.053">  5  6 -1 -1</clus>
<clus scale="   46.721">  3  4 -1 -1</clus>
<clus scale="  140.952">  1  5  2 -1</clus>
<clus scale="  140.952">  1  3  2 -1</clus>
</clustering>
</event>
<event>
 6    0  0.3446372E+002  0.8246739E+02  0.7546771E-02  0.1322192E+00
         21   -1    0    0  506  501  0.00000000000E+00  0.00000000000E+00  0.50617863948E+03  0.50617863948E+03  0.00000000000E+00 0.  1.
         21   -1    0    0  503  502 -0.00000000000E+00 -0.00000000000E+00 -0.75438651664E+02  0.75438651664E+02  0.00000000000E+00 0.  1.
         21    1    1    2  503  504  0.48787271428E+01  0.40614521484E+02  0.11343201599E+02  0.42450083115E+02  0.00000000000E+00 0.  1.
         21    1    1    2  504  501 -0.59334823650E+02  0.26822919262E+02  0.22845785121E+02  0.69007392308E+02  0.00000000000E+00 0.  1.
         21    1    1    2  505  502 -0.30088033701E+02 -0.50648772486E+02 -0.53177572304E+01  0.59151216963E+02  0.00000000000E+00 0.  1.
         21    1    1    2  506  505  0.84544130208E+02 -0.16788668260E+02  0.40186875832E+03  0.41100859875E+03  0.00000000000E+00 0.  1.
<scales pt_clust_3="40.90650" pt_clust_4="14000.00000" pt_clust_5="39.78516" pt_clust_6="82.46739"></scales>
<clustering>
<clus scale="   40.906">  2  3  1 -1</clus>
<clus scale="   39.785">  2  5  1 -1</clus>
<clus scale="   82.467">  1  6  2 -1</clus>
<clus scale="   82.467">  1  3  2 -1</clus>
</clustering>
</event>
<event>
 6    0  0.3446372E+002  0.1179293E+03  0.7546771E-02  0.1246553E+00
         21   -1    0    0  502  501  0.00000000000E+00  0.00000000000E+00  0.71054767382E+03  0.71054767382E+03  0.00000000000E+00 0.  1.
         21   -1    0    0  505  502 -0.00000000000E+00 -0.00000000000E+00 -0.29791092144E+03  0.29791092144E+03  0.00000000000E+00 0.  1.
         21    1    1    2  503  504  0.45128105720E+02 -0.75535258680E+02  0.20868490577E+02  0.90430167138E+02  0.00000000000E+00 0.  1.
         21    1    1    2  504  506 -0.51515497426E+02  0.15731966758E+03  0.22507668844E+03  0.27939727981E+03  0.00000000000E+00 0.  1.
         21    1    1    2  505  503  0.18388547817E+02 -0.27050341997E+02 -0.23287186487E+03  0.23515774523E+03  0.00000000000E+00 0.  1.
         21    1    1    2  506  501 -0.12001156111E+02 -0.54734066907E+02  0.39956343823E+03  0.40347340309E+03  0.00000000000E+00 0.  1.
<scales pt_clust_3="14000.00000" pt_clust_4="117.92928" pt_clust_5="32.70871" pt_clust_6="56.72692"></scales>
<clustering>
<clus scale="   32.709">  2  5  1 -1</clus>
<clus scale="   56.727">  1  6  2 -1</clus>
<clus scale="  117.929">  1  4  2 -1</clus>
<clus scale="   56.727">  1  3  2 -1</clus>
</clustering>
</event>
<event>
 6    0  0.3446372E+002  0.1792922E+03  0.7546771E-02  0.1168490E+00
         21   -1    0    0  505  501  0.00000000000E+00  0.00000000000E+00  0.66032913324E+03  0.66032913324E+03  0.00000000000E+00 0.  1.
         21   -1    0    0  501  502 -0.00000000000E+00 -0.00000000000E+00 -0.27896645623E+04  0.27896645623E+04  0.00000000000E+00 0. -1.
         21    1    1    2  503  504 -0.19049347450E+03 -0.11160670132E+03  0.47526987555E+02  0.22583762785E+03  0.00000000000E+00 0.  1.
         21    1    1    2  504  506  0.78091292840E+02  0.42420352051E+02 -0.12945202555E+04  0.12975671189E+04  0.00000000000E+00 0. -1.
         21    1    1    2  505  503  0.60077691589E+02 -0.33263273140E+01  0.51896008399E+03  0.52243656290E+03  0.00000000000E+00 0.  1.
         21    1    1    2  506  502  0.52324490068E+02  0.72512676587E+02 -0.14013022451E+04  0.14041523858E+04  0.00000000000E+00 0. -1.
<scales pt_clust_3="174.74050" pt_clust_4="40.01905" pt_clust_5="60.16971" pt_clust_6="40.01905"></scales>
<clustering>
<clus scale="   40.019">  4  6 -1 -1</clus>
<clus scale="   60.170">  1  5  2 -1</clus>
<clus scale="  174.741">  1  3  2 -1</clus>
<clus scale="   60.170">  1  3  2 -1</clus>
</clustering>
</event>
<event>
 6    0  0.3446372E+002  0.9603471E+02  0.7546771E-02  0.1288863E+00
         21   -1    0    0  506  501  0.00000000000E+00  0.00000000000E+00  0.45968717488E+03  0.45968717488E+03  0.00000000000E+00 0.  1.
         21   -1    0    0  503  502 -0.00000000000E+00 -0.00000000000E+00 -0.24624059652E+03  0.24624059652E+03  0.00000000000E+00 0.  1.
         21    1    1    2  503  505  0.72123838033E+02  0.93177320652E+01 -0.15785960312E+03  0.17380541545E+03  0.00000000000E+00 0.  1.
         21    1    1    2  504  502  0.72871821118E+01  0.44007438566E+02 -0.30769889575E+02  0.54189886295E+02  0.00000000000E+00 0.  1.
         21    1    1    2  505  501  0.31508034953E+02  0.38631563832E+01  0.33452674807E+03  0.33602950081E+03  0.00000000000E+00 0.  1.
         21    1    1    2  506  504 -0.11091905510E+03 -0.57188327014E+02  0.67549322993E+02  0.14190296885E+03  0.00000000000E+00 0.  1.
<scales pt_clust_3="96.03471" pt_clust_4="45.54023" pt_clust_5="31.74398" pt_clust_6="14000.00000"></scales>
<clustering>
<clus scale="   31.744">  1  5  2 -1</clus>
<clus scale="   45.540">  2  4  1 -1</clus>
<clus scale="   96.035">  2  3  1 -1</clus>
<clus scale="   31.744">  1  3  2 -1</clus>
</clustering>
</event>
<event>
 6    0  0.3446372E+002  0.9292602E+02  0.7546771E-02  0.1295917E+00
         21   -1    0    0  504  501  0.00000000000E+00  0.00000000000E+00  0.64382010102E+02  0.64382010102E+02  0.00000000000E+00 0.  1.
         21   -1    0    0  505  502 -0.00000000000E+00 -0.00000000000E+00 -0.75951410599E+03  0.75951410599E+03  0.00000000000E+00 0.  1.
         21    1    1    2  503  501 -0.96825368265E+02 -0.79045973184E+01 -0.29649267759E+02  0.10157122465E+03  0.00000000000E+00 0.  1.
         21    1    1    2  504  502 -0.26864952174E+02  0.81151503846E+02 -0.42255662275E+03  0.43111644792E+03  0.00000000000E+00 0.  1.
         21    1    1    2  505  506  0.45344211991E+02  0.32332179773E+01 -0.10982841671E+03  0.11886476508E+03  0.00000000000E+00 0.  1.
         21    1    1    2  506  503  0.78346108448E+02 -0.76480124505E+02 -0.13309778867E+03  0.17234367845E+03  0.00000000000E+00 0.  1.
<scales pt_clust_3="92.92602" pt_clust_4="83.34952" pt_clust_5="45.45934" pt_clust_6="14000.00000"></scales>
<clustering>
<clus scale="   45.459">  2  5  1 -1</clus>
<clus scale="   83.350">  2  4  1 -1</clus>
<clus scale="   92.926">  1  3  2 -1</clus>
<clus scale="   92.926">  1  3  2 -1</clus>
</clustering>
</event>
<event>
 6    0  0.3446372E+002  0.2039562E+03  0.7546771E-02  0.1146443E+00
         21   -1    0    0  504  501  0.00000000000E+00  0.00000000000E+00  0.49533501292E+03  0.49533501292E+03  0.00000000000E+00 0. -1.
         21   -1    0    0  503  502 -0.00000000000E+00 -0.00000000000E+00 -0.19757909649E+03  0.19757909649E+03  0.00000000000E+00 0. -1.
         21    1    1    2  503  505 -0.37032017004E+02  0.94501031182E+02 -0.63564509609E+02  0.11975918361E+03  0.00000000000E+00 0. -1.
         21    1    1    2  504  502  0.54328028839E+02  0.10967960249E+02  0.98435315038E+02  0.11296611048E+03  0.00000000000E+00 0. -1.
         21    1    1    2  505  506 -0.99307462418E+02  0.36854693909E+02 -0.41937067627E+02  0.11392523073E+03  0.00000000000E+00 0. -1.
         21    1    1    2  506  501  0.82011450583E+02 -0.14232368534E+03  0.30482217863E+03  0.34626358460E+03  0.00000000000E+00 0. -1.
<scales pt_clust_3="87.06556" pt_clust_4="55.42410" pt_clust_5="87.06556" pt_clust_6="184.29072"></scales>
<clustering>
<clus scale="   55.424">  1  4  2 -1</clus>
<clus scale="   87.066">  3  5 -1 -1</clus>
<clus scale="  184.291">  1  6  2 -1</clus>
<clus scale="   55.424">  1  3  2 -1</clus>
</clustering>
</event>
<event>
 6    0  0.3446372E+002  0.1603216E+03  0.7546771E-02  0.1188334E+00
         21   -1    0    0  505  501  0.00000000000E+00  0.00000000000E+00  0.12290862911E+03  0.12290862911E+03  0.00000000000E+00 0. -1.
         21   -1    0    0  506  502 -0.00000000000E+00 -0.00000000000E+00 -0.72330374448E+03  0.72330374448E+03  0.00000000000E+00 0.  1.
         21    1    1    2  503  502 -0.21351984143E+02 -0.66618889185E+02 -0.35573358181E+03  0.36254705191E+03  0.00000000000E+00 0.  1.
         21    1    1    2  504  503  0.70656639555E+01 -0.87364598527E+02 -0.27593529447E+03  0.28952164585E+03  0.00000000000E+00 0.  1.
         21    1    1    2  505  504  0.32739349280E+02  0.99485552293E+01  0.34914042528E+02  0.48885878412E+02  0.00000000000E+00 0. -1.
         21    1    1    2  506  501 -0.18453029093E+02  0.14403493248E+03 -0.36402816224E+01  0.14525779741E+03  0.00000000000E+00 0. -1.
<scales pt_clust_3="42.48351" pt_clust_4="42.48351" pt_clust_5="34.21752" pt_clust_6="153.06868"></scales>
<clustering>
<clus scale="   34.218">  1  5  2 -1</clus>
<clus scale="   42.484">  3  4 -1 -1</clus>
<clus scale="  153.069">  1  6  2 -1</clus>
<clus scale="   34.218">  1  3  2 -1</clus>
</clustering>
</event>
<event>
 6    0  0.3446372E+002  0.9526745E+02  0.7546771E-02  0.1290575E+00
         21   -1    0    0  504  501  0.00000000000E+00  0.00000000000E+00  0.94402017048E+02  0.94402017048E+02  0.00000000000E+00 0.  1.
         21   -1    0    0  505  502 -0.00000000000E+00 -0.00000000000E+00 -0.12435065894E+04  0.12435065894E+04  0.00000000000E+00 0.  1.
         21    1    1    2  503  501  0.38142554294E+02 -0.14926375340E+01 -0.38560840483E+02  0.54258831849E+02  0.00000000000E+00 0. -1.
         21    1    1    2  504  502 -0.39865569314E+02 -0.96980879454E+02  0.50551392936E+02  0.11640445835E+03  0.00000000000E+00 0.  1.
         21    1    1    2  505  506 -0.18580197726E+02  0.26297887600E+02 -0.63710945426E+03  0.63792261235E+03  0.00000000000E+00 0.  1.
         21    1    1    2  506  503  0.20303212746E+02  0.72175629388E+02 -0.52398567053E+03  0.52932270388E+03  0.00000000000E+00 0.  1.
<scales pt_clust_3="36.72329" pt_clust_4="95.26745" pt_clust_5="32.19942" pt_clust_6="14000.00000"></scales>
<clustering>
<clus scale="   32.199">  2  5  1 -1</clus>
<clus scale="   36.723">  1  3  2 -1</clus>
<clus scale="   95.267">  1  4  2 -1</clus>
<clus scale="   36.723">  1  3  2 -1</clus>
</clustering>
</event>
<event>
 6    0  0.3446372E+002  0.1666983E+03  0.7546771E-02  0.1181335E+00
         21   -1    0    0  504  501  0.00000000000E+00  0.00000000000E+00  0.35982492183E+04  0.35982492183E+04  0.00000000000E+00 0. -1.
         21   -1    0    0  503  502 -0.00000000000E+00 -0.00000000000E+00 -0.18167675158E+02  0.18167675158E+02  0.00000000000E+00 0. -1.
         21    1    1    2  503  506 -0.98913636905E+02  0.37211978810E+02  0.24963127159E+03  0.27108008169E+03  0.00000000000E+00 0. -1.
         21    1    1    2  504  502  0.16831504844E+03  0.11433454346E+02  0.20881988018E+04  0.20950023664E+04  0.00000000000E+00 0. -1.
         21    1    1    2  505  501 -0.22018388036E+02 -0.20672980553E+02  0.10481387321E+04  0.10485737853E+04  0.00000000000E+00 0.  1.
         21    1    1    2  506  505 -0.47383023503E+02 -0.27972452603E+02  0.19411273762E+03  0.20176066001E+03  0.00000000000E+00 0.  1.
<scales pt_clust_3="52.66321" pt_clust_4="150.35553" pt_clust_5="30.20234" pt_clust_6="52.66321"></scales>
<clustering>
<clus scale="   30.202">  1  5  2 -1</clus>
<clus scale="   52.663">  3  6 -1 -1</clus>
<clus scale="  150.356">  1  4  2 -1</clus>
<clus scale="   30.202">  1  3  2 -1</clus>
</clustering>
</event>
<event>
 6    0  0.3446372E+002  0.1023339E+03  0.7546771E-02  0.1275463E+00
         21   -1    0    0  503  501  0.00000000000E+00  0.00000000000E+00  0.81441335745E+03  0.81441335745E+03  0.00000000000E+00 0.  1.
         21   -1    0    0  504  502 -0.00000000000E+00 -0.00000000000E+00 -0.78814063733E+02  0.78814063733E+02  0.00000000000E+00 0. -1.
         21    1    1    2  503  506  0.42364960452E+02 -0.22865391998E+02  0.76503197076E+02  0.90390017082E+02  0.00000000000E+00 0. -1.
         21    1    1    2  504  505 -0.80252131861E+02 -0.49951909967E+02 -0.22365202994E+02  0.97138047554E+02  0.00000000000E+00 0. -1.
         21    1    1    2  505  501  0.72226439306E+02  0.73474831324E+02  0.65304471016E+03  0.66112222988E+03  0.00000000000E+00 0.  1.
         21    1    1    2  506  502 -0.34339267896E+02 -0.65752935901E+00  0.28416589476E+02  0.44577126668E+02  0.00000000000E+00 0. -1.
<scales pt_clust_3="45.23631" pt_clust_4="14000.00000" pt_clust_5="102.33393" pt_clust_6="34.34556"></scales>
<clustering>
<clus scale="   34.346">  2  6  1 -1</clus>
<clus scale="   45.236">  2  3  1 -1</clus>
<clus scale="  102.334">  1  5  2 -1</clus>
<clus scale="  102.334">  1  3  2 -1</clus>
</clustering>
</event>
<event>
 6    0  0.3446372E+002  0.8509021E+02  0.7546771E-02  0.1315197E+00
         21   -1    0    0  503  501  0.00000000000E+00  0.00000000000E+00  0.15071539360E+04  0.15071539360E+04  0.00000000000E+00 0.  1.
         21   -1    0    0  504  502 -0.00000000000E+00 -0.00000000000E+00 -0.23503764466E+04  0.23503764466E+04  0.00000000000E+00 0. -1.
         21    1    1    2  503  506  0.73572522649E+02 -0.41245795848E+02  0.11638927179E+04  0.11669448961E+04  0.00000000000E+00 0.  1.
         21    1    1    2  504  505  0.58533195660E+02  0.46677438949E+02 -0.41007649922E+03  0.41685447522E+03  0.00000000000E+00 0.  1.
         21    1    1    2  505  501 -0.40680159646E+02  0.16340797262E+01  0.33603060224E+03  0.33848797800E+03  0.00000000000E+00 0.  1.
         21    1    1    2  506  502 -0.91425558663E+02 -0.70657228279E+01 -0.19330693315E+04  0.19352430332E+04  0.00000000000E+00 0. -1.
<scales pt_clust_3="51.59219" pt_clust_4="14000.00000" pt_clust_5="40.71297" pt_clust_6="85.09021"></scales>
<clustering>
<clus scale="   40.713">  1  5  2 -1</clus>
<clus scale="   51.592">  1  3  2 -1</clus>
<clus scale="   85.090">  2  6  1 -1</clus>
<clus scale="   40.713">  1  3  2 -1</clus>
</clustering>
</event>
<event>
 6    0  0.3446372E+002  0.1483332E+03  0.7546771E-02  0.1202536E+00
         21   -1    0    0  503  501  0.00000000000E+00  0.00000000000E+00  0.16251117537E+03  0.16251117537E+03  0.00000000000E+00 0.  1.
         21   -1    0    0  506  502 -0.00000000000E+00 -0.00000000000E+00 -0.18533813163E+04  0.18533813163E+04  0.00000000000E+00 0.  1.
         21    1    1    2  503  505  0.33159578033E+01  0.95239390324E+02  0.36245109766E+02  0.10195707444E+03  0.00000000000E+00 0.  1.
         21    1    1    2  504  501 -0.15156084776E+03 -0.84287741665E+01 -0.45955655269E+03  0.48397723080E+03  0.00000000000E+00 0. -1.
         21    1    1    2  505  502  0.14111029295E+03 -0.44803284581E+02  0.13063446566E+02  0.14862739560E+03  0.00000000000E+00 0.  1.
         21    1    1    2  506  504  0.71345970047E+01 -0.42007331577E+02 -0.12806221445E+04  0.12813307908E+04  0.00000000000E+00 0.  1.
<scales pt_clust_3="92.90290" pt_clust_4="148.33318" pt_clust_5="14000.00000" pt_clust_6="42.60890"></scales>
<clustering>
<clus scale="   42.609">  2  6  1 -1</clus>
<clus scale="   92.903">  1  3  2 -1</clus>
<clus scale="  148.333">  2  4  1 -1</clus>
<clus scale="   92.903">  1  3  2 -1</clus>
</clustering>
</event>
<event>
 6    0  0.3446372E+002  0.1092036E+03  0.7546771E-02  0.1262052E+00
         21   -1    0    0  503  501  0.00000000000E+00  0.00000000000E+00  0.31258041629E+03  0.31258041629E+03  0.00000000000E+00 0. -1.
         21   -1    0    0  506  502 -0.00000000000E+00 -0.00000000000E+00 -0.10591660409E+04  0.10591660409E+04  0.00000000000E+00 0.  1.
         21    1    1    2  503  504 -0.19926069260E+02 -0.10622564699E+03  0.24237946904E+03  0.26538414294E+03  0.00000000000E+00 0. -1.
         21    1    1    2  504  505  0.10401377597E+03  0.97155827168E+02 -0.38003296822E+02  0.14731724581E+03  0.00000000000E+00 0. -1.
         21    1    1    2  505  502 -0.86284924076E+02 -0.22358849106E+02 -0.58788007001E+03  0.59459901024E+03  0.00000000000E+00 0.  1.
         21    1    1    2  506  501  0.21972173660E+01  0.31428668931E+02 -0.36308172684E+03  0.36444605823E+03  0.00000000000E+00 0.  1.
<scales pt_clust_3="109.20361" pt_clust_4="14000.00000" pt_clust_5="84.52945" pt_clust_6="31.50538"></scales>
<clustering>
<clus scale="   31.505">  2  6  1 -1</clus>
<clus scale="   84.529">  2  5  1 -1</clus>
<clus scale="  109.204">  1  3  2 -1</clus>
<clus scale="  109.204">  1  3  2 -1</clus>
</clustering>
</event>
<event>
 6    0  0.3446372E+002  0.1223722E+03  0.7546771E-02  0.1239234E+00
         21   -1    0    0  504  501  0.00000000000E+00  0.00000000000E+00  0.35861726340E+03  0.35861726340E+03  0.00000000000E+00 0.  1.
         21   -1    0    0  503  502 -0.00000000000E+00 -0.00000000000E+00 -0.61339853619E+02  0.61339853619E+02  0.00000000000E+00 0.  1.
         21    1    1    2  503  506  0.13333934694E+02  0.10771916662E+03  0.15790980787E+03  0.19161607473E+03  0.00000000000E+00 0.  1.
         21    1    1    2  504  505 -0.43100316389E+01 -0.85410668914E+02  0.48085209488E+02  0.98110886800E+02  0.00000000000E+00 0.  1.
         21    1    1    2  505  502  0.24548397614E+02 -0.31644078389E+02  0.92506765569E+01  0.41104093948E+02  0.00000000000E+00 0.  1.
         21    1    1    2  506  501 -0.33572300669E+02  0.93355806847E+01  0.82031715861E+02  0.89126061542E+02  0.00000000000E+00 0.  1.
<scales pt_clust_3="113.98663" pt_clust_4="30.46625" pt_clust_5="30.46625" pt_clust_6="34.84613"></scales>
<clustering>
<clus scale="   30.466">  4  5 -1 -1</clus>
<clus scale="   34.846">  1  6  2 -1</clus>
<clus scale="  113.987">  1  3  2 -1</clus>
<clus scale="   34.846">  1  3  2 -1</clus>
</clustering>
</event>
<event>
 6    0  0.3446372E+002  0.1715226E+03  0.7546771E-02  0.1176269E+00
         21   -1    0    0  506  501  0.00000000000E+00  0.00000000000E+00  0.23404344612E+04  0.23404344612E+04  0.00000000000E+00 0.  1.
         21   -1    0    0  504  502 -0.00000000000E+00 -0.00000000000E+00 -0.31850691652E+02  0.31850691652E+02  0.00000000000E+00 0.  1.
         21    1    1    2  503  501 -0.19506060897E+03 -0.23292613994E+01  0.44525494200E+03  0.48611318641E+03  0.00000000000E+00 0.  1.
         21    1    1    2  504  503 -0.46915900793E+00 -0.47327160046E+02  0.14205326505E+03  0.14973045882E+03  0.00000000000E+00 0.  1.
         21    1    1    2  505  502  0.38669492385E+02 -0.12227828925E+02  0.12810059953E+03  0.13436745529E+03  0.00000000000E+00 0.  1.
         21    1    1    2  506  505  0.15686027559E+03  0.61884250371E+02  0.15931749630E+04  0.16020740523E+04  0.00000000000E+00 0.  1.
<scales pt_clust_3="171.52261" pt_clust_4="49.18668" pt_clust_5="40.55674" pt_clust_6="14000.00000"></scales>
<clustering>
<clus scale="   40.557">  2  5  1 -1</clus>
<clus scale="   49.187">  2  4  1 -1</clus>
<clus scale="  171.523">  2  3  1 -1</clus>
<clus scale="  171.523">  1  3  2 -1</clus>
</clustering>
</event>
<event>
 6    0  0.3446372E+002  0.1158877E+03  0.7546771E-02  0.1250039E+00
         21   -1    0    0  503  501  0.00000000000E+00  0.00000000000E+00  0.27940892028E+03  0.27940892028E+03  0.00000000000E+00 0.  1.
         21   -1    0    0  505  502 -0.00000000000E+00 -0.00000000000E+00 -0.63681343759E+03  0.63681343759E+03  0.00000000000E+00 0. -1.
         21    1    1    2  503  504  0.27296517529E+02 -0.29592802214E+02  0.50891976397E+02  0.64890885906E+02  0.00000000000E+00 0. -1.
         21    1    1    2  504  506  0.48314840296E+01 -0.62280187102E+02 -0.14512515995E+02  0.64130944667E+02  0.00000000000E+00 0. -1.
         21    1    1    2  505  501 -0.13209212440E+03  0.32149880653E+02  0.16649552256E+03  0.21494814069E+03  0.00000000000E+00 0.  1.
         21    1    1    2  506  502  0.99964122839E+02  0.59723108663E+02 -0.56027950026E+03  0.57225238661E+03  0.00000000000E+00 0. -1.
<scales pt_clust_3="40.25958" pt_clust_4="66.06713" pt_clust_5="14000.00000" pt_clust_6="115.88771"></scales>
<clustering>
<clus scale="   40.260">  1  3  2 -1</clus>
<clus scale="   66.067">  1  4  2 -1</clus>
<clus scale="  115.888">  2  6  1 -1</clus>
<clus scale="   40.260">  1  3  2 -1</clus>
</clustering>
</event>
<event>
 6    0  0.3446372E+002  0.9623263E+02  0.7546771E-02  0.1288424E+00
         21   -1    0    0  503  501  0.00000000000E+00  0.00000000000E+00  0.17935385281E+03  0.17935385281E+03  0.00000000000E+00 0. -1.
         21   -1    0    0  505  502 -0.00000000000E+00 -0.00000000000E+00 -0.18116441896E+03  0.18116441896E+03  0.00000000000E+00 0. -1.
         21    1    1    2  503  504  0.60075149300E+01  0.29406625417E+02  0.20204064955E+02  0.36180714404E+02  0.00000000000E+00 0. -1.
         21    1    1    2  504  502  0.68030088596E+02  0.84612194568E+01 -0.15558372351E+02  0.70297568516E+02  0.00000000000E+00 0. -1.
         21    1    1    2  505  506 -0.13056257869E+03 -0.31484006512E+02 -0.83594495920E+02  0.15819566799E+03  0.00000000000E+00 0. -1.
         21    1    1    2  506  501  0.56524975167E+02 -0.63838383618E+01  0.77138237166E+02  0.95844320870E+02  0.00000000000E+00 0. -1.
<scales pt_clust_3="30.01399" pt_clust_4="96.23263" pt_clust_5="14000.00000" pt_clust_6="60.86475"></scales>
<clustering>
<clus scale="   30.014">  1  3  2 -1</clus>
<clus scale="   60.865">  1  6  2 -1</clus>
<clus scale="   96.233">  2  4  1 -1</clus>
<clus scale="   30.014">  1  3  2 -1</clus>
</clustering>
</event>
<event>
 6    0  0.3446372E+002  0.1921336E+03  0.7546771E-02  0.1156551E+00
         21   -1    0    0  505  501  0.00000000000E+00  0.00000000000E+00  0.33814650696E+03  0.33814650696E+03  0.00000000000E+00 0.  1.
         21   -1    0    0  506  502 -0.00000000000E+00 -0.00000000000E+00 -0.10763126661E+03  0.10763126661E+03  0.00000000000E+00 0.  1.
         21    1    1    2  503  501  0.21717669325E+01  0.54644987108E+02  0.89804181017E+02  0.10514552827E+03  0.00000000000E+00 0.  1.
         21    1    1    2  504  503  0.35423994977E+02  0.54218117817E+02  0.34499907282E+02  0.73380565017E+02  0.00000000000E+00 0.  1.
         21    1    1    2  505  502 -0.91489628880E+02 -0.14322369439E+03  0.38734670048E+02  0.17430936145E+03  0.00000000000E+00 0.  1.
         21    1    1    2  506  504  0.53893866971E+02  0.34360589463E+02  0.67476482005E+02  0.92942318827E+02  0.00000000000E+00 0.  1.
<scales pt_clust_3="50.35079" pt_clust_4="50.35079" pt_clust_5="169.95111" pt_clust_6="37.70102"></scales>
<clustering>
<clus scale="   37.701">  4  6 -1 -1</clus>
<clus scale="   50.351">  3  4 -1 -1</clus>
<clus scale="  169.951">  2  5  1 -1</clus>
<clus scale="  192.134">  1  3  2 -1</clus>
</clustering>
</event>
<event>
 6    0  0.3446372E+002  0.1963070E+03  0.7546771E-02  0.1152893E+00
         21   -1    0    0  503  501  0.00000000000E+00  0.00000000000E+00  0.14171637414E+04  0.14171637414E+04  0.00000000000E+00 0. -1.
         21   -1    0    0  505  502 -0.00000000000E+00 -0.00000000000E+00 -0.14751263296E+03  0.14751263296E+03  0.00000000000E+00 0.  1.
         21    1    1    2  503  506 -0.13953484351E+03 -0.12910919844E+03  0.11707224783E+04  0.11860566086E+04  0.00000000000E+00 0. -1.
         21    1    1    2  504  502  0.45137614905E+02  0.11625876795E+03 -0.71503391705E+02  0.14375757521E+03  0.00000000000E+00 0.  1.
         21    1    1    2  505  501  0.46646741846E+02 -0.27329277524E+02  0.16333987350E+03  0.17205441642E+03  0.00000000000E+00 0. -1.
         21    1    1    2  506  504  0.47750486757E+02  0.40179708012E+02  0.70921483622E+01  0.62807774120E+02  0.00000000000E+00 0.  1.
<scales pt_clust_3="181.98133" pt_clust_4="52.07455" pt_clust_5="54.06300" pt_clust_6="52.07455"></scales>
<clustering>
<clus scale="   52.075">  4  6 -1 -1</clus>
<clus scale="   54.063">  1  5  2 -1</clus>
<clus scale="  181.981">  1  3  2 -1</clus>
<clus scale="   54.063">  1  3  2 -1</clus>
</clustering>
</event>
<event>
 6    0  0.3446372E+002  0.2266934E+03  0.7546771E-02  0.1128989E+00
         21   -1    0    0  504  501  0.00000000000E+00  0.00000000000E+00  0.14260670313E+04  0.14260670313E+04  0.00000000000E+00 0.  1.
         21   -1    0    0  505  502 -0.00000000000E+00 -0.00000000000E+00 -0.39864783314E+03  0.39864783314E+03  0.00000000000E+00 0.  1.
         21    1    1    2  503  502 -0.77358806957E+02  0.56439008840E+02 -0.29634502852E+03  0.31143237253E+03  0.00000000000E+00 0.  1.
         21    1    1    2  504  506  0.28113819394E+03 -0.96724189953E+02  0.11096262162E+04  0.11487665527E+04  0.00000000000E+00 0.  1.
         21    1    1    2  505  501 -0.56053022612E+02  0.58886052205E+01 -0.39611850796E+02  0.68889155452E+02  0.00000000000E+00 0.  1.
         21    1    1    2  506  503 -0.14772636437E+03  0.34396575892E+02  0.25374986131E+03  0.29562678376E+03  0.00000000000E+00 0.  1.
<scales pt_clust_3="141.00309" pt_clust_4="14000.00000" pt_clust_5="56.36149" pt_clust_6="226.69337"></scales>
<clustering>
<clus scale="   56.361">  2  5  1 -1</clus>
<clus scale="  141.003">  2  3  1 -1</clus>
<clus scale="  226.693">  2  6  1 -1</clus>
<clus scale="  226.693">  1  3  2 -1</clus>
</clustering>
</event>
<event>
 6    0  0.3446372E+002  0.8527552E+02  0.7546771E-02  0.1314714E+00
         21   -1    0    0  505  501  0.00000000000E+00  0.00000000000E+00  0.81654592809E+03  0.81654592809E+03  0.00000000000E+00 0.  1.
         21   -1    0    0  504  502 -0.00000000000E+00 -0.00000000000E+00 -0.62288436547E+02  0.62288436547E+02  0.00000000000E+00 0.  1.
         21    1    1    2  503  501  0.43673618382E+02  0.62519140706E+02 -0.10696021993E+02  0.77009303228E+02  0.00000000000E+00 0.  1.
         21    1    1    2  504  503  0.42599155827E+02 -0.18004652407E+01  0.39555507466E+02  0.58159848033E+02  0.00000000000E+00 0. -1.
         21    1    1    2  505  506 -0.10727577236E+02 -0.61057193496E+02  0.53879849366E+03  0.54235309399E+03  0.00000000000E+00 0.  1.
         21    1    1    2  506  502 -0.75545196974E+02  0.33851803107E+00  0.18659951241E+03  0.20131211938E+03  0.00000000000E+00 0.  1.
<scales pt_clust_3="14000.00000" pt_clust_4="42.63719" pt_clust_5="61.82091" pt_clust_6="85.27552"></scales>
<clustering>
<clus scale="   42.637">  2  4  1 -1</clus>
<clus scale="   61.821">  1  5  2 -1</clus>
<clus scale="   85.276">  1  6  2 -1</clus>
<clus scale="   61.821">  1  3  2 -1</clus>
</clustering>
</event>
<event>
 6    0  0.3446372E+002  0.1133173E+03  0.7546771E-02  0.1254547E+00
         21   -1    0    0  504  501  0.00000000000E+00  0.00000000000E+00  0.29950790367E+03  0.29950790367E+03  0.00000000000E+00 0. -1.
         21   -1    0    0  506  502 -0.00000000000E+00 -0.00000000000E+00 -0.34636631467E+03  0.34636631467E+03  0.00000000000E+00 0. -1.
         21    1    1    2  503  505  0.35574257368E+02  0.76296911742E+02 -0.19526653038E+03  0.21263998780E+03  0.00000000000E+00 0. -1.
         21    1    1    2  504  503  0.70033889951E+02 -0.32814919655E+02  0.52796281430E+02  0.93643003083E+02  0.00000000000E+00 0. -1.
         21    1    1    2  505  502 -0.36800800930E+02  0.46619696216E+02 -0.98369805444E+02  0.11491002414E+03  0.00000000000E+00 0. -1.
         21    1    1    2  506  501 -0.68807346389E+02 -0.90101688303E+02  0.19398164339E+03  0.22468120332E+03  0.00000000000E+00 0. -1.
<scales pt_clust_3="14000.00000" pt_clust_4="72.85163" pt_clust_5="59.39440" pt_clust_6="113.31729"></scales>
<clustering>
<clus scale="   59.394">  2  5  1 -1</clus>
<clus scale="   72.852">  1  4  2 -1</clus>
<clus scale="  113.317">  1  6  2 -1</clus>
<clus scale="   72.852">  1  3  2 -1</clus>
</clustering>
</event>
<event>
 6    0  0.3446372E+002  0.1838971E+03  0.7546771E-02  0.1164084E+00
         21   -1    0    0  503  501  0.00000000000E+00  0.00000000000E+00  0.13425487547E+03  0.13425487547E+03  0.00000000000E+00 0.  1.
         21   -1    0    0  506  502 -0.00000000000E+00 -0.00000000000E+00 -0.23373353594E+04  0.23373353594E+04  0.00000000000E+00 0.  1.
         21    1    1    2  503  505 -0.72789139930E+01  0.73552919401E+02  0.72891985172E+02  0.10380874743E+03  0.00000000000E+00 0.  1.
         21    1    1    2  504  501  0.24736142396E+01 -0.51720669100E+02 -0.36856876877E+02  0.63557656916E+02  0.00000000000E+00 0.  1.
         21    1    1    2  505  502  0.16690730168E+03  0.75677639516E+02 -0.19507986101E+04  0.19593877538E+04  0.00000000000E+00 0.  1.
         21    1    1    2  506  504 -0.16210200193E+03 -0.97509889818E+02 -0.28831698217E+03  0.34483607678E+03  0.00000000000E+00 0.  1.
<scales pt_clust_3="36.17445" pt_clust_4="51.77979" pt_clust_5="183.89715" pt_clust_6="14000.00000"></scales>
<clustering>
<clus scale="   51.780">  1  4  2 -1</clus>
<clus scale="   36.174">  1  3  2 -1</clus>
<clus scale="  183.897">  2  5  1 -1</clus>
<clus scale="   51.780">  1  3  2 -1</clus>
</clustering>
</event>
<event>
 6    0  0.3446372E+002  0.1135554E+03  0.7546771E-02  0.1254124E+00
         21   -1    0    0  503  501  0.00000000000E+00  0.00000000000E+00  0.64358420138E+03  0.64358420138E+03  0.00000000000E+00 0. -1.
         21   -1    0    0  505  502 -0.00000000000E+00 -0.00000000000E+00 -0.26812176229E+03  0.26812176229E+03  0.00000000000E+00 0. -1.
         21    1    1    2  503  506  0.40971979710E+02 -0.43379644147E+02  0.45394359515E+03  0.45784853852E+03  0.00000000000E+00 0. -1.
         21    1    1    2  504  502 -0.16234388830E+02 -0.86166635835E+02 -0.20461157625E+03  0.22260759567E+03  0.00000000000E+00 0. -1.
         21    1    1    2  505  501 -0.49855816968E+02 -0.67698594993E+01  0.12065364648E+02  0.51739796165E+02  0.00000000000E+00 0. -1.
         21    1    1    2  506  504  0.25118226087E+02  0.13631613948E+03  0.11406505555E+03  0.17951003332E+03  0.00000000000E+00 0. -1.
<scales pt_clust_3="59.44027" pt_clust_4="14000.00000" pt_clust_5="50.31335" pt_clust_6="113.55541"></scales>
<clustering>
<clus scale="   50.313">  2  5  1 -1</clus>
<clus scale="   59.440">  1  3  2 -1</clus>
<clus scale="  113.555">  1  6  2 -1</clus>
<clus scale="   59.440">  1  3  2 -1</clus>
</clustering>
</event>
<event>
 6    0  0.3446372E+002  0.1125216E+03  0.7546771E-02  0.1255970E+00
         21   -1    0    0  503  501  0.00000000000E+00  0.00000000000E+00  0.12820584602E+03  0.12820584602E+03  0.00000000000E+00 0.  1.
         21   -1    0    0  506  502 -0.00000000000E+00 -0.00000000000E+00 -0.14808376534E+03  0.14808376534E+03  0.00000000000E+00 0.  1.
         21    1    1    2  503  502  0.90631701176E+02 -0.82086565508E+02 -0.29798530064E+02  0.12585810220E+03  0.00000000000E+00 0.  1.
         21    1    1    2  504  501 -0.31250611242E+02  0.42582196541E+02  0.28931924362E+02  0.60223752893E+02  0.00000000000E+00 0.  1.
         21    1    1    2  505  504 -0.47993552005E+02  0.50558999614E+01  0.19640201475E+01  0.48299073838E+02  0.00000000000E+00 0.  1.
         21    1    1    2  506  505 -0.11387537929E+02  0.34448469006E+02 -0.20975333757E+02  0.41908682432E+02  0.00000000000E+00 0.  1.
<scales pt_clust_3="101.91905" pt_clust_4="45.20222" pt_clust_5="45.20222" pt_clust_6="36.28186"></scales>
<clustering>
<clus scale="   36.282">  2  6  1 -1</clus>
<clus scale="   45.202">  4  5 -1 -1</clus>
<clus scale="  101.919">  2  3  1 -1</clus>
<clus scale="  112.522">  1  3  2 -1</clus>
</clustering>
</event>
<event>
 6    0  0.3446372E+002  0.7485705E+02  0.7546771E-02  0.1344314E+00
         21   -1    0    0  503  501  0.00000000000E+00  0.00000000000E+00  0.23775845549E+03  0.23775845549E+03  0.00000000000E+00 0.  1.
         21   -1    0    0  504  502 -0.00000000000E+00 -0.00000000000E+00 -0.84365611738E+02  0.84365611738E+02  0.00000000000E+00 0.  1.
         21    1    1    2  503  506 -0.11183705618E+03  0.24727408145E+02  0.55630166605E+02  0.12733297800E+03  0.00000000000E+00 0.  1.
         21    1    1    2  504  505  0.51561952741E+02 -0.15545489053E+01  0.11073222994E+02  0.52760476308E+02  0.00000000000E+00 0.  1.
         21    1    1    2  505  501  0.49132880737E+02  0.15077204434E+02  0.88289411535E+02  0.10215861321E+03  0.00000000000E+00 0.  1.
         21    1    1    2  506  502  0.11142222702E+02 -0.38250063673E+02 -0.15999573839E+01  0.39871999717E+02  0.00000000000E+00 0. -1.
<scales pt_clust_3="74.85705" pt_clust_4="14000.00000" pt_clust_5="51.51541" pt_clust_6="39.83989"></scales>
<clustering>
<clus scale="   39.840">  2  6  1 -1</clus>
<clus scale="   51.515">  1  5  2 -1</clus>
<clus scale="   74.857">  1  3  2 -1</clus>
<clus scale="   51.515">  1  3  2 -1</clus>
</clustering>
</event>
<event>
 6    0  0.3446372E+002  0.1495598E+03  0.7546771E-02  0.1201015E+00
         21   -1    0    0  504  501  0.00000000000E+00  0.00000000000E+00  0.42880736515E+03  0.42880736515E+03  0.00000000000E+00 0. -1.
         21   -1    0    0  503  502 -0.00000000000E+00 -0.00000000000E+00 -0.21972427256E+03  0.21972427256E+03  0.00000000000E+00 0. -1.
         21    1    1    2  503  505  0.57316391160E+02 -0.95722840373E+00 -0.27894016406E+02  0.63750773588E+02  0.00000000000E+00 0.  1.
         21    1    1    2  504  502 -0.16579425257E+03  0.86617247001E+02  0.30685204124E+03  0.35937230956E+03  0.00000000000E+00 0. -1.
         21    1    1    2  505  506  0.59519512665E+02 -0.10018118502E+03 -0.11016679851E+03  0.16036073620E+03  0.00000000000E+00 0. -1.
         21    1    1    2  506  501  0.48958348750E+02  0.14521166424E+02  0.40291866266E+02  0.65047818364E+02  0.00000000000E+00 0.  1.
<scales pt_clust_3="59.65055" pt_clust_4="149.55980" pt_clust_5="14000.00000" pt_clust_6="51.06647"></scales>
<clustering>
<clus scale="   51.066">  1  6  2 -1</clus>
<clus scale="   59.651">  2  3  1 -1</clus>
<clus scale="  149.560">  1  4  2 -1</clus>
<clus scale="   51.066">  1  3  2 -1</clus>
</clustering>
</event>
<event>
 6    0  0.3446372E+002  0.1483375E+03  0.7546771E-02  0.1202531E+00
         21   -1    0    0  502  501  0.00000000000E+00  0.00000000000E+00  0.18884715426E+03  0.18884715426E+03  0.00000000000E+00 0. -1.
         21   -1    0    0  506  502 -0.00000000000E+00 -0.00000000000E+00 -0.16077861838E+04  0.16077861838E+04  0.00000000000E+00 0.  1.
         21    1    1    2  503  504 -0.97624135834E+02  0.32669639887E+02 -0.46087568897E+03  0.47223318176E+03  0.00000000000E+00 0.  1.
         21    1    1    2  504  501  0.14561008975E+03  0.46422282356E+02  0.14694051218E+03  0.21201141634E+03  0.00000000000E+00 0. -1.
         21    1    1    2  505  503 -0.73163262264E+02 -0.51061317786E+02 -0.83882556335E+03  0.84355702051E+03  0.00000000000E+00 0.  1.
         21    1    1    2  506  505  0.25177308344E+02 -0.28030604457E+02 -0.26617828941E+03  0.26883171948E+03  0.00000000000E+00 0.  1.
<scales pt_clust_3="148.33746" pt_clust_4="14000.00000" pt_clust_5="89.46339" pt_clust_6="37.67773"></scales>
<clustering>
<clus scale="   37.678">  2  6  1 -1</clus>
<clus scale="   89.463">  2  5  1 -1</clus>
<clus scale="  148.337">  2  3  1 -1</clus>
<clus scale="  148.337">  1  3  2 -1</clus>
</clustering>
</event>
<event>
 6    0  0.3446372E+002  0.1554639E+03  0.7546771E-02  0.1193915E+00
         21   -1    0    0  506  501  0.00000000000E+00  0.00000000000E+00  0.19062146816E+03  0.19062146816E+03  0.00000000000E+00 0.  1.
         21   -1    0    0  505  502 -0.00000000000E+00 -0.00000000000E+00 -0.31790701180E+03  0.31790701180E+03  0.00000000000E+00 0. -1.
         21    1    1    2  503  501 -0.84194929470E+01 -0.46994645872E+02  0.79958810630E+02  0.93127847605E+02  0.00000000000E+00 0.  1.
         21    1    1    2  504  503  0.14109870000E+01  0.41873854231E+02 -0.37483626123E+02  0.56217726562E+02  0.00000000000E+00 0. -1.
         21    1    1    2  505  504  0.82553756026E+02  0.85321493995E+02 -0.21053492994E+03  0.24170195840E+03  0.00000000000E+00 0. -1.
         21    1    1    2  506  502 -0.75545250079E+02 -0.80200702354E+02  0.40774201789E+02  0.11748094739E+03  0.00000000000E+00 0.  1.
<scales pt_clust_3="47.74290" pt_clust_4="37.63820" pt_clust_5="37.63820" pt_clust_6="141.96767"></scales>
<clustering>
<clus scale="   37.638">  4  5 -1 -1</clus>
<clus scale="   47.743">  1  3  2 -1</clus>
<clus scale="  141.968">  1  6  2 -1</clus>
<clus scale="   47.743">  1  3  2 -1</clus>
</clustering>
</event>
<event>
 6    0  0.3446372E+002  0.1162925E+03  0.7546771E-02  0.1249342E+00
         21   -1    0    0  504  501  0.00000000000E+00  0.00000000000E+00  0.55848543038E+03  0.55848543038E+03  0.00000000000E+00 0. -1.
         21   -1    0    0  503  502 -0.00000000000E+00 -0.00000000000E+00 -0.10958630507E+04  0.10958630507E+04  0.00000000000E+00 0.  1.
         21    1    1    2  503  501 -0.16974719371E+02  0.35671742071E+02  0.31256947645E+03  0.31505601389E+03  0.00000000000E+00 0. -1.
         21    1    1    2  504  505 -0.24309148089E+02 -0.28873965692E+02  0.22812354632E+03  0.23122498343E+03  0.00000000000E+00 0. -1.
         21    1    1    2  505  506 -0.61402186584E+02  0.68794125691E+02 -0.19343224812E+03  0.21428694514E+03  0.00000000000E+00 0.  1.
         21    1    1    2  506  502  0.10268605404E+03 -0.75591902070E+02 -0.88463839495E+03  0.89378053860E+03  0.00000000000E+00 0.  1.
<scales pt_clust_3="40.98638" pt_clust_4="37.74441" pt_clust_5="14000.00000" pt_clust_6="116.29245"></scales>
<clustering>
<clus scale="   37.744">  1  4  2 -1</clus>
<clus scale="   40.986">  1  3  2 -1</clus>
<clus scale="  116.292">  2  6  1 -1</clus>
<clus scale="   37.744">  1  3  2 -1</clus>
</clustering>
</event>
<event>
 6    0  0.3446372E+002  0.9780889E+02  0.7546771E-02  0.1284972E+00
         21   -1    0    0  503  501  0.00000000000E+00  0.00000000000E+00  0.23005537467E+03  0.23005537467E+03  0.00000000000E+00 0.  1.
         21   -1    0    0  504  502 -0.00000000000E+00 -0.00000000000E+00 -0.36696065732E+03  0.36696065732E+03  0.00000000000E+00 0.  1.
         21    1    1    2  503  506 -0.62488254810E+01  0.29671673853E+02 -0.41864524932E+01  0.30610168794E+02  0.00000000000E+00 0.  1.
         21    1    1    2  504  505  0.61153763114E+01 -0.70661088254E+02 -0.30071201313E+02  0.77036772837E+02  0.00000000000E+00 0.  1.
         21    1    1    2  505  501 -0.34997526632E+01 -0.11500321888E+03  0.15205000688E+03  0.19067562302E+03  0.00000000000E+00 0.  1.
         21    1    1    2  506  502  0.36332018328E+01  0.15599263328E+03 -0.25469763572E+03  0.29869346735E+03  0.00000000000E+00 0.  1.
<scales pt_clust_3="30.32253" pt_clust_4="67.66675" pt_clust_5="97.80889" pt_clust_6="14000.00000"></scales>
<clustering>
<clus scale="   30.323">  1  3  2 -1</clus>
<clus scale="   67.667">  2  4  1 -1</clus>
<clus scale="   97.809">  1  5  2 -1</clus>
<clus scale="   30.323">  1  3  2 -1</clus>
</clustering>
</event>
<event>
 6    0  0.3446372E+002  0.7014933E+02  0.7546771E-02  0.1359586E+00
         21   -1    0    0  504  501  0.00000000000E+00  0.00000000000E+00  0.40198075487E+03  0.40198075487E+03  0.00000000000E+00 0.  1.
         21   -1    0    0  506  502 -0.00000000000E+00 -0.00000000000E+00 -0.99809272500E+03  0.99809272500E+03  0.00000000000E+00 0.  1.
         21    1    1    2  503  502 -0.32078146736E+02 -0.48745122235E+02 -0.12390859275E+03  0.13696143179E+03  0.00000000000E+00 0.  1.
         21    1    1    2  504  503  0.23545177511E+02 -0.65883516632E+02  0.38237829777E+03  0.38872635073E+03  0.00000000000E+00 0.  1.
         21    1    1    2  505  501  0.40611261947E+02  0.11213386586E+03 -0.37019041374E+03  0.38892701230E+03  0.00000000000E+00 0.  1.
         21    1    1    2  506  505 -0.32078292723E+02  0.24947730106E+01 -0.48439126142E+03  0.48545868505E+03  0.00000000000E+00 0.  1.
<scales pt_clust_3="62.71569" pt_clust_4="14000.00000" pt_clust_5="70.14933" pt_clust_6="32.17516"></scales>
<clustering>
<clus scale="   32.175">  2  6  1 -1</clus>
<clus scale="   62.716">  2  3  1 -1</clus>
<clus scale="   70.149">  2  5  1 -1</clus>
<clus scale="   70.149">  1  3  2 -1</clus>
</clustering>
</event>
<event>
 6    0  0.3446372E+002  0.1151244E+03  0.7546771E-02  0.1251364E+00
         21   -1    0    0  504  501  0.00000000000E+00  0.00000000000E+00  0.49246027916E+02  0.49246027916E+02  0.00000000000E+00 0.  1.
         21   -1    0    0  501  502 -0.00000000000E+00 -0.00000000000E+00 -0.65884876478E+03  0.65884876478E+03  0.00000000000E+00 0. -1.
         21    1    1    2  503  505 -0.51837178802E+02  0.33482495276E+02 -0.35059695990E+03  0.35598651504E+03  0.00000000000E+00 0. -1.
         21    1    1    2  504  506  0.33711582888E+01 -0.38105186541E+02 -0.16909739405E+02  0.41824744306E+02  0.00000000000E+00 0. -1.
         21    1    1    2  505  502 -0.52725493415E+02  0.25189288600E+00 -0.18841135921E+03  0.19564989493E+03  0.00000000000E+00 0. -1.
         21    1    1    2  506  503  0.10119151393E+03  0.43707983792E+01 -0.53684678349E+02  0.11463363843E+03  0.00000000000E+00 0.  1.
<scales pt_clust_3="38.12737" pt_clust_4="38.25402" pt_clust_5="38.12737" pt_clust_6="107.48126"></scales>
<clustering>
<clus scale="   38.127">  3  5 -1 -1</clus>
<clus scale="   38.254">  1  4  2 -1</clus>
<clus scale="  107.481">  1  6  2 -1</clus>
<clus scale="   38.254">  1  3  2 -1</clus>
</clustering>
</event>
<event>
 6    0  0.3446372E+002  0.9729653E+02  0.7546771E-02  0.1286086E+00
         21   -1    0    0  502  501  0.00000000000E+00  0.00000000000E+00  0.11666200681E+04  0.11666200681E+04  0.00000000000E+00 0. -1.
         21   -1    0    0  503  502 -0.00000000000E+00 -0.00000000000E+00 -0.33092054271E+03  0.33092054271E+03  0.00000000000E+00 0.  1.
         21    1    1    2  503  504  0.56922287460E+02 -0.90025804333E+01 -0.13735600131E+03  0.14895591415E+03  0.00000000000E+00 0.  1.
         21    1    1    2  504  506 -0.33187044516E+01 -0.74266483438E+02 -0.16746515449E+03  0.18322418599E+03  0.00000000000E+00 0.  1.
         21    1    1    2  505  501  0.63860485047E+02  0.10921757640E+01  0.13131423809E+03  0.14602322940E+03  0.00000000000E+00 0.  1.
         21    1    1    2  506  505 -0.11746406805E+03  0.82176888107E+02  0.10092064431E+04  0.10193372813E+04  0.00000000000E+00 0. -1.
<scales pt_clust_3="57.62979" pt_clust_4="14000.00000" pt_clust_5="66.09420" pt_clust_6="97.29653"></scales>
<clustering>
<clus scale="   57.630">  2  3  1 -1</clus>
<clus scale="   66.094">  1  5  2 -1</clus>
<clus scale="   97.297">  1  6  2 -1</clus>
<clus scale="   66.094">  1  3  2 -1</clus>
</clustering>
</event>
<event>
 6    0  0.3446372E+002  0.1004471E+03  0.7546771E-02  0.1279359E+00
         21   -1    0    0  504  501  0.00000000000E+00  0.00000000000E+00  0.26190921310E+04  0.26190921310E+04  0.00000000000E+00 0. -1.
         21   -1    0    0  505  502 -0.00000000000E+00 -0.00000000000E+00 -0.12929978272E+03  0.12929978272E+03  0.00000000000E+00 0. -1.
         21    1    1    2  503  502 -0.63500619005E+02  0.46673166791E+02 -0.10495674629E+03  0.13125026364E+03  0.00000000000E+00 0. -1.
         21    1    1    2  504  503  0.42970555768E+02 -0.30934416174E+01  0.11293402342E+03  0.12087237770E+03  0.00000000000E+00 0. -1.
         21    1    1    2  505  506  0.93672749870E+01 -0.12686028164E+03  0.63893489367E+03  0.65147453922E+03  0.00000000000E+00 0. -1.
         21    1    1    2  506  501  0.11162788250E+02  0.83280556471E+02  0.18428801775E+04  0.18447947332E+04  0.00000000000E+00 0. -1.
<scales pt_clust_3="78.61663" pt_clust_4="43.08176" pt_clust_5="100.44713" pt_clust_6="14000.00000"></scales>
<clustering>
<clus scale="   43.082">  1  4  2 -1</clus>
<clus scale="   78.617">  2  3  1 -1</clus>
<clus scale="  100.447">  2  5  1 -1</clus>
<clus scale="   43.082">  1  3  2 -1</clus>
</clustering>
</event>
<event>
 6    0  0.3446372E+002  0.9128200E+02  0.7546771E-02  0.1299777E+00
         21   -1    0    0  506  501  0.00000000000E+00  0.00000000000E+00  0.76539997305E+03  0.76539997305E+03  0.00000000000E+00 0.  1.
         21   -1    0    0  505  502 -0.00000000000E+00 -0.00000000000E+00 -0.72138384197E+02  0.72138384197E+02  0.00000000000E+00 0.  1.
         21    1    1    2  503  504 -0.37210115017E+02  0.58717785119E+01  0.87151718916E+01  0.38665548795E+02  0.00000000000E+00 0. -1.
         21    1    1    2  504  502  0.29889447969E+02 -0.58150711979E+01  0.69010450418E+01  0.31222084741E+02  0.00000000000E+00 0.  1.
         21    1    1    2  505  501 -0.12950204009E+02 -0.90288977289E+02  0.66852733389E+03  0.67472113006E+03  0.00000000000E+00 0.  1.
         21    1    1    2  506  503  0.20270871057E+02  0.90232269975E+02  0.91180380369E+01  0.92929593650E+02  0.00000000000E+00 0.  1.
<scales pt_clust_3="30.07392" pt_clust_4="30.44986" pt_clust_5="14000.00000" pt_clust_6="91.28200"></scales>
<clustering>
<clus scale="   30.450">  2  4  1 -1</clus>
<clus scale="   30.074">  2  3  1 -1</clus>
<clus scale="   91.282">  2  6  1 -1</clus>
<clus scale="   91.282">  1  3  2 -1</clus>
</clustering>
</event>
<event>
 6    0  0.3446372E+002  0.7339989E+02  0.7546771E-02  0.1348899E+00
         21   -1    0    0  505  501  0.00000000000E+00  0.00000000000E+00  0.56172069651E+03  0.56172069651E+03  0.00000000000E+00 0. -1.
         21   -1    0    0  503  502 -0.00000000000E+00 -0.00000000000E+00 -0.57619269312E+03  0.57619269312E+03  0.00000000000E+00 0.  1.
         21    1    1    2  503  504  0.16139317776E+02  0.48535044140E+02 -0.33435529506E+03  0.33824486902E+03  0.00000000000E+00 0.  1.
         21    1    1    2  504  501 -0.55419149956E+02  0.51538850654E+01  0.20180091018E+03  0.20933574005E+03  0.00000000000E+00 0. -1.
         21    1    1    2  505  506  0.83545053880E+02 -0.73677586547E+02  0.34279076353E+03  0.36043538998E+03  0.00000000000E+00 0. -1.
         21    1    1    2  506  502 -0.44265221700E+02  0.19988657342E+02 -0.22470837527E+03  0.22989739057E+03  0.00000000000E+00 0. -1.
<scales pt_clust_3="73.39989" pt_clust_4="56.15447" pt_clust_5="14000.00000" pt_clust_6="48.56909"></scales>
<clustering>
<clus scale="   48.569">  2  6  1 -1</clus>
<clus scale="   56.154">  1  4  2 -1</clus>
<clus scale="   73.400">  2  3  1 -1</clus>
<clus scale="   56.154">  1  3  2 -1</clus>
</clustering>
</event>
<event>
 6    0  0.3446372E+002  0.1137172E+03  0.7546771E-02  0.1253837E+00
         21   -1    0    0  504  501  0.00000000000E+00  0.00000000000E+00  0.20435980871E+04  0.20435980871E+04  0.00000000000E+00 0. -1.
         21   -1    0    0  505  502 -0.00000000000E+00 -0.00000000000E+00 -0.61040405333E+02  0.61040405333E+02  0.00000000000E+00 0.  1.
         21    1    1    2  503  506  0.41639721414E+02 -0.14050024539E+03  0.13371629787E+04  0.13451687689E+04  0.00000000000E+00 0. -1.
         21    1    1    2  504  502 -0.69005694080E+02  0.66482456274E+02 -0.95456793323E+01  0.96295497307E+02  0.00000000000E+00 0.  1.
         21    1    1    2  505  503  0.17212427691E+02  0.32798207630E+02  0.10045783640E+03  0.10706898236E+03  0.00000000000E+00 0.  1.
         21    1    1    2  506  501  0.10153544975E+02  0.41219581488E+02  0.55448254603E+03  0.55610524384E+03  0.00000000000E+00 0. -1.
<scales pt_clust_3="113.71716" pt_clust_4="14000.00000" pt_clust_5="37.04038" pt_clust_6="42.95729"></scales>
<clustering>
<clus scale="   37.040">  2  5  1 -1</clus>
<clus scale="   42.957">  1  6  2 -1</clus>
<clus scale="  113.717">  1  3  2 -1</clus>
<clus scale="   42.957">  1  3  2 -1</clus>
</clustering>
</event>
<event>
 6    0  0.3446372E+002  0.1129321E+03  0.7546771E-02  0.1255234E+00
         21   -1    0    0  503  501  0.00000000000E+00  0.00000000000E+00  0.17776157930E+03  0.17776157930E+03  0.00000000000E+00 0. -1.
         21   -1    0    0  505  502 -0.00000000000E+00 -0.00000000000E+00 -0.18447105169E+04  0.18447105169E+04  0.00000000000E+00 0. -1.
         21    1    1    2  503  506  0.74233827501E+02 -0.15491416099E+03 -0.12082271859E+01  0.17178625740E+03  0.00000000000E+00 0. -1.
         21    1    1    2  504  501 -0.33754272237E+02  0.54553716500E+02  0.75105923667E+02  0.98774281309E+02  0.00000000000E+00 0. -1.
         21    1    1    2  505  504 -0.88759085288E+02  0.10722064321E+03 -0.14811697495E+04  0.14876956236E+04  0.00000000000E+00 0. -1.
         21    1    1    2  506  502  0.48279530024E+02 -0.68601987221E+01 -0.25967688461E+03  0.26421593394E+03  0.00000000000E+00 0. -1.
<scales pt_clust_3="14000.00000" pt_clust_4="63.91890" pt_clust_5="112.93211" pt_clust_6="48.76449"></scales>
<clustering>
<clus scale="   48.764">  2  6  1 -1</clus>
<clus scale="   63.919">  1  4  2 -1</clus>
<clus scale="  112.932">  2  5  1 -1</clus>
<clus scale="   63.919">  1  3  2 -1</clus>
</clustering>
</event>
<event>
 6    0  0.3446372E+002  0.8903013E+02  0.7546771E-02  0.1305218E+00
         21   -1    0    0  506  501  0.00000000000E+00  0.00000000000E+00  0.15836765941E+03  0.15836765941E+03  0.00000000000E+00 0.  1.
         21   -1    0    0  504  502 -0.00000000000E+00 -0.00000000000E+00 -0.54853062623E+03  0.54853062623E+03  0.00000000000E+00 0.  1.
         21    1    1    2  503  505  0.54386520124E+02  0.95352541079E+02 -0.23531914683E+02  0.11226643163E+03  0.00000000000E+00 0.  1.
         21    1    1    2  504  501  0.43225479542E+02 -0.16809659535E+02  0.93769452363E+02  0.10461222171E+03  0.00000000000E+00 0.  1.
         21    1    1    2  505  502 -0.67692299071E+02 -0.55645241773E+02 -0.43693119185E+03  0.44563158180E+03  0.00000000000E+00 0.  1.
         21    1    1    2  506  503 -0.29919700596E+02 -0.22897639771E+02 -0.23469312656E+02  0.44388050502E+02  0.00000000000E+00 0.  1.
<scales pt_clust_3="89.03013" pt_clust_4="39.63615" pt_clust_5="14000.00000" pt_clust_6="37.67612"></scales>
<clustering>
<clus scale="   37.676">  1  6  2 -1</clus>
<clus scale="   39.636">  1  4  2 -1</clus>
<clus scale="   89.030">  1  3  2 -1</clus>
<clus scale="   37.676">  1  3  2 -1</clus>
</clustering>
</event>
<event>
 6    0  0.3446372E+002  0.8850196E+02  0.7546771E-02  0.1306520E+00
         21   -1    0    0  503  501  0.00000000000E+00  0.00000000000E+00  0.58833956226E+03  0.58833956226E+03  0.00000000000E+00 0.  1.
         21   -1    0    0  504  502 -0.00000000000E+00 -0.00000000000E+00 -0.13233260250E+03  0.13233260250E+03  0.00000000000E+00 0.  1.
         21    1    1    2  503  502  0.12792360044E+03 -0.67970592147E+02  0.15861476179E+03  0.21480943090E+03  0.00000000000E+00 0.  1.
         21    1    1    2  504  506 -0.32967566376E+02  0.19610710591E+02 -0.64893547214E+02  0.75383107342E+02  0.00000000000E+00 0. -1.
         21    1    1    2  505  501 -0.35658418073E+02  0.50650217595E+02  0.36582513331E+03  0.37103233752E+03  0.00000000000E+00 0.  1.
         21    1    1    2  506  505 -0.59297615992E+02 -0.22903360387E+01 -0.35393881180E+01  0.59447289002E+02  0.00000000000E+00 0.  1.
<scales pt_clust_3="88.50196" pt_clust_4="38.35936" pt_clust_5="63.41241" pt_clust_6="14000.00000"></scales>
<clustering>
<clus scale="   38.359">  2  4  1 -1</clus>
<clus scale="   63.412">  1  5  2 -1</clus>
<clus scale="   88.502">  1  3  2 -1</clus>
<clus scale="   63.412">  1  3  2 -1</clus>
</clustering>
</event>
<event>
 6    0  0.3446372E+002  0.1060198E+03  0.7546771E-02  0.1268123E+00
         21   -1    0    0  504  501  0.00000000000E+00  0.00000000000E+00  0.21611362016E+03  0.21611362016E+03  0.00000000000E+00 0. -1.
         21   -1    0    0  505  502 -0.00000000000E+00 -0.00000000000E+00 -0.38800647827E+03  0.38800647827E+03  0.00000000000E+00 0.  1.
         21    1    1    2  503  502 -0.11093333127E+03  0.19525273702E+02 -0.24928943265E+03  0.27355559129E+03  0.00000000000E+00 0.  1.
         21    1    1    2  504  503 -0.32543405980E+01 -0.41028574050E+02  0.73264169915E+02  0.84033167349E+02  0.00000000000E+00 0. -1.
         21    1    1    2  505  506  0.11588025161E+02 -0.51408959522E+02 -0.79522310781E+02  0.95398958895E+02  0.00000000000E+00 0. -1.
         21    1    1    2  506  501  0.10259964670E+03  0.72912259869E+02  0.83654715407E+02  0.15113238089E+03  0.00000000000E+00 0. -1.
<scales pt_clust_3="106.01980" pt_clust_4="41.15744" pt_clust_5="54.97331" pt_clust_6="14000.00000"></scales>
<clustering>
<clus scale="   41.157">  1  4  2 -1</clus>
<clus scale="   54.973">  2  5  1 -1</clus>
<clus scale="  106.020">  2  3  1 -1</clus>
<clus scale="   41.157">  1  3  2 -1</clus>
</clustering>
</event>
<event>
 6    0  0.3446372E+002  0.8363261E+02  0.7546771E-02  0.1319048E+00
         21   -1    0    0  503  501  0.00000000000E+00  0.00000000000E+00  0.28466067725E+03  0.28466067725E+03  0.00000000000E+00 0. -1.
         21   -1    0    0  505  502 -0.00000000000E+00 -0.00000000000E+00 -0.23543850312E+03  0.23543850312E+03  0.00000000000E+00 0. -1.
         21    1    1    2  503  502  0.75262831065E+02  0.39746831268E+02 -0.10115514771E+03  0.13219935039E+03  0.00000000000E+00 0. -1.
         21    1    1    2  504  501 -0.38098775784E+02  0.45198350079E+02  0.21816249020E+03  0.22602937795E+03  0.00000000000E+00 0. -1.
         21    1    1    2  505  506 -0.74407689829E+02 -0.33422784053E+02 -0.50695154000E+02  0.96039499367E+02  0.00000000000E+00 0. -1.
         21    1    1    2  506  504  0.37243634548E+02 -0.51522397294E+02 -0.17090014357E+02  0.65830952659E+02  0.00000000000E+00 0. -1.
<scales pt_clust_3="14000.00000" pt_clust_4="59.11351" pt_clust_5="83.63261" pt_clust_6="40.64773"></scales>
<clustering>
<clus scale="   59.114">  1  4  2 -1</clus>
<clus scale="   40.648">  1  6  2 -1</clus>
<clus scale="   83.633">  1  5  2 -1</clus>
<clus scale="   59.114">  1  3  2 -1</clus>
</clustering>
</event>
<event>
 6    0  0.3446372E+002  0.1203483E+03  0.7546771E-02  0.1242524E+00
         21   -1    0    0  505  501  0.00000000000E+00  0.00000000000E+00  0.30753721882E+03  0.30753721882E+03  0.00000000000E+00 0. -1.
         21   -1    0    0  503  502 -0.00000000000E+00 -0.00000000000E+00 -0.20767244945E+03  0.20767244945E+03  0.00000000000E+00 0.  1.
         21    1    1    2  503  504 -0.57347805500E+02  0.51244739981E+02 -0.10652888595E+03  0.13138948860E+03  0.00000000000E+00 0.  1.
         21    1    1    2  504  501 -0.10732688479E+02 -0.34377301405E+02  0.99356153978E+02  0.10568176185E+03  0.00000000000E+00 0. -1.
         21    1    1    2  505  506  0.13854391656E+03 -0.25119947200E+01  0.14180315145E+03  0.19826462290E+03  0.00000000000E+00 0. -1.
         21    1    1    2  506  502 -0.70463422580E+02 -0.14355443857E+02 -0.34765650104E+02  0.79873794934E+02  0.00000000000E+00 0.  1.
<scales pt_clust_3="14000.00000" pt_clust_4="36.01374" pt_clust_5="120.34829" pt_clust_6="73.90428"></scales>
<clustering>
<clus scale="   36.014">  1  4  2 -1</clus>
<clus scale="   73.904">  2  6  1 -1</clus>
<clus scale="  120.348">  1  5  2 -1</clus>
<clus scale="   36.014">  1  3  2 -1</clus>
</clustering>
</event>
<event>
 6    0  0.3446372E+002  0.1742190E+03  0.7546771E-02  0.1173518E+00
         21   -1    0    0  505  501  0.00000000000E+00  0.00000000000E+00  0.54286837944E+03  0.54286837944E+03  0.00000000000E+00 0.  1.
         21   -1    0    0  504  502 -0.00000000000E+00 -0.00000000000E+00 -0.11825578409E+04  0.11825578409E+04  0.00000000000E+00 0.  1.
         21    1    1    2  503  506  0.43723313497E+02  0.69723739893E+02 -0.71016317601E+03  0.71491598430E+03  0.00000000000E+00 0.  1.
         21    1    1    2  504  503 -0.38250597347E+02  0.10191845142E+02 -0.37679775776E+03  0.37887139264E+03  0.00000000000E+00 0.  1.
         21    1    1    2  505  502 -0.72369735701E+01  0.10995561988E+03 -0.33136063844E+02  0.11506785327E+03  0.00000000000E+00 0.  1.
         21    1    1    2  506  501  0.17642574197E+01 -0.18987120491E+03  0.48040753615E+03  0.51657099014E+03  0.00000000000E+00 0.  1.
<scales pt_clust_3="79.36227" pt_clust_4="39.58512" pt_clust_5="174.21896" pt_clust_6="14000.00000"></scales>
<clustering>
<clus scale="   39.585">  2  4  1 -1</clus>
<clus scale="   79.362">  2  3  1 -1</clus>
<clus scale="  174.219">  2  5  1 -1</clus>
<clus scale="  174.219">  1  3  2 -1</clus>
</clustering>
</event>
<event>
 6    0  0.3446372E+002  0.9838986E+02  0.7546771E-02  0.1283719E+00
         21   -1    0    0  503  501  0.00000000000E+00  0.00000000000E+00  0.15715228296E+04  0.15715228296E+04  0.00000000000E+00 0.  1.
         21   -1    0    0  505  502 -0.00000000000E+00 -0.00000000000E+00 -0.36153812363E+03  0.36153812363E+03  0.00000000000E+00 0.  1.
         21    1    1    2  503  506 -0.81220752518E+02  0.64222258402E+02  0.11993452722E+04  0.12038066253E+04  0.00000000000E+00 0.  1.
         21    1    1    2  504  501  0.31484028871E+02  0.20798438927E+02  0.34657806498E+03  0.34862612389E+03  0.00000000000E+00 0.  1.
         21    1    1    2  505  504  0.30583546122E+02  0.89894965377E+01 -0.65103369213E+00  0.31883980088E+02  0.00000000000E+00 0.  1.
         21    1    1    2  506  502  0.19153177525E+02 -0.94010193867E+02 -0.33528759747E+03  0.34874422401E+03  0.00000000000E+00 0.  1.
<scales pt_clust_3="98.38986" pt_clust_4="37.82392" pt_clust_5="31.87733" pt_clust_6="14000.00000"></scales>
<clustering>
<clus scale="   31.877">  2  5  1 -1</clus>
<clus scale="   37.824">  1  4  2 -1</clus>
<clus scale="   98.390">  1  3  2 -1</clus>
<clus scale="   37.824">  1  3  2 -1</clus>
</clustering>
</event>
<event>
 6    0  0.3446372E+002  0.3204078E+03  0.7546771E-02  0.1075462E+00
         21   -1    0    0  504  501  0.00000000000E+00  0.00000000000E+00  0.15890965297E+04  0.15890965297E+04  0.00000000000E+00 0.  1.
         21   -1    0    0  505  502 -0.00000000000E+00 -0.00000000000E+00 -0.79688215590E+02  0.79688215590E+02  0.00000000000E+00 0.  1.
         21    1    1    2  503  502  0.22618041926E+03 -0.15663931826E+03  0.51621991045E+03  0.58495850625E+03  0.00000000000E+00 0.  1.
         21    1    1    2  504  503  0.39116050434E+02 -0.41849379380E+02  0.18802701800E+03  0.19655939421E+03  0.00000000000E+00 0.  1.
         21    1    1    2  505  506 -0.64762122968E+02 -0.24733458441E+02  0.10885580731E+03  0.12905604722E+03  0.00000000000E+00 0. -1.
         21    1    1    2  506  501 -0.20053434673E+03  0.22322215608E+03  0.69630557836E+03  0.75821079763E+03  0.00000000000E+00 0.  1.
<scales pt_clust_3="32.35078" pt_clust_4="32.35078" pt_clust_5="69.32443" pt_clust_6="312.46546"></scales>
<clustering>
<clus scale="   32.351">  3  4 -1 -1</clus>
<clus scale="   69.324">  2  5  1 -1</clus>
<clus scale="  312.465">  1  6  2 -1</clus>
<clus scale="  312.465">  1  3  2 -1</clus>
</clustering>
</event>
<event>
 6    0  0.3446372E+002  0.1346001E+03  0.7546771E-02  0.1220785E+00
         21   -1    0    0  506  501  0.00000000000E+00  0.00000000000E+00  0.74428366594E+03  0.74428366594E+03  0.00000000000E+00 0. -1.
         21   -1    0    0  505  502 -0.00000000000E+00 -0.00000000000E+00 -0.21275415221E+03  0.21275415221E+03  0.00000000000E+00 0. -1.
         21    1    1    2  503  504  0.62592102727E+02 -0.10031635124E+03  0.36059241778E+03  0.37948390402E+03  0.00000000000E+00 0. -1.
         21    1    1    2  504  501 -0.33796371239E+01 -0.41450245853E+02  0.32281883750E+03  0.32548663056E+03  0.00000000000E+00 0. -1.
         21    1    1    2  505  503 -0.56213290734E+02  0.44331410005E+02 -0.13545738941E+03  0.15321198489E+03  0.00000000000E+00 0. -1.
         21    1    1    2  506  502 -0.29991748695E+01  0.97435187085E+02 -0.16424352144E+02  0.98855298672E+02  0.00000000000E+00 0. -1.
<scales pt_clust_3="14000.00000" pt_clust_4="41.58780" pt_clust_5="71.10805" pt_clust_6="134.60013"></scales>
<clustering>
<clus scale="   41.588">  1  4  2 -1</clus>
<clus scale="   71.108">  2  5  1 -1</clus>
<clus scale="  134.600">  2  6  1 -1</clus>
<clus scale="   41.588">  1  3  2 -1</clus>
</clustering>
</event>
<event>
 6    0  0.3446372E+002  0.8019393E+02  0.7546771E-02  0.1328502E+00
         21   -1    0    0  506  501  0.00000000000E+00  0.00000000000E+00  0.20710488981E+02  0.20710488981E+02  0.00000000000E+00 0.  1.
         21   -1    0    0  504  502 -0.00000000000E+00 -0.00000000000E+00 -0.13213632701E+04  0.13213632701E+04  0.00000000000E+00 0.  1.
         21    1    1    2  503  501  0.69436073482E+01 -0.37331296773E+02 -0.84940460779E+02  0.93041502992E+02  0.00000000000E+00 0.  1.
         21    1    1    2  504  503 -0.33902218524E+02 -0.22729063709E+02 -0.45290885949E+03  0.45474433011E+03  0.00000000000E+00 0.  1.
         21    1    1    2  505  502  0.99453256283E+02  0.20815213660E+01 -0.58810253656E+03  0.59645609765E+03  0.00000000000E+00 0.  1.
         21    1    1    2  506  505 -0.72494645107E+02  0.57978839116E+02 -0.17470092430E+03  0.19783182834E+03  0.00000000000E+00 0.  1.
<scales pt_clust_3="37.97156" pt_clust_4="41.68804" pt_clust_5="14000.00000" pt_clust_6="80.19393"></scales>
<clustering>
<clus scale="   37.972">  1  3  2 -1</clus>
<clus scale="   41.688">  2  4  1 -1</clus>
<clus scale="   80.194">  1  6  2 -1</clus>
<clus scale="   37.972">  1  3  2 -1</clus>
</clustering>
</event>
<event>
 6    0  0.3446372E+002  0.1154746E+03  0.7546771E-02  0.1250755E+00
         21   -1    0    0  506  501  0.00000000000E+00  0.00000000000E+00  0.21405514708E+04  0.21405514708E+04  0.00000000000E+00 0.  1.
         21   -1    0    0  504  502 -0.00000000000E+00 -0.00000000000E+00 -0.73883113581E+02  0.73883113581E+02  0.00000000000E+00 0. -1.
         21    1    1    2  503  501 -0.72664204753E+02  0.34081324502E+01  0.11895624617E+04  0.11917846082E+04  0.00000000000E+00 0.  1.
         21    1    1    2  504  503  0.14243558026E+03  0.89901873803E+02  0.76013056722E+03  0.77856837892E+03  0.00000000000E+00 0.  1.
         21    1    1    2  505  502 -0.31065503362E+02 -0.56951662459E+02 -0.41455395320E+02  0.76987707832E+02  0.00000000000E+00 0. -1.
         21    1    1    2  506  505 -0.38705872146E+02 -0.36358343794E+02  0.15843072361E+03  0.16709388943E+03  0.00000000000E+00 0.  1.
<scales pt_clust_3="115.47464" pt_clust_4="14000.00000" pt_clust_5="65.32678" pt_clust_6="53.10437"></scales>
<clustering>
<clus scale="   53.104">  1  6  2 -1</clus>
<clus scale="   65.327">  2  5  1 -1</clus>
<clus scale="  115.475">  1  3  2 -1</clus>
<clus scale="   53.104">  1  3  2 -1</clus>
</clustering>
</event>
<event>
 6    0  0.3446372E+002  0.2309231E+03  0.7546771E-02  0.1125992E+00
         21   -1    0    0  504  501  0.00000000000E+00  0.00000000000E+00  0.48194461006E+02  0.48194461006E+02  0.00000000000E+00 0.  1.
         21   -1    0    0  503  502 -0.00000000000E+00 -0.00000000000E+00 -0.17749889977E+04  0.17749889977E+04  0.00000000000E+00 0.  1.
         21    1    1    2  503  505 -0.32703735528E+02 -0.16168467761E+03 -0.67010371577E+03  0.69010901978E+03  0.00000000000E+00 0.  1.
         21    1    1    2  504  502  0.11643601462E+03  0.17921830722E+03 -0.73087899054E+03  0.76148581468E+03  0.00000000000E+00 0.  1.
         21    1    1    2  505  506 -0.51460756800E+02 -0.57474562939E+02 -0.30756691317E+03  0.31709453000E+03  0.00000000000E+00 0.  1.
         21    1    1    2  506  501 -0.32271522290E+02  0.39940933338E+02 -0.18244917245E+02  0.54494094286E+02  0.00000000000E+00 0.  1.
<scales pt_clust_3="40.48503" pt_clust_4="223.20570" pt_clust_5="40.48503" pt_clust_6="51.34909"></scales>
<clustering>
<clus scale="   40.485">  3  5 -1 -1</clus>
<clus scale="   51.349">  1  6  2 -1</clus>
<clus scale="  223.206">  1  4  2 -1</clus>
<clus scale="   51.349">  1  3  2 -1</clus>
</clustering>
</event>
<event>
 6    0  0.3446372E+002  0.3333912E+03  0.7546771E-02  0.1069646E+00
         21   -1    0    0  505  501  0.00000000000E+00  0.00000000000E+00  0.85154412061E+03  0.85154412061E+03  0.00000000000E+00 0. -1.
         21   -1    0    0  506  502 -0.00000000000E+00 -0.00000000000E+00 -0.51813419503E+03  0.51813419503E+03  0.00000000000E+00 0. -1.
         21    1    1    2  503  502 -0.16749729890E+03  0.14454466604E+03 -0.33732167032E+03  0.40340353851E+03  0.00000000000E+00 0. -1.
         21    1    1    2  504  501 -0.28525121532E+02 -0.22240835071E+02  0.21441423953E+03  0.21744379369E+03  0.00000000000E+00 0. -1.
         21    1    1    2  505  503 -0.93350598735E+02  0.38688316743E+02 -0.72864354599E+02  0.12458063376E+03  0.00000000000E+00 0. -1.
         21    1    1    2  506  504  0.28937301917E+03 -0.16099214771E+03  0.52918171097E+03  0.62425034967E+03  0.00000000000E+00 0. -1.
<scales pt_clust_3="63.92952" pt_clust_4="36.17095" pt_clust_5="63.92952" pt_clust_6="319.76695"></scales>
<clustering>
<clus scale="   36.171">  1  4  2 -1</clus>
<clus scale="   63.930">  3  5 -1 -1</clus>
<clus scale="  319.767">  1  6  2 -1</clus>
<clus scale="   36.171">  1  3  2 -1</clus>
</clustering>
</event>
<event>
 6    0  0.3446372E+002  0.1171174E+03  0.7546771E-02  0.1247930E+00
         21   -1    0    0  504  501  0.00000000000E+00  0.00000000000E+00  0.32692911715E+03  0.32692911715E+03  0.00000000000E+00 0.  1.
         21   -1    0    0  506  502 -0.00000000000E+00 -0.00000000000E+00 -0.25461738387E+03  0.25461738387E+03  0.00000000000E+00 0. -1.
         21    1    1    2  503  505  0.14792750909E+03  0.19161938862E+02  0.12155499504E+03  0.19241970966E+03  0.00000000000E+00 0.  1.
         21    1    1    2  504  503  0.34697857913E+02  0.17148314930E+02  0.11084180600E+03  0.11740490623E+03  0.00000000000E+00 0.  1.
         21    1    1    2  505  502 -0.10910997909E+03 -0.31747256420E+02 -0.16218812546E+03  0.19803500667E+03  0.00000000000E+00 0. -1.
         21    1    1    2  506  501 -0.73515387911E+02 -0.45629973724E+01  0.21030576987E+01  0.73686878455E+02  0.00000000000E+00 0.  1.
<scales pt_clust_3="14000.00000" pt_clust_4="38.70408" pt_clust_5="117.11742" pt_clust_6="67.35355"></scales>
<clustering>
<clus scale="   38.704">  1  4  2 -1</clus>
<clus scale="   67.354">  1  6  2 -1</clus>
<clus scale="  117.117">  2  5  1 -1</clus>
<clus scale="   38.704">  1  3  2 -1</clus>
</clustering>
</event>
<event>
 6    0  0.3446372E+002  0.7549194E+02  0.7546771E-02  0.1342354E+00
         21   -1    0    0  503  501  0.00000000000E+00  0.00000000000E+00  0.42111055237E+03  0.42111055237E+03  0.00000000000E+00 0. -1.
         21   -1    0    0  505  502 -0.00000000000E+00 -0.00000000000E+00 -0.24081205688E+04  0.24081205688E+04  0.00000000000E+00 0. -1.
         21    1    1    2  503  504 -0.52025232874E+02  0.24100932634E+02  0.38877643317E+03  0.39298167235E+03  0.00000000000E+00 0. -1.
         21    1    1    2  504  502 -0.32101263007E+00 -0.79095797830E+02 -0.26011751831E+02  0.83263794754E+02  0.00000000000E+00 0. -1.
         21    1    1    2  505  506  0.15614845540E+02 -0.27799988851E+02 -0.70118955033E+03  0.70191413170E+03  0.00000000000E+00 0. -1.
         21    1    1    2  506  501  0.36731399964E+02  0.82794854047E+02 -0.16485851474E+04  0.16510715224E+04  0.00000000000E+00 0. -1.
<scales pt_clust_3="57.30470" pt_clust_4="75.49194" pt_clust_5="31.88515" pt_clust_6="14000.00000"></scales>
<clustering>
<clus scale="   31.885">  2  5  1 -1</clus>
<clus scale="   57.305">  1  3  2 -1</clus>
<clus scale="   75.492">  1  4  2 -1</clus>
<clus scale="   57.305">  1  3  2 -1</clus>
</clustering>
</event>
<event>
 6    0  0.3446372E+002  0.1024890E+03  0.7546771E-02  0.1275147E+00
         21   -1    0    0  503  501  0.00000000000E+00  0.00000000000E+00  0.17479860492E+03  0.17479860492E+03  0.00000000000E+00 0.  1.
         21   -1    0    0  506  502 -0.00000000000E+00 -0.00000000000E+00 -0.53574892493E+03  0.53574892493E+03  0.00000000000E+00 0.  1.
         21    1    1    2  503  504  0.15355097046E+02  0.33792071992E+02  0.12036983282E+03  0.12596261266E+03  0.00000000000E+00 0.  1.
         21    1    1    2  504  505 -0.43749814274E+02 -0.13686395868E+03 -0.78389972595E+02  0.16367888452E+03  0.00000000000E+00 0.  1.
         21    1    1    2  505  502  0.33247023699E+02  0.63289554955E+02 -0.16794842296E+03  0.18253110728E+03  0.00000000000E+00 0.  1.
         21    1    1    2  506  501 -0.48523064702E+01  0.39782331729E+02 -0.23498175728E+03  0.23837492538E+03  0.00000000000E+00 0. -1.
<scales pt_clust_3="37.11715" pt_clust_4="102.48895" pt_clust_5="14000.00000" pt_clust_6="41.12318"></scales>
<clustering>
<clus scale="   37.117">  1  3  2 -1</clus>
<clus scale="   41.123">  2  6  1 -1</clus>
<clus scale="  102.489">  1  4  2 -1</clus>
<clus scale="   37.117">  1  3  2 -1</clus>
</clustering>
</event>
<event>
 6    0  0.3446372E+002  0.1056347E+03  0.7546771E-02  0.1268874E+00
         21   -1    0    0  506  501  0.00000000000E+00  0.00000000000E+00  0.24371061342E+03  0.24371061342E+03  0.00000000000E+00 0. -1.
         21   -1    0    0  505  502 -0.00000000000E+00 -0.00000000000E+00 -0.14486043542E+04  0.14486043542E+04  0.00000000000E+00 0. -1.
         21    1    1    2  503  501  0.68531650925E+01  0.34698320079E+02  0.20719316653E+03  0.21019026510E+03  0.00000000000E+00 0. -1.
         21    1    1    2  504  502  0.66897541909E+02  0.11415896719E+01 -0.74991263316E+03  0.75289145414E+03  0.00000000000E+00 0. -1.
         21    1    1    2  505  503  0.31337709825E+02 -0.57632458754E+02 -0.60323208828E+03  0.60678868208E+03  0.00000000000E+00 0. -1.
         21    1    1    2  506  504 -0.10508841683E+03  0.21792549003E+02 -0.58942185841E+02  0.12244456629E+03  0.00000000000E+00 0. -1.
<scales pt_clust_3="35.36862" pt_clust_4="14000.00000" pt_clust_5="64.22999" pt_clust_6="105.63474"></scales>
<clustering>
<clus scale="   35.369">  1  3  2 -1</clus>
<clus scale="   64.230">  2  5  1 -1</clus>
<clus scale="  105.635">  1  6  2 -1</clus>
<clus scale="   35.369">  1  3  2 -1</clus>
</clustering>
</event>
<event>
 6    0  0.3446372E+002  0.1209394E+03  0.7546771E-02  0.1241555E+00
         21   -1    0    0  503  501  0.00000000000E+00  0.00000000000E+00  0.27343001677E+03  0.27343001677E+03  0.00000000000E+00 0. -1.
         21   -1    0    0  504  502 -0.00000000000E+00 -0.00000000000E+00 -0.83980085527E+02  0.83980085527E+02  0.00000000000E+00 0.  1.
         21    1    1    2  503  506  0.11316688871E+02  0.63797454769E+02  0.48571414818E+02  0.80977558740E+02  0.00000000000E+00 0.  1.
         21    1    1    2  504  501 -0.10317445920E+03  0.15709930440E+02  0.63302325928E+02  0.12206127729E+03  0.00000000000E+00 0.  1.
         21    1    1    2  505  502  0.48906121172E+02 -0.39572918287E+02  0.80683322604E+01  0.63426512874E+02  0.00000000000E+00 0. -1.
         21    1    1    2  506  505  0.42951649154E+02 -0.39934466922E+02  0.69507858233E+02  0.90944753392E+02  0.00000000000E+00 0.  1.
<scales pt_clust_3="64.79338" pt_clust_4="107.57878" pt_clust_5="53.35031" pt_clust_6="53.35031"></scales>
<clustering>
<clus scale="   53.350">  5  6 -1 -1</clus>
<clus scale="   64.793">  1  3  2 -1</clus>
<clus scale="  107.579">  2  4  1 -1</clus>
<clus scale="   64.793">  1  3  2 -1</clus>
</clustering>
</event>
<event>
 6    0  0.3446372E+002  0.1132907E+03  0.7546771E-02  0.1254595E+00
         21   -1    0    0  505  501  0.00000000000E+00  0.00000000000E+00  0.14975913352E+04  0.14975913352E+04  0.00000000000E+00 0.  1.
         21   -1    0    0  504  502 -0.00000000000E+00 -0.00000000000E+00 -0.12756709920E+03  0.12756709920E+03  0.00000000000E+00 0.  1.
         21    1    1    2  503  502 -0.86040089948E+01 -0.35739629391E+02  0.43341325711E+02  0.56831510574E+02  0.00000000000E+00 0. -1.
         21    1    1    2  504  506 -0.32956984719E+02  0.51098087972E+02 -0.99401403836E+02  0.11652388820E+03  0.00000000000E+00 0.  1.
         21    1    1    2  505  503  0.33613097158E+02 -0.11428683266E+03  0.11866465076E+04  0.11926111078E+04  0.00000000000E+00 0.  1.
         21    1    1    2  506  501  0.79478965557E+01  0.98928374074E+02  0.23943780645E+03  0.25919192776E+03  0.00000000000E+00 0.  1.
<scales pt_clust_3="36.76071" pt_clust_4="44.93585" pt_clust_5="113.29072" pt_clust_6="14000.00000"></scales>
<clustering>
<clus scale="   36.761">  2  3  1 -1</clus>
<clus scale="   44.936">  2  4  1 -1</clus>
<clus scale="  113.291">  1  5  2 -1</clus>
<clus scale="  113.291">  1  3  2 -1</clus>
</clustering>
</event>
<event>
 6    0  0.3446372E+002  0.1736503E+03  0.7546771E-02  0.1174094E+00
         21   -1    0    0  503  501  0.00000000000E+00  0.00000000000E+00  0.54097149679E+03  0.54097149679E+03  0.00000000000E+00 0.  1.
         21   -1    0    0  506  502 -0.00000000000E+00 -0.00000000000E+00 -0.35448728114E+03  0.35448728114E+03  0.00000000000E+00 0.  1.
         21    1    1    2  503  504  0.54721922986E+02  0.13249962873E+03  0.42002141049E+03  0.44381147545E+03  0.00000000000E+00 0.  1.
         21    1    1    2  504  505 -0.25505153968E+02 -0.84813863821E+02 -0.15407612685E+03  0.17771707076E+03  0.00000000000E+00 0.  1.
         21    1    1    2  505  502  0.23642328707E+02 -0.83502969184E+02 -0.15339354337E+03  0.17624211959E+03  0.00000000000E+00 0.  1.
         21    1    1    2  506  501 -0.52859097725E+02  0.35817204273E+02  0.73932475384E+02  0.97688112125E+02  0.00000000000E+00 0. -1.
<scales pt_clust_3="166.55017" pt_clust_4="48.65106" pt_clust_5="48.65106" pt_clust_6="63.85105"></scales>
<clustering>
<clus scale="   48.651">  4  5 -1 -1</clus>
<clus scale="   63.851">  1  6  2 -1</clus>
<clus scale="  166.550">  1  3  2 -1</clus>
<clus scale="   63.851">  1  3  2 -1</clus>
</clustering>
</event>
<event>
 6    0  0.3446372E+002  0.1021000E+03  0.7546771E-02  0.1275941E+00
         21   -1    0    0  506  501  0.00000000000E+00  0.00000000000E+00  0.13326084070E+03  0.13326084070E+03  0.00000000000E+00 0. -1.
         21   -1    0    0  503  502 -0.00000000000E+00 -0.00000000000E+00 -0.11234959048E+04  0.11234959048E+04  0.00000000000E+00 0. -1.
         21    1    1    2  503  505 -0.37972782509E+02  0.96789987616E+02 -0.88158793721E+03  0.88769787932E+03  0.00000000000E+00 0. -1.
         21    1    1    2  504  502  0.17101580060E+02  0.30805515718E+02 -0.71104696162E+02  0.79355665554E+02  0.00000000000E+00 0. -1.
         21    1    1    2  505  501 -0.22945513396E+02 -0.77267283116E+02 -0.14343988658E+03  0.16453489201E+03  0.00000000000E+00 0. -1.
         21    1    1    2  506  504  0.43816715845E+02 -0.50328220218E+02  0.10589745583E+03  0.12516830864E+03  0.00000000000E+00 0. -1.
<scales pt_clust_3="102.09998" pt_clust_4="35.23413" pt_clust_5="14000.00000" pt_clust_6="66.61991"></scales>
<clustering>
<clus scale="   35.234">  2  4  1 -1</clus>
<clus scale="   66.620">  1  6  2 -1</clus>
<clus scale="  102.100">  2  3  1 -1</clus>
<clus scale="   66.620">  1  3  2 -1</clus>
</clustering>
</event>
<event>
 6    0  0.3446372E+002  0.1190802E+03  0.7546771E-02  0.1244622E+00
         21   -1    0    0  506  501  0.00000000000E+00  0.00000000000E+00  0.39821529011E+02  0.39821529011E+02  0.00000000000E+00 0. -1.
         21   -1    0    0  505  502 -0.00000000000E+00 -0.00000000000E+00 -0.54550853116E+03  0.54550853116E+03  0.00000000000E+00 0.  1.
         21    1    1    2  503  501  0.10500318576E+01  0.30303767199E+02 -0.29948860893E+01  0.30469496485E+02  0.00000000000E+00 0. -1.
         21    1    1    2  504  502  0.74503264300E+01  0.55797992820E+02 -0.16309673372E+03  0.17253830855E+03  0.00000000000E+00 0. -1.
         21    1    1    2  505  503  0.68879550893E+01 -0.12837535418E+03 -0.27544374383E+03  0.30396863573E+03  0.00000000000E+00 0.  1.
         21    1    1    2  506  504 -0.15388313377E+02  0.42273594164E+02 -0.64151638506E+02  0.78353619413E+02  0.00000000000E+00 0. -1.
<scales pt_clust_3="30.32195" pt_clust_4="37.23690" pt_clust_5="112.05447" pt_clust_6="37.23690"></scales>
<clustering>
<clus scale="   30.322">  1  3  2 -1</clus>
<clus scale="   37.237">  4  6 -1 -1</clus>
<clus scale="  112.054">  1  5  2 -1</clus>
<clus scale="   30.322">  1  3  2 -1</clus>
</clustering>
</event>
<event>
 6    0  0.3446372E+002  0.1288807E+03  0.7546771E-02  0.1229126E+00
         21   -1    0    0  503  501  0.00000000000E+00  0.00000000000E+00  0.10831927128E+03  0.10831927128E+03  0.00000000000E+00 0. -1.
         21   -1    0    0  505  502 -0.00000000000E+00 -0.00000000000E+00 -0.26799420664E+03  0.26799420664E+03  0.00000000000E+00 0. -1.
         21    1    1    2  503  502  0.62837608436E+02  0.21257824063E+01 -0.50589643579E+01  0.63076755665E+02  0.00000000000E+00 0. -1.
         21    1    1    2  504  506 -0.55249099205E+02  0.74772399908E+02 -0.45014333413E+02  0.10329407032E+03  0.00000000000E+00 0. -1.
         21    1    1    2  505  504  0.37024964992E-01 -0.11443864469E+03 -0.12425864815E+03  0.16892725183E+03  0.00000000000E+00 0. -1.
         21    1    1    2  506  501 -0.76255341962E+01  0.37540462379E+02  0.14657010565E+02  0.41015400110E+02  0.00000000000E+00 0. -1.
<scales pt_clust_3="62.87356" pt_clust_4="37.07650" pt_clust_5="115.21280" pt_clust_6="37.07650"></scales>
<clustering>
<clus scale="   37.076">  4  6 -1 -1</clus>
<clus scale="   62.874">  1  3  2 -1</clus>
<clus scale="  115.213">  2  5  1 -1</clus>
<clus scale="   62.874">  1  3  2 -1</clus>
</clustering>
</event>
<event>
 6    0  0.3446372E+002  0.1067975E+03  0.7546771E-02  0.1266618E+00
         21   -1    0    0  504  501  0.00000000000E+00  0.00000000000E+00  0.55794225183E+03  0.55794225183E+03  0.00000000000E+00 0.  1.
         21   -1    0    0  503  502 -0.00000000000E+00 -0.00000000000E+00 -0.11360922109E+03  0.11360922109E+03  0.00000000000E+00 0.  1.
         21    1    1    2  503  506 -0.57850372670E+02  0.19342131414E+02 -0.12020270209E+01  0.61010069125E+02  0.00000000000E+00 0.  1.
         21    1    1    2  504  505  0.38124693105E+02  0.65618611581E+02  0.39270506238E+03  0.39997069946E+03  0.00000000000E+00 0.  1.
         21    1    1    2  505  502 -0.29240963735E+02 -0.97684172974E+02 -0.36173205406E+02  0.10819303304E+03  0.00000000000E+00 0.  1.
         21    1    1    2  506  501  0.48966643300E+02  0.12723429979E+02  0.89003200793E+02  0.10237767129E+03  0.00000000000E+00 0.  1.
<scales pt_clust_3="58.28229" pt_clust_4="106.79747" pt_clust_5="14000.00000" pt_clust_6="50.59267"></scales>
<clustering>
<clus scale="   50.593">  1  6  2 -1</clus>
<clus scale="   58.282">  2  3  1 -1</clus>
<clus scale="  106.797">  1  4  2 -1</clus>
<clus scale="   50.593">  1  3  2 -1</clus>
</clustering>
</event>
<event>
 6    0  0.3446372E+002  0.6694848E+02  0.7546771E-02  0.1370788E+00
         21   -1    0    0  506  501  0.00000000000E+00  0.00000000000E+00  0.31214803812E+04  0.31214803812E+04  0.00000000000E+00 0. -1.
         21   -1    0    0  505  502 -0.00000000000E+00 -0.00000000000E+00 -0.19821899374E+03  0.19821899374E+03  0.00000000000E+00 0. -1.
         21    1    1    2  503  504 -0.15265314131E+02 -0.64128947811E+02  0.50768660054E+03  0.51194847019E+03  0.00000000000E+00 0. -1.
         21    1    1    2  504  501  0.26332992778E+02  0.37685681235E+02  0.25627728866E+04  0.25631852266E+04  0.00000000000E+00 0. -1.
         21    1    1    2  505  503  0.32585241630E+02  0.74800665788E+02  0.21596038748E+01  0.81618634290E+02  0.00000000000E+00 0. -1.
         21    1    1    2  506  502 -0.43652920277E+02 -0.48357399212E+02 -0.14935770358E+03  0.16294704393E+03  0.00000000000E+00 0. -1.
<scales pt_clust_3="30.99553" pt_clust_4="45.97431" pt_clust_5="14000.00000" pt_clust_6="66.94848"></scales>
<clustering>
<clus scale="   45.974">  1  4  2 -1</clus>
<clus scale="   30.996">  1  3  2 -1</clus>
<clus scale="   66.948">  2  6  1 -1</clus>
<clus scale="   45.974">  1  3  2 -1</clus>
</clustering>
</event>
<event>
 6    0  0.3446372E+002  0.1423210E+03  0.7546771E-02  0.1210240E+00
         21   -1    0    0  504  501  0.00000000000E+00  0.00000000000E+00  0.85147335120E+03  0.85147335120E+03  0.00000000000E+00 0. -1.
         21   -1    0    0  506  502 -0.00000000000E+00 -0.00000000000E+00 -0.76913233357E+02  0.76913233357E+02  0.00000000000E+00 0. -1.
         21    1    1    2  503  501 -0.36314529060E+02 -0.66748737938E+02  0.53708489058E+03  0.54243369984E+03  0.00000000000E+00 0. -1.
         21    1    1    2  504  502  0.12420126087E+03  0.95614553260E+02  0.37735535468E+02  0.16122055277E+03  0.00000000000E+00 0. -1.
         21    1    1    2  505  503 -0.41013600571E+02  0.68442125240E+01  0.10767255793E+03  0.11542243460E+03  0.00000000000E+00 0.  1.
         21    1    1    2  506  505 -0.46873131239E+02 -0.35710027846E+02  0.92067133873E+02  0.10930989736E+03  0.00000000000E+00 0. -1.
<scales pt_clust_3="75.98776" pt_clust_4="134.92180" pt_clust_5="38.04637" pt_clust_6="38.04637"></scales>
<clustering>
<clus scale="   38.046">  5  6 -1 -1</clus>
<clus scale="   75.988">  1  3  2 -1</clus>
<clus scale="  134.922">  2  4  1 -1</clus>
<clus scale="   75.988">  1  3  2 -1</clus>
</clustering>
</event>
<event>
 6    0  0.8322339E+002  0.1594595E+03  0.7546771E-02  0.1189308E+00
         21   -1    0    0  506  501  0.00000000000E+00  0.00000000000E+00  0.50620612409E+03  0.50620612409E+03  0.00000000000E+00 0. -1.
         21   -1    0    0  504  502 -0.00000000000E+00 -0.00000000000E+00 -0.14806595008E+04  0.14806595008E+04  0.00000000000E+00 0.  1.
         21    1    1    2  503  502 -0.16807409422E+03  0.35375277030E+02 -0.12650763164E+04  0.12766825752E+04  0.00000000000E+00 0.  1.
         21    1    1    2  504  501  0.57457800430E+02 -0.30478857635E+02  0.48192098030E+03  0.48629023314E+03  0.00000000000E+00 0. -1.
         21    1    1    2  505  503  0.64679070913E+02  0.94582431009E+01 -0.85177292068E+02  0.10736857855E+03  0.00000000000E+00 0.  1.
         21    1    1    2  506  505  0.45937222875E+02 -0.14354662495E+02 -0.10612074851E+03  0.11652423801E+03  0.00000000000E+00 0.  1.
<scales pt_clust_3="155.41629" pt_clust_4="65.04121" pt_clust_5="30.61628" pt_clust_6="30.61628"></scales>
<clustering>
<clus scale="   30.616">  5  6 -1 -1</clus>
<clus scale="   65.041">  1  4  2 -1</clus>
<clus scale="  155.416">  2  3  1 -1</clus>
<clus scale="   65.041">  1  3  2 -1</clus>
</clustering>
</event>
<event>
 6    0  0.3446372E+002  0.1374441E+03  0.7546771E-02  0.1216810E+00
         21   -1    0    0  506  501  0.00000000000E+00  0.00000000000E+00  0.44677968349E+02  0.44677968349E+02  0.00000000000E+00 0.  1.
         21   -1    0    0  501  502 -0.00000000000E+00 -0.00000000000E+00 -0.78277522760E+03  0.78277522760E+03  0.00000000000E+00 0.  1.
         21    1    1    2  503  504  0.45272654937E+02 -0.24287438102E+02 -0.53274176313E+02  0.74011018075E+02  0.00000000000E+00 0.  1.
         21    1    1    2  504  505  0.72843907223E+02  0.97417214513E+01 -0.12558124939E+03  0.14550527879E+03  0.00000000000E+00 0.  1.
         21    1    1    2  505  502 -0.13431525796E+03 -0.12470107988E+02 -0.56040916583E+03  0.57641523684E+03  0.00000000000E+00 0.  1.
         21    1    1    2  506  503  0.16198695797E+02  0.27015824639E+02  0.11673322802E+01  0.31521662252E+02  0.00000000000E+00 0.  1.
<scales pt_clust_3="36.58631" pt_clust_4="36.58631" pt_clust_5="129.83002" pt_clust_6="31.50004"></scales>
<clustering>
<clus scale="   31.500">  1  6  2 -1</clus>
<clus scale="   36.586">  3  4 -1 -1</clus>
<clus scale="  129.830">  2  5  1 -1</clus>
<clus scale="   31.500">  1  3  2 -1</clus>
</clustering>
</event>
<event>
 6    0  0.3446372E+002  0.8815681E+02  0.7546771E-02  0.1307378E+00
         21   -1    0    0  503  501  0.00000000000E+00  0.00000000000E+00  0.72999953340E+03  0.72999953340E+03  0.00000000000E+00 0.  1.
         21   -1    0    0  506  502 -0.00000000000E+00 -0.00000000000E+00 -0.17476086793E+03  0.17476086793E+03  0.00000000000E+00 0. -1.
         21    1    1    2  503  504 -0.43947800347E+02  0.38033652745E+02  0.33079490682E+03  0.33586193335E+03  0.00000000000E+00 0.  1.
         21    1    1    2  504  502  0.71914612390E+02  0.30009407233E+02 -0.13407608974E+03  0.15507634841E+03  0.00000000000E+00 0. -1.
         21    1    1    2  505  501 -0.13778682482E+02 -0.10624426700E+03  0.35733975103E+03  0.37305414356E+03  0.00000000000E+00 0.  1.
         21    1    1    2  506  505 -0.14188129561E+02  0.38201207025E+02  0.11800973669E+01  0.40767976016E+02  0.00000000000E+00 0. -1.
<scales pt_clust_3="58.70526" pt_clust_4="88.15681" pt_clust_5="14000.00000" pt_clust_6="40.75089"></scales>
<clustering>
<clus scale="   40.751">  2  6  1 -1</clus>
<clus scale="   58.705">  1  3  2 -1</clus>
<clus scale="   88.157">  2  4  1 -1</clus>
<clus scale="   58.705">  1  3  2 -1</clus>
</clustering>
</event>
<event>
 6    0  0.3446372E+002  0.2053368E+03  0.7546771E-02  0.1145313E+00
         21   -1    0    0  505  501  0.00000000000E+00  0.00000000000E+00  0.12385825128E+03  0.12385825128E+03  0.00000000000E+00 0.  1.
         21   -1    0    0  503  502 -0.00000000000E+00 -0.00000000000E+00 -0.10230920158E+04  0.10230920158E+04  0.00000000000E+00 0.  1.
         21    1    1    2  503  506  0.18149754582E+02  0.85708748054E+02 -0.43404395401E+03  0.44279742219E+03  0.00000000000E+00 0.  1.
         21    1    1    2  504  501  0.22974642805E+02  0.25244059915E+02 -0.34809611153E+02  0.48752495338E+02  0.00000000000E+00 0. -1.
         21    1    1    2  505  502 -0.30042105316E+02 -0.22339808694E+03 -0.16094556696E+02  0.22598289337E+03  0.00000000000E+00 0.  1.
         21    1    1    2  506  504 -0.11082292071E+02  0.11244527898E+03 -0.41428564263E+03  0.42941745616E+03  0.00000000000E+00 0.  1.
<scales pt_clust_3="37.14728" pt_clust_4="34.13351" pt_clust_5="200.95395" pt_clust_6="37.14728"></scales>
<clustering>
<clus scale="   34.134">  1  4  2 -1</clus>
<clus scale="   37.147">  3  6 -1 -1</clus>
<clus scale="  200.954">  1  5  2 -1</clus>
<clus scale="   34.134">  1  3  2 -1</clus>
</clustering>
</event>
<event>
 6    0  0.3446372E+002  0.9363012E+02  0.7546771E-02  0.1294292E+00
         21   -1    0    0  504  501  0.00000000000E+00  0.00000000000E+00  0.11597609224E+04  0.11597609224E+04  0.00000000000E+00 0.  1.
         21   -1    0    0  505  502 -0.00000000000E+00 -0.00000000000E+00 -0.38691478311E+02  0.38691478311E+02  0.00000000000E+00 0.  1.
         21    1    1    2  503  501 -0.11057728584E+02 -0.40046107421E+02  0.75442767679E+03  0.75557070059E+03  0.00000000000E+00 0.  1.
         21    1    1    2  504  502 -0.17545858374E+01 -0.31304562237E+02  0.12379578997E+03  0.12770454888E+03  0.00000000000E+00 0. -1.
         21    1    1    2  505  506  0.45274053955E+02 -0.50625079820E+02  0.12617981401E+03  0.14329683922E+03  0.00000000000E+00 0. -1.
         21    1    1    2  506  503 -0.32461739533E+02  0.12197574948E+03  0.11666616328E+03  0.17188031199E+03  0.00000000000E+00 0.  1.
<scales pt_clust_3="64.10237" pt_clust_4="31.35369" pt_clust_5="93.63012" pt_clust_6="14000.00000"></scales>
<clustering>
<clus scale="   31.354">  1  4  2 -1</clus>
<clus scale="   64.102">  1  3  2 -1</clus>
<clus scale="   93.630">  2  5  1 -1</clus>
<clus scale="   31.354">  1  3  2 -1</clus>
</clustering>
</event>
<event>
 6    0  0.6038992E+002  0.1315108E+03  0.7546771E-02  0.1225231E+00
         21   -1    0    0  504  501  0.00000000000E+00  0.00000000000E+00  0.52122904768E+03  0.52122904768E+03  0.00000000000E+00 0.  1.
         21   -1    0    0  503  502 -0.00000000000E+00 -0.00000000000E+00 -0.13320055758E+04  0.13320055758E+04  0.00000000000E+00 0. -1.
         21    1    1    2  503  506  0.13862530301E+01  0.32781848224E+02 -0.10166743067E+04  0.10172036262E+04  0.00000000000E+00 0. -1.
         21    1    1    2  504  505 -0.39583833437E+02 -0.12804193853E+03  0.48903545099E+03  0.50706734288E+03  0.00000000000E+00 0.  1.
         21    1    1    2  505  502  0.60996028190E+02  0.21868709620E+02 -0.45417109434E+02  0.79129449289E+02  0.00000000000E+00 0. -1.
         21    1    1    2  506  501 -0.22798447783E+02  0.73391380683E+02 -0.23772056306E+03  0.24983420519E+03  0.00000000000E+00 0.  1.
<scales pt_clust_3="32.81115" pt_clust_4="131.51079" pt_clust_5="67.51022" pt_clust_6="14000.00000"></scales>
<clustering>
<clus scale="   32.811">  2  3  1 -1</clus>
<clus scale="   67.510">  2  5  1 -1</clus>
<clus scale="  131.511">  1  4  2 -1</clus>
<clus scale="  131.511">  1  3  2 -1</clus>
</clustering>
</event>
<event>
 6    0  0.3446372E+002  0.1397136E+03  0.7546771E-02  0.1213715E+00
         21   -1    0    0  504  501  0.00000000000E+00  0.00000000000E+00  0.65698368445E+03  0.65698368445E+03  0.00000000000E+00 0. -1.
         21   -1    0    0  505  502 -0.00000000000E+00 -0.00000000000E+00 -0.10466754845E+03  0.10466754845E+03  0.00000000000E+00 0. -1.
         21    1    1    2  503  501 -0.26725170654E+02  0.43451338296E+02  0.64824007920E+02  0.82488820752E+02  0.00000000000E+00 0. -1.
         21    1    1    2  504  506  0.65125483317E+02  0.66326645516E+02 -0.98319369663E+01  0.93473094884E+02  0.00000000000E+00 0. -1.
         21    1    1    2  505  503 -0.83134523129E+02 -0.10578609606E+03  0.51876038596E+03  0.53592386129E+03  0.00000000000E+00 0. -1.
         21    1    1    2  506  502  0.44734210466E+02 -0.39918877526E+01 -0.21436320920E+02  0.49765455976E+02  0.00000000000E+00 0. -1.
<scales pt_clust_3="51.01229" pt_clust_4="41.61773" pt_clust_5="126.23422" pt_clust_6="41.61773"></scales>
<clustering>
<clus scale="   41.618">  4  6 -1 -1</clus>
<clus scale="   51.012">  1  3  2 -1</clus>
<clus scale="  126.234">  1  5  2 -1</clus>
<clus scale="   51.012">  1  3  2 -1</clus>
</clustering>
</event>
<event>
 6    0  0.3446372E+002  0.1285101E+03  0.7546771E-02  0.1229683E+00
         21   -1    0    0  503  501  0.00000000000E+00  0.00000000000E+00  0.16924072465E+04  0.16924072465E+04  0.00000000000E+00 0. -1.
         21   -1    0    0  505  502 -0.00000000000E+00 -0.00000000000E+00 -0.83432148374E+03  0.83432148374E+03  0.00000000000E+00 0.  1.
         21    1    1    2  503  504  0.46368188942E+02  0.58333248528E+02 -0.17088904643E+03  0.18642919037E+03  0.00000000000E+00 0.  1.
         21    1    1    2  504  502  0.49645190845E+02  0.36477288452E+02 -0.62689332311E+03  0.62991307028E+03  0.00000000000E+00 0.  1.
         21    1    1    2  505  506 -0.14274351846E+03 -0.65896562949E+02  0.20436359010E+03  0.25784209515E+03  0.00000000000E+00 0.  1.
         21    1    1    2  506  501  0.46730138669E+02 -0.28913974031E+02  0.14515045421E+04  0.14525443744E+04  0.00000000000E+00 0. -1.
<scales pt_clust_3="14000.00000" pt_clust_4="61.73533" pt_clust_5="128.51011" pt_clust_6="54.95201"></scales>
<clustering>
<clus scale="   54.952">  1  6  2 -1</clus>
<clus scale="   61.735">  2  4  1 -1</clus>
<clus scale="  128.510">  1  5  2 -1</clus>
<clus scale="   54.952">  1  3  2 -1</clus>
</clustering>
</event>
<event>
 6    0  0.3446372E+002  0.8267372E+02  0.7546771E-02  0.1321631E+00
         21   -1    0    0  504  501  0.00000000000E+00  0.00000000000E+00  0.19519207360E+02  0.19519207360E+02  0.00000000000E+00 0.  1.
         21   -1    0    0  506  502 -0.00000000000E+00 -0.00000000000E+00 -0.20870045216E+04  0.20870045216E+04  0.00000000000E+00 0.  1.
         21    1    1    2  503  502 -0.57865543757E+02  0.18051985564E+02 -0.62415272221E+03  0.62708924084E+03  0.00000000000E+00 0.  1.
         21    1    1    2  504  503 -0.38955736514E+02 -0.27000871062E+01 -0.27981635283E+02  0.48039689745E+02  0.00000000000E+00 0.  1.
         21    1    1    2  505  501 -0.35640358358E+02  0.32755865803E+02 -0.13701973880E+03  0.14531892756E+03  0.00000000000E+00 0.  1.
         21    1    1    2  506  505  0.13246163863E+03 -0.48107764260E+02 -0.12783312179E+04  0.12860758708E+04  0.00000000000E+00 0.  1.
<scales pt_clust_3="14000.00000" pt_clust_4="39.04920" pt_clust_5="61.41275" pt_clust_6="82.67372"></scales>
<clustering>
<clus scale="   39.049">  1  4  2 -1</clus>
<clus scale="   61.413">  1  5  2 -1</clus>
<clus scale="   82.674">  1  6  2 -1</clus>
<clus scale="   39.049">  1  3  2 -1</clus>
</clustering>
</event>
<event>
 6    0  0.3446372E+002  0.6532038E+02  0.7546771E-02  0.1376770E+00
         21   -1    0    0  503  501  0.00000000000E+00  0.00000000000E+00  0.74790363242E+03  0.74790363242E+03  0.00000000000E+00 0.  1.
         21   -1    0    0  505  502 -0.00000000000E+00 -0.00000000000E+00 -0.61961245529E+02  0.61961245529E+02  0.00000000000E+00 0. -1.
         21    1    1    2  503  506 -0.58321058682E+02  0.29850728445E+02  0.55930069170E+03  0.56312492008E+03  0.00000000000E+00 0.  1.
         21    1    1    2  504  501 -0.24082394678E+02  0.61134412716E+02  0.46156895416E+02  0.80298425552E+02  0.00000000000E+00 0. -1.
         21    1    1    2  505  504  0.48560706277E+02 -0.23212367335E+02  0.72462749265E+02  0.90265199399E+02  0.00000000000E+00 0.  1.
         21    1    1    2  506  502  0.33842747082E+02 -0.67772773827E+02  0.80220505021E+01  0.76176332916E+02  0.00000000000E+00 0. -1.
<scales pt_clust_3="65.32038" pt_clust_4="54.32900" pt_clust_5="53.82338" pt_clust_6="14000.00000"></scales>
<clustering>
<clus scale="   53.823">  2  5  1 -1</clus>
<clus scale="   54.329">  2  4  1 -1</clus>
<clus scale="   65.320">  1  3  2 -1</clus>
<clus scale="   65.320">  1  3  2 -1</clus>
</clustering>
</event>
<event>
 6    0  0.3446372E+002  0.8854743E+02  0.7546771E-02  0.1306408E+00
         21   -1    0    0  504  501  0.00000000000E+00  0.00000000000E+00  0.34283362673E+03  0.34283362673E+03  0.00000000000E+00 0. -1.
         21   -1    0    0  503  502 -0.00000000000E+00 -0.00000000000E+00 -0.18934543912E+04  0.18934543912E+04  0.00000000000E+00 0. -1.
         21    1    1    2  503  505 -0.15298202510E+02 -0.55563586109E+02 -0.59564006673E+03  0.59842162077E+03  0.00000000000E+00 0. -1.
         21    1    1    2  504  506  0.60260045755E+02 -0.66482610293E+02  0.29460124744E+03  0.30796283149E+03  0.00000000000E+00 0. -1.
         21    1    1    2  505  501 -0.31716279405E+02  0.79027710989E+02 -0.58477355190E+01  0.85355125763E+02  0.00000000000E+00 0. -1.
         21    1    1    2  506  502 -0.13245563840E+02  0.43018485413E+02 -0.12437342097E+04  0.12445484399E+04  0.00000000000E+00 0. -1.
<scales pt_clust_3="31.80070" pt_clust_4="14000.00000" pt_clust_5="88.54743" pt_clust_6="45.01150"></scales>
<clustering>
<clus scale="   45.011">  2  6  1 -1</clus>
<clus scale="   31.801">  2  3  1 -1</clus>
<clus scale="   88.547">  2  5  1 -1</clus>
<clus scale="   88.547">  1  3  2 -1</clus>
</clustering>
</event>
<event>
 6    0  0.3446372E+002  0.9006348E+02  0.7546771E-02  0.1302698E+00
         21   -1    0    0  505  501  0.00000000000E+00  0.00000000000E+00  0.71073114289E+03  0.71073114289E+03  0.00000000000E+00 0. -1.
         21   -1    0    0  503  502 -0.00000000000E+00 -0.00000000000E+00 -0.82344174402E+02  0.82344174402E+02  0.00000000000E+00 0.  1.
         21    1    1    2  503  504  0.45849900316E+01  0.92776709324E+02  0.13855804234E+02  0.93917640715E+02  0.00000000000E+00 0.  1.
         21    1    1    2  504  501  0.77680759560E+00  0.63232367567E+02  0.13738735148E+03  0.15124225628E+03  0.00000000000E+00 0.  1.
         21    1    1    2  505  506 -0.30956188601E+02 -0.13957115812E+03  0.49321203669E+03  0.51351388192E+03  0.00000000000E+00 0. -1.
         21    1    1    2  506  502  0.25594390974E+02 -0.16437918770E+02 -0.16068223914E+02  0.34401538375E+02  0.00000000000E+00 0.  1.
<scales pt_clust_3="14000.00000" pt_clust_4="61.36131" pt_clust_5="90.06348" pt_clust_6="30.41838"></scales>
<clustering>
<clus scale="   30.418">  2  6  1 -1</clus>
<clus scale="   61.361">  1  4  2 -1</clus>
<clus scale="   90.063">  1  5  2 -1</clus>
<clus scale="   61.361">  1  3  2 -1</clus>
</clustering>
</event>
<event>
 6    0  0.3446372E+002  0.1632167E+03  0.7546771E-02  0.1185112E+00
         21   -1    0    0  504  501  0.00000000000E+00  0.00000000000E+00  0.59271560195E+03  0.59271560195E+03  0.00000000000E+00 0.  1.
         21   -1    0    0  503  502 -0.00000000000E+00 -0.00000000000E+00 -0.99742446412E+02  0.99742446412E+02  0.00000000000E+00 0.  1.
         21    1    1    2  503  501 -0.11661952545E+02 -0.44917154311E+02 -0.19309504157E+02  0.50263394627E+02  0.00000000000E+00 0.  1.
         21    1    1    2  504  505  0.13580046863E+03 -0.84168513378E+02  0.31154506759E+03  0.35012345689E+03  0.00000000000E+00 0.  1.
         21    1    1    2  505  506 -0.10073862257E+03  0.14882121645E+03  0.18392559179E+03  0.25714713271E+03  0.00000000000E+00 0.  1.
         21    1    1    2  506  502 -0.23399893510E+02 -0.19735548763E+02  0.16812000313E+02  0.34924064136E+02  0.00000000000E+00 0. -1.
<scales pt_clust_3="56.39915" pt_clust_4="163.21672" pt_clust_5="14000.00000" pt_clust_6="30.61122"></scales>
<clustering>
<clus scale="   30.611">  2  6  1 -1</clus>
<clus scale="   56.399">  2  3  1 -1</clus>
<clus scale="  163.217">  1  4  2 -1</clus>
<clus scale="  163.217">  1  3  2 -1</clus>
</clustering>
</event>
<event>
 6    0  0.3446372E+002  0.7362558E+02  0.7546771E-02  0.1348181E+00
         21   -1    0    0  506  501  0.00000000000E+00  0.00000000000E+00  0.58610816661E+03  0.58610816661E+03  0.00000000000E+00 0.  1.
         21   -1    0    0  503  502 -0.00000000000E+00 -0.00000000000E+00 -0.15248607261E+03  0.15248607261E+03  0.00000000000E+00 0.  1.
         21    1    1    2  503  504  0.45311233762E+02  0.16457991746E+02 -0.17187706951E+02  0.51179983075E+02  0.00000000000E+00 0.  1.
         21    1    1    2  504  505 -0.11454415065E+03  0.59939515234E+01  0.12760633833E+03  0.17157991574E+03  0.00000000000E+00 0.  1.
         21    1    1    2  505  501  0.44089298952E+02 -0.57642374169E+02  0.41132155893E+03  0.41767443592E+03  0.00000000000E+00 0.  1.
         21    1    1    2  506  502  0.25143617939E+02  0.35190430899E+02 -0.88118096310E+02  0.98159904478E+02  0.00000000000E+00 0.  1.
<scales pt_clust_3="70.17288" pt_clust_4="73.62558" pt_clust_5="14000.00000" pt_clust_6="43.25006"></scales>
<clustering>
<clus scale="   43.250">  2  6  1 -1</clus>
<clus scale="   70.173">  2  3  1 -1</clus>
<clus scale="   73.626">  2  4  1 -1</clus>
<clus scale="   73.626">  1  3  2 -1</clus>
</clustering>
</event>
<event>
 6    0  0.3446372E+002  0.8126703E+02  0.7546771E-02  0.1325494E+00
         21   -1    0    0  503  501  0.00000000000E+00  0.00000000000E+00  0.14390436316E+04  0.14390436316E+04  0.00000000000E+00 0.  1.
         21   -1    0    0  504  502 -0.00000000000E+00 -0.00000000000E+00 -0.81834115116E+03  0.81834115116E+03  0.00000000000E+00 0. -1.
         21    1    1    2  503  506 -0.35541215165E+02 -0.56399066430E+02  0.13624389211E+04  0.13640688569E+04  0.00000000000E+00 0.  1.
         21    1    1    2  504  505  0.67788941147E+02 -0.27826695899E+02 -0.46204399555E+03  0.46781868216E+03  0.00000000000E+00 0. -1.
         21    1    1    2  505  501  0.55069026183E+02  0.24988504981E+02  0.50543615897E+02  0.78814212765E+02  0.00000000000E+00 0.  1.
         21    1    1    2  506  502 -0.87316752165E+02  0.59237257348E+02 -0.33023606106E+03  0.34668303087E+03  0.00000000000E+00 0. -1.
<scales pt_clust_3="36.92562" pt_clust_4="14000.00000" pt_clust_5="60.47332" pt_clust_6="81.26703"></scales>
<clustering>
<clus scale="   60.473">  1  5  2 -1</clus>
<clus scale="   36.926">  1  3  2 -1</clus>
<clus scale="   81.267">  1  6  2 -1</clus>
<clus scale="   60.473">  1  3  2 -1</clus>
</clustering>
</event>
<event>
 6    0  0.3446372E+002  0.1101301E+03  0.7546771E-02  0.1260329E+00
         21   -1    0    0  503  501  0.00000000000E+00  0.00000000000E+00  0.73134727694E+03  0.73134727694E+03  0.00000000000E+00 0. -1.
         21   -1    0    0  506  502 -0.00000000000E+00 -0.00000000000E+00 -0.58162068516E+03  0.58162068516E+03  0.00000000000E+00 0.  1.
         21    1    1    2  503  504 -0.61319850987E+02  0.24096544698E+02  0.35944635895E+03  0.36543460777E+03  0.00000000000E+00 0. -1.
         21    1    1    2  504  502 -0.12080313299E+02  0.34669391391E+02 -0.64083547332E+02  0.73855275421E+02  0.00000000000E+00 0.  1.
         21    1    1    2  505  501 -0.39202528440E+02 -0.72560953336E+02  0.35289395786E+03  0.36240319491E+03  0.00000000000E+00 0. -1.
         21    1    1    2  506  505  0.11260269273E+03  0.13795017247E+02 -0.49853017771E+03  0.51127488399E+03  0.00000000000E+00 0.  1.
<scales pt_clust_3="66.02443" pt_clust_4="36.71377" pt_clust_5="14000.00000" pt_clust_6="110.13009"></scales>
<clustering>
<clus scale="   36.714">  2  4  1 -1</clus>
<clus scale="   66.024">  1  3  2 -1</clus>
<clus scale="  110.130">  2  6  1 -1</clus>
<clus scale="   66.024">  1  3  2 -1</clus>
</clustering>
</event>
<event>
 6    0  0.3446372E+002  0.1098457E+03  0.7546771E-02  0.1260856E+00
         21   -1    0    0  505  501  0.00000000000E+00  0.00000000000E+00  0.96155850985E+02  0.96155850985E+02  0.00000000000E+00 0.  1.
         21   -1    0    0  503  502 -0.00000000000E+00 -0.00000000000E+00 -0.82063322658E+03  0.82063322658E+03  0.00000000000E+00 0. -1.
         21    1    1    2  503  501 -0.50324080392E+02  0.80619623864E+02 -0.53381472415E+03  0.54220862824E+03  0.00000000000E+00 0. -1.
         21    1    1    2  504  506  0.83624449811E+02 -0.80331025540E+01 -0.18593910781E+03  0.20403659269E+03  0.00000000000E+00 0.  1.
         21    1    1    2  505  504 -0.55105905296E+02 -0.37785171306E+02  0.62680152458E+02  0.91614308278E+02  0.00000000000E+00 0.  1.
         21    1    1    2  506  502  0.21805535877E+02 -0.34801350004E+02 -0.67403696095E+02  0.78929548360E+02  0.00000000000E+00 0.  1.
<scales pt_clust_3="95.54626" pt_clust_4="37.89145" pt_clust_5="66.81602" pt_clust_6="37.89145"></scales>
<clustering>
<clus scale="   37.891">  4  6 -1 -1</clus>
<clus scale="   66.816">  1  5  2 -1</clus>
<clus scale="   95.546">  2  3  1 -1</clus>
<clus scale="   66.816">  1  3  2 -1</clus>
</clustering>
</event>
<event>
 6    0  0.3446372E+002  0.1041662E+03  0.7546771E-02  0.1271771E+00
         21   -1    0    0  505  501  0.00000000000E+00  0.00000000000E+00  0.13937786789E+04  0.13937786789E+04  0.00000000000E+00 0.  1.
         21   -1    0    0  504  502 -0.00000000000E+00 -0.00000000000E+00 -0.39129091344E+02  0.39129091344E+02  0.00000000000E+00 0.  1.
         21    1    1    2  503  501 -0.31869599275E+02  0.70049201501E+02  0.80088472433E+03  0.80457374034E+03  0.00000000000E+00 0.  1.
         21    1    1    2  504  503 -0.44791645776E+02 -0.80077009012E+02  0.64027086121E+02  0.11188425564E+03  0.00000000000E+00 0.  1.
         21    1    1    2  505  506  0.53895007627E+02  0.47955504485E+02  0.45367972952E+03  0.45937968962E+03  0.00000000000E+00 0. -1.
         21    1    1    2  506  502  0.22766237425E+02 -0.37927696974E+02  0.36058047573E+02  0.57070084624E+02  0.00000000000E+00 0.  1.
<scales pt_clust_3="104.16621" pt_clust_4="14000.00000" pt_clust_5="71.45587" pt_clust_6="44.23587"></scales>
<clustering>
<clus scale="   44.236">  2  6  1 -1</clus>
<clus scale="   71.456">  1  5  2 -1</clus>
<clus scale="  104.166">  1  3  2 -1</clus>
<clus scale="   71.456">  1  3  2 -1</clus>
</clustering>
</event>
<event>
 6    0  0.3446372E+002  0.9318501E+02  0.7546771E-02  0.1295317E+00
         21   -1    0    0  506  501  0.00000000000E+00  0.00000000000E+00  0.23827827345E+02  0.23827827345E+02  0.00000000000E+00 0. -1.
         21   -1    0    0  504  502 -0.00000000000E+00 -0.00000000000E+00 -0.18230133162E+04  0.18230133162E+04  0.00000000000E+00 0. -1.
         21    1    1    2  503  501 -0.57926249314E+02 -0.46913629779E+02 -0.26573207202E+03  0.27598890036E+03  0.00000000000E+00 0. -1.
         21    1    1    2  504  503 -0.20395000095E+02 -0.26112961771E+02 -0.62967809703E+03  0.63054924366E+03  0.00000000000E+00 0. -1.
         21    1    1    2  505  502 -0.22902278022E+02  0.40285585617E+02 -0.76018193187E+03  0.76159307526E+03  0.00000000000E+00 0. -1.
         21    1    1    2  506  505  0.10122352743E+03  0.32741005933E+02 -0.14359338797E+03  0.17870992430E+03  0.00000000000E+00 0. -1.
<scales pt_clust_3="93.18501" pt_clust_4="33.13371" pt_clust_5="42.98797" pt_clust_6="14000.00000"></scales>
<clustering>
<clus scale="   33.134">  2  4  1 -1</clus>
<clus scale="   42.988">  2  5  1 -1</clus>
<clus scale="   93.185">  2  3  1 -1</clus>
<clus scale="   93.185">  1  3  2 -1</clus>
</clustering>
</event>
<event>
 6    0  0.3446372E+002  0.9446649E+02  0.7546771E-02  0.1292382E+00
         21   -1    0    0  505  501  0.00000000000E+00  0.00000000000E+00  0.41774754038E+03  0.41774754038E+03  0.00000000000E+00 0. -1.
         21   -1    0    0  504  502 -0.00000000000E+00 -0.00000000000E+00 -0.17756824036E+03  0.17756824036E+03  0.00000000000E+00 0.  1.
         21    1    1    2  503  502  0.11193863114E+02 -0.74818468160E+02  0.37801377957E+02  0.84569793216E+02  0.00000000000E+00 0. -1.
         21    1    1    2  504  506  0.68032534038E+01  0.10020237793E+03 -0.12193099346E+03  0.15796824986E+03  0.00000000000E+00 0.  1.
         21    1    1    2  505  503 -0.35559188614E+02 -0.50217808014E+02  0.57424432542E+02  0.84165608115E+02  0.00000000000E+00 0. -1.
         21    1    1    2  506  501  0.17562072096E+02  0.24833898246E+02  0.26688448298E+03  0.26861212954E+03  0.00000000000E+00 0. -1.
<scales pt_clust_3="14000.00000" pt_clust_4="94.46649" pt_clust_5="47.17725" pt_clust_6="30.41626"></scales>
<clustering>
<clus scale="   30.416">  1  6  2 -1</clus>
<clus scale="   47.177">  1  5  2 -1</clus>
<clus scale="   94.466">  2  4  1 -1</clus>
<clus scale="   30.416">  1  3  2 -1</clus>
</clustering>
</event>
<event>
 6    0  0.3446372E+002  0.8259133E+02  0.7546771E-02  0.1321854E+00
         21   -1    0    0  506  501  0.00000000000E+00  0.00000000000E+00  0.54079373661E+03  0.54079373661E+03  0.00000000000E+00 0. -1.
         21   -1    0    0  504  502 -0.00000000000E+00 -0.00000000000E+00 -0.16481038430E+04  0.16481038430E+04  0.00000000000E+00 0.  1.
         21    1    1    2  503  502  0.85409937063E+01 -0.92529015609E+02 -0.11620625809E+04  0.11657718513E+04  0.00000000000E+00 0.  1.
         21    1    1    2  504  501  0.50175028441E+02  0.61991475693E+02 -0.47028040432E+03  0.47699490062E+03  0.00000000000E+00 0.  1.
         21    1    1    2  505  503 -0.23379343651E+02  0.49640266715E+02  0.68188529042E+02  0.87523855502E+02  0.00000000000E+00 0. -1.
         21    1    1    2  506  505 -0.35336678497E+02 -0.19102726800E+02  0.45684434979E+03  0.45860697220E+03  0.00000000000E+00 0. -1.
<scales pt_clust_3="14000.00000" pt_clust_4="82.59133" pt_clust_5="64.80206" pt_clust_6="40.16958"></scales>
<clustering>
<clus scale="   40.170">  1  6  2 -1</clus>
<clus scale="   64.802">  1  5  2 -1</clus>
<clus scale="   82.591">  1  4  2 -1</clus>
<clus scale="   40.170">  1  3  2 -1</clus>
</clustering>
</event>
<event>
 6    0  0.3446372E+002  0.8629222E+02  0.7546771E-02  0.1312087E+00
         21   -1    0    0  503  501  0.00000000000E+00  0.00000000000E+00  0.93898070495E+02  0.93898070495E+02  0.00000000000E+00 0.  1.
         21   -1    0    0  506  502 -0.00000000000E+00 -0.00000000000E+00 -0.16552239079E+04  0.16552239079E+04  0.00000000000E+00 0. -1.
         21    1    1    2  503  502 -0.98259013166E+02  0.26168456157E+02  0.77929809976E+01  0.10198211764E+03  0.00000000000E+00 0.  1.
         21    1    1    2  504  501  0.49280259652E+02 -0.64129801618E+02 -0.94167142439E+01  0.81423890561E+02  0.00000000000E+00 0. -1.
         21    1    1    2  505  504  0.35084480120E+02  0.72998906894E+02 -0.62124981014E+03  0.62650705324E+03  0.00000000000E+00 0.  1.
         21    1    1    2  506  505  0.13894273394E+02 -0.35037561433E+02 -0.93845229406E+03  0.93920891700E+03  0.00000000000E+00 0. -1.
<scales pt_clust_3="86.29222" pt_clust_4="14000.00000" pt_clust_5="63.49362" pt_clust_6="37.69193"></scales>
<clustering>
<clus scale="   37.692">  2  6  1 -1</clus>
<clus scale="   63.494">  2  5  1 -1</clus>
<clus scale="   86.292">  2  3  1 -1</clus>
<clus scale="   86.292">  1  3  2 -1</clus>
</clustering>
</event>
<event>
 6    0  0.3446372E+002  0.1164567E+03  0.7546771E-02  0.1249060E+00
         21   -1    0    0  506  501  0.00000000000E+00  0.00000000000E+00  0.13950872920E+03  0.13950872920E+03  0.00000000000E+00 0. -1.
         21   -1    0    0  504  502 -0.00000000000E+00 -0.00000000000E+00 -0.35461484958E+03  0.35461484958E+03  0.00000000000E+00 0. -1.
         21    1    1    2  503  505 -0.26385179727E+02 -0.66388619165E+02 -0.17029919864E+03  0.18467659170E+03  0.00000000000E+00 0. -1.
         21    1    1    2  504  503 -0.52156533824E+01 -0.44662109394E+02 -0.52342812599E+02  0.69004906249E+02  0.00000000000E+00 0. -1.
         21    1    1    2  505  501 -0.68039249142E+02  0.94662613979E+02  0.54957678401E+02  0.12888249037E+03  0.00000000000E+00 0. -1.
         21    1    1    2  506  502  0.99640082251E+02  0.16388114579E+02 -0.47421787537E+02  0.11155959046E+03  0.00000000000E+00 0. -1.
<scales pt_clust_3="30.25150" pt_clust_4="30.25150" pt_clust_5="110.03727" pt_clust_6="100.97879"></scales>
<clustering>
<clus scale="   30.251">  3  4 -1 -1</clus>
<clus scale="  100.979">  1  6  2 -1</clus>
<clus scale="  110.037">  1  5  2 -1</clus>
<clus scale="  100.979">  1  3  2 -1</clus>
</clustering>
</event>
<event>
 6    0  0.3446372E+002  0.1145497E+03  0.7546771E-02  0.1252369E+00
         21   -1    0    0  504  501  0.00000000000E+00  0.00000000000E+00  0.58640045632E+03  0.58640045632E+03  0.00000000000E+00 0. -1.
         21   -1    0    0  503  502 -0.00000000000E+00 -0.00000000000E+00 -0.83286244474E+03  0.83286244474E+03  0.00000000000E+00 0. -1.
         21    1    1    2  503  505 -0.13941180705E+03 -0.27865990202E+02 -0.64609752576E+03  0.66155436522E+03  0.00000000000E+00 0. -1.
         21    1    1    2  504  506  0.84961530683E+02 -0.49175299027E+02  0.37753518593E+02  0.10517604241E+03  0.00000000000E+00 0. -1.
         21    1    1    2  505  501  0.25402044901E+02  0.91612498745E+02  0.50086139293E+03  0.50980412782E+03  0.00000000000E+00 0. -1.
         21    1    1    2  506  502  0.29048231462E+02 -0.14571209516E+02 -0.13897937419E+03  0.14272836561E+03  0.00000000000E+00 0.  1.
<scales pt_clust_3="114.54968" pt_clust_4="14000.00000" pt_clust_5="95.02864" pt_clust_6="32.49800"></scales>
<clustering>
<clus scale="   32.498">  2  6  1 -1</clus>
<clus scale="   95.029">  1  5  2 -1</clus>
<clus scale="  114.550">  2  3  1 -1</clus>
<clus scale="   95.029">  1  3  2 -1</clus>
</clustering>
</event>
<event>
 6    0  0.3446372E+002  0.1504910E+03  0.7546771E-02  0.1199871E+00
         21   -1    0    0  505  501  0.00000000000E+00  0.00000000000E+00  0.25434052371E+03  0.25434052371E+03  0.00000000000E+00 0. -1.
         21   -1    0    0  506  502 -0.00000000000E+00 -0.00000000000E+00 -0.51449208852E+03  0.51449208852E+03  0.00000000000E+00 0. -1.
         21    1    1    2  503  501 -0.10861481948E+03  0.11666554860E+03  0.18662953062E+03  0.24543555354E+03  0.00000000000E+00 0. -1.
         21    1    1    2  504  503  0.36408725039E+02 -0.11753884318E+03 -0.26680436718E+03  0.29381209175E+03  0.00000000000E+00 0. -1.
         21    1    1    2  505  502  0.30462985399E+02  0.17150184137E+02  0.83995236607E+01  0.35953779955E+02  0.00000000000E+00 0. -1.
         21    1    1    2  506  504  0.41743109043E+02 -0.16276889556E+02 -0.18837625192E+03  0.19363118698E+03  0.00000000000E+00 0. -1.
<scales pt_clust_3="150.49097" pt_clust_4="14000.00000" pt_clust_5="34.95887" pt_clust_6="45.05602"></scales>
<clustering>
<clus scale="   34.959">  1  5  2 -1</clus>
<clus scale="   45.056">  2  6  1 -1</clus>
<clus scale="  150.491">  1  3  2 -1</clus>
<clus scale="   34.959">  1  3  2 -1</clus>
</clustering>
</event>
<event>
 6    0  0.3446372E+002  0.9752148E+02  0.7546771E-02  0.1285596E+00
         21   -1    0    0  506  501  0.00000000000E+00  0.00000000000E+00  0.11232452405E+04  0.11232452405E+04  0.00000000000E+00 0. -1.
         21   -1    0    0  503  502 -0.00000000000E+00 -0.00000000000E+00 -0.25300517267E+02  0.25300517267E+02  0.00000000000E+00 0. -1.
         21    1    1    2  503  501 -0.33482818703E+02  0.15668125232E+02  0.13851925358E+03  0.14336726582E+03  0.00000000000E+00 0. -1.
         21    1    1    2  504  502 -0.34665232082E+02  0.14724700365E+02  0.41845710680E+02  0.56298833189E+02  0.00000000000E+00 0.  1.
         21    1    1    2  505  504 -0.24865164759E+02 -0.93240690934E+02  0.19433510562E+03  0.21697519706E+03  0.00000000000E+00 0. -1.
         21    1    1    2  506  505  0.93013215545E+02  0.62847865337E+02  0.72324465339E+03  0.73190446173E+03  0.00000000000E+00 0. -1.
<scales pt_clust_3="36.96741" pt_clust_4="39.50853" pt_clust_5="14000.00000" pt_clust_6="97.52148"></scales>
<clustering>
<clus scale="   36.967">  1  3  2 -1</clus>
<clus scale="   39.509">  2  4  1 -1</clus>
<clus scale="   97.521">  1  6  2 -1</clus>
<clus scale="   36.967">  1  3  2 -1</clus>
</clustering>
</event>
<event>
 6    0  0.3446372E+002  0.7843016E+02  0.7546771E-02  0.1333566E+00
         21   -1    0    0  505  501  0.00000000000E+00  0.00000000000E+00  0.13268804723E+03  0.13268804723E+03  0.00000000000E+00 0.  1.
         21   -1    0    0  503  502 -0.00000000000E+00 -0.00000000000E+00 -0.35266519821E+03  0.35266519821E+03  0.00000000000E+00 0.  1.
         21    1    1    2  503  501 -0.11708302816E+02 -0.11740494709E+03 -0.24006207287E+03  0.26748982184E+03  0.00000000000E+00 0.  1.
         21    1    1    2  504  506 -0.19371573323E+02  0.66342122452E+02 -0.17575212932E+01  0.69134824405E+02  0.00000000000E+00 0.  1.
         21    1    1    2  505  504  0.31785358013E+02  0.87813764312E+01  0.74335394781E+02  0.81321414604E+02  0.00000000000E+00 0.  1.
         21    1    1    2  506  502 -0.70548187394E+00  0.42281448207E+02 -0.52492951594E+02  0.67407184589E+02  0.00000000000E+00 0.  1.
<scales pt_clust_3="14000.00000" pt_clust_4="78.43016" pt_clust_5="32.97608" pt_clust_6="43.62516"></scales>
<clustering>
<clus scale="   32.976">  1  5  2 -1</clus>
<clus scale="   43.625">  2  6  1 -1</clus>
<clus scale="   78.430">  1  4  2 -1</clus>
<clus scale="   32.976">  1  3  2 -1</clus>
</clustering>
</event>
<event>
 6    0  0.3446372E+002  0.2227640E+03  0.7546771E-02  0.1131839E+00
         21   -1    0    0  506  501  0.00000000000E+00  0.00000000000E+00  0.20274145503E+03  0.20274145503E+03  0.00000000000E+00 0. -1.
         21   -1    0    0  503  502 -0.00000000000E+00 -0.00000000000E+00 -0.11308970077E+04  0.11308970077E+04  0.00000000000E+00 0. -1.
         21    1    1    2  503  501 -0.20869143816E+03 -0.55094923336E+02 -0.63636823907E+03  0.67197626643E+03  0.00000000000E+00 0. -1.
         21    1    1    2  504  505  0.20614131130E+03 -0.16853301147E+02 -0.14675316672E+03  0.25360356055E+03  0.00000000000E+00 0. -1.
         21    1    1    2  505  502 -0.22749843452E+02 -0.26667329358E+02 -0.25546491389E+03  0.25785853498E+03  0.00000000000E+00 0. -1.
         21    1    1    2  506  504  0.25299970320E+02  0.98615553841E+02  0.11043076703E+03  0.15020010075E+03  0.00000000000E+00 0. -1.
<scales pt_clust_3="222.76404" pt_clust_4="14000.00000" pt_clust_5="35.05284" pt_clust_6="101.09371"></scales>
<clustering>
<clus scale="   35.053">  2  5  1 -1</clus>
<clus scale="  101.094">  1  6  2 -1</clus>
<clus scale="  222.764">  2  3  1 -1</clus>
<clus scale="  101.094">  1  3  2 -1</clus>
</clustering>
</event>
<event>
 6    0  0.3446372E+002  0.1749015E+03  0.7546771E-02  0.1172831E+00
         21   -1    0    0  504  501  0.00000000000E+00  0.00000000000E+00  0.13381594482E+03  0.13381594482E+03  0.00000000000E+00 0. -1.
         21   -1    0    0  505  502 -0.00000000000E+00 -0.00000000000E+00 -0.34909053455E+03  0.34909053455E+03  0.00000000000E+00 0.  1.
         21    1    1    2  503  502 -0.17041922884E+02  0.48220841550E+02 -0.92684294333E+02  0.10585865629E+03  0.00000000000E+00 0.  1.
         21    1    1    2  504  503  0.16451877846E+03 -0.54187085288E+02  0.30200020603E+01  0.17323910958E+03  0.00000000000E+00 0. -1.
         21    1    1    2  505  506 -0.11426362325E+03 -0.16473121703E+02 -0.11360135577E+03  0.16196545116E+03  0.00000000000E+00 0. -1.
         21    1    1    2  506  501 -0.33213232324E+02  0.22439365441E+02 -0.12008941687E+02  0.41843262340E+02  0.00000000000E+00 0.  1.
<scales pt_clust_3="51.14369" pt_clust_4="163.14261" pt_clust_5="37.15031" pt_clust_6="37.15031"></scales>
<clustering>
<clus scale="   37.150">  5  6 -1 -1</clus>
<clus scale="   51.144">  2  3  1 -1</clus>
<clus scale="  163.143">  1  4  2 -1</clus>
<clus scale="  163.143">  1  3  2 -1</clus>
</clustering>
</event>
<event>
 6    0  0.3446372E+002  0.1347740E+03  0.7546771E-02  0.1220539E+00
         21   -1    0    0  503  501  0.00000000000E+00  0.00000000000E+00  0.62031999429E+03  0.62031999429E+03  0.00000000000E+00 0.  1.
         21   -1    0    0  504  502 -0.00000000000E+00 -0.00000000000E+00 -0.32531010611E+03  0.32531010611E+03  0.00000000000E+00 0.  1.
         21    1    1    2  503  505 -0.43289823051E+01 -0.30276746568E+02  0.17999990713E+03  0.18257981278E+03  0.00000000000E+00 0. -1.
         21    1    1    2  504  501  0.83779796270E+02 -0.33971589717E+01 -0.51924455346E+02  0.98624256727E+02  0.00000000000E+00 0. -1.
         21    1    1    2  505  506  0.12819554365E+03  0.64835943855E+02  0.35473618756E+03  0.38272125599E+03  0.00000000000E+00 0.  1.
         21    1    1    2  506  502 -0.20764635761E+03 -0.31162038316E+02 -0.18780175116E+03  0.28170477490E+03  0.00000000000E+00 0.  1.
<scales pt_clust_3="30.58466" pt_clust_4="83.69948" pt_clust_5="134.77402" pt_clust_6="14000.00000"></scales>
<clustering>
<clus scale="   30.585">  1  3  2 -1</clus>
<clus scale="   83.699">  2  4  1 -1</clus>
<clus scale="  134.774">  1  5  2 -1</clus>
<clus scale="   30.585">  1  3  2 -1</clus>
</clustering>
</event>
<event>
 6    0  0.3446372E+002  0.1076087E+03  0.7546771E-02  0.1265063E+00
         21   -1    0    0  505  501  0.00000000000E+00  0.00000000000E+00  0.14915009066E+04  0.14915009066E+04  0.00000000000E+00 0.  1.
         21   -1    0    0  504  502 -0.00000000000E+00 -0.00000000000E+00 -0.52396931356E+02  0.52396931356E+02  0.00000000000E+00 0.  1.
         21    1    1    2  503  502  0.49791406245E+01 -0.91038830537E+02  0.79970747655E+02  0.12127728966E+03  0.00000000000E+00 0.  1.
         21    1    1    2  504  506 -0.46924994804E+02 -0.15089562465E+02 -0.17692501818E+01  0.49323222512E+02  0.00000000000E+00 0.  1.
         21    1    1    2  505  503  0.59206077608E+02 -0.15289914630E+02  0.41631283454E+03  0.42077965411E+03  0.00000000000E+00 0.  1.
         21    1    1    2  506  501 -0.17260223428E+02  0.12141830763E+03  0.94458964324E+03  0.95251767168E+03  0.00000000000E+00 0.  1.
<scales pt_clust_3="14000.00000" pt_clust_4="49.29148" pt_clust_5="57.72478" pt_clust_6="107.60871"></scales>
<clustering>
<clus scale="   49.291">  2  4  1 -1</clus>
<clus scale="   57.725">  1  5  2 -1</clus>
<clus scale="  107.609">  1  6  2 -1</clus>
<clus scale="   57.725">  1  3  2 -1</clus>
</clustering>
</event>
<event>
 6    0  0.3446372E+002  0.1008214E+03  0.7546771E-02  0.1278578E+00
         21   -1    0    0  505  501  0.00000000000E+00  0.00000000000E+00  0.59903840493E+03  0.59903840493E+03  0.00000000000E+00 0. -1.
         21   -1    0    0  503  502 -0.00000000000E+00 -0.00000000000E+00 -0.10207723379E+03  0.10207723379E+03  0.00000000000E+00 0. -1.
         21    1    1    2  503  501  0.11733932178E+02 -0.10954100175E+03  0.41027193023E+03  0.42480580618E+03  0.00000000000E+00 0. -1.
         21    1    1    2  504  502 -0.10111777298E+02  0.32357308843E+02 -0.48268651892E+02  0.58983948928E+02  0.00000000000E+00 0. -1.
         21    1    1    2  505  506  0.36215161814E+02  0.12779931633E+02  0.13732338054E+03  0.14259234005E+03  0.00000000000E+00 0. -1.
         21    1    1    2  506  504 -0.37837316694E+02  0.64403761276E+02 -0.23654877389E+01  0.74733543562E+02  0.00000000000E+00 0. -1.
<scales pt_clust_3="100.82135" pt_clust_4="33.90049" pt_clust_5="38.51505" pt_clust_6="14000.00000"></scales>
<clustering>
<clus scale="   33.900">  2  4  1 -1</clus>
<clus scale="   38.515">  1  5  2 -1</clus>
<clus scale="  100.821">  1  3  2 -1</clus>
<clus scale="   38.515">  1  3  2 -1</clus>
</clustering>
</event>
<event>
 6    0  0.3446372E+002  0.2986445E+03  0.7546771E-02  0.1085920E+00
         21   -1    0    0  505  501  0.00000000000E+00  0.00000000000E+00  0.10048815411E+04  0.10048815411E+04  0.00000000000E+00 0. -1.
         21   -1    0    0  504  502 -0.00000000000E+00 -0.00000000000E+00 -0.45414868605E+03  0.45414868605E+03  0.00000000000E+00 0.  1.
         21    1    1    2  503  502  0.10245140570E+03 -0.98129918344E+02 -0.22446377485E+01  0.14188308498E+03  0.00000000000E+00 0. -1.
         21    1    1    2  504  506 -0.25783628102E+03  0.18062119588E+03 -0.28518940244E+03  0.42477824742E+03  0.00000000000E+00 0.  1.
         21    1    1    2  505  503  0.60813158515E+02 -0.68359591056E+02  0.62438720427E+02  0.11076943507E+03  0.00000000000E+00 0. -1.
         21    1    1    2  506  501  0.94571716808E+02 -0.14131686482E+02  0.77572817485E+03  0.78159945973E+03  0.00000000000E+00 0. -1.
<scales pt_clust_3="61.34984" pt_clust_4="288.70853" pt_clust_5="61.34984" pt_clust_6="95.62172"></scales>
<clustering>
<clus scale="   61.350">  3  5 -1 -1</clus>
<clus scale="   95.622">  1  6  2 -1</clus>
<clus scale="  288.709">  2  4  1 -1</clus>
<clus scale="   95.622">  1  3  2 -1</clus>
</clustering>
</event>
<event>
 6    0  0.3446372E+002  0.1058105E+03  0.7546771E-02  0.1268531E+00
         21   -1    0    0  505  501  0.00000000000E+00  0.00000000000E+00  0.16375408755E+03  0.16375408755E+03  0.00000000000E+00 0.  1.
         21   -1    0    0  506  502 -0.00000000000E+00 -0.00000000000E+00 -0.59495189828E+03  0.59495189828E+03  0.00000000000E+00 0.  1.
         21    1    1    2  503  501  0.98796326934E+02 -0.31547716836E+02  0.74612476575E+02  0.12776147429E+03  0.00000000000E+00 0.  1.
         21    1    1    2  504  502  0.84054908031E+01  0.74536457980E+02 -0.37183970849E+03  0.37932980987E+03  0.00000000000E+00 0.  1.
         21    1    1    2  505  504 -0.13128935402E+03 -0.75194872880E+02 -0.51435177850E+02  0.15980219306E+03  0.00000000000E+00 0.  1.
         21    1    1    2  506  503  0.24087536282E+02  0.32206131737E+02 -0.82535400953E+02  0.91812508603E+02  0.00000000000E+00 0.  1.
<scales pt_clust_3="105.81046" pt_clust_4="101.79356" pt_clust_5="14000.00000" pt_clust_6="40.21746"></scales>
<clustering>
<clus scale="   40.217">  2  6  1 -1</clus>
<clus scale="  101.794">  2  4  1 -1</clus>
<clus scale="  105.810">  1  3  2 -1</clus>
<clus scale="  105.810">  1  3  2 -1</clus>
</clustering>
</event>
<event>
 6    0  0.3446372E+002  0.9019590E+02  0.7546771E-02  0.1302378E+00
         21   -1    0    0  503  501  0.00000000000E+00  0.00000000000E+00  0.51114414542E+03  0.51114414542E+03  0.00000000000E+00 0.  1.
         21   -1    0    0  505  502 -0.00000000000E+00 -0.00000000000E+00 -0.64371315474E+02  0.64371315474E+02  0.00000000000E+00 0.  1.
         21    1    1    2  503  502 -0.29485974286E+02  0.24030438127E+02  0.25480335109E+02  0.45783535397E+02  0.00000000000E+00 0. -1.
         21    1    1    2  504  501  0.31564606335E+02 -0.95419245367E+02  0.25624890198E+03  0.27525380384E+03  0.00000000000E+00 0.  1.
         21    1    1    2  505  506 -0.57485573922E+02 -0.11112932268E+02 -0.36758541548E+01  0.58665154704E+02  0.00000000000E+00 0.  1.
         21    1    1    2  506  504  0.55406941872E+02  0.82501739508E+02  0.16871944701E+03  0.19581296696E+03  0.00000000000E+00 0.  1.
<scales pt_clust_3="38.03794" pt_clust_4="14000.00000" pt_clust_5="74.48586" pt_clust_6="90.19590"></scales>
<clustering>
<clus scale="   38.038">  2  3  1 -1</clus>
<clus scale="   74.486">  2  5  1 -1</clus>
<clus scale="   90.196">  2  6  1 -1</clus>
<clus scale="   90.196">  1  3  2 -1</clus>
</clustering>
</event>
<event>
 6    0  0.3446372E+002  0.1108090E+03  0.7546771E-02  0.1259079E+00
         21   -1    0    0  506  501  0.00000000000E+00  0.00000000000E+00  0.22856527318E+03  0.22856527318E+03  0.00000000000E+00 0.  1.
         21   -1    0    0  504  502 -0.00000000000E+00 -0.00000000000E+00 -0.60100726135E+03  0.60100726135E+03  0.00000000000E+00 0.  1.
         21    1    1    2  503  502 -0.52680190063E+02  0.10777778401E+03 -0.39763462934E+03  0.41533667259E+03  0.00000000000E+00 0.  1.
         21    1    1    2  504  505  0.76653688885E+02 -0.10200633439E+02 -0.78548168555E+02  0.11022547675E+03  0.00000000000E+00 0.  1.
         21    1    1    2  505  501  0.52570114468E+02 -0.15067039697E+03 -0.64638640826E+01  0.15970900725E+03  0.00000000000E+00 0.  1.
         21    1    1    2  506  503 -0.76543613290E+02  0.53093246390E+02  0.11020467380E+03  0.14430137794E+03  0.00000000000E+00 0.  1.
<scales pt_clust_3="14000.00000" pt_clust_4="77.32943" pt_clust_5="110.80901" pt_clust_6="90.84742"></scales>
<clustering>
<clus scale="   77.329">  2  4  1 -1</clus>
<clus scale="   90.847">  1  6  2 -1</clus>
<clus scale="  110.809">  1  5  2 -1</clus>
<clus scale="   90.847">  1  3  2 -1</clus>
</clustering>
</event>
<event>
 6    0  0.3446372E+002  0.1176292E+03  0.7546771E-02  0.1247060E+00
         21   -1    0    0  502  501  0.00000000000E+00  0.00000000000E+00  0.15863485262E+03  0.15863485262E+03  0.00000000000E+00 0.  1.
         21   -1    0    0  506  502 -0.00000000000E+00 -0.00000000000E+00 -0.11142356054E+04  0.11142356054E+04  0.00000000000E+00 0.  1.
         21    1    1    2  503  501 -0.80247120077E+02  0.57815121701E+01  0.22918485598E+02  0.83655741857E+02  0.00000000000E+00 0.  1.
         21    1    1    2  504  505  0.34565920731E+02 -0.72123121371E+02 -0.80506796168E+03  0.80903088348E+03  0.00000000000E+00 0.  1.
         21    1    1    2  505  503 -0.80438147961E+01  0.82333928484E+02  0.83291702638E+02  0.11739287229E+03  0.00000000000E+00 0.  1.
         21    1    1    2  506  504  0.53725014142E+02 -0.15992319283E+02 -0.25674297932E+03  0.26279096037E+03  0.00000000000E+00 0. -1.
<scales pt_clust_3="78.51095" pt_clust_4="117.62916" pt_clust_5="14000.00000" pt_clust_6="56.05472"></scales>
<clustering>
<clus scale="   56.055">  2  6  1 -1</clus>
<clus scale="   78.511">  1  3  2 -1</clus>
<clus scale="  117.629">  2  4  1 -1</clus>
<clus scale="   78.511">  1  3  2 -1</clus>
</clustering>
</event>
<event>
 6    0  0.3446372E+002  0.1207157E+03  0.7546771E-02  0.1241921E+00
         21   -1    0    0  504  501  0.00000000000E+00  0.00000000000E+00  0.63535535612E+03  0.63535535612E+03  0.00000000000E+00 0. -1.
         21   -1    0    0  506  502 -0.00000000000E+00 -0.00000000000E+00 -0.43087381463E+03  0.43087381463E+03  0.00000000000E+00 0. -1.
         21    1    1    2  503  505 -0.14002504315E+02  0.15966394145E+03 -0.32003546172E+03  0.35792644647E+03  0.00000000000E+00 0. -1.
         21    1    1    2  504  502 -0.19143488721E+02 -0.96853182456E+02  0.48726864894E+03  0.49716973797E+03  0.00000000000E+00 0. -1.
         21    1    1    2  505  501  0.36892605174E+02 -0.22456893293E+02  0.11533454987E+03  0.12315613979E+03  0.00000000000E+00 0.  1.
         21    1    1    2  506  503 -0.37466121382E+01 -0.40353865703E+02 -0.78086195607E+02  0.87976846523E+02  0.00000000000E+00 0. -1.
<scales pt_clust_3="120.71567" pt_clust_4="14000.00000" pt_clust_5="43.39186" pt_clust_6="40.52742"></scales>
<clustering>
<clus scale="   40.527">  2  6  1 -1</clus>
<clus scale="   43.392">  1  5  2 -1</clus>
<clus scale="  120.716">  2  3  1 -1</clus>
<clus scale="   43.392">  1  3  2 -1</clus>
</clustering>
</event>
<event>
 6    0  0.3446372E+002  0.8468924E+02  0.7546771E-02  0.1316247E+00
         21   -1    0    0  505  501  0.00000000000E+00  0.00000000000E+00  0.11705004289E+04  0.11705004289E+04  0.00000000000E+00 0. -1.
         21   -1    0    0  504  502 -0.00000000000E+00 -0.00000000000E+00 -0.89823800645E+03  0.89823800645E+03  0.00000000000E+00 0. -1.
         21    1    1    2  503  501 -0.87518525270E+02  0.10555252375E+02  0.10750995466E+04  0.10787075325E+04  0.00000000000E+00 0. -1.
         21    1    1    2  504  506  0.50885033222E+02  0.79634115457E+01 -0.34884158471E+03  0.35262324619E+03  0.00000000000E+00 0. -1.
         21    1    1    2  505  502 -0.11846471850E+02  0.36605396882E+02 -0.53020112979E+03  0.53159527086E+03  0.00000000000E+00 0. -1.
         21    1    1    2  506  503  0.48479963898E+02 -0.55124060803E+02  0.76205590291E+02  0.10581238571E+03  0.00000000000E+00 0.  1.
<scales pt_clust_3="14000.00000" pt_clust_4="58.37563" pt_clust_5="38.47459" pt_clust_6="84.68924"></scales>
<clustering>
<clus scale="   38.475">  2  5  1 -1</clus>
<clus scale="   58.376">  2  4  1 -1</clus>
<clus scale="   84.689">  2  6  1 -1</clus>
<clus scale="   84.689">  1  3  2 -1</clus>
</clustering>
</event>
<event>
 6    0  0.3446372E+002  0.9956080E+02  0.7546771E-02  0.1281222E+00
         21   -1    0    0  503  501  0.00000000000E+00  0.00000000000E+00  0.54627781338E+02  0.54627781338E+02  0.00000000000E+00 0.  1.
         21   -1    0    0  505  502 -0.00000000000E+00 -0.00000000000E+00 -0.96270310452E+03  0.96270310452E+03  0.00000000000E+00 0. -1.
         21    1    1    2  503  504 -0.23583110288E+02 -0.28716787668E+02  0.10995589556E+01  0.37175610482E+02  0.00000000000E+00 0.  1.
         21    1    1    2  504  506 -0.34310309849E+02 -0.29000112264E+02 -0.87019921950E+02  0.97931969700E+02  0.00000000000E+00 0. -1.
         21    1    1    2  505  501 -0.48442263407E+02  0.52893454774E+02 -0.22004710824E+02  0.75023847811E+02  0.00000000000E+00 0.  1.
         21    1    1    2  506  502  0.10633568354E+03  0.48234451583E+01 -0.80015024936E+03  0.80719945786E+03  0.00000000000E+00 0. -1.
<scales pt_clust_3="37.15935" pt_clust_4="50.55371" pt_clust_5="99.56080" pt_clust_6="14000.00000"></scales>
<clustering>
<clus scale="   37.159">  1  3  2 -1</clus>
<clus scale="   50.554">  1  4  2 -1</clus>
<clus scale="   99.561">  1  5  2 -1</clus>
<clus scale="   37.159">  1  3  2 -1</clus>
</clustering>
</event>
<event>
 6    0  0.3446372E+002  0.1212534E+03  0.7546771E-02  0.1241044E+00
         21   -1    0    0  504  501  0.00000000000E+00  0.00000000000E+00  0.50661690516E+02  0.50661690516E+02  0.00000000000E+00 0.  1.
         21   -1    0    0  503  502 -0.00000000000E+00 -0.00000000000E+00 -0.22873211174E+04  0.22873211174E+04  0.00000000000E+00 0. -1.
         21    1    1    2  503  506 -0.61275742025E+02  0.28291120750E+02 -0.16784656151E+04  0.16798219921E+04  0.00000000000E+00 0. -1.
         21    1    1    2  504  505 -0.30644745352E+01 -0.35940300072E+02 -0.23161369276E+01  0.36144995002E+02  0.00000000000E+00 0. -1.
         21    1    1    2  505  502 -0.62516724124E+02 -0.11048555574E+01 -0.45614797185E+03  0.46041343781E+03  0.00000000000E+00 0. -1.
         21    1    1    2  506  501  0.12685694068E+03  0.87540348785E+01 -0.99729702995E+02  0.16160238298E+03  0.00000000000E+00 0.  1.
<scales pt_clust_3="121.25335" pt_clust_4="36.07071" pt_clust_5="62.80121" pt_clust_6="14000.00000"></scales>
<clustering>
<clus scale="   36.071">  1  4  2 -1</clus>
<clus scale="   62.801">  2  5  1 -1</clus>
<clus scale="  121.253">  2  3  1 -1</clus>
<clus scale="   36.071">  1  3  2 -1</clus>
</clustering>
</event>
<event>
 6    0  0.3446372E+002  0.1946194E+03  0.7546771E-02  0.1154360E+00
         21   -1    0    0  504  501  0.00000000000E+00  0.00000000000E+00  0.29693783755E+03  0.29693783755E+03  0.00000000000E+00 0. -1.
         21   -1    0    0  506  502 -0.00000000000E+00 -0.00000000000E+00 -0.11804301079E+04  0.11804301079E+04  0.00000000000E+00 0.  1.
         21    1    1    2  503  501  0.19896034281E+02 -0.26875436151E+02  0.40400793820E+02  0.52443926147E+02  0.00000000000E+00 0. -1.
         21    1    1    2  504  505 -0.14257457973E+03 -0.12777159863E+03  0.19690277028E+03  0.27463392570E+03  0.00000000000E+00 0. -1.
         21    1    1    2  505  502  0.10013593643E+03  0.10461988976E+03 -0.10537404474E+04  0.10636453627E+04  0.00000000000E+00 0.  1.
         21    1    1    2  506  503  0.22542609014E+02  0.50027145026E+02 -0.67055387004E+02  0.86644730866E+02  0.00000000000E+00 0. -1.
<scales pt_clust_3="33.43862" pt_clust_4="194.61945" pt_clust_5="14000.00000" pt_clust_6="54.24510"></scales>
<clustering>
<clus scale="   33.439">  1  3  2 -1</clus>
<clus scale="   54.245">  2  6  1 -1</clus>
<clus scale="  194.619">  1  4  2 -1</clus>
<clus scale="   33.439">  1  3  2 -1</clus>
</clustering>
</event>
<event>
 6    0  0.3446372E+002  0.1193553E+03  0.7546771E-02  0.1244164E+00
         21   -1    0    0  506  501  0.00000000000E+00  0.00000000000E+00  0.27002035537E+04  0.27002035537E+04  0.00000000000E+00 0.  1.
         21   -1    0    0  504  502 -0.00000000000E+00 -0.00000000000E+00 -0.24968142971E+02  0.24968142971E+02  0.00000000000E+00 0.  1.
         21    1    1    2  503  501 -0.60842072159E+02  0.19252997522E+02  0.47112399454E+03  0.47542639166E+03  0.00000000000E+00 0.  1.
         21    1    1    2  504  503 -0.10049683293E+03  0.73867664146E+02  0.21189282661E+03  0.24587520250E+03  0.00000000000E+00 0.  1.
         21    1    1    2  505  502  0.89899169334E+02 -0.55386851630E+02  0.59348597131E+03  0.60280607340E+03  0.00000000000E+00 0.  1.
         21    1    1    2  506  505  0.71439735758E+02 -0.37733810037E+02  0.13987326183E+04  0.14010640292E+04  0.00000000000E+00 0.  1.
<scales pt_clust_3="63.81564" pt_clust_4="14000.00000" pt_clust_5="119.35531" pt_clust_6="41.93710"></scales>
<clustering>
<clus scale="   63.816">  1  3  2 -1</clus>
<clus scale="   41.937">  1  6  2 -1</clus>
<clus scale="  119.355">  1  5  2 -1</clus>
<clus scale="   63.816">  1  3  2 -1</clus>
</clustering>
</event>
<event>
 6    0  0.3446372E+002  0.3000211E+03  0.7546771E-02  0.1085230E+00
         21   -1    0    0  503  501  0.00000000000E+00  0.00000000000E+00  0.11839315916E+03  0.11839315916E+03  0.00000000000E+00 0.  1.
         21   -1    0    0  506  502 -0.00000000000E+00 -0.00000000000E+00 -0.20731998745E+04  0.20731998745E+04  0.00000000000E+00 0.  1.
         21    1    1    2  503  502 -0.15103587384E+03 -0.99070933045E+02 -0.47970447258E+03  0.51258488661E+03  0.00000000000E+00 0. -1.
         21    1    1    2  504  505  0.99934968707E+02  0.33565131174E+03 -0.10628638852E+04  0.11190748141E+04  0.00000000000E+00 0.  1.
         21    1    1    2  505  501  0.11704110140E+02 -0.26892047125E+03 -0.18395425401E+03  0.32602817917E+03  0.00000000000E+00 0.  1.
         21    1    1    2  506  504  0.39396794994E+02  0.32340092546E+02 -0.22828410349E+03  0.23390515374E+03  0.00000000000E+00 0.  1.
<scales pt_clust_3="180.62914" pt_clust_4="35.50330" pt_clust_5="285.22270" pt_clust_6="35.50330"></scales>
<clustering>
<clus scale="   35.503">  4  6 -1 -1</clus>
<clus scale="  180.629">  2  3  1 -1</clus>
<clus scale="  285.223">  1  5  2 -1</clus>
<clus scale="  285.223">  1  3  2 -1</clus>
</clustering>
</event>
<event>
 6    0  0.3446372E+002  0.1656988E+03  0.7546771E-02  0.1182409E+00
         21   -1    0    0  503  501  0.00000000000E+00  0.00000000000E+00  0.11266790887E+04  0.11266790887E+04  0.00000000000E+00 0.  1.
         21   -1    0    0  506  502 -0.00000000000E+00 -0.00000000000E+00 -0.92016371259E+02  0.92016371259E+02  0.00000000000E+00 0.  1.
         21    1    1    2  503  504  0.61906318471E+02  0.20008141199E+02  0.82404169758E+03  0.82660597465E+03  0.00000000000E+00 0.  1.
         21    1    1    2  504  505 -0.48332255921E+02 -0.55565751574E+02  0.60282167072E+02  0.95170895642E+02  0.00000000000E+00 0. -1.
         21    1    1    2  505  502 -0.53122624014E+02 -0.95631267764E+02  0.27269618807E+02  0.11274300274E+03  0.00000000000E+00 0.  1.
         21    1    1    2  506  501  0.39548561463E+02  0.13118887814E+03  0.12306923393E+03  0.18417558688E+03  0.00000000000E+00 0. -1.
<scales pt_clust_3="65.05934" pt_clust_4="40.27280" pt_clust_5="40.27280" pt_clust_6="158.26198"></scales>
<clustering>
<clus scale="   40.273">  4  5 -1 -1</clus>
<clus scale="   65.059">  1  3  2 -1</clus>
<clus scale="  158.262">  1  6  2 -1</clus>
<clus scale="   65.059">  1  3  2 -1</clus>
</clustering>
</event>
<event>
 6    0  0.3446372E+002  0.1380861E+03  0.7546771E-02  0.1215928E+00
         21   -1    0    0  506  501  0.00000000000E+00  0.00000000000E+00  0.26254043323E+03  0.26254043323E+03  0.00000000000E+00 0.  1.
         21   -1    0    0  503  502 -0.00000000000E+00 -0.00000000000E+00 -0.20159925762E+03  0.20159925762E+03  0.00000000000E+00 0.  1.
         21    1    1    2  503  504  0.72976001007E+02  0.25046813043E+01 -0.86697586065E+02  0.11335008417E+03  0.00000000000E+00 0.  1.
         21    1    1    2  504  505  0.48022166462E+02 -0.28070022599E+02 -0.29554842798E+02  0.62988438409E+02  0.00000000000E+00 0.  1.
         21    1    1    2  505  501  0.29573096242E+02  0.11302438521E+02  0.12320684231E+03  0.12720943020E+03  0.00000000000E+00 0.  1.
         21    1    1    2  506  502 -0.15057126371E+03  0.14262902774E+02  0.53986762155E+02  0.16059173808E+03  0.00000000000E+00 0.  1.
<scales pt_clust_3="41.83328" pt_clust_4="41.83328" pt_clust_5="31.65933" pt_clust_6="129.54256"></scales>
<clustering>
<clus scale="   31.659">  1  5  2 -1</clus>
<clus scale="   41.833">  3  4 -1 -1</clus>
<clus scale="  129.543">  1  6  2 -1</clus>
<clus scale="   31.659">  1  3  2 -1</clus>
</clustering>
</event>
<event>
 6    0  0.3446372E+002  0.1570658E+03  0.7546771E-02  0.1192050E+00
         21   -1    0    0  505  501  0.00000000000E+00  0.00000000000E+00  0.27015974326E+03  0.27015974326E+03  0.00000000000E+00 0. -1.
         21   -1    0    0  504  502 -0.00000000000E+00 -0.00000000000E+00 -0.30749159642E+03  0.30749159642E+03  0.00000000000E+00 0.  1.
         21    1    1    2  503  502 -0.32701595950E+02 -0.10904787178E+02 -0.36983950144E+02  0.50558098553E+02  0.00000000000E+00 0.  1.
         21    1    1    2  504  506  0.16009018549E+02 -0.82419568762E+02 -0.14481380305E+03  0.16739268665E+03  0.00000000000E+00 0.  1.
         21    1    1    2  505  503  0.78931763841E+02 -0.97564978999E+02  0.31766435164E+02  0.12945367848E+03  0.00000000000E+00 0. -1.
         21    1    1    2  506  501 -0.62239186440E+02  0.19088933494E+03  0.11269946488E+03  0.23024687600E+03  0.00000000000E+00 0. -1.
<scales pt_clust_3="34.47185" pt_clust_4="88.93744" pt_clust_5="14000.00000" pt_clust_6="157.06578"></scales>
<clustering>
<clus scale="   34.472">  2  3  1 -1</clus>
<clus scale="   88.937">  2  4  1 -1</clus>
<clus scale="  157.066">  2  6  1 -1</clus>
<clus scale="  157.066">  1  3  2 -1</clus>
</clustering>
</event>
<event>
 6    0  0.3446372E+002  0.1623941E+03  0.7546771E-02  0.1186020E+00
         21   -1    0    0  506  501  0.00000000000E+00  0.00000000000E+00  0.13261291754E+04  0.13261291754E+04  0.00000000000E+00 0. -1.
         21   -1    0    0  504  502 -0.00000000000E+00 -0.00000000000E+00 -0.34365181667E+03  0.34365181667E+03  0.00000000000E+00 0. -1.
         21    1    1    2  503  501 -0.12695441278E+02  0.67207413438E+02  0.56155834453E+03  0.56570821540E+03  0.00000000000E+00 0. -1.
         21    1    1    2  504  503  0.14554142171E+03  0.17104961871E+03 -0.20781955557E+03  0.30598896250E+03  0.00000000000E+00 0. -1.
         21    1    1    2  505  502  0.18120821834E+02 -0.16645118389E+03  0.22165438944E+02  0.16889543359E+03  0.00000000000E+00 0. -1.
         21    1    1    2  506  505 -0.15096680227E+03 -0.71805848250E+02  0.60657313078E+03  0.62918838054E+03  0.00000000000E+00 0. -1.
<scales pt_clust_3="68.39598" pt_clust_4="162.39410" pt_clust_5="158.89319" pt_clust_6="14000.00000"></scales>
<clustering>
<clus scale="   68.396">  1  3  2 -1</clus>
<clus scale="  158.893">  2  5  1 -1</clus>
<clus scale="  162.394">  2  4  1 -1</clus>
<clus scale="   68.396">  1  3  2 -1</clus>
</clustering>
</event>
<event>
 6    0  0.3446372E+002  0.1194511E+03  0.7546771E-02  0.1244005E+00
         21   -1    0    0  506  501  0.00000000000E+00  0.00000000000E+00  0.20664668162E+03  0.20664668162E+03  0.00000000000E+00 0. -1.
         21   -1    0    0  503  502 -0.00000000000E+00 -0.00000000000E+00 -0.13708525352E+03  0.13708525352E+03  0.00000000000E+00 0. -1.
         21    1    1    2  503  501  0.50393269671E+01 -0.13703168615E+03  0.36878263126E+02  0.14199677502E+03  0.00000000000E+00 0. -1.
         21    1    1    2  504  505 -0.58854327406E+01  0.59585256171E+02 -0.56018439065E+01  0.60136692017E+02  0.00000000000E+00 0. -1.
         21    1    1    2  505  502  0.77504603364E+01  0.43534333202E+02 -0.37696745042E+02  0.58106388543E+02  0.00000000000E+00 0. -1.
         21    1    1    2  506  504 -0.69043545629E+01  0.33912096779E+02  0.75981753925E+02  0.83492079561E+02  0.00000000000E+00 0. -1.
<scales pt_clust_3="113.13284" pt_clust_4="32.94348" pt_clust_5="32.94348" pt_clust_6="34.60781"></scales>
<clustering>
<clus scale="   32.943">  4  5 -1 -1</clus>
<clus scale="   34.608">  1  6  2 -1</clus>
<clus scale="  113.133">  1  3  2 -1</clus>
<clus scale="   34.608">  1  3  2 -1</clus>
</clustering>
</event>
<event>
 6    0  0.3446372E+002  0.1516819E+03  0.7546771E-02  0.1198421E+00
         21   -1    0    0  502  501  0.00000000000E+00  0.00000000000E+00  0.20781709431E+03  0.20781709431E+03  0.00000000000E+00 0.  1.
         21   -1    0    0  503  502 -0.00000000000E+00 -0.00000000000E+00 -0.23064262628E+04  0.23064262628E+04  0.00000000000E+00 0.  1.
         21    1    1    2  503  505 -0.45667403435E+02  0.32995797507E+02 -0.38587428789E+03  0.38996564008E+03  0.00000000000E+00 0.  1.
         21    1    1    2  504  506  0.76854903130E+02  0.15198041294E+03 -0.80596136243E+02  0.18841565548E+03  0.00000000000E+00 0.  1.
         21    1    1    2  505  504 -0.86931734862E+02 -0.11107734542E+03 -0.17668180472E+04  0.17724393685E+04  0.00000000000E+00 0.  1.
         21    1    1    2  506  501  0.55744235167E+02 -0.73898865028E+02  0.13467930279E+03  0.16342269306E+03  0.00000000000E+00 0.  1.
<scales pt_clust_3="56.34034" pt_clust_4="14000.00000" pt_clust_5="151.68193" pt_clust_6="92.16273"></scales>
<clustering>
<clus scale="   56.340">  2  3  1 -1</clus>
<clus scale="   92.163">  1  6  2 -1</clus>
<clus scale="  151.682">  2  5  1 -1</clus>
<clus scale="   92.163">  1  3  2 -1</clus>
</clustering>
</event>
<event>
 6    0  0.3446372E+002  0.1075508E+03  0.7546771E-02  0.1265174E+00
         21   -1    0    0  504  501  0.00000000000E+00  0.00000000000E+00  0.73531201443E+03  0.73531201443E+03  0.00000000000E+00 0. -1.
         21   -1    0    0  505  502 -0.00000000000E+00 -0.00000000000E+00 -0.33622825263E+03  0.33622825263E+03  0.00000000000E+00 0. -1.
         21    1    1    2  503  502 -0.30248096522E+02  0.18008140336E+03 -0.11862749054E+03  0.21775385345E+03  0.00000000000E+00 0. -1.
         21    1    1    2  504  503  0.11432345284E+03 -0.10231288120E+03  0.41950408514E+03  0.44667824547E+03  0.00000000000E+00 0. -1.
         21    1    1    2  505  506 -0.79275084308E+01 -0.92415438934E+02 -0.13361863011E+03  0.16265729942E+03  0.00000000000E+00 0. -1.
         21    1    1    2  506  501 -0.76147847891E+02  0.14646916767E+02  0.23182579732E+03  0.24445086871E+03  0.00000000000E+00 0. -1.
<scales pt_clust_3="14000.00000" pt_clust_4="107.55084" pt_clust_5="92.54612" pt_clust_6="77.54371"></scales>
<clustering>
<clus scale="   77.544">  1  6  2 -1</clus>
<clus scale="   92.546">  2  5  1 -1</clus>
<clus scale="  107.551">  1  4  2 -1</clus>
<clus scale="   77.544">  1  3  2 -1</clus>
</clustering>
</event>
<event>
 6    0  0.3446372E+002  0.8864704E+02  0.7546771E-02  0.1306162E+00
         21   -1    0    0  505  501  0.00000000000E+00  0.00000000000E+00  0.39044247667E+03  0.39044247667E+03  0.00000000000E+00 0.  1.
         21   -1    0    0  503  502 -0.00000000000E+00 -0.00000000000E+00 -0.12170107562E+03  0.12170107562E+03  0.00000000000E+00 0. -1.
         21    1    1    2  503  504  0.64597671454E+01 -0.59706126230E+02 -0.13374329677E+02  0.61525789676E+02  0.00000000000E+00 0. -1.
         21    1    1    2  504  501  0.39087004804E+02 -0.16910989652E+02  0.49738613269E+02  0.65480570900E+02  0.00000000000E+00 0.  1.
         21    1    1    2  505  506  0.41035730153E+02 -0.29374277398E+02  0.24269717639E+03  0.24788848047E+03  0.00000000000E+00 0.  1.
         21    1    1    2  506  502 -0.86582502102E+02  0.10599139328E+03 -0.10320058940E+02  0.13724871124E+03  0.00000000000E+00 0. -1.
<scales pt_clust_3="61.63313" pt_clust_4="42.58844" pt_clust_5="14000.00000" pt_clust_6="88.64704"></scales>
<clustering>
<clus scale="   42.588">  1  4  2 -1</clus>
<clus scale="   61.633">  2  3  1 -1</clus>
<clus scale="   88.647">  2  6  1 -1</clus>
<clus scale="   42.588">  1  3  2 -1</clus>
</clustering>
</event>
<event>
 6    0  0.3446372E+002  0.1595849E+03  0.7546771E-02  0.1189166E+00
         21   -1    0    0  506  501  0.00000000000E+00  0.00000000000E+00  0.28385253342E+03  0.28385253342E+03  0.00000000000E+00 0.  1.
         21   -1    0    0  503  502 -0.00000000000E+00 -0.00000000000E+00 -0.19583283486E+03  0.19583283486E+03  0.00000000000E+00 0.  1.
         21    1    1    2  503  504 -0.17643993921E+03  0.44282298300E+02  0.98462899255E+02  0.20684998579E+03  0.00000000000E+00 0.  1.
         21    1    1    2  504  501  0.53857870108E+01  0.35862782102E+02  0.15874240255E+02  0.39587085590E+02  0.00000000000E+00 0.  1.
         21    1    1    2  505  502  0.15024918688E+03 -0.24485819429E+02 -0.61509538141E+02  0.16418829677E+03  0.00000000000E+00 0.  1.
         21    1    1    2  506  505  0.20804965314E+02 -0.55659260973E+02  0.35192097190E+02  0.69060000133E+02  0.00000000000E+00 0.  1.
<scales pt_clust_3="159.58487" pt_clust_4="36.26494" pt_clust_5="14000.00000" pt_clust_6="53.08852"></scales>
<clustering>
<clus scale="   36.265">  1  4  2 -1</clus>
<clus scale="   53.089">  1  6  2 -1</clus>
<clus scale="  159.585">  1  3  2 -1</clus>
<clus scale="   36.265">  1  3  2 -1</clus>
</clustering>
</event>
<event>
 6    0  0.3446372E+002  0.1043830E+03  0.7546771E-02  0.1271340E+00
         21   -1    0    0  503  501  0.00000000000E+00  0.00000000000E+00  0.30512670738E+03  0.30512670738E+03  0.00000000000E+00 0.  1.
         21   -1    0    0  506  502 -0.00000000000E+00 -0.00000000000E+00 -0.91709129970E+02  0.91709129970E+02  0.00000000000E+00 0.  1.
         21    1    1    2  503  505 -0.35278061677E+02 -0.31569863054E+02  0.12595538566E+03  0.13455837791E+03  0.00000000000E+00 0.  1.
         21    1    1    2  504  502  0.22206264266E+02 -0.50883124280E+02 -0.28084390099E+02  0.62216906676E+02  0.00000000000E+00 0.  1.
         21    1    1    2  505  504  0.17045058423E+01 -0.37831010833E+02  0.88899787480E+01  0.38898874572E+02  0.00000000000E+00 0.  1.
         21    1    1    2  506  501  0.11367291569E+02  0.12028399817E+03  0.10665660310E+03  0.16116167819E+03  0.00000000000E+00 0.  1.
<scales pt_clust_3="47.34129" pt_clust_4="31.05714" pt_clust_5="31.05714" pt_clust_6="97.37435"></scales>
<clustering>
<clus scale="   31.057">  4  5 -1 -1</clus>
<clus scale="   47.341">  1  3  2 -1</clus>
<clus scale="   97.374">  1  6  2 -1</clus>
<clus scale="   47.341">  1  3  2 -1</clus>
</clustering>
</event>
<event>
 6    0  0.3446372E+002  0.1151861E+03  0.7546771E-02  0.1251257E+00
         21   -1    0    0  503  501  0.00000000000E+00  0.00000000000E+00  0.25808499680E+03  0.25808499680E+03  0.00000000000E+00 0.  1.
         21   -1    0    0  506  502 -0.00000000000E+00 -0.00000000000E+00 -0.10784520548E+04  0.10784520548E+04  0.00000000000E+00 0. -1.
         21    1    1    2  503  504 -0.13960463229E+03  0.32558923283E+02  0.16169901285E+03  0.21609282172E+03  0.00000000000E+00 0.  1.
         21    1    1    2  504  502  0.11689840150E+02  0.65400650823E+02 -0.72721603642E+02  0.98500401660E+02  0.00000000000E+00 0.  1.
         21    1    1    2  505  501  0.26139342871E+02 -0.40269280443E+02  0.41785079923E+02  0.63646469638E+02  0.00000000000E+00 0. -1.
         21    1    1    2  506  505  0.10177544927E+03 -0.57690293663E+02 -0.95112954713E+03  0.95829735859E+03  0.00000000000E+00 0. -1.
<scales pt_clust_3="14000.00000" pt_clust_4="64.27089" pt_clust_5="48.00917" pt_clust_6="115.18607"></scales>
<clustering>
<clus scale="   48.009">  1  5  2 -1</clus>
<clus scale="   64.271">  2  4  1 -1</clus>
<clus scale="  115.186">  2  6  1 -1</clus>
<clus scale="   48.009">  1  3  2 -1</clus>
</clustering>
</event>
<event>
 6    0  0.3446372E+002  0.1107843E+03  0.7546771E-02  0.1259124E+00
         21   -1    0    0  504  501  0.00000000000E+00  0.00000000000E+00  0.23784359513E+03  0.23784359513E+03  0.00000000000E+00 0.  1.
         21   -1    0    0  505  502 -0.00000000000E+00 -0.00000000000E+00 -0.15122297961E+03  0.15122297961E+03  0.00000000000E+00 0.  1.
         21    1    1    2  503  501  0.38584803658E+02 -0.48635147424E+02  0.14037181789E+03  0.15348749752E+03  0.00000000000E+00 0.  1.
         21    1    1    2  504  502 -0.25520266041E+01  0.64485421196E+02 -0.50867921608E+02  0.82173157633E+02  0.00000000000E+00 0.  1.
         21    1    1    2  505  506 -0.70801230979E+02  0.20068601364E+02 -0.46510083730E+02  0.87056021948E+02  0.00000000000E+00 0.  1.
         21    1    1    2  506  503  0.34768453926E+02 -0.35918875136E+02  0.43626802963E+02  0.66349897635E+02  0.00000000000E+00 0.  1.
<scales pt_clust_3="39.55353" pt_clust_4="64.53590" pt_clust_5="101.63785" pt_clust_6="39.55353"></scales>
<clustering>
<clus scale="   39.554">  3  6 -1 -1</clus>
<clus scale="   64.536">  2  4  1 -1</clus>
<clus scale="  101.638">  2  5  1 -1</clus>
<clus scale="  110.784">  1  3  2 -1</clus>
</clustering>
</event>
<event>
 6    0  0.3446372E+002  0.8993169E+02  0.7546771E-02  0.1303017E+00
         21   -1    0    0  505  501  0.00000000000E+00  0.00000000000E+00  0.90568489072E+02  0.90568489072E+02  0.00000000000E+00 0. -1.
         21   -1    0    0  501  502 -0.00000000000E+00 -0.00000000000E+00 -0.15640255745E+04  0.15640255745E+04  0.00000000000E+00 0.  1.
         21    1    1    2  503  504  0.48433482327E+02  0.40713704835E+02 -0.12991752452E+04  0.13007150824E+04  0.00000000000E+00 0.  1.
         21    1    1    2  504  502  0.30351165822E+02  0.32386573660E+01 -0.10637435363E+03  0.11066700176E+03  0.00000000000E+00 0. -1.
         21    1    1    2  505  506 -0.95146563325E+01  0.55419614109E+02  0.49207807693E+02  0.74721286466E+02  0.00000000000E+00 0. -1.
         21    1    1    2  506  503 -0.69269991817E+02 -0.99371976310E+02 -0.11711529436E+03  0.16849069296E+03  0.00000000000E+00 0. -1.
<scales pt_clust_3="89.93169" pt_clust_4="30.52347" pt_clust_5="56.21404" pt_clust_6="14000.00000"></scales>
<clustering>
<clus scale="   30.523">  2  4  1 -1</clus>
<clus scale="   56.214">  1  5  2 -1</clus>
<clus scale="   89.932">  2  3  1 -1</clus>
<clus scale="   56.214">  1  3  2 -1</clus>
</clustering>
</event>
<event>
 6    0  0.3446372E+002  0.9264321E+02  0.7546771E-02  0.1296574E+00
         21   -1    0    0  506  501  0.00000000000E+00  0.00000000000E+00  0.30037125680E+03  0.30037125680E+03  0.00000000000E+00 0. -1.
         21   -1    0    0  504  502 -0.00000000000E+00 -0.00000000000E+00 -0.22655535616E+03  0.22655535616E+03  0.00000000000E+00 0.  1.
         21    1    1    2  503  502  0.37562058758E+02 -0.35589617434E+02 -0.86009261981E+02  0.10037490859E+03  0.00000000000E+00 0.  1.
         21    1    1    2  504  505 -0.49228306336E+02 -0.19263133525E+01 -0.67953389508E+02  0.83933306699E+02  0.00000000000E+00 0.  1.
         21    1    1    2  505  501  0.97196129924E+02  0.78008182941E+00  0.70052460021E+00  0.97201784627E+02  0.00000000000E+00 0.  1.
         21    1    1    2  506  503 -0.85529882346E+02  0.36735848957E+02  0.22707802753E+03  0.24541661304E+03  0.00000000000E+00 0. -1.
<scales pt_clust_3="37.46086" pt_clust_4="49.26598" pt_clust_5="92.64321" pt_clust_6="14000.00000"></scales>
<clustering>
<clus scale="   49.266">  2  4  1 -1</clus>
<clus scale="   37.461">  2  3  1 -1</clus>
<clus scale="   92.643">  2  5  1 -1</clus>
<clus scale="   92.643">  1  3  2 -1</clus>
</clustering>
</event>
<event>
 6    0  0.3446372E+002  0.8291307E+02  0.7546771E-02  0.1320982E+00
         21   -1    0    0  505  501  0.00000000000E+00  0.00000000000E+00  0.15551657908E+03  0.15551657908E+03  0.00000000000E+00 0.  1.
         21   -1    0    0  506  502 -0.00000000000E+00 -0.00000000000E+00 -0.71258275033E+03  0.71258275033E+03  0.00000000000E+00 0.  1.
         21    1    1    2  503  502  0.74437922708E+02  0.19596946648E+02 -0.25038625038E+03  0.26195098594E+03  0.00000000000E+00 0.  1.
         21    1    1    2  504  501 -0.45529190109E+02  0.38316117599E+02  0.98112745984E+02  0.11474817186E+03  0.00000000000E+00 0.  1.
         21    1    1    2  505  503  0.29257575117E+02  0.21001408073E+02  0.29267136698E+02  0.46407220702E+02  0.00000000000E+00 0. -1.
         21    1    1    2  506  504 -0.58166307716E+02 -0.78914472319E+02 -0.43405980355E+03  0.44499295090E+03  0.00000000000E+00 0.  1.
<scales pt_clust_3="14000.00000" pt_clust_4="60.39899" pt_clust_5="36.01479" pt_clust_6="82.91307"></scales>
<clustering>
<clus scale="   36.015">  1  5  2 -1</clus>
<clus scale="   60.399">  1  4  2 -1</clus>
<clus scale="   82.913">  2  6  1 -1</clus>
<clus scale="   36.015">  1  3  2 -1</clus>
</clustering>
</event>
<event>
 6    0  0.3446372E+002  0.1466387E+03  0.7546771E-02  0.1204665E+00
         21   -1    0    0  505  501  0.00000000000E+00  0.00000000000E+00  0.45926227422E+03  0.45926227422E+03  0.00000000000E+00 0.  1.
         21   -1    0    0  503  502 -0.00000000000E+00 -0.00000000000E+00 -0.27478482791E+03  0.27478482791E+03  0.00000000000E+00 0.  1.
         21    1    1    2  503  506  0.13318076057E+03  0.25716991611E+02 -0.15249656856E+02  0.13649553354E+03  0.00000000000E+00 0.  1.
         21    1    1    2  504  502 -0.15301556767E+03  0.30729819537E+02 -0.16014444454E+03  0.22361647720E+03  0.00000000000E+00 0.  1.
         21    1    1    2  505  504 -0.12559387300E+02 -0.40603753025E+02  0.70464281425E+02  0.82289840964E+02  0.00000000000E+00 0.  1.
         21    1    1    2  506  501  0.32394194404E+02 -0.15843058122E+02  0.28940726628E+03  0.29164525043E+03  0.00000000000E+00 0.  1.
<scales pt_clust_3="14000.00000" pt_clust_4="146.63866" pt_clust_5="47.82128" pt_clust_6="36.06087"></scales>
<clustering>
<clus scale="   36.061">  1  6  2 -1</clus>
<clus scale="   47.821">  1  5  2 -1</clus>
<clus scale="  146.639">  2  4  1 -1</clus>
<clus scale="   36.061">  1  3  2 -1</clus>
</clustering>
</event>
<event>
 6    0  0.3446372E+002  0.9155030E+02  0.7546771E-02  0.1299140E+00
         21   -1    0    0  502  501  0.00000000000E+00  0.00000000000E+00  0.11845587825E+04  0.11845587825E+04  0.00000000000E+00 0.  1.
         21   -1    0    0  506  502 -0.00000000000E+00 -0.00000000000E+00 -0.31936404486E+02  0.31936404486E+02  0.00000000000E+00 0. -1.
         21    1    1    2  503  501 -0.10417255737E+02  0.33872941853E+02  0.51167195887E+03  0.51289773728E+03  0.00000000000E+00 0.  1.
         21    1    1    2  504  505  0.86831877955E+02 -0.11381701058E+03  0.23298656341E+03  0.27345351645E+03  0.00000000000E+00 0. -1.
         21    1    1    2  505  503 -0.23386161273E+02  0.58854990206E+02  0.31307298672E+03  0.31941433503E+03  0.00000000000E+00 0.  1.
         21    1    1    2  506  504 -0.53028460945E+02  0.21089078521E+02  0.94890869026E+02  0.11072959825E+03  0.00000000000E+00 0. -1.
<scales pt_clust_3="35.43861" pt_clust_4="91.55030" pt_clust_5="14000.00000" pt_clust_6="60.61013"></scales>
<clustering>
<clus scale="   35.439">  1  3  2 -1</clus>
<clus scale="   60.610">  2  6  1 -1</clus>
<clus scale="   91.550">  2  4  1 -1</clus>
<clus scale="   35.439">  1  3  2 -1</clus>
</clustering>
</event>
<event>
 6    0  0.3446372E+002  0.1832372E+03  0.7546771E-02  0.1164706E+00
         21   -1    0    0  505  501  0.00000000000E+00  0.00000000000E+00  0.73837750525E+03  0.73837750525E+03  0.00000000000E+00 0.  1.
         21   -1    0    0  503  502 -0.00000000000E+00 -0.00000000000E+00 -0.73058556149E+03  0.73058556149E+03  0.00000000000E+00 0. -1.
         21    1    1    2  503  504  0.38930775067E+02  0.10448809958E+03 -0.33126080148E+03  0.34952408615E+03  0.00000000000E+00 0. -1.
         21    1    1    2  504  506  0.13869694740E+02  0.51946503246E+02 -0.68899338161E+02  0.87395231167E+02  0.00000000000E+00 0.  1.
         21    1    1    2  505  502 -0.21790435974E+02 -0.18741018239E+03 -0.28276820855E+03  0.33993419853E+03  0.00000000000E+00 0. -1.
         21    1    1    2  506  501 -0.31010033833E+02  0.30975579568E+02  0.69072029195E+03  0.69210955090E+03  0.00000000000E+00 0.  1.
<scales pt_clust_3="41.14368" pt_clust_4="41.14368" pt_clust_5="173.39313" pt_clust_6="43.83045"></scales>
<clustering>
<clus scale="   41.144">  3  4 -1 -1</clus>
<clus scale="   43.830">  1  6  2 -1</clus>
<clus scale="  173.393">  1  5  2 -1</clus>
<clus scale="   43.830">  1  3  2 -1</clus>
</clustering>
</event>
<event>
 6    0  0.3446372E+002  0.1105405E+03  0.7546771E-02  0.1259572E+00
         21   -1    0    0  504  501  0.00000000000E+00  0.00000000000E+00  0.32749499873E+03  0.32749499873E+03  0.00000000000E+00 0.  1.
         21   -1    0    0  505  502 -0.00000000000E+00 -0.00000000000E+00 -0.33347863870E+03  0.33347863870E+03  0.00000000000E+00 0.  1.
         21    1    1    2  503  506 -0.12121013755E+03  0.27714618090E+02 -0.42053881931E+02  0.13125748164E+03  0.00000000000E+00 0.  1.
         21    1    1    2  504  503  0.29730595534E+02 -0.60585390320E+02  0.25287457126E+03  0.26172513563E+03  0.00000000000E+00 0.  1.
         21    1    1    2  505  501  0.12159188942E+03  0.27964794185E+02 -0.15424678872E+03  0.19839024451E+03  0.00000000000E+00 0.  1.
         21    1    1    2  506  502 -0.30112347405E+02  0.49059780451E+01 -0.62557540588E+02  0.69600775651E+02  0.00000000000E+00 0.  1.
<scales pt_clust_3="110.54048" pt_clust_4="67.19586" pt_clust_5="14000.00000" pt_clust_6="30.50938"></scales>
<clustering>
<clus scale="   30.509">  2  6  1 -1</clus>
<clus scale="   67.196">  1  4  2 -1</clus>
<clus scale="  110.540">  1  3  2 -1</clus>
<clus scale="   67.196">  1  3  2 -1</clus>
</clustering>
</event>
<event>
 6    0  0.3446372E+002  0.1458138E+03  0.7546771E-02  0.1205713E+00
         21   -1    0    0  503  501  0.00000000000E+00  0.00000000000E+00  0.64192379110E+03  0.64192379110E+03  0.00000000000E+00 0. -1.
         21   -1    0    0  506  502 -0.00000000000E+00 -0.00000000000E+00 -0.24147021865E+03  0.24147021865E+03  0.00000000000E+00 0.  1.
         21    1    1    2  503  505 -0.22476836723E+02  0.23976030668E+02  0.44459552227E+03  0.44580852017E+03  0.00000000000E+00 0. -1.
         21    1    1    2  504  502 -0.26547833760E+02  0.37256215998E+02 -0.34158479292E+02  0.57093036488E+02  0.00000000000E+00 0.  1.
         21    1    1    2  505  504 -0.18984353592E+02  0.90191481492E+02 -0.14139149943E+03  0.16877933856E+03  0.00000000000E+00 0.  1.
         21    1    1    2  506  501  0.68009024074E+02 -0.15142372816E+03  0.13140802890E+03  0.21171311453E+03  0.00000000000E+00 0. -1.
<scales pt_clust_3="32.86424" pt_clust_4="30.58327" pt_clust_5="30.58327" pt_clust_6="139.20209"></scales>
<clustering>
<clus scale="   30.583">  4  5 -1 -1</clus>
<clus scale="   32.864">  1  3  2 -1</clus>
<clus scale="  139.202">  1  6  2 -1</clus>
<clus scale="   32.864">  1  3  2 -1</clus>
</clustering>
</event>
<event>
 6    0  0.3446372E+002  0.1040064E+03  0.7546771E-02  0.1272090E+00
         21   -1    0    0  503  501  0.00000000000E+00  0.00000000000E+00  0.11905251042E+04  0.11905251042E+04  0.00000000000E+00 0.  1.
         21   -1    0    0  504  502 -0.00000000000E+00 -0.00000000000E+00 -0.11030090931E+03  0.11030090931E+03  0.00000000000E+00 0.  1.
         21    1    1    2  503  505 -0.30275894817E+02 -0.27930640354E+02  0.62141740018E+03  0.62278112987E+03  0.00000000000E+00 0.  1.
         21    1    1    2  504  501 -0.31814639930E+02  0.23274466256E+01  0.38913709404E+02  0.50317642047E+02  0.00000000000E+00 0. -1.
         21    1    1    2  505  506  0.12744303785E+03 -0.95926951045E+01  0.50143184548E+03  0.51746269755E+03  0.00000000000E+00 0.  1.
         21    1    1    2  506  502 -0.65352503103E+02  0.35195888833E+02 -0.81538760200E+02  0.11026454402E+03  0.00000000000E+00 0.  1.
<scales pt_clust_3="41.33406" pt_clust_4="31.89966" pt_clust_5="104.00637" pt_clust_6="14000.00000"></scales>
<clustering>
<clus scale="   31.900">  2  4  1 -1</clus>
<clus scale="   41.334">  1  3  2 -1</clus>
<clus scale="  104.006">  1  5  2 -1</clus>
<clus scale="   41.334">  1  3  2 -1</clus>
</clustering>
</event>
<event>
 6    0  0.3446372E+002  0.7220645E+02  0.7546771E-02  0.1352747E+00
         21   -1    0    0  503  501  0.00000000000E+00  0.00000000000E+00  0.17551114131E+04  0.17551114131E+04  0.00000000000E+00 0.  1.
         21   -1    0    0  505  502 -0.00000000000E+00 -0.00000000000E+00 -0.12656842927E+02  0.12656842927E+02  0.00000000000E+00 0.  1.
         21    1    1    2  503  504  0.25222078155E+02 -0.10418696866E+03  0.96716608806E+03  0.97308854662E+03  0.00000000000E+00 0.  1.
         21    1    1    2  504  502  0.46796034854E+02  0.26753911974E+02  0.25600251001E+03  0.26161598922E+03  0.00000000000E+00 0.  1.
         21    1    1    2  505  506 -0.28847511897E+02  0.42472496244E+02  0.12896442615E+03  0.13880891575E+03  0.00000000000E+00 0.  1.
         21    1    1    2  506  501 -0.43170601113E+02  0.34960560444E+02  0.39032154598E+03  0.39425480447E+03  0.00000000000E+00 0.  1.
<scales pt_clust_3="14000.00000" pt_clust_4="55.65711" pt_clust_5="51.34289" pt_clust_6="72.20645"></scales>
<clustering>
<clus scale="   51.343">  2  5  1 -1</clus>
<clus scale="   55.657">  2  4  1 -1</clus>
<clus scale="   72.206">  1  6  2 -1</clus>
<clus scale="   72.206">  1  3  2 -1</clus>
</clustering>
</event>
<event>
 6    0  0.3446372E+002  0.9277327E+02  0.7546771E-02  0.1296271E+00
         21   -1    0    0  503  501  0.00000000000E+00  0.00000000000E+00  0.67670295018E+02  0.67670295018E+02  0.00000000000E+00 0.  1.
         21   -1    0    0  505  502 -0.00000000000E+00 -0.00000000000E+00 -0.18570936034E+04  0.18570936034E+04  0.00000000000E+00 0. -1.
         21    1    1    2  503  504 -0.29476397395E+02 -0.61845307010E+01 -0.50296926192E+02  0.58624970855E+02  0.00000000000E+00 0. -1.
         21    1    1    2  504  502  0.28699532864E+02 -0.36494022320E+02 -0.95075862084E+02  0.10580593747E+03  0.00000000000E+00 0. -1.
         21    1    1    2  505  506 -0.16828908761E+02 -0.90277437188E+02 -0.16217824192E+04  0.16243803259E+04  0.00000000000E+00 0. -1.
         21    1    1    2  506  501  0.17605773292E+02  0.13295599021E+03 -0.22268100869E+02  0.13595266420E+03  0.00000000000E+00 0.  1.
<scales pt_clust_3="30.11821" pt_clust_4="45.35583" pt_clust_5="92.77327" pt_clust_6="14000.00000"></scales>
<clustering>
<clus scale="   30.118">  1  3  2 -1</clus>
<clus scale="   45.356">  1  4  2 -1</clus>
<clus scale="   92.773">  2  5  1 -1</clus>
<clus scale="   30.118">  1  3  2 -1</clus>
</clustering>
</event>
<event>
 6    0  0.3446372E+002  0.1922765E+03  0.7546771E-02  0.1156424E+00
         21   -1    0    0  506  501  0.00000000000E+00  0.00000000000E+00  0.20407829787E+04  0.20407829787E+04  0.00000000000E+00 0.  1.
         21   -1    0    0  503  502 -0.00000000000E+00 -0.00000000000E+00 -0.25324758806E+03  0.25324758806E+03  0.00000000000E+00 0.  1.
         21    1    1    2  503  505  0.14085679531E+02  0.35041572606E+02 -0.13000369179E+02  0.39941554519E+02  0.00000000000E+00 0.  1.
         21    1    1    2  504  501  0.21352428143E+02 -0.17923383851E+03  0.13820350497E+04  0.13937724253E+04  0.00000000000E+00 0.  1.
         21    1    1    2  505  504  0.96952557201E+02  0.11165056108E+03 -0.18771430872E+03  0.23896089185E+03  0.00000000000E+00 0.  1.
         21    1    1    2  506  502 -0.13239066488E+03  0.32541704832E+02  0.60621501885E+03  0.62135569505E+03  0.00000000000E+00 0.  1.
<scales pt_clust_3="30.54120" pt_clust_4="182.53250" pt_clust_5="30.54120" pt_clust_6="136.33140"></scales>
<clustering>
<clus scale="   30.541">  3  5 -1 -1</clus>
<clus scale="  136.331">  1  6  2 -1</clus>
<clus scale="  182.533">  1  4  2 -1</clus>
<clus scale="  136.331">  1  3  2 -1</clus>
</clustering>
</event>
<event>
 6    0  0.3446372E+002  0.1374656E+03  0.7546771E-02  0.1216780E+00
         21   -1    0    0  505  501  0.00000000000E+00  0.00000000000E+00  0.10625197648E+04  0.10625197648E+04  0.00000000000E+00 0.  1.
         21   -1    0    0  504  502 -0.00000000000E+00 -0.00000000000E+00 -0.60349881171E+02  0.60349881171E+02  0.00000000000E+00 0. -1.
         21    1    1    2  503  506  0.26671087507E+01  0.54681670664E+02  0.14717452845E+03  0.15702719637E+03  0.00000000000E+00 0.  1.
         21    1    1    2  504  501  0.29641061655E+02 -0.13161144253E+03  0.37038603298E+02  0.13990004458E+03  0.00000000000E+00 0. -1.
         21    1    1    2  505  503  0.73103520561E+01  0.39749656504E+02  0.59838561360E+03  0.59974896332E+03  0.00000000000E+00 0.  1.
         21    1    1    2  506  502 -0.39618522461E+02  0.37180115359E+02  0.21957113824E+03  0.22619344166E+03  0.00000000000E+00 0.  1.
<scales pt_clust_3="50.12660" pt_clust_4="127.84799" pt_clust_5="40.41629" pt_clust_6="50.12660"></scales>
<clustering>
<clus scale="   40.416">  1  5  2 -1</clus>
<clus scale="   50.127">  3  6 -1 -1</clus>
<clus scale="  127.848">  2  4  1 -1</clus>
<clus scale="   40.416">  1  3  2 -1</clus>
</clustering>
</event>
<event>
 6    0  0.3446372E+002  0.1088027E+03  0.7546771E-02  0.1262803E+00
         21   -1    0    0  506  501  0.00000000000E+00  0.00000000000E+00  0.36884340543E+03  0.36884340543E+03  0.00000000000E+00 0.  1.
         21   -1    0    0  504  502 -0.00000000000E+00 -0.00000000000E+00 -0.99221452689E+03  0.99221452689E+03  0.00000000000E+00 0. -1.
         21    1    1    2  503  501 -0.34447400979E+02  0.24687320432E+02  0.13319167070E+02  0.44423951150E+02  0.00000000000E+00 0. -1.
         21    1    1    2  504  503 -0.58979165376E+02 -0.93549318721E+02 -0.65174204685E+03  0.66105802515E+03  0.00000000000E+00 0. -1.
         21    1    1    2  505  502  0.92795922270E+02 -0.12551275771E+02 -0.30826093899E+03  0.32216986858E+03  0.00000000000E+00 0. -1.
         21    1    1    2  506  505  0.63064408570E+00  0.81413274060E+02  0.32331269730E+03  0.33340608744E+03  0.00000000000E+00 0.  1.
<scales pt_clust_3="42.38027" pt_clust_4="14000.00000" pt_clust_5="92.87580" pt_clust_6="108.80268"></scales>
<clustering>
<clus scale="   42.380">  1  3  2 -1</clus>
<clus scale="   92.876">  2  5  1 -1</clus>
<clus scale="  108.803">  1  6  2 -1</clus>
<clus scale="   42.380">  1  3  2 -1</clus>
</clustering>
</event>
<event>
 6    0  0.7003415E+002  0.1106312E+03  0.7546771E-02  0.1259406E+00
         21   -1    0    0  506  501  0.00000000000E+00  0.00000000000E+00  0.28063156591E+03  0.28063156591E+03  0.00000000000E+00 0.  1.
         21   -1    0    0  505  502 -0.00000000000E+00 -0.00000000000E+00 -0.86393539968E+03  0.86393539968E+03  0.00000000000E+00 0.  1.
         21    1    1    2  503  504  0.47001583146E+02 -0.25535698088E+02  0.12076230380E+02  0.54836630415E+02  0.00000000000E+00 0. -1.
         21    1    1    2  504  501  0.28340565290E+02  0.16961392551E+02  0.22516333765E+03  0.22757285669E+03  0.00000000000E+00 0.  1.
         21    1    1    2  505  503  0.53702456222E+02  0.20209536210E+02 -0.37681779657E+02  0.68646162866E+02  0.00000000000E+00 0. -1.
         21    1    1    2  506  502 -0.12904460466E+03 -0.11635230673E+02 -0.78286162214E+03  0.79351131562E+03  0.00000000000E+00 0.  1.
<scales pt_clust_3="66.21471" pt_clust_4="33.02842" pt_clust_5="14000.00000" pt_clust_6="110.63116"></scales>
<clustering>
<clus scale="   33.028">  1  4  2 -1</clus>
<clus scale="   66.215">  1  3  2 -1</clus>
<clus scale="  110.631">  2  6  1 -1</clus>
<clus scale="   33.028">  1  3  2 -1</clus>
</clustering>
</event>
<event>
 6    0  0.3446372E+002  0.9635433E+02  0.7546771E-02  0.1288155E+00
         21   -1    0    0  503  501  0.00000000000E+00  0.00000000000E+00  0.15461627101E+03  0.15461627101E+03  0.00000000000E+00 0. -1.
         21   -1    0    0  504  502 -0.00000000000E+00 -0.00000000000E+00 -0.35254838966E+03  0.35254838966E+03  0.00000000000E+00 0. -1.
         21    1    1    2  503  506 -0.29120258765E+02 -0.37127394191E+02  0.59428158482E+02  0.75882401719E+02  0.00000000000E+00 0. -1.
         21    1    1    2  504  501 -0.70867107043E+02  0.63742047603E+02  0.42710051580E+02  0.10444780514E+03  0.00000000000E+00 0. -1.
         21    1    1    2  505  502  0.11692576781E+02 -0.34150529946E+02 -0.13183570184E+03  0.13668806578E+03  0.00000000000E+00 0. -1.
         21    1    1    2  506  505  0.88294789027E+02  0.75358765337E+01 -0.16823462687E+03  0.19014638804E+03  0.00000000000E+00 0. -1.
<scales pt_clust_3="47.93947" pt_clust_4="14000.00000" pt_clust_5="36.09675" pt_clust_6="96.35433"></scales>
<clustering>
<clus scale="   36.097">  2  5  1 -1</clus>
<clus scale="   47.939">  1  3  2 -1</clus>
<clus scale="   96.354">  2  6  1 -1</clus>
<clus scale="   47.939">  1  3  2 -1</clus>
</clustering>
</event>
<event>
 6    0  0.3446372E+002  0.2312135E+03  0.7546771E-02  0.1125789E+00
         21   -1    0    0  505  501  0.00000000000E+00  0.00000000000E+00  0.23213714534E+03  0.23213714534E+03  0.00000000000E+00 0.  1.
         21   -1    0    0  504  502 -0.00000000000E+00 -0.00000000000E+00 -0.14078170209E+04  0.14078170209E+04  0.00000000000E+00 0.  1.
         21    1    1    2  503  502 -0.87859316776E+02  0.15164070512E+03 -0.30743065498E+03  0.35387536028E+03  0.00000000000E+00 0.  1.
         21    1    1    2  504  506  0.13995246910E+03 -0.23554002871E+03 -0.10397618587E+04  0.10752537010E+04  0.00000000000E+00 0.  1.
         21    1    1    2  505  503 -0.39034971277E+02  0.50385871639E+02  0.16129910732E+03  0.17343548387E+03  0.00000000000E+00 0.  1.
         21    1    1    2  506  501 -0.13058181051E+02  0.33513451958E+02  0.10213530785E+02  0.37389621095E+02  0.00000000000E+00 0. -1.
<scales pt_clust_3="231.21354" pt_clust_4="14000.00000" pt_clust_5="91.81202" pt_clust_6="35.96759"></scales>
<clustering>
<clus scale="   35.968">  1  6  2 -1</clus>
<clus scale="   91.812">  1  5  2 -1</clus>
<clus scale="  231.214">  1  3  2 -1</clus>
<clus scale="   35.968">  1  3  2 -1</clus>
</clustering>
</event>
<event>
 6    0  0.3446372E+002  0.2785310E+03  0.7546771E-02  0.1096494E+00
         21   -1    0    0  505  501  0.00000000000E+00  0.00000000000E+00  0.30652582964E+04  0.30652582964E+04  0.00000000000E+00 0.  1.
         21   -1    0    0  504  502 -0.00000000000E+00 -0.00000000000E+00 -0.41091334553E+03  0.41091334553E+03  0.00000000000E+00 0. -1.
         21    1    1    2  503  502  0.18925775369E+03 -0.26127190302E+03  0.14171510271E+04  0.14534092811E+04  0.00000000000E+00 0.  1.
         21    1    1    2  504  506 -0.88381398167E+02  0.64917539562E+02 -0.15427508453E+03  0.18927852543E+03  0.00000000000E+00 0. -1.
         21    1    1    2  505  503  0.37715106858E+01  0.66897998657E+02  0.15803202546E+04  0.15817400778E+04  0.00000000000E+00 0. -1.
         21    1    1    2  506  501 -0.10464786621E+03  0.12945636480E+03 -0.18885124632E+03  0.25174375767E+03  0.00000000000E+00 0. -1.
<scales pt_clust_3="275.41975" pt_clust_4="33.69518" pt_clust_5="67.00423" pt_clust_6="33.69518"></scales>
<clustering>
<clus scale="   33.695">  4  6 -1 -1</clus>
<clus scale="   67.004">  1  5  2 -1</clus>
<clus scale="  275.420">  1  3  2 -1</clus>
<clus scale="   67.004">  1  3  2 -1</clus>
</clustering>
</event>
<event>
 6    0  0.3446372E+002  0.1225312E+03  0.7546771E-02  0.1238979E+00
         21   -1    0    0  503  501  0.00000000000E+00  0.00000000000E+00  0.55608700071E+03  0.55608700071E+03  0.00000000000E+00 0.  1.
         21   -1    0    0  505  502 -0.00000000000E+00 -0.00000000000E+00 -0.21399282411E+03  0.21399282411E+03  0.00000000000E+00 0. -1.
         21    1    1    2  503  506 -0.14783529217E+03  0.28498258664E+02  0.41945419425E+03  0.44565597206E+03  0.00000000000E+00 0.  1.
         21    1    1    2  504  501  0.15304312726E+02 -0.36030298048E+02  0.73543921760E+02  0.83313341028E+02  0.00000000000E+00 0.  1.
         21    1    1    2  505  504  0.78747948615E+02 -0.36760206009E+02 -0.14726762188E+02  0.88144368405E+02  0.00000000000E+00 0. -1.
         21    1    1    2  506  502  0.53783030828E+02  0.44292245393E+02 -0.13617717722E+03  0.15296614332E+03  0.00000000000E+00 0. -1.
<scales pt_clust_3="122.53118" pt_clust_4="39.14594" pt_clust_5="14000.00000" pt_clust_6="69.48187"></scales>
<clustering>
<clus scale="   39.146">  1  4  2 -1</clus>
<clus scale="   69.482">  2  6  1 -1</clus>
<clus scale="  122.531">  1  3  2 -1</clus>
<clus scale="   39.146">  1  3  2 -1</clus>
</clustering>
</event>
<event>
 6    0  0.3446372E+002  0.1299119E+03  0.7546771E-02  0.1227587E+00
         21   -1    0    0  504  501  0.00000000000E+00  0.00000000000E+00  0.72244835089E+03  0.72244835089E+03  0.00000000000E+00 0. -1.
         21   -1    0    0  503  502 -0.00000000000E+00 -0.00000000000E+00 -0.10781954901E+03  0.10781954901E+03  0.00000000000E+00 0. -1.
         21    1    1    2  503  505  0.33639927476E+02 -0.15062095426E+02 -0.17823481644E+02  0.40941274249E+02  0.00000000000E+00 0. -1.
         21    1    1    2  504  502  0.26811751280E+02  0.11751985358E+03  0.30831941173E+02  0.12442023384E+03  0.00000000000E+00 0. -1.
         21    1    1    2  505  506 -0.50663269539E+02 -0.15108066525E+03  0.18008673102E+03  0.24046489345E+03  0.00000000000E+00 0. -1.
         21    1    1    2  506  501 -0.97884092177E+01  0.48622907102E+02  0.42153361134E+03  0.42444149837E+03  0.00000000000E+00 0. -1.
<scales pt_clust_3="36.85799" pt_clust_4="14000.00000" pt_clust_5="129.91189" pt_clust_6="49.20476"></scales>
<clustering>
<clus scale="   36.858">  2  3  1 -1</clus>
<clus scale="   49.205">  1  6  2 -1</clus>
<clus scale="  129.912">  1  5  2 -1</clus>
<clus scale="   49.205">  1  3  2 -1</clus>
</clustering>
</event>
<event>
 6    0  0.3446372E+002  0.1357280E+03  0.7546771E-02  0.1219196E+00
         21   -1    0    0  506  501  0.00000000000E+00  0.00000000000E+00  0.16193153520E+03  0.16193153520E+03  0.00000000000E+00 0.  1.
         21   -1    0    0  505  502 -0.00000000000E+00 -0.00000000000E+00 -0.27460199652E+04  0.27460199652E+04  0.00000000000E+00 0.  1.
         21    1    1    2  503  501 -0.11216533705E+03  0.11964004897E+03  0.86361012419E+02  0.18534570030E+03  0.00000000000E+00 0.  1.
         21    1    1    2  504  503  0.20784133810E+02 -0.88414362115E+02 -0.14983813025E+04  0.15011314424E+04  0.00000000000E+00 0.  1.
         21    1    1    2  505  504  0.31906344514E+02 -0.24355618824E+02 -0.11596314482E+04  0.11603259484E+04  0.00000000000E+00 0.  1.
         21    1    1    2  506  502  0.59474858730E+02 -0.68700680312E+01 -0.12436691724E+02  0.61148409275E+02  0.00000000000E+00 0.  1.
<scales pt_clust_3="124.86704" pt_clust_4="35.36742" pt_clust_5="35.36742" pt_clust_6="59.87033"></scales>
<clustering>
<clus scale="   35.367">  4  5 -1 -1</clus>
<clus scale="   59.870">  1  6  2 -1</clus>
<clus scale="  124.867">  1  3  2 -1</clus>
<clus scale="   59.870">  1  3  2 -1</clus>
</clustering>
</event>
<event>
 6    0  0.3446372E+002  0.1167793E+03  0.7546771E-02  0.1248507E+00
         21   -1    0    0  505  501  0.00000000000E+00  0.00000000000E+00  0.42892948704E+03  0.42892948704E+03  0.00000000000E+00 0. -1.
         21   -1    0    0  506  502 -0.00000000000E+00 -0.00000000000E+00 -0.32006783648E+03  0.32006783648E+03  0.00000000000E+00 0. -1.
         21    1    1    2  503  502 -0.17496317835E+02  0.49125960177E+02 -0.22708628878E+03  0.23299713228E+03  0.00000000000E+00 0. -1.
         21    1    1    2  504  501 -0.29461052865E+02 -0.13592629031E+03  0.84740086266E+02  0.16286433696E+03  0.00000000000E+00 0. -1.
         21    1    1    2  505  503  0.82573525326E+02  0.80549592058E+02  0.28260851057E+03  0.30524448253E+03  0.00000000000E+00 0. -1.
         21    1    1    2  506  504 -0.35616154625E+02  0.62507380722E+01 -0.31400657499E+02  0.47891371750E+02  0.00000000000E+00 0. -1.
<scales pt_clust_3="71.59355" pt_clust_4="14000.00000" pt_clust_5="116.77930" pt_clust_6="36.16051"></scales>
<clustering>
<clus scale="   36.161">  2  6  1 -1</clus>
<clus scale="   71.594">  2  3  1 -1</clus>
<clus scale="  116.779">  1  5  2 -1</clus>
<clus scale="  116.779">  1  3  2 -1</clus>
</clustering>
</event>
<event>
 6    0  0.3446372E+002  0.1219761E+03  0.7546771E-02  0.1239872E+00
         21   -1    0    0  504  501  0.00000000000E+00  0.00000000000E+00  0.74574804426E+03  0.74574804426E+03  0.00000000000E+00 0.  1.
         21   -1    0    0  503  502 -0.00000000000E+00 -0.00000000000E+00 -0.82622418498E+03  0.82622418498E+03  0.00000000000E+00 0.  1.
         21    1    1    2  503  506 -0.76046001467E+02 -0.64437275693E+02 -0.23297767865E+03  0.25340433222E+03  0.00000000000E+00 0. -1.
         21    1    1    2  504  505 -0.47145648240E+02  0.99179964861E+01  0.50426125595E+03  0.50655749235E+03  0.00000000000E+00 0.  1.
         21    1    1    2  505  502  0.10990216781E+02 -0.40260879849E+02 -0.55759001750E+03  0.55914966773E+03  0.00000000000E+00 0.  1.
         21    1    1    2  506  501  0.11220143293E+03  0.94780159057E+02  0.20583029947E+03  0.25286073694E+03  0.00000000000E+00 0.  1.
<scales pt_clust_3="121.97608" pt_clust_4="48.09621" pt_clust_5="41.73396" pt_clust_6="14000.00000"></scales>
<clustering>
<clus scale="   41.734">  2  5  1 -1</clus>
<clus scale="   48.096">  1  4  2 -1</clus>
<clus scale="  121.976">  2  3  1 -1</clus>
<clus scale="   48.096">  1  3  2 -1</clus>
</clustering>
</event>
<event>
 6    0  0.3446372E+002  0.1271294E+03  0.7546771E-02  0.1231779E+00
         21   -1    0    0  505  501  0.00000000000E+00  0.00000000000E+00  0.37210202697E+02  0.37210202697E+02  0.00000000000E+00 0.  1.
         21   -1    0    0  506  502 -0.00000000000E+00 -0.00000000000E+00 -0.61280887114E+03  0.61280887114E+03  0.00000000000E+00 0.  1.
         21    1    1    2  503  504 -0.30978422850E+02 -0.66265505214E+02 -0.16430131852E+03  0.17984911213E+03  0.00000000000E+00 0.  1.
         21    1    1    2  504  502  0.45156327275E+02 -0.14763895800E+02 -0.10926434391E+03  0.11914597501E+03  0.00000000000E+00 0.  1.
         21    1    1    2  505  503 -0.17980327989E+02 -0.44428722740E+02 -0.48850279068E+02  0.68436491464E+02  0.00000000000E+00 0.  1.
         21    1    1    2  506  501  0.38024235635E+01  0.12545812375E+03 -0.25318272694E+03  0.28258749524E+03  0.00000000000E+00 0.  1.
<scales pt_clust_3="31.99126" pt_clust_4="47.50859" pt_clust_5="31.99126" pt_clust_6="120.83007"></scales>
<clustering>
<clus scale="   31.991">  3  5 -1 -1</clus>
<clus scale="   47.509">  2  4  1 -1</clus>
<clus scale="  120.830">  2  6  1 -1</clus>
<clus scale="  127.129">  1  3  2 -1</clus>
</clustering>
</event>
<event>
 6    0  0.3446372E+002  0.1113243E+03  0.7546771E-02  0.1258137E+00
         21   -1    0    0  505  501  0.00000000000E+00  0.00000000000E+00  0.10272855824E+04  0.10272855824E+04  0.00000000000E+00 0.  1.
         21   -1    0    0  506  502 -0.00000000000E+00 -0.00000000000E+00 -0.30323740342E+02  0.30323740342E+02  0.00000000000E+00 0.  1.
         21    1    1    2  503  504  0.68759008232E+01 -0.42148978413E+02  0.16230100978E+03  0.16782560046E+03  0.00000000000E+00 0.  1.
         21    1    1    2  504  501 -0.25721023373E+01 -0.74197018680E+02  0.63167435709E+03  0.63602225330E+03  0.00000000000E+00 0.  1.
         21    1    1    2  505  502 -0.34024145075E+02  0.43069838951E+02  0.27735882612E+02  0.61497419943E+02  0.00000000000E+00 0.  1.
         21    1    1    2  506  503  0.29720346589E+02  0.73276158141E+02  0.17525059254E+03  0.19226404900E+03  0.00000000000E+00 0.  1.
<scales pt_clust_3="35.73193" pt_clust_4="35.73193" pt_clust_5="54.88764" pt_clust_6="100.86385"></scales>
<clustering>
<clus scale="   35.732">  3  4 -1 -1</clus>
<clus scale="   54.888">  2  5  1 -1</clus>
<clus scale="  100.864">  2  6  1 -1</clus>
<clus scale="  111.324">  1  3  2 -1</clus>
</clustering>
</event>
<event>
 6    0  0.3446372E+002  0.1103404E+03  0.7546771E-02  0.1259941E+00
         21   -1    0    0  503  501  0.00000000000E+00  0.00000000000E+00  0.17442006161E+04  0.17442006161E+04  0.00000000000E+00 0. -1.
         21   -1    0    0  506  502 -0.00000000000E+00 -0.00000000000E+00 -0.50549636889E+02  0.50549636889E+02  0.00000000000E+00 0. -1.
         21    1    1    2  503  502 -0.41099750293E+02  0.66275947096E+02  0.10403953033E+04  0.10433139881E+04  0.00000000000E+00 0. -1.
         21    1    1    2  504  505 -0.20421108085E+02 -0.16858592022E+03  0.41785340921E+03  0.45104290898E+03  0.00000000000E+00 0. -1.
         21    1    1    2  505  501  0.39855294970E+02  0.53760070146E+01  0.18440758900E+03  0.18874190014E+03  0.00000000000E+00 0. -1.
         21    1    1    2  506  504  0.21665563408E+02  0.96933966114E+02  0.50994677732E+02  0.11165145580E+03  0.00000000000E+00 0. -1.
<scales pt_clust_3="71.34865" pt_clust_4="110.34037" pt_clust_5="40.21624" pt_clust_6="14000.00000"></scales>
<clustering>
<clus scale="   40.216">  1  5  2 -1</clus>
<clus scale="   71.349">  1  3  2 -1</clus>
<clus scale="  110.340">  1  4  2 -1</clus>
<clus scale="   40.216">  1  3  2 -1</clus>
</clustering>
</event>
<event>
 6    0  0.3446372E+002  0.1411056E+03  0.7546771E-02  0.1211849E+00
         21   -1    0    0  503  501  0.00000000000E+00  0.00000000000E+00  0.43014719494E+03  0.43014719494E+03  0.00000000000E+00 0. -1.
         21   -1    0    0  506  502 -0.00000000000E+00 -0.00000000000E+00 -0.10597572714E+03  0.10597572714E+03  0.00000000000E+00 0.  1.
         21    1    1    2  503  502  0.12287862133E+03  0.32721685983E+02  0.25150461773E+03  0.28182341466E+03  0.00000000000E+00 0. -1.
         21    1    1    2  504  501  0.10042645251E+02 -0.42289410254E+02  0.99602375590E+02  0.10867328175E+03  0.00000000000E+00 0. -1.
         21    1    1    2  505  504 -0.66182934272E+02  0.25019492322E+02  0.31115027462E+01  0.70822575739E+02  0.00000000000E+00 0. -1.
         21    1    1    2  506  505 -0.66738332306E+02 -0.15451768050E+02 -0.30047028261E+02  0.74803649926E+02  0.00000000000E+00 0.  1.
<scales pt_clust_3="131.10648" pt_clust_4="43.46549" pt_clust_5="52.00535" pt_clust_6="52.00535"></scales>
<clustering>
<clus scale="   43.465">  1  4  2 -1</clus>
<clus scale="   52.005">  5  6 -1 -1</clus>
<clus scale="  131.106">  1  3  2 -1</clus>
<clus scale="   43.465">  1  3  2 -1</clus>
</clustering>
</event>
<event>
 6    0  0.3446372E+002  0.7417361E+02  0.7546771E-02  0.1346449E+00
         21   -1    0    0  505  501  0.00000000000E+00  0.00000000000E+00  0.69837014901E+03  0.69837014901E+03  0.00000000000E+00 0.  1.
         21   -1    0    0  504  502 -0.00000000000E+00 -0.00000000000E+00 -0.13013721899E+03  0.13013721899E+03  0.00000000000E+00 0. -1.
         21    1    1    2  503  502 -0.87811000434E+02  0.31632859195E+02 -0.58403723358E+02  0.11010179145E+03  0.00000000000E+00 0. -1.
         21    1    1    2  504  506  0.39020602455E+02  0.14282845901E+02  0.85497422323E+00  0.41561257006E+02  0.00000000000E+00 0.  1.
         21    1    1    2  505  503  0.16288365947E+02  0.30284911232E+02  0.58224246198E+03  0.58325703703E+03  0.00000000000E+00 0.  1.
         21    1    1    2  506  501  0.32502032032E+02 -0.76200616329E+02  0.43539217171E+02  0.93587282507E+02  0.00000000000E+00 0.  1.
<scales pt_clust_3="14000.00000" pt_clust_4="46.45694" pt_clust_5="34.38730" pt_clust_6="74.17361"></scales>
<clustering>
<clus scale="   34.387">  1  5  2 -1</clus>
<clus scale="   46.457">  2  4  1 -1</clus>
<clus scale="   74.174">  1  6  2 -1</clus>
<clus scale="   34.387">  1  3  2 -1</clus>
</clustering>
</event>
<event>
 6    0  0.3446372E+002  0.1507968E+03  0.7546771E-02  0.1199497E+00
         21   -1    0    0  505  501  0.00000000000E+00  0.00000000000E+00  0.12862138174E+04  0.12862138174E+04  0.00000000000E+00 0.  1.
         21   -1    0    0  506  502 -0.00000000000E+00 -0.00000000000E+00 -0.10236377419E+03  0.10236377419E+03  0.00000000000E+00 0. -1.
         21    1    1    2  503  504  0.35717950214E+02 -0.22633206826E+03  0.52738977574E+03  0.57501474124E+03  0.00000000000E+00 0.  1.
         21    1    1    2  504  502 -0.82612288521E+01  0.14065181772E+03  0.96006261918E-01  0.14089425448E+03  0.00000000000E+00 0. -1.
         21    1    1    2  505  503 -0.16842760674E+02  0.35234153564E+02  0.57515395641E+03  0.57647827170E+03  0.00000000000E+00 0.  1.
         21    1    1    2  506  501 -0.10613960688E+02  0.50446096975E+02  0.81210304832E+02  0.96190324214E+02  0.00000000000E+00 0.  1.
<scales pt_clust_3="150.79682" pt_clust_4="14000.00000" pt_clust_5="39.05284" pt_clust_6="56.30047"></scales>
<clustering>
<clus scale="   39.053">  1  5  2 -1</clus>
<clus scale="   56.300">  1  6  2 -1</clus>
<clus scale="  150.797">  1  3  2 -1</clus>
<clus scale="   39.053">  1  3  2 -1</clus>
</clustering>
</event>
<event>
 6    0  0.3446372E+002  0.9781339E+02  0.7546771E-02  0.1284962E+00
         21   -1    0    0  505  501  0.00000000000E+00  0.00000000000E+00  0.15001642560E+04  0.15001642560E+04  0.00000000000E+00 0. -1.
         21   -1    0    0  503  502 -0.00000000000E+00 -0.00000000000E+00 -0.27591387707E+02  0.27591387707E+02  0.00000000000E+00 0. -1.
         21    1    1    2  503  504  0.16171309273E+02 -0.26379997947E+02  0.23283194375E+02  0.38723670740E+02  0.00000000000E+00 0. -1.
         21    1    1    2  504  501 -0.58303703606E+02  0.97978063314E+02  0.70811955386E+03  0.71723937797E+03  0.00000000000E+00 0. -1.
         21    1    1    2  505  506  0.89243590091E+02 -0.34500446368E+02  0.67790949913E+03  0.68462835771E+03  0.00000000000E+00 0. -1.
         21    1    1    2  506  502 -0.47111195758E+02 -0.37097618999E+02  0.63260620902E+02  0.87164237265E+02  0.00000000000E+00 0. -1.
<scales pt_clust_3="30.94213" pt_clust_4="97.81339" pt_clust_5="14000.00000" pt_clust_6="64.82925"></scales>
<clustering>
<clus scale="   30.942">  2  3  1 -1</clus>
<clus scale="   64.829">  2  6  1 -1</clus>
<clus scale="   97.813">  2  4  1 -1</clus>
<clus scale="   97.813">  1  3  2 -1</clus>
</clustering>
</event>
<event>
 6    0  0.3446372E+002  0.9016641E+02  0.7546771E-02  0.1302449E+00
         21   -1    0    0  505  501  0.00000000000E+00  0.00000000000E+00  0.19370410712E+04  0.19370410712E+04  0.00000000000E+00 0.  1.
         21   -1    0    0  504  502 -0.00000000000E+00 -0.00000000000E+00 -0.10526739421E+03  0.10526739421E+03  0.00000000000E+00 0.  1.
         21    1    1    2  503  502  0.14052314456E+03 -0.22501620061E+02  0.15308216653E+04  0.15374225340E+04  0.00000000000E+00 0.  1.
         21    1    1    2  504  506 -0.38063482005E+02 -0.23302294813E+02 -0.57516457254E+02  0.72800882282E+02  0.00000000000E+00 0.  1.
         21    1    1    2  505  503 -0.51299006122E+02  0.13508698820E+01  0.36064222911E+03  0.36427493778E+03  0.00000000000E+00 0.  1.
         21    1    1    2  506  501 -0.51160656432E+02  0.44453044992E+02 -0.21737601191E+01  0.67810111404E+02  0.00000000000E+00 0.  1.
<scales pt_clust_3="14000.00000" pt_clust_4="44.62987" pt_clust_5="53.02356" pt_clust_6="90.16641"></scales>
<clustering>
<clus scale="   44.630">  2  4  1 -1</clus>
<clus scale="   53.024">  1  5  2 -1</clus>
<clus scale="   90.166">  2  6  1 -1</clus>
<clus scale="   53.024">  1  3  2 -1</clus>
</clustering>
</event>
<event>
 6    0  0.3446372E+002  0.1332672E+03  0.7546771E-02  0.1222687E+00
         21   -1    0    0  506  501  0.00000000000E+00  0.00000000000E+00  0.11349207254E+04  0.11349207254E+04  0.00000000000E+00 0. -1.
         21   -1    0    0  504  502 -0.00000000000E+00 -0.00000000000E+00 -0.10657825457E+04  0.10657825457E+04  0.00000000000E+00 0.  1.
         21    1    1    2  503  501  0.17538673506E+03  0.72970544296E+01  0.11359382018E+03  0.20908684755E+03  0.00000000000E+00 0. -1.
         21    1    1    2  504  503 -0.32480734950E+02  0.18766569258E+02 -0.20381370333E+03  0.20723708145E+03  0.00000000000E+00 0.  1.
         21    1    1    2  505  502 -0.14135801907E+02 -0.40795236687E+02 -0.80761019387E+03  0.80876343727E+03  0.00000000000E+00 0.  1.
         21    1    1    2  506  505 -0.12877019820E+03  0.14731613000E+02  0.96696825667E+03  0.97561590484E+03  0.00000000000E+00 0. -1.
<scales pt_clust_3="14000.00000" pt_clust_4="37.51243" pt_clust_5="50.30176" pt_clust_6="133.26720"></scales>
<clustering>
<clus scale="   37.512">  2  4  1 -1</clus>
<clus scale="   50.302">  2  5  1 -1</clus>
<clus scale="  133.267">  1  6  2 -1</clus>
<clus scale="  133.267">  1  3  2 -1</clus>
</clustering>
</event>
<event>
 6    0  0.3446372E+002  0.8211450E+02  0.7546771E-02  0.1323156E+00
         21   -1    0    0  505  501  0.00000000000E+00  0.00000000000E+00  0.41895498338E+03  0.41895498338E+03  0.00000000000E+00 0.  1.
         21   -1    0    0  503  502 -0.00000000000E+00 -0.00000000000E+00 -0.54549265615E+03  0.54549265615E+03  0.00000000000E+00 0.  1.
         21    1    1    2  503  504 -0.36811363286E+02 -0.22239463054E+02 -0.78988721328E+02  0.89938247042E+02  0.00000000000E+00 0. -1.
         21    1    1    2  504  506  0.12890261937E+03 -0.19931225972E+02  0.41640168718E+01  0.13050087389E+03  0.00000000000E+00 0. -1.
         21    1    1    2  505  502 -0.44086570092E+02  0.20183734514E+02 -0.39435373980E+03  0.39732339586E+03  0.00000000000E+00 0.  1.
         21    1    1    2  506  501 -0.48004685995E+02  0.21986954512E+02  0.34264077148E+03  0.34668512274E+03  0.00000000000E+00 0.  1.
<scales pt_clust_3="43.00779" pt_clust_4="82.11450" pt_clust_5="14000.00000" pt_clust_6="52.90675"></scales>
<clustering>
<clus scale="   43.008">  2  3  1 -1</clus>
<clus scale="   52.907">  1  6  2 -1</clus>
<clus scale="   82.114">  1  4  2 -1</clus>
<clus scale="   52.907">  1  3  2 -1</clus>
</clustering>
</event>
<event>
 6    0  0.3446372E+002  0.1822791E+03  0.7546771E-02  0.1165615E+00
         21   -1    0    0  503  501  0.00000000000E+00  0.00000000000E+00  0.10569781831E+04  0.10569781831E+04  0.00000000000E+00 0. -1.
         21   -1    0    0  505  502 -0.00000000000E+00 -0.00000000000E+00 -0.38828893579E+03  0.38828893579E+03  0.00000000000E+00 0. -1.
         21    1    1    2  503  502  0.49985453183E+02 -0.19364539373E+03 -0.10345631706E+03  0.22516725690E+03  0.00000000000E+00 0. -1.
         21    1    1    2  504  506  0.11341782565E+03  0.17563759468E+03  0.15726199077E+02  0.20966516444E+03  0.00000000000E+00 0. -1.
         21    1    1    2  505  504 -0.37587668092E+02  0.20297063859E+02 -0.11878376584E+03  0.12623148031E+03  0.00000000000E+00 0.  1.
         21    1    1    2  506  501 -0.12581561074E+03 -0.22892648092E+01  0.87520313112E+03  0.88420321723E+03  0.00000000000E+00 0. -1.
<scales pt_clust_3="14000.00000" pt_clust_4="182.27907" pt_clust_5="42.71772" pt_clust_6="126.46699"></scales>
<clustering>
<clus scale="   42.718">  2  5  1 -1</clus>
<clus scale="  126.467">  1  6  2 -1</clus>
<clus scale="  182.279">  1  4  2 -1</clus>
<clus scale="  126.467">  1  3  2 -1</clus>
</clustering>
</event>
<event>
 6    0  0.3446372E+002  0.3732633E+03  0.7546771E-02  0.1053452E+00
         21   -1    0    0  504  501  0.00000000000E+00  0.00000000000E+00  0.24382673931E+03  0.24382673931E+03  0.00000000000E+00 0.  1.
         21   -1    0    0  506  502 -0.00000000000E+00 -0.00000000000E+00 -0.11942048456E+04  0.11942048456E+04  0.00000000000E+00 0. -1.
         21    1    1    2  503  505  0.17898765539E+02  0.16394171275E+03 -0.24265067635E+03  0.29338814175E+03  0.00000000000E+00 0.  1.
         21    1    1    2  504  502 -0.59421681076E+02 -0.44397295190E+03 -0.59034337490E+03  0.74104535521E+03  0.00000000000E+00 0. -1.
         21    1    1    2  505  501  0.78888844032E+02  0.13057088667E+03  0.64160107803E+02  0.16549539447E+03  0.00000000000E+00 0.  1.
         21    1    1    2  506  503 -0.37365928496E+02  0.14946035248E+03 -0.18154416282E+03  0.23810269345E+03  0.00000000000E+00 0.  1.
<scales pt_clust_3="60.67932" pt_clust_4="367.94572" pt_clust_5="152.55231" pt_clust_6="60.67932"></scales>
<clustering>
<clus scale="   60.679">  3  6 -1 -1</clus>
<clus scale="  152.552">  1  5  2 -1</clus>
<clus scale="  367.946">  1  4  2 -1</clus>
<clus scale="  152.552">  1  3  2 -1</clus>
</clustering>
</event>
<event>
 6    0  0.3446372E+002  0.1315584E+03  0.7546771E-02  0.1225162E+00
         21   -1    0    0  505  501  0.00000000000E+00  0.00000000000E+00  0.16336894771E+03  0.16336894771E+03  0.00000000000E+00 0. -1.
         21   -1    0    0  504  502 -0.00000000000E+00 -0.00000000000E+00 -0.68293860709E+03  0.68293860709E+03  0.00000000000E+00 0. -1.
         21    1    1    2  503  502  0.68374644777E+02  0.10313773190E+03  0.49755306397E+02  0.13337193972E+03  0.00000000000E+00 0. -1.
         21    1    1    2  504  506 -0.76372583619E+01 -0.30622677434E+02 -0.35363982527E+03  0.35504535218E+03  0.00000000000E+00 0. -1.
         21    1    1    2  505  503 -0.22731677203E+02  0.28238583060E+02  0.55396610686E+02  0.66203709845E+02  0.00000000000E+00 0. -1.
         21    1    1    2  506  501 -0.38005709212E+02 -0.10075363752E+03 -0.27108175119E+03  0.29168655306E+03  0.00000000000E+00 0. -1.
<scales pt_clust_3="131.55839" pt_clust_4="31.56067" pt_clust_5="35.94003" pt_clust_6="14000.00000"></scales>
<clustering>
<clus scale="   31.561">  2  4  1 -1</clus>
<clus scale="   35.940">  1  5  2 -1</clus>
<clus scale="  131.558">  1  3  2 -1</clus>
<clus scale="   35.940">  1  3  2 -1</clus>
</clustering>
</event>
<event>
 6    0  0.3446372E+002  0.7563559E+02  0.7546771E-02  0.1341914E+00
         21   -1    0    0  505  501  0.00000000000E+00  0.00000000000E+00  0.31270179414E+03  0.31270179414E+03  0.00000000000E+00 0.  1.
         21   -1    0    0  503  502 -0.00000000000E+00 -0.00000000000E+00 -0.10303301816E+04  0.10303301816E+04  0.00000000000E+00 0.  1.
         21    1    1    2  503  506 -0.48158237086E+02 -0.42990075408E+01 -0.69830717919E+03  0.69997900952E+03  0.00000000000E+00 0.  1.
         21    1    1    2  504  501  0.55548397462E+02  0.18163785339E+02  0.83729276227E+02  0.10210846809E+03  0.00000000000E+00 0.  1.
         21    1    1    2  505  502 -0.91184313461E+02 -0.29255952009E+02  0.20235923340E+03  0.22387440473E+03  0.00000000000E+00 0.  1.
         21    1    1    2  506  504  0.83794153084E+02  0.15391174211E+02 -0.30540971786E+03  0.31707009335E+03  0.00000000000E+00 0.  1.
<scales pt_clust_3="48.34974" pt_clust_4="14000.00000" pt_clust_5="75.63559" pt_clust_6="40.17345"></scales>
<clustering>
<clus scale="   48.350">  2  3  1 -1</clus>
<clus scale="   40.173">  2  6  1 -1</clus>
<clus scale="   75.636">  2  5  1 -1</clus>
<clus scale="   75.636">  1  3  2 -1</clus>
</clustering>
</event>
<event>
 6    0  0.3446372E+002  0.9842564E+02  0.7546771E-02  0.1283642E+00
         21   -1    0    0  506  501  0.00000000000E+00  0.00000000000E+00  0.40182589115E+03  0.40182589115E+03  0.00000000000E+00 0.  1.
         21   -1    0    0  504  502 -0.00000000000E+00 -0.00000000000E+00 -0.86319578264E+03  0.86319578264E+03  0.00000000000E+00 0.  1.
         21    1    1    2  503  502  0.34177029687E+02  0.36299010506E+02 -0.28696286973E+02  0.57525337096E+02  0.00000000000E+00 0.  1.
         21    1    1    2  504  505 -0.47329222632E+02  0.15024337980E+02 -0.78632373712E+03  0.78789009742E+03  0.00000000000E+00 0.  1.
         21    1    1    2  505  501 -0.41455444783E+02  0.47195722558E+02  0.17682233643E+02  0.65258344421E+02  0.00000000000E+00 0.  1.
         21    1    1    2  506  503  0.54607637729E+02 -0.98519071044E+02  0.33596789897E+03  0.35434789486E+03  0.00000000000E+00 0.  1.
<scales pt_clust_3="45.41213" pt_clust_4="49.65668" pt_clust_5="98.42564" pt_clust_6="14000.00000"></scales>
<clustering>
<clus scale="   49.657">  2  4  1 -1</clus>
<clus scale="   45.412">  2  3  1 -1</clus>
<clus scale="   98.426">  2  5  1 -1</clus>
<clus scale="   98.426">  1  3  2 -1</clus>
</clustering>
</event>
<event>
 6    0  0.3446372E+002  0.1051166E+03  0.7546771E-02  0.1269890E+00
         21   -1    0    0  504  501  0.00000000000E+00  0.00000000000E+00  0.27728741743E+02  0.27728741743E+02  0.00000000000E+00 0. -1.
         21   -1    0    0  505  502 -0.00000000000E+00 -0.00000000000E+00 -0.13572637694E+04  0.13572637694E+04  0.00000000000E+00 0.  1.
         21    1    1    2  503  501  0.28479391557E+02  0.17615204353E+02 -0.10829763183E+02  0.35194529951E+02  0.00000000000E+00 0. -1.
         21    1    1    2  504  502 -0.46941846259E+02  0.12530635442E+01 -0.36260477408E+03  0.36563277928E+03  0.00000000000E+00 0. -1.
         21    1    1    2  505  506 -0.22841846560E+02 -0.99743338662E+02 -0.77340229509E+03  0.78014203426E+03  0.00000000000E+00 0.  1.
         21    1    1    2  506  503  0.41304301263E+02  0.80875070765E+02 -0.18269819531E+03  0.20402316766E+03  0.00000000000E+00 0.  1.
<scales pt_clust_3="33.48688" pt_clust_4="44.26799" pt_clust_5="14000.00000" pt_clust_6="105.11655"></scales>
<clustering>
<clus scale="   33.487">  1  3  2 -1</clus>
<clus scale="   44.268">  2  4  1 -1</clus>
<clus scale="  105.117">  1  6  2 -1</clus>
<clus scale="   33.487">  1  3  2 -1</clus>
</clustering>
</event>
<event>
 6    0  0.3446372E+002  0.6158905E+02  0.7546771E-02  0.1391282E+00
         21   -1    0    0  503  501  0.00000000000E+00  0.00000000000E+00  0.13070608510E+04  0.13070608510E+04  0.00000000000E+00 0. -1.
         21   -1    0    0  506  502 -0.00000000000E+00 -0.00000000000E+00 -0.64083744631E+03  0.64083744631E+03  0.00000000000E+00 0.  1.
         21    1    1    2  503  504  0.51174894380E+01  0.43893686181E+02  0.12722633867E+04  0.12730306240E+04  0.00000000000E+00 0. -1.
         21    1    1    2  504  505 -0.55777793731E+02 -0.67155942533E+02 -0.39733881647E+02  0.95915922774E+02  0.00000000000E+00 0.  1.
         21    1    1    2  505  502  0.85706426761E+01 -0.41610291563E+02 -0.17556772603E+03  0.18063471068E+03  0.00000000000E+00 0.  1.
         21    1    1    2  506  501  0.42089661616E+02  0.64872547914E+02 -0.39073837434E+03  0.39831703989E+03  0.00000000000E+00 0.  1.
<scales pt_clust_3="44.15756" pt_clust_4="14000.00000" pt_clust_5="42.48379" pt_clust_6="61.58905"></scales>
<clustering>
<clus scale="   42.484">  2  5  1 -1</clus>
<clus scale="   44.158">  1  3  2 -1</clus>
<clus scale="   61.589">  2  6  1 -1</clus>
<clus scale="   44.158">  1  3  2 -1</clus>
</clustering>
</event>
<event>
 6    0  0.3446372E+002  0.7239686E+02  0.7546771E-02  0.1352127E+00
         21   -1    0    0  506  501  0.00000000000E+00  0.00000000000E+00  0.31766253461E+03  0.31766253461E+03  0.00000000000E+00 0.  1.
         21   -1    0    0  503  502 -0.00000000000E+00 -0.00000000000E+00 -0.16625230443E+03  0.16625230443E+03  0.00000000000E+00 0.  1.
         21    1    1    2  503  504 -0.71598595316E+01 -0.32249556146E+02 -0.25974988437E+02  0.42023772848E+02  0.00000000000E+00 0.  1.
         21    1    1    2  504  501 -0.91296911864E+01 -0.47798139163E+02  0.32455979674E+02  0.58492768657E+02  0.00000000000E+00 0.  1.
         21    1    1    2  505  502  0.73920407463E+02  0.38308877081E+01 -0.97733803638E+02  0.12260015789E+03  0.00000000000E+00 0.  1.
         21    1    1    2  506  505 -0.57630856745E+02  0.76216807601E+02  0.24266304259E+03  0.26079813965E+03  0.00000000000E+00 0.  1.
<scales pt_clust_3="33.03479" pt_clust_4="51.91269" pt_clust_5="72.39686" pt_clust_6="14000.00000"></scales>
<clustering>
<clus scale="   33.035">  2  3  1 -1</clus>
<clus scale="   51.913">  1  4  2 -1</clus>
<clus scale="   72.397">  2  5  1 -1</clus>
<clus scale="   51.913">  1  3  2 -1</clus>
</clustering>
</event>
<event>
 6    0  0.3446372E+002  0.1514591E+03  0.7546771E-02  0.1198691E+00
         21   -1    0    0  504  501  0.00000000000E+00  0.00000000000E+00  0.11074722549E+03  0.11074722549E+03  0.00000000000E+00 0.  1.
         21   -1    0    0  506  502 -0.00000000000E+00 -0.00000000000E+00 -0.44948023710E+03  0.44948023710E+03  0.00000000000E+00 0.  1.
         21    1    1    2  503  502 -0.27262156781E+02  0.50423708835E+02 -0.77357271493E+02  0.96280439643E+02  0.00000000000E+00 0.  1.
         21    1    1    2  504  503 -0.74436748466E+02  0.60506140539E+02 -0.26129313183E+03  0.27834497177E+03  0.00000000000E+00 0.  1.
         21    1    1    2  505  501 -0.49081169316E+01 -0.52757892005E+02  0.29446112986E+02  0.60618135493E+02  0.00000000000E+00 0.  1.
         21    1    1    2  506  505  0.10660702218E+03 -0.58171957369E+02 -0.29528721266E+02  0.12498391569E+03  0.00000000000E+00 0.  1.
<scales pt_clust_3="42.42470" pt_clust_4="42.42470" pt_clust_5="52.98570" pt_clust_6="141.16604"></scales>
<clustering>
<clus scale="   42.425">  3  4 -1 -1</clus>
<clus scale="   52.986">  1  5  2 -1</clus>
<clus scale="  141.166">  1  6  2 -1</clus>
<clus scale="   52.986">  1  3  2 -1</clus>
</clustering>
</event>
<event>
 6    0  0.3446372E+002  0.1285399E+03  0.7546771E-02  0.1229638E+00
         21   -1    0    0  506  501  0.00000000000E+00  0.00000000000E+00  0.64560916038E+03  0.64560916038E+03  0.00000000000E+00 0.  1.
         21   -1    0    0  501  502 -0.00000000000E+00 -0.00000000000E+00 -0.25858097189E+03  0.25858097189E+03  0.00000000000E+00 0. -1.
         21    1    1    2  503  504 -0.14725956449E+02 -0.34938376278E+02 -0.75895504314E+02  0.84839091846E+02  0.00000000000E+00 0. -1.
         21    1    1    2  504  502 -0.87480250737E+02 -0.26940614987E+02 -0.15717775406E+03  0.18188853008E+03  0.00000000000E+00 0. -1.
         21    1    1    2  505  503  0.94608793107E+02  0.10185939494E+02  0.42099360496E+03  0.43161347583E+03  0.00000000000E+00 0.  1.
         21    1    1    2  506  505  0.75974140785E+01  0.51693051771E+02  0.19910784190E+03  0.20584903451E+03  0.00000000000E+00 0.  1.
<scales pt_clust_3="32.47038" pt_clust_4="32.47038" pt_clust_5="118.22500" pt_clust_6="52.24837"></scales>
<clustering>
<clus scale="   32.470">  3  4 -1 -1</clus>
<clus scale="   52.248">  1  6  2 -1</clus>
<clus scale="  118.225">  1  5  2 -1</clus>
<clus scale="   52.248">  1  3  2 -1</clus>
</clustering>
</event>
<event>
 6    0  0.3446372E+002  0.1854464E+03  0.7546771E-02  0.1162634E+00
         21   -1    0    0  505  501  0.00000000000E+00  0.00000000000E+00  0.87904284132E+02  0.87904284132E+02  0.00000000000E+00 0. -1.
         21   -1    0    0  503  502 -0.00000000000E+00 -0.00000000000E+00 -0.21008876130E+04  0.21008876130E+04  0.00000000000E+00 0. -1.
         21    1    1    2  503  506  0.10744196534E+02  0.11249547487E+03 -0.15345456487E+04  0.15387010813E+04  0.00000000000E+00 0. -1.
         21    1    1    2  504  502  0.29804521932E+02  0.50660374623E+02 -0.15397791914E+03  0.16481499527E+03  0.00000000000E+00 0. -1.
         21    1    1    2  505  504  0.69475462897E+02 -0.54707569216E+01 -0.27917157662E+03  0.28773866324E+03  0.00000000000E+00 0. -1.
         21    1    1    2  506  501 -0.11002418136E+03 -0.15768509257E+03 -0.45288184482E+02  0.19753715741E+03  0.00000000000E+00 0. -1.
<scales pt_clust_3="14000.00000" pt_clust_4="58.77740" pt_clust_5="73.85199" pt_clust_6="185.44644"></scales>
<clustering>
<clus scale="   58.777">  2  4  1 -1</clus>
<clus scale="   73.852">  2  5  1 -1</clus>
<clus scale="  185.446">  1  6  2 -1</clus>
<clus scale="  185.446">  1  3  2 -1</clus>
</clustering>
</event>
<event>
 6    0  0.3446372E+002  0.7592909E+02  0.7546771E-02  0.1341018E+00
         21   -1    0    0  503  501  0.00000000000E+00  0.00000000000E+00  0.39927762561E+03  0.39927762561E+03  0.00000000000E+00 0.  1.
         21   -1    0    0  501  502 -0.00000000000E+00 -0.00000000000E+00 -0.95203929142E+03  0.95203929142E+03  0.00000000000E+00 0. -1.
         21    1    1    2  503  505  0.14867325913E+02  0.35792467978E+02  0.35570485334E+03  0.35781011840E+03  0.00000000000E+00 0.  1.
         21    1    1    2  504  502 -0.78066133523E+02  0.91721498556E+01 -0.83672070859E+03  0.84040466069E+03  0.00000000000E+00 0. -1.
         21    1    1    2  505  506  0.12298311385E+02 -0.74826729021E+02 -0.46205433814E+02  0.88798817295E+02  0.00000000000E+00 0. -1.
         21    1    1    2  506  504  0.50900496225E+02  0.29862111188E+02 -0.25540376744E+02  0.64303320635E+02  0.00000000000E+00 0. -1.
<scales pt_clust_3="38.75743" pt_clust_4="75.92909" pt_clust_5="60.22814" pt_clust_6="14000.00000"></scales>
<clustering>
<clus scale="   38.757">  1  3  2 -1</clus>
<clus scale="   60.228">  1  5  2 -1</clus>
<clus scale="   75.929">  2  4  1 -1</clus>
<clus scale="   38.757">  1  3  2 -1</clus>
</clustering>
</event>
<event>
 6    0  0.3446372E+002  0.1316151E+03  0.7546771E-02  0.1225079E+00
         21   -1    0    0  504  501  0.00000000000E+00  0.00000000000E+00  0.16391525312E+03  0.16391525312E+03  0.00000000000E+00 0.  1.
         21   -1    0    0  505  502 -0.00000000000E+00 -0.00000000000E+00 -0.74556573749E+03  0.74556573749E+03  0.00000000000E+00 0. -1.
         21    1    1    2  503  502 -0.10617445324E+02  0.57912392276E+02 -0.62345644053E+02  0.85752869671E+02  0.00000000000E+00 0.  1.
         21    1    1    2  504  503  0.97492089875E+02 -0.80619343487E+02  0.12143585639E+03  0.17535921233E+03  0.00000000000E+00 0.  1.
         21    1    1    2  505  506 -0.32861129281E+02  0.19765519925E+02 -0.38879761243E+03  0.39068416019E+03  0.00000000000E+00 0. -1.
         21    1    1    2  506  501 -0.54013515270E+02  0.29414312864E+01 -0.25194308428E+03  0.25768474841E+03  0.00000000000E+00 0. -1.
<scales pt_clust_3="58.87763" pt_clust_4="124.70662" pt_clust_5="35.43068" pt_clust_6="35.43068"></scales>
<clustering>
<clus scale="   35.431">  5  6 -1 -1</clus>
<clus scale="   58.878">  2  3  1 -1</clus>
<clus scale="  124.707">  1  4  2 -1</clus>
<clus scale="  124.707">  1  3  2 -1</clus>
</clustering>
</event>
<event>
 6    0  0.3446372E+002  0.1571167E+03  0.7546771E-02  0.1191991E+00
         21   -1    0    0  503  501  0.00000000000E+00  0.00000000000E+00  0.10235339121E+04  0.10235339121E+04  0.00000000000E+00 0. -1.
         21   -1    0    0  504  502 -0.00000000000E+00 -0.00000000000E+00 -0.28378146351E+03  0.28378146351E+03  0.00000000000E+00 0. -1.
         21    1    1    2  503  506  0.21910699432E+03 -0.70639507335E+02 -0.87262484363E+02  0.24619617409E+03  0.00000000000E+00 0. -1.
         21    1    1    2  504  505 -0.73914374619E+02 -0.24242079468E+02  0.50708246822E+02  0.92856553285E+02  0.00000000000E+00 0.  1.
         21    1    1    2  505  501 -0.39403098510E+02  0.33481390594E+02  0.83218275312E+03  0.83378758823E+03  0.00000000000E+00 0. -1.
         21    1    1    2  506  502 -0.10578952120E+03  0.61400196210E+02 -0.55876067021E+02  0.13447505997E+03  0.00000000000E+00 0. -1.
<scales pt_clust_3="14000.00000" pt_clust_4="89.51667" pt_clust_5="51.70694" pt_clust_6="157.11665"></scales>
<clustering>
<clus scale="   51.707">  1  5  2 -1</clus>
<clus scale="   89.517">  1  4  2 -1</clus>
<clus scale="  157.117">  2  6  1 -1</clus>
<clus scale="   51.707">  1  3  2 -1</clus>
</clustering>
</event>
<event>
 6    0  0.3446372E+002  0.1799979E+03  0.7546771E-02  0.1167805E+00
         21   -1    0    0  503  501  0.00000000000E+00  0.00000000000E+00  0.16176869997E+03  0.16176869997E+03  0.00000000000E+00 0.  1.
         21   -1    0    0  505  502 -0.00000000000E+00 -0.00000000000E+00 -0.53634847581E+03  0.53634847581E+03  0.00000000000E+00 0. -1.
         21    1    1    2  503  504 -0.28266148094E+02  0.23158976749E+02  0.86729173118E+02  0.94113032051E+02  0.00000000000E+00 0. -1.
         21    1    1    2  504  502 -0.10066977500E+02  0.16365936772E+03 -0.32163406634E+03  0.36101828944E+03  0.00000000000E+00 0. -1.
         21    1    1    2  505  506  0.25193409075E+02 -0.14410071160E+03 -0.75057176081E+02  0.16441807269E+03  0.00000000000E+00 0.  1.
         21    1    1    2  506  501  0.13139716519E+02 -0.42717632871E+02 -0.64617706532E+02  0.78567781601E+02  0.00000000000E+00 0.  1.
<scales pt_clust_3="36.54194" pt_clust_4="170.98751" pt_clust_5="31.08381" pt_clust_6="31.08381"></scales>
<clustering>
<clus scale="   31.084">  5  6 -1 -1</clus>
<clus scale="   36.542">  1  3  2 -1</clus>
<clus scale="  170.988">  2  4  1 -1</clus>
<clus scale="   36.542">  1  3  2 -1</clus>
</clustering>
</event>
<event>
 6    0  0.3446372E+002  0.1437715E+03  0.7546771E-02  0.1208342E+00
         21   -1    0    0  502  501  0.00000000000E+00  0.00000000000E+00  0.10817057000E+04  0.10817057000E+04  0.00000000000E+00 0.  1.
         21   -1    0    0  506  502 -0.00000000000E+00 -0.00000000000E+00 -0.39548343533E+02  0.39548343533E+02  0.00000000000E+00 0. -1.
         21    1    1    2  503  505 -0.12083122609E+03 -0.21934746175E+02  0.17153022856E+03  0.21095956390E+03  0.00000000000E+00 0. -1.
         21    1    1    2  504  501  0.98986520254E+02 -0.25275836516E+02  0.42584633510E+03  0.43792956080E+03  0.00000000000E+00 0.  1.
         21    1    1    2  505  504  0.35546701465E+02 -0.18452023235E+02  0.36897864258E+03  0.37114590638E+03  0.00000000000E+00 0.  1.
         21    1    1    2  506  503 -0.13701995627E+02  0.65662605927E+02  0.75802150185E+02  0.10121901241E+03  0.00000000000E+00 0. -1.
<scales pt_clust_3="133.51099" pt_clust_4="33.39668" pt_clust_5="33.39668" pt_clust_6="67.07699"></scales>
<clustering>
<clus scale="   33.397">  4  5 -1 -1</clus>
<clus scale="   67.077">  2  6  1 -1</clus>
<clus scale="  133.511">  2  3  1 -1</clus>
<clus scale="  143.771">  1  3  2 -1</clus>
</clustering>
</event>
<event>
 6    0  0.3446372E+002  0.8408333E+02  0.7546771E-02  0.1317847E+00
         21   -1    0    0  505  501  0.00000000000E+00  0.00000000000E+00  0.20605316715E+03  0.20605316715E+03  0.00000000000E+00 0.  1.
         21   -1    0    0  506  502 -0.00000000000E+00 -0.00000000000E+00 -0.19697719397E+03  0.19697719397E+03  0.00000000000E+00 0.  1.
         21    1    1    2  503  502 -0.41380643261E+02  0.11256977181E+03 -0.10016774691E+03  0.15626224331E+03  0.00000000000E+00 0.  1.
         21    1    1    2  504  501  0.74025158205E+01 -0.34491779336E+02  0.80131598190E+01  0.36175831884E+02  0.00000000000E+00 0. -1.
         21    1    1    2  505  503  0.38700052505E+02 -0.36915449684E+02  0.14244333985E+03  0.15215304649E+03  0.00000000000E+00 0.  1.
         21    1    1    2  506  504 -0.47219250646E+01 -0.41162542792E+02 -0.41212779576E+02  0.58439239436E+02  0.00000000000E+00 0.  1.
<scales pt_clust_3="84.08333" pt_clust_4="35.27719" pt_clust_5="14000.00000" pt_clust_6="43.00068"></scales>
<clustering>
<clus scale="   35.277">  1  4  2 -1</clus>
<clus scale="   43.001">  2  6  1 -1</clus>
<clus scale="   84.083">  2  3  1 -1</clus>
<clus scale="   35.277">  1  3  2 -1</clus>
</clustering>
</event>
<event>
 6    0  0.3446372E+002  0.1622451E+03  0.7546771E-02  0.1186185E+00
         21   -1    0    0  504  501  0.00000000000E+00  0.00000000000E+00  0.16915251757E+03  0.16915251757E+03  0.00000000000E+00 0. -1.
         21   -1    0    0  503  502 -0.00000000000E+00 -0.00000000000E+00 -0.18496066769E+04  0.18496066769E+04  0.00000000000E+00 0. -1.
         21    1    1    2  503  505  0.14790427060E+03  0.72965944141E+02 -0.13264499155E+04  0.13366634134E+04  0.00000000000E+00 0. -1.
         21    1    1    2  504  506 -0.16923214515E+03 -0.10365321943E+03 -0.12999761569E+03  0.23724015034E+03  0.00000000000E+00 0. -1.
         21    1    1    2  505  501  0.47584966161E+02  0.28734244818E+01  0.10411615295E+03  0.11451095527E+03  0.00000000000E+00 0. -1.
         21    1    1    2  506  502 -0.26257091612E+02  0.27813850809E+02 -0.32812278110E+03  0.33034467550E+03  0.00000000000E+00 0. -1.
<scales pt_clust_3="162.24514" pt_clust_4="14000.00000" pt_clust_5="47.58788" pt_clust_6="38.24977"></scales>
<clustering>
<clus scale="   38.250">  2  6  1 -1</clus>
<clus scale="   47.588">  1  5  2 -1</clus>
<clus scale="  162.245">  2  3  1 -1</clus>
<clus scale="   47.588">  1  3  2 -1</clus>
</clustering>
</event>
<event>
 6    0  0.3446372E+002  0.8755582E+02  0.7546771E-02  0.1308881E+00
         21   -1    0    0  505  501  0.00000000000E+00  0.00000000000E+00  0.25275909837E+03  0.25275909837E+03  0.00000000000E+00 0.  1.
         21   -1    0    0  504  502 -0.00000000000E+00 -0.00000000000E+00 -0.11808363806E+03  0.11808363806E+03  0.00000000000E+00 0.  1.
         21    1    1    2  503  502 -0.11350878600E+03 -0.54365384252E+02  0.24824311153E+01  0.12588090391E+03  0.00000000000E+00 0.  1.
         21    1    1    2  504  506  0.66564203273E+02  0.22216619617E+01  0.12726395831E+02  0.67806268811E+02  0.00000000000E+00 0.  1.
         21    1    1    2  505  503  0.98658021235E+01  0.81453345836E+02  0.62543436438E+02  0.10316812997E+03  0.00000000000E+00 0.  1.
         21    1    1    2  506  501  0.37078780608E+02 -0.29309623546E+02  0.56923196921E+02  0.73987433740E+02  0.00000000000E+00 0.  1.
<scales pt_clust_3="87.55582" pt_clust_4="14000.00000" pt_clust_5="73.35260" pt_clust_6="47.26405"></scales>
<clustering>
<clus scale="   47.264">  1  6  2 -1</clus>
<clus scale="   73.353">  1  5  2 -1</clus>
<clus scale="   87.556">  1  3  2 -1</clus>
<clus scale="   47.264">  1  3  2 -1</clus>
</clustering>
</event>
<event>
 6    0  0.3446372E+002  0.1398765E+03  0.7546771E-02  0.1213495E+00
         21   -1    0    0  502  501  0.00000000000E+00  0.00000000000E+00  0.13987659688E+03  0.13987659688E+03  0.00000000000E+00 0. -1.
         21   -1    0    0  505  502 -0.00000000000E+00 -0.00000000000E+00 -0.91096590977E+03  0.91096590977E+03  0.00000000000E+00 0. -1.
         21    1    1    2  503  504  0.62076136713E+01 -0.76469153946E+02  0.32987958932E+02  0.83512103357E+02  0.00000000000E+00 0. -1.
         21    1    1    2  504  501  0.37643210654E+02  0.13279388558E+02  0.50426665858E+02  0.64313311985E+02  0.00000000000E+00 0. -1.
         21    1    1    2  505  506 -0.15307164986E+03 -0.13172694130E+02 -0.54028840371E+03  0.56170811730E+03  0.00000000000E+00 0. -1.
         21    1    1    2  506  503  0.10922082553E+03  0.76362459517E+02 -0.31421553397E+03  0.34130897401E+03  0.00000000000E+00 0. -1.
<scales pt_clust_3="74.67508" pt_clust_4="39.91683" pt_clust_5="14000.00000" pt_clust_6="139.87651"></scales>
<clustering>
<clus scale="   39.917">  1  4  2 -1</clus>
<clus scale="   74.675">  1  3  2 -1</clus>
<clus scale="  139.877">  1  6  2 -1</clus>
<clus scale="   39.917">  1  3  2 -1</clus>
</clustering>
</event>
<event>
 6    0  0.3446372E+002  0.1029640E+03  0.7546771E-02  0.1274184E+00
         21   -1    0    0  503  501  0.00000000000E+00  0.00000000000E+00  0.31577638180E+04  0.31577638180E+04  0.00000000000E+00 0.  1.
         21   -1    0    0  504  502 -0.00000000000E+00 -0.00000000000E+00 -0.87770549070E+01  0.87770549070E+01  0.00000000000E+00 0.  1.
         21    1    1    2  503  502 -0.84811194998E+02 -0.57020767972E+02  0.14464307879E+04  0.14500366653E+04  0.00000000000E+00 0.  1.
         21    1    1    2  504  505  0.56002975259E+02 -0.31370210466E+02  0.19297738105E+03  0.20337328472E+03  0.00000000000E+00 0.  1.
         21    1    1    2  505  506  0.25131944395E+02  0.50212806454E+02  0.56731910725E+03  0.57009114185E+03  0.00000000000E+00 0. -1.
         21    1    1    2  506  501  0.36762753451E+01  0.38178171983E+02  0.94225948694E+03  0.94303978100E+03  0.00000000000E+00 0.  1.
<scales pt_clust_3="92.23235" pt_clust_4="64.19052" pt_clust_5="37.82682" pt_clust_6="37.82682"></scales>
<clustering>
<clus scale="   37.827">  5  6 -1 -1</clus>
<clus scale="   64.191">  2  4  1 -1</clus>
<clus scale="   92.232">  2  3  1 -1</clus>
<clus scale="  102.964">  1  3  2 -1</clus>
</clustering>
</event>
<event>
 6    0  0.3446372E+002  0.1821117E+03  0.7546771E-02  0.1165775E+00
         21   -1    0    0  503  501  0.00000000000E+00  0.00000000000E+00  0.35705231398E+03  0.35705231398E+03  0.00000000000E+00 0. -1.
         21   -1    0    0  505  502 -0.00000000000E+00 -0.00000000000E+00 -0.21920697543E+03  0.21920697543E+03  0.00000000000E+00 0. -1.
         21    1    1    2  503  504 -0.81798790982E+02  0.19687440154E+02  0.16644717593E+03  0.18650281467E+03  0.00000000000E+00 0. -1.
         21    1    1    2  504  506  0.43895232943E+01  0.58297326541E+02 -0.37817342819E+02  0.69627563611E+02  0.00000000000E+00 0. -1.
         21    1    1    2  505  501  0.10738779415E+03 -0.18077095200E+03  0.25595227252E+02  0.21181452046E+03  0.00000000000E+00 0. -1.
         21    1    1    2  506  502 -0.29978526467E+02  0.10278618530E+03 -0.16379721804E+02  0.10831439066E+03  0.00000000000E+00 0. -1.
<scales pt_clust_3="84.13464" pt_clust_4="34.04982" pt_clust_5="176.18550" pt_clust_6="34.04982"></scales>
<clustering>
<clus scale="   34.050">  4  6 -1 -1</clus>
<clus scale="   84.135">  1  3  2 -1</clus>
<clus scale="  176.186">  1  5  2 -1</clus>
<clus scale="   84.135">  1  3  2 -1</clus>
</clustering>
</event>
<event>
 6    0  0.3446372E+002  0.1688555E+03  0.7546771E-02  0.1179047E+00
         21   -1    0    0  503  501  0.00000000000E+00  0.00000000000E+00  0.67441865487E+02  0.67441865487E+02  0.00000000000E+00 0.  1.
         21   -1    0    0  504  502 -0.00000000000E+00 -0.00000000000E+00 -0.16788153157E+04  0.16788153157E+04  0.00000000000E+00 0.  1.
         21    1    1    2  503  505 -0.33604725860E+02  0.11342358752E+01 -0.38816362089E+02  0.51354396666E+02  0.00000000000E+00 0.  1.
         21    1    1    2  504  506  0.13235509087E+02 -0.32386200032E+02 -0.92792022402E+02  0.99168563944E+02  0.00000000000E+00 0.  1.
         21    1    1    2  505  502  0.12011703879E+02 -0.13903350622E+03 -0.14009923142E+04  0.14079254460E+04  0.00000000000E+00 0.  1.
         21    1    1    2  506  501  0.83575128935E+01  0.17028547038E+03 -0.78772751507E+02  0.18780877462E+03  0.00000000000E+00 0.  1.
<scales pt_clust_3="33.62386" pt_clust_4="34.30633" pt_clust_5="168.85547" pt_clust_6="14000.00000"></scales>
<clustering>
<clus scale="   33.624">  1  3  2 -1</clus>
<clus scale="   34.306">  2  4  1 -1</clus>
<clus scale="  168.855">  2  5  1 -1</clus>
<clus scale="   33.624">  1  3  2 -1</clus>
</clustering>
</event>
<event>
 6    0  0.3446372E+002  0.7906990E+02  0.7546771E-02  0.1331712E+00
         21   -1    0    0  504  501  0.00000000000E+00  0.00000000000E+00  0.77575218884E+03  0.77575218884E+03  0.00000000000E+00 0. -1.
         21   -1    0    0  503  502 -0.00000000000E+00 -0.00000000000E+00 -0.98946344744E+02  0.98946344744E+02  0.00000000000E+00 0. -1.
         21    1    1    2  503  505 -0.63578545592E+02 -0.17120177091E+02  0.13322000061E+03  0.14860316446E+03  0.00000000000E+00 0. -1.
         21    1    1    2  504  506  0.61568477461E+02  0.95888595755E-01  0.85242861765E+02  0.10515242315E+03  0.00000000000E+00 0. -1.
         21    1    1    2  505  501 -0.47435615178E+02 -0.49779167923E+02  0.51550544895E+03  0.52007112114E+03  0.00000000000E+00 0. -1.
         21    1    1    2  506  502  0.49445683310E+02  0.66803456418E+02 -0.57162467231E+02  0.10087182484E+03  0.00000000000E+00 0. -1.
<scales pt_clust_3="14000.00000" pt_clust_4="61.56855" pt_clust_5="49.70974" pt_clust_6="79.06990"></scales>
<clustering>
<clus scale="   61.569">  1  4  2 -1</clus>
<clus scale="   49.710">  1  5  2 -1</clus>
<clus scale="   79.070">  2  6  1 -1</clus>
<clus scale="   61.569">  1  3  2 -1</clus>
</clustering>
</event>
<event>
 6    0  0.3446372E+002  0.7264113E+02  0.7546771E-02  0.1351335E+00
         21   -1    0    0  504  501  0.00000000000E+00  0.00000000000E+00  0.11051127650E+04  0.11051127650E+04  0.00000000000E+00 0.  1.
         21   -1    0    0  506  502 -0.00000000000E+00 -0.00000000000E+00 -0.22845609134E+03  0.22845609134E+03  0.00000000000E+00 0.  1.
         21    1    1    2  503  501  0.35621175346E+02  0.36297508381E+02  0.96051887945E+03  0.96186428099E+03  0.00000000000E+00 0.  1.
         21    1    1    2  504  502 -0.64693576774E+02 -0.10115277607E+03  0.10293053297E+03  0.15815131236E+03  0.00000000000E+00 0. -1.
         21    1    1    2  505  503 -0.12057273140E+02  0.52189376592E+02 -0.14041286694E+03  0.15028267387E+03  0.00000000000E+00 0.  1.
         21    1    1    2  506  505  0.41129674568E+02  0.12665891101E+02 -0.46379871873E+02  0.63270589079E+02  0.00000000000E+00 0.  1.
<scales pt_clust_3="51.00314" pt_clust_4="14000.00000" pt_clust_5="72.64113" pt_clust_6="43.03574"></scales>
<clustering>
<clus scale="   43.036">  2  6  1 -1</clus>
<clus scale="   51.003">  1  3  2 -1</clus>
<clus scale="   72.641">  2  5  1 -1</clus>
<clus scale="   51.003">  1  3  2 -1</clus>
</clustering>
</event>
<event>
 6    0  0.3446372E+002  0.1272779E+03  0.7546771E-02  0.1231552E+00
         21   -1    0    0  505  501  0.00000000000E+00  0.00000000000E+00  0.47483213026E+03  0.47483213026E+03  0.00000000000E+00 0. -1.
         21   -1    0    0  503  502 -0.00000000000E+00 -0.00000000000E+00 -0.32702091332E+03  0.32702091332E+03  0.00000000000E+00 0. -1.
         21    1    1    2  503  501 -0.79565112255E+02 -0.67716505598E+02 -0.10076325996E+03  0.14515290826E+03  0.00000000000E+00 0.  1.
         21    1    1    2  504  506 -0.60799340908E+02  0.57606388628E+02  0.22735186957E+03  0.24228893591E+03  0.00000000000E+00 0. -1.
         21    1    1    2  505  504 -0.26943262260E+02 -0.42675516014E+02  0.17437365133E+03  0.18153046391E+03  0.00000000000E+00 0. -1.
         21    1    1    2  506  502  0.16730771542E+03  0.52785632985E+02 -0.15315104400E+03  0.23288073550E+03  0.00000000000E+00 0. -1.
<scales pt_clust_3="127.27790" pt_clust_4="85.50452" pt_clust_5="50.46919" pt_clust_6="14000.00000"></scales>
<clustering>
<clus scale="   50.469">  1  5  2 -1</clus>
<clus scale="   85.505">  1  4  2 -1</clus>
<clus scale="  127.278">  2  3  1 -1</clus>
<clus scale="   50.469">  1  3  2 -1</clus>
</clustering>
</event>
<event>
 6    0  0.3446372E+002  0.7569666E+02  0.7546771E-02  0.1341727E+00
         21   -1    0    0  506  501  0.00000000000E+00  0.00000000000E+00  0.82116229593E+02  0.82116229593E+02  0.00000000000E+00 0. -1.
         21   -1    0    0  504  502 -0.00000000000E+00 -0.00000000000E+00 -0.17975881500E+04  0.17975881500E+04  0.00000000000E+00 0. -1.
         21    1    1    2  503  502 -0.35238388557E+02 -0.40447158620E+02 -0.13328228919E+04  0.13339020121E+04  0.00000000000E+00 0. -1.
         21    1    1    2  504  501  0.73118257811E+01 -0.62932947506E+02 -0.32888593912E+03  0.33493279867E+03  0.00000000000E+00 0.  1.
         21    1    1    2  505  503 -0.23298613135E+02  0.65635946346E+02 -0.10715926661E+03  0.12780458226E+03  0.00000000000E+00 0. -1.
         21    1    1    2  506  505  0.51225175911E+02  0.37744159780E+02  0.53396177250E+02  0.83064986544E+02  0.00000000000E+00 0. -1.
<scales pt_clust_3="53.64435" pt_clust_4="75.69666" pt_clust_5="14000.00000" pt_clust_6="61.95681"></scales>
<clustering>
<clus scale="   53.644">  2  3  1 -1</clus>
<clus scale="   61.957">  1  6  2 -1</clus>
<clus scale="   75.697">  2  4  1 -1</clus>
<clus scale="   61.957">  1  3  2 -1</clus>
</clustering>
</event>
<event>
 6    0  0.3446372E+002  0.1012502E+03  0.7546771E-02  0.1277689E+00
         21   -1    0    0  502  501  0.00000000000E+00  0.00000000000E+00  0.39247993692E+03  0.39247993692E+03  0.00000000000E+00 0.  1.
         21   -1    0    0  506  502 -0.00000000000E+00 -0.00000000000E+00 -0.72552876983E+02  0.72552876983E+02  0.00000000000E+00 0.  1.
         21    1    1    2  503  505 -0.89149993644E+02 -0.30209416191E+02  0.21275449177E+03  0.23264738116E+03  0.00000000000E+00 0.  1.
         21    1    1    2  504  503  0.93878692635E+02 -0.35615101864E+02  0.20167410299E+02  0.10241273773E+03  0.00000000000E+00 0.  1.
         21    1    1    2  505  501 -0.24225592246E+02  0.27912677468E+02  0.78124855575E+02  0.86426210965E+02  0.00000000000E+00 0.  1.
         21    1    1    2  506  504  0.19496893255E+02  0.37911840588E+02  0.88803022894E+01  0.43546484039E+02  0.00000000000E+00 0.  1.
<scales pt_clust_3="101.25018" pt_clust_4="14000.00000" pt_clust_5="36.95940" pt_clust_6="43.88863"></scales>
<clustering>
<clus scale="   36.959">  1  5  2 -1</clus>
<clus scale="   43.889">  2  6  1 -1</clus>
<clus scale="  101.250">  1  3  2 -1</clus>
<clus scale="   36.959">  1  3  2 -1</clus>
</clustering>
</event>
<event>
 6    0  0.3446372E+002  0.9611735E+02  0.7546771E-02  0.1288679E+00
         21   -1    0    0  503  501  0.00000000000E+00  0.00000000000E+00  0.23508783766E+03  0.23508783766E+03  0.00000000000E+00 0.  1.
         21   -1    0    0  505  502 -0.00000000000E+00 -0.00000000000E+00 -0.29768911362E+03  0.29768911362E+03  0.00000000000E+00 0.  1.
         21    1    1    2  503  504  0.28485204866E+02 -0.85996359478E+02  0.15588957273E+03  0.18030069225E+03  0.00000000000E+00 0.  1.
         21    1    1    2  504  506 -0.13778125821E+02 -0.38067264089E+02 -0.45597936144E+02  0.60976430913E+02  0.00000000000E+00 0.  1.
         21    1    1    2  505  501  0.11042551113E+02  0.15171339700E+03 -0.45726139884E+02  0.15883882597E+03  0.00000000000E+00 0.  1.
         21    1    1    2  506  502 -0.25749630158E+02 -0.27649773437E+02 -0.12716677266E+03  0.13266100215E+03  0.00000000000E+00 0.  1.
<scales pt_clust_3="14000.00000" pt_clust_4="51.73903" pt_clust_5="96.11735" pt_clust_6="37.78298"></scales>
<clustering>
<clus scale="   37.783">  2  6  1 -1</clus>
<clus scale="   51.739">  2  4  1 -1</clus>
<clus scale="   96.117">  2  5  1 -1</clus>
<clus scale="   96.117">  1  3  2 -1</clus>
</clustering>
</event>
<event>
 6    0  0.3446372E+002  0.1231893E+03  0.7546771E-02  0.1237927E+00
         21   -1    0    0  504  501  0.00000000000E+00  0.00000000000E+00  0.62540015979E+02  0.62540015979E+02  0.00000000000E+00 0. -1.
         21   -1    0    0  506  502 -0.00000000000E+00 -0.00000000000E+00 -0.35649203804E+03  0.35649203804E+03  0.00000000000E+00 0.  1.
         21    1    1    2  503  502  0.61084771025E+02 -0.27253787953E+02 -0.16122304680E+03  0.17454795624E+03  0.00000000000E+00 0.  1.
         21    1    1    2  504  503  0.29475110732E+02 -0.51816404872E+02 -0.75265223456E+02  0.96013414835E+02  0.00000000000E+00 0.  1.
         21    1    1    2  505  501 -0.21768866810E+01  0.36730500579E+02 -0.44879723417E+01  0.37067646326E+02  0.00000000000E+00 0. -1.
         21    1    1    2  506  505 -0.88382995075E+02  0.42339692245E+02 -0.52975779470E+02  0.11140303662E+03  0.00000000000E+00 0. -1.
<scales pt_clust_3="47.82221" pt_clust_4="47.82221" pt_clust_5="36.79495" pt_clust_6="111.13968"></scales>
<clustering>
<clus scale="   36.795">  1  5  2 -1</clus>
<clus scale="   47.822">  3  4 -1 -1</clus>
<clus scale="  111.140">  1  6  2 -1</clus>
<clus scale="   36.795">  1  3  2 -1</clus>
</clustering>
</event>
<event>
 6    0  0.3446372E+002  0.1160039E+03  0.7546771E-02  0.1249839E+00
         21   -1    0    0  504  501  0.00000000000E+00  0.00000000000E+00  0.76752276101E+03  0.76752276101E+03  0.00000000000E+00 0. -1.
         21   -1    0    0  505  502 -0.00000000000E+00 -0.00000000000E+00 -0.10121838952E+03  0.10121838952E+03  0.00000000000E+00 0. -1.
         21    1    1    2  503  502  0.40144959159E+02 -0.16915101735E+03  0.37126460822E+02  0.17776967826E+03  0.00000000000E+00 0. -1.
         21    1    1    2  504  503  0.46205200283E+02  0.62764143897E+01  0.10082377995E+03  0.11108442067E+03  0.00000000000E+00 0.  1.
         21    1    1    2  505  506 -0.62170851349E+02  0.59168270295E+02  0.74319295591E+02  0.11353174298E+03  0.00000000000E+00 0. -1.
         21    1    1    2  506  501 -0.24179308094E+02  0.10370633267E+03  0.45403483512E+03  0.46635530862E+03  0.00000000000E+00 0. -1.
<scales pt_clust_3="14000.00000" pt_clust_4="46.62954" pt_clust_5="81.85170" pt_clust_6="116.00387"></scales>
<clustering>
<clus scale="   46.630">  1  4  2 -1</clus>
<clus scale="   81.852">  2  5  1 -1</clus>
<clus scale="  116.004">  1  6  2 -1</clus>
<clus scale="   46.630">  1  3  2 -1</clus>
</clustering>
</event>
<event>
 6    0  0.3446372E+002  0.6847732E+02  0.7546771E-02  0.1365349E+00
         21   -1    0    0  506  501  0.00000000000E+00  0.00000000000E+00  0.79941728272E+02  0.79941728272E+02  0.00000000000E+00 0.  1.
         21   -1    0    0  503  502 -0.00000000000E+00 -0.00000000000E+00 -0.32958800150E+03  0.32958800150E+03  0.00000000000E+00 0.  1.
         21    1    1    2  503  505  0.41295589827E+02  0.50459299563E+02 -0.11346946699E+03  0.13086934931E+03  0.00000000000E+00 0.  1.
         21    1    1    2  504  502 -0.33619163583E+02  0.10978036220E+02 -0.94917284971E+02  0.10129193663E+03  0.00000000000E+00 0.  1.
         21    1    1    2  505  501  0.49591344606E+02 -0.87053969344E+02 -0.53305448965E+02  0.11348641297E+03  0.00000000000E+00 0.  1.
         21    1    1    2  506  504 -0.57267770850E+02  0.25616633561E+02  0.12045927697E+02  0.63882030864E+02  0.00000000000E+00 0.  1.
<scales pt_clust_3="60.98472" pt_clust_4="35.36616" pt_clust_5="68.47732" pt_clust_6="14000.00000"></scales>
<clustering>
<clus scale="   35.366">  2  4  1 -1</clus>
<clus scale="   60.985">  2  3  1 -1</clus>
<clus scale="   68.477">  2  5  1 -1</clus>
<clus scale="   68.477">  1  3  2 -1</clus>
</clustering>
</event>
<event>
 6    0  0.3446372E+002  0.2025187E+03  0.7546771E-02  0.1147631E+00
         21   -1    0    0  505  501  0.00000000000E+00  0.00000000000E+00  0.74985924123E+03  0.74985924123E+03  0.00000000000E+00 0.  1.
         21   -1    0    0  504  502 -0.00000000000E+00 -0.00000000000E+00 -0.16476143823E+03  0.16476143823E+03  0.00000000000E+00 0.  1.
         21    1    1    2  503  501 -0.33710876127E+02 -0.10723083657E+02  0.66150671013E+02  0.75015458192E+02  0.00000000000E+00 0.  1.
         21    1    1    2  504  506 -0.10929659717E+03 -0.11499236584E+03 -0.56134888012E+02  0.16828581642E+03  0.00000000000E+00 0.  1.
         21    1    1    2  505  502  0.18354485799E+03  0.12394071013E+03  0.58833003644E+03  0.62863522515E+03  0.00000000000E+00 0.  1.
         21    1    1    2  506  503 -0.40537384687E+02  0.17747393663E+01 -0.13248016442E+02  0.42684179701E+02  0.00000000000E+00 0.  1.
<scales pt_clust_3="35.37524" pt_clust_4="33.64496" pt_clust_5="191.27971" pt_clust_6="33.64496"></scales>
<clustering>
<clus scale="   33.645">  4  6 -1 -1</clus>
<clus scale="   35.375">  1  3  2 -1</clus>
<clus scale="  191.280">  1  5  2 -1</clus>
<clus scale="   35.375">  1  3  2 -1</clus>
</clustering>
</event>
<event>
 6    0  0.3446372E+002  0.1031735E+03  0.7546771E-02  0.1273761E+00
         21   -1    0    0  506  501  0.00000000000E+00  0.00000000000E+00  0.14059654053E+03  0.14059654053E+03  0.00000000000E+00 0.  1.
         21   -1    0    0  503  502 -0.00000000000E+00 -0.00000000000E+00 -0.78474157059E+03  0.78474157059E+03  0.00000000000E+00 0.  1.
         21    1    1    2  503  505  0.12525889052E+02 -0.36596050422E+02 -0.23618482895E+03  0.23933123955E+03  0.00000000000E+00 0.  1.
         21    1    1    2  504  502  0.30922249760E+02  0.15615314521E+02 -0.37543931971E+03  0.37703409178E+03  0.00000000000E+00 0.  1.
         21    1    1    2  505  501  0.86547888583E+01 -0.74015954111E+02 -0.13858654222E+03  0.15735150624E+03  0.00000000000E+00 0.  1.
         21    1    1    2  506  504 -0.52102927670E+02  0.94996690012E+02  0.10606566081E+03  0.15162127354E+03  0.00000000000E+00 0.  1.
<scales pt_clust_3="41.08940" pt_clust_4="34.64136" pt_clust_5="103.17350" pt_clust_6="14000.00000"></scales>
<clustering>
<clus scale="   34.641">  2  4  1 -1</clus>
<clus scale="   41.089">  2  3  1 -1</clus>
<clus scale="  103.173">  2  5  1 -1</clus>
<clus scale="  103.173">  1  3  2 -1</clus>
</clustering>
</event>
<event>
 6    0  0.3446372E+002  0.1479922E+03  0.7546771E-02  0.1202962E+00
         21   -1    0    0  503  501  0.00000000000E+00  0.00000000000E+00  0.10417413288E+03  0.10417413288E+03  0.00000000000E+00 0. -1.
         21   -1    0    0  504  502 -0.00000000000E+00 -0.00000000000E+00 -0.42670293896E+03  0.42670293896E+03  0.00000000000E+00 0.  1.
         21    1    1    2  503  502 -0.13237816250E+02 -0.60696109580E+02  0.23371749187E+02  0.66373911722E+02  0.00000000000E+00 0. -1.
         21    1    1    2  504  505  0.31038792163E+02 -0.13995273524E+02 -0.11664748956E+03  0.12151506540E+03  0.00000000000E+00 0.  1.
         21    1    1    2  505  506  0.88258600944E+02 -0.39411409918E+02 -0.11243450292E+03  0.14827122890E+03  0.00000000000E+00 0.  1.
         21    1    1    2  506  501 -0.10605957686E+03  0.11410279302E+03 -0.11681856278E+03  0.19471686581E+03  0.00000000000E+00 0.  1.
<scales pt_clust_3="62.12292" pt_clust_4="33.68882" pt_clust_5="33.68882" pt_clust_6="136.67383"></scales>
<clustering>
<clus scale="   33.689">  4  5 -1 -1</clus>
<clus scale="   62.123">  1  3  2 -1</clus>
<clus scale="  136.674">  1  6  2 -1</clus>
<clus scale="   62.123">  1  3  2 -1</clus>
</clustering>
</event>
<event>
 6    0  0.3446372E+002  0.9785615E+02  0.7546771E-02  0.1284870E+00
         21   -1    0    0  504  501  0.00000000000E+00  0.00000000000E+00  0.94913085545E+02  0.94913085545E+02  0.00000000000E+00 0. -1.
         21   -1    0    0  505  502 -0.00000000000E+00 -0.00000000000E+00 -0.29650312471E+03  0.29650312471E+03  0.00000000000E+00 0. -1.
         21    1    1    2  503  502  0.52908536063E+02 -0.11884743042E+02 -0.87360926969E+02  0.10282262332E+03  0.00000000000E+00 0. -1.
         21    1    1    2  504  506 -0.90876826892E+02 -0.16766407122E+02  0.35102917625E+02  0.98853046991E+02  0.00000000000E+00 0. -1.
         21    1    1    2  505  501  0.18493771711E+02  0.66631107633E+02 -0.63503785201E+02  0.93885328094E+02  0.00000000000E+00 0. -1.
         21    1    1    2  506  503  0.19474519117E+02 -0.37979957468E+02 -0.85828244620E+02  0.95855211849E+02  0.00000000000E+00 0. -1.
<scales pt_clust_3="37.14111" pt_clust_4="88.44902" pt_clust_5="69.15001" pt_clust_6="37.14111"></scales>
<clustering>
<clus scale="   37.141">  3  6 -1 -1</clus>
<clus scale="   69.150">  2  5  1 -1</clus>
<clus scale="   88.449">  1  4  2 -1</clus>
<clus scale="   88.449">  1  3  2 -1</clus>
</clustering>
</event>
<event>
 6    0  0.3446372E+002  0.8231079E+02  0.7546771E-02  0.1322619E+00
         21   -1    0    0  503  501  0.00000000000E+00  0.00000000000E+00  0.26709991711E+03  0.26709991711E+03  0.00000000000E+00 0. -1.
         21   -1    0    0  505  502 -0.00000000000E+00 -0.00000000000E+00 -0.53170935796E+03  0.53170935796E+03  0.00000000000E+00 0. -1.
         21    1    1    2  503  504  0.22627153806E+02 -0.30440508708E+02  0.32304136675E+02  0.49821380010E+02  0.00000000000E+00 0. -1.
         21    1    1    2  504  502 -0.33751865895E+02 -0.11217348591E+03 -0.15347463662E+03  0.19307134297E+03  0.00000000000E+00 0. -1.
         21    1    1    2  505  506 -0.21503866341E+02  0.74685947000E+02 -0.33823640207E+03  0.34705081852E+03  0.00000000000E+00 0. -1.
         21    1    1    2  506  501  0.32628578430E+02  0.67928047615E+02  0.19479746116E+03  0.20886573357E+03  0.00000000000E+00 0. -1.
<scales pt_clust_3="37.92905" pt_clust_4="14000.00000" pt_clust_5="82.31079" pt_clust_6="66.72057"></scales>
<clustering>
<clus scale="   37.929">  1  3  2 -1</clus>
<clus scale="   66.721">  1  6  2 -1</clus>
<clus scale="   82.311">  2  5  1 -1</clus>
<clus scale="   37.929">  1  3  2 -1</clus>
</clustering>
</event>
<event>
 6    0  0.3446372E+002  0.9025653E+02  0.7546771E-02  0.1302232E+00
         21   -1    0    0  506  501  0.00000000000E+00  0.00000000000E+00  0.63559336782E+03  0.63559336782E+03  0.00000000000E+00 0.  1.
         21   -1    0    0  504  502 -0.00000000000E+00 -0.00000000000E+00 -0.31402364826E+03  0.31402364826E+03  0.00000000000E+00 0. -1.
         21    1    1    2  503  502  0.23953885192E+02 -0.25351275586E+02 -0.36120171429E+02  0.50210980608E+02  0.00000000000E+00 0. -1.
         21    1    1    2  504  501 -0.11869603692E+03  0.13048023130E+02  0.33825793687E+03  0.35871636699E+03  0.00000000000E+00 0.  1.
         21    1    1    2  505  503  0.50389357275E+02 -0.27701916214E+02 -0.25419593084E+03  0.26061860015E+03  0.00000000000E+00 0. -1.
         21    1    1    2  506  505  0.44352794454E+02  0.40005168669E+02  0.27362788495E+03  0.28007106833E+03  0.00000000000E+00 0.  1.
<scales pt_clust_3="34.87801" pt_clust_4="14000.00000" pt_clust_5="90.25653" pt_clust_6="59.74030"></scales>
<clustering>
<clus scale="   34.878">  2  3  1 -1</clus>
<clus scale="   59.740">  1  6  2 -1</clus>
<clus scale="   90.257">  2  5  1 -1</clus>
<clus scale="   59.740">  1  3  2 -1</clus>
</clustering>
</event>
<event>
 6    0  0.3446372E+002  0.1212937E+03  0.7546771E-02  0.1240978E+00
         21   -1    0    0  503  501  0.00000000000E+00  0.00000000000E+00  0.20347586759E+02  0.20347586759E+02  0.00000000000E+00 0. -1.
         21   -1    0    0  506  502 -0.00000000000E+00 -0.00000000000E+00 -0.13140803453E+04  0.13140803453E+04  0.00000000000E+00 0. -1.
         21    1    1    2  503  505 -0.22894565101E+02  0.35030451992E+02 -0.39503212763E+02  0.57548218882E+02  0.00000000000E+00 0. -1.
         21    1    1    2  504  502 -0.52617809979E+02  0.96962834610E+00 -0.37603847831E+03  0.37970318839E+03  0.00000000000E+00 0. -1.
         21    1    1    2  505  504 -0.42343904352E+02  0.23343816242E+02 -0.16749796915E+03  0.17433734443E+03  0.00000000000E+00 0. -1.
         21    1    1    2  506  501  0.11785627943E+03 -0.59343896580E+02 -0.71069309834E+03  0.72283918038E+03  0.00000000000E+00 0. -1.
<scales pt_clust_3="41.84846" pt_clust_4="42.67065" pt_clust_5="42.67065" pt_clust_6="113.10164"></scales>
<clustering>
<clus scale="   41.848">  1  3  2 -1</clus>
<clus scale="   42.671">  4  5 -1 -1</clus>
<clus scale="  113.102">  1  6  2 -1</clus>
<clus scale="   41.848">  1  3  2 -1</clus>
</clustering>
</event>
<event>
 6    0  0.4330866E+002  0.8364305E+02  0.7546771E-02  0.1319020E+00
         21   -1    0    0  504  501  0.00000000000E+00  0.00000000000E+00  0.68215766146E+03  0.68215766146E+03  0.00000000000E+00 0.  1.
         21   -1    0    0  506  502 -0.00000000000E+00 -0.00000000000E+00 -0.42342719084E+03  0.42342719084E+03  0.00000000000E+00 0. -1.
         21    1    1    2  503  502  0.11427683578E+03 -0.10825209747E+02 -0.38356575426E+03  0.40037366073E+03  0.00000000000E+00 0. -1.
         21    1    1    2  504  503 -0.34582831632E+02  0.37089658869E+02  0.54119092973E+02  0.74165296891E+02  0.00000000000E+00 0.  1.
         21    1    1    2  505  501 -0.49032268388E+02 -0.31670988000E+02  0.59607405046E+03  0.59892527786E+03  0.00000000000E+00 0.  1.
         21    1    1    2  506  505 -0.30661735756E+02  0.54065388785E+01 -0.78969185579E+01  0.32120616820E+02  0.00000000000E+00 0.  1.
<scales pt_clust_3="14000.00000" pt_clust_4="51.33097" pt_clust_5="83.64305" pt_clust_6="31.13475"></scales>
<clustering>
<clus scale="   31.135">  2  6  1 -1</clus>
<clus scale="   51.331">  1  4  2 -1</clus>
<clus scale="   83.643">  1  5  2 -1</clus>
<clus scale="   51.331">  1  3  2 -1</clus>
</clustering>
</event>
<event>
 6    0  0.3446372E+002  0.9853095E+02  0.7546771E-02  0.1283416E+00
         21   -1    0    0  506  501  0.00000000000E+00  0.00000000000E+00  0.23772846305E+03  0.23772846305E+03  0.00000000000E+00 0.  1.
         21   -1    0    0  504  502 -0.00000000000E+00 -0.00000000000E+00 -0.10012435414E+04  0.10012435414E+04  0.00000000000E+00 0.  1.
         21    1    1    2  503  505 -0.40459441985E+02  0.46371773093E+02 -0.94956449285E+02  0.11315491614E+03  0.00000000000E+00 0.  1.
         21    1    1    2  504  501  0.10056730216E+03 -0.16604735753E+02  0.19357631462E+02  0.10375074654E+03  0.00000000000E+00 0.  1.
         21    1    1    2  505  502 -0.95264022331E+02 -0.26151102564E+02 -0.85022985325E+03  0.85594971667E+03  0.00000000000E+00 0.  1.
         21    1    1    2  506  503  0.35156162161E+02 -0.36159347764E+01  0.16231359277E+03  0.16611662506E+03  0.00000000000E+00 0.  1.
<scales pt_clust_3="58.41931" pt_clust_4="98.53095" pt_clust_5="14000.00000" pt_clust_6="35.34163"></scales>
<clustering>
<clus scale="   35.342">  1  6  2 -1</clus>
<clus scale="   58.419">  1  3  2 -1</clus>
<clus scale="   98.531">  1  4  2 -1</clus>
<clus scale="   35.342">  1  3  2 -1</clus>
</clustering>
</event>
<event>
 6    0  0.3446372E+002  0.9651958E+02  0.7546771E-02  0.1287790E+00
         21   -1    0    0  503  501  0.00000000000E+00  0.00000000000E+00  0.24124472082E+04  0.24124472082E+04  0.00000000000E+00 0. -1.
         21   -1    0    0  505  502 -0.00000000000E+00 -0.00000000000E+00 -0.20307859650E+02  0.20307859650E+02  0.00000000000E+00 0. -1.
         21    1    1    2  503  506  0.79658793579E+02 -0.24264141928E+02  0.11197782569E+04  0.11228702581E+04  0.00000000000E+00 0. -1.
         21    1    1    2  504  501  0.38217737123E+02 -0.55317362462E+02  0.18288271077E+03  0.19485043474E+03  0.00000000000E+00 0. -1.
         21    1    1    2  505  504 -0.29692686612E+01 -0.31863561063E+02  0.31116633937E+02  0.44635725462E+02  0.00000000000E+00 0. -1.
         21    1    1    2  506  502 -0.11490726204E+03  0.11144506545E+03  0.10583617470E+04  0.10703986495E+04  0.00000000000E+00 0. -1.
<scales pt_clust_3="14000.00000" pt_clust_4="78.59463" pt_clust_5="32.00161" pt_clust_6="96.51958"></scales>
<clustering>
<clus scale="   32.002">  2  5  1 -1</clus>
<clus scale="   78.595">  2  4  1 -1</clus>
<clus scale="   96.520">  2  6  1 -1</clus>
<clus scale="   96.520">  1  3  2 -1</clus>
</clustering>
</event>
<event>
 6    0  0.3446372E+002  0.1037712E+03  0.7546771E-02  0.1272560E+00
         21   -1    0    0  503  501  0.00000000000E+00  0.00000000000E+00  0.34695013190E+03  0.34695013190E+03  0.00000000000E+00 0.  1.
         21   -1    0    0  506  502 -0.00000000000E+00 -0.00000000000E+00 -0.80494486918E+03  0.80494486918E+03  0.00000000000E+00 0.  1.
         21    1    1    2  503  505 -0.80796190741E+01 -0.10749935230E+03  0.20962624323E+03  0.23572134574E+03  0.00000000000E+00 0.  1.
         21    1    1    2  504  502  0.16269977397E+02  0.52398611081E+02 -0.24825014546E+03  0.25424095132E+03  0.00000000000E+00 0. -1.
         21    1    1    2  505  504 -0.11343646315E+03 -0.16964770377E+02 -0.49870126133E+03  0.51172119622E+03  0.00000000000E+00 0.  1.
         21    1    1    2  506  501  0.10524610483E+03  0.72065511592E+02  0.79330426275E+02  0.15021150780E+03  0.00000000000E+00 0.  1.
<scales pt_clust_3="103.77122" pt_clust_4="54.86644" pt_clust_5="103.30376" pt_clust_6="14000.00000"></scales>
<clustering>
<clus scale="   54.866">  2  4  1 -1</clus>
<clus scale="  103.304">  2  5  1 -1</clus>
<clus scale="  103.771">  1  3  2 -1</clus>
<clus scale="  103.771">  1  3  2 -1</clus>
</clustering>
</event>
<event>
 6    0  0.3446372E+002  0.1059871E+03  0.7546771E-02  0.1268187E+00
         21   -1    0    0  503  501  0.00000000000E+00  0.00000000000E+00  0.10295047291E+04  0.10295047291E+04  0.00000000000E+00 0. -1.
         21   -1    0    0  505  502 -0.00000000000E+00 -0.00000000000E+00 -0.76466444323E+02  0.76466444323E+02  0.00000000000E+00 0. -1.
         21    1    1    2  503  506  0.69012524564E+02  0.59069665781E+02  0.15528683052E+03  0.17990540207E+03  0.00000000000E+00 0. -1.
         21    1    1    2  504  501 -0.59787285599E+02 -0.94292263254E+02  0.81687335144E+03  0.82446808472E+03  0.00000000000E+00 0. -1.
         21    1    1    2  505  504 -0.50504654677E+02  0.10370223581E+02 -0.11327744532E+02  0.52788061883E+02  0.00000000000E+00 0. -1.
         21    1    1    2  506  502  0.41279415712E+02  0.24852373892E+02 -0.77941526756E+01  0.48809624722E+02  0.00000000000E+00 0. -1.
<scales pt_clust_3="105.98710" pt_clust_4="14000.00000" pt_clust_5="35.42029" pt_clust_6="48.18330"></scales>
<clustering>
<clus scale="   48.183">  2  6  1 -1</clus>
<clus scale="   35.420">  2  5  1 -1</clus>
<clus scale="  105.987">  2  3  1 -1</clus>
<clus scale="  105.987">  1  3  2 -1</clus>
</clustering>
</event>
<event>
 6    0  0.3446372E+002  0.6215957E+02  0.7546771E-02  0.1388986E+00
         21   -1    0    0  504  501  0.00000000000E+00  0.00000000000E+00  0.93553757208E+03  0.93553757208E+03  0.00000000000E+00 0. -1.
         21   -1    0    0  505  502 -0.00000000000E+00 -0.00000000000E+00 -0.42963429719E+03  0.42963429719E+03  0.00000000000E+00 0.  1.
         21    1    1    2  503  502 -0.43035148838E+02 -0.64399542845E+02 -0.12479454008E+03  0.14687750811E+03  0.00000000000E+00 0.  1.
         21    1    1    2  504  503 -0.27230104433E+02  0.79271900767E+02  0.86247496921E+03  0.86653827691E+03  0.00000000000E+00 0. -1.
         21    1    1    2  505  506  0.50856953151E+02  0.30611773086E+02 -0.27787875844E+03  0.28414805072E+03  0.00000000000E+00 0.  1.
         21    1    1    2  506  501  0.19408300121E+02 -0.45484131007E+02  0.46101604209E+02  0.67608033530E+02  0.00000000000E+00 0.  1.
<scales pt_clust_3="62.15957" pt_clust_4="35.46712" pt_clust_5="14000.00000" pt_clust_6="49.45188"></scales>
<clustering>
<clus scale="   49.452">  1  6  2 -1</clus>
<clus scale="   35.467">  1  4  2 -1</clus>
<clus scale="   62.160">  1  3  2 -1</clus>
<clus scale="   49.452">  1  3  2 -1</clus>
</clustering>
</event>
<event>
 6    0  0.3446372E+002  0.1656275E+03  0.7546771E-02  0.1182486E+00
         21   -1    0    0  505  501  0.00000000000E+00  0.00000000000E+00  0.80090483104E+02  0.80090483104E+02  0.00000000000E+00 0.  1.
         21   -1    0    0  506  502 -0.00000000000E+00 -0.00000000000E+00 -0.63187414015E+03  0.63187414015E+03  0.00000000000E+00 0. -1.
         21    1    1    2  503  501  0.49862633620E+02 -0.19278895194E+03 -0.17576560389E+03  0.26560762363E+03  0.00000000000E+00 0.  1.
         21    1    1    2  504  503 -0.60208882835E+02  0.12874222799E+03 -0.27469949083E+03  0.30928866953E+03  0.00000000000E+00 0. -1.
         21    1    1    2  505  502 -0.71603888949E+01  0.35710939888E+02 -0.70622856984E+01  0.37100111537E+02  0.00000000000E+00 0. -1.
         21    1    1    2  506  504  0.17506638111E+02  0.28335784062E+02 -0.94256276631E+02  0.99968218553E+02  0.00000000000E+00 0. -1.
<scales pt_clust_3="165.62751" pt_clust_4="14000.00000" pt_clust_5="37.43858" pt_clust_6="33.30764"></scales>
<clustering>
<clus scale="   33.308">  2  6  1 -1</clus>
<clus scale="   37.439">  1  5  2 -1</clus>
<clus scale="  165.628">  1  3  2 -1</clus>
<clus scale="   37.439">  1  3  2 -1</clus>
</clustering>
</event>
<event>
 6    0  0.3446372E+002  0.8726206E+02  0.7546771E-02  0.1309621E+00
         21   -1    0    0  506  501  0.00000000000E+00  0.00000000000E+00  0.14660789557E+04  0.14660789557E+04  0.00000000000E+00 0.  1.
         21   -1    0    0  503  502 -0.00000000000E+00 -0.00000000000E+00 -0.22478979278E+03  0.22478979278E+03  0.00000000000E+00 0.  1.
         21    1    1    2  503  504  0.49736160325E+02  0.12722469730E+02 -0.13852770186E+03  0.14773446133E+03  0.00000000000E+00 0.  1.
         21    1    1    2  504  501  0.40294468157E+02 -0.16911124939E+02  0.71966822129E+03  0.72099374411E+03  0.00000000000E+00 0.  1.
         21    1    1    2  505  502  0.17523329562E+02  0.44096391507E+02 -0.69155338250E+02  0.83869062421E+02  0.00000000000E+00 0.  1.
         21    1    1    2  506  505 -0.10755395804E+03 -0.39907736298E+02  0.72930398178E+03  0.73827148066E+03  0.00000000000E+00 0.  1.
<scales pt_clust_3="87.26206" pt_clust_4="43.69932" pt_clust_5="47.44431" pt_clust_6="14000.00000"></scales>
<clustering>
<clus scale="   43.699">  1  4  2 -1</clus>
<clus scale="   47.444">  2  5  1 -1</clus>
<clus scale="   87.262">  2  3  1 -1</clus>
<clus scale="   43.699">  1  3  2 -1</clus>
</clustering>
</event>
<event>
 6    0  0.3446372E+002  0.1178607E+03  0.7546771E-02  0.1246669E+00
         21   -1    0    0  505  501  0.00000000000E+00  0.00000000000E+00  0.14200499009E+04  0.14200499009E+04  0.00000000000E+00 0.  1.
         21   -1    0    0  503  502 -0.00000000000E+00 -0.00000000000E+00 -0.62694842835E+02  0.62694842835E+02  0.00000000000E+00 0. -1.
         21    1    1    2  503  506  0.30105018011E+02  0.53607914744E+02  0.14196354659E+02  0.63100373360E+02  0.00000000000E+00 0. -1.
         21    1    1    2  504  501 -0.10963718584E+03 -0.27359293203E+02  0.12624772175E+04  0.12675241883E+04  0.00000000000E+00 0.  1.
         21    1    1    2  505  502  0.32927989357E+02 -0.61729139073E+02  0.37739862287E+02  0.79492366295E+02  0.00000000000E+00 0. -1.
         21    1    1    2  506  504  0.46604178470E+02  0.35480517532E+02  0.42941623657E+02  0.72627815728E+02  0.00000000000E+00 0. -1.
<scales pt_clust_3="35.68058" pt_clust_4="112.04818" pt_clust_5="69.96241" pt_clust_6="35.68058"></scales>
<clustering>
<clus scale="   35.681">  3  6 -1 -1</clus>
<clus scale="   69.962">  2  5  1 -1</clus>
<clus scale="  112.048">  1  4  2 -1</clus>
<clus scale="  112.048">  1  3  2 -1</clus>
</clustering>
</event>
<event>
 6    0  0.3446372E+002  0.8903838E+02  0.7546771E-02  0.1305197E+00
         21   -1    0    0  505  501  0.00000000000E+00  0.00000000000E+00  0.50637954527E+03  0.50637954527E+03  0.00000000000E+00 0. -1.
         21   -1    0    0  503  502 -0.00000000000E+00 -0.00000000000E+00 -0.33526215387E+03  0.33526215387E+03  0.00000000000E+00 0.  1.
         21    1    1    2  503  504 -0.28217849812E+02 -0.30137867599E+02 -0.32945929928E+02  0.52820189419E+02  0.00000000000E+00 0.  1.
         21    1    1    2  504  506 -0.37352423215E+02  0.13649565416E+03 -0.57849282493E+02  0.15288167519E+03  0.00000000000E+00 0.  1.
         21    1    1    2  505  502  0.39656958670E+02 -0.23377669306E+02 -0.17987919145E+03  0.18567636712E+03  0.00000000000E+00 0.  1.
         21    1    1    2  506  501  0.25913314358E+02 -0.82980117250E+02  0.44179179527E+03  0.45026346741E+03  0.00000000000E+00 0. -1.
<scales pt_clust_3="41.28605" pt_clust_4="89.03838" pt_clust_5="47.61413" pt_clust_6="14000.00000"></scales>
<clustering>
<clus scale="   41.286">  2  3  1 -1</clus>
<clus scale="   47.614">  2  5  1 -1</clus>
<clus scale="   89.038">  2  4  1 -1</clus>
<clus scale="   89.038">  1  3  2 -1</clus>
</clustering>
</event>
<event>
 6    0  0.3446372E+002  0.1297192E+03  0.7546771E-02  0.1227873E+00
         21   -1    0    0  504  501  0.00000000000E+00  0.00000000000E+00  0.74104653774E+03  0.74104653774E+03  0.00000000000E+00 0.  1.
         21   -1    0    0  503  502 -0.00000000000E+00 -0.00000000000E+00 -0.31328817030E+02  0.31328817030E+02  0.00000000000E+00 0.  1.
         21    1    1    2  503  505 -0.54894950217E+02 -0.32052123686E+01  0.83972461567E+02  0.10037481381E+03  0.00000000000E+00 0. -1.
         21    1    1    2  504  506 -0.31656098447E+02  0.35894683272E+02  0.16569628240E+03  0.17246969258E+03  0.00000000000E+00 0.  1.
         21    1    1    2  505  501 -0.43760778985E+02 -0.43976561038E+02  0.18125505184E+03  0.19157854137E+03  0.00000000000E+00 0.  1.
         21    1    1    2  506  502  0.13031182765E+03  0.11287090135E+02  0.27879392490E+03  0.30795230701E+03  0.00000000000E+00 0.  1.
<scales pt_clust_3="52.87529" pt_clust_4="47.85955" pt_clust_5="52.87529" pt_clust_6="117.87716"></scales>
<clustering>
<clus scale="   47.860">  1  4  2 -1</clus>
<clus scale="   52.875">  3  5 -1 -1</clus>
<clus scale="  117.877">  1  6  2 -1</clus>
<clus scale="   47.860">  1  3  2 -1</clus>
</clustering>
</event>
<event>
 6    0  0.3446372E+002  0.9667967E+02  0.7546771E-02  0.1287437E+00
         21   -1    0    0  505  501  0.00000000000E+00  0.00000000000E+00  0.46931589590E+02  0.46931589590E+02  0.00000000000E+00 0.  1.
         21   -1    0    0  503  502 -0.00000000000E+00 -0.00000000000E+00 -0.83443392981E+03  0.83443392981E+03  0.00000000000E+00 0. -1.
         21    1    1    2  503  504  0.38572804408E+02 -0.28545432422E+02 -0.18990469514E+03  0.19587367405E+03  0.00000000000E+00 0. -1.
         21    1    1    2  504  506 -0.81862116904E+01 -0.75064800192E+02 -0.42648538035E+03  0.43311836482E+03  0.00000000000E+00 0. -1.
         21    1    1    2  505  502 -0.39930449346E+02  0.41394211673E+01 -0.14305600754E+03  0.14858195343E+03  0.00000000000E+00 0. -1.
         21    1    1    2  506  501  0.95438566279E+01  0.99470811447E+02 -0.28056257190E+02  0.10379152709E+03  0.00000000000E+00 0.  1.
<scales pt_clust_3="38.73089" pt_clust_4="96.67967" pt_clust_5="40.14443" pt_clust_6="14000.00000"></scales>
<clustering>
<clus scale="   40.144">  2  5  1 -1</clus>
<clus scale="   38.731">  2  3  1 -1</clus>
<clus scale="   96.680">  2  4  1 -1</clus>
<clus scale="   96.680">  1  3  2 -1</clus>
</clustering>
</event>
<event>
 6    0  0.3446372E+002  0.8610636E+02  0.7546771E-02  0.1312564E+00
         21   -1    0    0  505  501  0.00000000000E+00  0.00000000000E+00  0.70040481655E+03  0.70040481655E+03  0.00000000000E+00 0. -1.
         21   -1    0    0  504  502 -0.00000000000E+00 -0.00000000000E+00 -0.74577868336E+03  0.74577868336E+03  0.00000000000E+00 0.  1.
         21    1    1    2  503  502 -0.53293313655E+02 -0.23566080052E+02 -0.67518823656E+03  0.67769808336E+03  0.00000000000E+00 0.  1.
         21    1    1    2  504  501 -0.21189344113E+02 -0.99773155718E+02  0.25921049643E+03  0.27855655147E+03  0.00000000000E+00 0. -1.
         21    1    1    2  505  506  0.58048686140E+02  0.60195991440E+02  0.40680549239E+03  0.41531182982E+03  0.00000000000E+00 0. -1.
         21    1    1    2  506  503  0.16433971628E+02  0.63143244330E+02 -0.36201619067E+02  0.74617035260E+02  0.00000000000E+00 0.  1.
<scales pt_clust_3="58.27124" pt_clust_4="14000.00000" pt_clust_5="86.10636" pt_clust_6="51.45401"></scales>
<clustering>
<clus scale="   58.271">  2  3  1 -1</clus>
<clus scale="   51.454">  2  6  1 -1</clus>
<clus scale="   86.106">  1  5  2 -1</clus>
<clus scale="   86.106">  1  3  2 -1</clus>
</clustering>
</event>
<event>
 6    0  0.3446372E+002  0.9389250E+02  0.7546771E-02  0.1293690E+00
         21   -1    0    0  505  501  0.00000000000E+00  0.00000000000E+00  0.14838608109E+03  0.14838608109E+03  0.00000000000E+00 0. -1.
         21   -1    0    0  506  502 -0.00000000000E+00 -0.00000000000E+00 -0.41944383199E+03  0.41944383199E+03  0.00000000000E+00 0. -1.
         21    1    1    2  503  504  0.45183022069E+02  0.92801540077E+02 -0.15436327816E+03  0.18569236109E+03  0.00000000000E+00 0. -1.
         21    1    1    2  504  502 -0.12634569458E+02 -0.49222993467E+02 -0.16619023366E+03  0.17378644709E+03  0.00000000000E+00 0. -1.
         21    1    1    2  505  503 -0.10447277634E+03 -0.31658680585E+02  0.73492761617E+02  0.13159794475E+03  0.00000000000E+00 0. -1.
         21    1    1    2  506  501  0.71924323725E+02 -0.11919866025E+02 -0.23997000706E+02  0.76753160145E+02  0.00000000000E+00 0. -1.
<scales pt_clust_3="69.62892" pt_clust_4="50.81865" pt_clust_5="93.89250" pt_clust_6="14000.00000"></scales>
<clustering>
<clus scale="   50.819">  2  4  1 -1</clus>
<clus scale="   69.629">  2  3  1 -1</clus>
<clus scale="   93.893">  1  5  2 -1</clus>
<clus scale="   93.893">  1  3  2 -1</clus>
</clustering>
</event>
<event>
 6    0  0.3446372E+002  0.2234402E+03  0.7546771E-02  0.1131344E+00
         21   -1    0    0  503  501  0.00000000000E+00  0.00000000000E+00  0.57128524106E+03  0.57128524106E+03  0.00000000000E+00 0.  1.
         21   -1    0    0  505  502 -0.00000000000E+00 -0.00000000000E+00 -0.32207939602E+03  0.32207939602E+03  0.00000000000E+00 0. -1.
         21    1    1    2  503  506  0.43407059789E+02 -0.33100439966E+02 -0.31086156937E+02  0.62818477525E+02  0.00000000000E+00 0. -1.
         21    1    1    2  504  501 -0.15042973700E+03  0.15715908568E+03  0.49020288552E+03  0.53630863591E+03  0.00000000000E+00 0.  1.
         21    1    1    2  505  504  0.10378319334E+02 -0.53414375886E+02 -0.21500642502E+01  0.54455742027E+02  0.00000000000E+00 0. -1.
         21    1    1    2  506  502  0.96644357875E+02 -0.70644269824E+02 -0.20776081929E+03  0.23978178162E+03  0.00000000000E+00 0. -1.
<scales pt_clust_3="43.45783" pt_clust_4="213.97159" pt_clust_5="54.41328" pt_clust_6="43.45783"></scales>
<clustering>
<clus scale="   43.458">  3  6 -1 -1</clus>
<clus scale="   54.413">  2  5  1 -1</clus>
<clus scale="  213.972">  1  4  2 -1</clus>
<clus scale="  213.972">  1  3  2 -1</clus>
</clustering>
</event>
<event>
 6    0  0.3446372E+002  0.9000548E+02  0.7546771E-02  0.1302838E+00
         21   -1    0    0  505  501  0.00000000000E+00  0.00000000000E+00  0.13036974163E+03  0.13036974163E+03  0.00000000000E+00 0. -1.
         21   -1    0    0  503  502 -0.00000000000E+00 -0.00000000000E+00 -0.94679834343E+03  0.94679834343E+03  0.00000000000E+00 0. -1.
         21    1    1    2  503  504 -0.45656812319E+02  0.46956003229E+02 -0.41444565719E+03  0.41958862415E+03  0.00000000000E+00 0. -1.
         21    1    1    2  504  501  0.88722658340E+02 -0.81862073623E+02 -0.43714146242E+03  0.45350387801E+03  0.00000000000E+00 0. -1.
         21    1    1    2  505  506 -0.82424638490E+01  0.39027119983E+02  0.11238873180E+03  0.11925720666E+03  0.00000000000E+00 0. -1.
         21    1    1    2  506  502 -0.34823382171E+02 -0.41210495887E+01 -0.77230213993E+02  0.84818376246E+02  0.00000000000E+00 0. -1.
<scales pt_clust_3="14000.00000" pt_clust_4="90.00548" pt_clust_5="39.90081" pt_clust_6="35.06638"></scales>
<clustering>
<clus scale="   35.066">  2  6  1 -1</clus>
<clus scale="   39.901">  1  5  2 -1</clus>
<clus scale="   90.005">  1  4  2 -1</clus>
<clus scale="   39.901">  1  3  2 -1</clus>
</clustering>
</event>
<event>
 6    0  0.5843673E+002  0.1113501E+03  0.7546771E-02  0.1258090E+00
         21   -1    0    0  506  501  0.00000000000E+00  0.00000000000E+00  0.11312933523E+04  0.11312933523E+04  0.00000000000E+00 0.  1.
         21   -1    0    0  504  502 -0.00000000000E+00 -0.00000000000E+00 -0.52134572377E+03  0.52134572377E+03  0.00000000000E+00 0.  1.
         21    1    1    2  503  505  0.13867764748E+02 -0.81638196354E+02 -0.19462045965E+03  0.21150468864E+03  0.00000000000E+00 0.  1.
         21    1    1    2  504  503  0.22577251479E+02 -0.20158483337E+02 -0.75664016780E+01  0.31198512290E+02  0.00000000000E+00 0.  1.
         21    1    1    2  505  501 -0.96762450807E+02  0.12455858971E+03 -0.27707323087E+03  0.31882187726E+03  0.00000000000E+00 0.  1.
         21    1    1    2  506  502  0.60317434580E+02 -0.22761910024E+02  0.10892077207E+04  0.10911139979E+04  0.00000000000E+00 0.  1.
<scales pt_clust_3="111.35012" pt_clust_4="30.26709" pt_clust_5="14000.00000" pt_clust_6="64.52298"></scales>
<clustering>
<clus scale="   30.267">  2  4  1 -1</clus>
<clus scale="   64.523">  1  6  2 -1</clus>
<clus scale="  111.350">  2  3  1 -1</clus>
<clus scale="   64.523">  1  3  2 -1</clus>
</clustering>
</event>
<event>
 6    0  0.3446372E+002  0.3464416E+03  0.7546771E-02  0.1064085E+00
         21   -1    0    0  505  501  0.00000000000E+00  0.00000000000E+00  0.15016192199E+04  0.15016192199E+04  0.00000000000E+00 0.  1.
         21   -1    0    0  504  502 -0.00000000000E+00 -0.00000000000E+00 -0.39633253344E+03  0.39633253344E+03  0.00000000000E+00 0. -1.
         21    1    1    2  503  506  0.22688126861E+02  0.66398663329E+02 -0.32673614366E+02  0.77402187748E+02  0.00000000000E+00 0. -1.
         21    1    1    2  504  503  0.42629217926E+02  0.15253785430E+03 -0.16100551316E+03  0.22584911442E+03  0.00000000000E+00 0. -1.
         21    1    1    2  505  502  0.25245873620E+03 -0.34166366352E+03  0.25251591995E+03  0.49420012372E+03  0.00000000000E+00 0. -1.
         21    1    1    2  506  501 -0.31777608099E+03  0.12272714589E+03  0.10464498941E+04  0.11005003275E+04  0.00000000000E+00 0.  1.
<scales pt_clust_3="31.57370" pt_clust_4="233.34470" pt_clust_5="346.44164" pt_clust_6="14000.00000"></scales>
<clustering>
<clus scale="   31.574">  3  4 -1 -1</clus>
<clus scale="  233.345">  2  3  1 -1</clus>
<clus scale="  346.442">  2  5  1 -1</clus>
<clus scale="  346.442">  1  3  2 -1</clus>
</clustering>
</event>
<event>
 6    0  0.3446372E+002  0.1341897E+03  0.7546771E-02  0.1221368E+00
         21   -1    0    0  503  501  0.00000000000E+00  0.00000000000E+00  0.17210309094E+04  0.17210309094E+04  0.00000000000E+00 0.  1.
         21   -1    0    0  506  502 -0.00000000000E+00 -0.00000000000E+00 -0.37194020354E+03  0.37194020354E+03  0.00000000000E+00 0.  1.
         21    1    1    2  503  502  0.11700775894E+01 -0.68633829066E+02  0.42969488012E+03  0.43514326557E+03  0.00000000000E+00 0.  1.
         21    1    1    2  504  505 -0.73802252868E+02 -0.29567700376E+02  0.76604050580E+02  0.11040471910E+03  0.00000000000E+00 0.  1.
         21    1    1    2  505  501  0.31517611880E+02 -0.31746649724E+02  0.11814862694E+04  0.11823328695E+04  0.00000000000E+00 0.  1.
         21    1    1    2  506  504  0.41114563398E+02  0.12994817917E+03 -0.33869449423E+03  0.36509025872E+03  0.00000000000E+00 0.  1.
<scales pt_clust_3="134.18965" pt_clust_4="76.81122" pt_clust_5="44.73488" pt_clust_6="14000.00000"></scales>
<clustering>
<clus scale="   44.735">  1  5  2 -1</clus>
<clus scale="   76.811">  1  4  2 -1</clus>
<clus scale="  134.190">  1  3  2 -1</clus>
<clus scale="   44.735">  1  3  2 -1</clus>
</clustering>
</event>
<event>
 6    0  0.3446372E+002  0.3734624E+03  0.7546771E-02  0.1053377E+00
         21   -1    0    0  505  501  0.00000000000E+00  0.00000000000E+00  0.21063533608E+04  0.21063533608E+04  0.00000000000E+00 0.  1.
         21   -1    0    0  503  502 -0.00000000000E+00 -0.00000000000E+00 -0.40150496806E+03  0.40150496806E+03  0.00000000000E+00 0. -1.
         21    1    1    2  503  506  0.31515766043E+02 -0.16520569437E+03 -0.10757232497E+03  0.19964460939E+03  0.00000000000E+00 0. -1.
         21    1    1    2  504  501 -0.13732042773E+02  0.37871581986E+03  0.16567393044E+04  0.16995291595E+04  0.00000000000E+00 0.  1.
         21    1    1    2  505  502 -0.33056718582E+02 -0.10912024644E+02  0.33553888095E+03  0.33733982800E+03  0.00000000000E+00 0. -1.
         21    1    1    2  506  504  0.15272995313E+02 -0.20259810084E+03 -0.17985746770E+03  0.27134473192E+03  0.00000000000E+00 0. -1.
<scales pt_clust_3="38.01329" pt_clust_4="371.11711" pt_clust_5="34.81119" pt_clust_6="38.01329"></scales>
<clustering>
<clus scale="   34.811">  1  5  2 -1</clus>
<clus scale="   38.013">  3  6 -1 -1</clus>
<clus scale="  371.117">  1  4  2 -1</clus>
<clus scale="   34.811">  1  3  2 -1</clus>
</clustering>
</event>
<event>
 6    0  0.3446372E+002  0.1565420E+03  0.7546771E-02  0.1192657E+00
         21   -1    0    0  504  501  0.00000000000E+00  0.00000000000E+00  0.15432525083E+03  0.15432525083E+03  0.00000000000E+00 0. -1.
         21   -1    0    0  506  502 -0.00000000000E+00 -0.00000000000E+00 -0.29280082433E+03  0.29280082433E+03  0.00000000000E+00 0. -1.
         21    1    1    2  503  501  0.30378654189E+01  0.85875246743E+02 -0.45893880524E+01  0.86051432946E+02  0.00000000000E+00 0. -1.
         21    1    1    2  504  505  0.10668246110E+03  0.26587659958E+02 -0.78897833775E+02  0.13532523542E+03  0.00000000000E+00 0. -1.
         21    1    1    2  505  502  0.36050114812E+02 -0.21209047720E+02 -0.31098301614E+02  0.52120426384E+02  0.00000000000E+00 0. -1.
         21    1    1    2  506  503 -0.14577044133E+03 -0.91253858981E+02 -0.23890050054E+02  0.17362898040E+03  0.00000000000E+00 0. -1.
<scales pt_clust_3="85.92896" pt_clust_4="31.66233" pt_clust_5="31.66233" pt_clust_6="147.88571"></scales>
<clustering>
<clus scale="   31.662">  4  5 -1 -1</clus>
<clus scale="   85.929">  1  3  2 -1</clus>
<clus scale="  147.886">  1  6  2 -1</clus>
<clus scale="   85.929">  1  3  2 -1</clus>
</clustering>
</event>
<event>
 6    0  0.3446372E+002  0.7113169E+02  0.7546771E-02  0.1356286E+00
         21   -1    0    0  506  501  0.00000000000E+00  0.00000000000E+00  0.39487495855E+03  0.39487495855E+03  0.00000000000E+00 0.  1.
         21   -1    0    0  504  502 -0.00000000000E+00 -0.00000000000E+00 -0.74696468246E+03  0.74696468246E+03  0.00000000000E+00 0. -1.
         21    1    1    2  503  501  0.22335024472E+02  0.41906329167E+02 -0.12545037599E+03  0.13413720803E+03  0.00000000000E+00 0.  1.
         21    1    1    2  504  503 -0.24908787779E+02  0.22059262841E+02 -0.81259503113E+02  0.87807548832E+02  0.00000000000E+00 0.  1.
         21    1    1    2  505  502 -0.25282498686E+02 -0.12902602934E+03 -0.52116973224E+03  0.53749866120E+03  0.00000000000E+00 0. -1.
         21    1    1    2  506  505  0.27856261993E+02  0.65060437332E+02  0.37578988743E+03  0.38239622295E+03  0.00000000000E+00 0.  1.
<scales pt_clust_3="49.41393" pt_clust_4="33.27249" pt_clust_5="71.13169" pt_clust_6="14000.00000"></scales>
<clustering>
<clus scale="   33.272">  2  4  1 -1</clus>
<clus scale="   49.414">  2  3  1 -1</clus>
<clus scale="   71.132">  2  5  1 -1</clus>
<clus scale="   71.132">  1  3  2 -1</clus>
</clustering>
</event>
<event>
 6    0  0.3446372E+002  0.7825880E+02  0.7546771E-02  0.1334067E+00
         21   -1    0    0  505  501  0.00000000000E+00  0.00000000000E+00  0.18460910529E+04  0.18460910529E+04  0.00000000000E+00 0. -1.
         21   -1    0    0  504  502 -0.00000000000E+00 -0.00000000000E+00 -0.36125348873E+02  0.36125348873E+02  0.00000000000E+00 0.  1.
         21    1    1    2  503  502  0.28906798736E+02 -0.89940934362E+01  0.67644601609E+02  0.74109978119E+02  0.00000000000E+00 0. -1.
         21    1    1    2  504  506 -0.29947735244E+01  0.46555041320E+02 -0.78009925138E+00  0.46657787085E+02  0.00000000000E+00 0.  1.
         21    1    1    2  505  503 -0.98799251422E+02 -0.13767671449E+02  0.29677188254E+03  0.31308847173E+03  0.00000000000E+00 0.  1.
         21    1    1    2  506  501  0.72887226210E+02 -0.23793276436E+02  0.14463293192E+04  0.14483601649E+04  0.00000000000E+00 0. -1.
<scales pt_clust_3="30.27370" pt_clust_4="43.86544" pt_clust_5="78.25880" pt_clust_6="14000.00000"></scales>
<clustering>
<clus scale="   30.274">  2  3  1 -1</clus>
<clus scale="   43.865">  2  4  1 -1</clus>
<clus scale="   78.259">  2  5  1 -1</clus>
<clus scale="   78.259">  1  3  2 -1</clus>
</clustering>
</event>
<event>
 6    0  0.3446372E+002  0.7590935E+02  0.7546771E-02  0.1341078E+00
         21   -1    0    0  504  501  0.00000000000E+00  0.00000000000E+00  0.54196865141E+02  0.54196865141E+02  0.00000000000E+00 0.  1.
         21   -1    0    0  506  502 -0.00000000000E+00 -0.00000000000E+00 -0.32988071668E+04  0.32988071668E+04  0.00000000000E+00 0.  1.
         21    1    1    2  503  505  0.12411845877E+03  0.67907735319E+02 -0.19785220942E+04  0.19835741805E+04  0.00000000000E+00 0.  1.
         21    1    1    2  504  502 -0.42200447644E+02  0.15175794958E+02 -0.10352881440E+04  0.10362590042E+04  0.00000000000E+00 0. -1.
         21    1    1    2  505  501 -0.65747261272E+02 -0.35994688058E+02  0.19918278882E+02  0.77556803485E+02  0.00000000000E+00 0.  1.
         21    1    1    2  506  503 -0.16170749857E+02 -0.47088842219E+02 -0.25071834229E+03  0.25561404378E+03  0.00000000000E+00 0.  1.
<scales pt_clust_3="75.90935" pt_clust_4="44.84621" pt_clust_5="14000.00000" pt_clust_6="49.96817"></scales>
<clustering>
<clus scale="   44.846">  2  4  1 -1</clus>
<clus scale="   49.968">  2  6  1 -1</clus>
<clus scale="   75.909">  2  3  1 -1</clus>
<clus scale="   75.909">  1  3  2 -1</clus>
</clustering>
</event>
<event>
 6    0  0.3446372E+002  0.1020287E+03  0.7546771E-02  0.1276087E+00
         21   -1    0    0  503  501  0.00000000000E+00  0.00000000000E+00  0.48273166636E+02  0.48273166636E+02  0.00000000000E+00 0. -1.
         21   -1    0    0  506  502 -0.00000000000E+00 -0.00000000000E+00 -0.74586236473E+03  0.74586236473E+03  0.00000000000E+00 0.  1.
         21    1    1    2  503  504 -0.20266115834E+02 -0.87077252659E+02 -0.32293813745E+02  0.95058160028E+02  0.00000000000E+00 0. -1.
         21    1    1    2  504  502  0.52569942244E+02 -0.61595359909E+01 -0.22467071303E+03  0.23082129019E+03  0.00000000000E+00 0.  1.
         21    1    1    2  505  501 -0.29013627193E+02 -0.10980940845E+02 -0.25264835831E+02  0.40008543517E+02  0.00000000000E+00 0. -1.
         21    1    1    2  506  505 -0.32901992168E+01  0.10421772950E+03 -0.41535983549E+03  0.42824753763E+03  0.00000000000E+00 0.  1.
<scales pt_clust_3="102.02871" pt_clust_4="50.87033" pt_clust_5="31.02212" pt_clust_6="14000.00000"></scales>
<clustering>
<clus scale="   31.022">  1  5  2 -1</clus>
<clus scale="   50.870">  2  4  1 -1</clus>
<clus scale="  102.029">  1  3  2 -1</clus>
<clus scale="   31.022">  1  3  2 -1</clus>
</clustering>
</event>
<event>
 6    0  0.3446372E+002  0.1490878E+03  0.7546771E-02  0.1201598E+00
         21   -1    0    0  505  501  0.00000000000E+00  0.00000000000E+00  0.88022299973E+03  0.88022299973E+03  0.00000000000E+00 0.  1.
         21   -1    0    0  504  502 -0.00000000000E+00 -0.00000000000E+00 -0.15989543861E+03  0.15989543861E+03  0.00000000000E+00 0. -1.
         21    1    1    2  503  502  0.66194933979E+02  0.56710958286E+02  0.60807550428E+01  0.87377786972E+02  0.00000000000E+00 0.  1.
         21    1    1    2  504  501  0.57183557231E+02  0.41408649315E+02  0.39881123267E+03  0.40501238840E+03  0.00000000000E+00 0.  1.
         21    1    1    2  505  506  0.57281419488E+02 -0.13984465261E+03  0.32876467677E+03  0.36183407879E+03  0.00000000000E+00 0.  1.
         21    1    1    2  506  503 -0.18065991070E+03  0.41725045012E+02 -0.13329103355E+02  0.18589418418E+03  0.00000000000E+00 0. -1.
<scales pt_clust_3="94.04221" pt_clust_4="70.60195" pt_clust_5="149.08777" pt_clust_6="14000.00000"></scales>
<clustering>
<clus scale="   70.602">  1  4  2 -1</clus>
<clus scale="   94.042">  2  3  1 -1</clus>
<clus scale="  149.088">  1  5  2 -1</clus>
<clus scale="   70.602">  1  3  2 -1</clus>
</clustering>
</event>
<event>
 6    0  0.3446372E+002  0.1807631E+03  0.7546771E-02  0.1167067E+00
         21   -1    0    0  504  501  0.00000000000E+00  0.00000000000E+00  0.64021947498E+02  0.64021947498E+02  0.00000000000E+00 0.  1.
         21   -1    0    0  505  502 -0.00000000000E+00 -0.00000000000E+00 -0.13085697293E+04  0.13085697293E+04  0.00000000000E+00 0.  1.
         21    1    1    2  503  501 -0.37210552286E+02  0.16160743273E+02  0.22012345606E+02  0.46155586700E+02  0.00000000000E+00 0.  1.
         21    1    1    2  504  506  0.85834562405E+01  0.11645176397E+03 -0.67236819011E+03  0.68243217401E+03  0.00000000000E+00 0.  1.
         21    1    1    2  505  503 -0.50913463809E+01 -0.18091086311E+03 -0.36558501669E+03  0.40793022275E+03  0.00000000000E+00 0.  1.
         21    1    1    2  506  502  0.33718442426E+02  0.48298355873E+02 -0.22860692064E+03  0.23607369338E+03  0.00000000000E+00 0.  1.
<scales pt_clust_3="40.56840" pt_clust_4="38.67320" pt_clust_5="172.36726" pt_clust_6="38.67320"></scales>
<clustering>
<clus scale="   38.673">  4  6 -1 -1</clus>
<clus scale="   40.568">  1  3  2 -1</clus>
<clus scale="  172.367">  1  5  2 -1</clus>
<clus scale="   40.568">  1  3  2 -1</clus>
</clustering>
</event>
<event>
 6    0  0.3446372E+002  0.1088586E+03  0.7546771E-02  0.1262698E+00
         21   -1    0    0  505  501  0.00000000000E+00  0.00000000000E+00  0.97679064511E+02  0.97679064511E+02  0.00000000000E+00 0. -1.
         21   -1    0    0  504  502 -0.00000000000E+00 -0.00000000000E+00 -0.27910644218E+03  0.27910644218E+03  0.00000000000E+00 0. -1.
         21    1    1    2  503  502  0.22234972432E+02 -0.21566100655E+02 -0.21601117450E+02  0.37763725605E+02  0.00000000000E+00 0.  1.
         21    1    1    2  504  506 -0.35555176868E+02  0.15198179423E+02 -0.43542755504E+02  0.58233382323E+02  0.00000000000E+00 0. -1.
         21    1    1    2  505  503  0.10871174481E+03  0.51022279288E+02 -0.12715879129E+03  0.17490247181E+03  0.00000000000E+00 0. -1.
         21    1    1    2  506  501 -0.95391540374E+02 -0.44654358055E+02  0.10875286575E+02  0.10588592695E+03  0.00000000000E+00 0. -1.
<scales pt_clust_3="30.97565" pt_clust_4="32.84454" pt_clust_5="108.85857" pt_clust_6="14000.00000"></scales>
<clustering>
<clus scale="   30.976">  2  3  1 -1</clus>
<clus scale="   32.845">  2  4  1 -1</clus>
<clus scale="  108.859">  2  5  1 -1</clus>
<clus scale="  108.859">  1  3  2 -1</clus>
</clustering>
</event>
<event>
 6    0  0.3446372E+002  0.9257173E+02  0.7546771E-02  0.1296741E+00
         21   -1    0    0  506  501  0.00000000000E+00  0.00000000000E+00  0.32942596225E+03  0.32942596225E+03  0.00000000000E+00 0.  1.
         21   -1    0    0  505  502 -0.00000000000E+00 -0.00000000000E+00 -0.33410496291E+03  0.33410496291E+03  0.00000000000E+00 0.  1.
         21    1    1    2  503  504 -0.81158711982E+02  0.38747655799E+02  0.26511244772E+03  0.27995129451E+03  0.00000000000E+00 0.  1.
         21    1    1    2  504  501  0.20287811969E+02  0.30899634849E+02  0.23355059611E+02  0.43724610436E+02  0.00000000000E+00 0.  1.
         21    1    1    2  505  503  0.26412353526E+02 -0.11329480254E+03 -0.19697673846E+03  0.22876442074E+03  0.00000000000E+00 0.  1.
         21    1    1    2  506  502  0.34458546487E+02  0.43647511889E+02 -0.96169769528E+02  0.11109059947E+03  0.00000000000E+00 0.  1.
<scales pt_clust_3="92.57173" pt_clust_4="36.96461" pt_clust_5="14000.00000" pt_clust_6="56.53875"></scales>
<clustering>
<clus scale="   36.965">  1  4  2 -1</clus>
<clus scale="   56.539">  2  6  1 -1</clus>
<clus scale="   92.572">  1  3  2 -1</clus>
<clus scale="   36.965">  1  3  2 -1</clus>
</clustering>
</event>
<event>
 6    0  0.3446372E+002  0.1003692E+03  0.7546771E-02  0.1279521E+00
         21   -1    0    0  505  501  0.00000000000E+00  0.00000000000E+00  0.15078610527E+03  0.15078610527E+03  0.00000000000E+00 0.  1.
         21   -1    0    0  506  502 -0.00000000000E+00 -0.00000000000E+00 -0.51174870884E+03  0.51174870884E+03  0.00000000000E+00 0. -1.
         21    1    1    2  503  504 -0.24548925123E+01  0.41167213186E+02 -0.22388683311E+02  0.46925676118E+02  0.00000000000E+00 0. -1.
         21    1    1    2  504  501  0.10748499782E+02  0.31536154968E+02  0.99007262390E+01  0.34757498440E+02  0.00000000000E+00 0.  1.
         21    1    1    2  505  502 -0.21574416531E+02 -0.16847116260E+03  0.44971784559E+02  0.17569988470E+03  0.00000000000E+00 0.  1.
         21    1    1    2  506  503  0.13280809261E+02  0.95767794445E+02 -0.39344643106E+03  0.40515175485E+03  0.00000000000E+00 0. -1.
<scales pt_clust_3="80.72293" pt_clust_4="30.63437" pt_clust_5="100.36922" pt_clust_6="14000.00000"></scales>
<clustering>
<clus scale="   30.634">  3  4 -1 -1</clus>
<clus scale="   80.723">  1  3  2 -1</clus>
<clus scale="  100.369">  1  5  2 -1</clus>
<clus scale="   80.723">  1  3  2 -1</clus>
</clustering>
</event>
<event>
 6    0  0.3446372E+002  0.1280740E+03  0.7546771E-02  0.1230342E+00
         21   -1    0    0  505  501  0.00000000000E+00  0.00000000000E+00  0.78157391752E+03  0.78157391752E+03  0.00000000000E+00 0.  1.
         21   -1    0    0  506  502 -0.00000000000E+00 -0.00000000000E+00 -0.45643562092E+03  0.45643562092E+03  0.00000000000E+00 0. -1.
         21    1    1    2  503  504 -0.92408622652E+02 -0.40037994548E+02  0.24755976679E+03  0.26726060817E+03  0.00000000000E+00 0.  1.
         21    1    1    2  504  502  0.43199452438E+02  0.26382986121E+02 -0.74959344140E+01  0.51170730699E+02  0.00000000000E+00 0.  1.
         21    1    1    2  505  503 -0.42307994783E+01 -0.52549447442E+02  0.49657923020E+03  0.49936987891E+03  0.00000000000E+00 0.  1.
         21    1    1    2  506  501  0.53439969693E+02  0.66204455870E+02 -0.41150476597E+03  0.42020832067E+03  0.00000000000E+00 0. -1.
<scales pt_clust_3="128.07400" pt_clust_4="50.61872" pt_clust_5="52.62241" pt_clust_6="14000.00000"></scales>
<clustering>
<clus scale="   50.619">  2  4  1 -1</clus>
<clus scale="   52.622">  1  5  2 -1</clus>
<clus scale="  128.074">  1  3  2 -1</clus>
<clus scale="   52.622">  1  3  2 -1</clus>
</clustering>
</event>
<event>
 6    0  0.3446372E+002  0.8380037E+02  0.7546771E-02  0.1318600E+00
         21   -1    0    0  505  501  0.00000000000E+00  0.00000000000E+00  0.30388434772E+03  0.30388434772E+03  0.00000000000E+00 0.  1.
         21   -1    0    0  504  502 -0.00000000000E+00 -0.00000000000E+00 -0.27086034433E+04  0.27086034433E+04  0.00000000000E+00 0.  1.
         21    1    1    2  503  502  0.35629738746E+02  0.18341879797E+01 -0.16743846600E+04  0.16747647095E+04  0.00000000000E+00 0.  1.
         21    1    1    2  504  501  0.47493810230E+02  0.24388052786E+02 -0.78887288528E+03  0.79067747424E+03  0.00000000000E+00 0.  1.
         21    1    1    2  505  506  0.41118081112E+02 -0.23158599036E+02  0.28491578015E+03  0.28879753995E+03  0.00000000000E+00 0.  1.
         21    1    1    2  506  503 -0.12424163009E+03 -0.30636417294E+01 -0.22637733045E+03  0.25824806735E+03  0.00000000000E+00 0.  1.
<scales pt_clust_3="35.67692" pt_clust_4="14000.00000" pt_clust_5="47.24788" pt_clust_6="83.80037"></scales>
<clustering>
<clus scale="   35.677">  2  3  1 -1</clus>
<clus scale="   47.248">  1  5  2 -1</clus>
<clus scale="   83.800">  1  6  2 -1</clus>
<clus scale="   47.248">  1  3  2 -1</clus>
</clustering>
</event>
<event>
 6    0  0.3446372E+002  0.1228782E+03  0.7546771E-02  0.1238423E+00
         21   -1    0    0  503  501  0.00000000000E+00  0.00000000000E+00  0.29036772872E+03  0.29036772872E+03  0.00000000000E+00 0.  1.
         21   -1    0    0  506  502 -0.00000000000E+00 -0.00000000000E+00 -0.85661453381E+03  0.85661453381E+03  0.00000000000E+00 0. -1.
         21    1    1    2  503  504  0.14739448466E+02  0.76336670185E+02  0.96532810551E+02  0.12394806198E+03  0.00000000000E+00 0.  1.
         21    1    1    2  504  505  0.90896203983E+02 -0.80389843975E+02 -0.67102550319E+03  0.68190899162E+03  0.00000000000E+00 0. -1.
         21    1    1    2  505  502 -0.24803195093E+02 -0.26588253259E+02 -0.15348933076E+03  0.15773746655E+03  0.00000000000E+00 0. -1.
         21    1    1    2  506  501 -0.80832457355E+02  0.30641427048E+02  0.16173521830E+03  0.18338774238E+03  0.00000000000E+00 0.  1.
<scales pt_clust_3="77.14512" pt_clust_4="14000.00000" pt_clust_5="36.36116" pt_clust_6="122.87823"></scales>
<clustering>
<clus scale="   36.361">  2  5  1 -1</clus>
<clus scale="   77.145">  1  3  2 -1</clus>
<clus scale="  122.878">  1  6  2 -1</clus>
<clus scale="   77.145">  1  3  2 -1</clus>
</clustering>
</event>
<event>
 6    0  0.3446372E+002  0.1831676E+03  0.7546771E-02  0.1164772E+00
         21   -1    0    0  506  501  0.00000000000E+00  0.00000000000E+00  0.65044284464E+03  0.65044284464E+03  0.00000000000E+00 0. -1.
         21   -1    0    0  503  502 -0.00000000000E+00 -0.00000000000E+00 -0.12241347447E+03  0.12241347447E+03  0.00000000000E+00 0. -1.
         21    1    1    2  503  501  0.19175544115E+03  0.97036403815E+02  0.46146953512E+03  0.50905829206E+03  0.00000000000E+00 0. -1.
         21    1    1    2  504  505 -0.62389284920E+02 -0.42793771117E+01  0.74654373272E+01  0.62979907079E+02  0.00000000000E+00 0.  1.
         21    1    1    2  505  502 -0.88563617863E+02 -0.69808308554E+02 -0.14396571098E+02  0.11368366466E+03  0.00000000000E+00 0. -1.
         21    1    1    2  506  504 -0.40802538365E+02 -0.22948718149E+02  0.73490968832E+02  0.87134455306E+02  0.00000000000E+00 0. -1.
<scales pt_clust_3="175.11183" pt_clust_4="40.00692" pt_clust_5="40.00692" pt_clust_6="46.81336"></scales>
<clustering>
<clus scale="   40.007">  4  5 -1 -1</clus>
<clus scale="   46.813">  1  6  2 -1</clus>
<clus scale="  175.112">  1  3  2 -1</clus>
<clus scale="   46.813">  1  3  2 -1</clus>
</clustering>
</event>
<event>
 6    0  0.3446372E+002  0.1119138E+03  0.7546771E-02  0.1257066E+00
         21   -1    0    0  503  501  0.00000000000E+00  0.00000000000E+00  0.24127882157E+02  0.24127882157E+02  0.00000000000E+00 0. -1.
         21   -1    0    0  505  502 -0.00000000000E+00 -0.00000000000E+00 -0.14234448361E+04  0.14234448361E+04  0.00000000000E+00 0.  1.
         21    1    1    2  503  504 -0.17461245125E+02 -0.25226837367E+02 -0.35326438002E+02  0.46789375149E+02  0.00000000000E+00 0. -1.
         21    1    1    2  504  502 -0.39175836661E+02  0.18485979488E+02 -0.16078885530E+03  0.16652187125E+03  0.00000000000E+00 0. -1.
         21    1    1    2  505  506  0.80986401203E+02 -0.87081860759E+02 -0.10208043283E+04  0.10277078983E+04  0.00000000000E+00 0.  1.
         21    1    1    2  506  501 -0.24349319417E+02  0.93822718638E+02 -0.18239733242E+03  0.20655357359E+03  0.00000000000E+00 0. -1.
<scales pt_clust_3="30.68042" pt_clust_4="44.35290" pt_clust_5="14000.00000" pt_clust_6="111.91383"></scales>
<clustering>
<clus scale="   30.680">  1  3  2 -1</clus>
<clus scale="   44.353">  1  4  2 -1</clus>
<clus scale="  111.914">  1  6  2 -1</clus>
<clus scale="   30.680">  1  3  2 -1</clus>
</clustering>
</event>
<event>
 6    0  0.3446372E+002  0.1905626E+03  0.7546771E-02  0.1157955E+00
         21   -1    0    0  504  501  0.00000000000E+00  0.00000000000E+00  0.40498232037E+03  0.40498232037E+03  0.00000000000E+00 0.  1.
         21   -1    0    0  505  502 -0.00000000000E+00 -0.00000000000E+00 -0.34961410796E+03  0.34961410796E+03  0.00000000000E+00 0. -1.
         21    1    1    2  503  502  0.16039468804E+03  0.56143585753E+02  0.73931115607E+02  0.18532233548E+03  0.00000000000E+00 0. -1.
         21    1    1    2  504  503  0.30257773991E+02 -0.27902546079E+02  0.24087809661E+03  0.24436927464E+03  0.00000000000E+00 0.  1.
         21    1    1    2  505  506 -0.99678496734E+02 -0.29401559277E+02 -0.15177412342E+03  0.18394466271E+03  0.00000000000E+00 0. -1.
         21    1    1    2  506  501 -0.90973965297E+02  0.11605196026E+01 -0.10766687639E+03  0.14096015550E+03  0.00000000000E+00 0. -1.
<scales pt_clust_3="187.63400" pt_clust_4="41.15926" pt_clust_5="31.13920" pt_clust_6="31.13920"></scales>
<clustering>
<clus scale="   31.139">  5  6 -1 -1</clus>
<clus scale="   41.159">  1  4  2 -1</clus>
<clus scale="  187.634">  1  3  2 -1</clus>
<clus scale="   41.159">  1  3  2 -1</clus>
</clustering>
</event>
<event>
 6    0  0.3446372E+002  0.1015433E+03  0.7546771E-02  0.1277084E+00
         21   -1    0    0  506  501  0.00000000000E+00  0.00000000000E+00  0.49079287756E+03  0.49079287756E+03  0.00000000000E+00 0.  1.
         21   -1    0    0  503  502 -0.00000000000E+00 -0.00000000000E+00 -0.67348325134E+02  0.67348325134E+02  0.00000000000E+00 0.  1.
         21    1    1    2  503  501 -0.51422872047E+01 -0.38046738558E+02  0.48450186711E+02  0.61817619050E+02  0.00000000000E+00 0.  1.
         21    1    1    2  504  505 -0.95925952441E+02  0.19965123298E+02  0.48642012072E+02  0.10939122377E+03  0.00000000000E+00 0.  1.
         21    1    1    2  505  502 -0.56292451532E+01 -0.33744922706E+02 -0.53788069760E+01  0.34631485298E+02  0.00000000000E+00 0.  1.
         21    1    1    2  506  504  0.10669748480E+03  0.51826537967E+02  0.33173116062E+03  0.35230087458E+03  0.00000000000E+00 0.  1.
<scales pt_clust_3="43.22042" pt_clust_4="14000.00000" pt_clust_5="34.21123" pt_clust_6="101.54333"></scales>
<clustering>
<clus scale="   34.211">  2  5  1 -1</clus>
<clus scale="   43.220">  1  3  2 -1</clus>
<clus scale="  101.543">  1  6  2 -1</clus>
<clus scale="   43.220">  1  3  2 -1</clus>
</clustering>
</event>
<event>
 6    0  0.3446372E+002  0.1918957E+03  0.7546771E-02  0.1156763E+00
         21   -1    0    0  504  501  0.00000000000E+00  0.00000000000E+00  0.89596136287E+03  0.89596136287E+03  0.00000000000E+00 0. -1.
         21   -1    0    0  506  502 -0.00000000000E+00 -0.00000000000E+00 -0.96921751599E+02  0.96921751599E+02  0.00000000000E+00 0. -1.
         21    1    1    2  503  501 -0.92273786638E+02  0.82230349287E+02  0.59762089900E+03  0.61026799111E+03  0.00000000000E+00 0. -1.
         21    1    1    2  504  505 -0.41724433830E+02 -0.18571357759E+02  0.74926989673E+02  0.87748945800E+02  0.00000000000E+00 0. -1.
         21    1    1    2  505  502  0.14138865316E+03 -0.10955842966E+03  0.21643271478E+02  0.18017278360E+03  0.00000000000E+00 0. -1.
         21    1    1    2  506  503 -0.73904326907E+01  0.45899438132E+02  0.10484845111E+03  0.11469339396E+03  0.00000000000E+00 0. -1.
<scales pt_clust_3="43.01205" pt_clust_4="45.67082" pt_clust_5="176.26218" pt_clust_6="43.01205"></scales>
<clustering>
<clus scale="   45.671">  1  4  2 -1</clus>
<clus scale="   43.012">  3  6 -1 -1</clus>
<clus scale="  176.262">  2  5  1 -1</clus>
<clus scale="   45.671">  1  3  2 -1</clus>
</clustering>
</event>
<event>
 6    0  0.3446372E+002  0.8184766E+02  0.7546771E-02  0.1323888E+00
         21   -1    0    0  503  501  0.00000000000E+00  0.00000000000E+00  0.81309179079E+03  0.81309179079E+03  0.00000000000E+00 0. -1.
         21   -1    0    0  505  502 -0.00000000000E+00 -0.00000000000E+00 -0.59378291618E+03  0.59378291618E+03  0.00000000000E+00 0. -1.
         21    1    1    2  503  506  0.24543199711E+01  0.81937089878E+02  0.75601700567E+03  0.76044817262E+03  0.00000000000E+00 0. -1.
         21    1    1    2  504  502 -0.31132524518E+02 -0.10112565310E+02 -0.14823084947E+03  0.15180211723E+03  0.00000000000E+00 0. -1.
         21    1    1    2  505  501  0.99891175220E+02 -0.61031267958E+02 -0.40427875511E+03  0.42088522709E+03  0.00000000000E+00 0. -1.
         21    1    1    2  506  504 -0.71212970673E+02 -0.10793256610E+02  0.15801473513E+02  0.73739190025E+02  0.00000000000E+00 0. -1.
<scales pt_clust_3="14000.00000" pt_clust_4="32.73374" pt_clust_5="81.84766" pt_clust_6="74.13537"></scales>
<clustering>
<clus scale="   32.734">  2  4  1 -1</clus>
<clus scale="   74.135">  2  6  1 -1</clus>
<clus scale="   81.848">  2  5  1 -1</clus>
<clus scale="   81.848">  1  3  2 -1</clus>
</clustering>
</event>
<event>
 6    0  0.3446372E+002  0.1371400E+03  0.7546771E-02  0.1217230E+00
         21   -1    0    0  505  501  0.00000000000E+00  0.00000000000E+00  0.49616609628E+03  0.49616609628E+03  0.00000000000E+00 0. -1.
         21   -1    0    0  504  502 -0.00000000000E+00 -0.00000000000E+00 -0.14193027128E+04  0.14193027128E+04  0.00000000000E+00 0.  1.
         21    1    1    2  503  502 -0.10636543506E+03 -0.47374475151E+02 -0.51755585719E+03  0.53049223555E+03  0.00000000000E+00 0.  1.
         21    1    1    2  504  506  0.39368962537E+01 -0.51364791210E+02 -0.86809046551E+03  0.86961767303E+03  0.00000000000E+00 0.  1.
         21    1    1    2  505  503  0.14480818876E+02  0.11319718021E+03  0.13925698951E+03  0.18004389700E+03  0.00000000000E+00 0.  1.
         21    1    1    2  506  501  0.87947719931E+02 -0.14457913844E+02  0.32325271669E+03  0.33531500348E+03  0.00000000000E+00 0. -1.
<scales pt_clust_3="137.13996" pt_clust_4="51.51544" pt_clust_5="14000.00000" pt_clust_6="89.26372"></scales>
<clustering>
<clus scale="   51.515">  2  4  1 -1</clus>
<clus scale="   89.264">  1  6  2 -1</clus>
<clus scale="  137.140">  2  3  1 -1</clus>
<clus scale="   89.264">  1  3  2 -1</clus>
</clustering>
</event>
<event>
 6    0  0.3446372E+002  0.1061841E+03  0.7546771E-02  0.1267804E+00
         21   -1    0    0  506  501  0.00000000000E+00  0.00000000000E+00  0.77539664733E+03  0.77539664733E+03  0.00000000000E+00 0. -1.
         21   -1    0    0  503  502 -0.00000000000E+00 -0.00000000000E+00 -0.26305309381E+03  0.26305309381E+03  0.00000000000E+00 0. -1.
         21    1    1    2  503  504 -0.45004307680E+02 -0.39309503317E+02 -0.20974653614E+03  0.21809226072E+03  0.00000000000E+00 0. -1.
         21    1    1    2  504  501 -0.15395039901E+02 -0.25791169148E+02  0.40417902049E+02  0.50356712220E+02  0.00000000000E+00 0.  1.
         21    1    1    2  505  502 -0.56444844905E+02  0.36647578481E+01 -0.16923902269E+02  0.59041251972E+02  0.00000000000E+00 0.  1.
         21    1    1    2  506  505  0.11684419249E+03  0.61435914617E+02  0.69859608988E+03  0.71095951623E+03  0.00000000000E+00 0. -1.
<scales pt_clust_3="14000.00000" pt_clust_4="30.03651" pt_clust_5="56.96388" pt_clust_6="106.18407"></scales>
<clustering>
<clus scale="   30.037">  1  4  2 -1</clus>
<clus scale="   56.964">  2  5  1 -1</clus>
<clus scale="  106.184">  1  6  2 -1</clus>
<clus scale="   30.037">  1  3  2 -1</clus>
</clustering>
</event>
<event>
 6    0  0.3446372E+002  0.2115261E+03  0.7546771E-02  0.1140363E+00
         21   -1    0    0  504  501  0.00000000000E+00  0.00000000000E+00  0.10316021062E+04  0.10316021062E+04  0.00000000000E+00 0.  1.
         21   -1    0    0  503  502 -0.00000000000E+00 -0.00000000000E+00 -0.41124676499E+03  0.41124676499E+03  0.00000000000E+00 0. -1.
         21    1    1    2  503  505 -0.14767249835E+03  0.96555992843E+02 -0.33015498768E+03  0.37434281402E+03  0.00000000000E+00 0. -1.
         21    1    1    2  504  506  0.16055017469E+03 -0.15117406086E+03  0.33833940300E+03  0.40386075186E+03  0.00000000000E+00 0.  1.
         21    1    1    2  505  501  0.25607899477E+02  0.43966894312E+02  0.62154776147E+03  0.62362686929E+03  0.00000000000E+00 0.  1.
         21    1    1    2  506  502 -0.38485575819E+02  0.10651173710E+02 -0.93768355793E+01  0.41018436013E+02  0.00000000000E+00 0. -1.
<scales pt_clust_3="14000.00000" pt_clust_4="211.52614" pt_clust_5="50.85350" pt_clust_6="39.93228"></scales>
<clustering>
<clus scale="   39.932">  2  6  1 -1</clus>
<clus scale="   50.853">  1  5  2 -1</clus>
<clus scale="  211.526">  1  4  2 -1</clus>
<clus scale="   50.853">  1  3  2 -1</clus>
</clustering>
</event>
<event>
 6    0  0.3446372E+002  0.8705264E+02  0.7546771E-02  0.1310150E+00
         21   -1    0    0  504  501  0.00000000000E+00  0.00000000000E+00  0.18211430149E+03  0.18211430149E+03  0.00000000000E+00 0.  1.
         21   -1    0    0  506  502 -0.00000000000E+00 -0.00000000000E+00 -0.72694178370E+03  0.72694178370E+03  0.00000000000E+00 0.  1.
         21    1    1    2  503  501 -0.25071144415E+02  0.23297763747E+02  0.81389940938E+02  0.88293094655E+02  0.00000000000E+00 0.  1.
         21    1    1    2  504  505 -0.36645807921E+02 -0.87979364056E+02  0.65713120064E+02  0.11576483873E+03  0.00000000000E+00 0.  1.
         21    1    1    2  505  502  0.63671280456E+02 -0.51478272645E+01 -0.28072913499E+03  0.28790515680E+03  0.00000000000E+00 0.  1.
         21    1    1    2  506  503 -0.19543281202E+01  0.69829427574E+02 -0.41120140823E+03  0.41709299501E+03  0.00000000000E+00 0.  1.
<scales pt_clust_3="34.22496" pt_clust_4="14000.00000" pt_clust_5="62.89288" pt_clust_6="87.05264"></scales>
<clustering>
<clus scale="   34.225">  1  3  2 -1</clus>
<clus scale="   62.893">  2  5  1 -1</clus>
<clus scale="   87.053">  2  6  1 -1</clus>
<clus scale="   34.225">  1  3  2 -1</clus>
</clustering>
</event>
<event>
 6    0  0.3446372E+002  0.3268213E+03  0.7546771E-02  0.1072552E+00
         21   -1    0    0  504  501  0.00000000000E+00  0.00000000000E+00  0.93793200462E+03  0.93793200462E+03  0.00000000000E+00 0.  1.
         21   -1    0    0  503  502 -0.00000000000E+00 -0.00000000000E+00 -0.37772697381E+03  0.37772697381E+03  0.00000000000E+00 0. -1.
         21    1    1    2  503  501 -0.32634097484E+03  0.80110333310E+01 -0.26074142191E+03  0.41779025553E+03  0.00000000000E+00 0. -1.
         21    1    1    2  504  506  0.36217687589E+02 -0.44955940590E+01  0.27276326020E+03  0.27519398136E+03  0.00000000000E+00 0. -1.
         21    1    1    2  505  502  0.21554276628E+03  0.17485013222E+01  0.35232255390E+03  0.41302896186E+03  0.00000000000E+00 0.  1.
         21    1    1    2  506  505  0.74580520969E+02 -0.52639405943E+01  0.19586063862E+03  0.20964577968E+03  0.00000000000E+00 0.  1.
<scales pt_clust_3="322.14442" pt_clust_4="36.49563" pt_clust_5="32.44650" pt_clust_6="32.44650"></scales>
<clustering>
<clus scale="   32.446">  5  6 -1 -1</clus>
<clus scale="   36.496">  1  4  2 -1</clus>
<clus scale="  322.144">  2  3  1 -1</clus>
<clus scale="   36.496">  1  3  2 -1</clus>
</clustering>
</event>
<event>
 6    0  0.3446372E+002  0.1353847E+03  0.7546771E-02  0.1219678E+00
         21   -1    0    0  504  501  0.00000000000E+00  0.00000000000E+00  0.21321670438E+04  0.21321670438E+04  0.00000000000E+00 0. -1.
         21   -1    0    0  503  502 -0.00000000000E+00 -0.00000000000E+00 -0.15815401882E+03  0.15815401882E+03  0.00000000000E+00 0.  1.
         21    1    1    2  503  501  0.31364318120E+02  0.18422482740E+02  0.24785949873E+03  0.25051434975E+03  0.00000000000E+00 0. -1.
         21    1    1    2  504  505 -0.44037453822E+02 -0.15266450443E+03  0.18245536173E+04  0.18314588859E+04  0.00000000000E+00 0. -1.
         21    1    1    2  505  506 -0.29650490716E+02  0.13589400912E+03 -0.88471085486E+02  0.16484376325E+03  0.00000000000E+00 0.  1.
         21    1    1    2  506  502  0.42323626418E+02 -0.16519874314E+01 -0.99290055247E+01  0.43504063791E+02  0.00000000000E+00 0. -1.
<scales pt_clust_3="36.37456" pt_clust_4="14000.00000" pt_clust_5="135.38473" pt_clust_6="42.62922"></scales>
<clustering>
<clus scale="   36.375">  1  3  2 -1</clus>
<clus scale="   42.629">  2  6  1 -1</clus>
<clus scale="  135.385">  2  5  1 -1</clus>
<clus scale="   36.375">  1  3  2 -1</clus>
</clustering>
</event>
<event>
 6    0  0.3446372E+002  0.1912206E+03  0.7546771E-02  0.1157365E+00
         21   -1    0    0  506  501  0.00000000000E+00  0.00000000000E+00  0.32689103332E+03  0.32689103332E+03  0.00000000000E+00 0.  1.
         21   -1    0    0  504  502 -0.00000000000E+00 -0.00000000000E+00 -0.56289729374E+03  0.56289729374E+03  0.00000000000E+00 0.  1.
         21    1    1    2  503  505  0.92214891384E+02  0.25924630291E+02  0.13964206718E+03  0.16933865352E+03  0.00000000000E+00 0.  1.
         21    1    1    2  504  501  0.69301591198E+02 -0.15111706693E+03 -0.60791293897E+02  0.17701598763E+03  0.00000000000E+00 0.  1.
         21    1    1    2  505  502 -0.13634166789E+03  0.15188524487E+03 -0.40091573500E+03  0.44987954452E+03  0.00000000000E+00 0.  1.
         21    1    1    2  506  503 -0.25174814688E+02 -0.26692808224E+02  0.86058701289E+02  0.93554141399E+02  0.00000000000E+00 0.  1.
<scales pt_clust_3="76.28882" pt_clust_4="191.22061" pt_clust_5="14000.00000" pt_clust_6="36.69165"></scales>
<clustering>
<clus scale="   36.692">  1  6  2 -1</clus>
<clus scale="   76.289">  1  3  2 -1</clus>
<clus scale="  191.221">  1  4  2 -1</clus>
<clus scale="   36.692">  1  3  2 -1</clus>
</clustering>
</event>
<event>
 6    0  0.3446372E+002  0.8668011E+02  0.7546771E-02  0.1311096E+00
         21   -1    0    0  504  501  0.00000000000E+00  0.00000000000E+00  0.38575991608E+03  0.38575991608E+03  0.00000000000E+00 0.  1.
         21   -1    0    0  505  502 -0.00000000000E+00 -0.00000000000E+00 -0.15800756975E+03  0.15800756975E+03  0.00000000000E+00 0.  1.
         21    1    1    2  503  501 -0.10451096637E+03  0.95674468779E+02  0.13683483628E+03  0.19697694913E+03  0.00000000000E+00 0.  1.
         21    1    1    2  504  506  0.65573946159E+02 -0.35658927380E+02  0.19353629131E+03  0.20743142860E+03  0.00000000000E+00 0.  1.
         21    1    1    2  505  503  0.60057686002E+01 -0.43378267459E+02 -0.90476059600E+02  0.10051696725E+03  0.00000000000E+00 0.  1.
         21    1    1    2  506  502  0.32931251609E+02 -0.16637273941E+02 -0.12142721665E+02  0.38842140854E+02  0.00000000000E+00 0. -1.
<scales pt_clust_3="86.68011" pt_clust_4="14000.00000" pt_clust_5="62.84840" pt_clust_6="36.89534"></scales>
<clustering>
<clus scale="   36.895">  2  6  1 -1</clus>
<clus scale="   62.848">  2  5  1 -1</clus>
<clus scale="   86.680">  2  3  1 -1</clus>
<clus scale="   86.680">  1  3  2 -1</clus>
</clustering>
</event>
<event>
 6    0  0.3446372E+002  0.1434818E+03  0.7546771E-02  0.1208719E+00
         21   -1    0    0  503  501  0.00000000000E+00  0.00000000000E+00  0.17119179083E+04  0.17119179083E+04  0.00000000000E+00 0.  1.
         21   -1    0    0  506  502 -0.00000000000E+00 -0.00000000000E+00 -0.30945396397E+03  0.30945396397E+03  0.00000000000E+00 0.  1.
         21    1    1    2  503  505  0.15860979204E+02  0.41543121061E+02  0.20549628486E+03  0.21025252593E+03  0.00000000000E+00 0.  1.
         21    1    1    2  504  501  0.10037611664E+03 -0.12578987680E+03  0.14753298174E+04  0.14840810382E+04  0.00000000000E+00 0.  1.
         21    1    1    2  505  502 -0.26967035857E+02 -0.16815506065E+02 -0.26617294602E+02  0.41454344031E+02  0.00000000000E+00 0.  1.
         21    1    1    2  506  504 -0.89270059983E+02  0.10106226180E+03 -0.25174486330E+03  0.28558396413E+03  0.00000000000E+00 0.  1.
<scales pt_clust_3="44.24960" pt_clust_4="14000.00000" pt_clust_5="31.78022" pt_clust_6="143.48182"></scales>
<clustering>
<clus scale="   31.780">  2  5  1 -1</clus>
<clus scale="   44.250">  1  3  2 -1</clus>
<clus scale="  143.482">  2  6  1 -1</clus>
<clus scale="   44.250">  1  3  2 -1</clus>
</clustering>
</event>
<event>
 6    0  0.3446372E+002  0.1218974E+03  0.7546771E-02  0.1239999E+00
         21   -1    0    0  505  501  0.00000000000E+00  0.00000000000E+00  0.17729174000E+04  0.17729174000E+04  0.00000000000E+00 0.  1.
         21   -1    0    0  503  502 -0.00000000000E+00 -0.00000000000E+00 -0.12367318010E+03  0.12367318010E+03  0.00000000000E+00 0.  1.
         21    1    1    2  503  504 -0.76381940481E+02  0.43343801189E+02 -0.34146943184E+02  0.94227913390E+02  0.00000000000E+00 0.  1.
         21    1    1    2  504  501  0.94410385563E+01  0.36364898466E+02  0.37324414851E+03  0.37513028863E+03  0.00000000000E+00 0. -1.
         21    1    1    2  505  506  0.11363592903E+03 -0.54774333954E+02  0.13531584711E+04  0.13590258275E+04  0.00000000000E+00 0.  1.
         21    1    1    2  506  502 -0.46695027101E+02 -0.24934365701E+02 -0.43011456504E+02  0.68206550561E+02  0.00000000000E+00 0.  1.
<scales pt_clust_3="14000.00000" pt_clust_4="37.57045" pt_clust_5="121.89745" pt_clust_6="52.70663"></scales>
<clustering>
<clus scale="   37.570">  1  4  2 -1</clus>
<clus scale="   52.707">  2  6  1 -1</clus>
<clus scale="  121.897">  1  5  2 -1</clus>
<clus scale="   37.570">  1  3  2 -1</clus>
</clustering>
</event>
<event>
 6    0  0.3446372E+002  0.1212372E+03  0.7546771E-02  0.1241070E+00
         21   -1    0    0  506  501  0.00000000000E+00  0.00000000000E+00  0.26868292019E+03  0.26868292019E+03  0.00000000000E+00 0.  1.
         21   -1    0    0  503  502 -0.00000000000E+00 -0.00000000000E+00 -0.32924528077E+03  0.32924528077E+03  0.00000000000E+00 0. -1.
         21    1    1    2  503  504  0.31384922030E+02 -0.28736722349E+02 -0.24471716069E+02  0.49088465341E+02  0.00000000000E+00 0. -1.
         21    1    1    2  504  505 -0.12488299720E+02 -0.11957052302E+03 -0.14040501652E+03  0.18484219288E+03  0.00000000000E+00 0. -1.
         21    1    1    2  505  501  0.75213043381E+02  0.10300877767E+03 -0.81131437786E+02  0.15116256272E+03  0.00000000000E+00 0. -1.
         21    1    1    2  506  502 -0.94109665690E+02  0.45298467700E+02  0.18544580979E+03  0.21283498002E+03  0.00000000000E+00 0.  1.
<scales pt_clust_3="42.55364" pt_clust_4="14000.00000" pt_clust_5="121.23715" pt_clust_6="102.53799"></scales>
<clustering>
<clus scale="   42.554">  2  3  1 -1</clus>
<clus scale="  102.538">  1  6  2 -1</clus>
<clus scale="  121.237">  1  5  2 -1</clus>
<clus scale="  102.538">  1  3  2 -1</clus>
</clustering>
</event>
<event>
 6    0  0.3446372E+002  0.1179644E+03  0.7546771E-02  0.1246493E+00
         21   -1    0    0  503  501  0.00000000000E+00  0.00000000000E+00  0.30230340910E+03  0.30230340910E+03  0.00000000000E+00 0.  1.
         21   -1    0    0  506  502 -0.00000000000E+00 -0.00000000000E+00 -0.14870233563E+03  0.14870233563E+03  0.00000000000E+00 0. -1.
         21    1    1    2  503  502 -0.33004249295E+02  0.17521626169E+01  0.80064208383E+02  0.86617711869E+02  0.00000000000E+00 0. -1.
         21    1    1    2  504  505 -0.22892469613E+02  0.46763542190E+02 -0.82224573535E+02  0.97323042164E+02  0.00000000000E+00 0. -1.
         21    1    1    2  505  501  0.92215604115E+02 -0.85669368115E+02  0.17154061947E+03  0.21276546337E+03  0.00000000000E+00 0.  1.
         21    1    1    2  506  504 -0.36318885208E+02  0.37153663308E+02 -0.15779180849E+02  0.54299527330E+02  0.00000000000E+00 0. -1.
<scales pt_clust_3="33.05073" pt_clust_4="52.51580" pt_clust_5="105.25687" pt_clust_6="52.51580"></scales>
<clustering>
<clus scale="   33.051">  1  3  2 -1</clus>
<clus scale="   52.516">  4  6 -1 -1</clus>
<clus scale="  105.257">  1  5  2 -1</clus>
<clus scale="   33.051">  1  3  2 -1</clus>
</clustering>
</event>
<event>
 6    0  0.3446372E+002  0.1435242E+03  0.7546771E-02  0.1208664E+00
         21   -1    0    0  505  501  0.00000000000E+00  0.00000000000E+00  0.10753685782E+04  0.10753685782E+04  0.00000000000E+00 0.  1.
         21   -1    0    0  501  502 -0.00000000000E+00 -0.00000000000E+00 -0.14524453536E+03  0.14524453536E+03  0.00000000000E+00 0. -1.
         21    1    1    2  503  504  0.32184477541E+02 -0.96781589943E+02  0.42606595231E+03  0.43810354080E+03  0.00000000000E+00 0.  1.
         21    1    1    2  504  506 -0.21441300496E+02  0.50392901558E+02 -0.19541236324E+02  0.58146657784E+02  0.00000000000E+00 0. -1.
         21    1    1    2  505  503 -0.28639035871E+02 -0.39857967511E+02  0.60346804979E+03  0.60546060076E+03  0.00000000000E+00 0.  1.
         21    1    1    2  506  502  0.17895858826E+02  0.86246655896E+02 -0.79868722949E+02  0.11890231420E+03  0.00000000000E+00 0. -1.
<scales pt_clust_3="133.48456" pt_clust_4="41.58222" pt_clust_5="49.08006" pt_clust_6="41.58222"></scales>
<clustering>
<clus scale="   41.582">  4  6 -1 -1</clus>
<clus scale="   49.080">  1  5  2 -1</clus>
<clus scale="  133.485">  1  3  2 -1</clus>
<clus scale="   49.080">  1  3  2 -1</clus>
</clustering>
</event>
<event>
 6    0  0.3446372E+002  0.1093870E+03  0.7546771E-02  0.1261709E+00
         21   -1    0    0  506  501  0.00000000000E+00  0.00000000000E+00  0.20667572756E+04  0.20667572756E+04  0.00000000000E+00 0.  1.
         21   -1    0    0  504  502 -0.00000000000E+00 -0.00000000000E+00 -0.22906471368E+02  0.22906471368E+02  0.00000000000E+00 0.  1.
         21    1    1    2  503  505 -0.10607582500E+02 -0.10932042690E+03  0.72695510094E+03  0.73520554631E+03  0.00000000000E+00 0.  1.
         21    1    1    2  504  503 -0.46902009271E+02  0.85450245987E+02  0.14444105186E+03  0.17425487217E+03  0.00000000000E+00 0.  1.
         21    1    1    2  505  501  0.84638909510E+02  0.34873008586E+01  0.10409527596E+04  0.10443938691E+04  0.00000000000E+00 0.  1.
         21    1    1    2  506  502 -0.27129317739E+02  0.20382880050E+02  0.13150189183E+03  0.13580945930E+03  0.00000000000E+00 0. -1.
<scales pt_clust_3="14000.00000" pt_clust_4="109.38699" pt_clust_5="82.55219" pt_clust_6="33.93319"></scales>
<clustering>
<clus scale="   33.933">  2  6  1 -1</clus>
<clus scale="   82.552">  1  5  2 -1</clus>
<clus scale="  109.387">  2  4  1 -1</clus>
<clus scale="   82.552">  1  3  2 -1</clus>
</clustering>
</event>
<event>
 6    0  0.3446372E+002  0.1144560E+03  0.7546771E-02  0.1252534E+00
         21   -1    0    0  504  501  0.00000000000E+00  0.00000000000E+00  0.19544580042E+04  0.19544580042E+04  0.00000000000E+00 0. -1.
         21   -1    0    0  506  502 -0.00000000000E+00 -0.00000000000E+00 -0.49165590685E+02  0.49165590685E+02  0.00000000000E+00 0. -1.
         21    1    1    2  503  505 -0.65551112494E+02  0.66537827236E+02  0.12709306986E+04  0.12743582979E+04  0.00000000000E+00 0. -1.
         21    1    1    2  504  502 -0.84944582215E+02  0.45954539542E+02  0.74921467871E+02  0.12223186205E+03  0.00000000000E+00 0. -1.
         21    1    1    2  505  501 -0.13508291719E+02 -0.33287836048E+02  0.20927106893E+03  0.21233213196E+03  0.00000000000E+00 0. -1.
         21    1    1    2  506  503  0.16400398643E+03 -0.79204530729E+02  0.35016917805E+03  0.39470130290E+03  0.00000000000E+00 0. -1.
<scales pt_clust_3="86.43563" pt_clust_4="114.45602" pt_clust_5="35.92428" pt_clust_6="14000.00000"></scales>
<clustering>
<clus scale="   35.924">  1  5  2 -1</clus>
<clus scale="   86.436">  1  3  2 -1</clus>
<clus scale="  114.456">  2  4  1 -1</clus>
<clus scale="   35.924">  1  3  2 -1</clus>
</clustering>
</event>
<event>
 6    0  0.3446372E+002  0.4858410E+03  0.7546771E-02  0.1017542E+00
         21   -1    0    0  504  501  0.00000000000E+00  0.00000000000E+00  0.46094781535E+03  0.46094781535E+03  0.00000000000E+00 0. -1.
         21   -1    0    0  503  502 -0.00000000000E+00 -0.00000000000E+00 -0.19228084816E+04  0.19228084816E+04  0.00000000000E+00 0. -1.
         21    1    1    2  503  505 -0.39222194420E+03 -0.27627490768E+03 -0.15872423143E+04  0.16581628516E+04  0.00000000000E+00 0. -1.
         21    1    1    2  504  502 -0.15623421700E+02  0.30713366170E+02  0.22908733945E+03  0.23166443677E+03  0.00000000000E+00 0. -1.
         21    1    1    2  505  506  0.28792319627E+03  0.21337149882E+03 -0.85597250685E+02  0.36844816839E+03  0.00000000000E+00 0. -1.
         21    1    1    2  506  501  0.11992216963E+03  0.32190042689E+02 -0.18108440645E+02  0.12548084013E+03  0.00000000000E+00 0. -1.
<scales pt_clust_3="479.02905" pt_clust_4="34.45870" pt_clust_5="47.17953" pt_clust_6="47.17953"></scales>
<clustering>
<clus scale="   34.459">  1  4  2 -1</clus>
<clus scale="   47.180">  5  6 -1 -1</clus>
<clus scale="  479.029">  2  3  1 -1</clus>
<clus scale="   34.459">  1  3  2 -1</clus>
</clustering>
</event>
<event>
 6    0  0.3446372E+002  0.1004616E+03  0.7546771E-02  0.1279328E+00
         21   -1    0    0  504  501  0.00000000000E+00  0.00000000000E+00  0.13215790781E+03  0.13215790781E+03  0.00000000000E+00 0. -1.
         21   -1    0    0  503  502 -0.00000000000E+00 -0.00000000000E+00 -0.47994798018E+03  0.47994798018E+03  0.00000000000E+00 0. -1.
         21    1    1    2  503  505 -0.60079132492E+02 -0.25112709978E+02 -0.31405583047E+03  0.32073542838E+03  0.00000000000E+00 0. -1.
         21    1    1    2  504  506  0.15736627814E+03  0.81531208720E+01  0.95334513234E+01  0.15786546668E+03  0.00000000000E+00 0. -1.
         21    1    1    2  505  501 -0.40328698831E+02 -0.30797826696E+02 -0.26744420450E+02  0.57360039259E+02  0.00000000000E+00 0. -1.
         21    1    1    2  506  502 -0.56958446819E+02  0.47757415802E+02 -0.16523272772E+02  0.76144953682E+02  0.00000000000E+00 0. -1.
<scales pt_clust_3="66.52044" pt_clust_4="14000.00000" pt_clust_5="50.74357" pt_clust_6="100.46157"></scales>
<clustering>
<clus scale="   50.744">  1  5  2 -1</clus>
<clus scale="   66.520">  2  3  1 -1</clus>
<clus scale="  100.462">  2  6  1 -1</clus>
<clus scale="   50.744">  1  3  2 -1</clus>
</clustering>
</event>
<event>
 6    0  0.3446372E+002  0.6107731E+02  0.7546771E-02  0.1393366E+00
         21   -1    0    0  505  501  0.00000000000E+00  0.00000000000E+00  0.17909882859E+04  0.17909882859E+04  0.00000000000E+00 0. -1.
         21   -1    0    0  503  502 -0.00000000000E+00 -0.00000000000E+00 -0.27630774685E+02  0.27630774685E+02  0.00000000000E+00 0. -1.
         21    1    1    2  503  504  0.75856488930E+02  0.38990057060E+02  0.11721896345E+03  0.14496453654E+03  0.00000000000E+00 0. -1.
         21    1    1    2  504  501  0.31963691277E+02  0.27610819379E+02  0.60086228590E+03  0.60234501867E+03  0.00000000000E+00 0. -1.
         21    1    1    2  505  506 -0.70252226885E+02 -0.31608401234E+02  0.99968299540E+03  0.10026467761E+04  0.00000000000E+00 0. -1.
         21    1    1    2  506  502 -0.37567953322E+02 -0.34992475206E+02  0.45593266461E+02  0.68662729223E+02  0.00000000000E+00 0. -1.
<scales pt_clust_3="61.07731" pt_clust_4="42.23784" pt_clust_5="44.14691" pt_clust_6="14000.00000"></scales>
<clustering>
<clus scale="   42.238">  1  4  2 -1</clus>
<clus scale="   44.147">  1  5  2 -1</clus>
<clus scale="   61.077">  1  3  2 -1</clus>
<clus scale="   42.238">  1  3  2 -1</clus>
</clustering>
</event>
<event>
 6    0  0.3446372E+002  0.1087757E+03  0.7546771E-02  0.1262854E+00
         21   -1    0    0  503  501  0.00000000000E+00  0.00000000000E+00  0.17971441607E+04  0.17971441607E+04  0.00000000000E+00 0. -1.
         21   -1    0    0  506  502 -0.00000000000E+00 -0.00000000000E+00 -0.25840865626E+03  0.25840865626E+03  0.00000000000E+00 0. -1.
         21    1    1    2  503  505  0.32652115530E+02 -0.48188646709E+02  0.40956088006E+03  0.41367671049E+03  0.00000000000E+00 0. -1.
         21    1    1    2  504  501 -0.14389167901E+02 -0.60452279758E+02  0.13661553053E+04  0.13675678573E+04  0.00000000000E+00 0. -1.
         21    1    1    2  505  502  0.31638488911E+02  0.32971164809E+02 -0.59514384867E+02  0.75033683740E+02  0.00000000000E+00 0. -1.
         21    1    1    2  506  504 -0.49901436540E+02  0.75669761658E+02 -0.17746629602E+03  0.19927456541E+03  0.00000000000E+00 0. -1.
<scales pt_clust_3="58.10835" pt_clust_4="14000.00000" pt_clust_5="45.69564" pt_clust_6="108.77573"></scales>
<clustering>
<clus scale="   45.696">  2  5  1 -1</clus>
<clus scale="   58.108">  1  3  2 -1</clus>
<clus scale="  108.776">  2  6  1 -1</clus>
<clus scale="   58.108">  1  3  2 -1</clus>
</clustering>
</event>
<event>
 6    0  0.3446372E+002  0.9149986E+02  0.7546771E-02  0.1299260E+00
         21   -1    0    0  503  501  0.00000000000E+00  0.00000000000E+00  0.22096403903E+02  0.22096403903E+02  0.00000000000E+00 0. -1.
         21   -1    0    0  504  502 -0.00000000000E+00 -0.00000000000E+00 -0.17232949977E+04  0.17232949977E+04  0.00000000000E+00 0. -1.
         21    1    1    2  503  505 -0.19033085229E+02  0.29704713567E+02 -0.28121534572E+02  0.45115951149E+02  0.00000000000E+00 0. -1.
         21    1    1    2  504  501 -0.75862468048E+02 -0.73078581862E+01 -0.84442539174E+03  0.84785774813E+03  0.00000000000E+00 0. -1.
         21    1    1    2  505  506  0.78421569854E+02  0.62245211663E+02 -0.28740996202E+03  0.30434995525E+03  0.00000000000E+00 0. -1.
         21    1    1    2  506  502  0.16473983423E+02 -0.84642067044E+02 -0.54124170544E+03  0.54806774705E+03  0.00000000000E+00 0. -1.
<scales pt_clust_3="35.27929" pt_clust_4="14000.00000" pt_clust_5="91.49986" pt_clust_6="78.06830"></scales>
<clustering>
<clus scale="   35.279">  1  3  2 -1</clus>
<clus scale="   78.068">  2  6  1 -1</clus>
<clus scale="   91.500">  1  5  2 -1</clus>
<clus scale="   35.279">  1  3  2 -1</clus>
</clustering>
</event>
<event>
 6    0  0.3446372E+002  0.1018760E+03  0.7546771E-02  0.1276400E+00
         21   -1    0    0  502  501  0.00000000000E+00  0.00000000000E+00  0.12256199324E+03  0.12256199324E+03  0.00000000000E+00 0. -1.
         21   -1    0    0  504  502 -0.00000000000E+00 -0.00000000000E+00 -0.91372372888E+03  0.91372372888E+03  0.00000000000E+00 0. -1.
         21    1    1    2  503  506  0.36165823145E+02 -0.14640555044E+03 -0.78091643398E+02  0.16982596012E+03  0.00000000000E+00 0.  1.
         21    1    1    2  504  505  0.17564445919E+02  0.53785801999E+02 -0.50571211209E+03  0.50886752949E+03  0.00000000000E+00 0. -1.
         21    1    1    2  505  503 -0.85879039839E+02  0.26234247000E+02 -0.25461927958E+03  0.26998967153E+03  0.00000000000E+00 0. -1.
         21    1    1    2  506  501  0.32148770775E+02  0.66385501440E+02  0.47261299429E+02  0.87602560964E+02  0.00000000000E+00 0. -1.
<scales pt_clust_3="14000.00000" pt_clust_4="56.58111" pt_clust_5="101.87597" pt_clust_6="76.54356"></scales>
<clustering>
<clus scale="   56.581">  2  4  1 -1</clus>
<clus scale="   76.544">  1  6  2 -1</clus>
<clus scale="  101.876">  2  5  1 -1</clus>
<clus scale="   76.544">  1  3  2 -1</clus>
</clustering>
</event>
<event>
 6    0  0.3446372E+002  0.1019613E+03  0.7546771E-02  0.1276225E+00
         21   -1    0    0  504  501  0.00000000000E+00  0.00000000000E+00  0.48568748570E+03  0.48568748570E+03  0.00000000000E+00 0.  1.
         21   -1    0    0  505  502 -0.00000000000E+00 -0.00000000000E+00 -0.27216345842E+03  0.27216345842E+03  0.00000000000E+00 0.  1.
         21    1    1    2  503  502 -0.37112481416E+02 -0.41040846571E+02 -0.18275553360E+03  0.19094835015E+03  0.00000000000E+00 0.  1.
         21    1    1    2  504  503  0.44973065395E+02  0.13539655039E+03  0.24687209646E+03  0.28513266119E+03  0.00000000000E+00 0.  1.
         21    1    1    2  505  506 -0.27727900049E+02 -0.40984927498E+02 -0.52405442911E+02  0.72075870927E+02  0.00000000000E+00 0.  1.
         21    1    1    2  506  501  0.19867316071E+02 -0.53370776318E+02  0.20181290733E+03  0.20969406186E+03  0.00000000000E+00 0.  1.
<scales pt_clust_3="14000.00000" pt_clust_4="101.96132" pt_clust_5="49.48334" pt_clust_6="57.49307"></scales>
<clustering>
<clus scale="   49.483">  2  5  1 -1</clus>
<clus scale="   57.493">  1  6  2 -1</clus>
<clus scale="  101.961">  1  4  2 -1</clus>
<clus scale="   57.493">  1  3  2 -1</clus>
</clustering>
</event>
<event>
 6    0  0.3446372E+002  0.1206147E+03  0.7546771E-02  0.1242086E+00
         21   -1    0    0  506  501  0.00000000000E+00  0.00000000000E+00  0.26200072032E+03  0.26200072032E+03  0.00000000000E+00 0. -1.
         21   -1    0    0  503  502 -0.00000000000E+00 -0.00000000000E+00 -0.45118692547E+03  0.45118692547E+03  0.00000000000E+00 0. -1.
         21    1    1    2  503  505  0.40156421903E+02 -0.54167678795E+02 -0.29016579947E+03  0.29789740990E+03  0.00000000000E+00 0. -1.
         21    1    1    2  504  501 -0.28819921586E+02 -0.13660785589E+02  0.35652180403E+02  0.47836000153E+02  0.00000000000E+00 0. -1.
         21    1    1    2  505  504  0.71119511481E+02 -0.17463664522E+02 -0.12401124460E+03  0.14401997528E+03  0.00000000000E+00 0.  1.
         21    1    1    2  506  502 -0.82456011797E+02  0.85292128906E+02  0.18933865852E+03  0.22343426045E+03  0.00000000000E+00 0. -1.
<scales pt_clust_3="67.32265" pt_clust_4="31.89365" pt_clust_5="14000.00000" pt_clust_6="120.61472"></scales>
<clustering>
<clus scale="   31.894">  1  4  2 -1</clus>
<clus scale="   67.323">  2  3  1 -1</clus>
<clus scale="  120.615">  1  6  2 -1</clus>
<clus scale="   31.894">  1  3  2 -1</clus>
</clustering>
</event>
<event>
 6    0  0.3446372E+002  0.1324550E+03  0.7546771E-02  0.1223858E+00
         21   -1    0    0  503  501  0.00000000000E+00  0.00000000000E+00  0.42573050749E+03  0.42573050749E+03  0.00000000000E+00 0. -1.
         21   -1    0    0  505  502 -0.00000000000E+00 -0.00000000000E+00 -0.33060948046E+03  0.33060948046E+03  0.00000000000E+00 0.  1.
         21    1    1    2  503  504 -0.37761932390E+02  0.23184779801E+02 -0.89064010226E+02  0.99478115532E+02  0.00000000000E+00 0.  1.
         21    1    1    2  504  502 -0.99632389261E+01  0.85219551431E+02 -0.18848843067E+03  0.20709786714E+03  0.00000000000E+00 0.  1.
         21    1    1    2  505  506  0.54675225739E+02 -0.17172521616E+03  0.31934088902E+03  0.36668451505E+03  0.00000000000E+00 0. -1.
         21    1    1    2  506  501 -0.69500544223E+01  0.63320884927E+02  0.53332578907E+02  0.83079490232E+02  0.00000000000E+00 0. -1.
<scales pt_clust_3="38.86188" pt_clust_4="38.86188" pt_clust_5="120.91335" pt_clust_6="63.70116"></scales>
<clustering>
<clus scale="   38.862">  3  4 -1 -1</clus>
<clus scale="   63.701">  1  6  2 -1</clus>
<clus scale="  120.913">  1  5  2 -1</clus>
<clus scale="   63.701">  1  3  2 -1</clus>
</clustering>
</event>
<event>
 6    0  0.3446372E+002  0.1158092E+03  0.7546771E-02  0.1250175E+00
         21   -1    0    0  504  501  0.00000000000E+00  0.00000000000E+00  0.33413098426E+03  0.33413098426E+03  0.00000000000E+00 0.  1.
         21   -1    0    0  506  502 -0.00000000000E+00 -0.00000000000E+00 -0.25057583058E+04  0.25057583058E+04  0.00000000000E+00 0. -1.
         21    1    1    2  503  505 -0.13184006740E+02 -0.16473143463E+03  0.12698372219E+03  0.20841096250E+03  0.00000000000E+00 0.  1.
         21    1    1    2  504  503  0.36007204427E+02  0.51859750854E+02  0.15610491363E+03  0.16838852868E+03  0.00000000000E+00 0.  1.
         21    1    1    2  505  502 -0.19111385384E+01  0.31209717035E+02 -0.67549525922E+02  0.74435457547E+02  0.00000000000E+00 0.  1.
         21    1    1    2  506  501 -0.20912059149E+02  0.81661966743E+02 -0.23871664314E+04  0.23886543413E+04  0.00000000000E+00 0. -1.
<scales pt_clust_3="14000.00000" pt_clust_4="63.19634" pt_clust_5="31.26818" pt_clust_6="115.80921"></scales>
<clustering>
<clus scale="   31.268">  2  5  1 -1</clus>
<clus scale="   63.196">  1  4  2 -1</clus>
<clus scale="  115.809">  2  6  1 -1</clus>
<clus scale="   63.196">  1  3  2 -1</clus>
</clustering>
</event>
<event>
 6    0  0.3446372E+002  0.9279743E+02  0.7546771E-02  0.1296215E+00
         21   -1    0    0  504  501  0.00000000000E+00  0.00000000000E+00  0.63777610971E+03  0.63777610971E+03  0.00000000000E+00 0.  1.
         21   -1    0    0  506  502 -0.00000000000E+00 -0.00000000000E+00 -0.45227350534E+02  0.45227350534E+02  0.00000000000E+00 0. -1.
         21    1    1    2  503  501 -0.93016215604E+02  0.29751986355E+02  0.42188854034E+03  0.43304403648E+03  0.00000000000E+00 0.  1.
         21    1    1    2  504  502  0.68682128632E+02 -0.44802931696E+02  0.97415470123E+02  0.12733542830E+03  0.00000000000E+00 0. -1.
         21    1    1    2  505  503  0.21830685437E+02  0.46018937048E+02  0.75938549680E+02  0.91438420378E+02  0.00000000000E+00 0. -1.
         21    1    1    2  506  505  0.25034015353E+01 -0.30967991707E+02 -0.26938009710E+01  0.31185575083E+02  0.00000000000E+00 0. -1.
<scales pt_clust_3="14000.00000" pt_clust_4="92.79743" pt_clust_5="43.77038" pt_clust_6="31.06901"></scales>
<clustering>
<clus scale="   31.069">  2  6  1 -1</clus>
<clus scale="   43.770">  2  5  1 -1</clus>
<clus scale="   92.797">  2  4  1 -1</clus>
<clus scale="   92.797">  1  3  2 -1</clus>
</clustering>
</event>
<event>
 6    0  0.3446372E+002  0.1469083E+03  0.7546771E-02  0.1204324E+00
         21   -1    0    0  506  501  0.00000000000E+00  0.00000000000E+00  0.12416023335E+04  0.12416023335E+04  0.00000000000E+00 0. -1.
         21   -1    0    0  504  502 -0.00000000000E+00 -0.00000000000E+00 -0.63843217446E+02  0.63843217446E+02  0.00000000000E+00 0. -1.
         21    1    1    2  503  505 -0.10482308921E+01 -0.15792875020E+03  0.49276691204E+03  0.51745706926E+03  0.00000000000E+00 0. -1.
         21    1    1    2  504  503 -0.89396668887E+02  0.12108143175E+03  0.82175344942E+02  0.17147963389E+03  0.00000000000E+00 0. -1.
         21    1    1    2  505  501  0.36019994873E+02  0.38603736015E+02  0.47009414086E+03  0.47304988081E+03  0.00000000000E+00 0. -1.
         21    1    1    2  506  502  0.54424904906E+02 -0.17564175744E+01  0.13272271818E+03  0.14345896695E+03  0.00000000000E+00 0. -1.
<scales pt_clust_3="14000.00000" pt_clust_4="146.90826" pt_clust_5="52.79856" pt_clust_6="61.10324"></scales>
<clustering>
<clus scale="   52.799">  1  5  2 -1</clus>
<clus scale="   61.103">  1  6  2 -1</clus>
<clus scale="  146.908">  2  4  1 -1</clus>
<clus scale="   52.799">  1  3  2 -1</clus>
</clustering>
</event>
<event>
 6    0  0.3446372E+002  0.8943391E+02  0.7546771E-02  0.1304228E+00
         21   -1    0    0  504  501  0.00000000000E+00  0.00000000000E+00  0.16547900882E+04  0.16547900882E+04  0.00000000000E+00 0.  1.
         21   -1    0    0  505  502 -0.00000000000E+00 -0.00000000000E+00 -0.10174082961E+03  0.10174082961E+03  0.00000000000E+00 0. -1.
         21    1    1    2  503  501  0.11787125656E+03 -0.53336367338E+02  0.40580762014E+03  0.42593218447E+03  0.00000000000E+00 0. -1.
         21    1    1    2  504  502 -0.41064519094E+02  0.70207946002E+02  0.12160042887E+04  0.12187214122E+04  0.00000000000E+00 0.  1.
         21    1    1    2  505  506 -0.52984678888E+02  0.82538596275E+01 -0.42295422403E+02  0.68296450508E+02  0.00000000000E+00 0. -1.
         21    1    1    2  506  503 -0.23822058574E+02 -0.25125438291E+02 -0.26467227934E+02  0.43580870557E+02  0.00000000000E+00 0. -1.
<scales pt_clust_3="79.96321" pt_clust_4="81.33542" pt_clust_5="32.18475" pt_clust_6="32.18475"></scales>
<clustering>
<clus scale="   32.185">  5  6 -1 -1</clus>
<clus scale="   81.335">  1  4  2 -1</clus>
<clus scale="   79.963">  1  3  2 -1</clus>
<clus scale="   81.335">  1  3  2 -1</clus>
</clustering>
</event>
<event>
 6    0  0.3446372E+002  0.2524873E+03  0.7546771E-02  0.1111743E+00
         21   -1    0    0  506  501  0.00000000000E+00  0.00000000000E+00  0.12208884807E+04  0.12208884807E+04  0.00000000000E+00 0. -1.
         21   -1    0    0  503  502 -0.00000000000E+00 -0.00000000000E+00 -0.11477235755E+03  0.11477235755E+03  0.00000000000E+00 0. -1.
         21    1    1    2  503  505 -0.65758361186E+02 -0.42313040992E+02  0.38983736755E+02  0.87374408354E+02  0.00000000000E+00 0. -1.
         21    1    1    2  504  501 -0.21595056794E+03  0.86311181734E+02  0.55764243172E+03  0.60419313927E+03  0.00000000000E+00 0. -1.
         21    1    1    2  505  504 -0.28700476509E+02 -0.64275957816E+02  0.40186240782E+02  0.81055845275E+02  0.00000000000E+00 0. -1.
         21    1    1    2  506  502  0.31040940564E+03  0.20277817074E+02  0.46930371385E+03  0.56303744530E+03  0.00000000000E+00 0. -1.
<scales pt_clust_3="148.66360" pt_clust_4="14000.00000" pt_clust_5="40.44557" pt_clust_6="252.48729"></scales>
<clustering>
<clus scale="   40.446">  3  5 -1 -1</clus>
<clus scale="  148.664">  2  3  1 -1</clus>
<clus scale="  252.487">  2  6  1 -1</clus>
<clus scale="  252.487">  1  3  2 -1</clus>
</clustering>
</event>
<event>
 6    0  0.3446372E+002  0.1132625E+03  0.7546771E-02  0.1254645E+00
         21   -1    0    0  505  501  0.00000000000E+00  0.00000000000E+00  0.13967508673E+03  0.13967508673E+03  0.00000000000E+00 0.  1.
         21   -1    0    0  503  502 -0.00000000000E+00 -0.00000000000E+00 -0.11196917494E+04  0.11196917494E+04  0.00000000000E+00 0.  1.
         21    1    1    2  503  504 -0.10634855748E+03 -0.75789137738E+02 -0.63533578107E+03  0.64861819570E+03  0.00000000000E+00 0.  1.
         21    1    1    2  504  506  0.11330839358E+03 -0.16937935520E+02 -0.23172664767E+03  0.25850130552E+03  0.00000000000E+00 0.  1.
         21    1    1    2  505  502 -0.25448151666E+01  0.42001011577E+02 -0.22514465947E+03  0.22904296266E+03  0.00000000000E+00 0.  1.
         21    1    1    2  506  501 -0.44150209380E+01  0.50726061681E+02  0.11219042557E+03  0.12320437222E+03  0.00000000000E+00 0.  1.
<scales pt_clust_3="14000.00000" pt_clust_4="113.26250" pt_clust_5="42.07804" pt_clust_6="51.17735"></scales>
<clustering>
<clus scale="   42.078">  2  5  1 -1</clus>
<clus scale="   51.177">  1  6  2 -1</clus>
<clus scale="  113.263">  1  4  2 -1</clus>
<clus scale="   51.177">  1  3  2 -1</clus>
</clustering>
</event>
<event>
 6    0  0.3446372E+002  0.6964338E+02  0.7546771E-02  0.1361310E+00
         21   -1    0    0  505  501  0.00000000000E+00  0.00000000000E+00  0.28617618342E+03  0.28617618342E+03  0.00000000000E+00 0. -1.
         21   -1    0    0  506  502 -0.00000000000E+00 -0.00000000000E+00 -0.10340069085E+03  0.10340069085E+03  0.00000000000E+00 0. -1.
         21    1    1    2  503  504  0.75753150681E+02 -0.21893815462E+02  0.74941275278E+01  0.79208843831E+02  0.00000000000E+00 0. -1.
         21    1    1    2  504  502 -0.42885110026E+02 -0.15306400138E+02 -0.27477026497E+02  0.53182755967E+02  0.00000000000E+00 0. -1.
         21    1    1    2  505  503  0.37091075814E+02 -0.38672655915E+02  0.86258133879E+02  0.10154697377E+03  0.00000000000E+00 0. -1.
         21    1    1    2  506  501 -0.69959116469E+02  0.75872871516E+02  0.11650025766E+03  0.15563830070E+03  0.00000000000E+00 0. -1.
<scales pt_clust_3="69.64338" pt_clust_4="45.53481" pt_clust_5="51.57214" pt_clust_6="14000.00000"></scales>
<clustering>
<clus scale="   45.535">  2  4  1 -1</clus>
<clus scale="   51.572">  1  5  2 -1</clus>
<clus scale="   69.643">  2  3  1 -1</clus>
<clus scale="   51.572">  1  3  2 -1</clus>
</clustering>
</event>
<event>
 6    0  0.3446372E+002  0.1215364E+03  0.7546771E-02  0.1240584E+00
         21   -1    0    0  506  501  0.00000000000E+00  0.00000000000E+00  0.55395860743E+03  0.55395860743E+03  0.00000000000E+00 0. -1.
         21   -1    0    0  505  502 -0.00000000000E+00 -0.00000000000E+00 -0.42198808342E+03  0.42198808342E+03  0.00000000000E+00 0.  1.
         21    1    1    2  503  502 -0.16185234684E+02 -0.82733251529E+02 -0.24483334862E+03  0.25894038180E+03  0.00000000000E+00 0.  1.
         21    1    1    2  504  501 -0.63819827507E+02  0.14640986653E+03  0.40811214874E+03  0.43825146360E+03  0.00000000000E+00 0. -1.
         21    1    1    2  505  504  0.45520782681E+02 -0.36689510197E+02 -0.14531083759E+03  0.15663173796E+03  0.00000000000E+00 0.  1.
         21    1    1    2  506  503  0.34484279511E+02 -0.26987104803E+02  0.11400256148E+03  0.12212310749E+03  0.00000000000E+00 0. -1.
<scales pt_clust_3="14000.00000" pt_clust_4="121.53640" pt_clust_5="59.03448" pt_clust_6="43.78892"></scales>
<clustering>
<clus scale="   43.789">  1  6  2 -1</clus>
<clus scale="   59.034">  2  5  1 -1</clus>
<clus scale="  121.536">  1  4  2 -1</clus>
<clus scale="   43.789">  1  3  2 -1</clus>
</clustering>
</event>
<event>
 6    0  0.3446372E+002  0.7551453E+02  0.7546771E-02  0.1342285E+00
         21   -1    0    0  503  501  0.00000000000E+00  0.00000000000E+00  0.25727034790E+03  0.25727034790E+03  0.00000000000E+00 0. -1.
         21   -1    0    0  504  502 -0.00000000000E+00 -0.00000000000E+00 -0.13361157050E+03  0.13361157050E+03  0.00000000000E+00 0. -1.
         21    1    1    2  503  502 -0.76369605510E+00 -0.82436852712E+02  0.90746915460E+02  0.12260269402E+03  0.00000000000E+00 0. -1.
         21    1    1    2  504  506 -0.28746282276E+02  0.69643049459E+02 -0.80535365302E+02  0.11028348991E+03  0.00000000000E+00 0. -1.
         21    1    1    2  505  501 -0.87016602545E+01  0.46924573353E+02  0.89524321690E+02  0.10145067102E+03  0.00000000000E+00 0. -1.
         21    1    1    2  506  505  0.38211638586E+02 -0.34130770100E+02  0.23922905549E+02  0.56545063453E+02  0.00000000000E+00 0. -1.
<scales pt_clust_3="14000.00000" pt_clust_4="75.51453" pt_clust_5="47.72457" pt_clust_6="42.47268"></scales>
<clustering>
<clus scale="   47.725">  1  5  2 -1</clus>
<clus scale="   42.473">  1  6  2 -1</clus>
<clus scale="   75.515">  2  4  1 -1</clus>
<clus scale="   47.725">  1  3  2 -1</clus>
</clustering>
</event>
<event>
 6    0  0.3446372E+002  0.1678652E+03  0.7546771E-02  0.1180093E+00
         21   -1    0    0  504  501  0.00000000000E+00  0.00000000000E+00  0.11183685412E+04  0.11183685412E+04  0.00000000000E+00 0. -1.
         21   -1    0    0  505  502 -0.00000000000E+00 -0.00000000000E+00 -0.53458962665E+02  0.53458962665E+02  0.00000000000E+00 0.  1.
         21    1    1    2  503  502 -0.46576287196E+02 -0.27270556581E+01  0.87741879892E+02  0.99375172194E+02  0.00000000000E+00 0.  1.
         21    1    1    2  504  506 -0.48004423306E+02  0.51583826960E+02  0.44920944121E+02  0.83565585510E+02  0.00000000000E+00 0.  1.
         21    1    1    2  505  501  0.15794925777E+03 -0.45566264715E+02  0.90503560864E+03  0.91984439196E+03  0.00000000000E+00 0. -1.
         21    1    1    2  506  503 -0.63368547271E+02 -0.32905065877E+01  0.27211145920E+02  0.69042354241E+02  0.00000000000E+00 0.  1.
<scales pt_clust_3="46.65605" pt_clust_4="57.83276" pt_clust_5="157.57143" pt_clust_6="57.83276"></scales>
<clustering>
<clus scale="   46.656">  2  3  1 -1</clus>
<clus scale="   57.833">  4  6 -1 -1</clus>
<clus scale="  157.571">  1  5  2 -1</clus>
<clus scale="  157.571">  1  3  2 -1</clus>
</clustering>
</event>
<event>
 6    0  0.3446372E+002  0.9131668E+02  0.7546771E-02  0.1299694E+00
         21   -1    0    0  503  501  0.00000000000E+00  0.00000000000E+00  0.90610400951E+03  0.90610400951E+03  0.00000000000E+00 0. -1.
         21   -1    0    0  506  502 -0.00000000000E+00 -0.00000000000E+00 -0.27080432121E+03  0.27080432121E+03  0.00000000000E+00 0. -1.
         21    1    1    2  503  502 -0.32231426004E+02 -0.14581035490E+02  0.15298065515E+03  0.15701768139E+03  0.00000000000E+00 0.  1.
         21    1    1    2  504  501  0.12201881188E+03  0.40763284133E+02  0.73231421003E+03  0.74352830343E+03  0.00000000000E+00 0. -1.
         21    1    1    2  505  504 -0.41174539573E+02 -0.36139497356E+02 -0.65908672627E+02  0.85705070478E+02  0.00000000000E+00 0. -1.
         21    1    1    2  506  505 -0.48612846299E+02  0.99572487133E+01 -0.18408650425E+03  0.19065727543E+03  0.00000000000E+00 0. -1.
<scales pt_clust_3="35.37614" pt_clust_4="91.31668" pt_clust_5="14000.00000" pt_clust_6="49.74753"></scales>
<clustering>
<clus scale="   35.376">  1  3  2 -1</clus>
<clus scale="   49.748">  2  6  1 -1</clus>
<clus scale="   91.317">  1  4  2 -1</clus>
<clus scale="   35.376">  1  3  2 -1</clus>
</clustering>
</event>
<event>
 6    0  0.3446372E+002  0.6293739E+02  0.7546771E-02  0.1385903E+00
         21   -1    0    0  503  501  0.00000000000E+00  0.00000000000E+00  0.98487447401E+02  0.98487447401E+02  0.00000000000E+00 0.  1.
         21   -1    0    0  504  502 -0.00000000000E+00 -0.00000000000E+00 -0.10378161311E+04  0.10378161311E+04  0.00000000000E+00 0. -1.
         21    1    1    2  503  505  0.33685297823E+02  0.27571975646E+02  0.45259794630E+02  0.62796195270E+02  0.00000000000E+00 0.  1.
         21    1    1    2  504  506 -0.77523799781E+01  0.68199623483E+02 -0.73555104120E+03  0.73874665633E+03  0.00000000000E+00 0. -1.
         21    1    1    2  505  502  0.47738588683E+02 -0.39189436306E+02 -0.23230203281E+03  0.24037266736E+03  0.00000000000E+00 0. -1.
         21    1    1    2  506  501 -0.73671506528E+02 -0.56582162823E+02 -0.16735404316E+02  0.94388059528E+02  0.00000000000E+00 0.  1.
<scales pt_clust_3="43.53060" pt_clust_4="62.93739" pt_clust_5="14000.00000" pt_clust_6="54.90830"></scales>
<clustering>
<clus scale="   43.531">  1  3  2 -1</clus>
<clus scale="   54.908">  1  6  2 -1</clus>
<clus scale="   62.937">  2  4  1 -1</clus>
<clus scale="   43.531">  1  3  2 -1</clus>
</clustering>
</event>
<event>
 6    0  0.3446372E+002  0.9379086E+02  0.7546771E-02  0.1293923E+00
         21   -1    0    0  505  501  0.00000000000E+00  0.00000000000E+00  0.13595986573E+04  0.13595986573E+04  0.00000000000E+00 0.  1.
         21   -1    0    0  504  502 -0.00000000000E+00 -0.00000000000E+00 -0.14563193967E+03  0.14563193967E+03  0.00000000000E+00 0. -1.
         21    1    1    2  503  502 -0.29915317966E+02 -0.76695975713E+01 -0.15096767709E+02  0.34375301761E+02  0.00000000000E+00 0. -1.
         21    1    1    2  504  506  0.34318790141E+02 -0.44932673438E+02 -0.10516066496E+03  0.11939635653E+03  0.00000000000E+00 0. -1.
         21    1    1    2  505  503  0.68952466840E+02  0.77011152844E+02  0.10991149990E+04  0.11039650997E+04  0.00000000000E+00 0.  1.
         21    1    1    2  506  501 -0.73355939015E+02 -0.24408881835E+02  0.23510915121E+03  0.24749383888E+03  0.00000000000E+00 0.  1.
<scales pt_clust_3="30.88283" pt_clust_4="52.46428" pt_clust_5="14000.00000" pt_clust_6="93.79086"></scales>
<clustering>
<clus scale="   30.883">  2  3  1 -1</clus>
<clus scale="   52.464">  2  4  1 -1</clus>
<clus scale="   93.791">  2  6  1 -1</clus>
<clus scale="   93.791">  1  3  2 -1</clus>
</clustering>
</event>
<event>
 6    0  0.3446372E+002  0.9260479E+02  0.7546771E-02  0.1296664E+00
         21   -1    0    0  505  501  0.00000000000E+00  0.00000000000E+00  0.19386732131E+03  0.19386732131E+03  0.00000000000E+00 0. -1.
         21   -1    0    0  503  502 -0.00000000000E+00 -0.00000000000E+00 -0.31036224755E+03  0.31036224755E+03  0.00000000000E+00 0. -1.
         21    1    1    2  503  501  0.49661731910E+02  0.33843930985E+02  0.13140444733E+03  0.14449507971E+03  0.00000000000E+00 0. -1.
         21    1    1    2  504  506  0.77275828280E+02 -0.39551666555E+02 -0.67873680251E+02  0.11019403085E+03  0.00000000000E+00 0. -1.
         21    1    1    2  505  504 -0.31829272361E+02 -0.13378881924E+02  0.10206011263E+02  0.36003607132E+02  0.00000000000E+00 0.  1.
         21    1    1    2  506  502 -0.95108287828E+02  0.19086617493E+02 -0.19023170458E+03  0.21353685117E+03  0.00000000000E+00 0. -1.
<scales pt_clust_3="33.22929" pt_clust_4="14000.00000" pt_clust_5="34.52676" pt_clust_6="92.60479"></scales>
<clustering>
<clus scale="   34.527">  1  5  2 -1</clus>
<clus scale="   33.229">  1  3  2 -1</clus>
<clus scale="   92.605">  2  6  1 -1</clus>
<clus scale="   34.527">  1  3  2 -1</clus>
</clustering>
</event>
<event>
 6    0  0.3446372E+002  0.3129239E+03  0.7546771E-02  0.1078953E+00
         21   -1    0    0  503  501  0.00000000000E+00  0.00000000000E+00  0.10698309543E+04  0.10698309543E+04  0.00000000000E+00 0. -1.
         21   -1    0    0  504  502 -0.00000000000E+00 -0.00000000000E+00 -0.68714324018E+03  0.68714324018E+03  0.00000000000E+00 0. -1.
         21    1    1    2  503  502  0.38006109037E+02  0.55864216876E+02  0.80317213574E+02  0.10495775268E+03  0.00000000000E+00 0. -1.
         21    1    1    2  504  505  0.13650458490E+03 -0.71605217583E+02 -0.31732981356E+03  0.35278749901E+03  0.00000000000E+00 0. -1.
         21    1    1    2  505  506  0.28166889833E+02 -0.21401334254E+03 -0.27726418759E+03  0.35138371361E+03  0.00000000000E+00 0. -1.
         21    1    1    2  506  501 -0.20267758377E+03  0.22975434324E+03  0.89696450169E+03  0.94784522919E+03  0.00000000000E+00 0. -1.
<scales pt_clust_3="67.56682" pt_clust_4="154.29003" pt_clust_5="312.92387" pt_clust_6="14000.00000"></scales>
<clustering>
<clus scale="   67.567">  1  3  2 -1</clus>
<clus scale="  154.290">  2  4  1 -1</clus>
<clus scale="  312.924">  2  5  1 -1</clus>
<clus scale="   67.567">  1  3  2 -1</clus>
</clustering>
</event>
<event>
 6    0  0.3446372E+002  0.1128588E+03  0.7546771E-02  0.1255366E+00
         21   -1    0    0  505  501  0.00000000000E+00  0.00000000000E+00  0.66808734169E+03  0.66808734169E+03  0.00000000000E+00 0.  1.
         21   -1    0    0  504  502 -0.00000000000E+00 -0.00000000000E+00 -0.53187809617E+03  0.53187809617E+03  0.00000000000E+00 0. -1.
         21    1    1    2  503  501 -0.43575155299E+02  0.37406183717E+02  0.62557349166E+03  0.62820395590E+03  0.00000000000E+00 0.  1.
         21    1    1    2  504  503 -0.84163779357E+02  0.32999731985E+02 -0.18301304758E+03  0.20412324623E+03  0.00000000000E+00 0. -1.
         21    1    1    2  505  506  0.10343897593E+03 -0.11003548097E+03 -0.26691557437E+03  0.30667792985E+03  0.00000000000E+00 0. -1.
         21    1    1    2  506  502  0.24299958722E+02  0.39629565265E+02 -0.39435624200E+02  0.60960305880E+02  0.00000000000E+00 0. -1.
<scales pt_clust_3="57.44864" pt_clust_4="14000.00000" pt_clust_5="112.85884" pt_clust_6="46.48645"></scales>
<clustering>
<clus scale="   46.486">  2  6  1 -1</clus>
<clus scale="   57.449">  1  3  2 -1</clus>
<clus scale="  112.859">  1  5  2 -1</clus>
<clus scale="   57.449">  1  3  2 -1</clus>
</clustering>
</event>
<event>
 6    0  0.3446372E+002  0.7671491E+02  0.7546771E-02  0.1338641E+00
         21   -1    0    0  503  501  0.00000000000E+00  0.00000000000E+00  0.96271629969E+02  0.96271629969E+02  0.00000000000E+00 0.  1.
         21   -1    0    0  506  502 -0.00000000000E+00 -0.00000000000E+00 -0.37515976055E+03  0.37515976055E+03  0.00000000000E+00 0.  1.
         21    1    1    2  503  502 -0.73331875070E+02 -0.72694968541E+02 -0.16938670427E+01  0.10327144590E+03  0.00000000000E+00 0.  1.
         21    1    1    2  504  501  0.26828737111E+02  0.21395098526E+02  0.20231980634E+02  0.39835466814E+02  0.00000000000E+00 0.  1.
         21    1    1    2  505  504  0.84095068244E+02  0.12671670399E+02 -0.18817497911E+03  0.20650030145E+03  0.00000000000E+00 0.  1.
         21    1    1    2  506  505 -0.37591930286E+02  0.38628199617E+02 -0.10925126506E+03  0.12182417636E+03  0.00000000000E+00 0.  1.
<scales pt_clust_3="76.71491" pt_clust_4="34.31518" pt_clust_5="14000.00000" pt_clust_6="53.67806"></scales>
<clustering>
<clus scale="   34.315">  1  4  2 -1</clus>
<clus scale="   53.678">  2  6  1 -1</clus>
<clus scale="   76.715">  1  3  2 -1</clus>
<clus scale="   34.315">  1  3  2 -1</clus>
</clustering>
</event>
<event>
 6    0  0.3446372E+002  0.9861547E+02  0.7546771E-02  0.1283235E+00
         21   -1    0    0  504  501  0.00000000000E+00  0.00000000000E+00  0.32625062313E+03  0.32625062313E+03  0.00000000000E+00 0.  1.
         21   -1    0    0  506  502 -0.00000000000E+00 -0.00000000000E+00 -0.10384985727E+03  0.10384985727E+03  0.00000000000E+00 0.  1.
         21    1    1    2  503  502 -0.62525708400E+02 -0.30676822581E+02  0.56590553488E+02  0.89738633814E+02  0.00000000000E+00 0.  1.
         21    1    1    2  504  503 -0.23671500947E+01 -0.10477076206E+03  0.12709036475E+03  0.16472545886E+03  0.00000000000E+00 0.  1.
         21    1    1    2  505  501  0.63811799201E+02  0.79719921832E+02  0.57039805156E+02  0.11696474266E+03  0.00000000000E+00 0.  1.
         21    1    1    2  506  505  0.10810592941E+01  0.55727662807E+02 -0.18319957532E+02  0.58671645069E+02  0.00000000000E+00 0.  1.
<scales pt_clust_3="64.41243" pt_clust_4="98.61547" pt_clust_5="14000.00000" pt_clust_6="55.73815"></scales>
<clustering>
<clus scale="   55.738">  2  6  1 -1</clus>
<clus scale="   64.412">  2  3  1 -1</clus>
<clus scale="   98.615">  1  4  2 -1</clus>
<clus scale="   98.615">  1  3  2 -1</clus>
</clustering>
</event>
<event>
 6    0  0.3446372E+002  0.6414611E+02  0.7546771E-02  0.1381213E+00
         21   -1    0    0  506  501  0.00000000000E+00  0.00000000000E+00  0.15838950024E+03  0.15838950024E+03  0.00000000000E+00 0. -1.
         21   -1    0    0  504  502 -0.00000000000E+00 -0.00000000000E+00 -0.32843005170E+03  0.32843005170E+03  0.00000000000E+00 0.  1.
         21    1    1    2  503  501 -0.31825240984E+02 -0.41996718399E+02  0.13037480745E+02  0.54282098561E+02  0.00000000000E+00 0.  1.
         21    1    1    2  504  503 -0.35215647663E+02 -0.41307226024E+02 -0.14147569269E+03  0.15153151615E+03  0.00000000000E+00 0. -1.
         21    1    1    2  505  502  0.43198958386E+02 -0.24032439591E+02 -0.13054000884E+03  0.13958653970E+03  0.00000000000E+00 0.  1.
         21    1    1    2  506  505  0.23841930261E+02  0.10733638401E+03  0.88937669324E+02  0.14141939753E+03  0.00000000000E+00 0. -1.
<scales pt_clust_3="52.21492" pt_clust_4="64.14611" pt_clust_5="49.43388" pt_clust_6="14000.00000"></scales>
<clustering>
<clus scale="   49.434">  2  5  1 -1</clus>
<clus scale="   52.215">  1  3  2 -1</clus>
<clus scale="   64.146">  2  4  1 -1</clus>
<clus scale="   52.215">  1  3  2 -1</clus>
</clustering>
</event>
<event>
 6    0  0.3446372E+002  0.2696714E+03  0.7546771E-02  0.1101468E+00
         21   -1    0    0  505  501  0.00000000000E+00  0.00000000000E+00  0.33041849075E+03  0.33041849075E+03  0.00000000000E+00 0.  1.
         21   -1    0    0  504  502 -0.00000000000E+00 -0.00000000000E+00 -0.32119421140E+03  0.32119421140E+03  0.00000000000E+00 0.  1.
         21    1    1    2  503  501 -0.49063569974E+02 -0.18080054714E+02  0.89518368233E+02  0.10367092422E+03  0.00000000000E+00 0.  1.
         21    1    1    2  504  506  0.14342626964E+03  0.16722185547E+03 -0.10338585516E+03  0.24335751235E+03  0.00000000000E+00 0.  1.
         21    1    1    2  505  502 -0.15416120915E+03 -0.17793161302E+03  0.32112961076E+02  0.23760593340E+03  0.00000000000E+00 0.  1.
         21    1    1    2  506  503  0.59798509475E+02  0.28789812265E+02 -0.90211947944E+01  0.66978332178E+02  0.00000000000E+00 0. -1.
<scales pt_clust_3="52.28884" pt_clust_4="34.50498" pt_clust_5="262.24136" pt_clust_6="34.50498"></scales>
<clustering>
<clus scale="   34.505">  4  6 -1 -1</clus>
<clus scale="   52.289">  1  3  2 -1</clus>
<clus scale="  262.241">  1  5  2 -1</clus>
<clus scale="   52.289">  1  3  2 -1</clus>
</clustering>
</event>
<event>
 6    0  0.3446372E+002  0.1343363E+03  0.7546771E-02  0.1221160E+00
         21   -1    0    0  506  501  0.00000000000E+00  0.00000000000E+00  0.19491302681E+02  0.19491302681E+02  0.00000000000E+00 0. -1.
         21   -1    0    0  505  502 -0.00000000000E+00 -0.00000000000E+00 -0.17708443385E+04  0.17708443385E+04  0.00000000000E+00 0. -1.
         21    1    1    2  503  504  0.36218808058E+02  0.17803362274E+02 -0.25362802724E+03  0.25681888164E+03  0.00000000000E+00 0. -1.
         21    1    1    2  504  501 -0.10375253535E+03  0.60851699641E+02 -0.30843732338E+03  0.33106056907E+03  0.00000000000E+00 0. -1.
         21    1    1    2  505  503  0.92964677169E+02 -0.22269642365E+02 -0.96729084004E+03  0.97200305421E+03  0.00000000000E+00 0. -1.
         21    1    1    2  506  502 -0.25430949879E+02 -0.56385419551E+02 -0.22199684515E+03  0.23045313625E+03  0.00000000000E+00 0. -1.
<scales pt_clust_3="33.46156" pt_clust_4="124.07295" pt_clust_5="33.46156" pt_clust_6="61.85506"></scales>
<clustering>
<clus scale="   33.462">  3  5 -1 -1</clus>
<clus scale="   61.855">  1  6  2 -1</clus>
<clus scale="  124.073">  1  4  2 -1</clus>
<clus scale="   61.855">  1  3  2 -1</clus>
</clustering>
</event>
<event>
 6    0  0.3446372E+002  0.5790814E+02  0.7546771E-02  0.1406826E+00
         21   -1    0    0  504  501  0.00000000000E+00  0.00000000000E+00  0.58601743801E+03  0.58601743801E+03  0.00000000000E+00 0.  1.
         21   -1    0    0  505  502 -0.00000000000E+00 -0.00000000000E+00 -0.10836845484E+04  0.10836845484E+04  0.00000000000E+00 0. -1.
         21    1    1    2  503  502  0.49256353269E+02  0.25317443984E+02 -0.83792990331E+03  0.83975811051E+03  0.00000000000E+00 0. -1.
         21    1    1    2  504  503  0.27409508621E+02 -0.41982499809E+02  0.25781257132E+02  0.56378051335E+02  0.00000000000E+00 0. -1.
         21    1    1    2  505  506 -0.56852971848E+02 -0.60373148167E+02 -0.21900573675E+03  0.23418089195E+03  0.00000000000E+00 0. -1.
         21    1    1    2  506  501 -0.19812890041E+02  0.77038203992E+02  0.53348727258E+03  0.53938493257E+03  0.00000000000E+00 0.  1.
<scales pt_clust_3="14000.00000" pt_clust_4="50.13792" pt_clust_5="57.90814" pt_clust_6="36.42317"></scales>
<clustering>
<clus scale="   50.138">  1  4  2 -1</clus>
<clus scale="   36.423">  1  6  2 -1</clus>
<clus scale="   57.908">  1  5  2 -1</clus>
<clus scale="   50.138">  1  3  2 -1</clus>
</clustering>
</event>
<event>
 6    0  0.3446372E+002  0.9073775E+02  0.7546771E-02  0.1301075E+00
         21   -1    0    0  503  501  0.00000000000E+00  0.00000000000E+00  0.12143250966E+04  0.12143250966E+04  0.00000000000E+00 0. -1.
         21   -1    0    0  506  502 -0.00000000000E+00 -0.00000000000E+00 -0.18433796869E+03  0.18433796869E+03  0.00000000000E+00 0. -1.
         21    1    1    2  503  505  0.93430234227E+02  0.41286956407E+02  0.90228877591E+03  0.90805223229E+03  0.00000000000E+00 0. -1.
         21    1    1    2  504  501 -0.60651696022E+02 -0.40064145166E+02  0.27400293682E+03  0.28348081653E+03  0.00000000000E+00 0. -1.
         21    1    1    2  505  502  0.40435293029E+02 -0.12040660054E+02  0.10838434299E+01  0.42203852116E+02  0.00000000000E+00 0. -1.
         21    1    1    2  506  504 -0.73213831234E+02  0.10817848813E+02 -0.14738842820E+03  0.16492616440E+03  0.00000000000E+00 0. -1.
<scales pt_clust_3="14000.00000" pt_clust_4="90.73775" pt_clust_5="42.18993" pt_clust_6="34.66634"></scales>
<clustering>
<clus scale="   42.190">  2  5  1 -1</clus>
<clus scale="   34.666">  2  6  1 -1</clus>
<clus scale="   90.738">  2  4  1 -1</clus>
<clus scale="   90.738">  1  3  2 -1</clus>
</clustering>
</event>
<event>
 6    0  0.3446372E+002  0.9357982E+02  0.7546771E-02  0.1294407E+00
         21   -1    0    0  504  501  0.00000000000E+00  0.00000000000E+00  0.21694696848E+03  0.21694696848E+03  0.00000000000E+00 0.  1.
         21   -1    0    0  505  502 -0.00000000000E+00 -0.00000000000E+00 -0.11196909850E+03  0.11196909850E+03  0.00000000000E+00 0.  1.
         21    1    1    2  503  502 -0.17637405557E+02  0.59997678473E+02  0.31288374175E+02  0.69926832157E+02  0.00000000000E+00 0.  1.
         21    1    1    2  504  503 -0.40925022893E+02  0.28870175953E+02  0.25602048473E+02  0.56247750571E+02  0.00000000000E+00 0.  1.
         21    1    1    2  505  506  0.35879706908E+01 -0.83482339897E+02 -0.44694350690E+02  0.94761593444E+02  0.00000000000E+00 0.  1.
         21    1    1    2  506  501  0.54974457759E+02 -0.53855145286E+01  0.92781798027E+02  0.10797989080E+03  0.00000000000E+00 0.  1.
<scales pt_clust_3="32.95965" pt_clust_4="32.95965" pt_clust_5="86.02750" pt_clust_6="55.23762"></scales>
<clustering>
<clus scale="   32.960">  3  4 -1 -1</clus>
<clus scale="   55.238">  1  6  2 -1</clus>
<clus scale="   86.027">  2  5  1 -1</clus>
<clus scale="   55.238">  1  3  2 -1</clus>
</clustering>
</event>
<event>
 6    0  0.3446372E+002  0.1509029E+03  0.7546771E-02  0.1199368E+00
         21   -1    0    0  503  501  0.00000000000E+00  0.00000000000E+00  0.65198914134E+03  0.65198914134E+03  0.00000000000E+00 0.  1.
         21   -1    0    0  505  502 -0.00000000000E+00 -0.00000000000E+00 -0.47268655536E+03  0.47268655536E+03  0.00000000000E+00 0.  1.
         21    1    1    2  503  502 -0.24125808058E+02  0.21719688180E+02  0.91502968886E+01  0.33727250144E+02  0.00000000000E+00 0. -1.
         21    1    1    2  504  501 -0.38452112160E+02  0.22220616306E+02  0.25928998711E+03  0.26306580571E+03  0.00000000000E+00 0.  1.
         21    1    1    2  505  506  0.12936379881E+03  0.79701323456E+02 -0.43167735236E+03  0.45763809932E+03  0.00000000000E+00 0.  1.
         21    1    1    2  506  504 -0.66785878588E+02 -0.12364162794E+03  0.34253965434E+03  0.37024454153E+03  0.00000000000E+00 0.  1.
<scales pt_clust_3="32.46228" pt_clust_4="57.63192" pt_clust_5="14000.00000" pt_clust_6="150.90291"></scales>
<clustering>
<clus scale="   32.462">  1  3  2 -1</clus>
<clus scale="   57.632">  1  4  2 -1</clus>
<clus scale="  150.903">  1  6  2 -1</clus>
<clus scale="   32.462">  1  3  2 -1</clus>
</clustering>
</event>
<event>
 6    0  0.3446372E+002  0.1530598E+03  0.7546771E-02  0.1196763E+00
         21   -1    0    0  503  501  0.00000000000E+00  0.00000000000E+00  0.21615274848E+04  0.21615274848E+04  0.00000000000E+00 0.  1.
         21   -1    0    0  506  502 -0.00000000000E+00 -0.00000000000E+00 -0.11757308019E+03  0.11757308019E+03  0.00000000000E+00 0.  1.
         21    1    1    2  503  504  0.14273819283E+03 -0.13523550873E+03  0.18962539975E+04  0.19064212697E+04  0.00000000000E+00 0.  1.
         21    1    1    2  504  502 -0.62120839855E+02  0.74663011046E+02 -0.75191424608E+02  0.12283042904E+03  0.00000000000E+00 0.  1.
         21    1    1    2  505  501 -0.32867244891E+02  0.26941934268E+02  0.15286735425E+03  0.15866490350E+03  0.00000000000E+00 0. -1.
         21    1    1    2  506  505 -0.47750108086E+02  0.33630563414E+02  0.70024477493E+02  0.91183962767E+02  0.00000000000E+00 0.  1.
<scales pt_clust_3="14000.00000" pt_clust_4="153.05981" pt_clust_5="42.49851" pt_clust_6="60.10795"></scales>
<clustering>
<clus scale="   42.499">  1  5  2 -1</clus>
<clus scale="   60.108">  2  6  1 -1</clus>
<clus scale="  153.060">  2  4  1 -1</clus>
<clus scale="   42.499">  1  3  2 -1</clus>
</clustering>
</event>
<event>
 6    0  0.3446372E+002  0.6396916E+02  0.7546771E-02  0.1381892E+00
         21   -1    0    0  503  501  0.00000000000E+00  0.00000000000E+00  0.22090547779E+03  0.22090547779E+03  0.00000000000E+00 0. -1.
         21   -1    0    0  505  502 -0.00000000000E+00 -0.00000000000E+00 -0.39713206359E+03  0.39713206359E+03  0.00000000000E+00 0.  1.
         21    1    1    2  503  502  0.96898839436E+02  0.48781596348E+01  0.52561913005E+02  0.11034462481E+03  0.00000000000E+00 0. -1.
         21    1    1    2  504  506 -0.81081735861E+02 -0.19828103066E+02 -0.32010227949E+03  0.33080639488E+03  0.00000000000E+00 0.  1.
         21    1    1    2  505  504  0.29983877365E+02 -0.93250204592E+01 -0.30949050714E+02  0.44088917525E+02  0.00000000000E+00 0. -1.
         21    1    1    2  506  501 -0.45800980939E+02  0.24274963891E+02  0.12226283140E+03  0.13279760416E+03  0.00000000000E+00 0. -1.
<scales pt_clust_3="14000.00000" pt_clust_4="63.96916" pt_clust_5="31.40046" pt_clust_6="51.38437"></scales>
<clustering>
<clus scale="   31.400">  2  5  1 -1</clus>
<clus scale="   51.384">  1  6  2 -1</clus>
<clus scale="   63.969">  2  4  1 -1</clus>
<clus scale="   51.384">  1  3  2 -1</clus>
</clustering>
</event>
<event>
 6    0  0.3446372E+002  0.1350987E+03  0.7546771E-02  0.1220081E+00
         21   -1    0    0  506  501  0.00000000000E+00  0.00000000000E+00  0.51609215069E+03  0.51609215069E+03  0.00000000000E+00 0. -1.
         21   -1    0    0  501  502 -0.00000000000E+00 -0.00000000000E+00 -0.33398258313E+03  0.33398258313E+03  0.00000000000E+00 0. -1.
         21    1    1    2  503  504 -0.31136183548E+02 -0.50072503146E+02 -0.12835019450E+03  0.14124620323E+03  0.00000000000E+00 0. -1.
         21    1    1    2  504  502  0.29617717326E+02 -0.13026847117E+02 -0.93856876047E+02  0.99277495469E+02  0.00000000000E+00 0. -1.
         21    1    1    2  505  503  0.11778791759E+02 -0.61963029766E+02 -0.84184284494E+02  0.10519102029E+03  0.00000000000E+00 0.  1.
         21    1    1    2  506  505 -0.10260325538E+02  0.12506238003E+03  0.48850092261E+03  0.50436001484E+03  0.00000000000E+00 0. -1.
<scales pt_clust_3="46.81215" pt_clust_4="32.35596" pt_clust_5="46.81215" pt_clust_6="124.97166"></scales>
<clustering>
<clus scale="   32.356">  2  4  1 -1</clus>
<clus scale="   46.812">  3  5 -1 -1</clus>
<clus scale="  124.972">  1  6  2 -1</clus>
<clus scale="  124.972">  1  3  2 -1</clus>
</clustering>
</event>
<event>
 6    0  0.3446372E+002  0.8160211E+02  0.7546771E-02  0.1324565E+00
         21   -1    0    0  506  501  0.00000000000E+00  0.00000000000E+00  0.87577445035E+02  0.87577445035E+02  0.00000000000E+00 0.  1.
         21   -1    0    0  503  502 -0.00000000000E+00 -0.00000000000E+00 -0.49350164586E+03  0.49350164586E+03  0.00000000000E+00 0.  1.
         21    1    1    2  503  504 -0.24811036164E+02 -0.61813172733E+02 -0.17547188431E+03  0.18768814033E+03  0.00000000000E+00 0.  1.
         21    1    1    2  504  501 -0.55547276673E+02 -0.43157198838E+02  0.46655835912E+02  0.84408594242E+02  0.00000000000E+00 0.  1.
         21    1    1    2  505  502  0.40886586615E+02  0.62250923761E+02 -0.11759326038E+03  0.13919434386E+03  0.00000000000E+00 0.  1.
         21    1    1    2  506  505  0.39471726221E+02  0.42719447810E+02 -0.15951489205E+03  0.16978801247E+03  0.00000000000E+00 0.  1.
<scales pt_clust_3="66.60673" pt_clust_4="73.85103" pt_clust_5="30.67561" pt_clust_6="30.67561"></scales>
<clustering>
<clus scale="   30.676">  5  6 -1 -1</clus>
<clus scale="   66.607">  2  3  1 -1</clus>
<clus scale="   73.851">  1  4  2 -1</clus>
<clus scale="   73.851">  1  3  2 -1</clus>
</clustering>
</event>
<event>
 6    0  0.3446372E+002  0.1286368E+03  0.7546771E-02  0.1229493E+00
         21   -1    0    0  504  501  0.00000000000E+00  0.00000000000E+00  0.67926142490E+02  0.67926142490E+02  0.00000000000E+00 0.  1.
         21   -1    0    0  503  502 -0.00000000000E+00 -0.00000000000E+00 -0.76786671996E+03  0.76786671996E+03  0.00000000000E+00 0.  1.
         21    1    1    2  503  505 -0.11830783010E+03  0.10154993296E+03 -0.37056459857E+03  0.40202892092E+03  0.00000000000E+00 0.  1.
         21    1    1    2  504  502 -0.24060691648E+02 -0.80151562953E+02 -0.19672440026E+03  0.21378418927E+03  0.00000000000E+00 0.  1.
         21    1    1    2  505  506  0.11012422714E+03 -0.21902851211E+02 -0.14675593961E+03  0.18478199616E+03  0.00000000000E+00 0.  1.
         21    1    1    2  506  501  0.32244294599E+02  0.50448120820E+00  0.14104360968E+02  0.35197756090E+02  0.00000000000E+00 0.  1.
<scales pt_clust_3="14000.00000" pt_clust_4="81.98666" pt_clust_5="128.63684" pt_clust_6="32.24824"></scales>
<clustering>
<clus scale="   32.248">  1  6  2 -1</clus>
<clus scale="   81.987">  2  4  1 -1</clus>
<clus scale="  128.637">  1  5  2 -1</clus>
<clus scale="   32.248">  1  3  2 -1</clus>
</clustering>
</event>
<event>
 6    0  0.3446372E+002  0.1023498E+03  0.7546771E-02  0.1275431E+00
         21   -1    0    0  504  501  0.00000000000E+00  0.00000000000E+00  0.42925806485E+03  0.42925806485E+03  0.00000000000E+00 0. -1.
         21   -1    0    0  506  502 -0.00000000000E+00 -0.00000000000E+00 -0.63837228500E+03  0.63837228500E+03  0.00000000000E+00 0.  1.
         21    1    1    2  503  501  0.11775002654E+03  0.14214013659E+02 -0.57651066909E+02  0.13187400218E+03  0.00000000000E+00 0. -1.
         21    1    1    2  504  505 -0.29449851262E+02 -0.86417227469E+02  0.37128025977E+03  0.38234050562E+03  0.00000000000E+00 0. -1.
         21    1    1    2  505  502 -0.13035707099E+02  0.47906386118E+02 -0.38688726443E+02  0.62942585300E+02  0.00000000000E+00 0.  1.
         21    1    1    2  506  503 -0.75264468177E+02  0.24296827692E+02 -0.48405468657E+03  0.49047325676E+03  0.00000000000E+00 0.  1.
<scales pt_clust_3="14000.00000" pt_clust_4="90.91064" pt_clust_5="49.64828" pt_clust_6="102.34980"></scales>
<clustering>
<clus scale="   49.648">  2  5  1 -1</clus>
<clus scale="   90.911">  1  4  2 -1</clus>
<clus scale="  102.350">  2  6  1 -1</clus>
<clus scale="   90.911">  1  3  2 -1</clus>
</clustering>
</event>
<event>
 6    0  0.3446372E+002  0.9509185E+02  0.7546771E-02  0.1290969E+00
         21   -1    0    0  506  501  0.00000000000E+00  0.00000000000E+00  0.30569337417E+03  0.30569337417E+03  0.00000000000E+00 0. -1.
         21   -1    0    0  503  502 -0.00000000000E+00 -0.00000000000E+00 -0.14525213916E+03  0.14525213916E+03  0.00000000000E+00 0. -1.
         21    1    1    2  503  504  0.46293270713E+00  0.34777395136E+02 -0.55059807277E+02  0.65124986730E+02  0.00000000000E+00 0. -1.
         21    1    1    2  504  505 -0.77523723551E+02  0.25967653079E+02 -0.36554179617E+02  0.89556991727E+02  0.00000000000E+00 0. -1.
         21    1    1    2  505  501  0.10349914744E+03 -0.43689758146E+02  0.23500838403E+03  0.26047995902E+03  0.00000000000E+00 0. -1.
         21    1    1    2  506  502 -0.26438356598E+02 -0.17055290069E+02  0.17046837879E+02  0.35783575850E+02  0.00000000000E+00 0. -1.
<scales pt_clust_3="34.47006" pt_clust_4="95.09185" pt_clust_5="14000.00000" pt_clust_6="31.46219"></scales>
<clustering>
<clus scale="   31.462">  1  6  2 -1</clus>
<clus scale="   34.470">  2  3  1 -1</clus>
<clus scale="   95.092">  2  4  1 -1</clus>
<clus scale="   31.462">  1  3  2 -1</clus>
</clustering>
</event>
<event>
 6    0  0.3446372E+002  0.1149613E+03  0.7546771E-02  0.1251649E+00
         21   -1    0    0  503  501  0.00000000000E+00  0.00000000000E+00  0.14023758072E+03  0.14023758072E+03  0.00000000000E+00 0. -1.
         21   -1    0    0  504  502 -0.00000000000E+00 -0.00000000000E+00 -0.69646669807E+03  0.69646669807E+03  0.00000000000E+00 0. -1.
         21    1    1    2  503  505 -0.87723606496E+00  0.77432291343E+02  0.74933561766E+02  0.10775698569E+03  0.00000000000E+00 0. -1.
         21    1    1    2  504  506 -0.37707688249E+02 -0.34586623125E+02 -0.14049683660E+03  0.14952412965E+03  0.00000000000E+00 0.  1.
         21    1    1    2  505  502  0.12340382263E+03 -0.70574807820E+02 -0.88455778709E+02  0.16743276778E+03  0.00000000000E+00 0. -1.
         21    1    1    2  506  501 -0.84818898319E+02  0.27729139602E+02 -0.40221006381E+03  0.41199039567E+03  0.00000000000E+00 0. -1.
<scales pt_clust_3="76.42913" pt_clust_4="51.16741" pt_clust_5="114.96133" pt_clust_6="14000.00000"></scales>
<clustering>
<clus scale="   51.167">  2  4  1 -1</clus>
<clus scale="   76.429">  1  3  2 -1</clus>
<clus scale="  114.961">  1  5  2 -1</clus>
<clus scale="   76.429">  1  3  2 -1</clus>
</clustering>
</event>
<event>
 6    0  0.3446372E+002  0.1389576E+03  0.7546771E-02  0.1214739E+00
         21   -1    0    0  506  501  0.00000000000E+00  0.00000000000E+00  0.50484103549E+03  0.50484103549E+03  0.00000000000E+00 0. -1.
         21   -1    0    0  505  502 -0.00000000000E+00 -0.00000000000E+00 -0.88424721718E+02  0.88424721718E+02  0.00000000000E+00 0. -1.
         21    1    1    2  503  501  0.13324812345E+02 -0.11532343114E+03  0.33845636762E+03  0.35781246090E+03  0.00000000000E+00 0. -1.
         21    1    1    2  504  503  0.12157774782E+01  0.55456390162E+02 -0.19748862302E+02  0.58880445710E+02  0.00000000000E+00 0. -1.
         21    1    1    2  505  504  0.44170147277E+02  0.66551820402E+02  0.26758425613E+02  0.84238708742E+02  0.00000000000E+00 0. -1.
         21    1    1    2  506  502 -0.58710737101E+02 -0.66847794264E+01  0.70950382845E+02  0.92334141859E+02  0.00000000000E+00 0.  1.
<scales pt_clust_3="125.78208" pt_clust_4="49.21677" pt_clust_5="49.21677" pt_clust_6="59.09007"></scales>
<clustering>
<clus scale="   49.217">  4  5 -1 -1</clus>
<clus scale="   59.090">  1  6  2 -1</clus>
<clus scale="  125.782">  1  3  2 -1</clus>
<clus scale="   59.090">  1  3  2 -1</clus>
</clustering>
</event>
<event>
 6    0  0.3446372E+002  0.8040800E+02  0.7546771E-02  0.1327898E+00
         21   -1    0    0  503  501  0.00000000000E+00  0.00000000000E+00  0.31367465971E+03  0.31367465971E+03  0.00000000000E+00 0.  1.
         21   -1    0    0  505  502 -0.00000000000E+00 -0.00000000000E+00 -0.17137127539E+03  0.17137127539E+03  0.00000000000E+00 0.  1.
         21    1    1    2  503  506 -0.89938150527E+02  0.13084625280E+02 -0.18437380554E+02  0.92736267666E+02  0.00000000000E+00 0.  1.
         21    1    1    2  504  501 -0.44799096090E+02 -0.42906779118E+02  0.21732676713E+03  0.22600635924E+03  0.00000000000E+00 0.  1.
         21    1    1    2  505  504  0.64636268521E+02  0.51879287008E+02 -0.30923937982E+02  0.88462407661E+02  0.00000000000E+00 0. -1.
         21    1    1    2  506  502  0.70100978096E+02 -0.22057133170E+02 -0.25662064272E+02  0.77840900537E+02  0.00000000000E+00 0.  1.
<scales pt_clust_3="80.40800" pt_clust_4="62.03185" pt_clust_5="63.58183" pt_clust_6="14000.00000"></scales>
<clustering>
<clus scale="   62.032">  1  4  2 -1</clus>
<clus scale="   63.582">  1  5  2 -1</clus>
<clus scale="   80.408">  1  3  2 -1</clus>
<clus scale="   62.032">  1  3  2 -1</clus>
</clustering>
</event>
<event>
 6    0  0.3446372E+002  0.8552159E+02  0.7546771E-02  0.1314074E+00
         21   -1    0    0  503  501  0.00000000000E+00  0.00000000000E+00  0.82621409139E+03  0.82621409139E+03  0.00000000000E+00 0. -1.
         21   -1    0    0  504  502 -0.00000000000E+00 -0.00000000000E+00 -0.76666344256E+02  0.76666344256E+02  0.00000000000E+00 0. -1.
         21    1    1    2  503  505  0.41036108723E+02  0.42689242192E+02  0.57830839287E+03  0.58133203153E+03  0.00000000000E+00 0. -1.
         21    1    1    2  504  506  0.48127102173E+02 -0.36997384023E+02 -0.60199574998E+01  0.61002166162E+02  0.00000000000E+00 0. -1.
         21    1    1    2  505  502  0.40243146302E+02  0.35268694538E+02  0.66504520233E+02  0.85359491858E+02  0.00000000000E+00 0. -1.
         21    1    1    2  506  501 -0.12940635720E+03 -0.40960552707E+02  0.11075479153E+03  0.17518674610E+03  0.00000000000E+00 0. -1.
<scales pt_clust_3="60.41314" pt_clust_4="85.52159" pt_clust_5="53.51067" pt_clust_6="14000.00000"></scales>
<clustering>
<clus scale="   53.511">  2  5  1 -1</clus>
<clus scale="   60.413">  1  3  2 -1</clus>
<clus scale="   85.522">  2  4  1 -1</clus>
<clus scale="   60.413">  1  3  2 -1</clus>
</clustering>
</event>
<event>
 6    0  0.3446372E+002  0.9261172E+02  0.7546771E-02  0.1296648E+00
         21   -1    0    0  504  501  0.00000000000E+00  0.00000000000E+00  0.40047632750E+02  0.40047632750E+02  0.00000000000E+00 0. -1.
         21   -1    0    0  506  502 -0.00000000000E+00 -0.00000000000E+00 -0.12541089650E+04  0.12541089650E+04  0.00000000000E+00 0. -1.
         21    1    1    2  503  502 -0.24500876810E+02  0.20586224321E+02 -0.33300578210E+03  0.33453988777E+03  0.00000000000E+00 0.  1.
         21    1    1    2  504  503  0.10548250866E+02  0.49298627297E+02 -0.38923988344E+01  0.50564523318E+02  0.00000000000E+00 0. -1.
         21    1    1    2  505  501  0.56106206341E+02  0.30321754200E+02 -0.70377987617E+02  0.94975661665E+02  0.00000000000E+00 0.  1.
         21    1    1    2  506  505 -0.42153580398E+02 -0.10020660582E+03 -0.80678516369E+03  0.81407652499E+03  0.00000000000E+00 0. -1.
<scales pt_clust_3="32.00134" pt_clust_4="50.86526" pt_clust_5="14000.00000" pt_clust_6="92.61172"></scales>
<clustering>
<clus scale="   32.001">  2  3  1 -1</clus>
<clus scale="   50.865">  1  4  2 -1</clus>
<clus scale="   92.612">  2  6  1 -1</clus>
<clus scale="   50.865">  1  3  2 -1</clus>
</clustering>
</event>
<event>
 6    0  0.3446372E+002  0.1180826E+03  0.7546771E-02  0.1246294E+00
         21   -1    0    0  506  501  0.00000000000E+00  0.00000000000E+00  0.17327458663E+04  0.17327458663E+04  0.00000000000E+00 0.  1.
         21   -1    0    0  503  502 -0.00000000000E+00 -0.00000000000E+00 -0.27194557910E+03  0.27194557910E+03  0.00000000000E+00 0. -1.
         21    1    1    2  503  504  0.31221791223E+02 -0.47949900063E+01 -0.53021088404E+02  0.61717323272E+02  0.00000000000E+00 0.  1.
         21    1    1    2  504  501  0.13155993764E+03 -0.32712452148E+02  0.14548072939E+04  0.14611099836E+04  0.00000000000E+00 0.  1.
         21    1    1    2  505  502 -0.79151353847E+02  0.43247376411E+02 -0.19474483750E+03  0.21461785600E+03  0.00000000000E+00 0. -1.
         21    1    1    2  506  505 -0.83630375013E+02 -0.57399342562E+01  0.25375891919E+03  0.26724628256E+03  0.00000000000E+00 0.  1.
<scales pt_clust_3="31.58785" pt_clust_4="118.08258" pt_clust_5="62.71340" pt_clust_6="14000.00000"></scales>
<clustering>
<clus scale="   31.588">  2  3  1 -1</clus>
<clus scale="   62.713">  2  5  1 -1</clus>
<clus scale="  118.083">  1  4  2 -1</clus>
<clus scale="  118.083">  1  3  2 -1</clus>
</clustering>
</event>
<event>
 6    0  0.3446372E+002  0.1011618E+03  0.7546771E-02  0.1277872E+00
         21   -1    0    0  503  501  0.00000000000E+00  0.00000000000E+00  0.80211427729E+03  0.80211427729E+03  0.00000000000E+00 0. -1.
         21   -1    0    0  505  502 -0.00000000000E+00 -0.00000000000E+00 -0.50051403787E+02  0.50051403787E+02  0.00000000000E+00 0. -1.
         21    1    1    2  503  504  0.11801514494E+02  0.13024995925E+03  0.46500935057E+03  0.48305074655E+03  0.00000000000E+00 0. -1.
         21    1    1    2  504  506  0.16736948917E+02 -0.48293465328E+02  0.38754577725E+02  0.64142821477E+02  0.00000000000E+00 0. -1.
         21    1    1    2  505  501 -0.60695124855E+02 -0.55769056470E+02  0.25023017076E+03  0.26345630416E+03  0.00000000000E+00 0. -1.
         21    1    1    2  506  502  0.32156661444E+02 -0.26187437455E+02 -0.19312255515E+01  0.41515808890E+02  0.00000000000E+00 0. -1.
<scales pt_clust_3="91.45439" pt_clust_4="38.95018" pt_clust_5="82.42624" pt_clust_6="38.95018"></scales>
<clustering>
<clus scale="   38.950">  4  6 -1 -1</clus>
<clus scale="   82.426">  1  5  2 -1</clus>
<clus scale="   91.454">  1  3  2 -1</clus>
<clus scale="   82.426">  1  3  2 -1</clus>
</clustering>
</event>
<event>
 6    0  0.3446372E+002  0.1073720E+03  0.7546771E-02  0.1265515E+00
         21   -1    0    0  506  501  0.00000000000E+00  0.00000000000E+00  0.19347187350E+04  0.19347187350E+04  0.00000000000E+00 0.  1.
         21   -1    0    0  505  502 -0.00000000000E+00 -0.00000000000E+00 -0.33724488712E+03  0.33724488712E+03  0.00000000000E+00 0.  1.
         21    1    1    2  503  501 -0.45929754969E+02 -0.29367257915E+02  0.80753759797E+03  0.80937565466E+03  0.00000000000E+00 0.  1.
         21    1    1    2  504  503 -0.20667408772E+02  0.55331615133E+02 -0.12295199562E+03  0.13640352871E+03  0.00000000000E+00 0.  1.
         21    1    1    2  505  504 -0.19031154375E+02  0.34684191899E+02 -0.20226880110E+03  0.20610154270E+03  0.00000000000E+00 0.  1.
         21    1    1    2  506  502  0.85628318116E+02 -0.60648549116E+02  0.11151570466E+04  0.11200828960E+04  0.00000000000E+00 0.  1.
<scales pt_clust_3="54.51585" pt_clust_4="35.31857" pt_clust_5="35.31857" pt_clust_6="98.31790"></scales>
<clustering>
<clus scale="   35.319">  4  5 -1 -1</clus>
<clus scale="   54.516">  1  3  2 -1</clus>
<clus scale="   98.318">  1  6  2 -1</clus>
<clus scale="   54.516">  1  3  2 -1</clus>
</clustering>
</event>
<event>
 6    0  0.3446372E+002  0.9912564E+02  0.7546771E-02  0.1282145E+00
         21   -1    0    0  504  501  0.00000000000E+00  0.00000000000E+00  0.32053749896E+03  0.32053749896E+03  0.00000000000E+00 0.  1.
         21   -1    0    0  506  502 -0.00000000000E+00 -0.00000000000E+00 -0.25809937047E+03  0.25809937047E+03  0.00000000000E+00 0.  1.
         21    1    1    2  503  502  0.13978445552E+03 -0.18769974092E+01 -0.99160418249E+02  0.17139429883E+03  0.00000000000E+00 0.  1.
         21    1    1    2  504  503 -0.63406772160E+00 -0.85392231723E+02  0.19121572981E+02  0.87509255703E+02  0.00000000000E+00 0. -1.
         21    1    1    2  505  501 -0.71607075769E+02  0.12199701291E+03  0.18484815794E+03  0.23276530230E+03  0.00000000000E+00 0.  1.
         21    1    1    2  506  505 -0.67543312026E+02 -0.34727783775E+02 -0.42371184190E+02  0.86968012597E+02  0.00000000000E+00 0.  1.
<scales pt_clust_3="99.12564" pt_clust_4="92.39094" pt_clust_5="14000.00000" pt_clust_6="75.94813"></scales>
<clustering>
<clus scale="   75.948">  2  6  1 -1</clus>
<clus scale="   92.391">  1  4  2 -1</clus>
<clus scale="   99.126">  2  3  1 -1</clus>
<clus scale="   92.391">  1  3  2 -1</clus>
</clustering>
</event>
<event>
 6    0  0.3446372E+002  0.1477662E+03  0.7546771E-02  0.1203245E+00
         21   -1    0    0  505  501  0.00000000000E+00  0.00000000000E+00  0.80031034772E+03  0.80031034772E+03  0.00000000000E+00 0.  1.
         21   -1    0    0  506  502 -0.00000000000E+00 -0.00000000000E+00 -0.20888997341E+03  0.20888997341E+03  0.00000000000E+00 0. -1.
         21    1    1    2  503  502 -0.23354136970E+02  0.48246381691E+02 -0.14144055623E+02  0.55436300106E+02  0.00000000000E+00 0.  1.
         21    1    1    2  504  503 -0.96692473193E+02 -0.65309144912E+02  0.52742874408E+03  0.54018126482E+03  0.00000000000E+00 0.  1.
         21    1    1    2  505  504  0.30032630173E+02 -0.75106868438E+02  0.21253553344E+03  0.22740790122E+03  0.00000000000E+00 0.  1.
         21    1    1    2  506  501  0.90013979990E+02  0.92169631658E+02 -0.13439984759E+03  0.18617485498E+03  0.00000000000E+00 0. -1.
<scales pt_clust_3="53.60158" pt_clust_4="147.76622" pt_clust_5="78.60522" pt_clust_6="14000.00000"></scales>
<clustering>
<clus scale="   53.602">  2  3  1 -1</clus>
<clus scale="   78.605">  1  5  2 -1</clus>
<clus scale="  147.766">  1  4  2 -1</clus>
<clus scale="   78.605">  1  3  2 -1</clus>
</clustering>
</event>
<event>
 6    0  0.3446372E+002  0.1055827E+03  0.7546771E-02  0.1268976E+00
         21   -1    0    0  504  501  0.00000000000E+00  0.00000000000E+00  0.70983941484E+03  0.70983941484E+03  0.00000000000E+00 0.  1.
         21   -1    0    0  506  502 -0.00000000000E+00 -0.00000000000E+00 -0.24404589313E+04  0.24404589313E+04  0.00000000000E+00 0.  1.
         21    1    1    2  503  502 -0.32412081578E+02  0.46435706919E+02 -0.16965584742E+04  0.16975033061E+04  0.00000000000E+00 0.  1.
         21    1    1    2  504  505 -0.34672962030E+02 -0.71527329696E+02  0.60831717992E+03  0.61348852033E+03  0.00000000000E+00 0.  1.
         21    1    1    2  505  503  0.42769775876E+02  0.59326049534E+02 -0.73446525156E+03  0.73809758138E+03  0.00000000000E+00 0.  1.
         21    1    1    2  506  501  0.24315267731E+02 -0.34234426757E+02  0.92087029363E+02  0.10120893833E+03  0.00000000000E+00 0.  1.
<scales pt_clust_3="56.59642" pt_clust_4="105.58268" pt_clust_5="14000.00000" pt_clust_6="41.99081"></scales>
<clustering>
<clus scale="   41.991">  1  6  2 -1</clus>
<clus scale="   56.596">  2  3  1 -1</clus>
<clus scale="  105.583">  1  4  2 -1</clus>
<clus scale="   41.991">  1  3  2 -1</clus>
</clustering>
</event>
<event>
 6    0  0.3446372E+002  0.8842410E+02  0.7546771E-02  0.1306713E+00
         21   -1    0    0  505  501  0.00000000000E+00  0.00000000000E+00  0.30410900452E+03  0.30410900452E+03  0.00000000000E+00 0. -1.
         21   -1    0    0  504  502 -0.00000000000E+00 -0.00000000000E+00 -0.29550028408E+03  0.29550028408E+03  0.00000000000E+00 0. -1.
         21    1    1    2  503  501 -0.21479758493E+02 -0.50028663379E+02  0.20233470139E+03  0.20953180802E+03  0.00000000000E+00 0. -1.
         21    1    1    2  504  503  0.93915360131E+02  0.79937578159E+02  0.48967676016E+02  0.13269493044E+03  0.00000000000E+00 0. -1.
         21    1    1    2  505  506 -0.27549226231E+02 -0.25545438059E+02 -0.77237885870E+02  0.85890746214E+02  0.00000000000E+00 0. -1.
         21    1    1    2  506  502 -0.44886375407E+02 -0.43634767214E+01 -0.16545577109E+03  0.17149180392E+03  0.00000000000E+00 0. -1.
<scales pt_clust_3="54.44490" pt_clust_4="81.33089" pt_clust_5="31.67207" pt_clust_6="31.67207"></scales>
<clustering>
<clus scale="   31.672">  5  6 -1 -1</clus>
<clus scale="   54.445">  1  3  2 -1</clus>
<clus scale="   81.331">  1  4  2 -1</clus>
<clus scale="   54.445">  1  3  2 -1</clus>
</clustering>
</event>
<event>
 6    0  0.3446372E+002  0.1234545E+03  0.7546771E-02  0.1237505E+00
         21   -1    0    0  506  501  0.00000000000E+00  0.00000000000E+00  0.18222133862E+03  0.18222133862E+03  0.00000000000E+00 0. -1.
         21   -1    0    0  504  502 -0.00000000000E+00 -0.00000000000E+00 -0.27973114197E+03  0.27973114197E+03  0.00000000000E+00 0. -1.
         21    1    1    2  503  501 -0.47050544722E+02 -0.30550689140E+01 -0.42499314022E+02  0.63476601178E+02  0.00000000000E+00 0. -1.
         21    1    1    2  504  503 -0.76705610251E+02  0.54887583885E+02 -0.46053094316E+02  0.10496325550E+03  0.00000000000E+00 0. -1.
         21    1    1    2  505  502  0.68704655173E+02 -0.81627149019E+02 -0.12336372647E+03  0.16310098132E+03  0.00000000000E+00 0. -1.
         21    1    1    2  506  505  0.55051499800E+02  0.29794634047E+02  0.11440633145E+03  0.13041164260E+03  0.00000000000E+00 0. -1.
<scales pt_clust_3="35.55057" pt_clust_4="35.55057" pt_clust_5="112.75084" pt_clust_6="62.59703"></scales>
<clustering>
<clus scale="   35.551">  3  4 -1 -1</clus>
<clus scale="   62.597">  1  6  2 -1</clus>
<clus scale="  112.751">  2  5  1 -1</clus>
<clus scale="   62.597">  1  3  2 -1</clus>
</clustering>
</event>
<event>
 6    0  0.3446372E+002  0.1803611E+03  0.7546771E-02  0.1167454E+00
         21   -1    0    0  505  501  0.00000000000E+00  0.00000000000E+00  0.28164282403E+03  0.28164282403E+03  0.00000000000E+00 0.  1.
         21   -1    0    0  504  502 -0.00000000000E+00 -0.00000000000E+00 -0.61768494501E+03  0.61768494501E+03  0.00000000000E+00 0.  1.
         21    1    1    2  503  502 -0.55953404030E+02  0.16119491284E+03 -0.34317859016E+03  0.38325726098E+03  0.00000000000E+00 0.  1.
         21    1    1    2  504  501  0.36133523317E+02  0.15277171656E+02 -0.22001108298E+02  0.44978575427E+02  0.00000000000E+00 0.  1.
         21    1    1    2  505  506 -0.80131845634E+02 -0.40054641893E+01  0.19558404935E+03  0.21140074926E+03  0.00000000000E+00 0.  1.
         21    1    1    2  506  503  0.99951726347E+02 -0.17246662031E+03 -0.16644647187E+03  0.25969118337E+03  0.00000000000E+00 0.  1.
<scales pt_clust_3="14000.00000" pt_clust_4="39.23039" pt_clust_5="79.73324" pt_clust_6="180.36110"></scales>
<clustering>
<clus scale="   39.230">  2  4  1 -1</clus>
<clus scale="   79.733">  1  5  2 -1</clus>
<clus scale="  180.361">  1  6  2 -1</clus>
<clus scale="   79.733">  1  3  2 -1</clus>
</clustering>
</event>
<event>
 6    0  0.3446372E+002  0.2180014E+03  0.7546771E-02  0.1135382E+00
         21   -1    0    0  504  501  0.00000000000E+00  0.00000000000E+00  0.28169482757E+03  0.28169482757E+03  0.00000000000E+00 0.  1.
         21   -1    0    0  505  502 -0.00000000000E+00 -0.00000000000E+00 -0.17446127783E+03  0.17446127783E+03  0.00000000000E+00 0. -1.
         21    1    1    2  503  506  0.76386960409E+02 -0.30539217245E+02  0.30496654150E+02  0.87736294798E+02  0.00000000000E+00 0. -1.
         21    1    1    2  504  503  0.41695125222E+02 -0.21481311000E+02  0.71802658430E+02  0.85764514498E+02  0.00000000000E+00 0.  1.
         21    1    1    2  505  501 -0.16404153235E+03  0.11248360614E+03 -0.26107808138E+02  0.20060858315E+03  0.00000000000E+00 0. -1.
         21    1    1    2  506  502  0.45959446717E+02 -0.60463077899E+02  0.31042045290E+02  0.82046712959E+02  0.00000000000E+00 0.  1.
<scales pt_clust_3="40.64223" pt_clust_4="40.62495" pt_clust_5="198.90245" pt_clust_6="40.64223"></scales>
<clustering>
<clus scale="   40.642">  3  6 -1 -1</clus>
<clus scale="   40.625">  3  4 -1 -1</clus>
<clus scale="  198.902">  2  5  1 -1</clus>
<clus scale="  218.001">  1  3  2 -1</clus>
</clustering>
</event>
<event>
 6    0  0.3446372E+002  0.8811845E+02  0.7546771E-02  0.1307473E+00
         21   -1    0    0  506  501  0.00000000000E+00  0.00000000000E+00  0.53140099691E+03  0.53140099691E+03  0.00000000000E+00 0.  1.
         21   -1    0    0  504  502 -0.00000000000E+00 -0.00000000000E+00 -0.26382520344E+03  0.26382520344E+03  0.00000000000E+00 0.  1.
         21    1    1    2  503  501 -0.91080921343E+01 -0.32686268942E+02  0.36834328535E+02  0.50081106999E+02  0.00000000000E+00 0. -1.
         21    1    1    2  504  505 -0.53982785787E+02  0.71638691626E+02 -0.19327452213E+03  0.21307577104E+03  0.00000000000E+00 0.  1.
         21    1    1    2  505  503  0.13996247851E+02 -0.89250701229E+02 -0.11363086453E+02  0.91053294051E+02  0.00000000000E+00 0.  1.
         21    1    1    2  506  502  0.49094630070E+02  0.50298278546E+02  0.43537907352E+03  0.44101602826E+03  0.00000000000E+00 0.  1.
<scales pt_clust_3="33.93154" pt_clust_4="88.11845" pt_clust_5="14000.00000" pt_clust_6="45.96425"></scales>
<clustering>
<clus scale="   33.932">  1  3  2 -1</clus>
<clus scale="   45.964">  1  6  2 -1</clus>
<clus scale="   88.118">  2  4  1 -1</clus>
<clus scale="   33.932">  1  3  2 -1</clus>
</clustering>
</event>
<event>
 6    0  0.3446372E+002  0.1199925E+03  0.7546771E-02  0.1243109E+00
         21   -1    0    0  503  501  0.00000000000E+00  0.00000000000E+00  0.51616775970E+03  0.51616775970E+03  0.00000000000E+00 0.  1.
         21   -1    0    0  501  502 -0.00000000000E+00 -0.00000000000E+00 -0.12058275372E+03  0.12058275372E+03  0.00000000000E+00 0. -1.
         21    1    1    2  503  505  0.12869037187E+02  0.36902683748E+02  0.99257557482E+02  0.10667465914E+03  0.00000000000E+00 0.  1.
         21    1    1    2  504  502 -0.56675780818E+02 -0.13996952539E+02 -0.30653257898E+02  0.65936947393E+02  0.00000000000E+00 0. -1.
         21    1    1    2  505  506  0.99957226151E+02 -0.48807305438E+02  0.37159553715E+03  0.38788766847E+03  0.00000000000E+00 0.  1.
         21    1    1    2  506  504 -0.56150482520E+02  0.25901574229E+02 -0.44614830757E+02  0.76251238405E+02  0.00000000000E+00 0. -1.
<scales pt_clust_3="39.08222" pt_clust_4="39.47565" pt_clust_5="112.77188" pt_clust_6="39.47565"></scales>
<clustering>
<clus scale="   39.082">  1  3  2 -1</clus>
<clus scale="   39.476">  4  6 -1 -1</clus>
<clus scale="  112.772">  1  5  2 -1</clus>
<clus scale="   39.082">  1  3  2 -1</clus>
</clustering>
</event>
<event>
 6    0  0.3446372E+002  0.1504516E+03  0.7546771E-02  0.1199919E+00
         21   -1    0    0  505  501  0.00000000000E+00  0.00000000000E+00  0.93614181043E+02  0.93614181043E+02  0.00000000000E+00 0. -1.
         21   -1    0    0  503  502 -0.00000000000E+00 -0.00000000000E+00 -0.72152522946E+03  0.72152522946E+03  0.00000000000E+00 0. -1.
         21    1    1    2  503  506 -0.22415123675E+02  0.83972461714E+02 -0.39984589430E+03  0.40918278469E+03  0.00000000000E+00 0. -1.
         21    1    1    2  504  501  0.38850608766E+02  0.22988713265E+02  0.30171811063E+02  0.54297227570E+02  0.00000000000E+00 0. -1.
         21    1    1    2  505  502  0.74321673302E+00 -0.16025537745E+03 -0.11324673559E+03  0.19623241703E+03  0.00000000000E+00 0. -1.
         21    1    1    2  506  504 -0.17178701824E+02  0.53294202469E+02 -0.14499022958E+03  0.15542698121E+03  0.00000000000E+00 0. -1.
<scales pt_clust_3="31.37542" pt_clust_4="45.14256" pt_clust_5="145.28491" pt_clust_6="31.37542"></scales>
<clustering>
<clus scale="   31.375">  3  6 -1 -1</clus>
<clus scale="   45.143">  1  4  2 -1</clus>
<clus scale="  145.285">  1  5  2 -1</clus>
<clus scale="   45.143">  1  3  2 -1</clus>
</clustering>
</event>
<event>
 6    0  0.3446372E+002  0.9739993E+02  0.7546771E-02  0.1285861E+00
         21   -1    0    0  502  501  0.00000000000E+00  0.00000000000E+00  0.15611923962E+03  0.15611923962E+03  0.00000000000E+00 0.  1.
         21   -1    0    0  503  502 -0.00000000000E+00 -0.00000000000E+00 -0.18544330784E+03  0.18544330784E+03  0.00000000000E+00 0.  1.
         21    1    1    2  503  504 -0.22343910904E+02 -0.30610555591E+02 -0.47298015374E+02  0.60608239756E+02  0.00000000000E+00 0.  1.
         21    1    1    2  504  505  0.22258677916E+02 -0.46857777822E+02 -0.36717688734E+02  0.63555399070E+02  0.00000000000E+00 0.  1.
         21    1    1    2  505  506 -0.80353600599E+02 -0.12686438242E+02 -0.71614376871E+01  0.81663535524E+02  0.00000000000E+00 0. -1.
         21    1    1    2  506  501  0.80438833588E+02  0.90154771655E+02  0.61853073583E+02  0.13573537311E+03  0.00000000000E+00 0.  1.
<scales pt_clust_3="37.89797" pt_clust_4="60.12034" pt_clust_5="97.39993" pt_clust_6="14000.00000"></scales>
<clustering>
<clus scale="   37.898">  2  3  1 -1</clus>
<clus scale="   60.120">  2  4  1 -1</clus>
<clus scale="   97.400">  2  5  1 -1</clus>
<clus scale="   97.400">  1  3  2 -1</clus>
</clustering>
</event>
<event>
 6    0  0.3446372E+002  0.9668620E+02  0.7546771E-02  0.1287423E+00
         21   -1    0    0  506  501  0.00000000000E+00  0.00000000000E+00  0.10463686098E+02  0.10463686098E+02  0.00000000000E+00 0. -1.
         21   -1    0    0  503  502 -0.00000000000E+00 -0.00000000000E+00 -0.34843414486E+04  0.34843414486E+04  0.00000000000E+00 0.  1.
         21    1    1    2  503  505  0.25467564224E+02  0.21384924336E+02 -0.74454942858E+03  0.74529173041E+03  0.00000000000E+00 0.  1.
         21    1    1    2  504  502 -0.12739987574E+03 -0.16741231041E+02 -0.20369286985E+04  0.20409775893E+04  0.00000000000E+00 0.  1.
         21    1    1    2  505  501  0.70905795848E+02  0.20058511528E+02 -0.63198882676E+03  0.63627026720E+03  0.00000000000E+00 0. -1.
         21    1    1    2  506  504  0.31026515666E+02 -0.24702204823E+02 -0.60410808642E+02  0.72265547796E+02  0.00000000000E+00 0. -1.
<scales pt_clust_3="33.25525" pt_clust_4="96.68620" pt_clust_5="14000.00000" pt_clust_6="39.82684"></scales>
<clustering>
<clus scale="   33.255">  2  3  1 -1</clus>
<clus scale="   39.827">  1  6  2 -1</clus>
<clus scale="   96.686">  2  4  1 -1</clus>
<clus scale="   39.827">  1  3  2 -1</clus>
</clustering>
</event>
<event>
 6    0  0.3446372E+002  0.2995149E+03  0.7546771E-02  0.1085483E+00
         21   -1    0    0  506  501  0.00000000000E+00  0.00000000000E+00  0.63418279636E+03  0.63418279636E+03  0.00000000000E+00 0. -1.
         21   -1    0    0  505  502 -0.00000000000E+00 -0.00000000000E+00 -0.16499158766E+03  0.16499158766E+03  0.00000000000E+00 0. -1.
         21    1    1    2  503  502  0.65181229184E+02  0.28979189901E+03  0.17063774759E+03  0.34255682488E+03  0.00000000000E+00 0. -1.
         21    1    1    2  504  501  0.72564365905E+01 -0.35903373599E+02  0.67720733344E+02  0.76992245274E+02  0.00000000000E+00 0.  1.
         21    1    1    2  505  504 -0.41413304474E+02 -0.23650006964E+03  0.13070736847E+03  0.27337110473E+03  0.00000000000E+00 0. -1.
         21    1    1    2  506  503 -0.31024361300E+02 -0.17388455765E+02  0.10012535928E+03  0.10625420914E+03  0.00000000000E+00 0.  1.
<scales pt_clust_3="285.82995" pt_clust_4="34.95810" pt_clust_5="34.95810" pt_clust_6="35.56500"></scales>
<clustering>
<clus scale="   34.958">  4  5 -1 -1</clus>
<clus scale="   35.565">  1  6  2 -1</clus>
<clus scale="  285.830">  2  3  1 -1</clus>
<clus scale="   35.565">  1  3  2 -1</clus>
</clustering>
</event>
<event>
 6    0  0.3446372E+002  0.1423553E+03  0.7546771E-02  0.1210194E+00
         21   -1    0    0  503  501  0.00000000000E+00  0.00000000000E+00  0.94205824189E+03  0.94205824189E+03  0.00000000000E+00 0.  1.
         21   -1    0    0  505  502 -0.00000000000E+00 -0.00000000000E+00 -0.42805771210E+03  0.42805771210E+03  0.00000000000E+00 0.  1.
         21    1    1    2  503  506 -0.24738614285E+02  0.56596142778E+02  0.52964775297E+03  0.53323715610E+03  0.00000000000E+00 0.  1.
         21    1    1    2  504  502 -0.39972821415E+02 -0.28327688441E+02 -0.40662898905E+02  0.63669111283E+02  0.00000000000E+00 0.  1.
         21    1    1    2  505  501  0.52915380286E+02  0.87127317653E+02  0.38329603055E+03  0.39661953304E+03  0.00000000000E+00 0.  1.
         21    1    1    2  506  504  0.11796055414E+02 -0.11539577199E+03 -0.35828035482E+03  0.37659015357E+03  0.00000000000E+00 0.  1.
<scales pt_clust_3="61.71961" pt_clust_4="48.99270" pt_clust_5="142.35529" pt_clust_6="14000.00000"></scales>
<clustering>
<clus scale="   48.993">  2  4  1 -1</clus>
<clus scale="   61.720">  1  3  2 -1</clus>
<clus scale="  142.355">  1  5  2 -1</clus>
<clus scale="   61.720">  1  3  2 -1</clus>
</clustering>
</event>
<event>
 6    0  0.3446372E+002  0.1195999E+03  0.7546771E-02  0.1243759E+00
         21   -1    0    0  502  501  0.00000000000E+00  0.00000000000E+00  0.16375673879E+02  0.16375673879E+02  0.00000000000E+00 0.  1.
         21   -1    0    0  505  502 -0.00000000000E+00 -0.00000000000E+00 -0.21453711869E+04  0.21453711869E+04  0.00000000000E+00 0.  1.
         21    1    1    2  503  501  0.29426064826E+02 -0.40208065393E+02 -0.18968630184E+03  0.19612107209E+03  0.00000000000E+00 0.  1.
         21    1    1    2  504  503  0.95883507879E+02  0.84771467103E+02 -0.45639916249E+03  0.47400426606E+03  0.00000000000E+00 0.  1.
         21    1    1    2  505  506 -0.35672813895E+02  0.15992685812E+02 -0.72235130312E+03  0.72340840523E+03  0.00000000000E+00 0.  1.
         21    1    1    2  506  504 -0.89636758809E+02 -0.60556087521E+02 -0.76055874556E+03  0.76821311738E+03  0.00000000000E+00 0.  1.
<scales pt_clust_3="45.29439" pt_clust_4="14000.00000" pt_clust_5="39.09368" pt_clust_6="119.59992"></scales>
<clustering>
<clus scale="   39.094">  2  5  1 -1</clus>
<clus scale="   45.294">  1  3  2 -1</clus>
<clus scale="  119.600">  2  6  1 -1</clus>
<clus scale="   45.294">  1  3  2 -1</clus>
</clustering>
</event>
<event>
 6    0  0.3446372E+002  0.8794900E+02  0.7546771E-02  0.1307896E+00
         21   -1    0    0  505  501  0.00000000000E+00  0.00000000000E+00  0.52366532322E+03  0.52366532322E+03  0.00000000000E+00 0. -1.
         21   -1    0    0  503  502 -0.00000000000E+00 -0.00000000000E+00 -0.60649156725E+03  0.60649156725E+03  0.00000000000E+00 0.  1.
         21    1    1    2  503  506 -0.86926297602E+02  0.14911297606E+02 -0.56725549863E+03  0.57407083948E+03  0.00000000000E+00 0.  1.
         21    1    1    2  504  502  0.18568073515E+02 -0.55932664790E+02  0.17573402249E+02  0.61498461860E+02  0.00000000000E+00 0. -1.
         21    1    1    2  505  504 -0.82330785081E+01 -0.45706154517E+02  0.10869930874E+03  0.11820480474E+03  0.00000000000E+00 0. -1.
         21    1    1    2  506  501  0.76591302595E+02  0.86727521701E+02  0.35815654361E+03  0.37638278439E+03  0.00000000000E+00 0. -1.
<scales pt_clust_3="87.94900" pt_clust_4="62.90137" pt_clust_5="46.44175" pt_clust_6="14000.00000"></scales>
<clustering>
<clus scale="   46.442">  1  5  2 -1</clus>
<clus scale="   62.901">  1  4  2 -1</clus>
<clus scale="   87.949">  2  3  1 -1</clus>
<clus scale="   46.442">  1  3  2 -1</clus>
</clustering>
</event>
<event>
 6    0  0.3446372E+002  0.1006932E+03  0.7546771E-02  0.1278845E+00
         21   -1    0    0  506  501  0.00000000000E+00  0.00000000000E+00  0.24773077447E+02  0.24773077447E+02  0.00000000000E+00 0. -1.
         21   -1    0    0  503  502 -0.00000000000E+00 -0.00000000000E+00 -0.13389261580E+04  0.13389261580E+04  0.00000000000E+00 0. -1.
         21    1    1    2  503  501 -0.46215017467E+02  0.12778904837E+03 -0.29181710580E+03  0.32190540841E+03  0.00000000000E+00 0. -1.
         21    1    1    2  504  502  0.76697459083E+01 -0.33520866570E+02 -0.59172656531E+03  0.59272489537E+03  0.00000000000E+00 0. -1.
         21    1    1    2  505  504  0.50229803675E+01 -0.50413038619E+02 -0.33384352403E+03  0.33766581605E+03  0.00000000000E+00 0. -1.
         21    1    1    2  506  505  0.33522291192E+02 -0.43855143182E+02 -0.96765885432E+02  0.11140311564E+03  0.00000000000E+00 0. -1.
<scales pt_clust_3="91.64188" pt_clust_4="34.37465" pt_clust_5="34.37465" pt_clust_6="55.19980"></scales>
<clustering>
<clus scale="   34.375">  4  5 -1 -1</clus>
<clus scale="   55.200">  1  6  2 -1</clus>
<clus scale="   91.642">  1  3  2 -1</clus>
<clus scale="   55.200">  1  3  2 -1</clus>
</clustering>
</event>
<event>
 6    0  0.3446372E+002  0.1095091E+03  0.7546771E-02  0.1261482E+00
         21   -1    0    0  506  501  0.00000000000E+00  0.00000000000E+00  0.96254224491E+02  0.96254224491E+02  0.00000000000E+00 0.  1.
         21   -1    0    0  503  502 -0.00000000000E+00 -0.00000000000E+00 -0.69372329397E+03  0.69372329397E+03  0.00000000000E+00 0.  1.
         21    1    1    2  503  501 -0.48636505107E+02 -0.57113153762E+01 -0.15491058328E+03  0.16246666601E+03  0.00000000000E+00 0.  1.
         21    1    1    2  504  502 -0.28448843708E+02 -0.85713985400E+02 -0.39635696643E+03  0.40651576702E+03  0.00000000000E+00 0.  1.
         21    1    1    2  505  504  0.17022278192E+01  0.12312218975E+03  0.71716465432E+01  0.12334262727E+03  0.00000000000E+00 0.  1.
         21    1    1    2  506  505  0.75383120996E+02 -0.31696888974E+02 -0.53373166317E+02  0.97652458159E+02  0.00000000000E+00 0.  1.
<scales pt_clust_3="48.97069" pt_clust_4="109.50915" pt_clust_5="14000.00000" pt_clust_6="75.83707"></scales>
<clustering>
<clus scale="   48.971">  2  3  1 -1</clus>
<clus scale="   75.837">  1  6  2 -1</clus>
<clus scale="  109.509">  2  4  1 -1</clus>
<clus scale="   75.837">  1  3  2 -1</clus>
</clustering>
</event>
<event>
 6    0  0.3446372E+002  0.1125211E+03  0.7546771E-02  0.1255971E+00
         21   -1    0    0  504  501  0.00000000000E+00  0.00000000000E+00  0.19752684962E+03  0.19752684962E+03  0.00000000000E+00 0.  1.
         21   -1    0    0  505  502 -0.00000000000E+00 -0.00000000000E+00 -0.27441312264E+03  0.27441312264E+03  0.00000000000E+00 0.  1.
         21    1    1    2  503  502 -0.40648065681E+01  0.71923229448E+02 -0.16630509051E+03  0.18123701807E+03  0.00000000000E+00 0.  1.
         21    1    1    2  504  503  0.72002116919E+02 -0.12210809626E+03  0.11809997412E+03  0.18450554436E+03  0.00000000000E+00 0.  1.
         21    1    1    2  505  506 -0.27870407985E+02  0.43323390347E+02 -0.38580308179E+02  0.64359272615E+02  0.00000000000E+00 0.  1.
         21    1    1    2  506  501 -0.40066902366E+02  0.68614764672E+01  0.98991515578E+01  0.41838137220E+02  0.00000000000E+00 0. -1.
<scales pt_clust_3="112.52111" pt_clust_4="14000.00000" pt_clust_5="53.62213" pt_clust_6="40.65017"></scales>
<clustering>
<clus scale="   40.650">  1  6  2 -1</clus>
<clus scale="   53.622">  2  5  1 -1</clus>
<clus scale="  112.521">  2  3  1 -1</clus>
<clus scale="   40.650">  1  3  2 -1</clus>
</clustering>
</event>
<event>
 6    0  0.3446372E+002  0.1149053E+03  0.7546771E-02  0.1251746E+00
         21   -1    0    0  506  501  0.00000000000E+00  0.00000000000E+00  0.47609485406E+03  0.47609485406E+03  0.00000000000E+00 0.  1.
         21   -1    0    0  505  502 -0.00000000000E+00 -0.00000000000E+00 -0.12681730553E+03  0.12681730553E+03  0.00000000000E+00 0. -1.
         21    1    1    2  503  504  0.41640106591E+02 -0.14773226577E+02  0.42426170434E+02  0.61254605035E+02  0.00000000000E+00 0.  1.
         21    1    1    2  504  502  0.44306319336E+02  0.21056912552E+02  0.33005125674E+02  0.59125136956E+02  0.00000000000E+00 0.  1.
         21    1    1    2  505  501  0.20108416172E+02 -0.75056999869E+02 -0.77132231024E+02  0.10948644981E+03  0.00000000000E+00 0. -1.
         21    1    1    2  506  503 -0.10605484210E+03  0.68773313894E+02  0.35097848344E+03  0.37304596778E+03  0.00000000000E+00 0.  1.
<scales pt_clust_3="35.19297" pt_clust_4="35.19297" pt_clust_5="77.70394" pt_clust_6="108.75711"></scales>
<clustering>
<clus scale="   35.193">  3  4 -1 -1</clus>
<clus scale="   77.704">  2  5  1 -1</clus>
<clus scale="  108.757">  1  6  2 -1</clus>
<clus scale="  108.757">  1  3  2 -1</clus>
</clustering>
</event>
<event>
 6    0  0.3446372E+002  0.2385340E+03  0.7546771E-02  0.1120773E+00
         21   -1    0    0  504  501  0.00000000000E+00  0.00000000000E+00  0.14854404567E+04  0.14854404567E+04  0.00000000000E+00 0. -1.
         21   -1    0    0  506  502 -0.00000000000E+00 -0.00000000000E+00 -0.92037400752E+02  0.92037400752E+02  0.00000000000E+00 0.  1.
         21    1    1    2  503  501  0.44130239052E+02 -0.21310770416E+02  0.73518629423E+03  0.73681782970E+03  0.00000000000E+00 0. -1.
         21    1    1    2  504  502  0.18620004924E+03 -0.71321589196E+02  0.51037612906E+03  0.54794253398E+03  0.00000000000E+00 0. -1.
         21    1    1    2  505  503 -0.14966505653E+03  0.83015953316E+02  0.94044191899E+02  0.19528335229E+03  0.00000000000E+00 0.  1.
         21    1    1    2  506  505 -0.80665231770E+02  0.96164062968E+01  0.53796440711E+02  0.97434141448E+02  0.00000000000E+00 0.  1.
<scales pt_clust_3="49.00640" pt_clust_4="233.89013" pt_clust_5="32.26989" pt_clust_6="32.26989"></scales>
<clustering>
<clus scale="   32.270">  5  6 -1 -1</clus>
<clus scale="   49.006">  1  3  2 -1</clus>
<clus scale="  233.890">  1  4  2 -1</clus>
<clus scale="   49.006">  1  3  2 -1</clus>
</clustering>
</event>
<event>
 6    0  0.3446372E+002  0.1014461E+03  0.7546771E-02  0.1277284E+00
         21   -1    0    0  503  501  0.00000000000E+00  0.00000000000E+00  0.73070174841E+03  0.73070174841E+03  0.00000000000E+00 0. -1.
         21   -1    0    0  504  502 -0.00000000000E+00 -0.00000000000E+00 -0.29767508491E+02  0.29767508491E+02  0.00000000000E+00 0. -1.
         21    1    1    2  503  506  0.44524028515E+02 -0.62380263636E+02  0.21138716924E+03  0.22485155487E+03  0.00000000000E+00 0. -1.
         21    1    1    2  504  501 -0.59775076152E+02 -0.61457003759E+02  0.16698160223E+03  0.18770423150E+03  0.00000000000E+00 0. -1.
         21    1    1    2  505  502  0.99454738279E+01  0.47670954684E+02  0.80408383287E+02  0.94005002383E+02  0.00000000000E+00 0. -1.
         21    1    1    2  506  505  0.53055738100E+01  0.76166312711E+02  0.24215708516E+03  0.25390846815E+03  0.00000000000E+00 0. -1.
<scales pt_clust_3="76.63998" pt_clust_4="94.15031" pt_clust_5="30.16918" pt_clust_6="30.16918"></scales>
<clustering>
<clus scale="   30.169">  5  6 -1 -1</clus>
<clus scale="   76.640">  1  3  2 -1</clus>
<clus scale="   94.150">  2  4  1 -1</clus>
<clus scale="   76.640">  1  3  2 -1</clus>
</clustering>
</event>
<event>
 6    0  0.3446372E+002  0.1141700E+03  0.7546771E-02  0.1253037E+00
         21   -1    0    0  504  501  0.00000000000E+00  0.00000000000E+00  0.34617524603E+03  0.34617524603E+03  0.00000000000E+00 0. -1.
         21   -1    0    0  505  502 -0.00000000000E+00 -0.00000000000E+00 -0.79873727636E+03  0.79873727636E+03  0.00000000000E+00 0. -1.
         21    1    1    2  503  506 -0.55448657732E+02  0.10451871556E+03 -0.15201682503E+03  0.19263392910E+03  0.00000000000E+00 0. -1.
         21    1    1    2  504  503 -0.81326494849E+02 -0.12460635892E+03  0.23321088525E+03  0.27663705545E+03  0.00000000000E+00 0. -1.
         21    1    1    2  505  501  0.12667474111E+02  0.37787344859E+02  0.58210292994E+02  0.70546343224E+02  0.00000000000E+00 0. -1.
         21    1    1    2  506  502  0.12410767847E+03 -0.17699701504E+02 -0.59196638356E+03  0.60509519462E+03  0.00000000000E+00 0. -1.
<scales pt_clust_3="114.17004" pt_clust_4="114.27001" pt_clust_5="39.85409" pt_clust_6="14000.00000"></scales>
<clustering>
<clus scale="   39.854">  1  5  2 -1</clus>
<clus scale="  114.270">  1  4  2 -1</clus>
<clus scale="  114.170">  1  3  2 -1</clus>
<clus scale="   39.854">  1  3  2 -1</clus>
</clustering>
</event>
<event>
 6    0  0.3446372E+002  0.8456866E+02  0.7546771E-02  0.1316564E+00
         21   -1    0    0  504  501  0.00000000000E+00  0.00000000000E+00  0.14771095483E+04  0.14771095483E+04  0.00000000000E+00 0. -1.
         21   -1    0    0  505  502 -0.00000000000E+00 -0.00000000000E+00 -0.30388580886E+02  0.30388580886E+02  0.00000000000E+00 0. -1.
         21    1    1    2  503  501  0.99951756992E+02  0.63084662430E+02  0.25795885613E+03  0.28374777499E+03  0.00000000000E+00 0. -1.
         21    1    1    2  504  506 -0.39018687202E+02 -0.10175768276E+01  0.99897215393E+03  0.99973439360E+03  0.00000000000E+00 0. -1.
         21    1    1    2  505  503 -0.30029340269E+00 -0.48208502983E+02  0.43027209073E+02  0.64618036619E+02  0.00000000000E+00 0. -1.
         21    1    1    2  506  502 -0.60632776387E+02 -0.13858582620E+02  0.14676274832E+03  0.15939792401E+03  0.00000000000E+00 0. -1.
<scales pt_clust_3="84.56866" pt_clust_4="39.03195" pt_clust_5="48.55078" pt_clust_6="14000.00000"></scales>
<clustering>
<clus scale="   39.032">  1  4  2 -1</clus>
<clus scale="   48.551">  2  5  1 -1</clus>
<clus scale="   84.569">  1  3  2 -1</clus>
<clus scale="   39.032">  1  3  2 -1</clus>
</clustering>
</event>
<event>
 6    0  0.3446372E+002  0.1017869E+03  0.7546771E-02  0.1276583E+00
         21   -1    0    0  504  501  0.00000000000E+00  0.00000000000E+00  0.16958326398E+03  0.16958326398E+03  0.00000000000E+00 0. -1.
         21   -1    0    0  503  502 -0.00000000000E+00 -0.00000000000E+00 -0.15364783408E+04  0.15364783408E+04  0.00000000000E+00 0. -1.
         21    1    1    2  503  506  0.10726552016E+03  0.57057112607E+02 -0.12999310815E+04  0.13055965007E+04  0.00000000000E+00 0. -1.
         21    1    1    2  504  502  0.15924735604E+01  0.33761729077E+02 -0.10953597347E+02  0.35529869366E+02  0.00000000000E+00 0.  1.
         21    1    1    2  505  501 -0.48127055021E+02 -0.67364541455E+02  0.13764767264E+03  0.16062713548E+03  0.00000000000E+00 0. -1.
         21    1    1    2  506  505 -0.60730938697E+02 -0.23454300229E+02 -0.19365807063E+03  0.20430809929E+03  0.00000000000E+00 0.  1.
<scales pt_clust_3="14000.00000" pt_clust_4="33.79927" pt_clust_5="58.50684" pt_clust_6="101.78692"></scales>
<clustering>
<clus scale="   33.799">  1  4  2 -1</clus>
<clus scale="   58.507">  1  5  2 -1</clus>
<clus scale="  101.787">  1  6  2 -1</clus>
<clus scale="   33.799">  1  3  2 -1</clus>
</clustering>
</event>
<event>
 6    0  0.3446372E+002  0.1882772E+03  0.7546771E-02  0.1160024E+00
         21   -1    0    0  503  501  0.00000000000E+00  0.00000000000E+00  0.94015330090E+03  0.94015330090E+03  0.00000000000E+00 0. -1.
         21   -1    0    0  501  502 -0.00000000000E+00 -0.00000000000E+00 -0.23956195127E+04  0.23956195127E+04  0.00000000000E+00 0.  1.
         21    1    1    2  503  505  0.73395188597E+01 -0.63844491411E+02  0.85132764668E+03  0.85374981677E+03  0.00000000000E+00 0. -1.
         21    1    1    2  504  506 -0.44921382644E+02  0.62283308470E+02 -0.12134435540E+04  0.12158710457E+04  0.00000000000E+00 0.  1.
         21    1    1    2  505  504  0.97148137736E+02 -0.90583977211E+02  0.31051812304E+02  0.13640906363E+03  0.00000000000E+00 0. -1.
         21    1    1    2  506  502 -0.59566273951E+02  0.92145160152E+02 -0.11244021168E+04  0.11297428875E+04  0.00000000000E+00 0.  1.
<scales pt_clust_3="64.26498" pt_clust_4="33.63602" pt_clust_5="183.93414" pt_clust_6="33.63602"></scales>
<clustering>
<clus scale="   33.636">  4  6 -1 -1</clus>
<clus scale="   64.265">  1  3  2 -1</clus>
<clus scale="  183.934">  1  5  2 -1</clus>
<clus scale="   64.265">  1  3  2 -1</clus>
</clustering>
</event>
<event>
 6    0  0.3446372E+002  0.8524497E+02  0.7546771E-02  0.1314793E+00
         21   -1    0    0  505  501  0.00000000000E+00  0.00000000000E+00  0.28653005186E+03  0.28653005186E+03  0.00000000000E+00 0. -1.
         21   -1    0    0  506  502 -0.00000000000E+00 -0.00000000000E+00 -0.10758017348E+03  0.10758017348E+03  0.00000000000E+00 0. -1.
         21    1    1    2  503  502 -0.22475727525E+02  0.33272772506E+02 -0.54795144551E+02  0.67931904024E+02  0.00000000000E+00 0. -1.
         21    1    1    2  504  501  0.81929692312E+02 -0.10188681270E+02  0.13200199246E+03  0.15569460402E+03  0.00000000000E+00 0. -1.
         21    1    1    2  505  503 -0.90563073918E+02 -0.39966546911E+02  0.88211198943E+02  0.13259038747E+03  0.00000000000E+00 0. -1.
         21    1    1    2  506  504  0.31109109132E+02  0.16882455676E+02  0.13531831528E+02  0.37893329824E+02  0.00000000000E+00 0. -1.
<scales pt_clust_3="44.20085" pt_clust_4="14000.00000" pt_clust_5="85.24497" pt_clust_6="35.39483"></scales>
<clustering>
<clus scale="   35.395">  2  6  1 -1</clus>
<clus scale="   44.201">  2  3  1 -1</clus>
<clus scale="   85.245">  2  5  1 -1</clus>
<clus scale="   85.245">  1  3  2 -1</clus>
</clustering>
</event>
<event>
 6    0  0.3446372E+002  0.9508864E+02  0.7546771E-02  0.1290977E+00
         21   -1    0    0  504  501  0.00000000000E+00  0.00000000000E+00  0.14478281012E+03  0.14478281012E+03  0.00000000000E+00 0.  1.
         21   -1    0    0  503  502 -0.00000000000E+00 -0.00000000000E+00 -0.57186565228E+03  0.57186565228E+03  0.00000000000E+00 0. -1.
         21    1    1    2  503  505 -0.11221827611E+02 -0.31375524885E+02 -0.13961807188E+03  0.14353939867E+03  0.00000000000E+00 0. -1.
         21    1    1    2  504  502  0.38878455436E+02 -0.93210868063E+01 -0.34020903349E+03  0.34255014732E+03  0.00000000000E+00 0. -1.
         21    1    1    2  505  506 -0.11521275219E+03  0.20132177834E+02 -0.15061335326E+02  0.11792424125E+03  0.00000000000E+00 0.  1.
         21    1    1    2  506  501  0.87556124368E+02  0.20564433857E+02  0.67805598538E+02  0.11263467516E+03  0.00000000000E+00 0.  1.
<scales pt_clust_3="33.32196" pt_clust_4="45.48733" pt_clust_5="14000.00000" pt_clust_6="95.08864"></scales>
<clustering>
<clus scale="   33.322">  2  3  1 -1</clus>
<clus scale="   45.487">  2  4  1 -1</clus>
<clus scale="   95.089">  1  6  2 -1</clus>
<clus scale="   95.089">  1  3  2 -1</clus>
</clustering>
</event>
<event>
 6    0  0.3446372E+002  0.9550154E+02  0.7546771E-02  0.1290050E+00
         21   -1    0    0  504  501  0.00000000000E+00  0.00000000000E+00  0.80409791547E+03  0.80409791547E+03  0.00000000000E+00 0.  1.
         21   -1    0    0  505  502 -0.00000000000E+00 -0.00000000000E+00 -0.93094012045E+02  0.93094012045E+02  0.00000000000E+00 0.  1.
         21    1    1    2  503  502  0.38137111706E+02 -0.24412921970E+01 -0.29371297602E+02  0.48198260546E+02  0.00000000000E+00 0.  1.
         21    1    1    2  504  506 -0.11737583289E+03  0.23754546876E+02  0.55323243431E+03  0.56604548493E+03  0.00000000000E+00 0.  1.
         21    1    1    2  505  501  0.73303675413E+01 -0.50831001250E+02 -0.24923391837E+02  0.57085028134E+02  0.00000000000E+00 0.  1.
         21    1    1    2  506  503  0.71908353638E+02  0.29517746572E+02  0.21206615856E+03  0.22586315390E+03  0.00000000000E+00 0. -1.
<scales pt_clust_3="38.21517" pt_clust_4="95.50154" pt_clust_5="63.87132" pt_clust_6="14000.00000"></scales>
<clustering>
<clus scale="   38.215">  2  3  1 -1</clus>
<clus scale="   63.871">  2  5  1 -1</clus>
<clus scale="   95.502">  1  4  2 -1</clus>
<clus scale="   95.502">  1  3  2 -1</clus>
</clustering>
</event>
<event>
 6    0  0.3446372E+002  0.1272568E+03  0.7546771E-02  0.1231584E+00
         21   -1    0    0  506  501  0.00000000000E+00  0.00000000000E+00  0.73203568532E+03  0.73203568532E+03  0.00000000000E+00 0.  1.
         21   -1    0    0  501  502 -0.00000000000E+00 -0.00000000000E+00 -0.12479892768E+03  0.12479892768E+03  0.00000000000E+00 0. -1.
         21    1    1    2  503  502  0.47527677897E+02  0.49310906664E+02  0.10237789620E+02  0.69247801544E+02  0.00000000000E+00 0. -1.
         21    1    1    2  504  503  0.31172104466E+02 -0.26971678689E+02  0.31317169856E+01  0.41339801637E+02  0.00000000000E+00 0.  1.
         21    1    1    2  505  504  0.31573285749E+02 -0.69382784161E+02 -0.50097512763E+02  0.91217344272E+02  0.00000000000E+00 0. -1.
         21    1    1    2  506  505 -0.11027306811E+03  0.47043556186E+02  0.64396476380E+03  0.65502966554E+03  0.00000000000E+00 0.  1.
<scales pt_clust_3="68.48683" pt_clust_4="34.05312" pt_clust_5="34.05312" pt_clust_6="118.53209"></scales>
<clustering>
<clus scale="   34.053">  4  5 -1 -1</clus>
<clus scale="   68.487">  2  3  1 -1</clus>
<clus scale="  118.532">  1  6  2 -1</clus>
<clus scale="  118.532">  1  3  2 -1</clus>
</clustering>
</event>
<event>
 6    0  0.3446372E+002  0.1001276E+03  0.7546771E-02  0.1280028E+00
         21   -1    0    0  503  501  0.00000000000E+00  0.00000000000E+00  0.15421547711E+04  0.15421547711E+04  0.00000000000E+00 0. -1.
         21   -1    0    0  506  502 -0.00000000000E+00 -0.00000000000E+00 -0.21608475268E+02  0.21608475268E+02  0.00000000000E+00 0.  1.
         21    1    1    2  503  504  0.12404574064E+03 -0.55041940697E+02  0.10081059122E+04  0.10171993370E+04  0.00000000000E+00 0. -1.
         21    1    1    2  504  502 -0.63020824657E+02  0.30342539075E+02  0.24115158909E+03  0.25109038799E+03  0.00000000000E+00 0.  1.
         21    1    1    2  505  501 -0.29733337265E+02 -0.86743065574E+01  0.23512773317E+03  0.23715894637E+03  0.00000000000E+00 0.  1.
         21    1    1    2  506  505 -0.31291578720E+02  0.33373708179E+02  0.36161061349E+02  0.58314574973E+02  0.00000000000E+00 0.  1.
<scales pt_clust_3="100.12755" pt_clust_4="14000.00000" pt_clust_5="30.97281" pt_clust_6="46.26646"></scales>
<clustering>
<clus scale="   30.973">  1  5  2 -1</clus>
<clus scale="   46.266">  2  6  1 -1</clus>
<clus scale="  100.128">  1  3  2 -1</clus>
<clus scale="   30.973">  1  3  2 -1</clus>
</clustering>
</event>
<event>
 6    0  0.3446372E+002  0.3998687E+03  0.7546771E-02  0.1043825E+00
         21   -1    0    0  504  501  0.00000000000E+00  0.00000000000E+00  0.49018541786E+03  0.49018541786E+03  0.00000000000E+00 0.  1.
         21   -1    0    0  506  502 -0.00000000000E+00 -0.00000000000E+00 -0.47776533877E+03  0.47776533877E+03  0.00000000000E+00 0.  1.
         21    1    1    2  503  501 -0.31645347485E+02 -0.52469901698E+02  0.54358012758E+02  0.81910390993E+02  0.00000000000E+00 0.  1.
         21    1    1    2  504  505  0.81693249740E+01 -0.30548986690E+02  0.10618609305E+03  0.11079469670E+03  0.00000000000E+00 0.  1.
         21    1    1    2  505  502 -0.34271976029E+01  0.39228729986E+03 -0.22926200260E+03  0.45438104840E+03  0.00000000000E+00 0.  1.
         21    1    1    2  506  503  0.26903220114E+02 -0.30926841147E+03  0.81137975869E+02  0.32086462054E+03  0.00000000000E+00 0.  1.
<scales pt_clust_3="50.95295" pt_clust_4="31.62244" pt_clust_5="383.27994" pt_clust_6="50.95295"></scales>
<clustering>
<clus scale="   31.622">  1  4  2 -1</clus>
<clus scale="   50.953">  3  6 -1 -1</clus>
<clus scale="  383.280">  2  5  1 -1</clus>
<clus scale="   31.622">  1  3  2 -1</clus>
</clustering>
</event>
<event>
 6    0  0.3446372E+002  0.2069874E+03  0.7546771E-02  0.1143974E+00
         21   -1    0    0  505  501  0.00000000000E+00  0.00000000000E+00  0.97327033661E+02  0.97327033661E+02  0.00000000000E+00 0.  1.
         21   -1    0    0  503  502 -0.00000000000E+00 -0.00000000000E+00 -0.59114159474E+03  0.59114159474E+03  0.00000000000E+00 0.  1.
         21    1    1    2  503  504 -0.41328545840E+02  0.24163863882E+02 -0.15209763500E+03  0.15945416768E+03  0.00000000000E+00 0.  1.
         21    1    1    2  504  506 -0.45218604233E+02  0.13928535870E+02 -0.21569332650E+02  0.51999638375E+02  0.00000000000E+00 0.  1.
         21    1    1    2  505  502  0.14076112475E+03 -0.16376057506E+03 -0.18000472549E+03  0.28112794486E+03  0.00000000000E+00 0.  1.
         21    1    1    2  506  501 -0.54213974674E+02  0.12566817531E+03 -0.14014286795E+03  0.19588687749E+03  0.00000000000E+00 0.  1.
<scales pt_clust_3="47.87422" pt_clust_4="45.25016" pt_clust_5="192.14836" pt_clust_6="45.25016"></scales>
<clustering>
<clus scale="   45.250">  4  6 -1 -1</clus>
<clus scale="   47.874">  2  3  1 -1</clus>
<clus scale="  192.148">  2  5  1 -1</clus>
<clus scale="  206.987">  1  3  2 -1</clus>
</clustering>
</event>
<event>
 6    0  0.3446372E+002  0.1199783E+03  0.7546771E-02  0.1243133E+00
         21   -1    0    0  506  501  0.00000000000E+00  0.00000000000E+00  0.84863155527E+02  0.84863155527E+02  0.00000000000E+00 0.  1.
         21   -1    0    0  505  502 -0.00000000000E+00 -0.00000000000E+00 -0.58678897664E+03  0.58678897664E+03  0.00000000000E+00 0.  1.
         21    1    1    2  503  504 -0.21334134352E+02  0.30386559795E+02 -0.22531605288E+03  0.22835457514E+03  0.00000000000E+00 0.  1.
         21    1    1    2  504  501  0.11197778725E+03  0.13029173027E+02 -0.43499557557E+02  0.12083457988E+03  0.00000000000E+00 0.  1.
         21    1    1    2  505  503  0.31786923401E+02  0.19170102415E+01 -0.17787879287E+03  0.18070680225E+03  0.00000000000E+00 0.  1.
         21    1    1    2  506  502 -0.12243057630E+03 -0.45332743063E+02 -0.55231417814E+02  0.14175617489E+03  0.00000000000E+00 0.  1.
<scales pt_clust_3="31.66357" pt_clust_4="14000.00000" pt_clust_5="31.84468" pt_clust_6="119.97832"></scales>
<clustering>
<clus scale="   31.845">  2  5  1 -1</clus>
<clus scale="   31.664">  2  3  1 -1</clus>
<clus scale="  119.978">  2  6  1 -1</clus>
<clus scale="  119.978">  1  3  2 -1</clus>
</clustering>
</event>
<event>
 6    0  0.3446372E+002  0.1070731E+03  0.7546771E-02  0.1266088E+00
         21   -1    0    0  504  501  0.00000000000E+00  0.00000000000E+00  0.95454432078E+02  0.95454432078E+02  0.00000000000E+00 0.  1.
         21   -1    0    0  505  502 -0.00000000000E+00 -0.00000000000E+00 -0.12763105945E+04  0.12763105945E+04  0.00000000000E+00 0. -1.
         21    1    1    2  503  501  0.26735102373E+02  0.15853505365E+02  0.79571210217E+02  0.85426441027E+02  0.00000000000E+00 0.  1.
         21    1    1    2  504  502 -0.98099209018E+02  0.16843834977E+02 -0.74666382548E+03  0.75326890143E+03  0.00000000000E+00 0. -1.
         21    1    1    2  505  506 -0.26502620757E+02  0.14626254862E+02 -0.71538650532E+02  0.77679435878E+02  0.00000000000E+00 0.  1.
         21    1    1    2  506  503  0.97866727402E+02 -0.47323595204E+02 -0.44222489665E+03  0.45539024826E+03  0.00000000000E+00 0.  1.
<scales pt_clust_3="31.04484" pt_clust_4="107.07310" pt_clust_5="30.27072" pt_clust_6="14000.00000"></scales>
<clustering>
<clus scale="   30.271">  2  5  1 -1</clus>
<clus scale="   31.045">  1  3  2 -1</clus>
<clus scale="  107.073">  2  4  1 -1</clus>
<clus scale="   31.045">  1  3  2 -1</clus>
</clustering>
</event>
<event>
 6    0  0.3446372E+002  0.1136563E+03  0.7546771E-02  0.1253945E+00
         21   -1    0    0  503  501  0.00000000000E+00  0.00000000000E+00  0.94526719218E+03  0.94526719218E+03  0.00000000000E+00 0.  1.
         21   -1    0    0  504  502 -0.00000000000E+00 -0.00000000000E+00 -0.74429185870E+03  0.74429185870E+03  0.00000000000E+00 0. -1.
         21    1    1    2  503  505  0.98632358971E+02  0.82544799142E+02  0.79734965852E+03  0.80765615459E+03  0.00000000000E+00 0.  1.
         21    1    1    2  504  506 -0.83481331687E+02 -0.11352188845E+03 -0.54437993310E+03  0.56232185042E+03  0.00000000000E+00 0. -1.
         21    1    1    2  505  502  0.38301954717E+02  0.97932234662E+01 -0.17733145222E+03  0.18168486703E+03  0.00000000000E+00 0. -1.
         21    1    1    2  506  501 -0.53452982001E+02  0.21183865841E+02  0.12533706028E+03  0.13789617883E+03  0.00000000000E+00 0.  1.
<scales pt_clust_3="113.65630" pt_clust_4="14000.00000" pt_clust_5="39.53412" pt_clust_6="57.14243"></scales>
<clustering>
<clus scale="   39.534">  2  5  1 -1</clus>
<clus scale="   57.142">  1  6  2 -1</clus>
<clus scale="  113.656">  1  3  2 -1</clus>
<clus scale="   57.142">  1  3  2 -1</clus>
</clustering>
</event>
<event>
 6    0  0.3446372E+002  0.1734506E+03  0.7546771E-02  0.1174296E+00
         21   -1    0    0  504  501  0.00000000000E+00  0.00000000000E+00  0.19522500199E+03  0.19522500199E+03  0.00000000000E+00 0.  1.
         21   -1    0    0  505  502 -0.00000000000E+00 -0.00000000000E+00 -0.96538979448E+03  0.96538979448E+03  0.00000000000E+00 0. -1.
         21    1    1    2  503  502  0.29437184825E+02 -0.82820100000E+02 -0.60310713939E+03  0.60947841504E+03  0.00000000000E+00 0. -1.
         21    1    1    2  504  503  0.11033465121E+03 -0.58215683893E+02 -0.22082665564E+03  0.25362809968E+03  0.00000000000E+00 0. -1.
         21    1    1    2  505  506  0.19817512587E+02  0.49547653735E+02 -0.60719765759E+02  0.80836834114E+02  0.00000000000E+00 0.  1.
         21    1    1    2  506  501 -0.15958934862E+03  0.91488130158E+02  0.11448876830E+03  0.21667144763E+03  0.00000000000E+00 0.  1.
<scales pt_clust_3="65.28639" pt_clust_4="14000.00000" pt_clust_5="53.36388" pt_clust_6="173.45060"></scales>
<clustering>
<clus scale="   53.364">  2  5  1 -1</clus>
<clus scale="   65.286">  2  3  1 -1</clus>
<clus scale="  173.451">  1  6  2 -1</clus>
<clus scale="  173.451">  1  3  2 -1</clus>
</clustering>
</event>
<event>
 6    0  0.3446372E+002  0.1980303E+03  0.7546771E-02  0.1151412E+00
         21   -1    0    0  506  501  0.00000000000E+00  0.00000000000E+00  0.10113698163E+03  0.10113698163E+03  0.00000000000E+00 0. -1.
         21   -1    0    0  504  502 -0.00000000000E+00 -0.00000000000E+00 -0.16196180177E+04  0.16196180177E+04  0.00000000000E+00 0. -1.
         21    1    1    2  503  501  0.36697789711E+02 -0.41229446062E+02  0.57868865690E+02  0.79971248637E+02  0.00000000000E+00 0. -1.
         21    1    1    2  504  503  0.97040467886E+02  0.19795406545E+03 -0.74438649834E+03  0.77634652272E+03  0.00000000000E+00 0. -1.
         21    1    1    2  505  502 -0.32084975589E+02 -0.89750099852E+01 -0.32468940991E+03  0.32639425450E+03  0.00000000000E+00 0. -1.
         21    1    1    2  506  505 -0.10165328201E+03 -0.14774960940E+03 -0.50727399354E+03  0.53804297351E+03  0.00000000000E+00 0. -1.
<scales pt_clust_3="55.07164" pt_clust_4="198.03027" pt_clust_5="33.31661" pt_clust_6="14000.00000"></scales>
<clustering>
<clus scale="   33.317">  2  5  1 -1</clus>
<clus scale="   55.072">  1  3  2 -1</clus>
<clus scale="  198.030">  2  4  1 -1</clus>
<clus scale="   55.072">  1  3  2 -1</clus>
</clustering>
</event>
<event>
 6    0  0.3446372E+002  0.9941185E+02  0.7546771E-02  0.1281538E+00
         21   -1    0    0  506  501  0.00000000000E+00  0.00000000000E+00  0.45520883973E+03  0.45520883973E+03  0.00000000000E+00 0.  1.
         21   -1    0    0  503  502 -0.00000000000E+00 -0.00000000000E+00 -0.18812784417E+03  0.18812784417E+03  0.00000000000E+00 0.  1.
         21    1    1    2  503  505 -0.84758311177E+02  0.57174124129E+01 -0.54760170410E+02  0.10107094727E+03  0.00000000000E+00 0.  1.
         21    1    1    2  504  501  0.25720145155E+02  0.26330362826E+02  0.77730746995E+02  0.86005132996E+02  0.00000000000E+00 0. -1.
         21    1    1    2  505  504  0.77929254189E+02  0.89991678470E+02 -0.56131245876E+02  0.13161378201E+03  0.00000000000E+00 0.  1.
         21    1    1    2  506  502 -0.18891088167E+02 -0.12203945371E+03  0.30024166486E+03  0.32464682162E+03  0.00000000000E+00 0.  1.
<scales pt_clust_3="83.48730" pt_clust_4="36.80780" pt_clust_5="99.41185" pt_clust_6="14000.00000"></scales>
<clustering>
<clus scale="   36.808">  1  4  2 -1</clus>
<clus scale="   83.487">  2  3  1 -1</clus>
<clus scale="   99.412">  2  5  1 -1</clus>
<clus scale="   36.808">  1  3  2 -1</clus>
</clustering>
</event>
<event>
 6    0  0.3446372E+002  0.1816221E+03  0.7546771E-02  0.1166242E+00
         21   -1    0    0  504  501  0.00000000000E+00  0.00000000000E+00  0.22209542633E+03  0.22209542633E+03  0.00000000000E+00 0.  1.
         21   -1    0    0  503  502 -0.00000000000E+00 -0.00000000000E+00 -0.48382816332E+03  0.48382816332E+03  0.00000000000E+00 0. -1.
         21    1    1    2  503  505  0.16687020903E+03 -0.35754940845E+01 -0.26050794929E+03  0.30939108337E+03  0.00000000000E+00 0. -1.
         21    1    1    2  504  506 -0.13446642187E+03  0.24301189941E+02 -0.76004731239E+02  0.15636011516E+03  0.00000000000E+00 0.  1.
         21    1    1    2  505  501  0.11797969728E+02 -0.31157400315E+02  0.14926252130E+03  0.15293552873E+03  0.00000000000E+00 0.  1.
         21    1    1    2  506  502 -0.44201756892E+02  0.10431704458E+02 -0.74482577756E+02  0.87236862388E+02  0.00000000000E+00 0.  1.
<scales pt_clust_3="171.52911" pt_clust_4="34.93370" pt_clust_5="33.31630" pt_clust_6="34.93370"></scales>
<clustering>
<clus scale="   33.316">  1  5  2 -1</clus>
<clus scale="   34.934">  4  6 -1 -1</clus>
<clus scale="  171.529">  2  3  1 -1</clus>
<clus scale="   33.316">  1  3  2 -1</clus>
</clustering>
</event>
<event>
 6    0  0.3446372E+002  0.6753464E+03  0.7546771E-02  0.9760347E-01
         21   -1    0    0  503  501  0.00000000000E+00  0.00000000000E+00  0.19037191519E+04  0.19037191519E+04  0.00000000000E+00 0. -1.
         21   -1    0    0  504  502 -0.00000000000E+00 -0.00000000000E+00 -0.67750236589E+03  0.67750236589E+03  0.00000000000E+00 0.  1.
         21    1    1    2  503  502 -0.47009493779E+02 -0.82001312743E+02  0.11276034576E+04  0.11315580698E+04  0.00000000000E+00 0. -1.
         21    1    1    2  504  506 -0.98827268920E+02  0.67052446957E+03 -0.26112894365E+03  0.72633203054E+03  0.00000000000E+00 0.  1.
         21    1    1    2  505  501 -0.35802793289E+02 -0.10373154448E+03  0.58268703946E+02  0.12424699267E+03  0.00000000000E+00 0. -1.
         21    1    1    2  506  505  0.18163955599E+03 -0.48479161235E+03  0.30147356812E+03  0.59908442475E+03  0.00000000000E+00 0. -1.
<scales pt_clust_3="94.52041" pt_clust_4="655.68803" pt_clust_5="74.47382" pt_clust_6="74.47382"></scales>
<clustering>
<clus scale="   74.474">  5  6 -1 -1</clus>
<clus scale="   94.520">  1  3  2 -1</clus>
<clus scale="  655.688">  2  4  1 -1</clus>
<clus scale="   94.520">  1  3  2 -1</clus>
</clustering>
</event>
<event>
 6    0  0.3446372E+002  0.2620683E+03  0.7546771E-02  0.1105907E+00
         21   -1    0    0  504  501  0.00000000000E+00  0.00000000000E+00  0.42494094976E+03  0.42494094976E+03  0.00000000000E+00 0.  1.
         21   -1    0    0  503  502 -0.00000000000E+00 -0.00000000000E+00 -0.77732590944E+03  0.77732590944E+03  0.00000000000E+00 0. -1.
         21    1    1    2  503  506 -0.12842013128E+03  0.47468512980E+02 -0.27236562401E+03  0.30484097983E+03  0.00000000000E+00 0. -1.
         21    1    1    2  504  502  0.27733830467E+03 -0.98678797617E+02  0.30787420837E+03  0.42595841172E+03  0.00000000000E+00 0.  1.
         21    1    1    2  505  501 -0.36254216643E+02  0.37470932918E+02  0.13892881132E+02  0.53957864897E+02  0.00000000000E+00 0. -1.
         21    1    1    2  506  505 -0.11266395674E+03  0.13739351720E+02 -0.40178642517E+03  0.41750960275E+03  0.00000000000E+00 0. -1.
<scales pt_clust_3="66.92821" pt_clust_4="251.47237" pt_clust_5="52.13865" pt_clust_6="66.92821"></scales>
<clustering>
<clus scale="   52.139">  1  5  2 -1</clus>
<clus scale="   66.928">  3  6 -1 -1</clus>
<clus scale="  251.472">  1  4  2 -1</clus>
<clus scale="   52.139">  1  3  2 -1</clus>
</clustering>
</event>
<event>
 6    0  0.3446372E+002  0.1870360E+03  0.7546771E-02  0.1161162E+00
         21   -1    0    0  505  501  0.00000000000E+00  0.00000000000E+00  0.33153128194E+03  0.33153128194E+03  0.00000000000E+00 0.  1.
         21   -1    0    0  506  502 -0.00000000000E+00 -0.00000000000E+00 -0.99941773654E+03  0.99941773654E+03  0.00000000000E+00 0. -1.
         21    1    1    2  503  502  0.21579009622E+03  0.99079080890E+00 -0.58254680989E+03  0.62123033812E+03  0.00000000000E+00 0. -1.
         21    1    1    2  504  501  0.11236054663E+02 -0.36240274357E+02  0.26306566916E+03  0.26578779637E+03  0.00000000000E+00 0.  1.
         21    1    1    2  505  503 -0.18515724103E+03  0.13482037168E+02 -0.14623216473E+03  0.23632353931E+03  0.00000000000E+00 0. -1.
         21    1    1    2  506  504 -0.41868909846E+02  0.21767446380E+02 -0.20217314914E+03  0.20760734468E+03  0.00000000000E+00 0.  1.
<scales pt_clust_3="187.03599" pt_clust_4="37.94215" pt_clust_5="14000.00000" pt_clust_6="46.12167"></scales>
<clustering>
<clus scale="   37.942">  1  4  2 -1</clus>
<clus scale="   46.122">  2  6  1 -1</clus>
<clus scale="  187.036">  2  3  1 -1</clus>
<clus scale="   37.942">  1  3  2 -1</clus>
</clustering>
</event>
<event>
 6    0  0.3446372E+002  0.1194825E+03  0.7546771E-02  0.1243953E+00
         21   -1    0    0  503  501  0.00000000000E+00  0.00000000000E+00  0.75105431533E+03  0.75105431533E+03  0.00000000000E+00 0. -1.
         21   -1    0    0  506  502 -0.00000000000E+00 -0.00000000000E+00 -0.11805277835E+03  0.11805277835E+03  0.00000000000E+00 0. -1.
         21    1    1    2  503  505 -0.11195104587E+03  0.11300649203E+02  0.76431916591E+02  0.13602418615E+03  0.00000000000E+00 0. -1.
         21    1    1    2  504  501  0.11880113239E+03  0.27551916235E+02  0.60169110822E+03  0.61392589687E+03  0.00000000000E+00 0. -1.
         21    1    1    2  505  502 -0.39754525173E+02 -0.12736510444E+02 -0.61279919032E+02  0.74147619291E+02  0.00000000000E+00 0. -1.
         21    1    1    2  506  504  0.32904438656E+02 -0.26116054994E+02  0.16158431203E+02  0.45009391361E+02  0.00000000000E+00 0. -1.
<scales pt_clust_3="14000.00000" pt_clust_4="119.48246" pt_clust_5="41.74495" pt_clust_6="36.72575"></scales>
<clustering>
<clus scale="   41.745">  2  5  1 -1</clus>
<clus scale="   36.726">  2  6  1 -1</clus>
<clus scale="  119.482">  1  4  2 -1</clus>
<clus scale="  119.482">  1  3  2 -1</clus>
</clustering>
</event>
<event>
 6    0  0.3446372E+002  0.2381168E+03  0.7546771E-02  0.1121054E+00
         21   -1    0    0  506  501  0.00000000000E+00  0.00000000000E+00  0.15390625808E+04  0.15390625808E+04  0.00000000000E+00 0.  1.
         21   -1    0    0  505  502 -0.00000000000E+00 -0.00000000000E+00 -0.19609451837E+03  0.19609451837E+03  0.00000000000E+00 0.  1.
         21    1    1    2  503  502 -0.36847939785E+02  0.70204599545E+01  0.36536863266E+02  0.52364108908E+02  0.00000000000E+00 0.  1.
         21    1    1    2  504  501  0.48589942011E+02  0.61318641745E+02 -0.53908049403E+02  0.95010715609E+02  0.00000000000E+00 0.  1.
         21    1    1    2  505  504  0.41509996903E+02  0.15506632387E+03 -0.42669541666E+02  0.16610037455E+03  0.00000000000E+00 0.  1.
         21    1    1    2  506  503 -0.53251999129E+02 -0.22340542556E+03  0.14030087902E+04  0.14216819001E+04  0.00000000000E+00 0.  1.
<scales pt_clust_3="37.51077" pt_clust_4="42.07035" pt_clust_5="42.07035" pt_clust_6="229.75705"></scales>
<clustering>
<clus scale="   37.511">  2  3  1 -1</clus>
<clus scale="   42.070">  4  5 -1 -1</clus>
<clus scale="  229.757">  1  6  2 -1</clus>
<clus scale="  229.757">  1  3  2 -1</clus>
</clustering>
</event>
<event>
 6    0  0.3446372E+002  0.1138014E+03  0.7546771E-02  0.1253688E+00
         21   -1    0    0  505  501  0.00000000000E+00  0.00000000000E+00  0.13023486642E+04  0.13023486642E+04  0.00000000000E+00 0. -1.
         21   -1    0    0  504  502 -0.00000000000E+00 -0.00000000000E+00 -0.76281091050E+03  0.76281091050E+03  0.00000000000E+00 0. -1.
         21    1    1    2  503  501 -0.99467425483E+02  0.50960400950E+02  0.10197711313E+04  0.10258771327E+04  0.00000000000E+00 0. -1.
         21    1    1    2  504  506  0.79793845935E+01 -0.40485622729E+02 -0.43510633173E+03  0.43705866441E+03  0.00000000000E+00 0. -1.
         21    1    1    2  505  502  0.23839842243E+02  0.34919621447E+02  0.27176138815E+03  0.27503085305E+03  0.00000000000E+00 0.  1.
         21    1    1    2  506  503  0.67648198647E+02 -0.45394399668E+02 -0.31688843397E+03  0.32719292457E+03  0.00000000000E+00 0. -1.
<scales pt_clust_3="14000.00000" pt_clust_4="41.26447" pt_clust_5="42.13689" pt_clust_6="113.80136"></scales>
<clustering>
<clus scale="   41.264">  2  4  1 -1</clus>
<clus scale="   42.137">  1  5  2 -1</clus>
<clus scale="  113.801">  2  6  1 -1</clus>
<clus scale="   42.137">  1  3  2 -1</clus>
</clustering>
</event>
<event>
 6    0  0.3446372E+002  0.1699233E+03  0.7546771E-02  0.1177928E+00
         21   -1    0    0  503  501  0.00000000000E+00  0.00000000000E+00  0.23026917005E+04  0.23026917005E+04  0.00000000000E+00 0.  1.
         21   -1    0    0  506  502 -0.00000000000E+00 -0.00000000000E+00 -0.10475668602E+03  0.10475668602E+03  0.00000000000E+00 0.  1.
         21    1    1    2  503  504  0.48005940608E+02 -0.20811184888E+02  0.24585315765E+03  0.25135920687E+03  0.00000000000E+00 0.  1.
         21    1    1    2  504  502  0.55467210625E+02  0.19473932969E+03  0.37104084944E+02  0.20585609319E+03  0.00000000000E+00 0.  1.
         21    1    1    2  505  501 -0.27881321156E+02 -0.81373625417E+02  0.17158145751E+04  0.17179693510E+04  0.00000000000E+00 0.  1.
         21    1    1    2  506  505 -0.75591830077E+02 -0.92554519387E+02  0.19916319674E+03  0.23226373537E+03  0.00000000000E+00 0.  1.
<scales pt_clust_3="52.32280" pt_clust_4="14000.00000" pt_clust_5="99.52454" pt_clust_6="169.92326"></scales>
<clustering>
<clus scale="   52.323">  1  3  2 -1</clus>
<clus scale="   99.525">  1  5  2 -1</clus>
<clus scale="  169.923">  1  6  2 -1</clus>
<clus scale="   52.323">  1  3  2 -1</clus>
</clustering>
</event>
<event>
 6    0  0.3446372E+002  0.1347053E+03  0.7546771E-02  0.1220636E+00
         21   -1    0    0  504  501  0.00000000000E+00  0.00000000000E+00  0.16455626605E+04  0.16455626605E+04  0.00000000000E+00 0.  1.
         21   -1    0    0  506  502 -0.00000000000E+00 -0.00000000000E+00 -0.81985688602E+02  0.81985688602E+02  0.00000000000E+00 0.  1.
         21    1    1    2  503  501 -0.42624713946E+02  0.70962219144E+02  0.13552922498E+04  0.13578179499E+04  0.00000000000E+00 0.  1.
         21    1    1    2  504  502 -0.62890387423E+01 -0.17338962466E+03  0.16995496494E+03  0.24287487325E+03  0.00000000000E+00 0.  1.
         21    1    1    2  505  503  0.33242667819E+02  0.26190273669E+02  0.67203390519E+01  0.42850535068E+02  0.00000000000E+00 0.  1.
         21    1    1    2  506  505  0.15671084869E+02  0.76237131847E+02  0.31609418084E+02  0.84004990833E+02  0.00000000000E+00 0.  1.
<scales pt_clust_3="82.77985" pt_clust_4="128.08701" pt_clust_5="30.75215" pt_clust_6="30.75215"></scales>
<clustering>
<clus scale="   30.752">  5  6 -1 -1</clus>
<clus scale="   82.780">  1  3  2 -1</clus>
<clus scale="  128.087">  1  4  2 -1</clus>
<clus scale="   82.780">  1  3  2 -1</clus>
</clustering>
</event>
<event>
 6    0  0.3446372E+002  0.1895769E+03  0.7546771E-02  0.1158843E+00
         21   -1    0    0  504  501  0.00000000000E+00  0.00000000000E+00  0.37857739955E+03  0.37857739955E+03  0.00000000000E+00 0. -1.
         21   -1    0    0  503  502 -0.00000000000E+00 -0.00000000000E+00 -0.54878400884E+03  0.54878400884E+03  0.00000000000E+00 0. -1.
         21    1    1    2  503  506 -0.40530059688E+02 -0.11066742221E+03 -0.27562598499E+03  0.29976598819E+03  0.00000000000E+00 0. -1.
         21    1    1    2  504  502  0.63769811555E+02  0.18196530730E+03  0.18991749075E+03  0.27064111886E+03  0.00000000000E+00 0. -1.
         21    1    1    2  505  501  0.26520130157E+02 -0.22150665380E+02  0.12834488720E+03  0.13291493276E+03  0.00000000000E+00 0. -1.
         21    1    1    2  506  505 -0.49759882024E+02 -0.49147219705E+02 -0.21284300225E+03  0.22403936857E+03  0.00000000000E+00 0.  1.
<scales pt_clust_3="35.00515" pt_clust_4="184.01714" pt_clust_5="34.55386" pt_clust_6="35.00515"></scales>
<clustering>
<clus scale="   34.554">  1  5  2 -1</clus>
<clus scale="   35.005">  3  6 -1 -1</clus>
<clus scale="  184.017">  1  4  2 -1</clus>
<clus scale="   34.554">  1  3  2 -1</clus>
</clustering>
</event>
<event>
 6    0  0.3446372E+002  0.1082630E+03  0.7546771E-02  0.1263821E+00
         21   -1    0    0  504  501  0.00000000000E+00  0.00000000000E+00  0.61485748573E+03  0.61485748573E+03  0.00000000000E+00 0.  1.
         21   -1    0    0  503  502 -0.00000000000E+00 -0.00000000000E+00 -0.21744005030E+03  0.21744005030E+03  0.00000000000E+00 0.  1.
         21    1    1    2  503  506  0.66636675716E+02 -0.96681202477E+02  0.33123508081E+03  0.35143189983E+03  0.00000000000E+00 0.  1.
         21    1    1    2  504  505 -0.44117833123E+02  0.48233779210E+02 -0.98682386958E+02  0.11836846773E+03  0.00000000000E+00 0.  1.
         21    1    1    2  505  502 -0.40681381728E+02  0.54578914151E+01 -0.92361662733E+02  0.10107146056E+03  0.00000000000E+00 0.  1.
         21    1    1    2  506  501  0.18162539135E+02  0.42989531851E+02  0.25722640431E+03  0.26142570790E+03  0.00000000000E+00 0.  1.
<scales pt_clust_3="100.69020" pt_clust_4="31.52143" pt_clust_5="31.52143" pt_clust_6="46.66881"></scales>
<clustering>
<clus scale="   31.521">  4  5 -1 -1</clus>
<clus scale="   46.669">  1  6  2 -1</clus>
<clus scale="  100.690">  1  3  2 -1</clus>
<clus scale="   46.669">  1  3  2 -1</clus>
</clustering>
</event>
<event>
 6    0  0.3446372E+002  0.1849744E+03  0.7546771E-02  0.1163074E+00
         21   -1    0    0  504  501  0.00000000000E+00  0.00000000000E+00  0.82868815662E+02  0.82868815662E+02  0.00000000000E+00 0. -1.
         21   -1    0    0  506  502 -0.00000000000E+00 -0.00000000000E+00 -0.14519202394E+04  0.14519202394E+04  0.00000000000E+00 0. -1.
         21    1    1    2  503  501 -0.86860492525E+02  0.58518429587E+02 -0.94649883637E+03  0.95227579987E+03  0.00000000000E+00 0. -1.
         21    1    1    2  504  505 -0.29113279726E+02 -0.15926998474E+02 -0.50695602731E+01  0.33570117339E+02  0.00000000000E+00 0.  1.
         21    1    1    2  505  502  0.15462753330E+03 -0.10213912379E+03 -0.76227721126E+02  0.20038148650E+03  0.00000000000E+00 0. -1.
         21    1    1    2  506  503 -0.38653761048E+02  0.59547692674E+02 -0.34125530594E+03  0.34856165133E+03  0.00000000000E+00 0.  1.
<scales pt_clust_3="53.08441" pt_clust_4="33.18512" pt_clust_5="173.32522" pt_clust_6="53.08441"></scales>
<clustering>
<clus scale="   33.185">  1  4  2 -1</clus>
<clus scale="   53.084">  3  6 -1 -1</clus>
<clus scale="  173.325">  1  5  2 -1</clus>
<clus scale="   33.185">  1  3  2 -1</clus>
</clustering>
</event>
<event>
 6    0  0.3446372E+002  0.1059990E+03  0.7546771E-02  0.1268164E+00
         21   -1    0    0  504  501  0.00000000000E+00  0.00000000000E+00  0.24044357170E+04  0.24044357170E+04  0.00000000000E+00 0.  1.
         21   -1    0    0  506  502 -0.00000000000E+00 -0.00000000000E+00 -0.46026324797E+02  0.46026324797E+02  0.00000000000E+00 0.  1.
         21    1    1    2  503  505  0.88735905158E+02 -0.40255120741E+02  0.96032666351E+03  0.96525739378E+03  0.00000000000E+00 0.  1.
         21    1    1    2  504  503  0.19599026271E+02  0.33304895704E+02  0.13068934763E+04  0.13074646826E+04  0.00000000000E+00 0. -1.
         21    1    1    2  505  502 -0.11146794665E+02 -0.38822769139E+02  0.45940368146E+02  0.61171691658E+02  0.00000000000E+00 0. -1.
         21    1    1    2  506  501 -0.97188136764E+02  0.45772994176E+02  0.45248884307E+02  0.11656827379E+03  0.00000000000E+00 0.  1.
<scales pt_clust_3="105.99901" pt_clust_4="38.64373" pt_clust_5="38.56774" pt_clust_6="14000.00000"></scales>
<clustering>
<clus scale="   38.644">  1  4  2 -1</clus>
<clus scale="   38.568">  2  5  1 -1</clus>
<clus scale="  105.999">  1  3  2 -1</clus>
<clus scale="   38.644">  1  3  2 -1</clus>
</clustering>
</event>
<event>
 6    0  0.3446372E+002  0.1069822E+03  0.7546771E-02  0.1266263E+00
         21   -1    0    0  504  501  0.00000000000E+00  0.00000000000E+00  0.11629303087E+04  0.11629303087E+04  0.00000000000E+00 0. -1.
         21   -1    0    0  506  502 -0.00000000000E+00 -0.00000000000E+00 -0.39238587582E+02  0.39238587582E+02  0.00000000000E+00 0.  1.
         21    1    1    2  503  501 -0.10220825711E+03  0.10263148916E+02  0.85886183013E+03  0.86498294971E+03  0.00000000000E+00 0. -1.
         21    1    1    2  504  502  0.56400116454E+02  0.62828963888E+02  0.21007917529E+03  0.22641049386E+03  0.00000000000E+00 0. -1.
         21    1    1    2  505  503  0.42531522601E+02 -0.37170149597E+02  0.18007873040E+02  0.59286034842E+02  0.00000000000E+00 0.  1.
         21    1    1    2  506  505  0.32766180498E+01 -0.35921963207E+02  0.36742842695E+02  0.51489417901E+02  0.00000000000E+00 0.  1.
<scales pt_clust_3="98.04320" pt_clust_4="84.43016" pt_clust_5="34.21062" pt_clust_6="34.21062"></scales>
<clustering>
<clus scale="   34.211">  5  6 -1 -1</clus>
<clus scale="   84.430">  2  4  1 -1</clus>
<clus scale="   98.043">  1  3  2 -1</clus>
<clus scale="   98.043">  1  3  2 -1</clus>
</clustering>
</event>
<event>
 6    0  0.3446372E+002  0.9463597E+02  0.7546771E-02  0.1291998E+00
         21   -1    0    0  504  501  0.00000000000E+00  0.00000000000E+00  0.38791298659E+02  0.38791298659E+02  0.00000000000E+00 0. -1.
         21   -1    0    0  506  502 -0.00000000000E+00 -0.00000000000E+00 -0.13703576211E+04  0.13703576211E+04  0.00000000000E+00 0. -1.
         21    1    1    2  503  501 -0.64834194732E+02 -0.74166755498E+02 -0.47931850938E+02  0.10955200939E+03  0.00000000000E+00 0. -1.
         21    1    1    2  504  505  0.66770063753E+01  0.45660341884E+02 -0.16950714277E+03  0.17567618132E+03  0.00000000000E+00 0. -1.
         21    1    1    2  505  502 -0.34883268782E+02  0.22098766212E+02 -0.59882481394E+03  0.60024691228E+03  0.00000000000E+00 0. -1.
         21    1    1    2  506  503  0.93040457140E+02  0.64076474015E+01 -0.51530251478E+03  0.52367381675E+03  0.00000000000E+00 0. -1.
<scales pt_clust_3="14000.00000" pt_clust_4="50.62108" pt_clust_5="41.29404" pt_clust_6="94.63597"></scales>
<clustering>
<clus scale="   41.294">  2  5  1 -1</clus>
<clus scale="   50.621">  2  4  1 -1</clus>
<clus scale="   94.636">  2  6  1 -1</clus>
<clus scale="   94.636">  1  3  2 -1</clus>
</clustering>
</event>
<event>
 6    0  0.3446372E+002  0.2632210E+03  0.7546771E-02  0.1105223E+00
         21   -1    0    0  503  501  0.00000000000E+00  0.00000000000E+00  0.20131641946E+04  0.20131641946E+04  0.00000000000E+00 0.  1.
         21   -1    0    0  504  502 -0.00000000000E+00 -0.00000000000E+00 -0.16751464604E+03  0.16751464604E+03  0.00000000000E+00 0.  1.
         21    1    1    2  503  505  0.58775708241E+02 -0.94173609392E+02  0.11306101501E+04  0.11360469022E+04  0.00000000000E+00 0.  1.
         21    1    1    2  504  501 -0.27472700540E+02  0.69970736363E+02  0.72576065529E+02  0.10448893965E+03  0.00000000000E+00 0.  1.
         21    1    1    2  505  506  0.58885045169E+02 -0.12935701868E+03  0.72859045259E+03  0.74232387435E+03  0.00000000000E+00 0.  1.
         21    1    1    2  506  502 -0.90188052870E+02  0.15355989171E+03 -0.86127119675E+02  0.19781912437E+03  0.00000000000E+00 0.  1.
<scales pt_clust_3="78.73107" pt_clust_4="75.17083" pt_clust_5="78.73107" pt_clust_6="247.88182"></scales>
<clustering>
<clus scale="   75.171">  2  4  1 -1</clus>
<clus scale="   78.731">  3  5 -1 -1</clus>
<clus scale="  247.882">  2  6  1 -1</clus>
<clus scale="  263.221">  1  3  2 -1</clus>
</clustering>
</event>
<event>
 6    0  0.3446372E+002  0.7351047E+02  0.7546771E-02  0.1348547E+00
         21   -1    0    0  505  501  0.00000000000E+00  0.00000000000E+00  0.25992505274E+03  0.25992505274E+03  0.00000000000E+00 0. -1.
         21   -1    0    0  504  502 -0.00000000000E+00 -0.00000000000E+00 -0.21173814519E+04  0.21173814519E+04  0.00000000000E+00 0. -1.
         21    1    1    2  503  506 -0.80730332577E+02  0.31348998058E+02 -0.87069889752E+03  0.87499526651E+03  0.00000000000E+00 0. -1.
         21    1    1    2  504  501  0.36357242963E+02  0.39086115761E+02  0.24880268883E+03  0.25446483358E+03  0.00000000000E+00 0. -1.
         21    1    1    2  505  503 -0.23774458568E+02 -0.87641006083E+02 -0.44518126985E+03  0.45434847183E+03  0.00000000000E+00 0. -1.
         21    1    1    2  506  502  0.68147548183E+02  0.17205892264E+02 -0.79037892058E+03  0.79349793266E+03  0.00000000000E+00 0. -1.
<scales pt_clust_3="14000.00000" pt_clust_4="53.38140" pt_clust_5="66.13558" pt_clust_6="73.51047"></scales>
<clustering>
<clus scale="   53.381">  1  4  2 -1</clus>
<clus scale="   66.136">  1  5  2 -1</clus>
<clus scale="   73.510">  2  6  1 -1</clus>
<clus scale="   53.381">  1  3  2 -1</clus>
</clustering>
</event>
<event>
 6    0  0.3446372E+002  0.1190366E+03  0.7546771E-02  0.1244695E+00
         21   -1    0    0  505  501  0.00000000000E+00  0.00000000000E+00  0.12130458520E+03  0.12130458520E+03  0.00000000000E+00 0.  1.
         21   -1    0    0  503  502 -0.00000000000E+00 -0.00000000000E+00 -0.46678088273E+03  0.46678088273E+03  0.00000000000E+00 0.  1.
         21    1    1    2  503  501 -0.21366815035E+02  0.78519566762E+02 -0.20688213707E+03  0.22231077748E+03  0.00000000000E+00 0.  1.
         21    1    1    2  504  506  0.14799501980E+03 -0.64827560513E+02 -0.31640743680E+02  0.16463983463E+03  0.00000000000E+00 0.  1.
         21    1    1    2  505  504 -0.35706043967E+02  0.53996064069E+01  0.21935582669E+02  0.42252184703E+02  0.00000000000E+00 0.  1.
         21    1    1    2  506  502 -0.90922160793E+02 -0.19091612656E+02 -0.12888899945E+03  0.15888267110E+03  0.00000000000E+00 0.  1.
<scales pt_clust_3="82.68545" pt_clust_4="14000.00000" pt_clust_5="36.11201" pt_clust_6="119.03659"></scales>
<clustering>
<clus scale="   36.112">  1  5  2 -1</clus>
<clus scale="   82.685">  2  3  1 -1</clus>
<clus scale="  119.037">  2  6  1 -1</clus>
<clus scale="   36.112">  1  3  2 -1</clus>
</clustering>
</event>
<event>
 6    0  0.3446372E+002  0.9383662E+02  0.7546771E-02  0.1293818E+00
         21   -1    0    0  504  501  0.00000000000E+00  0.00000000000E+00  0.23855126633E+04  0.23855126633E+04  0.00000000000E+00 0.  1.
         21   -1    0    0  503  502 -0.00000000000E+00 -0.00000000000E+00 -0.25478581649E+02  0.25478581649E+02  0.00000000000E+00 0. -1.
         21    1    1    2  503  501  0.94615090003E+02  0.25185770139E+02  0.10258058413E+03  0.14180660956E+03  0.00000000000E+00 0. -1.
         21    1    1    2  504  505  0.96469473488E+00 -0.37306680417E+02  0.47613024096E+03  0.47759054157E+03  0.00000000000E+00 0.  1.
         21    1    1    2  505  506 -0.22211628976E+02  0.50905814352E+02  0.14107100419E+04  0.14118029539E+04  0.00000000000E+00 0.  1.
         21    1    1    2  506  502 -0.73368155761E+02 -0.38784904075E+02  0.37061321471E+03  0.37979113995E+03  0.00000000000E+00 0.  1.
<scales pt_clust_3="93.83662" pt_clust_4="37.31915" pt_clust_5="31.71845" pt_clust_6="14000.00000"></scales>
<clustering>
<clus scale="   37.319">  1  4  2 -1</clus>
<clus scale="   31.718">  1  5  2 -1</clus>
<clus scale="   93.837">  2  3  1 -1</clus>
<clus scale="   37.319">  1  3  2 -1</clus>
</clustering>
</event>
<event>
 6    0  0.3446372E+002  0.1176376E+03  0.7546771E-02  0.1247046E+00
         21   -1    0    0  504  501  0.00000000000E+00  0.00000000000E+00  0.92069762107E+03  0.92069762107E+03  0.00000000000E+00 0.  1.
         21   -1    0    0  503  502 -0.00000000000E+00 -0.00000000000E+00 -0.11437607124E+03  0.11437607124E+03  0.00000000000E+00 0. -1.
         21    1    1    2  503  505  0.60467677077E+02  0.10117749409E+02  0.20478367761E+02  0.64638010260E+02  0.00000000000E+00 0.  1.
         21    1    1    2  504  502  0.34131004071E+02  0.77059538451E+02 -0.63200317043E+02  0.10534409323E+03  0.00000000000E+00 0. -1.
         21    1    1    2  505  506 -0.95693240109E+02 -0.35424979436E+02  0.38958889804E+03  0.40273022589E+03  0.00000000000E+00 0.  1.
         21    1    1    2  506  501  0.10945589611E+01 -0.51752308424E+02  0.45945460107E+03  0.46236136293E+03  0.00000000000E+00 0.  1.
<scales pt_clust_3="60.80284" pt_clust_4="14000.00000" pt_clust_5="117.63762" pt_clust_6="51.76388"></scales>
<clustering>
<clus scale="   51.764">  1  6  2 -1</clus>
<clus scale="   60.803">  2  3  1 -1</clus>
<clus scale="  117.638">  1  5  2 -1</clus>
<clus scale="   51.764">  1  3  2 -1</clus>
</clustering>
</event>
<event>
 6    0  0.3446372E+002  0.1413038E+03  0.7546771E-02  0.1211585E+00
         21   -1    0    0  505  501  0.00000000000E+00  0.00000000000E+00  0.52344087550E+02  0.52344087550E+02  0.00000000000E+00 0.  1.
         21   -1    0    0  503  502 -0.00000000000E+00 -0.00000000000E+00 -0.14799047260E+04  0.14799047260E+04  0.00000000000E+00 0.  1.
         21    1    1    2  503  504 -0.33360792702E+02  0.78106450407E+02 -0.29260290051E+03  0.30468018884E+03  0.00000000000E+00 0.  1.
         21    1    1    2  504  501  0.16492537998E+03  0.41211591426E+02 -0.28085032781E+03  0.32829206945E+03  0.00000000000E+00 0.  1.
         21    1    1    2  505  506 -0.42630790843E+02  0.12790644155E+01 -0.12514341962E+02  0.44448049320E+02  0.00000000000E+00 0. -1.
         21    1    1    2  506  502 -0.88933796439E+02 -0.12059710625E+03 -0.84159306815E+03  0.85482850592E+03  0.00000000000E+00 0.  1.
<scales pt_clust_3="88.14207" pt_clust_4="141.30383" pt_clust_5="42.64997" pt_clust_6="14000.00000"></scales>
<clustering>
<clus scale="   42.650">  1  5  2 -1</clus>
<clus scale="   88.142">  2  3  1 -1</clus>
<clus scale="  141.304">  1  4  2 -1</clus>
<clus scale="   42.650">  1  3  2 -1</clus>
</clustering>
</event>
<event>
 6    0  0.3446372E+002  0.6509447E+02  0.7546771E-02  0.1377617E+00
         21   -1    0    0  504  501  0.00000000000E+00  0.00000000000E+00  0.26723994638E+03  0.26723994638E+03  0.00000000000E+00 0. -1.
         21   -1    0    0  506  502 -0.00000000000E+00 -0.00000000000E+00 -0.24787315592E+03  0.24787315592E+03  0.00000000000E+00 0. -1.
         21    1    1    2  503  505  0.41896934061E+02  0.37766486327E+02 -0.61014123736E+02  0.83092622227E+02  0.00000000000E+00 0. -1.
         21    1    1    2  504  503 -0.20251514885E+02 -0.11411817219E+03  0.16314527740E+03  0.20012361834E+03  0.00000000000E+00 0. -1.
         21    1    1    2  505  502 -0.30909885175E+02  0.26390448786E+02 -0.14555432852E+03  0.15112226620E+03  0.00000000000E+00 0. -1.
         21    1    1    2  506  501  0.92644659986E+01  0.49961237080E+02  0.62789965319E+02  0.80774595546E+02  0.00000000000E+00 0. -1.
<scales pt_clust_3="14000.00000" pt_clust_4="65.09447" pt_clust_5="40.64329" pt_clust_6="52.74402"></scales>
<clustering>
<clus scale="   40.643">  2  5  1 -1</clus>
<clus scale="   52.744">  1  6  2 -1</clus>
<clus scale="   65.094">  1  4  2 -1</clus>
<clus scale="   52.744">  1  3  2 -1</clus>
</clustering>
</event>
<event>
 6    0  0.3446372E+002  0.1253720E+03  0.7546771E-02  0.1234489E+00
         21   -1    0    0  506  501  0.00000000000E+00  0.00000000000E+00  0.13534195440E+03  0.13534195440E+03  0.00000000000E+00 0.  1.
         21   -1    0    0  505  502 -0.00000000000E+00 -0.00000000000E+00 -0.39085895988E+03  0.39085895988E+03  0.00000000000E+00 0.  1.
         21    1    1    2  503  504 -0.48844974189E+02 -0.42753755773E+02 -0.74321881807E+02  0.98678555176E+02  0.00000000000E+00 0.  1.
         21    1    1    2  504  502 -0.23692325055E+02 -0.48451953015E+02 -0.13696705552E+03  0.14720357440E+03  0.00000000000E+00 0.  1.
         21    1    1    2  505  501  0.41113513395E+02  0.11161948668E+03 -0.13630454406E+03  0.18090925770E+03  0.00000000000E+00 0.  1.
         21    1    1    2  506  503  0.31423785849E+02 -0.20413777888E+02  0.92076475908E+02  0.99409527010E+02  0.00000000000E+00 0.  1.
<scales pt_clust_3="44.14617" pt_clust_4="44.14617" pt_clust_5="116.11753" pt_clust_6="37.47235"></scales>
<clustering>
<clus scale="   37.472">  1  6  2 -1</clus>
<clus scale="   44.146">  3  4 -1 -1</clus>
<clus scale="  116.118">  1  5  2 -1</clus>
<clus scale="   37.472">  1  3  2 -1</clus>
</clustering>
</event>
<event>
 6    0  0.3446372E+002  0.1205059E+03  0.7546771E-02  0.1242265E+00
         21   -1    0    0  505  501  0.00000000000E+00  0.00000000000E+00  0.73386086941E+03  0.73386086941E+03  0.00000000000E+00 0. -1.
         21   -1    0    0  503  502 -0.00000000000E+00 -0.00000000000E+00 -0.64770047395E+03  0.64770047395E+03  0.00000000000E+00 0.  1.
         21    1    1    2  503  506  0.18318316652E+02 -0.31614554772E+02 -0.15620449640E+02  0.39737126788E+02  0.00000000000E+00 0. -1.
         21    1    1    2  504  502 -0.65360153048E+02 -0.79255730355E+02 -0.59257975671E+03  0.60141848031E+03  0.00000000000E+00 0.  1.
         21    1    1    2  505  504  0.91157636345E+02  0.10322649213E+03  0.19325240662E+03  0.23730131902E+03  0.00000000000E+00 0. -1.
         21    1    1    2  506  501 -0.44115799949E+02  0.76437929950E+01  0.50110819518E+03  0.50310441725E+03  0.00000000000E+00 0. -1.
<scales pt_clust_3="36.53821" pt_clust_4="120.50585" pt_clust_5="14000.00000" pt_clust_6="44.73539"></scales>
<clustering>
<clus scale="   36.538">  2  3  1 -1</clus>
<clus scale="   44.735">  1  6  2 -1</clus>
<clus scale="  120.506">  2  4  1 -1</clus>
<clus scale="   44.735">  1  3  2 -1</clus>
</clustering>
</event>
<event>
 6    0  0.3446372E+002  0.1740384E+03  0.7546771E-02  0.1173701E+00
         21   -1    0    0  503  501  0.00000000000E+00  0.00000000000E+00  0.15058888287E+04  0.15058888287E+04  0.00000000000E+00 0.  1.
         21   -1    0    0  504  502 -0.00000000000E+00 -0.00000000000E+00 -0.50157413603E+02  0.50157413603E+02  0.00000000000E+00 0.  1.
         21    1    1    2  503  505 -0.13792875372E+03 -0.13132735354E+02  0.43515402857E+03  0.45667914166E+03  0.00000000000E+00 0.  1.
         21    1    1    2  504  501  0.13612928856E+03 -0.15506928181E+03  0.74982754908E+03  0.77770111144E+03  0.00000000000E+00 0.  1.
         21    1    1    2  505  506 -0.82563960713E+01  0.11153553999E+03  0.21037021503E+03  0.23825190897E+03  0.00000000000E+00 0.  1.
         21    1    1    2  506  502  0.10055861231E+02  0.56666477172E+02  0.60379622433E+02  0.83414080259E+02  0.00000000000E+00 0.  1.
<scales pt_clust_3="138.55255" pt_clust_4="168.58520" pt_clust_5="31.00715" pt_clust_6="31.00715"></scales>
<clustering>
<clus scale="   31.007">  5  6 -1 -1</clus>
<clus scale="  138.553">  1  3  2 -1</clus>
<clus scale="  168.585">  1  4  2 -1</clus>
<clus scale="  138.553">  1  3  2 -1</clus>
</clustering>
</event>
<event>
 6    0  0.3446372E+002  0.2238505E+03  0.7546771E-02  0.1131044E+00
         21   -1    0    0  503  501  0.00000000000E+00  0.00000000000E+00  0.10060808892E+04  0.10060808892E+04  0.00000000000E+00 0. -1.
         21   -1    0    0  505  502 -0.00000000000E+00 -0.00000000000E+00 -0.19365251808E+03  0.19365251808E+03  0.00000000000E+00 0. -1.
         21    1    1    2  503  504  0.19658721394E+03  0.18061860943E+03  0.55194678987E+03  0.61311897182E+03  0.00000000000E+00 0. -1.
         21    1    1    2  504  502 -0.51868585813E+01 -0.92949213961E+02  0.25356615782E+02  0.96485324489E+02  0.00000000000E+00 0. -1.
         21    1    1    2  505  506 -0.15010386647E+03 -0.76129245255E+02 -0.69798926934E+02  0.18220516709E+03  0.00000000000E+00 0. -1.
         21    1    1    2  506  501 -0.41296488895E+02 -0.11540150212E+02  0.30492389245E+03  0.30792394393E+03  0.00000000000E+00 0. -1.
<scales pt_clust_3="223.85048" pt_clust_4="94.36365" pt_clust_5="14000.00000" pt_clust_6="42.87861"></scales>
<clustering>
<clus scale="   42.879">  1  6  2 -1</clus>
<clus scale="   94.364">  2  4  1 -1</clus>
<clus scale="  223.850">  1  3  2 -1</clus>
<clus scale="   42.879">  1  3  2 -1</clus>
</clustering>
</event>
<event>
 6    0  0.3446372E+002  0.1144091E+03  0.7546771E-02  0.1252616E+00
         21   -1    0    0  504  501  0.00000000000E+00  0.00000000000E+00  0.12764602801E+04  0.12764602801E+04  0.00000000000E+00 0. -1.
         21   -1    0    0  503  502 -0.00000000000E+00 -0.00000000000E+00 -0.24927176916E+03  0.24927176916E+03  0.00000000000E+00 0. -1.
         21    1    1    2  503  505  0.42401479157E+02 -0.78585216203E+02 -0.16998409830E+03  0.19201071666E+03  0.00000000000E+00 0. -1.
         21    1    1    2  504  506  0.87514331223E+01  0.79293933453E+02 -0.13960485723E+02  0.80987718981E+02  0.00000000000E+00 0. -1.
         21    1    1    2  505  501 -0.11354409234E+03  0.20202421872E+02  0.11688313738E+04  0.11745072069E+04  0.00000000000E+00 0. -1.
         21    1    1    2  506  502  0.62391180059E+02 -0.20911139122E+02  0.42301721162E+02  0.78226406678E+02  0.00000000000E+00 0. -1.
<scales pt_clust_3="114.40906" pt_clust_4="78.03849" pt_clust_5="14000.00000" pt_clust_6="65.80224"></scales>
<clustering>
<clus scale="   65.802">  2  6  1 -1</clus>
<clus scale="   78.038">  2  4  1 -1</clus>
<clus scale="  114.409">  2  3  1 -1</clus>
<clus scale="  114.409">  1  3  2 -1</clus>
</clustering>
</event>
<event>
 6    0  0.3446372E+002  0.8450428E+02  0.7546771E-02  0.1316734E+00
         21   -1    0    0  503  501  0.00000000000E+00  0.00000000000E+00  0.74567743738E+03  0.74567743738E+03  0.00000000000E+00 0. -1.
         21   -1    0    0  504  502 -0.00000000000E+00 -0.00000000000E+00 -0.14100320727E+03  0.14100320727E+03  0.00000000000E+00 0. -1.
         21    1    1    2  503  506 -0.71096339602E+01 -0.76196897281E+02  0.59398305576E+03  0.59889263193E+03  0.00000000000E+00 0. -1.
         21    1    1    2  504  501 -0.98663319234E+02  0.63429507721E+02  0.75411137673E+02  0.13944386934E+03  0.00000000000E+00 0. -1.
         21    1    1    2  505  502  0.47230410058E+02  0.27984248174E+02 -0.68445374915E+02  0.87741661298E+02  0.00000000000E+00 0. -1.
         21    1    1    2  506  505  0.58542543136E+02 -0.15216858615E+02  0.37254115966E+01  0.60602482082E+02  0.00000000000E+00 0. -1.
<scales pt_clust_3="75.28936" pt_clust_4="14000.00000" pt_clust_5="54.89836" pt_clust_6="84.50428"></scales>
<clustering>
<clus scale="   54.898">  2  5  1 -1</clus>
<clus scale="   75.289">  1  3  2 -1</clus>
<clus scale="   84.504">  2  6  1 -1</clus>
<clus scale="   75.289">  1  3  2 -1</clus>
</clustering>
</event>
<event>
 6    0  0.3446372E+002  0.1196135E+03  0.7546771E-02  0.1243736E+00
         21   -1    0    0  505  501  0.00000000000E+00  0.00000000000E+00  0.53842075078E+03  0.53842075078E+03  0.00000000000E+00 0. -1.
         21   -1    0    0  503  502 -0.00000000000E+00 -0.00000000000E+00 -0.47688209262E+03  0.47688209262E+03  0.00000000000E+00 0. -1.
         21    1    1    2  503  504 -0.79025888130E+02 -0.92757854080E+02 -0.41132339705E+03  0.42899422776E+03  0.00000000000E+00 0. -1.
         21    1    1    2  504  506  0.62733639407E+02  0.82312906254E+02  0.22202859330E+02  0.10584843415E+03  0.00000000000E+00 0. -1.
         21    1    1    2  505  502  0.58407242642E+02 -0.56924872943E+02  0.16649465215E+03  0.18539772476E+03  0.00000000000E+00 0.  1.
         21    1    1    2  506  501 -0.42114993920E+02  0.67369820770E+02  0.28416454373E+03  0.29506245673E+03  0.00000000000E+00 0. -1.
<scales pt_clust_3="119.61349" pt_clust_4="14000.00000" pt_clust_5="30.09308" pt_clust_6="79.45040"></scales>
<clustering>
<clus scale="   79.450">  1  6  2 -1</clus>
<clus scale="   30.093">  1  5  2 -1</clus>
<clus scale="  119.613">  2  3  1 -1</clus>
<clus scale="   79.450">  1  3  2 -1</clus>
</clustering>
</event>
<event>
 6    0  0.3446372E+002  0.8000957E+02  0.7546771E-02  0.1329024E+00
         21   -1    0    0  505  501  0.00000000000E+00  0.00000000000E+00  0.86701003013E+03  0.86701003013E+03  0.00000000000E+00 0.  1.
         21   -1    0    0  503  502 -0.00000000000E+00 -0.00000000000E+00 -0.18975310280E+03  0.18975310280E+03  0.00000000000E+00 0.  1.
         21    1    1    2  503  506 -0.10886881091E+02  0.62073732405E+02 -0.67066198822E+02  0.92030144295E+02  0.00000000000E+00 0.  1.
         21    1    1    2  504  502  0.31152299623E+02  0.15756160156E+02 -0.99120706952E+02  0.10508870968E+03  0.00000000000E+00 0.  1.
         21    1    1    2  505  504 -0.31813799438E+01  0.43477670999E+02  0.22464752617E+03  0.22883823996E+03  0.00000000000E+00 0. -1.
         21    1    1    2  506  501 -0.17084038588E+02 -0.12130756356E+03  0.61879630694E+03  0.63080603900E+03  0.00000000000E+00 0.  1.
<scales pt_clust_3="80.00957" pt_clust_4="34.91020" pt_clust_5="43.92198" pt_clust_6="14000.00000"></scales>
<clustering>
<clus scale="   34.910">  2  4  1 -1</clus>
<clus scale="   43.922">  1  5  2 -1</clus>
<clus scale="   80.010">  2  3  1 -1</clus>
<clus scale="   43.922">  1  3  2 -1</clus>
</clustering>
</event>
<event>
 6    0  0.3446372E+002  0.1551907E+03  0.7546771E-02  0.1194236E+00
         21   -1    0    0  505  501  0.00000000000E+00  0.00000000000E+00  0.20314648842E+03  0.20314648842E+03  0.00000000000E+00 0. -1.
         21   -1    0    0  506  502 -0.00000000000E+00 -0.00000000000E+00 -0.95657275727E+03  0.95657275727E+03  0.00000000000E+00 0. -1.
         21    1    1    2  503  502 -0.21773732680E+02  0.11153580689E+03 -0.74556747786E+03  0.75417849061E+03  0.00000000000E+00 0. -1.
         21    1    1    2  504  501  0.44364344761E+02 -0.47747958572E+02  0.15187822567E+03  0.16527267792E+03  0.00000000000E+00 0. -1.
         21    1    1    2  505  503 -0.19149269688E+02  0.37335917116E+02 -0.12726342591E+03  0.13400240599E+03  0.00000000000E+00 0. -1.
         21    1    1    2  506  504 -0.34413423929E+01 -0.10112376543E+03 -0.32473590749E+02  0.10626567117E+03  0.00000000000E+00 0. -1.
<scales pt_clust_3="34.34165" pt_clust_4="65.17716" pt_clust_5="34.34165" pt_clust_6="144.53418"></scales>
<clustering>
<clus scale="   34.342">  3  5 -1 -1</clus>
<clus scale="   65.177">  1  4  2 -1</clus>
<clus scale="  144.534">  1  6  2 -1</clus>
<clus scale="   65.177">  1  3  2 -1</clus>
</clustering>
</event>
<event>
 6    0  0.3446372E+002  0.1360813E+03  0.7546771E-02  0.1218701E+00
         21   -1    0    0  506  501  0.00000000000E+00  0.00000000000E+00  0.10122362689E+04  0.10122362689E+04  0.00000000000E+00 0.  1.
         21   -1    0    0  505  502 -0.00000000000E+00 -0.00000000000E+00 -0.64626178581E+03  0.64626178581E+03  0.00000000000E+00 0. -1.
         21    1    1    2  503  504 -0.65051725672E+02 -0.52914641682E+02  0.46695765236E+03  0.47442716556E+03  0.00000000000E+00 0.  1.
         21    1    1    2  504  502  0.85383679987E+02  0.42820606272E+02 -0.59887928273E+03  0.60644898583E+03  0.00000000000E+00 0. -1.
         21    1    1    2  505  501 -0.21741590507E+00  0.49753090892E+02 -0.23013107324E+02  0.54818066654E+02  0.00000000000E+00 0.  1.
         21    1    1    2  506  503 -0.20114538410E+02 -0.39659055482E+02  0.52090922077E+03  0.52280383666E+03  0.00000000000E+00 0.  1.
<scales pt_clust_3="38.29569" pt_clust_4="125.50937" pt_clust_5="49.75357" pt_clust_6="38.29569"></scales>
<clustering>
<clus scale="   38.296">  3  6 -1 -1</clus>
<clus scale="   49.754">  2  5  1 -1</clus>
<clus scale="  125.509">  2  4  1 -1</clus>
<clus scale="  136.081">  1  3  2 -1</clus>
</clustering>
</event>
<event>
 6    0  0.3446372E+002  0.1274644E+03  0.7546771E-02  0.1231267E+00
         21   -1    0    0  506  501  0.00000000000E+00  0.00000000000E+00  0.28091108946E+04  0.28091108946E+04  0.00000000000E+00 0. -1.
         21   -1    0    0  503  502 -0.00000000000E+00 -0.00000000000E+00 -0.41390656906E+03  0.41390656906E+03  0.00000000000E+00 0. -1.
         21    1    1    2  503  505 -0.12446911327E+03  0.10215016650E+03  0.30943777081E+03  0.34882510041E+03  0.00000000000E+00 0. -1.
         21    1    1    2  504  502  0.11058028718E+02 -0.80560484190E+02 -0.22854533345E+03  0.24258038061E+03  0.00000000000E+00 0. -1.
         21    1    1    2  505  501  0.73826998939E+02 -0.94962322240E+00  0.24692587574E+04  0.24703623496E+04  0.00000000000E+00 0. -1.
         21    1    1    2  506  504  0.39584085613E+02 -0.20640059084E+02 -0.15494686920E+03  0.16124963301E+03  0.00000000000E+00 0. -1.
<scales pt_clust_3="114.19691" pt_clust_4="41.95485" pt_clust_5="73.83311" pt_clust_6="41.95485"></scales>
<clustering>
<clus scale="   41.955">  4  6 -1 -1</clus>
<clus scale="   73.833">  1  5  2 -1</clus>
<clus scale="  114.197">  1  3  2 -1</clus>
<clus scale="   73.833">  1  3  2 -1</clus>
</clustering>
</event>
<event>
 6    0  0.3446372E+002  0.1221242E+03  0.7546771E-02  0.1239633E+00
         21   -1    0    0  503  501  0.00000000000E+00  0.00000000000E+00  0.85208068260E+03  0.85208068260E+03  0.00000000000E+00 0. -1.
         21   -1    0    0  505  502 -0.00000000000E+00 -0.00000000000E+00 -0.45927587052E+03  0.45927587052E+03  0.00000000000E+00 0.  1.
         21    1    1    2  503  502  0.51495279806E+01  0.46416937369E+02 -0.31180686269E+03  0.31528490185E+03  0.00000000000E+00 0.  1.
         21    1    1    2  504  506  0.90934303099E+02 -0.40317202997E+02  0.34243421912E+01  0.99530148483E+02  0.00000000000E+00 0. -1.
         21    1    1    2  505  504  0.28761602142E+02  0.97346028713E+01 -0.90219132461E+02  0.95191827973E+02  0.00000000000E+00 0. -1.
         21    1    1    2  506  501 -0.12484543322E+03 -0.15834337243E+02  0.79140646504E+03  0.80134967482E+03  0.00000000000E+00 0. -1.
<scales pt_clust_3="62.30530" pt_clust_4="14000.00000" pt_clust_5="30.36433" pt_clust_6="122.12415"></scales>
<clustering>
<clus scale="   30.364">  2  5  1 -1</clus>
<clus scale="   62.305">  2  3  1 -1</clus>
<clus scale="  122.124">  1  6  2 -1</clus>
<clus scale="  122.124">  1  3  2 -1</clus>
</clustering>
</event>
<event>
 6    0  0.3446372E+002  0.1401624E+03  0.7546771E-02  0.1213111E+00
         21   -1    0    0  503  501  0.00000000000E+00  0.00000000000E+00  0.62616265648E+03  0.62616265648E+03  0.00000000000E+00 0. -1.
         21   -1    0    0  506  502 -0.00000000000E+00 -0.00000000000E+00 -0.35556629541E+03  0.35556629541E+03  0.00000000000E+00 0. -1.
         21    1    1    2  503  504  0.74471163290E+02  0.75357492819E+02 -0.12987899209E+03  0.16761043665E+03  0.00000000000E+00 0. -1.
         21    1    1    2  504  502  0.42833558304E+02 -0.14588689172E+02 -0.18004046593E+03  0.18563973966E+03  0.00000000000E+00 0. -1.
         21    1    1    2  505  501 -0.10711891500E+03 -0.93467194557E+02  0.57676330794E+03  0.59402566594E+03  0.00000000000E+00 0. -1.
         21    1    1    2  506  505 -0.10185806594E+02  0.32698390910E+02  0.37525111453E+01  0.34453109641E+02  0.00000000000E+00 0. -1.
<scales pt_clust_3="14000.00000" pt_clust_4="37.47846" pt_clust_5="140.16241" pt_clust_6="34.24814"></scales>
<clustering>
<clus scale="   34.248">  2  6  1 -1</clus>
<clus scale="   37.478">  2  4  1 -1</clus>
<clus scale="  140.162">  1  5  2 -1</clus>
<clus scale="  140.162">  1  3  2 -1</clus>
</clustering>
</event>
<event>
 6    0  0.3446372E+002  0.1200649E+03  0.7546771E-02  0.1242990E+00
         21   -1    0    0  503  501  0.00000000000E+00  0.00000000000E+00  0.64179773600E+02  0.64179773600E+02  0.00000000000E+00 0.  1.
         21   -1    0    0  505  502 -0.00000000000E+00 -0.00000000000E+00 -0.95328201195E+03  0.95328201195E+03  0.00000000000E+00 0.  1.
         21    1    1    2  503  506 -0.88236432735E+02 -0.10751969983E+03 -0.37646768892E+02  0.14409522241E+03  0.00000000000E+00 0.  1.
         21    1    1    2  504  502  0.30875501530E+02  0.28585190638E+02 -0.42899338688E+03  0.43105189445E+03  0.00000000000E+00 0.  1.
         21    1    1    2  505  501 -0.98464364743E+01  0.31660784619E+02 -0.23904369690E+03  0.24133223287E+03  0.00000000000E+00 0. -1.
         21    1    1    2  506  504  0.67207367679E+02  0.47273724573E+02 -0.18341838569E+03  0.20098243583E+03  0.00000000000E+00 0.  1.
<scales pt_clust_3="14000.00000" pt_clust_4="53.80582" pt_clust_5="33.15656" pt_clust_6="120.06488"></scales>
<clustering>
<clus scale="   33.157">  2  5  1 -1</clus>
<clus scale="   53.806">  2  4  1 -1</clus>
<clus scale="  120.065">  2  6  1 -1</clus>
<clus scale="  120.065">  1  3  2 -1</clus>
</clustering>
</event>
<event>
 6    0  0.3446372E+002  0.1698739E+03  0.7546771E-02  0.1177979E+00
         21   -1    0    0  505  501  0.00000000000E+00  0.00000000000E+00  0.25972986574E+03  0.25972986574E+03  0.00000000000E+00 0.  1.
         21   -1    0    0  504  502 -0.00000000000E+00 -0.00000000000E+00 -0.19853662658E+03  0.19853662658E+03  0.00000000000E+00 0. -1.
         21    1    1    2  503  501  0.36164713459E+02  0.47710829432E+02  0.60574484809E+02  0.85167352633E+02  0.00000000000E+00 0.  1.
         21    1    1    2  504  503 -0.14926880939E+03  0.72265921578E+02  0.79689090936E+02  0.18399427190E+03  0.00000000000E+00 0.  1.
         21    1    1    2  505  506  0.63494786485E+02 -0.97385160248E+02 -0.63231581518E+02  0.13233929971E+03  0.00000000000E+00 0. -1.
         21    1    1    2  506  502  0.49609309445E+02 -0.22591590762E+02 -0.15838755071E+02  0.56765568076E+02  0.00000000000E+00 0. -1.
<scales pt_clust_3="59.86827" pt_clust_4="162.89745" pt_clust_5="32.99334" pt_clust_6="32.99334"></scales>
<clustering>
<clus scale="   32.993">  5  6 -1 -1</clus>
<clus scale="   59.868">  1  3  2 -1</clus>
<clus scale="  162.897">  1  4  2 -1</clus>
<clus scale="   59.868">  1  3  2 -1</clus>
</clustering>
</event>
<event>
 6    0  0.3446372E+002  0.1905765E+03  0.7546771E-02  0.1157942E+00
         21   -1    0    0  505  501  0.00000000000E+00  0.00000000000E+00  0.41803752534E+03  0.41803752534E+03  0.00000000000E+00 0.  1.
         21   -1    0    0  506  502 -0.00000000000E+00 -0.00000000000E+00 -0.53045994998E+03  0.53045994998E+03  0.00000000000E+00 0. -1.
         21    1    1    2  503  504 -0.31516458168E+02  0.12167328976E+03 -0.25760425753E+03  0.28663152317E+03  0.00000000000E+00 0. -1.
         21    1    1    2  504  502 -0.29679662126E+01  0.60945026367E+02 -0.20518162660E+03  0.21406215209E+03  0.00000000000E+00 0. -1.
         21    1    1    2  505  503  0.87029182494E+02 -0.16086153125E+03  0.34525171798E+03  0.39070354440E+03  0.00000000000E+00 0.  1.
         21    1    1    2  506  501 -0.52544758114E+02 -0.21756784885E+02  0.51117415231E+01  0.57100255649E+02  0.00000000000E+00 0. -1.
<scales pt_clust_3="31.04071" pt_clust_4="31.04071" pt_clust_5="185.29612" pt_clust_6="56.87099"></scales>
<clustering>
<clus scale="   31.041">  3  4 -1 -1</clus>
<clus scale="   56.871">  1  6  2 -1</clus>
<clus scale="  185.296">  1  5  2 -1</clus>
<clus scale="   56.871">  1  3  2 -1</clus>
</clustering>
</event>
<event>
 6    0  0.3446372E+002  0.8829977E+02  0.7546771E-02  0.1307022E+00
         21   -1    0    0  505  501  0.00000000000E+00  0.00000000000E+00  0.10251793561E+04  0.10251793561E+04  0.00000000000E+00 0.  1.
         21   -1    0    0  506  502 -0.00000000000E+00 -0.00000000000E+00 -0.75322248079E+02  0.75322248079E+02  0.00000000000E+00 0. -1.
         21    1    1    2  503  502 -0.64243483965E+02 -0.21331483290E+02  0.62256089962E+02  0.91967810394E+02  0.00000000000E+00 0.  1.
         21    1    1    2  504  501  0.12968449672E+03  0.51254692953E+01  0.33294537812E+02  0.13398830313E+03  0.00000000000E+00 0. -1.
         21    1    1    2  505  503 -0.77893381022E+02 -0.38242126116E+02  0.76001617239E+03  0.76495386874E+03  0.00000000000E+00 0.  1.
         21    1    1    2  506  504  0.12452368262E+02  0.54448140110E+02  0.94290307838E+02  0.10959162189E+03  0.00000000000E+00 0.  1.
<scales pt_clust_3="62.22071" pt_clust_4="14000.00000" pt_clust_5="88.29977" pt_clust_6="55.85393"></scales>
<clustering>
<clus scale="   55.854">  2  6  1 -1</clus>
<clus scale="   62.221">  2  3  1 -1</clus>
<clus scale="   88.300">  1  5  2 -1</clus>
<clus scale="   88.300">  1  3  2 -1</clus>
</clustering>
</event>
<event>
 6    0  0.3446372E+002  0.1100149E+03  0.7546771E-02  0.1260542E+00
         21   -1    0    0  504  501  0.00000000000E+00  0.00000000000E+00  0.87802188934E+02  0.87802188934E+02  0.00000000000E+00 0.  1.
         21   -1    0    0  503  502 -0.00000000000E+00 -0.00000000000E+00 -0.56588669814E+03  0.56588669814E+03  0.00000000000E+00 0.  1.
         21    1    1    2  503  505  0.38116493811E+02  0.22745749585E+02 -0.17539748786E+03  0.18092682215E+03  0.00000000000E+00 0.  1.
         21    1    1    2  504  502 -0.12864249550E+03 -0.11009103345E+02 -0.20852365996E+03  0.24525947233E+03  0.00000000000E+00 0.  1.
         21    1    1    2  505  506  0.54644995767E+02 -0.37772153837E+01 -0.15054461834E+03  0.16019995328E+03  0.00000000000E+00 0.  1.
         21    1    1    2  506  501  0.35881005922E+02 -0.79594308565E+01  0.56381256947E+02  0.67302639328E+02  0.00000000000E+00 0.  1.
<scales pt_clust_3="30.72188" pt_clust_4="104.58757" pt_clust_5="30.72188" pt_clust_6="36.75322"></scales>
<clustering>
<clus scale="   30.722">  3  5 -1 -1</clus>
<clus scale="   36.753">  1  6  2 -1</clus>
<clus scale="  104.588">  1  4  2 -1</clus>
<clus scale="   36.753">  1  3  2 -1</clus>
</clustering>
</event>
<event>
 6    0  0.4102719E+002  0.1643378E+03  0.7546771E-02  0.1183885E+00
         21   -1    0    0  506  501  0.00000000000E+00  0.00000000000E+00  0.55096468037E+03  0.55096468037E+03  0.00000000000E+00 0.  1.
         21   -1    0    0  504  502 -0.00000000000E+00 -0.00000000000E+00 -0.69550634320E+03  0.69550634320E+03  0.00000000000E+00 0.  1.
         21    1    1    2  503  501  0.83129922551E+02  0.10495564527E+03  0.45741822991E+03  0.47661064671E+03  0.00000000000E+00 0.  1.
         21    1    1    2  504  503 -0.20055455373E+03 -0.94375577559E+02 -0.59544390389E+03  0.63535999350E+03  0.00000000000E+00 0.  1.
         21    1    1    2  505  502  0.85670863607E+02 -0.25518908975E+02 -0.27608249227E+02  0.93557078897E+02  0.00000000000E+00 0.  1.
         21    1    1    2  506  505  0.31753767576E+02  0.14938841264E+02  0.21092260373E+02  0.40943304474E+02  0.00000000000E+00 0.  1.
<scales pt_clust_3="164.33776" pt_clust_4="14000.00000" pt_clust_5="91.06238" pt_clust_6="35.09232"></scales>
<clustering>
<clus scale="   35.092">  1  6  2 -1</clus>
<clus scale="   91.062">  2  5  1 -1</clus>
<clus scale="  164.338">  1  3  2 -1</clus>
<clus scale="   35.092">  1  3  2 -1</clus>
</clustering>
</event>
<event>
 6    0  0.3446372E+002  0.7089751E+02  0.7546771E-02  0.1357067E+00
         21   -1    0    0  503  501  0.00000000000E+00  0.00000000000E+00  0.74279487654E+03  0.74279487654E+03  0.00000000000E+00 0.  1.
         21   -1    0    0  504  502 -0.00000000000E+00 -0.00000000000E+00 -0.15894859563E+03  0.15894859563E+03  0.00000000000E+00 0. -1.
         21    1    1    2  503  506  0.63867624859E+02  0.37762879977E+02  0.50502925796E+03  0.51045044814E+03  0.00000000000E+00 0.  1.
         21    1    1    2  504  505  0.20669103067E+02  0.37468034723E+02 -0.11199086707E+03  0.11988752960E+03  0.00000000000E+00 0. -1.
         21    1    1    2  505  501 -0.18220025733E+02 -0.77564174676E+02  0.18890534924E+03  0.20502049044E+03  0.00000000000E+00 0.  1.
         21    1    1    2  506  502 -0.66316702194E+02  0.23332599765E+01  0.19025407848E+01  0.66385003980E+02  0.00000000000E+00 0.  1.
<scales pt_clust_3="70.89751" pt_clust_4="42.79095" pt_clust_5="14000.00000" pt_clust_6="59.23117"></scales>
<clustering>
<clus scale="   42.791">  2  4  1 -1</clus>
<clus scale="   59.231">  2  6  1 -1</clus>
<clus scale="   70.898">  1  3  2 -1</clus>
<clus scale="   70.898">  1  3  2 -1</clus>
</clustering>
</event>
<event>
 6    0  0.3446372E+002  0.1131690E+03  0.7546771E-02  0.1254811E+00
         21   -1    0    0  503  501  0.00000000000E+00  0.00000000000E+00  0.12523992396E+03  0.12523992396E+03  0.00000000000E+00 0.  1.
         21   -1    0    0  504  502 -0.00000000000E+00 -0.00000000000E+00 -0.17605713636E+03  0.17605713636E+03  0.00000000000E+00 0.  1.
         21    1    1    2  503  502  0.23107292841E+02  0.39714247363E+02  0.42571821603E+02  0.62638074848E+02  0.00000000000E+00 0.  1.
         21    1    1    2  504  506  0.38377138903E+02 -0.12356919172E+02 -0.27242072656E+01  0.40409399241E+02  0.00000000000E+00 0.  1.
         21    1    1    2  505  501 -0.98386433541E+02  0.31007219901E+02 -0.33060990017E+02  0.10832528353E+03  0.00000000000E+00 0.  1.
         21    1    1    2  506  505  0.36902001797E+02 -0.58364548092E+02 -0.57603836719E+02  0.89924302696E+02  0.00000000000E+00 0.  1.
<scales pt_clust_3="45.94745" pt_clust_4="39.54931" pt_clust_5="100.63944" pt_clust_6="39.54931"></scales>
<clustering>
<clus scale="   39.549">  4  6 -1 -1</clus>
<clus scale="   45.947">  1  3  2 -1</clus>
<clus scale="  100.639">  1  5  2 -1</clus>
<clus scale="   45.947">  1  3  2 -1</clus>
</clustering>
</event>
<event>
 6    0  0.3446372E+002  0.1086616E+03  0.7546771E-02  0.1263069E+00
         21   -1    0    0  506  501  0.00000000000E+00  0.00000000000E+00  0.56888229028E+03  0.56888229028E+03  0.00000000000E+00 0. -1.
         21   -1    0    0  503  502 -0.00000000000E+00 -0.00000000000E+00 -0.49677806958E+03  0.49677806958E+03  0.00000000000E+00 0. -1.
         21    1    1    2  503  504 -0.97097262446E+02 -0.93159720765E+02 -0.16319751178E+03  0.21151841480E+03  0.00000000000E+00 0. -1.
         21    1    1    2  504  501  0.32948768007E+02  0.19733995426E+02  0.52692013852E+03  0.52831797647E+03  0.00000000000E+00 0. -1.
         21    1    1    2  505  502  0.31999299437E+02 -0.16227161399E+02 -0.15619118813E+03  0.16025905023E+03  0.00000000000E+00 0. -1.
         21    1    1    2  506  505  0.32149195002E+02  0.89652886738E+02 -0.13542721791E+03  0.16556491835E+03  0.00000000000E+00 0. -1.
<scales pt_clust_3="14000.00000" pt_clust_4="38.44592" pt_clust_5="35.87863" pt_clust_6="108.66163"></scales>
<clustering>
<clus scale="   35.879">  2  5  1 -1</clus>
<clus scale="   38.446">  1  4  2 -1</clus>
<clus scale="  108.662">  2  6  1 -1</clus>
<clus scale="   38.446">  1  3  2 -1</clus>
</clustering>
</event>
<event>
 6    0  0.3446372E+002  0.7273602E+02  0.7546771E-02  0.1351029E+00
         21   -1    0    0  503  501  0.00000000000E+00  0.00000000000E+00  0.40726522886E+03  0.40726522886E+03  0.00000000000E+00 0. -1.
         21   -1    0    0  504  502 -0.00000000000E+00 -0.00000000000E+00 -0.62504874996E+02  0.62504874996E+02  0.00000000000E+00 0. -1.
         21    1    1    2  503  506  0.21800211598E+02  0.43503962226E+02  0.18705168545E+03  0.19327746114E+03  0.00000000000E+00 0.  1.
         21    1    1    2  504  505 -0.60467759420E+02 -0.35016455361E+02  0.34988754303E+02  0.78145473337E+02  0.00000000000E+00 0.  1.
         21    1    1    2  505  501 -0.46250959280E+02  0.13128865411E+02  0.94944997373E+02  0.10642401452E+03  0.00000000000E+00 0. -1.
         21    1    1    2  506  502  0.84918507102E+02 -0.21616372276E+02  0.27774916737E+02  0.91923154855E+02  0.00000000000E+00 0. -1.
<scales pt_clust_3="52.10478" pt_clust_4="72.73602" pt_clust_5="48.07825" pt_clust_6="14000.00000"></scales>
<clustering>
<clus scale="   48.078">  1  5  2 -1</clus>
<clus scale="   52.105">  1  3  2 -1</clus>
<clus scale="   72.736">  2  4  1 -1</clus>
<clus scale="   48.078">  1  3  2 -1</clus>
</clustering>
</event>
<event>
 6    0  0.3446372E+002  0.6489409E+02  0.7546771E-02  0.1378370E+00
         21   -1    0    0  506  501  0.00000000000E+00  0.00000000000E+00  0.11874829704E+04  0.11874829704E+04  0.00000000000E+00 0.  1.
         21   -1    0    0  505  502 -0.00000000000E+00 -0.00000000000E+00 -0.38181183566E+03  0.38181183566E+03  0.00000000000E+00 0.  1.
         21    1    1    2  503  502  0.86581352420E+01 -0.55193402641E+02 -0.21384768958E+03  0.22102513282E+03  0.00000000000E+00 0.  1.
         21    1    1    2  504  501  0.59590652838E+01  0.87714797517E+02  0.10037509623E+04  0.10075938619E+04  0.00000000000E+00 0.  1.
         21    1    1    2  505  504 -0.53863816817E+02  0.74607802666E+01 -0.15325141025E+03  0.16261294151E+03  0.00000000000E+00 0.  1.
         21    1    1    2  506  503  0.39246616291E+02 -0.39982175143E+02  0.16901927228E+03  0.17806286985E+03  0.00000000000E+00 0. -1.
<scales pt_clust_3="14000.00000" pt_clust_4="64.89409" pt_clust_5="54.37807" pt_clust_6="55.16008"></scales>
<clustering>
<clus scale="   54.378">  2  5  1 -1</clus>
<clus scale="   55.160">  1  6  2 -1</clus>
<clus scale="   64.894">  1  4  2 -1</clus>
<clus scale="   55.160">  1  3  2 -1</clus>
</clustering>
</event>
<event>
 6    0  0.3446372E+002  0.1005670E+03  0.7546771E-02  0.1279108E+00
         21   -1    0    0  503  501  0.00000000000E+00  0.00000000000E+00  0.98724962208E+03  0.98724962208E+03  0.00000000000E+00 0.  1.
         21   -1    0    0  504  502 -0.00000000000E+00 -0.00000000000E+00 -0.21299041686E+02  0.21299041686E+02  0.00000000000E+00 0.  1.
         21    1    1    2  503  502 -0.71317331929E+02  0.78513611292E+01  0.13234590967E+03  0.15054316827E+03  0.00000000000E+00 0.  1.
         21    1    1    2  504  505 -0.87030059952E+01  0.73328601292E+02  0.21681260961E+03  0.22904264617E+03  0.00000000000E+00 0.  1.
         21    1    1    2  505  506  0.11966167931E+02 -0.36434907202E+02  0.13526017627E+03  0.14059163177E+03  0.00000000000E+00 0.  1.
         21    1    1    2  506  501  0.68054169993E+02 -0.44745055219E+02  0.48153188484E+03  0.48837121756E+03  0.00000000000E+00 0.  1.
<scales pt_clust_3="71.74821" pt_clust_4="89.13666" pt_clust_5="31.95306" pt_clust_6="31.95306"></scales>
<clustering>
<clus scale="   31.953">  5  6 -1 -1</clus>
<clus scale="   71.748">  2  3  1 -1</clus>
<clus scale="   89.137">  2  4  1 -1</clus>
<clus scale="  100.567">  1  3  2 -1</clus>
</clustering>
</event>
<event>
 6    0  0.3446372E+002  0.1321001E+03  0.7546771E-02  0.1224372E+00
         21   -1    0    0  505  501  0.00000000000E+00  0.00000000000E+00  0.95034665443E+02  0.95034665443E+02  0.00000000000E+00 0. -1.
         21   -1    0    0  506  502 -0.00000000000E+00 -0.00000000000E+00 -0.66573270671E+03  0.66573270671E+03  0.00000000000E+00 0. -1.
         21    1    1    2  503  502  0.16476778962E+02  0.11847743276E+03 -0.40247797304E+03  0.41987725004E+03  0.00000000000E+00 0. -1.
         21    1    1    2  504  501 -0.76503696748E+01 -0.13615573686E+03 -0.18272703623E+03  0.22800456707E+03  0.00000000000E+00 0. -1.
         21    1    1    2  505  503 -0.35325296136E+02 -0.14091198778E+01  0.52179555665E+02  0.63028312648E+02  0.00000000000E+00 0. -1.
         21    1    1    2  506  504  0.26498886848E+02  0.19087423974E+02 -0.37672587665E+02  0.49857242398E+02  0.00000000000E+00 0.  1.
<scales pt_clust_3="14000.00000" pt_clust_4="132.10013" pt_clust_5="35.11618" pt_clust_6="32.65763"></scales>
<clustering>
<clus scale="   32.658">  2  6  1 -1</clus>
<clus scale="   35.116">  1  5  2 -1</clus>
<clus scale="  132.100">  1  4  2 -1</clus>
<clus scale="   35.116">  1  3  2 -1</clus>
</clustering>
</event>
<event>
 6    0  0.3446372E+002  0.8644463E+02  0.7546771E-02  0.1311697E+00
         21   -1    0    0  504  501  0.00000000000E+00  0.00000000000E+00  0.51359156944E+03  0.51359156944E+03  0.00000000000E+00 0.  1.
         21   -1    0    0  503  502 -0.00000000000E+00 -0.00000000000E+00 -0.51914045357E+02  0.51914045357E+02  0.00000000000E+00 0. -1.
         21    1    1    2  503  501 -0.22279229830E+02  0.11236977314E+03  0.33706862568E+03  0.35600363540E+03  0.00000000000E+00 0.  1.
         21    1    1    2  504  505  0.38271386701E+02 -0.22245948358E+02  0.81066920641E+02  0.92365723516E+02  0.00000000000E+00 0. -1.
         21    1    1    2  505  506  0.56845496664E+00 -0.60945955248E+02 -0.15064256667E+01  0.60967220048E+02  0.00000000000E+00 0. -1.
         21    1    1    2  506  502 -0.16560611838E+02 -0.29177869538E+02  0.45048403427E+02  0.56169035834E+02  0.00000000000E+00 0. -1.
<scales pt_clust_3="86.44463" pt_clust_4="44.49751" pt_clust_5="14000.00000" pt_clust_6="33.54999"></scales>
<clustering>
<clus scale="   33.550">  2  6  1 -1</clus>
<clus scale="   44.498">  1  4  2 -1</clus>
<clus scale="   86.445">  1  3  2 -1</clus>
<clus scale="   44.498">  1  3  2 -1</clus>
</clustering>
</event>
<event>
 6    0  0.3446372E+002  0.9081437E+02  0.7546771E-02  0.1300891E+00
         21   -1    0    0  503  501  0.00000000000E+00  0.00000000000E+00  0.59454227527E+03  0.59454227527E+03  0.00000000000E+00 0.  1.
         21   -1    0    0  506  502 -0.00000000000E+00 -0.00000000000E+00 -0.84235341438E+02  0.84235341438E+02  0.00000000000E+00 0.  1.
         21    1    1    2  503  504 -0.15622565378E+02 -0.37728183380E+02  0.14565949324E+03  0.15127514118E+03  0.00000000000E+00 0.  1.
         21    1    1    2  504  502  0.76855083558E+02 -0.25864636859E+02 -0.89948918173E+01  0.81587936531E+02  0.00000000000E+00 0.  1.
         21    1    1    2  505  501 -0.79769712498E+02  0.20069158305E+02  0.38788457643E+03  0.39651030602E+03  0.00000000000E+00 0.  1.
         21    1    1    2  506  505  0.18537194319E+02  0.43523661934E+02 -0.14242244017E+02  0.49404232976E+02  0.00000000000E+00 0.  1.
<scales pt_clust_3="40.83479" pt_clust_4="90.81437" pt_clust_5="14000.00000" pt_clust_6="45.69751"></scales>
<clustering>
<clus scale="   40.835">  1  3  2 -1</clus>
<clus scale="   45.698">  2  6  1 -1</clus>
<clus scale="   90.814">  2  4  1 -1</clus>
<clus scale="   40.835">  1  3  2 -1</clus>
</clustering>
</event>
<event>
 6    0  0.3446372E+002  0.1312517E+03  0.7546771E-02  0.1225610E+00
         21   -1    0    0  503  501  0.00000000000E+00  0.00000000000E+00  0.15804695811E+03  0.15804695811E+03  0.00000000000E+00 0.  1.
         21   -1    0    0  505  502 -0.00000000000E+00 -0.00000000000E+00 -0.16576417687E+04  0.16576417687E+04  0.00000000000E+00 0.  1.
         21    1    1    2  503  502  0.60490550580E+02 -0.52180707833E+02 -0.31836238746E+02  0.85996971324E+02  0.00000000000E+00 0.  1.
         21    1    1    2  504  501 -0.19656312262E+03  0.83503543125E+02  0.36652426256E+02  0.21668710908E+03  0.00000000000E+00 0.  1.
         21    1    1    2  505  506  0.56985716989E+02 -0.21648867980E+02 -0.10418346468E+04  0.10436165372E+04  0.00000000000E+00 0.  1.
         21    1    1    2  506  504  0.79086855052E+02 -0.96739673122E+01 -0.46257635136E+03  0.46938810926E+03  0.00000000000E+00 0.  1.
<scales pt_clust_3="85.39945" pt_clust_4="131.25170" pt_clust_5="60.95938" pt_clust_6="14000.00000"></scales>
<clustering>
<clus scale="   60.959">  2  5  1 -1</clus>
<clus scale="   85.399">  1  3  2 -1</clus>
<clus scale="  131.252">  1  4  2 -1</clus>
<clus scale="   85.399">  1  3  2 -1</clus>
</clustering>
</event>
<event>
 6    0  0.3446372E+002  0.1465578E+03  0.7546771E-02  0.1204768E+00
         21   -1    0    0  506  501  0.00000000000E+00  0.00000000000E+00  0.72600000726E+03  0.72600000726E+03  0.00000000000E+00 0. -1.
         21   -1    0    0  505  502 -0.00000000000E+00 -0.00000000000E+00 -0.14985206004E+03  0.14985206004E+03  0.00000000000E+00 0. -1.
         21    1    1    2  503  504  0.15789483759E+03 -0.66260954414E+02  0.21359775203E+03  0.27376138056E+03  0.00000000000E+00 0. -1.
         21    1    1    2  504  502  0.50798860521E+02  0.11957644719E+03 -0.24058934300E+02  0.13212828340E+03  0.00000000000E+00 0. -1.
         21    1    1    2  505  501 -0.72770484538E+02  0.28059069559E+02  0.37393797646E+02  0.86493646627E+02  0.00000000000E+00 0. -1.
         21    1    1    2  506  503 -0.13592321357E+03 -0.81374562338E+02  0.34921533184E+03  0.38346875672E+03  0.00000000000E+00 0. -1.
<scales pt_clust_3="146.55778" pt_clust_4="137.17217" pt_clust_5="77.99266" pt_clust_6="14000.00000"></scales>
<clustering>
<clus scale="   77.993">  2  5  1 -1</clus>
<clus scale="  137.172">  2  4  1 -1</clus>
<clus scale="  146.558">  2  3  1 -1</clus>
<clus scale="  146.558">  1  3  2 -1</clus>
</clustering>
</event>
<event>
 6    0  0.3446372E+002  0.1029802E+03  0.7546771E-02  0.1274151E+00
         21   -1    0    0  504  501  0.00000000000E+00  0.00000000000E+00  0.31848372325E+03  0.31848372325E+03  0.00000000000E+00 0. -1.
         21   -1    0    0  505  502 -0.00000000000E+00 -0.00000000000E+00 -0.63383464243E+03  0.63383464243E+03  0.00000000000E+00 0. -1.
         21    1    1    2  503  501  0.37533758990E+02 -0.30541089025E+02  0.24424677521E+03  0.24899403283E+03  0.00000000000E+00 0. -1.
         21    1    1    2  504  502  0.57115057702E+02 -0.70229006448E+01 -0.44715942235E+02  0.72876377789E+02  0.00000000000E+00 0.  1.
         21    1    1    2  505  506 -0.63752440465E+02  0.90896488301E+02 -0.54892182563E+03  0.56003724511E+03  0.00000000000E+00 0. -1.
         21    1    1    2  506  503 -0.30896376226E+02 -0.53332498631E+02  0.34040073474E+02  0.70410709954E+02  0.00000000000E+00 0. -1.
<scales pt_clust_3="48.38947" pt_clust_4="65.76806" pt_clust_5="102.98015" pt_clust_6="14000.00000"></scales>
<clustering>
<clus scale="   48.389">  1  3  2 -1</clus>
<clus scale="   65.768">  1  4  2 -1</clus>
<clus scale="  102.980">  2  5  1 -1</clus>
<clus scale="   48.389">  1  3  2 -1</clus>
</clustering>
</event>
<event>
 6    0  0.3446372E+002  0.1084362E+03  0.7546771E-02  0.1263494E+00
         21   -1    0    0  505  501  0.00000000000E+00  0.00000000000E+00  0.36243292831E+02  0.36243292831E+02  0.00000000000E+00 0. -1.
         21   -1    0    0  503  502 -0.00000000000E+00 -0.00000000000E+00 -0.12119560637E+04  0.12119560637E+04  0.00000000000E+00 0.  1.
         21    1    1    2  503  501  0.89992411634E+00 -0.13572411824E+03 -0.16870817650E+03  0.21652781566E+03  0.00000000000E+00 0. -1.
         21    1    1    2  504  502  0.45862872003E+02  0.14387875271E+02 -0.38905748744E+03  0.39201548760E+03  0.00000000000E+00 0.  1.
         21    1    1    2  505  506 -0.25815649795E+02  0.29585548993E+02 -0.48108006915E+02  0.62097768179E+02  0.00000000000E+00 0. -1.
         21    1    1    2  506  504 -0.20947146325E+02  0.91750693972E+02 -0.56983910005E+03  0.57755828513E+03  0.00000000000E+00 0.  1.
<scales pt_clust_3="14000.00000" pt_clust_4="47.30397" pt_clust_5="39.26516" pt_clust_6="108.43619"></scales>
<clustering>
<clus scale="   39.265">  1  5  2 -1</clus>
<clus scale="   47.304">  2  4  1 -1</clus>
<clus scale="  108.436">  2  6  1 -1</clus>
<clus scale="   39.265">  1  3  2 -1</clus>
</clustering>
</event>
<event>
 6    0  0.3446372E+002  0.9359823E+02  0.7546771E-02  0.1294365E+00
         21   -1    0    0  506  501  0.00000000000E+00  0.00000000000E+00  0.63584838602E+03  0.63584838602E+03  0.00000000000E+00 0.  1.
         21   -1    0    0  504  502 -0.00000000000E+00 -0.00000000000E+00 -0.26675917679E+03  0.26675917679E+03  0.00000000000E+00 0. -1.
         21    1    1    2  503  501 -0.63250974847E+02  0.96650862633E+01  0.55394282391E+03  0.55762599641E+03  0.00000000000E+00 0.  1.
         21    1    1    2  504  503 -0.20411419760E+02  0.64329627965E+02 -0.65119939339E+01  0.67803636744E+02  0.00000000000E+00 0.  1.
         21    1    1    2  505  502  0.11191651620E+03 -0.86796526700E+02 -0.19574574404E+03  0.24160989209E+03  0.00000000000E+00 0. -1.
         21    1    1    2  506  505 -0.28254121589E+02  0.12801812472E+02  0.17404123287E+02  0.35568037571E+02  0.00000000000E+00 0.  1.
<scales pt_clust_3="93.59823" pt_clust_4="68.54343" pt_clust_5="14000.00000" pt_clust_6="31.01906"></scales>
<clustering>
<clus scale="   31.019">  1  6  2 -1</clus>
<clus scale="   68.543">  2  4  1 -1</clus>
<clus scale="   93.598">  1  3  2 -1</clus>
<clus scale="   31.019">  1  3  2 -1</clus>
</clustering>
</event>
<event>
 6    0  0.3446372E+002  0.6771924E+02  0.7546771E-02  0.1368025E+00
         21   -1    0    0  503  501  0.00000000000E+00  0.00000000000E+00  0.18727216576E+04  0.18727216576E+04  0.00000000000E+00 0.  1.
         21   -1    0    0  506  502 -0.00000000000E+00 -0.00000000000E+00 -0.23133551296E+02  0.23133551296E+02  0.00000000000E+00 0.  1.
         21    1    1    2  503  502 -0.59130038729E+01  0.85119429203E+02  0.12374961343E+03  0.15031383059E+03  0.00000000000E+00 0.  1.
         21    1    1    2  504  505 -0.66475271679E+02  0.12647537268E+02  0.33390552528E+03  0.34069314898E+03  0.00000000000E+00 0.  1.
         21    1    1    2  505  501  0.54074044661E+02 -0.43729040831E+02  0.12491899418E+04  0.12511241913E+04  0.00000000000E+00 0.  1.
         21    1    1    2  506  504  0.18314230891E+02 -0.54037925640E+02  0.14274302573E+03  0.15372403799E+03  0.00000000000E+00 0.  1.
<scales pt_clust_3="45.13065" pt_clust_4="67.71924" pt_clust_5="14000.00000" pt_clust_6="57.05706"></scales>
<clustering>
<clus scale="   57.057">  2  6  1 -1</clus>
<clus scale="   45.131">  2  3  1 -1</clus>
<clus scale="   67.719">  2  4  1 -1</clus>
<clus scale="   67.719">  1  3  2 -1</clus>
</clustering>
</event>
<event>
 6    0  0.3446372E+002  0.6522642E+02  0.7546771E-02  0.1377122E+00
         21   -1    0    0  504  501  0.00000000000E+00  0.00000000000E+00  0.22235175262E+03  0.22235175262E+03  0.00000000000E+00 0.  1.
         21   -1    0    0  505  502 -0.00000000000E+00 -0.00000000000E+00 -0.15017883373E+03  0.15017883373E+03  0.00000000000E+00 0.  1.
         21    1    1    2  503  506 -0.12142569973E+03 -0.18392184597E+02  0.66714533250E+02  0.13976158970E+03  0.00000000000E+00 0.  1.
         21    1    1    2  504  502  0.35670649764E+02  0.23576325187E+02 -0.27601222434E+02  0.50892689493E+02  0.00000000000E+00 0.  1.
         21    1    1    2  505  503  0.31490791664E+02 -0.16329348519E+01 -0.63589580821E+02  0.70978667393E+02  0.00000000000E+00 0.  1.
         21    1    1    2  506  501  0.54264258301E+02 -0.35512057382E+01  0.96649188894E+02  0.11089763976E+03  0.00000000000E+00 0.  1.
<scales pt_clust_3="14000.00000" pt_clust_4="55.48276" pt_clust_5="31.53310" pt_clust_6="65.22642"></scales>
<clustering>
<clus scale="   31.533">  2  5  1 -1</clus>
<clus scale="   55.483">  2  4  1 -1</clus>
<clus scale="   65.226">  1  6  2 -1</clus>
<clus scale="   65.226">  1  3  2 -1</clus>
</clustering>
</event>
<event>
 6    0  0.3446372E+002  0.2355650E+03  0.7546771E-02  0.1122783E+00
         21   -1    0    0  506  501  0.00000000000E+00  0.00000000000E+00  0.87776475493E+02  0.87776475493E+02  0.00000000000E+00 0.  1.
         21   -1    0    0  504  502 -0.00000000000E+00 -0.00000000000E+00 -0.17089089089E+04  0.17089089089E+04  0.00000000000E+00 0.  1.
         21    1    1    2  503  502 -0.46908442323E+01  0.47010020780E+02 -0.49549535154E+03  0.49774249313E+03  0.00000000000E+00 0.  1.
         21    1    1    2  504  501  0.75579083621E+02 -0.28132272781E+03 -0.30171103829E+03  0.41938553348E+03  0.00000000000E+00 0.  1.
         21    1    1    2  505  503 -0.87870429549E+02  0.17313408380E+03 -0.77623729189E+03  0.80015058375E+03  0.00000000000E+00 0.  1.
         21    1    1    2  506  505  0.16982190161E+02  0.61178623223E+02 -0.47688751652E+02  0.79406773994E+02  0.00000000000E+00 0. -1.
<scales pt_clust_3="47.24348" pt_clust_4="14000.00000" pt_clust_5="235.56495" pt_clust_6="65.80668"></scales>
<clustering>
<clus scale="   47.243">  2  3  1 -1</clus>
<clus scale="   65.807">  1  6  2 -1</clus>
<clus scale="  235.565">  2  5  1 -1</clus>
<clus scale="   65.807">  1  3  2 -1</clus>
</clustering>
</event>
<event>
 6    0  0.3446372E+002  0.1635281E+03  0.7546771E-02  0.1184770E+00
         21   -1    0    0  506  501  0.00000000000E+00  0.00000000000E+00  0.18793902428E+04  0.18793902428E+04  0.00000000000E+00 0. -1.
         21   -1    0    0  505  502 -0.00000000000E+00 -0.00000000000E+00 -0.14843124846E+03  0.14843124846E+03  0.00000000000E+00 0. -1.
         21    1    1    2  503  501  0.96504917537E+02  0.13405932929E+03  0.17953925251E+04  0.18029751585E+04  0.00000000000E+00 0. -1.
         21    1    1    2  504  503 -0.89489972057E+02 -0.78074249065E+02 -0.77415993117E+02  0.14176487384E+03  0.00000000000E+00 0. -1.
         21    1    1    2  505  504  0.14251707290E+02 -0.33001805099E+02 -0.16967954356E+02  0.39750997163E+02  0.00000000000E+00 0. -1.
         21    1    1    2  506  502 -0.21266652770E+02 -0.22983275128E+02  0.29950416685E+02  0.43330461748E+02  0.00000000000E+00 0. -1.
<scales pt_clust_3="14000.00000" pt_clust_4="163.52815" pt_clust_5="38.90649" pt_clust_6="31.31296"></scales>
<clustering>
<clus scale="   31.313">  2  6  1 -1</clus>
<clus scale="   38.906">  2  5  1 -1</clus>
<clus scale="  163.528">  2  4  1 -1</clus>
<clus scale="  163.528">  1  3  2 -1</clus>
</clustering>
</event>
<event>
 6    0  0.3446372E+002  0.1158118E+03  0.7546771E-02  0.1250171E+00
         21   -1    0    0  506  501  0.00000000000E+00  0.00000000000E+00  0.39210209461E+03  0.39210209461E+03  0.00000000000E+00 0.  1.
         21   -1    0    0  501  502 -0.00000000000E+00 -0.00000000000E+00 -0.19777855419E+03  0.19777855419E+03  0.00000000000E+00 0.  1.
         21    1    1    2  503  505  0.38281526230E+02  0.14090666652E+03 -0.92749627114E+02  0.17298166738E+03  0.00000000000E+00 0.  1.
         21    1    1    2  504  503  0.37224669900E+01 -0.49855816322E+02  0.12504613923E+03  0.13466995255E+03  0.00000000000E+00 0.  1.
         21    1    1    2  505  502 -0.17300833584E+01 -0.43604998559E+02 -0.46999052774E+02  0.64135014223E+02  0.00000000000E+00 0.  1.
         21    1    1    2  506  504 -0.40273909861E+02 -0.47445851643E+02  0.20902608107E+03  0.21809401464E+03  0.00000000000E+00 0.  1.
<scales pt_clust_3="106.66687" pt_clust_4="40.42785" pt_clust_5="43.63931" pt_clust_6="40.42785"></scales>
<clustering>
<clus scale="   40.428">  4  6 -1 -1</clus>
<clus scale="   43.639">  2  5  1 -1</clus>
<clus scale="  106.667">  2  3  1 -1</clus>
<clus scale="  115.812">  1  3  2 -1</clus>
</clustering>
</event>
<event>
 6    0  0.3446372E+002  0.1187625E+03  0.7546771E-02  0.1245153E+00
         21   -1    0    0  506  501  0.00000000000E+00  0.00000000000E+00  0.37471992822E+03  0.37471992822E+03  0.00000000000E+00 0. -1.
         21   -1    0    0  503  502 -0.00000000000E+00 -0.00000000000E+00 -0.12235904142E+04  0.12235904142E+04  0.00000000000E+00 0. -1.
         21    1    1    2  503  501 -0.39607281975E+01 -0.52009531440E+02 -0.18581094096E+03  0.19299322400E+03  0.00000000000E+00 0.  1.
         21    1    1    2  504  505  0.45786437756E+02 -0.47074841757E+02  0.15328566119E+03  0.16676010475E+03  0.00000000000E+00 0. -1.
         21    1    1    2  505  502 -0.90326506492E+02  0.10134399870E+03 -0.10201018252E+04  0.10290953394E+04  0.00000000000E+00 0. -1.
         21    1    1    2  506  504  0.48500796934E+02 -0.22596255029E+01  0.20375661898E+03  0.20946167427E+03  0.00000000000E+00 0. -1.
<scales pt_clust_3="52.16013" pt_clust_4="45.00677" pt_clust_5="106.60612" pt_clust_6="45.00677"></scales>
<clustering>
<clus scale="   45.007">  4  6 -1 -1</clus>
<clus scale="   52.160">  2  3  1 -1</clus>
<clus scale="  106.606">  2  5  1 -1</clus>
<clus scale="  118.762">  1  3  2 -1</clus>
</clustering>
</event>
<event>
 6    0  0.3446372E+002  0.8992535E+02  0.7546771E-02  0.1303033E+00
         21   -1    0    0  503  501  0.00000000000E+00  0.00000000000E+00  0.11826858895E+03  0.11826858895E+03  0.00000000000E+00 0.  1.
         21   -1    0    0  505  502 -0.00000000000E+00 -0.00000000000E+00 -0.28978781502E+03  0.28978781502E+03  0.00000000000E+00 0.  1.
         21    1    1    2  503  502 -0.85409574206E+02 -0.93633671321E+02 -0.12000254959E+03  0.17453558857E+03  0.00000000000E+00 0.  1.
         21    1    1    2  504  506  0.14636177262E+02  0.66674606832E+02 -0.46555465217E+02  0.82626462000E+02  0.00000000000E+00 0.  1.
         21    1    1    2  505  504  0.51811343044E+02 -0.33593552111E+01 -0.63667793526E+02  0.82154053265E+02  0.00000000000E+00 0.  1.
         21    1    1    2  506  501  0.18962053900E+02  0.30318419700E+02  0.58706582261E+02  0.68740300130E+02  0.00000000000E+00 0.  1.
<scales pt_clust_3="89.92535" pt_clust_4="14000.00000" pt_clust_5="55.05335" pt_clust_6="35.75984"></scales>
<clustering>
<clus scale="   35.760">  1  6  2 -1</clus>
<clus scale="   55.053">  2  5  1 -1</clus>
<clus scale="   89.925">  2  3  1 -1</clus>
<clus scale="   35.760">  1  3  2 -1</clus>
</clustering>
</event>
<event>
 6    0  0.3446372E+002  0.1578253E+03  0.7546771E-02  0.1191174E+00
         21   -1    0    0  505  501  0.00000000000E+00  0.00000000000E+00  0.98850745298E+03  0.98850745298E+03  0.00000000000E+00 0. -1.
         21   -1    0    0  503  502 -0.00000000000E+00 -0.00000000000E+00 -0.30425083747E+04  0.30425083747E+04  0.00000000000E+00 0. -1.
         21    1    1    2  503  506 -0.29199141187E+02  0.14105264564E+02 -0.41399718630E+02  0.52587879184E+02  0.00000000000E+00 0. -1.
         21    1    1    2  504  502  0.64417710735E+02  0.66734753971E+02 -0.29668728974E+04  0.29683224148E+04  0.00000000000E+00 0. -1.
         21    1    1    2  505  504  0.72224281274E+02 -0.17435573282E+03  0.53904624661E+03  0.57112794045E+03  0.00000000000E+00 0. -1.
         21    1    1    2  506  501 -0.10744285082E+03  0.93515714287E+02  0.41522544767E+03  0.43897759328E+03  0.00000000000E+00 0.  1.
<scales pt_clust_3="32.42759" pt_clust_4="88.16724" pt_clust_5="14000.00000" pt_clust_6="157.82530"></scales>
<clustering>
<clus scale="   32.428">  2  3  1 -1</clus>
<clus scale="   88.167">  2  4  1 -1</clus>
<clus scale="  157.825">  1  6  2 -1</clus>
<clus scale="  157.825">  1  3  2 -1</clus>
</clustering>
</event>
<event>
 6    0  0.3446372E+002  0.1595743E+03  0.7546771E-02  0.1189178E+00
         21   -1    0    0  503  501  0.00000000000E+00  0.00000000000E+00  0.82725139055E+03  0.82725139055E+03  0.00000000000E+00 0. -1.
         21   -1    0    0  506  502 -0.00000000000E+00 -0.00000000000E+00 -0.13200279640E+04  0.13200279640E+04  0.00000000000E+00 0.  1.
         21    1    1    2  503  504  0.43592892631E+02 -0.51141679112E+02 -0.64262099259E+03  0.64612502795E+03  0.00000000000E+00 0.  1.
         21    1    1    2  504  502  0.81955282218E+02 -0.39743585383E+02 -0.66230279699E+03  0.66853662261E+03  0.00000000000E+00 0.  1.
         21    1    1    2  505  501  0.49389074431E+01  0.41784021070E+02  0.14106724830E+03  0.14720823947E+03  0.00000000000E+00 0.  1.
         21    1    1    2  506  505 -0.13048708229E+03  0.49101243424E+02  0.67107996786E+03  0.68540946449E+03  0.00000000000E+00 0. -1.
<scales pt_clust_3="33.11869" pt_clust_4="33.11869" pt_clust_5="42.07490" pt_clust_6="154.84596"></scales>
<clustering>
<clus scale="   33.119">  3  4 -1 -1</clus>
<clus scale="   42.075">  1  5  2 -1</clus>
<clus scale="  154.846">  1  6  2 -1</clus>
<clus scale="   42.075">  1  3  2 -1</clus>
</clustering>
</event>
<event>
 6    0  0.3446372E+002  0.1497280E+03  0.7546771E-02  0.1200808E+00
         21   -1    0    0  504  501  0.00000000000E+00  0.00000000000E+00  0.18427530267E+04  0.18427530267E+04  0.00000000000E+00 0. -1.
         21   -1    0    0  506  502 -0.00000000000E+00 -0.00000000000E+00 -0.14779182368E+02  0.14779182368E+02  0.00000000000E+00 0. -1.
         21    1    1    2  503  501  0.43226222996E+02  0.91464942026E+02  0.29001174912E+03  0.30715005551E+03  0.00000000000E+00 0. -1.
         21    1    1    2  504  505 -0.39778870223E+02 -0.93811060955E+02  0.80050953545E+03  0.80696864252E+03  0.00000000000E+00 0. -1.
         21    1    1    2  505  502  0.99722747963E+01 -0.39608815562E+02  0.51652913093E+03  0.51814153243E+03  0.00000000000E+00 0.  1.
         21    1    1    2  506  503 -0.13419627570E+02  0.41954934492E+02  0.22092342883E+03  0.22527197859E+03  0.00000000000E+00 0. -1.
<scales pt_clust_3="40.29568" pt_clust_4="146.03468" pt_clust_5="32.51102" pt_clust_6="40.29568"></scales>
<clustering>
<clus scale="   32.511">  4  5 -1 -1</clus>
<clus scale="   40.296">  3  6 -1 -1</clus>
<clus scale="  146.035">  1  4  2 -1</clus>
<clus scale="  146.035">  1  3  2 -1</clus>
</clustering>
</event>
<event>
 6    0  0.3446372E+002  0.1089242E+03  0.7546771E-02  0.1262575E+00
         21   -1    0    0  504  501  0.00000000000E+00  0.00000000000E+00  0.10288477628E+04  0.10288477628E+04  0.00000000000E+00 0. -1.
         21   -1    0    0  505  502 -0.00000000000E+00 -0.00000000000E+00 -0.15970264970E+03  0.15970264970E+03  0.00000000000E+00 0. -1.
         21    1    1    2  503  502  0.72954641373E+02  0.28808331481E+02  0.32677448496E+03  0.33605634004E+03  0.00000000000E+00 0. -1.
         21    1    1    2  504  503  0.37650294075E+02 -0.58248853872E+01  0.65276268292E+03  0.65387353070E+03  0.00000000000E+00 0. -1.
         21    1    1    2  505  506 -0.95756182267E+01  0.41335586083E+02 -0.13369465204E+02  0.44486691730E+02  0.00000000000E+00 0.  1.
         21    1    1    2  506  501 -0.10102931722E+03 -0.64319032177E+02 -0.97022589570E+02  0.15413385003E+03  0.00000000000E+00 0. -1.
<scales pt_clust_3="108.92423" pt_clust_4="38.09821" pt_clust_5="41.86872" pt_clust_6="14000.00000"></scales>
<clustering>
<clus scale="   38.098">  1  4  2 -1</clus>
<clus scale="   41.869">  2  5  1 -1</clus>
<clus scale="  108.924">  1  3  2 -1</clus>
<clus scale="   38.098">  1  3  2 -1</clus>
</clustering>
</event>
<event>
 6    0  0.3446372E+002  0.1711848E+03  0.7546771E-02  0.1176618E+00
         21   -1    0    0  504  501  0.00000000000E+00  0.00000000000E+00  0.95053243165E+02  0.95053243165E+02  0.00000000000E+00 0. -1.
         21   -1    0    0  501  502 -0.00000000000E+00 -0.00000000000E+00 -0.79420625399E+03  0.79420625399E+03  0.00000000000E+00 0.  1.
         21    1    1    2  503  506  0.35155201722E+02  0.21037631063E+02 -0.15454287851E+01  0.40998274097E+02  0.00000000000E+00 0.  1.
         21    1    1    2  504  503  0.44764651627E+02  0.82753919600E+02 -0.82076815111E+02  0.12485467081E+03  0.00000000000E+00 0. -1.
         21    1    1    2  505  502  0.87109402085E+02  0.77972748846E+02 -0.30548641369E+03  0.32709287128E+03  0.00000000000E+00 0. -1.
         21    1    1    2  506  505 -0.16702925543E+03 -0.18176429951E+03 -0.31004435324E+03  0.39631368097E+03  0.00000000000E+00 0.  1.
<scales pt_clust_3="38.22000" pt_clust_4="38.22000" pt_clust_5="116.90936" pt_clust_6="161.08874"></scales>
<clustering>
<clus scale="   38.220">  3  4 -1 -1</clus>
<clus scale="  116.909">  2  5  1 -1</clus>
<clus scale="  161.089">  2  6  1 -1</clus>
<clus scale="  171.185">  1  3  2 -1</clus>
</clustering>
</event>
<event>
 6    0  0.3446372E+002  0.1622685E+03  0.7546771E-02  0.1186159E+00
         21   -1    0    0  505  501  0.00000000000E+00  0.00000000000E+00  0.25062337089E+03  0.25062337089E+03  0.00000000000E+00 0.  1.
         21   -1    0    0  506  502 -0.00000000000E+00 -0.00000000000E+00 -0.17032963975E+04  0.17032963975E+04  0.00000000000E+00 0. -1.
         21    1    1    2  503  501 -0.16137456770E+01 -0.17760815713E+03 -0.90834334110E+01  0.17784760447E+03  0.00000000000E+00 0.  1.
         21    1    1    2  504  502  0.45385242201E+02  0.15824446443E+02 -0.80990812701E+02  0.94179323935E+02  0.00000000000E+00 0. -1.
         21    1    1    2  505  504 -0.15247756794E+03  0.10377540062E+03  0.10291302780E+03  0.21121040171E+03  0.00000000000E+00 0.  1.
         21    1    1    2  506  503  0.10870607142E+03  0.58008310069E+02 -0.14655118083E+04  0.14706824383E+04  0.00000000000E+00 0. -1.
<scales pt_clust_3="162.26854" pt_clust_4="48.06489" pt_clust_5="14000.00000" pt_clust_6="166.50325"></scales>
<clustering>
<clus scale="   48.065">  2  4  1 -1</clus>
<clus scale="  166.503">  2  6  1 -1</clus>
<clus scale="  162.269">  2  3  1 -1</clus>
<clus scale="  162.269">  1  3  2 -1</clus>
</clustering>
</event>
<event>
 6    0  0.3446372E+002  0.7462927E+02  0.7546771E-02  0.1345023E+00
         21   -1    0    0  505  501  0.00000000000E+00  0.00000000000E+00  0.16272054893E+03  0.16272054893E+03  0.00000000000E+00 0.  1.
         21   -1    0    0  504  502 -0.00000000000E+00 -0.00000000000E+00 -0.32903401912E+03  0.32903401912E+03  0.00000000000E+00 0.  1.
         21    1    1    2  503  502 -0.34247423139E+02 -0.36496977923E+02 -0.13744355377E+03  0.14627250548E+03  0.00000000000E+00 0.  1.
         21    1    1    2  504  501 -0.62680739937E+02  0.25895226566E+02  0.64720871736E+02  0.93745555395E+02  0.00000000000E+00 0.  1.
         21    1    1    2  505  506  0.57107910829E+02  0.61114255487E+02  0.47845807581E+02  0.96361231863E+02  0.00000000000E+00 0.  1.
         21    1    1    2  506  503  0.39820252247E+02 -0.50512504131E+02 -0.14143659574E+03  0.15537527531E+03  0.00000000000E+00 0.  1.
<scales pt_clust_3="50.04913" pt_clust_4="69.28793" pt_clust_5="74.62927" pt_clust_6="14000.00000"></scales>
<clustering>
<clus scale="   50.049">  2  3  1 -1</clus>
<clus scale="   69.288">  1  4  2 -1</clus>
<clus scale="   74.629">  1  5  2 -1</clus>
<clus scale="   69.288">  1  3  2 -1</clus>
</clustering>
</event>
<event>
 6    0  0.3446372E+002  0.1496627E+03  0.7546771E-02  0.1200888E+00
         21   -1    0    0  503  501  0.00000000000E+00  0.00000000000E+00  0.37126583730E+03  0.37126583730E+03  0.00000000000E+00 0. -1.
         21   -1    0    0  504  502 -0.00000000000E+00 -0.00000000000E+00 -0.38429369395E+03  0.38429369395E+03  0.00000000000E+00 0.  1.
         21    1    1    2  503  505 -0.99203606353E+02 -0.66136810696E+02  0.32068811183E+03  0.34213491244E+03  0.00000000000E+00 0. -1.
         21    1    1    2  504  506  0.95259984773E+02  0.83541363558E+02 -0.31060864786E+03  0.33545693650E+03  0.00000000000E+00 0.  1.
         21    1    1    2  505  502  0.33207282170E+02  0.19448886628E+01 -0.26765268859E+02  0.42695266695E+02  0.00000000000E+00 0. -1.
         21    1    1    2  506  501 -0.29263660591E+02 -0.19349441525E+02  0.36579482364E+01  0.35272415622E+02  0.00000000000E+00 0.  1.
<scales pt_clust_3="149.66272" pt_clust_4="14000.00000" pt_clust_5="33.26419" pt_clust_6="33.78958"></scales>
<clustering>
<clus scale="   33.264">  2  5  1 -1</clus>
<clus scale="   33.790">  1  6  2 -1</clus>
<clus scale="  149.663">  1  3  2 -1</clus>
<clus scale="   33.790">  1  3  2 -1</clus>
</clustering>
</event>
<event>
 6    0  0.3446372E+002  0.1621461E+03  0.7546771E-02  0.1186295E+00
         21   -1    0    0  502  501  0.00000000000E+00  0.00000000000E+00  0.11399308784E+04  0.11399308784E+04  0.00000000000E+00 0.  1.
         21   -1    0    0  504  502 -0.00000000000E+00 -0.00000000000E+00 -0.20631171655E+03  0.20631171655E+03  0.00000000000E+00 0. -1.
         21    1    1    2  503  501 -0.27191208461E+02 -0.23020312559E+02  0.89812845404E+03  0.89883481050E+03  0.00000000000E+00 0.  1.
         21    1    1    2  504  506 -0.61830943330E+02  0.11344608531E+02 -0.63833776713E+02  0.89590829582E+02  0.00000000000E+00 0. -1.
         21    1    1    2  505  503  0.17713588907E+03  0.43085456608E+02  0.16309071748E+03  0.24460593185E+03  0.00000000000E+00 0. -1.
         21    1    1    2  506  505 -0.88113737278E+02 -0.31409752581E+02 -0.63766232994E+02  0.11321102298E+03  0.00000000000E+00 0. -1.
<scales pt_clust_3="35.62719" pt_clust_4="35.99841" pt_clust_5="155.98251" pt_clust_6="35.99841"></scales>
<clustering>
<clus scale="   35.627">  1  3  2 -1</clus>
<clus scale="   35.998">  4  6 -1 -1</clus>
<clus scale="  155.983">  1  5  2 -1</clus>
<clus scale="   35.627">  1  3  2 -1</clus>
</clustering>
</event>
<event>
 6    0  0.3446372E+002  0.3074024E+03  0.7546771E-02  0.1081598E+00
         21   -1    0    0  504  501  0.00000000000E+00  0.00000000000E+00  0.18503305387E+04  0.18503305387E+04  0.00000000000E+00 0.  1.
         21   -1    0    0  503  502 -0.00000000000E+00 -0.00000000000E+00 -0.66505538630E+02  0.66505538630E+02  0.00000000000E+00 0.  1.
         21    1    1    2  503  505 -0.39406183318E+02 -0.63363265176E+01  0.31045017458E+03  0.31300528305E+03  0.00000000000E+00 0.  1.
         21    1    1    2  504  502  0.29927620871E+03  0.22201364469E+02  0.45005692322E+03  0.54093473157E+03  0.00000000000E+00 0.  1.
         21    1    1    2  505  506 -0.24661106331E+03  0.21042433168E+02  0.85764048017E+03  0.89264046165E+03  0.00000000000E+00 0.  1.
         21    1    1    2  506  501 -0.13258962078E+02 -0.36907471119E+02  0.16567742208E+03  0.17025560104E+03  0.00000000000E+00 0.  1.
<scales pt_clust_3="33.89332" pt_clust_4="295.58840" pt_clust_5="33.89332" pt_clust_6="39.21685"></scales>
<clustering>
<clus scale="   33.893">  3  5 -1 -1</clus>
<clus scale="   39.217">  1  6  2 -1</clus>
<clus scale="  295.588">  2  4  1 -1</clus>
<clus scale="   39.217">  1  3  2 -1</clus>
</clustering>
</event>
<event>
 6    0  0.3446372E+002  0.7521273E+02  0.7546771E-02  0.1343214E+00
         21   -1    0    0  503  501  0.00000000000E+00  0.00000000000E+00  0.18136574934E+03  0.18136574934E+03  0.00000000000E+00 0.  1.
         21   -1    0    0  504  502 -0.00000000000E+00 -0.00000000000E+00 -0.11452036681E+04  0.11452036681E+04  0.00000000000E+00 0.  1.
         21    1    1    2  503  502  0.64993344415E+02  0.51782773193E+02 -0.73963745890E+03  0.74429104591E+03  0.00000000000E+00 0.  1.
         21    1    1    2  504  506 -0.26325386488E+02 -0.17325879921E+02 -0.26708385246E+03  0.26893678873E+03  0.00000000000E+00 0. -1.
         21    1    1    2  505  501  0.37830318482E+01 -0.77174888813E+02  0.16221324572E+03  0.17967585225E+03  0.00000000000E+00 0.  1.
         21    1    1    2  506  505 -0.42450989776E+02  0.42717995541E+02 -0.11932985312E+03  0.13366573054E+03  0.00000000000E+00 0.  1.
<scales pt_clust_3="56.60403" pt_clust_4="31.51527" pt_clust_5="14000.00000" pt_clust_6="75.21273"></scales>
<clustering>
<clus scale="   31.515">  2  4  1 -1</clus>
<clus scale="   56.604">  2  3  1 -1</clus>
<clus scale="   75.213">  2  6  1 -1</clus>
<clus scale="   75.213">  1  3  2 -1</clus>
</clustering>
</event>
<event>
 6    0  0.3446372E+002  0.9868820E+02  0.7546771E-02  0.1283079E+00
         21   -1    0    0  503  501  0.00000000000E+00  0.00000000000E+00  0.20409816063E+03  0.20409816063E+03  0.00000000000E+00 0.  1.
         21   -1    0    0  505  502 -0.00000000000E+00 -0.00000000000E+00 -0.31795604989E+03  0.31795604989E+03  0.00000000000E+00 0.  1.
         21    1    1    2  503  502 -0.20112487370E+02 -0.86426756341E+02 -0.15930905156E+02  0.90154811846E+02  0.00000000000E+00 0.  1.
         21    1    1    2  504  501  0.51581012869E+02  0.54563056678E+02  0.26141748973E+02  0.79505465737E+02  0.00000000000E+00 0.  1.
         21    1    1    2  505  506  0.79092845804E+02  0.57715422331E+02 -0.19522087454E+03  0.21839857621E+03  0.00000000000E+00 0.  1.
         21    1    1    2  506  504 -0.11056137130E+03 -0.25851722669E+02  0.71152141463E+02  0.13399535673E+03  0.00000000000E+00 0.  1.
<scales pt_clust_3="73.42068" pt_clust_4="75.08481" pt_clust_5="14000.00000" pt_clust_6="98.68820"></scales>
<clustering>
<clus scale="   75.085">  1  4  2 -1</clus>
<clus scale="   73.421">  1  3  2 -1</clus>
<clus scale="   98.688">  1  6  2 -1</clus>
<clus scale="   75.085">  1  3  2 -1</clus>
</clustering>
</event>
<event>
 6    0  0.3446372E+002  0.6586004E+02  0.7546771E-02  0.1374765E+00
         21   -1    0    0  504  501  0.00000000000E+00  0.00000000000E+00  0.29935258671E+03  0.29935258671E+03  0.00000000000E+00 0.  1.
         21   -1    0    0  506  502 -0.00000000000E+00 -0.00000000000E+00 -0.19349679033E+03  0.19349679033E+03  0.00000000000E+00 0. -1.
         21    1    1    2  503  501  0.31553113191E+02 -0.64252989120E+02  0.23082371913E+03  0.24166843997E+03  0.00000000000E+00 0.  1.
         21    1    1    2  504  505  0.27744084066E+02  0.24164936525E+02  0.20580336373E+02  0.42157189223E+02  0.00000000000E+00 0. -1.
         21    1    1    2  505  502 -0.64839425032E+02 -0.35548219673E+02 -0.65968895276E+02  0.99094510970E+02  0.00000000000E+00 0. -1.
         21    1    1    2  506  503  0.55422277750E+01  0.75636272267E+02 -0.79579363843E+02  0.10992923688E+03  0.00000000000E+00 0. -1.
<scales pt_clust_3="70.58312" pt_clust_4="36.79237" pt_clust_5="14000.00000" pt_clust_6="65.86004"></scales>
<clustering>
<clus scale="   36.792">  1  4  2 -1</clus>
<clus scale="   70.583">  1  3  2 -1</clus>
<clus scale="   65.860">  2  6  1 -1</clus>
<clus scale="   36.792">  1  3  2 -1</clus>
</clustering>
</event>
<event>
 6    0  0.3446372E+002  0.1445459E+03  0.7546771E-02  0.1207340E+00
         21   -1    0    0  503  501  0.00000000000E+00  0.00000000000E+00  0.14356096645E+03  0.14356096645E+03  0.00000000000E+00 0.  1.
         21   -1    0    0  504  502 -0.00000000000E+00 -0.00000000000E+00 -0.11188083670E+04  0.11188083670E+04  0.00000000000E+00 0. -1.
         21    1    1    2  503  506 -0.46178967780E+02  0.72771972001E+02  0.92607175273E+02  0.12650828386E+03  0.00000000000E+00 0.  1.
         21    1    1    2  504  505 -0.28064052812E+02  0.11431309937E+03 -0.51153741938E+03  0.52490533163E+03  0.00000000000E+00 0.  1.
         21    1    1    2  505  501  0.20583561498E+02 -0.19684744669E+03 -0.44245069151E+03  0.48470116019E+03  0.00000000000E+00 0. -1.
         21    1    1    2  506  502  0.53659459095E+02  0.97623753255E+01 -0.11386646497E+03  0.12625455780E+03  0.00000000000E+00 0.  1.
<scales pt_clust_3="85.84357" pt_clust_4="144.54594" pt_clust_5="14000.00000" pt_clust_6="54.54027"></scales>
<clustering>
<clus scale="   54.540">  2  6  1 -1</clus>
<clus scale="   85.844">  1  3  2 -1</clus>
<clus scale="  144.546">  2  4  1 -1</clus>
<clus scale="   85.844">  1  3  2 -1</clus>
</clustering>
</event>
<event>
 6    0  0.3446372E+002  0.1269892E+03  0.7546771E-02  0.1231993E+00
         21   -1    0    0  503  501  0.00000000000E+00  0.00000000000E+00  0.63724999047E+03  0.63724999047E+03  0.00000000000E+00 0.  1.
         21   -1    0    0  505  502 -0.00000000000E+00 -0.00000000000E+00 -0.51734913583E+02  0.51734913583E+02  0.00000000000E+00 0.  1.
         21    1    1    2  503  506 -0.44979849778E+02 -0.11340043018E+03  0.44959662950E+03  0.46585402618E+03  0.00000000000E+00 0.  1.
         21    1    1    2  504  501 -0.14776912986E+02  0.55394060862E+02  0.79180454590E+02  0.97756859223E+02  0.00000000000E+00 0.  1.
         21    1    1    2  505  504  0.83964189562E+01  0.59816017355E+02  0.29994378183E+02  0.67439739813E+02  0.00000000000E+00 0.  1.
         21    1    1    2  506  502  0.51360343808E+02 -0.18096480352E+01  0.26743614623E+02  0.57934278844E+02  0.00000000000E+00 0.  1.
<scales pt_clust_3="118.61511" pt_clust_4="44.18282" pt_clust_5="44.18282" pt_clust_6="51.39221"></scales>
<clustering>
<clus scale="   44.183">  4  5 -1 -1</clus>
<clus scale="   51.392">  2  6  1 -1</clus>
<clus scale="  118.615">  1  3  2 -1</clus>
<clus scale="  118.615">  1  3  2 -1</clus>
</clustering>
</event>
<event>
 6    0  0.3446372E+002  0.1039218E+03  0.7546771E-02  0.1272259E+00
         21   -1    0    0  506  501  0.00000000000E+00  0.00000000000E+00  0.12182966273E+04  0.12182966273E+04  0.00000000000E+00 0.  1.
         21   -1    0    0  505  502 -0.00000000000E+00 -0.00000000000E+00 -0.43039175079E+02  0.43039175079E+02  0.00000000000E+00 0.  1.
         21    1    1    2  503  502  0.92735480268E+02  0.15547384423E+02  0.74859121695E+02  0.12018934464E+03  0.00000000000E+00 0.  1.
         21    1    1    2  504  501 -0.36260253292E+01  0.68408274275E+02  0.67575156841E+03  0.67921500444E+03  0.00000000000E+00 0. -1.
         21    1    1    2  505  504 -0.12199541373E+03 -0.82199191951E+02  0.31929162154E+03  0.35154904027E+03  0.00000000000E+00 0.  1.
         21    1    1    2  506  503  0.32885958791E+02 -0.17564667467E+01  0.10535514057E+03  0.11038241302E+03  0.00000000000E+00 0.  1.
<scales pt_clust_3="103.92183" pt_clust_4="69.31401" pt_clust_5="14000.00000" pt_clust_6="32.93283"></scales>
<clustering>
<clus scale="   32.933">  1  6  2 -1</clus>
<clus scale="   69.314">  1  4  2 -1</clus>
<clus scale="  103.922">  2  3  1 -1</clus>
<clus scale="   32.933">  1  3  2 -1</clus>
</clustering>
</event>
<event>
 6    0  0.3446372E+002  0.1046628E+03  0.7546771E-02  0.1270785E+00
         21   -1    0    0  503  501  0.00000000000E+00  0.00000000000E+00  0.19687206419E+04  0.19687206419E+04  0.00000000000E+00 0. -1.
         21   -1    0    0  505  502 -0.00000000000E+00 -0.00000000000E+00 -0.20884966499E+03  0.20884966499E+03  0.00000000000E+00 0. -1.
         21    1    1    2  503  506 -0.16036472321E+02 -0.13719410536E+03  0.11139339782E+04  0.11224652773E+04  0.00000000000E+00 0. -1.
         21    1    1    2  504  501  0.38377728459E+02  0.36152883831E+02  0.79716975775E+03  0.79891144924E+03  0.00000000000E+00 0.  1.
         21    1    1    2  505  504 -0.78744882279E+02  0.87756008172E+02 -0.15876614518E+03  0.19775884888E+03  0.00000000000E+00 0. -1.
         21    1    1    2  506  502  0.56403626141E+02  0.13285213359E+02  0.75333861710E+01  0.58434731480E+02  0.00000000000E+00 0.  1.
<scales pt_clust_3="104.66276" pt_clust_4="52.72458" pt_clust_5="14000.00000" pt_clust_6="59.23779"></scales>
<clustering>
<clus scale="   52.725">  1  4  2 -1</clus>
<clus scale="   59.238">  2  6  1 -1</clus>
<clus scale="  104.663">  1  3  2 -1</clus>
<clus scale="   52.725">  1  3  2 -1</clus>
</clustering>
</event>
<event>
 6    0  0.3446372E+002  0.1466170E+03  0.7546771E-02  0.1204693E+00
         21   -1    0    0  504  501  0.00000000000E+00  0.00000000000E+00  0.25901142360E+03  0.25901142360E+03  0.00000000000E+00 0. -1.
         21   -1    0    0  503  502 -0.00000000000E+00 -0.00000000000E+00 -0.36551760575E+03  0.36551760575E+03  0.00000000000E+00 0. -1.
         21    1    1    2  503  501 -0.57323865963E+02  0.13785850464E+03 -0.27370284702E+03  0.31177594740E+03  0.00000000000E+00 0. -1.
         21    1    1    2  504  505 -0.38535947417E+02 -0.59988969249E+02  0.73905368805E+02  0.10269225488E+03  0.00000000000E+00 0. -1.
         21    1    1    2  505  506  0.57775518686E+02 -0.96556335624E+02  0.11628122792E+03  0.16180995172E+03  0.00000000000E+00 0. -1.
         21    1    1    2  506  502  0.38084294693E+02  0.18686800229E+02 -0.22989931854E+02  0.48250875347E+02  0.00000000000E+00 0. -1.
<scales pt_clust_3="14000.00000" pt_clust_4="69.72258" pt_clust_5="146.61700" pt_clust_6="42.42181"></scales>
<clustering>
<clus scale="   42.422">  2  6  1 -1</clus>
<clus scale="   69.723">  1  4  2 -1</clus>
<clus scale="  146.617">  1  5  2 -1</clus>
<clus scale="   69.723">  1  3  2 -1</clus>
</clustering>
</event>
<event>
 6    0  0.3446372E+002  0.1222246E+03  0.7546771E-02  0.1239472E+00
         21   -1    0    0  505  501  0.00000000000E+00  0.00000000000E+00  0.14979626714E+04  0.14979626714E+04  0.00000000000E+00 0.  1.
         21   -1    0    0  503  502 -0.00000000000E+00 -0.00000000000E+00 -0.77393119865E+02  0.77393119865E+02  0.00000000000E+00 0. -1.
         21    1    1    2  503  501 -0.41342772200E+02  0.31102664839E+02  0.89978197410E+03  0.90126810744E+03  0.00000000000E+00 0.  1.
         21    1    1    2  504  502 -0.10678910051E+03 -0.30908645555E+02 -0.18785470583E+02  0.11274817188E+03  0.00000000000E+00 0. -1.
         21    1    1    2  505  506  0.92173864677E+02 -0.41219476385E+01  0.40808699716E+03  0.41838739110E+03  0.00000000000E+00 0.  1.
         21    1    1    2  506  504  0.55958008032E+02  0.39279283542E+01  0.13148605089E+03  0.14295212087E+03  0.00000000000E+00 0.  1.
<scales pt_clust_3="51.73587" pt_clust_4="113.66169" pt_clust_5="35.04348" pt_clust_6="35.04348"></scales>
<clustering>
<clus scale="   35.043">  5  6 -1 -1</clus>
<clus scale="   51.736">  1  3  2 -1</clus>
<clus scale="  113.662">  2  4  1 -1</clus>
<clus scale="   51.736">  1  3  2 -1</clus>
</clustering>
</event>
<event>
 6    0  0.3446372E+002  0.9387432E+02  0.7546771E-02  0.1293732E+00
         21   -1    0    0  504  501  0.00000000000E+00  0.00000000000E+00  0.25179142094E+04  0.25179142094E+04  0.00000000000E+00 0.  1.
         21   -1    0    0  503  502 -0.00000000000E+00 -0.00000000000E+00 -0.25333141973E+03  0.25333141973E+03  0.00000000000E+00 0.  1.
         21    1    1    2  503  506  0.28001417329E+02 -0.13111676208E+02 -0.13942590267E+02  0.33917418074E+02  0.00000000000E+00 0. -1.
         21    1    1    2  504  502 -0.64351177427E+02  0.95697491956E+01  0.29084903154E+03  0.29803659723E+03  0.00000000000E+00 0.  1.
         21    1    1    2  505  501  0.45830430723E+02 -0.10146014392E+03  0.21996928260E+04  0.22025083696E+04  0.00000000000E+00 0.  1.
         21    1    1    2  506  505 -0.94806706254E+01  0.10500207094E+03 -0.21201647759E+03  0.23678324431E+03  0.00000000000E+00 0.  1.
<scales pt_clust_3="30.91918" pt_clust_4="64.59489" pt_clust_5="93.87432" pt_clust_6="14000.00000"></scales>
<clustering>
<clus scale="   30.919">  2  3  1 -1</clus>
<clus scale="   64.595">  1  4  2 -1</clus>
<clus scale="   93.874">  1  5  2 -1</clus>
<clus scale="   64.595">  1  3  2 -1</clus>
</clustering>
</event>
<event>
 6    0  0.3446372E+002  0.1721052E+03  0.7546771E-02  0.1175670E+00
         21   -1    0    0  503  501  0.00000000000E+00  0.00000000000E+00  0.18813189860E+03  0.18813189860E+03  0.00000000000E+00 0.  1.
         21   -1    0    0  506  502 -0.00000000000E+00 -0.00000000000E+00 -0.98442381586E+03  0.98442381586E+03  0.00000000000E+00 0.  1.
         21    1    1    2  503  504 -0.24795809441E+02  0.21997214345E+03  0.51757806290E+02  0.22733553742E+03  0.00000000000E+00 0.  1.
         21    1    1    2  504  502  0.52134264222E+02 -0.54061784331E+02 -0.51428190693E+03  0.51973698909E+03  0.00000000000E+00 0.  1.
         21    1    1    2  505  501 -0.27754605125E+02 -0.47022361806E+02  0.15315752260E+02  0.56709724764E+02  0.00000000000E+00 0.  1.
         21    1    1    2  506  505  0.41615034467E+00 -0.11888799732E+03 -0.34908356889E+03  0.36877346319E+03  0.00000000000E+00 0.  1.
<scales pt_clust_3="172.10515" pt_clust_4="75.37167" pt_clust_5="54.60239" pt_clust_6="14000.00000"></scales>
<clustering>
<clus scale="   54.602">  1  5  2 -1</clus>
<clus scale="   75.372">  2  4  1 -1</clus>
<clus scale="  172.105">  1  3  2 -1</clus>
<clus scale="   54.602">  1  3  2 -1</clus>
</clustering>
</event>
<event>
 6    0  0.3446372E+002  0.1148111E+03  0.7546771E-02  0.1251911E+00
         21   -1    0    0  504  501  0.00000000000E+00  0.00000000000E+00  0.14777943599E+04  0.14777943599E+04  0.00000000000E+00 0. -1.
         21   -1    0    0  505  502 -0.00000000000E+00 -0.00000000000E+00 -0.73117369412E+02  0.73117369412E+02  0.00000000000E+00 0. -1.
         21    1    1    2  503  501 -0.69105069033E+01 -0.36568608888E+02  0.63928360623E+03  0.64036594807E+03  0.00000000000E+00 0. -1.
         21    1    1    2  504  506 -0.42545798961E+02  0.37452835926E+02  0.63490186396E+03  0.63742704429E+03  0.00000000000E+00 0. -1.
         21    1    1    2  505  503  0.58687877555E+02 -0.11167246425E+03  0.89293377222E+02  0.15455844674E+03  0.00000000000E+00 0. -1.
         21    1    1    2  506  502 -0.92315716910E+01  0.11078823721E+03  0.41198143077E+02  0.11856029021E+03  0.00000000000E+00 0. -1.
<scales pt_clust_3="37.21583" pt_clust_4="48.76470" pt_clust_5="14000.00000" pt_clust_6="114.81107"></scales>
<clustering>
<clus scale="   37.216">  1  3  2 -1</clus>
<clus scale="   48.765">  1  4  2 -1</clus>
<clus scale="  114.811">  2  6  1 -1</clus>
<clus scale="   37.216">  1  3  2 -1</clus>
</clustering>
</event>
<event>
 6    0  0.3446372E+002  0.8161444E+02  0.7546771E-02  0.1324531E+00
         21   -1    0    0  503  501  0.00000000000E+00  0.00000000000E+00  0.43785497705E+03  0.43785497705E+03  0.00000000000E+00 0.  1.
         21   -1    0    0  504  502 -0.00000000000E+00 -0.00000000000E+00 -0.31342483185E+03  0.31342483185E+03  0.00000000000E+00 0.  1.
         21    1    1    2  503  502 -0.45288705636E+02 -0.59139900110E+02  0.22313252221E+03  0.23523757589E+03  0.00000000000E+00 0.  1.
         21    1    1    2  504  505  0.16231471305E+02 -0.80694696858E+02 -0.30612668276E+02  0.87819304374E+02  0.00000000000E+00 0. -1.
         21    1    1    2  505  506  0.63144032390E+02  0.10802842673E+03 -0.22885761285E+03  0.26083158698E+03  0.00000000000E+00 0.  1.
         21    1    1    2  506  501 -0.34086798060E+02  0.31806170238E+02  0.16076790411E+03  0.16739134165E+03  0.00000000000E+00 0.  1.
<scales pt_clust_3="14000.00000" pt_clust_4="78.40223" pt_clust_5="81.61444" pt_clust_6="46.62126"></scales>
<clustering>
<clus scale="   46.621">  1  6  2 -1</clus>
<clus scale="   78.402">  2  4  1 -1</clus>
<clus scale="   81.614">  2  5  1 -1</clus>
<clus scale="   46.621">  1  3  2 -1</clus>
</clustering>
</event>
<event>
 6    0  0.3446372E+002  0.1355861E+03  0.7546771E-02  0.1219395E+00
         21   -1    0    0  505  501  0.00000000000E+00  0.00000000000E+00  0.94083009416E+03  0.94083009416E+03  0.00000000000E+00 0. -1.
         21   -1    0    0  506  502 -0.00000000000E+00 -0.00000000000E+00 -0.83652312803E+02  0.83652312803E+02  0.00000000000E+00 0. -1.
         21    1    1    2  503  502  0.55420495200E+02 -0.25833612577E+02  0.22696040285E+02  0.65222059701E+02  0.00000000000E+00 0. -1.
         21    1    1    2  504  503 -0.18335278560E+03 -0.18039531539E+02  0.13012006955E+03  0.22555465232E+03  0.00000000000E+00 0. -1.
         21    1    1    2  505  504  0.10911096494E+03 -0.10204456518E+02  0.21809514991E+03  0.24407955265E+03  0.00000000000E+00 0. -1.
         21    1    1    2  506  501  0.18821325454E+02  0.54077600634E+02  0.48626652161E+03  0.48962614230E+03  0.00000000000E+00 0. -1.
<scales pt_clust_3="60.83575" pt_clust_4="135.58609" pt_clust_5="14000.00000" pt_clust_6="57.25932"></scales>
<clustering>
<clus scale="   57.259">  1  6  2 -1</clus>
<clus scale="   60.836">  2  3  1 -1</clus>
<clus scale="  135.586">  2  4  1 -1</clus>
<clus scale="   57.259">  1  3  2 -1</clus>
</clustering>
</event>
<event>
 6    0  0.3446372E+002  0.1473716E+03  0.7546771E-02  0.1203740E+00
         21   -1    0    0  505  501  0.00000000000E+00  0.00000000000E+00  0.98952056851E+03  0.98952056851E+03  0.00000000000E+00 0.  1.
         21   -1    0    0  504  502 -0.00000000000E+00 -0.00000000000E+00 -0.11294572588E+03  0.11294572588E+03  0.00000000000E+00 0.  1.
         21    1    1    2  503  502 -0.67128697011E+02  0.47874279870E+01 -0.10238903806E+02  0.68073611482E+02  0.00000000000E+00 0.  1.
         21    1    1    2  504  506 -0.35444843251E+02 -0.11807071850E+03  0.19351341441E+01  0.12329142803E+03  0.00000000000E+00 0.  1.
         21    1    1    2  505  503 -0.33372209113E+02  0.15561207204E+02  0.68885910010E+02  0.78109692795E+02  0.00000000000E+00 0.  1.
         21    1    1    2  506  501  0.13594574937E+03  0.97722083310E+02  0.81599270228E+03  0.83299156209E+03  0.00000000000E+00 0.  1.
<scales pt_clust_3="68.38624" pt_clust_4="14000.00000" pt_clust_5="36.82194" pt_clust_6="147.37162"></scales>
<clustering>
<clus scale="   36.822">  1  5  2 -1</clus>
<clus scale="   68.386">  2  3  1 -1</clus>
<clus scale="  147.372">  1  6  2 -1</clus>
<clus scale="   36.822">  1  3  2 -1</clus>
</clustering>
</event>
<event>
 6    0  0.3446372E+002  0.1449782E+03  0.7546771E-02  0.1206783E+00
         21   -1    0    0  506  501  0.00000000000E+00  0.00000000000E+00  0.68786517789E+02  0.68786517789E+02  0.00000000000E+00 0.  1.
         21   -1    0    0  503  502 -0.00000000000E+00 -0.00000000000E+00 -0.66299852438E+03  0.66299852438E+03  0.00000000000E+00 0.  1.
         21    1    1    2  503  501  0.30929495430E+02  0.25622754962E+02 -0.18426994978E+03  0.18859632460E+03  0.00000000000E+00 0.  1.
         21    1    1    2  504  502 -0.39807832814E+02  0.47332975532E+02 -0.24655215575E+03  0.25419095112E+03  0.00000000000E+00 0.  1.
         21    1    1    2  505  504 -0.34490358141E+02  0.59336111529E+02 -0.12817609517E+03  0.14539418939E+03  0.00000000000E+00 0.  1.
         21    1    1    2  506  505  0.43368695526E+02 -0.13229184202E+03 -0.35213805883E+02  0.14360357705E+03  0.00000000000E+00 0.  1.
<scales pt_clust_3="40.16415" pt_clust_4="46.29644" pt_clust_5="46.29644" pt_clust_6="136.63889"></scales>
<clustering>
<clus scale="   40.164">  2  3  1 -1</clus>
<clus scale="   46.296">  4  5 -1 -1</clus>
<clus scale="  136.639">  1  6  2 -1</clus>
<clus scale="  136.639">  1  3  2 -1</clus>
</clustering>
</event>
<event>
 6    0  0.3446372E+002  0.3830251E+03  0.7546771E-02  0.1049821E+00
         21   -1    0    0  506  501  0.00000000000E+00  0.00000000000E+00  0.37394551191E+03  0.37394551191E+03  0.00000000000E+00 0. -1.
         21   -1    0    0  505  502 -0.00000000000E+00 -0.00000000000E+00 -0.61828967113E+03  0.61828967113E+03  0.00000000000E+00 0. -1.
         21    1    1    2  503  501  0.97788724886E+02  0.21960489612E+03  0.10419559821E+03  0.26200318281E+03  0.00000000000E+00 0. -1.
         21    1    1    2  504  503 -0.26219736902E+02  0.11123142471E+03  0.62075473408E+01  0.11444840799E+03  0.00000000000E+00 0. -1.
         21    1    1    2  505  504  0.26727153585E+02 -0.37388627650E+03 -0.34254548487E+03  0.50778213605E+03  0.00000000000E+00 0. -1.
         21    1    1    2  506  502 -0.98296141570E+02  0.43049955664E+02 -0.12201819903E+02  0.10800145619E+03  0.00000000000E+00 0. -1.
<scales pt_clust_3="84.30934" pt_clust_4="84.30934" pt_clust_5="362.98220" pt_clust_6="107.30997"></scales>
<clustering>
<clus scale="   84.309">  3  4 -1 -1</clus>
<clus scale="  107.310">  1  6  2 -1</clus>
<clus scale="  362.982">  2  5  1 -1</clus>
<clus scale="  107.310">  1  3  2 -1</clus>
</clustering>
</event>
<event>
 6    0  0.3446372E+002  0.1444262E+03  0.7546771E-02  0.1207494E+00
         21   -1    0    0  503  501  0.00000000000E+00  0.00000000000E+00  0.16525177920E+04  0.16525177920E+04  0.00000000000E+00 0. -1.
         21   -1    0    0  505  502 -0.00000000000E+00 -0.00000000000E+00 -0.16628725157E+04  0.16628725157E+04  0.00000000000E+00 0.  1.
         21    1    1    2  503  506  0.62859193027E+01 -0.33983361005E+02  0.15360258099E+04  0.15364145503E+04  0.00000000000E+00 0. -1.
         21    1    1    2  504  501  0.53653151641E+02  0.16563242836E+03  0.43268431372E+02  0.17940155840E+03  0.00000000000E+00 0. -1.
         21    1    1    2  505  504 -0.42542405087E+02 -0.92932893148E+02 -0.14504782672E+04  0.14540748201E+04  0.00000000000E+00 0.  1.
         21    1    1    2  506  502 -0.17396665857E+02 -0.38716174204E+02 -0.13917069786E+03  0.14549937893E+03  0.00000000000E+00 0. -1.
<scales pt_clust_3="34.55983" pt_clust_4="144.42625" pt_clust_5="14000.00000" pt_clust_6="43.22173"></scales>
<clustering>
<clus scale="   34.560">  1  3  2 -1</clus>
<clus scale="   43.222">  2  6  1 -1</clus>
<clus scale="  144.426">  1  4  2 -1</clus>
<clus scale="   34.560">  1  3  2 -1</clus>
</clustering>
</event>
<event>
 6    0  0.3446372E+002  0.9185393E+02  0.7546771E-02  0.1298423E+00
         21   -1    0    0  504  501  0.00000000000E+00  0.00000000000E+00  0.56777625814E+03  0.56777625814E+03  0.00000000000E+00 0.  1.
         21   -1    0    0  506  502 -0.00000000000E+00 -0.00000000000E+00 -0.11994905386E+03  0.11994905386E+03  0.00000000000E+00 0. -1.
         21    1    1    2  503  505 -0.75825060087E+02  0.54503699879E+02 -0.61466913470E+02  0.11179568189E+03  0.00000000000E+00 0. -1.
         21    1    1    2  504  502  0.87623534698E+02  0.22415777529E+02  0.38403440313E+03  0.39454121927E+03  0.00000000000E+00 0.  1.
         21    1    1    2  505  501  0.46576639011E+01 -0.39506995920E+02  0.13383910423E+03  0.13962593735E+03  0.00000000000E+00 0.  1.
         21    1    1    2  506  503 -0.16456138512E+02 -0.37412481488E+02 -0.85793896093E+01  0.41762473489E+02  0.00000000000E+00 0. -1.
<scales pt_clust_3="91.85393" pt_clust_4="14000.00000" pt_clust_5="39.78061" pt_clust_6="42.19867"></scales>
<clustering>
<clus scale="   39.781">  1  5  2 -1</clus>
<clus scale="   42.199">  2  6  1 -1</clus>
<clus scale="   91.854">  2  3  1 -1</clus>
<clus scale="   39.781">  1  3  2 -1</clus>
</clustering>
</event>
<event>
 6    0  0.3446372E+002  0.1204906E+03  0.7546771E-02  0.1242290E+00
         21   -1    0    0  504  501  0.00000000000E+00  0.00000000000E+00  0.41841963063E+02  0.41841963063E+02  0.00000000000E+00 0.  1.
         21   -1    0    0  505  502 -0.00000000000E+00 -0.00000000000E+00 -0.18143972517E+04  0.18143972517E+04  0.00000000000E+00 0.  1.
         21    1    1    2  503  501 -0.32803582823E+02  0.16078443365E+02  0.20619571941E+02  0.41949471201E+02  0.00000000000E+00 0.  1.
         21    1    1    2  504  506  0.11027008599E+02 -0.48955334311E+02 -0.53465254274E+03  0.53700238467E+03  0.00000000000E+00 0.  1.
         21    1    1    2  505  503  0.54195161053E+02  0.97197332892E+02 -0.38390819407E+03  0.39971231964E+03  0.00000000000E+00 0.  1.
         21    1    1    2  506  502 -0.32418586829E+02 -0.64320441947E+02 -0.87461412377E+03  0.87757503926E+03  0.00000000000E+00 0.  1.
<scales pt_clust_3="36.53206" pt_clust_4="34.49322" pt_clust_5="113.18234" pt_clust_6="34.49322"></scales>
<clustering>
<clus scale="   34.493">  4  6 -1 -1</clus>
<clus scale="   36.532">  1  3  2 -1</clus>
<clus scale="  113.182">  1  5  2 -1</clus>
<clus scale="   36.532">  1  3  2 -1</clus>
</clustering>
</event>
<event>
 6    0  0.3446372E+002  0.1168253E+03  0.7546771E-02  0.1248428E+00
         21   -1    0    0  505  501  0.00000000000E+00  0.00000000000E+00  0.12491341067E+04  0.12491341067E+04  0.00000000000E+00 0. -1.
         21   -1    0    0  506  502 -0.00000000000E+00 -0.00000000000E+00 -0.70294429670E+03  0.70294429670E+03  0.00000000000E+00 0. -1.
         21    1    1    2  503  502  0.41210226941E+02  0.95161486630E+01 -0.37937358036E+03  0.38172392297E+03  0.00000000000E+00 0. -1.
         21    1    1    2  504  503  0.74645305198E+02 -0.33743911438E+02 -0.30806506499E+03  0.31877054038E+03  0.00000000000E+00 0. -1.
         21    1    1    2  505  504 -0.80736233105E+02 -0.10797462340E+02  0.11597077250E+04  0.11625648076E+04  0.00000000000E+00 0. -1.
         21    1    1    2  506  501 -0.35119299033E+02  0.35025225115E+02  0.73920730330E+02  0.89019132390E+02  0.00000000000E+00 0. -1.
<scales pt_clust_3="42.29468" pt_clust_4="116.82529" pt_clust_5="14000.00000" pt_clust_6="49.08098"></scales>
<clustering>
<clus scale="   42.295">  2  3  1 -1</clus>
<clus scale="   49.081">  1  6  2 -1</clus>
<clus scale="  116.825">  2  4  1 -1</clus>
<clus scale="   49.081">  1  3  2 -1</clus>
</clustering>
</event>
<event>
 6    0  0.3446372E+002  0.7881851E+02  0.7546771E-02  0.1332438E+00
         21   -1    0    0  505  501  0.00000000000E+00  0.00000000000E+00  0.43093967628E+03  0.43093967628E+03  0.00000000000E+00 0.  1.
         21   -1    0    0  504  502 -0.00000000000E+00 -0.00000000000E+00 -0.10770375074E+03  0.10770375074E+03  0.00000000000E+00 0. -1.
         21    1    1    2  503  502 -0.27128090595E+02 -0.40686282209E+02 -0.39539219734E+02  0.62886061703E+02  0.00000000000E+00 0. -1.
         21    1    1    2  504  506 -0.61757791384E+02  0.24661171014E+02  0.90140248548E+02  0.11201545679E+03  0.00000000000E+00 0.  1.
         21    1    1    2  505  503  0.78750089629E+02 -0.35963940577E+02  0.57675670808E+00  0.86575483173E+02  0.00000000000E+00 0. -1.
         21    1    1    2  506  501  0.10135792350E+02  0.51989051772E+02  0.27205814002E+03  0.27716642535E+03  0.00000000000E+00 0.  1.
<scales pt_clust_3="48.90099" pt_clust_4="14000.00000" pt_clust_5="78.81851" pt_clust_6="50.93473"></scales>
<clustering>
<clus scale="   48.901">  2  3  1 -1</clus>
<clus scale="   50.935">  1  6  2 -1</clus>
<clus scale="   78.819">  2  5  1 -1</clus>
<clus scale="   50.935">  1  3  2 -1</clus>
</clustering>
</event>
<event>
 6    0  0.3446372E+002  0.1003637E+03  0.7546771E-02  0.1279533E+00
         21   -1    0    0  506  501  0.00000000000E+00  0.00000000000E+00  0.20312448379E+02  0.20312448379E+02  0.00000000000E+00 0.  1.
         21   -1    0    0  505  502 -0.00000000000E+00 -0.00000000000E+00 -0.36939480058E+04  0.36939480058E+04  0.00000000000E+00 0.  1.
         21    1    1    2  503  502 -0.13845271863E+02 -0.30787774266E+02 -0.26513757660E+03  0.26727796977E+03  0.00000000000E+00 0.  1.
         21    1    1    2  504  501  0.14876673344E+02 -0.46987680568E+02 -0.25333033068E+02  0.55415883097E+02  0.00000000000E+00 0.  1.
         21    1    1    2  505  504 -0.30949495664E+02 -0.59852922469E+02 -0.20245186838E+04  0.20256396878E+04  0.00000000000E+00 0.  1.
         21    1    1    2  506  503  0.29918094182E+02  0.13762837730E+03 -0.13586462639E+04  0.13659269135E+04  0.00000000000E+00 0.  1.
<scales pt_clust_3="33.75765" pt_clust_4="49.58369" pt_clust_5="100.36371" pt_clust_6="14000.00000"></scales>
<clustering>
<clus scale="   33.758">  2  3  1 -1</clus>
<clus scale="   49.584">  1  4  2 -1</clus>
<clus scale="  100.364">  2  5  1 -1</clus>
<clus scale="   49.584">  1  3  2 -1</clus>
</clustering>
</event>
<event>
 6    0  0.3446372E+002  0.1194912E+03  0.7546771E-02  0.1243939E+00
         21   -1    0    0  505  501  0.00000000000E+00  0.00000000000E+00  0.48212914552E+03  0.48212914552E+03  0.00000000000E+00 0.  1.
         21   -1    0    0  504  502 -0.00000000000E+00 -0.00000000000E+00 -0.50858354447E+03  0.50858354447E+03  0.00000000000E+00 0.  1.
         21    1    1    2  503  501 -0.62168505753E+02  0.64472191008E+02  0.17875989274E+03  0.19994170594E+03  0.00000000000E+00 0.  1.
         21    1    1    2  504  503 -0.18626694036E+02  0.38852604120E+02  0.29350166674E+02  0.52133586692E+02  0.00000000000E+00 0. -1.
         21    1    1    2  505  506  0.40425410113E+02 -0.57946162791E+01  0.24459925621E+03  0.24798505499E+03  0.00000000000E+00 0.  1.
         21    1    1    2  506  502  0.40369789676E+02 -0.97530178849E+02 -0.47916371457E+03  0.49065234236E+03  0.00000000000E+00 0.  1.
<scales pt_clust_3="38.16852" pt_clust_4="38.16852" pt_clust_5="40.83860" pt_clust_6="106.06543"></scales>
<clustering>
<clus scale="   38.169">  3  4 -1 -1</clus>
<clus scale="   40.839">  1  5  2 -1</clus>
<clus scale="  106.065">  2  6  1 -1</clus>
<clus scale="   40.839">  1  3  2 -1</clus>
</clustering>
</event>
<event>
 6    0  0.3446372E+002  0.1355982E+03  0.7546771E-02  0.1219378E+00
         21   -1    0    0  505  501  0.00000000000E+00  0.00000000000E+00  0.14556378129E+03  0.14556378129E+03  0.00000000000E+00 0.  1.
         21   -1    0    0  504  502 -0.00000000000E+00 -0.00000000000E+00 -0.15638741117E+03  0.15638741117E+03  0.00000000000E+00 0.  1.
         21    1    1    2  503  501  0.40281021528E+02  0.39113646521E+01 -0.11142008769E+01  0.40485811247E+02  0.00000000000E+00 0. -1.
         21    1    1    2  504  506 -0.84991782038E+02  0.58108477581E+02 -0.19228781817E+02  0.10473750155E+03  0.00000000000E+00 0.  1.
         21    1    1    2  505  502  0.45657067898E+02 -0.10385421689E+03  0.15341118823E+02  0.11447976302E+03  0.00000000000E+00 0.  1.
         21    1    1    2  506  503 -0.94630738772E+00  0.41834374658E+02 -0.58217660100E+01  0.42248116647E+02  0.00000000000E+00 0. -1.
<scales pt_clust_3="40.47048" pt_clust_4="38.26879" pt_clust_5="121.58770" pt_clust_6="38.26879"></scales>
<clustering>
<clus scale="   38.269">  4  6 -1 -1</clus>
<clus scale="   40.470">  1  3  2 -1</clus>
<clus scale="  121.588">  1  5  2 -1</clus>
<clus scale="   40.470">  1  3  2 -1</clus>
</clustering>
</event>
<event>
 6    0  0.3446372E+002  0.9199773E+02  0.7546771E-02  0.1298085E+00
         21   -1    0    0  502  501  0.00000000000E+00  0.00000000000E+00  0.77642076201E+03  0.77642076201E+03  0.00000000000E+00 0. -1.
         21   -1    0    0  503  502 -0.00000000000E+00 -0.00000000000E+00 -0.44275680423E+03  0.44275680423E+03  0.00000000000E+00 0. -1.
         21    1    1    2  503  504  0.24585935544E+02 -0.17563680198E+02 -0.24093768943E+03  0.24282487779E+03  0.00000000000E+00 0. -1.
         21    1    1    2  504  506  0.52964814324E+02 -0.33184112686E+02 -0.18323823676E+03  0.19360451519E+03  0.00000000000E+00 0.  1.
         21    1    1    2  505  501  0.52317279630E+02 -0.37035777083E+01  0.26721837680E+03  0.27231686532E+03  0.00000000000E+00 0. -1.
         21    1    1    2  506  505 -0.12986802950E+03  0.54451370592E+02  0.49062150716E+03  0.51043130794E+03  0.00000000000E+00 0. -1.
<scales pt_clust_3="30.21508" pt_clust_4="91.99773" pt_clust_5="52.77556" pt_clust_6="14000.00000"></scales>
<clustering>
<clus scale="   30.215">  2  3  1 -1</clus>
<clus scale="   52.776">  1  5  2 -1</clus>
<clus scale="   91.998">  2  4  1 -1</clus>
<clus scale="   52.776">  1  3  2 -1</clus>
</clustering>
</event>
<event>
 6    0  0.3446372E+002  0.2364368E+03  0.7546771E-02  0.1122190E+00
         21   -1    0    0  505  501  0.00000000000E+00  0.00000000000E+00  0.24025993738E+03  0.24025993738E+03  0.00000000000E+00 0. -1.
         21   -1    0    0  504  502 -0.00000000000E+00 -0.00000000000E+00 -0.20632147124E+04  0.20632147124E+04  0.00000000000E+00 0. -1.
         21    1    1    2  503  501  0.86879053233E+01 -0.19046872372E+03 -0.25125001905E+03  0.31540511487E+03  0.00000000000E+00 0. -1.
         21    1    1    2  504  503 -0.13514348492E+03  0.34804639659E+02 -0.46205900575E+03  0.48267343956E+03  0.00000000000E+00 0. -1.
         21    1    1    2  505  506  0.48884372092E+02  0.24594993962E+03  0.11436637438E+03  0.27560972809E+03  0.00000000000E+00 0. -1.
         21    1    1    2  506  502  0.77571207502E+02 -0.90285855557E+02 -0.12240121246E+04  0.12297863673E+04  0.00000000000E+00 0. -1.
<scales pt_clust_3="14000.00000" pt_clust_4="92.75383" pt_clust_5="236.43678" pt_clust_6="119.03289"></scales>
<clustering>
<clus scale="  119.033">  2  6  1 -1</clus>
<clus scale="   92.754">  2  4  1 -1</clus>
<clus scale="  236.437">  1  5  2 -1</clus>
<clus scale="  236.437">  1  3  2 -1</clus>
</clustering>
</event>
<event>
 6    0  0.3446372E+002  0.1317231E+03  0.7546771E-02  0.1224921E+00
         21   -1    0    0  506  501  0.00000000000E+00  0.00000000000E+00  0.54556591709E+03  0.54556591709E+03  0.00000000000E+00 0.  1.
         21   -1    0    0  504  502 -0.00000000000E+00 -0.00000000000E+00 -0.52734762345E+03  0.52734762345E+03  0.00000000000E+00 0.  1.
         21    1    1    2  503  501 -0.76369876668E+01 -0.42176688743E+02  0.29408181589E+03  0.29718901576E+03  0.00000000000E+00 0.  1.
         21    1    1    2  504  503  0.39763408426E+02  0.16982871162E+03  0.20231988167E+03  0.26712591499E+03  0.00000000000E+00 0.  1.
         21    1    1    2  505  502  0.41207940250E+02 -0.46363910371E+02 -0.20878063355E+03  0.21780050383E+03  0.00000000000E+00 0.  1.
         21    1    1    2  506  505 -0.73334361009E+02 -0.81288112508E+02 -0.26940277038E+03  0.29079810596E+03  0.00000000000E+00 0.  1.
<scales pt_clust_3="42.86253" pt_clust_4="131.72315" pt_clust_5="62.51015" pt_clust_6="14000.00000"></scales>
<clustering>
<clus scale="   42.863">  1  3  2 -1</clus>
<clus scale="   62.510">  2  5  1 -1</clus>
<clus scale="  131.723">  1  4  2 -1</clus>
<clus scale="   42.863">  1  3  2 -1</clus>
</clustering>
</event>
<event>
 6    0  0.3446372E+002  0.9851451E+02  0.7546771E-02  0.1283451E+00
         21   -1    0    0  504  501  0.00000000000E+00  0.00000000000E+00  0.52186970701E+03  0.52186970701E+03  0.00000000000E+00 0. -1.
         21   -1    0    0  505  502 -0.00000000000E+00 -0.00000000000E+00 -0.10378102726E+03  0.10378102726E+03  0.00000000000E+00 0.  1.
         21    1    1    2  503  506  0.24483906085E+02  0.60584630520E+02  0.21921651218E+02  0.68924000933E+02  0.00000000000E+00 0.  1.
         21    1    1    2  504  503  0.44606741939E+02  0.64463046791E+02  0.15140600611E+03  0.17049640616E+03  0.00000000000E+00 0.  1.
         21    1    1    2  505  501 -0.99057493440E+02 -0.83890728608E+02  0.29025197885E+03  0.31795636899E+03  0.00000000000E+00 0. -1.
         21    1    1    2  506  502  0.29966845416E+02 -0.41156948703E+02 -0.45490956429E+02  0.68273958195E+02  0.00000000000E+00 0.  1.
<scales pt_clust_3="56.18843" pt_clust_4="14000.00000" pt_clust_5="98.51451" pt_clust_6="50.91077"></scales>
<clustering>
<clus scale="   50.911">  2  6  1 -1</clus>
<clus scale="   56.188">  2  3  1 -1</clus>
<clus scale="   98.515">  2  5  1 -1</clus>
<clus scale="   98.515">  1  3  2 -1</clus>
</clustering>
</event>
<event>
 6    0  0.3446372E+002  0.1482662E+03  0.7546771E-02  0.1202620E+00
         21   -1    0    0  504  501  0.00000000000E+00  0.00000000000E+00  0.69108671130E+03  0.69108671130E+03  0.00000000000E+00 0. -1.
         21   -1    0    0  505  502 -0.00000000000E+00 -0.00000000000E+00 -0.47480430957E+03  0.47480430957E+03  0.00000000000E+00 0. -1.
         21    1    1    2  503  501  0.12788614522E+02 -0.15427507278E+03  0.62791538339E+03  0.64671637945E+03  0.00000000000E+00 0. -1.
         21    1    1    2  504  506 -0.42601656620E+02  0.10201027084E+03 -0.11278905767E+02  0.11112250096E+03  0.00000000000E+00 0. -1.
         21    1    1    2  505  503 -0.62966329410E+01  0.35244398992E+02 -0.13301758882E+03  0.13775156689E+03  0.00000000000E+00 0. -1.
         21    1    1    2  506  502  0.36109675039E+02  0.17020402952E+02 -0.26733648708E+03  0.27030057357E+03  0.00000000000E+00 0. -1.
<scales pt_clust_3="148.26617" pt_clust_4="14000.00000" pt_clust_5="35.80245" pt_clust_6="54.65959"></scales>
<clustering>
<clus scale="   35.802">  2  5  1 -1</clus>
<clus scale="   54.660">  2  6  1 -1</clus>
<clus scale="  148.266">  1  3  2 -1</clus>
<clus scale="  148.266">  1  3  2 -1</clus>
</clustering>
</event>
<event>
 6    0  0.3446372E+002  0.1374835E+03  0.7546771E-02  0.1216756E+00
         21   -1    0    0  505  501  0.00000000000E+00  0.00000000000E+00  0.52466687943E+03  0.52466687943E+03  0.00000000000E+00 0.  1.
         21   -1    0    0  504  502 -0.00000000000E+00 -0.00000000000E+00 -0.23804037951E+03  0.23804037951E+03  0.00000000000E+00 0. -1.
         21    1    1    2  503  501 -0.97872110345E+02  0.58252506217E+02  0.40965885492E+03  0.42519722704E+03  0.00000000000E+00 0.  1.
         21    1    1    2  504  503  0.16528786616E+03  0.18091986221E+02 -0.13592964067E+03  0.21476560683E+03  0.00000000000E+00 0. -1.
         21    1    1    2  505  506 -0.38817394600E+02 -0.60047991189E+02  0.38348488450E+02  0.81136662094E+02  0.00000000000E+00 0. -1.
         21    1    1    2  506  502 -0.28598361213E+02 -0.16296501249E+02 -0.25451202786E+02  0.41607762981E+02  0.00000000000E+00 0. -1.
<scales pt_clust_3="137.48354" pt_clust_4="14000.00000" pt_clust_5="74.57484" pt_clust_6="32.91568"></scales>
<clustering>
<clus scale="   32.916">  2  6  1 -1</clus>
<clus scale="   74.575">  1  5  2 -1</clus>
<clus scale="  137.484">  1  3  2 -1</clus>
<clus scale="   74.575">  1  3  2 -1</clus>
</clustering>
</event>
<event>
 6    0  0.3446372E+002  0.2799485E+03  0.7546771E-02  0.1095717E+00
         21   -1    0    0  505  501  0.00000000000E+00  0.00000000000E+00  0.25715210705E+03  0.25715210705E+03  0.00000000000E+00 0. -1.
         21   -1    0    0  503  502 -0.00000000000E+00 -0.00000000000E+00 -0.18889775799E+04  0.18889775799E+04  0.00000000000E+00 0. -1.
         21    1    1    2  503  506 -0.16838181450E+03 -0.10490143940E+00 -0.80567274136E+03  0.82308019817E+03  0.00000000000E+00 0. -1.
         21    1    1    2  504  502  0.23071458863E+03 -0.17952465865E+03  0.20966734860E+02  0.29308348374E+03  0.00000000000E+00 0. -1.
         21    1    1    2  505  504  0.27495719110E+02  0.26523858683E+02  0.78593608571E+02  0.87386983911E+02  0.00000000000E+00 0. -1.
         21    1    1    2  506  501 -0.89828493240E+02  0.15310570141E+03 -0.92571307492E+03  0.94257902113E+03  0.00000000000E+00 0. -1.
<scales pt_clust_3="167.01218" pt_clust_4="14000.00000" pt_clust_5="38.20379" pt_clust_6="279.94847"></scales>
<clustering>
<clus scale="   38.204">  1  5  2 -1</clus>
<clus scale="  167.012">  2  3  1 -1</clus>
<clus scale="  279.948">  2  6  1 -1</clus>
<clus scale="   38.204">  1  3  2 -1</clus>
</clustering>
</event>
<event>
 6    0  0.3446372E+002  0.1879485E+03  0.7546771E-02  0.1160325E+00
         21   -1    0    0  505  501  0.00000000000E+00  0.00000000000E+00  0.11691360191E+04  0.11691360191E+04  0.00000000000E+00 0.  1.
         21   -1    0    0  503  502 -0.00000000000E+00 -0.00000000000E+00 -0.90984873350E+02  0.90984873350E+02  0.00000000000E+00 0. -1.
         21    1    1    2  503  506 -0.86525144829E+02 -0.98539820031E+02  0.88383530942E+01  0.13143368406E+03  0.00000000000E+00 0. -1.
         21    1    1    2  504  502  0.18190028523E+03  0.13701244418E+03  0.61842037422E+03  0.65901736159E+03  0.00000000000E+00 0.  1.
         21    1    1    2  505  504 -0.65846134274E+02 -0.18683417063E+02  0.40918238558E+03  0.41486745852E+03  0.00000000000E+00 0. -1.
         21    1    1    2  506  501 -0.29529006129E+02 -0.19789207082E+02  0.41710032836E+02  0.54802388261E+02  0.00000000000E+00 0.  1.
<scales pt_clust_3="35.53513" pt_clust_4="175.11775" pt_clust_5="68.44548" pt_clust_6="35.53513"></scales>
<clustering>
<clus scale="   35.535">  3  6 -1 -1</clus>
<clus scale="   68.445">  1  5  2 -1</clus>
<clus scale="  175.118">  1  4  2 -1</clus>
<clus scale="   68.445">  1  3  2 -1</clus>
</clustering>
</event>
<event>
 6    0  0.3446372E+002  0.2259990E+03  0.7546771E-02  0.1129488E+00
         21   -1    0    0  506  501  0.00000000000E+00  0.00000000000E+00  0.65810816376E+03  0.65810816376E+03  0.00000000000E+00 0. -1.
         21   -1    0    0  504  502 -0.00000000000E+00 -0.00000000000E+00 -0.10303491949E+03  0.10303491949E+03  0.00000000000E+00 0. -1.
         21    1    1    2  503  502 -0.53766976108E+02  0.66867856291E+02  0.33759355290E+02  0.92205704782E+02  0.00000000000E+00 0. -1.
         21    1    1    2  504  501  0.13717065592E+03 -0.16503844130E+03  0.18387417749E+03  0.28260075920E+03  0.00000000000E+00 0. -1.
         21    1    1    2  505  503 -0.10945390205E+03  0.63341919385E+02  0.16161008492E+03  0.20520763868E+03  0.00000000000E+00 0. -1.
         21    1    1    2  506  505  0.26050222236E+02  0.34828665621E+02  0.17582962657E+03  0.18112898058E+03  0.00000000000E+00 0. -1.
<scales pt_clust_3="68.22843" pt_clust_4="210.67915" pt_clust_5="68.22843" pt_clust_6="43.49310"></scales>
<clustering>
<clus scale="   43.493">  1  6  2 -1</clus>
<clus scale="   68.228">  3  5 -1 -1</clus>
<clus scale="  210.679">  1  4  2 -1</clus>
<clus scale="   43.493">  1  3  2 -1</clus>
</clustering>
</event>
<event>
 6    0  0.3446372E+002  0.1011912E+03  0.7546771E-02  0.1277811E+00
         21   -1    0    0  505  501  0.00000000000E+00  0.00000000000E+00  0.33645179245E+03  0.33645179245E+03  0.00000000000E+00 0. -1.
         21   -1    0    0  504  502 -0.00000000000E+00 -0.00000000000E+00 -0.13750976595E+03  0.13750976595E+03  0.00000000000E+00 0. -1.
         21    1    1    2  503  506  0.49003343752E+02  0.42085979184E+02  0.18390808154E+01  0.64621510049E+02  0.00000000000E+00 0.  1.
         21    1    1    2  504  503  0.64757892162E+02  0.66980301344E+01 -0.73020391303E+02  0.97828552841E+02  0.00000000000E+00 0. -1.
         21    1    1    2  505  502 -0.16094714546E+02  0.25974833855E+02  0.37492526778E+02  0.48367565520E+02  0.00000000000E+00 0. -1.
         21    1    1    2  506  501 -0.97666521369E+02 -0.74758843174E+02  0.23263081021E+03  0.26314392998E+03  0.00000000000E+00 0. -1.
<scales pt_clust_3="101.19122" pt_clust_4="64.55021" pt_clust_5="30.55703" pt_clust_6="14000.00000"></scales>
<clustering>
<clus scale="   30.557">  1  5  2 -1</clus>
<clus scale="   64.550">  2  4  1 -1</clus>
<clus scale="  101.191">  2  3  1 -1</clus>
<clus scale="   30.557">  1  3  2 -1</clus>
</clustering>
</event>
<event>
 6    0  0.3446372E+002  0.1126688E+03  0.7546771E-02  0.1255706E+00
         21   -1    0    0  506  501  0.00000000000E+00  0.00000000000E+00  0.37948356776E+03  0.37948356776E+03  0.00000000000E+00 0.  1.
         21   -1    0    0  504  502 -0.00000000000E+00 -0.00000000000E+00 -0.43896061358E+03  0.43896061358E+03  0.00000000000E+00 0. -1.
         21    1    1    2  503  501 -0.69758983171E+02 -0.15872765643E+03 -0.40495500419E+02  0.17804682026E+03  0.00000000000E+00 0.  1.
         21    1    1    2  504  503  0.26560788119E+02  0.68869487142E+02 -0.22704270370E+03  0.23874017473E+03  0.00000000000E+00 0. -1.
         21    1    1    2  505  502  0.25921321428E+02 -0.16504718890E+02 -0.84482988499E+02  0.89898253575E+02  0.00000000000E+00 0.  1.
         21    1    1    2  506  505  0.17276873624E+02  0.10636288818E+03  0.29254414680E+03  0.31175893279E+03  0.00000000000E+00 0.  1.
<scales pt_clust_3="14000.00000" pt_clust_4="72.58755" pt_clust_5="30.72980" pt_clust_6="112.66880"></scales>
<clustering>
<clus scale="   30.730">  2  5  1 -1</clus>
<clus scale="   72.588">  2  4  1 -1</clus>
<clus scale="  112.669">  1  6  2 -1</clus>
<clus scale="  112.669">  1  3  2 -1</clus>
</clustering>
</event>
<event>
 6    0  0.3446372E+002  0.1097082E+03  0.7546771E-02  0.1261111E+00
         21   -1    0    0  504  501  0.00000000000E+00  0.00000000000E+00  0.70716527506E+03  0.70716527506E+03  0.00000000000E+00 0. -1.
         21   -1    0    0  506  502 -0.00000000000E+00 -0.00000000000E+00 -0.54407905677E+02  0.54407905677E+02  0.00000000000E+00 0. -1.
         21    1    1    2  503  505  0.81127981572E+02 -0.52473297006E+02  0.51936084838E+02  0.10969299522E+03  0.00000000000E+00 0. -1.
         21    1    1    2  504  503 -0.99799567323E+02  0.74632920371E+02  0.52144853050E+03  0.53613300253E+03  0.00000000000E+00 0. -1.
         21    1    1    2  505  502 -0.95112644035E+01 -0.34019584539E+02  0.54394265034E+01  0.35740504242E+02  0.00000000000E+00 0.  1.
         21    1    1    2  506  501  0.28182850154E+02  0.11859961174E+02  0.73933327536E+02  0.80006678737E+02  0.00000000000E+00 0.  1.
<scales pt_clust_3="14000.00000" pt_clust_4="109.70818" pt_clust_5="34.71187" pt_clust_6="30.57665"></scales>
<clustering>
<clus scale="   30.577">  1  6  2 -1</clus>
<clus scale="   34.712">  2  5  1 -1</clus>
<clus scale="  109.708">  1  4  2 -1</clus>
<clus scale="   30.577">  1  3  2 -1</clus>
</clustering>
</event>
<event>
 6    0  0.3446372E+002  0.1580897E+03  0.7546771E-02  0.1190871E+00
         21   -1    0    0  506  501  0.00000000000E+00  0.00000000000E+00  0.16991468661E+03  0.16991468661E+03  0.00000000000E+00 0. -1.
         21   -1    0    0  505  502 -0.00000000000E+00 -0.00000000000E+00 -0.19639514184E+03  0.19639514184E+03  0.00000000000E+00 0. -1.
         21    1    1    2  503  504  0.85273499919E+02  0.11210440106E+02 -0.80200591892E+01  0.86380351384E+02  0.00000000000E+00 0. -1.
         21    1    1    2  504  501 -0.16782918102E+03  0.93943565850E+01  0.20114870862E+02  0.16929115738E+03  0.00000000000E+00 0. -1.
         21    1    1    2  505  503  0.59547629425E+02  0.10849025891E+02 -0.38373889486E+02  0.71667125848E+02  0.00000000000E+00 0. -1.
         21    1    1    2  506  502  0.23008051671E+02 -0.31453822582E+02 -0.20137741827E+00  0.38971193844E+02  0.00000000000E+00 0.  1.
<scales pt_clust_3="31.01465" pt_clust_4="153.70595" pt_clust_5="31.01465" pt_clust_6="38.97067"></scales>
<clustering>
<clus scale="   31.015">  3  5 -1 -1</clus>
<clus scale="   38.971">  1  6  2 -1</clus>
<clus scale="  153.706">  1  4  2 -1</clus>
<clus scale="   38.971">  1  3  2 -1</clus>
</clustering>
</event>
<event>
 6    0  0.3446372E+002  0.1581967E+03  0.7546771E-02  0.1190748E+00
         21   -1    0    0  505  501  0.00000000000E+00  0.00000000000E+00  0.94284540963E+03  0.94284540963E+03  0.00000000000E+00 0. -1.
         21   -1    0    0  504  502 -0.00000000000E+00 -0.00000000000E+00 -0.42105222816E+02  0.42105222816E+02  0.00000000000E+00 0. -1.
         21    1    1    2  503  502  0.12268567762E+03  0.10922861087E+03  0.27659288949E+03  0.32169285264E+03  0.00000000000E+00 0. -1.
         21    1    1    2  504  506 -0.69871443744E+02 -0.52191656577E+02  0.14691073062E+03  0.17084715520E+03  0.00000000000E+00 0. -1.
         21    1    1    2  505  503  0.60460709123E+01 -0.49650560502E+02  0.32840776707E+03  0.33219481423E+03  0.00000000000E+00 0. -1.
         21    1    1    2  506  501 -0.58860304788E+02 -0.73863937953E+01  0.14882879964E+03  0.16021581038E+03  0.00000000000E+00 0.  1.
<scales pt_clust_3="151.67992" pt_clust_4="37.06219" pt_clust_5="50.01733" pt_clust_6="37.06219"></scales>
<clustering>
<clus scale="   37.062">  4  6 -1 -1</clus>
<clus scale="   50.017">  1  5  2 -1</clus>
<clus scale="  151.680">  2  3  1 -1</clus>
<clus scale="   50.017">  1  3  2 -1</clus>
</clustering>
</event>
<event>
 6    0  0.3446372E+002  0.1512983E+03  0.7546771E-02  0.1198887E+00
         21   -1    0    0  504  501  0.00000000000E+00  0.00000000000E+00  0.13650524938E+03  0.13650524938E+03  0.00000000000E+00 0. -1.
         21   -1    0    0  506  502 -0.00000000000E+00 -0.00000000000E+00 -0.16734212533E+03  0.16734212533E+03  0.00000000000E+00 0. -1.
         21    1    1    2  503  502  0.33537682166E+02 -0.25488905059E+02  0.81166496600E+01  0.42899188895E+02  0.00000000000E+00 0.  1.
         21    1    1    2  504  503  0.97511060705E+01 -0.10742005238E+03 -0.11065542000E+02  0.10842784671E+03  0.00000000000E+00 0. -1.
         21    1    1    2  505  501 -0.19137804330E+02  0.10117961659E+03 -0.40569531488E+02  0.11067726620E+03  0.00000000000E+00 0. -1.
         21    1    1    2  506  505 -0.24150983907E+02  0.31729340848E+02  0.12681547882E+02  0.41843072915E+02  0.00000000000E+00 0. -1.
<scales pt_clust_3="36.18387" pt_clust_4="36.18387" pt_clust_5="149.94904" pt_clust_6="33.77570"></scales>
<clustering>
<clus scale="   33.776">  5  6 -1 -1</clus>
<clus scale="   36.184">  3  4 -1 -1</clus>
<clus scale="  149.949">  2  5  1 -1</clus>
<clus scale="  151.298">  1  3  2 -1</clus>
</clustering>
</event>
<event>
 6    0  0.3446372E+002  0.1340226E+03  0.7546771E-02  0.1221606E+00
         21   -1    0    0  504  501  0.00000000000E+00  0.00000000000E+00  0.23244827121E+02  0.23244827121E+02  0.00000000000E+00 0.  1.
         21   -1    0    0  506  502 -0.00000000000E+00 -0.00000000000E+00 -0.21018136569E+04  0.21018136569E+04  0.00000000000E+00 0.  1.
         21    1    1    2  503  501 -0.10962729809E+03  0.92219792535E+02 -0.29492460846E+03  0.32787674407E+03  0.00000000000E+00 0.  1.
         21    1    1    2  504  505  0.11865002848E+03 -0.27170697876E+02 -0.74882917933E+03  0.75865750896E+03  0.00000000000E+00 0.  1.
         21    1    1    2  505  502  0.21439034767E+02 -0.27083340103E+02 -0.59993393749E+03  0.60092750717E+03  0.00000000000E+00 0.  1.
         21    1    1    2  506  503 -0.30461765153E+02 -0.37965754555E+02 -0.43488110451E+03  0.43759672384E+03  0.00000000000E+00 0.  1.
<scales pt_clust_3="14000.00000" pt_clust_4="134.02255" pt_clust_5="34.54185" pt_clust_6="51.84654"></scales>
<clustering>
<clus scale="   34.542">  2  5  1 -1</clus>
<clus scale="   51.847">  2  6  1 -1</clus>
<clus scale="  134.023">  2  4  1 -1</clus>
<clus scale="  134.023">  1  3  2 -1</clus>
</clustering>
</event>
<event>
 6    0  0.3446372E+002  0.1037452E+03  0.7546771E-02  0.1272612E+00
         21   -1    0    0  502  501  0.00000000000E+00  0.00000000000E+00  0.59104255696E+03  0.59104255696E+03  0.00000000000E+00 0.  1.
         21   -1    0    0  503  502 -0.00000000000E+00 -0.00000000000E+00 -0.20489759876E+03  0.20489759876E+03  0.00000000000E+00 0. -1.
         21    1    1    2  503  504 -0.45565965099E+02  0.32262413194E+02 -0.99282999113E+02  0.11390449681E+03  0.00000000000E+00 0. -1.
         21    1    1    2  504  505 -0.60518419777E+02 -0.77869130629E+02 -0.58239284321E+02  0.11453337887E+03  0.00000000000E+00 0.  1.
         21    1    1    2  505  506  0.86412362775E+02 -0.11208208568E+02  0.19354914464E+03  0.21225925603E+03  0.00000000000E+00 0.  1.
         21    1    1    2  506  501  0.19672022101E+02  0.56814926003E+02  0.35011809699E+03  0.35524302401E+03  0.00000000000E+00 0.  1.
<scales pt_clust_3="55.83118" pt_clust_4="14000.00000" pt_clust_5="103.74517" pt_clust_6="60.54644"></scales>
<clustering>
<clus scale="   55.831">  2  3  1 -1</clus>
<clus scale="   60.546">  1  6  2 -1</clus>
<clus scale="  103.745">  1  5  2 -1</clus>
<clus scale="   60.546">  1  3  2 -1</clus>
</clustering>
</event>
<event>
 6    0  0.3446372E+002  0.1192468E+03  0.7546771E-02  0.1244345E+00
         21   -1    0    0  506  501  0.00000000000E+00  0.00000000000E+00  0.97924743073E+02  0.97924743073E+02  0.00000000000E+00 0.  1.
         21   -1    0    0  505  502 -0.00000000000E+00 -0.00000000000E+00 -0.54100029385E+03  0.54100029385E+03  0.00000000000E+00 0. -1.
         21    1    1    2  503  504 -0.22384561340E+02  0.54853594483E+02  0.19936367223E+02  0.62509552487E+02  0.00000000000E+00 0.  1.
         21    1    1    2  504  502 -0.62161437513E+02 -0.55666783875E+02 -0.31266838613E+03  0.32361142567E+03  0.00000000000E+00 0. -1.
         21    1    1    2  505  501  0.46807918610E+02 -0.51597104387E+02 -0.17128514983E+03  0.18491037012E+03  0.00000000000E+00 0. -1.
         21    1    1    2  506  503  0.37738080244E+02  0.52410293780E+02  0.20941617962E+02  0.67893688642E+02  0.00000000000E+00 0.  1.
<scales pt_clust_3="57.40875" pt_clust_4="103.08773" pt_clust_5="69.66522" pt_clust_6="57.40875"></scales>
<clustering>
<clus scale="   57.409">  3  6 -1 -1</clus>
<clus scale="   69.665">  2  5  1 -1</clus>
<clus scale="  103.088">  2  4  1 -1</clus>
<clus scale="  119.247">  1  3  2 -1</clus>
</clustering>
</event>
<event>
 6    0  0.3446372E+002  0.1403018E+03  0.7546771E-02  0.1212923E+00
         21   -1    0    0  502  501  0.00000000000E+00  0.00000000000E+00  0.26147022663E+03  0.26147022663E+03  0.00000000000E+00 0.  1.
         21   -1    0    0  506  502 -0.00000000000E+00 -0.00000000000E+00 -0.12751769995E+03  0.12751769995E+03  0.00000000000E+00 0.  1.
         21    1    1    2  503  504  0.18806582737E+02  0.51469663843E+02 -0.14145722337E+01  0.54816191631E+02  0.00000000000E+00 0.  1.
         21    1    1    2  504  505  0.90497872121E+01  0.65584417344E+02  0.64108818671E+02  0.92158315297E+02  0.00000000000E+00 0.  1.
         21    1    1    2  505  501 -0.37098822428E+02  0.17340062129E+02  0.96615609836E+02  0.10493605884E+03  0.00000000000E+00 0.  1.
         21    1    1    2  506  503  0.92424524781E+01 -0.13439414332E+03 -0.25357329594E+02  0.13707736082E+03  0.00000000000E+00 0.  1.
<scales pt_clust_3="48.88696" pt_clust_4="48.88696" pt_clust_5="40.95120" pt_clust_6="128.41844"></scales>
<clustering>
<clus scale="   40.951">  1  5  2 -1</clus>
<clus scale="   48.887">  3  4 -1 -1</clus>
<clus scale="  128.418">  2  6  1 -1</clus>
<clus scale="   40.951">  1  3  2 -1</clus>
</clustering>
</event>
<event>
 6    0  0.3446372E+002  0.1074738E+03  0.7546771E-02  0.1265321E+00
         21   -1    0    0  504  501  0.00000000000E+00  0.00000000000E+00  0.82131289280E+03  0.82131289280E+03  0.00000000000E+00 0.  1.
         21   -1    0    0  506  502 -0.00000000000E+00 -0.00000000000E+00 -0.14807799230E+03  0.14807799230E+03  0.00000000000E+00 0.  1.
         21    1    1    2  503  502  0.41755404978E+02 -0.67358338958E+01 -0.12191321806E+03  0.12904153610E+03  0.00000000000E+00 0.  1.
         21    1    1    2  504  505 -0.10033853804E+03  0.57505529020E+02  0.48184720653E+03  0.49553147077E+03  0.00000000000E+00 0.  1.
         21    1    1    2  505  503  0.91192292195E+02 -0.33646954070E+02  0.27503685404E+03  0.29170776944E+03  0.00000000000E+00 0.  1.
         21    1    1    2  506  501 -0.32609159132E+02 -0.17122741054E+02  0.38264058000E+02  0.53110108785E+02  0.00000000000E+00 0.  1.
<scales pt_clust_3="42.15994" pt_clust_4="14000.00000" pt_clust_5="107.47377" pt_clust_6="36.83131"></scales>
<clustering>
<clus scale="   36.831">  1  6  2 -1</clus>
<clus scale="   42.160">  2  3  1 -1</clus>
<clus scale="  107.474">  2  5  1 -1</clus>
<clus scale="   36.831">  1  3  2 -1</clus>
</clustering>
</event>
<event>
 6    0  0.3446372E+002  0.1005597E+03  0.7546771E-02  0.1279123E+00
         21   -1    0    0  505  501  0.00000000000E+00  0.00000000000E+00  0.45897828530E+03  0.45897828530E+03  0.00000000000E+00 0.  1.
         21   -1    0    0  506  502 -0.00000000000E+00 -0.00000000000E+00 -0.39381438339E+03  0.39381438339E+03  0.00000000000E+00 0.  1.
         21    1    1    2  503  501  0.72552147523E+02  0.95479917855E+02  0.15392139446E+03  0.19512053838E+03  0.00000000000E+00 0.  1.
         21    1    1    2  504  502  0.21187936122E+02 -0.28464818681E+02 -0.73028827296E+02  0.81193498237E+02  0.00000000000E+00 0. -1.
         21    1    1    2  505  504 -0.46663552033E+02  0.24706300252E+01  0.27239759861E+03  0.27637663221E+03  0.00000000000E+00 0.  1.
         21    1    1    2  506  503 -0.47076531612E+02 -0.69485729199E+02 -0.28812626387E+03  0.30010199986E+03  0.00000000000E+00 0.  1.
<scales pt_clust_3="100.55971" pt_clust_4="35.48485" pt_clust_5="46.58686" pt_clust_6="14000.00000"></scales>
<clustering>
<clus scale="   35.485">  2  4  1 -1</clus>
<clus scale="   46.587">  1  5  2 -1</clus>
<clus scale="  100.560">  1  3  2 -1</clus>
<clus scale="   46.587">  1  3  2 -1</clus>
</clustering>
</event>
<event>
 6    0  0.3446372E+002  0.1355463E+03  0.7546771E-02  0.1219451E+00
         21   -1    0    0  504  501  0.00000000000E+00  0.00000000000E+00  0.11007824013E+03  0.11007824013E+03  0.00000000000E+00 0. -1.
         21   -1    0    0  505  502 -0.00000000000E+00 -0.00000000000E+00 -0.18838697962E+04  0.18838697962E+04  0.00000000000E+00 0.  1.
         21    1    1    2  503  501 -0.32685409247E+02  0.13649382426E+03  0.47678817755E+02  0.14823012414E+03  0.00000000000E+00 0. -1.
         21    1    1    2  504  502  0.26627698369E+02 -0.17093081404E+02 -0.37284027525E+03  0.37418054279E+03  0.00000000000E+00 0. -1.
         21    1    1    2  505  506  0.40021404662E+02 -0.51745968948E+01 -0.11397817208E+04  0.11404958835E+04  0.00000000000E+00 0.  1.
         21    1    1    2  506  503 -0.33963693784E+02 -0.11422614596E+03 -0.30884837780E+03  0.33104148590E+03  0.00000000000E+00 0. -1.
<scales pt_clust_3="135.54631" pt_clust_4="31.64187" pt_clust_5="62.78116" pt_clust_6="14000.00000"></scales>
<clustering>
<clus scale="   31.642">  2  4  1 -1</clus>
<clus scale="   62.781">  2  5  1 -1</clus>
<clus scale="  135.546">  1  3  2 -1</clus>
<clus scale="  135.546">  1  3  2 -1</clus>
</clustering>
</event>
<event>
 6    0  0.3446372E+002  0.1807779E+03  0.7546771E-02  0.1167052E+00
         21   -1    0    0  506  501  0.00000000000E+00  0.00000000000E+00  0.90060896228E+03  0.90060896228E+03  0.00000000000E+00 0.  1.
         21   -1    0    0  504  502 -0.00000000000E+00 -0.00000000000E+00 -0.16746855449E+03  0.16746855449E+03  0.00000000000E+00 0.  1.
         21    1    1    2  503  502  0.77110896544E+02 -0.29670469079E+02  0.11446366719E+03  0.14116783702E+03  0.00000000000E+00 0. -1.
         21    1    1    2  504  501 -0.19632418517E+03  0.39871308504E+02 -0.72556023584E+02  0.21306638281E+03  0.00000000000E+00 0.  1.
         21    1    1    2  505  503  0.13482948222E+02 -0.37959780245E+02  0.54369666775E+02  0.67666797429E+02  0.00000000000E+00 0.  1.
         21    1    1    2  506  505  0.10573034041E+03  0.27758940820E+02  0.63686309741E+03  0.64617649951E+03  0.00000000000E+00 0.  1.
<scales pt_clust_3="33.67666" pt_clust_4="174.22548" pt_clust_5="33.67666" pt_clust_6="109.31360"></scales>
<clustering>
<clus scale="   33.677">  3  5 -1 -1</clus>
<clus scale="  109.314">  1  6  2 -1</clus>
<clus scale="  174.225">  2  4  1 -1</clus>
<clus scale="  109.314">  1  3  2 -1</clus>
</clustering>
</event>
<event>
 6    0  0.3446372E+002  0.1439919E+03  0.7546771E-02  0.1208056E+00
         21   -1    0    0  504  501  0.00000000000E+00  0.00000000000E+00  0.68720664917E+03  0.68720664917E+03  0.00000000000E+00 0.  1.
         21   -1    0    0  503  502 -0.00000000000E+00 -0.00000000000E+00 -0.89581514761E+02  0.89581514761E+02  0.00000000000E+00 0.  1.
         21    1    1    2  503  505 -0.12792536466E+03  0.10166755517E+03  0.18346869500E+03  0.24568669631E+03  0.00000000000E+00 0.  1.
         21    1    1    2  504  506  0.40429370746E+02 -0.27462324490E+02  0.21736012352E+03  0.22278720022E+03  0.00000000000E+00 0.  1.
         21    1    1    2  505  501  0.24358887689E+02  0.50434703326E+02  0.15136408125E+03  0.16139423720E+03  0.00000000000E+00 0.  1.
         21    1    1    2  506  502  0.63137106222E+02 -0.12463993400E+03  0.45432234638E+02  0.14692003020E+03  0.00000000000E+00 0.  1.
<scales pt_clust_3="143.99195" pt_clust_4="48.87446" pt_clust_5="56.00659" pt_clust_6="14000.00000"></scales>
<clustering>
<clus scale="   48.874">  1  4  2 -1</clus>
<clus scale="   56.007">  1  5  2 -1</clus>
<clus scale="  143.992">  1  3  2 -1</clus>
<clus scale="   48.874">  1  3  2 -1</clus>
</clustering>
</event>
<event>
 6    0  0.3446372E+002  0.1452522E+03  0.7546771E-02  0.1206432E+00
         21   -1    0    0  506  501  0.00000000000E+00  0.00000000000E+00  0.11083738269E+04  0.11083738269E+04  0.00000000000E+00 0.  1.
         21   -1    0    0  503  502 -0.00000000000E+00 -0.00000000000E+00 -0.13517484524E+03  0.13517484524E+03  0.00000000000E+00 0. -1.
         21    1    1    2  503  505 -0.49195521500E+00 -0.31891781090E+02 -0.57876388206E+02  0.66083311303E+02  0.00000000000E+00 0. -1.
         21    1    1    2  504  502 -0.71000423639E+01  0.40030811106E+02  0.47448551994E+03  0.47622409124E+03  0.00000000000E+00 0.  1.
         21    1    1    2  505  501  0.46560982819E+02 -0.99806637004E+02 -0.23541424358E+02  0.11262099525E+03  0.00000000000E+00 0.  1.
         21    1    1    2  506  504 -0.38968985240E+02  0.91667606988E+02  0.58013127426E+03  0.58862027434E+03  0.00000000000E+00 0.  1.
<scales pt_clust_3="31.89558" pt_clust_4="30.03465" pt_clust_5="137.43391" pt_clust_6="30.03465"></scales>
<clustering>
<clus scale="   30.035">  4  6 -1 -1</clus>
<clus scale="   31.896">  2  3  1 -1</clus>
<clus scale="  137.434">  2  5  1 -1</clus>
<clus scale="  145.252">  1  3  2 -1</clus>
</clustering>
</event>
<event>
 6    0  0.3446372E+002  0.1566309E+03  0.7546771E-02  0.1192554E+00
         21   -1    0    0  503  501  0.00000000000E+00  0.00000000000E+00  0.16564660741E+03  0.16564660741E+03  0.00000000000E+00 0.  1.
         21   -1    0    0  504  502 -0.00000000000E+00 -0.00000000000E+00 -0.49462496415E+03  0.49462496415E+03  0.00000000000E+00 0.  1.
         21    1    1    2  503  505  0.23964640116E+02  0.28378089705E+02 -0.11157525782E+02  0.38782861328E+02  0.00000000000E+00 0. -1.
         21    1    1    2  504  506 -0.22894426766E+03 -0.26433425758E+02 -0.17078074795E+03  0.28684537221E+03  0.00000000000E+00 0.  1.
         21    1    1    2  505  502  0.13209972913E+03 -0.94297466567E+01 -0.20305040142E+03  0.24242261461E+03  0.00000000000E+00 0.  1.
         21    1    1    2  506  501  0.72879898416E+02  0.74850827098E+01  0.56010318411E+02  0.92220723402E+02  0.00000000000E+00 0.  1.
<scales pt_clust_3="37.14324" pt_clust_4="14000.00000" pt_clust_5="156.63087" pt_clust_6="87.22789"></scales>
<clustering>
<clus scale="   37.143">  1  3  2 -1</clus>
<clus scale="   87.228">  1  6  2 -1</clus>
<clus scale="  156.631">  2  5  1 -1</clus>
<clus scale="   37.143">  1  3  2 -1</clus>
</clustering>
</event>
<event>
 6    0  0.3446372E+002  0.9609275E+02  0.7546771E-02  0.1288734E+00
         21   -1    0    0  506  501  0.00000000000E+00  0.00000000000E+00  0.49071938674E+02  0.49071938674E+02  0.00000000000E+00 0.  1.
         21   -1    0    0  504  502 -0.00000000000E+00 -0.00000000000E+00 -0.15221693251E+04  0.15221693251E+04  0.00000000000E+00 0.  1.
         21    1    1    2  503  501  0.48962143263E+02  0.70144594999E+02 -0.80683965323E+02  0.11759021193E+03  0.00000000000E+00 0.  1.
         21    1    1    2  504  503 -0.12133266998E+03 -0.11320414033E+03 -0.78771132057E+03  0.80500057065E+03  0.00000000000E+00 0.  1.
         21    1    1    2  505  502  0.46912251624E+02  0.65254737129E+02 -0.60928802873E+03  0.61456557179E+03  0.00000000000E+00 0.  1.
         21    1    1    2  506  505  0.25458275095E+02 -0.22195191794E+02  0.45859282310E+01  0.34084909378E+02  0.00000000000E+00 0.  1.
<scales pt_clust_3="14000.00000" pt_clust_4="96.09275" pt_clust_5="80.14261" pt_clust_6="33.77500"></scales>
<clustering>
<clus scale="   33.775">  1  6  2 -1</clus>
<clus scale="   80.143">  2  5  1 -1</clus>
<clus scale="   96.093">  2  4  1 -1</clus>
<clus scale="   33.775">  1  3  2 -1</clus>
</clustering>
</event>
<event>
 6    0  0.3446372E+002  0.9036831E+02  0.7546771E-02  0.1301962E+00
         21   -1    0    0  504  501  0.00000000000E+00  0.00000000000E+00  0.71360834240E+03  0.71360834240E+03  0.00000000000E+00 0.  1.
         21   -1    0    0  503  502 -0.00000000000E+00 -0.00000000000E+00 -0.35010808302E+02  0.35010808302E+02  0.00000000000E+00 0.  1.
         21    1    1    2  503  506  0.49922131892E+02 -0.69131263545E+01  0.67677601122E+02  0.84381682030E+02  0.00000000000E+00 0.  1.
         21    1    1    2  504  505 -0.96860373526E+02  0.42431538664E+02  0.22300764269E+03  0.24680918972E+03  0.00000000000E+00 0.  1.
         21    1    1    2  505  502 -0.11229230597E+02  0.28566506543E+02  0.14190045957E+02  0.33815651999E+02  0.00000000000E+00 0.  1.
         21    1    1    2  506  501  0.58167472231E+02 -0.64084918852E+02  0.37372224433E+03  0.38361262695E+03  0.00000000000E+00 0.  1.
<scales pt_clust_3="46.27075" pt_clust_4="90.36831" pt_clust_5="30.69431" pt_clust_6="14000.00000"></scales>
<clustering>
<clus scale="   30.694">  2  5  1 -1</clus>
<clus scale="   46.271">  2  3  1 -1</clus>
<clus scale="   90.368">  2  4  1 -1</clus>
<clus scale="   90.368">  1  3  2 -1</clus>
</clustering>
</event>
<event>
 6    0  0.3446372E+002  0.1013427E+03  0.7546771E-02  0.1277498E+00
         21   -1    0    0  503  501  0.00000000000E+00  0.00000000000E+00  0.19085463117E+03  0.19085463117E+03  0.00000000000E+00 0. -1.
         21   -1    0    0  504  502 -0.00000000000E+00 -0.00000000000E+00 -0.21571710860E+03  0.21571710860E+03  0.00000000000E+00 0. -1.
         21    1    1    2  503  506  0.93761905837E+01  0.95599969655E+02  0.97847071474E+02  0.13711789287E+03  0.00000000000E+00 0. -1.
         21    1    1    2  504  505 -0.32849251462E+02 -0.24809347359E+02 -0.46384575186E+02  0.62016980362E+02  0.00000000000E+00 0. -1.
         21    1    1    2  505  501  0.35294089902E+02 -0.12861085601E+03 -0.45928417648E+02  0.14105263065E+03  0.00000000000E+00 0. -1.
         21    1    1    2  506  502 -0.11821029024E+02  0.57820233711E+02 -0.30396556076E+02  0.66384235892E+02  0.00000000000E+00 0. -1.
<scales pt_clust_3="14000.00000" pt_clust_4="41.16524" pt_clust_5="101.34270" pt_clust_6="54.84666"></scales>
<clustering>
<clus scale="   41.165">  2  4  1 -1</clus>
<clus scale="   54.847">  2  6  1 -1</clus>
<clus scale="  101.343">  2  5  1 -1</clus>
<clus scale="  101.343">  1  3  2 -1</clus>
</clustering>
</event>
<event>
 6    0  0.3446372E+002  0.7052073E+02  0.7546771E-02  0.1358331E+00
         21   -1    0    0  506  501  0.00000000000E+00  0.00000000000E+00  0.43846229340E+02  0.43846229340E+02  0.00000000000E+00 0. -1.
         21   -1    0    0  505  502 -0.00000000000E+00 -0.00000000000E+00 -0.92820706186E+03  0.92820706186E+03  0.00000000000E+00 0. -1.
         21    1    1    2  503  502  0.71816040590E+02 -0.58744734203E+02 -0.39989711593E+03  0.41051941588E+03  0.00000000000E+00 0. -1.
         21    1    1    2  504  501  0.45199876725E+02 -0.26431322574E+02 -0.76639353159E+02  0.92818285492E+02  0.00000000000E+00 0.  1.
         21    1    1    2  505  504 -0.29820551739E+02  0.25709396606E+02 -0.34214950609E+03  0.34440749542E+03  0.00000000000E+00 0. -1.
         21    1    1    2  506  503 -0.87195365576E+02  0.59466660172E+02 -0.65674857330E+02  0.12430809441E+03  0.00000000000E+00 0. -1.
<scales pt_clust_3="70.52073" pt_clust_4="46.76339" pt_clust_5="39.37307" pt_clust_6="14000.00000"></scales>
<clustering>
<clus scale="   39.373">  2  5  1 -1</clus>
<clus scale="   46.763">  1  4  2 -1</clus>
<clus scale="   70.521">  2  3  1 -1</clus>
<clus scale="   46.763">  1  3  2 -1</clus>
</clustering>
</event>
<event>
 6    0  0.3446372E+002  0.1793165E+03  0.7546771E-02  0.1168466E+00
         21   -1    0    0  503  501  0.00000000000E+00  0.00000000000E+00  0.11078234337E+03  0.11078234337E+03  0.00000000000E+00 0.  1.
         21   -1    0    0  501  502 -0.00000000000E+00 -0.00000000000E+00 -0.41202672411E+03  0.41202672411E+03  0.00000000000E+00 0.  1.
         21    1    1    2  503  505 -0.35814019578E+01  0.34836854316E+02  0.28223639287E+02  0.44977846471E+02  0.00000000000E+00 0.  1.
         21    1    1    2  504  502  0.29751320736E+02 -0.16097257134E+02 -0.43718036941E+02  0.55276844399E+02  0.00000000000E+00 0.  1.
         21    1    1    2  505  506 -0.42702645352E+02  0.14212799724E+03 -0.11852862967E+03  0.18992872234E+03  0.00000000000E+00 0.  1.
         21    1    1    2  506  504  0.16532726573E+02 -0.16086759442E+03 -0.16722135342E+03  0.23262565427E+03  0.00000000000E+00 0.  1.
<scales pt_clust_3="35.02046" pt_clust_4="32.12481" pt_clust_5="164.98718" pt_clust_6="32.12481"></scales>
<clustering>
<clus scale="   32.125">  4  6 -1 -1</clus>
<clus scale="   35.020">  1  3  2 -1</clus>
<clus scale="  164.987">  1  5  2 -1</clus>
<clus scale="   35.020">  1  3  2 -1</clus>
</clustering>
</event>
<event>
 6    0  0.3446372E+002  0.7943122E+02  0.7546771E-02  0.1330673E+00
         21   -1    0    0  505  501  0.00000000000E+00  0.00000000000E+00  0.16550256766E+04  0.16550256766E+04  0.00000000000E+00 0.  1.
         21   -1    0    0  506  502 -0.00000000000E+00 -0.00000000000E+00 -0.29708629334E+02  0.29708629334E+02  0.00000000000E+00 0. -1.
         21    1    1    2  503  502 -0.50073570624E+02  0.13392193780E+02  0.54772634592E+03  0.55017348477E+03  0.00000000000E+00 0. -1.
         21    1    1    2  504  501  0.42507006711E+02  0.96132305201E+02  0.27230874236E+03  0.29189093321E+03  0.00000000000E+00 0. -1.
         21    1    1    2  505  503 -0.18076028654E+02 -0.35878739730E+02  0.73966178966E+03  0.74075204344E+03  0.00000000000E+00 0.  1.
         21    1    1    2  506  504  0.25642592567E+02 -0.73645759250E+02  0.65620169330E+02  0.10191784452E+03  0.00000000000E+00 0. -1.
<scales pt_clust_3="61.46141" pt_clust_4="79.43122" pt_clust_5="40.17495" pt_clust_6="14000.00000"></scales>
<clustering>
<clus scale="   40.175">  1  5  2 -1</clus>
<clus scale="   61.461">  1  3  2 -1</clus>
<clus scale="   79.431">  1  4  2 -1</clus>
<clus scale="   40.175">  1  3  2 -1</clus>
</clustering>
</event>
<event>
 6    0  0.3446372E+002  0.1162265E+03  0.7546771E-02  0.1249455E+00
         21   -1    0    0  503  501  0.00000000000E+00  0.00000000000E+00  0.56212403949E+03  0.56212403949E+03  0.00000000000E+00 0.  1.
         21   -1    0    0  505  502 -0.00000000000E+00 -0.00000000000E+00 -0.65172907998E+03  0.65172907998E+03  0.00000000000E+00 0.  1.
         21    1    1    2  503  506 -0.54157816002E+02  0.10114677146E+03  0.41118078875E+03  0.42688801745E+03  0.00000000000E+00 0.  1.
         21    1    1    2  504  501  0.47343863525E+02  0.95974502695E+01 -0.26636650339E+02  0.55163970184E+02  0.00000000000E+00 0.  1.
         21    1    1    2  505  504 -0.32464322141E+02  0.60071356097E+01 -0.57294485739E+03  0.57389531057E+03  0.00000000000E+00 0.  1.
         21    1    1    2  506  502  0.39278274618E+02 -0.11675135734E+03  0.98795678494E+02  0.15790582126E+03  0.00000000000E+00 0.  1.
<scales pt_clust_3="116.22647" pt_clust_4="32.94854" pt_clust_5="33.01542" pt_clust_6="14000.00000"></scales>
<clustering>
<clus scale="   33.015">  2  5  1 -1</clus>
<clus scale="   32.949">  2  4  1 -1</clus>
<clus scale="  116.226">  1  3  2 -1</clus>
<clus scale="  116.226">  1  3  2 -1</clus>
</clustering>
</event>
<event>
 6    0  0.3446372E+002  0.1823536E+03  0.7546771E-02  0.1165544E+00
         21   -1    0    0  502  501  0.00000000000E+00  0.00000000000E+00  0.54946129372E+03  0.54946129372E+03  0.00000000000E+00 0. -1.
         21   -1    0    0  505  502 -0.00000000000E+00 -0.00000000000E+00 -0.20950588474E+03  0.20950588474E+03  0.00000000000E+00 0. -1.
         21    1    1    2  503  501  0.87637206524E+02 -0.87868635875E+01  0.28763886939E+03  0.30082155528E+03  0.00000000000E+00 0. -1.
         21    1    1    2  504  506 -0.10745440448E+03  0.28716246562E+02 -0.10378494693E+03  0.15212622084E+03  0.00000000000E+00 0. -1.
         21    1    1    2  505  504 -0.51275023852E+02 -0.48340540953E+02 -0.49836453154E+02  0.86311111878E+02  0.00000000000E+00 0.  1.
         21    1    1    2  506  503  0.71092221804E+02  0.28411157979E+02  0.20593793968E+03  0.21970829047E+03  0.00000000000E+00 0. -1.
<scales pt_clust_3="165.32772" pt_clust_4="69.72236" pt_clust_5="69.72236" pt_clust_6="39.03666"></scales>
<clustering>
<clus scale="   39.037">  3  6 -1 -1</clus>
<clus scale="   69.722">  4  5 -1 -1</clus>
<clus scale="  165.328">  1  3  2 -1</clus>
<clus scale="  165.328">  1  3  2 -1</clus>
</clustering>
</event>
<event>
 6    0  0.3446372E+002  0.8374748E+02  0.7546771E-02  0.1318741E+00
         21   -1    0    0  505  501  0.00000000000E+00  0.00000000000E+00  0.38708554402E+03  0.38708554402E+03  0.00000000000E+00 0. -1.
         21   -1    0    0  504  502 -0.00000000000E+00 -0.00000000000E+00 -0.58751775808E+02  0.58751775808E+02  0.00000000000E+00 0. -1.
         21    1    1    2  503  501 -0.25806303883E+02  0.27147829446E+02  0.13304783566E+03  0.13821974005E+03  0.00000000000E+00 0.  1.
         21    1    1    2  504  503  0.77149101620E+02 -0.97804283444E+02  0.11934842388E+03  0.17251581963E+03  0.00000000000E+00 0. -1.
         21    1    1    2  505  506 -0.36702484813E+02  0.95390550592E+00  0.43259746184E+02  0.56739650749E+02  0.00000000000E+00 0.  1.
         21    1    1    2  506  502 -0.14640312923E+02  0.69702548492E+02  0.32677762486E+02  0.78362109401E+02  0.00000000000E+00 0. -1.
<scales pt_clust_3="49.03335" pt_clust_4="83.74748" pt_clust_5="36.71488" pt_clust_6="14000.00000"></scales>
<clustering>
<clus scale="   36.715">  1  5  2 -1</clus>
<clus scale="   49.033">  1  3  2 -1</clus>
<clus scale="   83.747">  1  4  2 -1</clus>
<clus scale="   36.715">  1  3  2 -1</clus>
</clustering>
</event>
<event>
 6    0  0.3446372E+002  0.6300496E+02  0.7546771E-02  0.1385637E+00
         21   -1    0    0  504  501  0.00000000000E+00  0.00000000000E+00  0.15817235950E+04  0.15817235950E+04  0.00000000000E+00 0.  1.
         21   -1    0    0  506  502 -0.00000000000E+00 -0.00000000000E+00 -0.57116054113E+02  0.57116054113E+02  0.00000000000E+00 0.  1.
         21    1    1    2  503  501 -0.42620728781E+02  0.13989465404E+02  0.36845158359E+03  0.37117219873E+03  0.00000000000E+00 0. -1.
         21    1    1    2  504  505  0.81792368336E+02 -0.53726049348E+02  0.10660527978E+04  0.10705349352E+04  0.00000000000E+00 0.  1.
         21    1    1    2  505  502 -0.69432054830E+02  0.82128147066E+02  0.19342686953E+02  0.10927022612E+03  0.00000000000E+00 0.  1.
         21    1    1    2  506  503  0.30260415275E+02 -0.42391563122E+02  0.70760472612E+02  0.87862289071E+02  0.00000000000E+00 0.  1.
<scales pt_clust_3="44.85791" pt_clust_4="63.00496" pt_clust_5="14000.00000" pt_clust_6="49.74865"></scales>
<clustering>
<clus scale="   44.858">  1  3  2 -1</clus>
<clus scale="   49.749">  2  6  1 -1</clus>
<clus scale="   63.005">  1  4  2 -1</clus>
<clus scale="   44.858">  1  3  2 -1</clus>
</clustering>
</event>
<event>
 6    0  0.3446372E+002  0.1120450E+03  0.7546771E-02  0.1256829E+00
         21   -1    0    0  506  501  0.00000000000E+00  0.00000000000E+00  0.42511529178E+02  0.42511529178E+02  0.00000000000E+00 0. -1.
         21   -1    0    0  505  502 -0.00000000000E+00 -0.00000000000E+00 -0.90690102115E+03  0.90690102115E+03  0.00000000000E+00 0.  1.
         21    1    1    2  503  504 -0.10485427444E+02  0.86634225830E+02 -0.26142497971E+03  0.27560561186E+03  0.00000000000E+00 0. -1.
         21    1    1    2  504  502  0.39162861804E+02  0.34675827326E+02 -0.12519644367E+03  0.13568453211E+03  0.00000000000E+00 0.  1.
         21    1    1    2  505  501  0.40684841346E+02 -0.64848422410E+02 -0.42993475647E+03  0.43669722809E+03  0.00000000000E+00 0.  1.
         21    1    1    2  506  503 -0.69362275706E+02 -0.56461630747E+02 -0.47833312125E+02  0.10142517827E+03  0.00000000000E+00 0. -1.
<scales pt_clust_3="49.84479" pt_clust_4="49.84479" pt_clust_5="76.55439" pt_clust_6="91.70138"></scales>
<clustering>
<clus scale="   49.845">  3  4 -1 -1</clus>
<clus scale="   76.554">  2  5  1 -1</clus>
<clus scale="   91.701">  1  6  2 -1</clus>
<clus scale="   91.701">  1  3  2 -1</clus>
</clustering>
</event>
<event>
 6    0  0.3446372E+002  0.8823871E+02  0.7546771E-02  0.1307174E+00
         21   -1    0    0  506  501  0.00000000000E+00  0.00000000000E+00  0.17657864375E+03  0.17657864375E+03  0.00000000000E+00 0. -1.
         21   -1    0    0  504  502 -0.00000000000E+00 -0.00000000000E+00 -0.60656072066E+03  0.60656072066E+03  0.00000000000E+00 0. -1.
         21    1    1    2  503  501  0.29422083913E+02 -0.30944530542E+02  0.14736688232E+03  0.15342822751E+03  0.00000000000E+00 0. -1.
         21    1    1    2  504  503  0.39413212925E+02 -0.19268632723E+01 -0.61789916231E+02  0.73315127382E+02  0.00000000000E+00 0. -1.
         21    1    1    2  505  502 -0.42851209778E+02  0.10283962569E+03 -0.42335639408E+03  0.43777031787E+03  0.00000000000E+00 0. -1.
         21    1    1    2  506  505 -0.25984087059E+02 -0.69968231879E+02 -0.92202648919E+02  0.11862569165E+03  0.00000000000E+00 0. -1.
<scales pt_clust_3="42.86004" pt_clust_4="39.46029" pt_clust_5="14000.00000" pt_clust_6="88.23871"></scales>
<clustering>
<clus scale="   39.460">  2  4  1 -1</clus>
<clus scale="   42.860">  1  3  2 -1</clus>
<clus scale="   88.239">  1  6  2 -1</clus>
<clus scale="   42.860">  1  3  2 -1</clus>
</clustering>
</event>
<event>
 6    0  0.4697778E+002  0.1474091E+03  0.7546771E-02  0.1203693E+00
         21   -1    0    0  506  501  0.00000000000E+00  0.00000000000E+00  0.25334963904E+03  0.25334963904E+03  0.00000000000E+00 0. -1.
         21   -1    0    0  504  502 -0.00000000000E+00 -0.00000000000E+00 -0.73625607163E+03  0.73625607163E+03  0.00000000000E+00 0. -1.
         21    1    1    2  503  502 -0.53135820670E+02 -0.14484463744E+03 -0.67104922827E+03  0.68855678865E+03  0.00000000000E+00 0. -1.
         21    1    1    2  504  501 -0.14303317707E+02  0.27355605453E+02  0.58476167379E+00  0.30874844022E+02  0.00000000000E+00 0.  1.
         21    1    1    2  505  503  0.75399351310E+02  0.69802986405E+02  0.32520382292E+02  0.10777334714E+03  0.00000000000E+00 0. -1.
         21    1    1    2  506  505 -0.79602129327E+01  0.47686045579E+02  0.15503765172E+03  0.16240073086E+03  0.00000000000E+00 0. -1.
<scales pt_clust_3="147.40913" pt_clust_4="30.86931" pt_clust_5="14000.00000" pt_clust_6="68.24404"></scales>
<clustering>
<clus scale="   30.869">  1  4  2 -1</clus>
<clus scale="   68.244">  1  6  2 -1</clus>
<clus scale="  147.409">  2  3  1 -1</clus>
<clus scale="   30.869">  1  3  2 -1</clus>
</clustering>
</event>
<event>
 6    0  0.3446372E+002  0.1200321E+03  0.7546771E-02  0.1243044E+00
         21   -1    0    0  503  501  0.00000000000E+00  0.00000000000E+00  0.10107187026E+03  0.10107187026E+03  0.00000000000E+00 0.  1.
         21   -1    0    0  504  502 -0.00000000000E+00 -0.00000000000E+00 -0.30348643002E+03  0.30348643002E+03  0.00000000000E+00 0.  1.
         21    1    1    2  503  506  0.16803077620E+02  0.51655738956E+02  0.47196863061E+01  0.54524620342E+02  0.00000000000E+00 0.  1.
         21    1    1    2  504  501 -0.45013869712E+02 -0.10420420905E+03 -0.67706537207E+02  0.13217012080E+03  0.00000000000E+00 0.  1.
         21    1    1    2  505  502  0.60497941576E+02 -0.85711763903E+01 -0.13548703223E+03  0.14862772925E+03  0.00000000000E+00 0.  1.
         21    1    1    2  506  505 -0.32287149483E+02  0.61119646488E+02 -0.39406766250E+01  0.69235829892E+02  0.00000000000E+00 0.  1.
<scales pt_clust_3="43.04655" pt_clust_4="109.77117" pt_clust_5="61.10209" pt_clust_6="43.04655"></scales>
<clustering>
<clus scale="   43.047">  3  6 -1 -1</clus>
<clus scale="   61.102">  2  5  1 -1</clus>
<clus scale="  109.771">  2  4  1 -1</clus>
<clus scale="  120.032">  1  3  2 -1</clus>
</clustering>
</event>
<event>
 6    0  0.3446372E+002  0.1423551E+03  0.7546771E-02  0.1210195E+00
         21   -1    0    0  504  501  0.00000000000E+00  0.00000000000E+00  0.12742433273E+04  0.12742433273E+04  0.00000000000E+00 0. -1.
         21   -1    0    0  505  502 -0.00000000000E+00 -0.00000000000E+00 -0.43017054504E+03  0.43017054504E+03  0.00000000000E+00 0. -1.
         21    1    1    2  503  506  0.45757871993E+02 -0.43973884152E+02 -0.31706561584E+03  0.32335443415E+03  0.00000000000E+00 0. -1.
         21    1    1    2  504  502 -0.10124418326E+03 -0.66393436744E+02  0.11489767562E+03  0.16691299814E+03  0.00000000000E+00 0. -1.
         21    1    1    2  505  503  0.31718060144E+01 -0.30700771095E+02 -0.75914982432E+02  0.81949266360E+02  0.00000000000E+00 0. -1.
         21    1    1    2  506  501  0.52314505249E+02  0.14106809199E+03  0.11221557049E+04  0.11321971737E+04  0.00000000000E+00 0. -1.
<scales pt_clust_3="99.18336" pt_clust_4="142.35514" pt_clust_5="30.13227" pt_clust_6="14000.00000"></scales>
<clustering>
<clus scale="   30.132">  3  5 -1 -1</clus>
<clus scale="   99.183">  2  3  1 -1</clus>
<clus scale="  142.355">  2  4  1 -1</clus>
<clus scale="  142.355">  1  3  2 -1</clus>
</clustering>
</event>
<event>
 6    0  0.3446372E+002  0.9123356E+02  0.7546771E-02  0.1299892E+00
         21   -1    0    0  506  501  0.00000000000E+00  0.00000000000E+00  0.29775311973E+03  0.29775311973E+03  0.00000000000E+00 0. -1.
         21   -1    0    0  504  502 -0.00000000000E+00 -0.00000000000E+00 -0.17575675840E+03  0.17575675840E+03  0.00000000000E+00 0.  1.
         21    1    1    2  503  502 -0.15745369925E+00  0.40017603044E+02 -0.10176324892E+03  0.10934894685E+03  0.00000000000E+00 0.  1.
         21    1    1    2  504  505 -0.27625558762E+02 -0.17657213945E+02 -0.29446637717E+02  0.44068732385E+02  0.00000000000E+00 0.  1.
         21    1    1    2  505  501 -0.53209662470E+01 -0.97639375387E+02  0.19862734427E+03  0.22139237160E+03  0.00000000000E+00 0. -1.
         21    1    1    2  506  503  0.33103978708E+02  0.75278986287E+02  0.54578903692E+02  0.98699827310E+02  0.00000000000E+00 0.  1.
<scales pt_clust_3="33.98187" pt_clust_4="32.78641" pt_clust_5="14000.00000" pt_clust_6="91.23356"></scales>
<clustering>
<clus scale="   32.786">  2  4  1 -1</clus>
<clus scale="   33.982">  2  3  1 -1</clus>
<clus scale="   91.234">  2  6  1 -1</clus>
<clus scale="   91.234">  1  3  2 -1</clus>
</clustering>
</event>
<event>
 6    0  0.3446372E+002  0.1259424E+03  0.7546771E-02  0.1233604E+00
         21   -1    0    0  506  501  0.00000000000E+00  0.00000000000E+00  0.18572353871E+03  0.18572353871E+03  0.00000000000E+00 0.  1.
         21   -1    0    0  503  502 -0.00000000000E+00 -0.00000000000E+00 -0.10383201794E+04  0.10383201794E+04  0.00000000000E+00 0. -1.
         21    1    1    2  503  504 -0.59360541276E+02 -0.16106265710E+02 -0.15667883424E+02  0.63471003038E+02  0.00000000000E+00 0.  1.
         21    1    1    2  504  505 -0.12190472973E+03  0.32240799346E+02 -0.14458799277E+02  0.12692237450E+03  0.00000000000E+00 0.  1.
         21    1    1    2  505  501  0.70408798700E+02  0.10326752018E+02  0.89637173158E+02  0.11445026672E+03  0.00000000000E+00 0. -1.
         21    1    1    2  506  502  0.11085647230E+03 -0.26461285654E+02 -0.91210713110E+03  0.91920007381E+03  0.00000000000E+00 0. -1.
<scales pt_clust_3="32.94099" pt_clust_4="32.94099" pt_clust_5="71.16207" pt_clust_6="116.77709"></scales>
<clustering>
<clus scale="   32.941">  3  4 -1 -1</clus>
<clus scale="   71.162">  1  5  2 -1</clus>
<clus scale="  116.777">  2  6  1 -1</clus>
<clus scale="   71.162">  1  3  2 -1</clus>
</clustering>
</event>
<event>
 6    0  0.3446372E+002  0.8114176E+02  0.7546771E-02  0.1325842E+00
         21   -1    0    0  506  501  0.00000000000E+00  0.00000000000E+00  0.10385611383E+03  0.10385611383E+03  0.00000000000E+00 0. -1.
         21   -1    0    0  503  502 -0.00000000000E+00 -0.00000000000E+00 -0.18551964303E+04  0.18551964303E+04  0.00000000000E+00 0. -1.
         21    1    1    2  503  501 -0.48793859387E+02 -0.16377857404E+02 -0.81686910050E+03  0.81848897505E+03  0.00000000000E+00 0. -1.
         21    1    1    2  504  502 -0.32775460618E+02  0.32327785311E+02 -0.76837300266E+03  0.76975086083E+03  0.00000000000E+00 0. -1.
         21    1    1    2  505  504  0.12440208622E+03 -0.15390309176E+02 -0.24828448253E+03  0.27813292674E+03  0.00000000000E+00 0. -1.
         21    1    1    2  506  505 -0.42832766212E+02 -0.55961873073E+00  0.82186269273E+02  0.92679781460E+02  0.00000000000E+00 0. -1.
<scales pt_clust_3="14000.00000" pt_clust_4="47.31605" pt_clust_5="81.14176" pt_clust_6="42.83642"></scales>
<clustering>
<clus scale="   42.836">  1  6  2 -1</clus>
<clus scale="   47.316">  2  4  1 -1</clus>
<clus scale="   81.142">  1  5  2 -1</clus>
<clus scale="   42.836">  1  3  2 -1</clus>
</clustering>
</event>
<event>
 6    0  0.3446372E+002  0.1060173E+03  0.7546771E-02  0.1268128E+00
         21   -1    0    0  504  501  0.00000000000E+00  0.00000000000E+00  0.69774618245E+02  0.69774618245E+02  0.00000000000E+00 0. -1.
         21   -1    0    0  506  502 -0.00000000000E+00 -0.00000000000E+00 -0.56057280890E+03  0.56057280890E+03  0.00000000000E+00 0. -1.
         21    1    1    2  503  502  0.53068969072E+02  0.16396031017E+02 -0.21032300287E+03  0.21753370049E+03  0.00000000000E+00 0. -1.
         21    1    1    2  504  503  0.52126643615E+02  0.16263862127E+02 -0.83480178607E+02  0.99752896730E+02  0.00000000000E+00 0. -1.
         21    1    1    2  505  501 -0.60116724445E+02  0.52266011299E+02  0.14286042961E+02  0.80931128242E+02  0.00000000000E+00 0. -1.
         21    1    1    2  506  505 -0.45078888242E+02 -0.84925904443E+02 -0.21128105214E+03  0.23212970168E+03  0.00000000000E+00 0. -1.
<scales pt_clust_3="46.69254" pt_clust_4="46.69254" pt_clust_5="79.66026" pt_clust_6="94.98414"></scales>
<clustering>
<clus scale="   46.693">  3  4 -1 -1</clus>
<clus scale="   79.660">  1  5  2 -1</clus>
<clus scale="   94.984">  2  6  1 -1</clus>
<clus scale="   79.660">  1  3  2 -1</clus>
</clustering>
</event>
<event>
 6    0  0.3446372E+002  0.1269884E+03  0.7546771E-02  0.1231994E+00
         21   -1    0    0  505  501  0.00000000000E+00  0.00000000000E+00  0.42795934775E+03  0.42795934775E+03  0.00000000000E+00 0. -1.
         21   -1    0    0  504  502 -0.00000000000E+00 -0.00000000000E+00 -0.29971344743E+03  0.29971344743E+03  0.00000000000E+00 0. -1.
         21    1    1    2  503  506  0.10230255635E+03 -0.20062030792E+01 -0.18751946484E+03  0.21361972657E+03  0.00000000000E+00 0. -1.
         21    1    1    2  504  503  0.15758027683E+02 -0.49483335463E+02 -0.70852165647E+02  0.87846145629E+02  0.00000000000E+00 0. -1.
         21    1    1    2  505  502 -0.11841800998E+03  0.85039559736E+02  0.31053107223E+03  0.34305116037E+03  0.00000000000E+00 0. -1.
         21    1    1    2  506  501  0.35742594273E+00 -0.33550021194E+02  0.76086458578E+02  0.83155762605E+02  0.00000000000E+00 0. -1.
<scales pt_clust_3="14000.00000" pt_clust_4="52.71483" pt_clust_5="126.98837" pt_clust_6="33.55193"></scales>
<clustering>
<clus scale="   33.552">  1  6  2 -1</clus>
<clus scale="   52.715">  2  4  1 -1</clus>
<clus scale="  126.988">  1  5  2 -1</clus>
<clus scale="   33.552">  1  3  2 -1</clus>
</clustering>
</event>
<event>
 6    0  0.3446372E+002  0.1327612E+03  0.7546771E-02  0.1223415E+00
         21   -1    0    0  504  501  0.00000000000E+00  0.00000000000E+00  0.97713258952E+02  0.97713258952E+02  0.00000000000E+00 0. -1.
         21   -1    0    0  506  502 -0.00000000000E+00 -0.00000000000E+00 -0.63403816609E+03  0.63403816609E+03  0.00000000000E+00 0. -1.
         21    1    1    2  503  502 -0.29235292074E+02  0.25930695099E+02 -0.84600032152E+02  0.93189423709E+02  0.00000000000E+00 0.  1.
         21    1    1    2  504  505 -0.43129782524E+02 -0.18649924891E+02 -0.17107586402E+03  0.17741180651E+03  0.00000000000E+00 0. -1.
         21    1    1    2  505  503 -0.56488457685E+02  0.11165215166E+02 -0.32002008467E+03  0.32515913407E+03  0.00000000000E+00 0. -1.
         21    1    1    2  506  501  0.12885353228E+03 -0.18445985374E+02  0.39371073704E+02  0.13599106075E+03  0.00000000000E+00 0. -1.
<scales pt_clust_3="39.07817" pt_clust_4="34.07107" pt_clust_5="34.07107" pt_clust_6="127.29115"></scales>
<clustering>
<clus scale="   34.071">  4  5 -1 -1</clus>
<clus scale="   39.078">  2  3  1 -1</clus>
<clus scale="  127.291">  1  6  2 -1</clus>
<clus scale="  127.291">  1  3  2 -1</clus>
</clustering>
</event>
<event>
 6    0  0.3446372E+002  0.2094516E+03  0.7546771E-02  0.1142001E+00
         21   -1    0    0  506  501  0.00000000000E+00  0.00000000000E+00  0.43335338853E+03  0.43335338853E+03  0.00000000000E+00 0.  1.
         21   -1    0    0  504  502 -0.00000000000E+00 -0.00000000000E+00 -0.24461500432E+03  0.24461500432E+03  0.00000000000E+00 0.  1.
         21    1    1    2  503  505 -0.17852182419E+03  0.12817552590E+01 -0.10232402678E+03  0.20577145348E+03  0.00000000000E+00 0.  1.
         21    1    1    2  504  501  0.33633081802E+02 -0.20921821055E+01  0.22838833751E+03  0.23086098442E+03  0.00000000000E+00 0.  1.
         21    1    1    2  505  502 -0.29513500726E+02 -0.28192280087E+02 -0.20815830938E+02  0.45816483925E+02  0.00000000000E+00 0.  1.
         21    1    1    2  506  503  0.17440224311E+03  0.29002706934E+02  0.83489904418E+02  0.19551947103E+03  0.00000000000E+00 0.  1.
<scales pt_clust_3="30.72861" pt_clust_4="33.69809" pt_clust_5="30.72861" pt_clust_6="199.34842"></scales>
<clustering>
<clus scale="   30.729">  3  5 -1 -1</clus>
<clus scale="   33.698">  1  4  2 -1</clus>
<clus scale="  199.348">  1  6  2 -1</clus>
<clus scale="   33.698">  1  3  2 -1</clus>
</clustering>
</event>
<event>
 6    0  0.3446372E+002  0.1262396E+03  0.7546771E-02  0.1233145E+00
         21   -1    0    0  503  501  0.00000000000E+00  0.00000000000E+00  0.25836975210E+03  0.25836975210E+03  0.00000000000E+00 0. -1.
         21   -1    0    0  505  502 -0.00000000000E+00 -0.00000000000E+00 -0.38480424896E+03  0.38480424896E+03  0.00000000000E+00 0.  1.
         21    1    1    2  503  506 -0.29078472573E+02 -0.34970534911E+02  0.61905559538E+00  0.45484932769E+02  0.00000000000E+00 0.  1.
         21    1    1    2  504  501  0.88692856727E+02  0.10514343306E+03  0.20240867803E+03  0.24472604539E+03  0.00000000000E+00 0. -1.
         21    1    1    2  505  504 -0.60637708514E+02 -0.32219080312E+02 -0.10599315540E+03  0.12629152712E+03  0.00000000000E+00 0.  1.
         21    1    1    2  506  502  0.10233243595E+01 -0.37953817840E+02 -0.22346907508E+03  0.22667149578E+03  0.00000000000E+00 0.  1.
<scales pt_clust_3="49.61220" pt_clust_4="14000.00000" pt_clust_5="126.23961" pt_clust_6="37.96761"></scales>
<clustering>
<clus scale="   37.968">  2  6  1 -1</clus>
<clus scale="   49.612">  2  3  1 -1</clus>
<clus scale="  126.240">  2  5  1 -1</clus>
<clus scale="  126.240">  1  3  2 -1</clus>
</clustering>
</event>
<event>
 6    0  0.3446372E+002  0.2126814E+03  0.7546771E-02  0.1139460E+00
         21   -1    0    0  503  501  0.00000000000E+00  0.00000000000E+00  0.37721013877E+03  0.37721013877E+03  0.00000000000E+00 0.  1.
         21   -1    0    0  506  502 -0.00000000000E+00 -0.00000000000E+00 -0.29941329158E+03  0.29941329158E+03  0.00000000000E+00 0.  1.
         21    1    1    2  503  504  0.19354862802E+02  0.33152016541E+02  0.10530098077E+03  0.11208016535E+03  0.00000000000E+00 0.  1.
         21    1    1    2  504  502  0.94544500135E+02  0.21641093013E+03 -0.39317599587E+01  0.23619443669E+03  0.00000000000E+00 0.  1.
         21    1    1    2  505  501 -0.51281961427E+02 -0.59349445274E+02  0.71986404823E+02  0.10646238163E+03  0.00000000000E+00 0.  1.
         21    1    1    2  506  505 -0.62617401510E+02 -0.19021350140E+03 -0.95558778440E+02  0.22188644669E+03  0.00000000000E+00 0.  1.
<scales pt_clust_3="38.38837" pt_clust_4="14000.00000" pt_clust_5="65.93725" pt_clust_6="212.68141"></scales>
<clustering>
<clus scale="   38.388">  1  3  2 -1</clus>
<clus scale="   65.937">  1  5  2 -1</clus>
<clus scale="  212.681">  2  6  1 -1</clus>
<clus scale="   38.388">  1  3  2 -1</clus>
</clustering>
</event>
<event>
 6    0  0.3446372E+002  0.1326532E+03  0.7546771E-02  0.1223571E+00
         21   -1    0    0  503  501  0.00000000000E+00  0.00000000000E+00  0.99533512097E+02  0.99533512097E+02  0.00000000000E+00 0.  1.
         21   -1    0    0  505  502 -0.00000000000E+00 -0.00000000000E+00 -0.45685002677E+03  0.45685002677E+03  0.00000000000E+00 0. -1.
         21    1    1    2  503  502 -0.17087827386E+03 -0.13578781749E+02 -0.26413780362E+03  0.31488497439E+03  0.00000000000E+00 0. -1.
         21    1    1    2  504  501  0.87385732303E+02 -0.16795798097E+02 -0.41991774962E+01  0.89084219340E+02  0.00000000000E+00 0.  1.
         21    1    1    2  505  506  0.59091835002E+02  0.88306793242E+01 -0.10130225608E+03  0.11760940842E+03  0.00000000000E+00 0. -1.
         21    1    1    2  506  504  0.24400706555E+02  0.21543900522E+02  0.12322722525E+02  0.34804936726E+02  0.00000000000E+00 0.  1.
<scales pt_clust_3="121.79123" pt_clust_4="31.79593" pt_clust_5="59.74802" pt_clust_6="31.79593"></scales>
<clustering>
<clus scale="   31.796">  4  6 -1 -1</clus>
<clus scale="   59.748">  2  5  1 -1</clus>
<clus scale="  121.791">  2  3  1 -1</clus>
<clus scale="  132.653">  1  3  2 -1</clus>
</clustering>
</event>
<event>
 6    0  0.3446372E+002  0.1192841E+03  0.7546771E-02  0.1244283E+00
         21   -1    0    0  503  501  0.00000000000E+00  0.00000000000E+00  0.47509778686E+03  0.47509778686E+03  0.00000000000E+00 0. -1.
         21   -1    0    0  504  502 -0.00000000000E+00 -0.00000000000E+00 -0.51870229954E+02  0.51870229954E+02  0.00000000000E+00 0. -1.
         21    1    1    2  503  506 -0.30429500448E+02 -0.46096327604E+02  0.17783577649E+03  0.18621597492E+03  0.00000000000E+00 0.  1.
         21    1    1    2  504  501 -0.90264731860E+02  0.48717730196E+02  0.13945302729E+03  0.17311350575E+03  0.00000000000E+00 0. -1.
         21    1    1    2  505  502  0.40845873496E+02 -0.13776457616E+02  0.13924878944E+02  0.45299872182E+02  0.00000000000E+00 0. -1.
         21    1    1    2  506  505  0.79848358811E+02  0.11155055024E+02  0.92013874183E+02  0.12233866396E+03  0.00000000000E+00 0. -1.
<scales pt_clust_3="55.23428" pt_clust_4="109.19256" pt_clust_5="35.11079" pt_clust_6="35.11079"></scales>
<clustering>
<clus scale="   35.111">  5  6 -1 -1</clus>
<clus scale="   55.234">  1  3  2 -1</clus>
<clus scale="  109.193">  1  4  2 -1</clus>
<clus scale="   55.234">  1  3  2 -1</clus>
</clustering>
</event>
<event>
 6    0  0.3446372E+002  0.1150629E+03  0.7546771E-02  0.1251471E+00
         21   -1    0    0  505  501  0.00000000000E+00  0.00000000000E+00  0.19710635288E+03  0.19710635288E+03  0.00000000000E+00 0. -1.
         21   -1    0    0  503  502 -0.00000000000E+00 -0.00000000000E+00 -0.10438177622E+04  0.10438177622E+04  0.00000000000E+00 0.  1.
         21    1    1    2  503  504  0.33129185110E+02 -0.52347880064E+01 -0.17205837082E+03  0.17529697339E+03  0.00000000000E+00 0.  1.
         21    1    1    2  504  506 -0.74668401716E+02 -0.10490415863E+03 -0.65534205132E+03  0.66787233581E+03  0.00000000000E+00 0.  1.
         21    1    1    2  505  502  0.36092379832E+02  0.10104341719E+01  0.17291529189E+03  0.17664478206E+03  0.00000000000E+00 0. -1.
         21    1    1    2  506  501  0.54468367746E+01  0.10912851246E+03 -0.19222627903E+03  0.22111002377E+03  0.00000000000E+00 0. -1.
<scales pt_clust_3="33.54021" pt_clust_4="115.06289" pt_clust_5="36.17718" pt_clust_6="14000.00000"></scales>
<clustering>
<clus scale="   33.540">  2  3  1 -1</clus>
<clus scale="   36.177">  1  5  2 -1</clus>
<clus scale="  115.063">  2  4  1 -1</clus>
<clus scale="   36.177">  1  3  2 -1</clus>
</clustering>
</event>
<event>
 6    0  0.3446372E+002  0.1504014E+03  0.7546771E-02  0.1199981E+00
         21   -1    0    0  505  501  0.00000000000E+00  0.00000000000E+00  0.22396915476E+03  0.22396915476E+03  0.00000000000E+00 0. -1.
         21   -1    0    0  506  502 -0.00000000000E+00 -0.00000000000E+00 -0.20753339371E+03  0.20753339371E+03  0.00000000000E+00 0. -1.
         21    1    1    2  503  504  0.15368424621E+02 -0.44829211397E+02  0.65622697366E+02  0.80945568621E+02  0.00000000000E+00 0. -1.
         21    1    1    2  504  502 -0.16797855054E+03 -0.36874210963E+01 -0.52395782877E+02  0.17599917210E+03  0.00000000000E+00 0. -1.
         21    1    1    2  505  503  0.20106354358E+02  0.26744963454E+02  0.20389318393E+02  0.39182685720E+02  0.00000000000E+00 0. -1.
         21    1    1    2  506  501  0.13250377157E+03  0.21771669040E+02 -0.17180471832E+02  0.13537512203E+03  0.00000000000E+00 0. -1.
<scales pt_clust_3="41.63620" pt_clust_4="14000.00000" pt_clust_5="33.45981" pt_clust_6="150.40138"></scales>
<clustering>
<clus scale="   33.460">  1  5  2 -1</clus>
<clus scale="   41.636">  1  3  2 -1</clus>
<clus scale="  150.401">  2  6  1 -1</clus>
<clus scale="   33.460">  1  3  2 -1</clus>
</clustering>
</event>
<event>
 6    0  0.3446372E+002  0.8334596E+02  0.7546771E-02  0.1319816E+00
         21   -1    0    0  504  501  0.00000000000E+00  0.00000000000E+00  0.49979347714E+02  0.49979347714E+02  0.00000000000E+00 0. -1.
         21   -1    0    0  503  502 -0.00000000000E+00 -0.00000000000E+00 -0.68471230274E+03  0.68471230274E+03  0.00000000000E+00 0. -1.
         21    1    1    2  503  505 -0.13534899107E+02  0.45391442534E+02 -0.25072308948E+02  0.53592884090E+02  0.00000000000E+00 0. -1.
         21    1    1    2  504  506 -0.71134280000E+02 -0.71179182336E+02 -0.33125926171E+03  0.34620696160E+03  0.00000000000E+00 0. -1.
         21    1    1    2  505  501  0.30423053017E+02 -0.22855092337E+02  0.84104191296E+01  0.38969892873E+02  0.00000000000E+00 0. -1.
         21    1    1    2  506  502  0.54246126090E+02  0.48642832139E+02 -0.28681180350E+03  0.29592191190E+03  0.00000000000E+00 0. -1.
<scales pt_clust_3="33.12715" pt_clust_4="83.34596" pt_clust_5="38.05151" pt_clust_6="14000.00000"></scales>
<clustering>
<clus scale="   38.052">  1  5  2 -1</clus>
<clus scale="   33.127">  1  3  2 -1</clus>
<clus scale="   83.346">  1  4  2 -1</clus>
<clus scale="   38.052">  1  3  2 -1</clus>
</clustering>
</event>
<event>
 6    0  0.3446372E+002  0.7958764E+02  0.7546771E-02  0.1330226E+00
         21   -1    0    0  504  501  0.00000000000E+00  0.00000000000E+00  0.72309211032E+03  0.72309211032E+03  0.00000000000E+00 0.  1.
         21   -1    0    0  506  502 -0.00000000000E+00 -0.00000000000E+00 -0.85871116147E+02  0.85871116147E+02  0.00000000000E+00 0.  1.
         21    1    1    2  503  502 -0.39902847731E+02 -0.13221973676E+01 -0.68238556190E+01  0.40503709317E+02  0.00000000000E+00 0. -1.
         21    1    1    2  504  505 -0.39008780418E+02  0.51766095697E+02  0.14095865282E+03  0.15514752791E+03  0.00000000000E+00 0.  1.
         21    1    1    2  505  503  0.57386126363E+02  0.72617054430E+02 -0.24307596232E+01  0.92586784615E+02  0.00000000000E+00 0.  1.
         21    1    1    2  506  501  0.21525501785E+02 -0.12306095276E+03  0.50551695660E+03  0.52072520463E+03  0.00000000000E+00 0.  1.
<scales pt_clust_3="39.92475" pt_clust_4="67.53940" pt_clust_5="14000.00000" pt_clust_6="79.58764"></scales>
<clustering>
<clus scale="   39.925">  2  3  1 -1</clus>
<clus scale="   67.539">  1  4  2 -1</clus>
<clus scale="   79.588">  1  6  2 -1</clus>
<clus scale="   67.539">  1  3  2 -1</clus>
</clustering>
</event>
<event>
 6    0  0.3446372E+002  0.1131072E+03  0.7546771E-02  0.1254922E+00
         21   -1    0    0  506  501  0.00000000000E+00  0.00000000000E+00  0.32693083103E+03  0.32693083103E+03  0.00000000000E+00 0. -1.
         21   -1    0    0  504  502 -0.00000000000E+00 -0.00000000000E+00 -0.30067935347E+03  0.30067935347E+03  0.00000000000E+00 0. -1.
         21    1    1    2  503  501  0.84842715191E+02  0.59537857150E+00  0.13704263151E+03  0.16118102757E+03  0.00000000000E+00 0. -1.
         21    1    1    2  504  503 -0.10153242894E+03 -0.11367609004E+03 -0.12330945981E+03  0.19605180553E+03  0.00000000000E+00 0. -1.
         21    1    1    2  505  502 -0.64932637754E+00  0.54598070180E+02 -0.11594987089E+03  0.12816295663E+03  0.00000000000E+00 0.  1.
         21    1    1    2  506  505  0.17339040125E+02  0.58482641284E+02  0.12846817676E+03  0.14221439478E+03  0.00000000000E+00 0. -1.
<scales pt_clust_3="113.10719" pt_clust_4="14000.00000" pt_clust_5="54.60193" pt_clust_6="63.00901"></scales>
<clustering>
<clus scale="   54.602">  2  5  1 -1</clus>
<clus scale="   63.009">  1  6  2 -1</clus>
<clus scale="  113.107">  1  3  2 -1</clus>
<clus scale="   63.009">  1  3  2 -1</clus>
</clustering>
</event>
<event>
 6    0  0.3446372E+002  0.1765923E+03  0.7546771E-02  0.1171142E+00
         21   -1    0    0  503  501  0.00000000000E+00  0.00000000000E+00  0.71763775784E+03  0.71763775784E+03  0.00000000000E+00 0. -1.
         21   -1    0    0  505  502 -0.00000000000E+00 -0.00000000000E+00 -0.63751524379E+03  0.63751524379E+03  0.00000000000E+00 0. -1.
         21    1    1    2  503  504  0.28172749450E+02  0.31988873053E+02  0.23436085852E+03  0.23820580139E+03  0.00000000000E+00 0. -1.
         21    1    1    2  504  502 -0.26167642687E+02  0.16139987826E+03 -0.15777838126E+03  0.22721946180E+03  0.00000000000E+00 0. -1.
         21    1    1    2  505  506  0.10747036317E+03 -0.38435132573E+01 -0.40889884951E+03  0.42280364318E+03  0.00000000000E+00 0. -1.
         21    1    1    2  506  501 -0.10947546994E+03 -0.18954523806E+03  0.41243888631E+03  0.46692409525E+03  0.00000000000E+00 0. -1.
<scales pt_clust_3="42.62619" pt_clust_4="14000.00000" pt_clust_5="107.93026" pt_clust_6="176.59232"></scales>
<clustering>
<clus scale="   42.626">  1  3  2 -1</clus>
<clus scale="  107.930">  2  5  1 -1</clus>
<clus scale="  176.592">  1  6  2 -1</clus>
<clus scale="   42.626">  1  3  2 -1</clus>
</clustering>
</event>
<event>
 6    0  0.3446372E+002  0.1304053E+03  0.7546771E-02  0.1226856E+00
         21   -1    0    0  506  501  0.00000000000E+00  0.00000000000E+00  0.44849748466E+03  0.44849748466E+03  0.00000000000E+00 0. -1.
         21   -1    0    0  505  502 -0.00000000000E+00 -0.00000000000E+00 -0.95126700444E+02  0.95126700444E+02  0.00000000000E+00 0.  1.
         21    1    1    2  503  502  0.41063608798E+02  0.41569506059E+02  0.24281639246E+02  0.63275918057E+02  0.00000000000E+00 0. -1.
         21    1    1    2  504  501 -0.41221582496E+02 -0.31718718853E+02  0.81932729779E+02  0.97047762459E+02  0.00000000000E+00 0. -1.
         21    1    1    2  505  504 -0.44645628240E+02 -0.62800479469E+02  0.29114344660E+03  0.30116712775E+03  0.00000000000E+00 0. -1.
         21    1    1    2  506  503  0.44803601939E+02  0.52949692263E+02 -0.43987031410E+02  0.82133376831E+02  0.00000000000E+00 0.  1.
<scales pt_clust_3="58.43153" pt_clust_4="45.61320" pt_clust_5="45.61320" pt_clust_6="117.99716"></scales>
<clustering>
<clus scale="   45.613">  4  5 -1 -1</clus>
<clus scale="   58.432">  2  3  1 -1</clus>
<clus scale="  117.997">  2  6  1 -1</clus>
<clus scale="  130.405">  1  3  2 -1</clus>
</clustering>
</event>
<event>
 6    0  0.3446372E+002  0.1845115E+03  0.7546771E-02  0.1163507E+00
         21   -1    0    0  502  501  0.00000000000E+00  0.00000000000E+00  0.55303505491E+03  0.55303505491E+03  0.00000000000E+00 0. -1.
         21   -1    0    0  505  502 -0.00000000000E+00 -0.00000000000E+00 -0.16407003638E+03  0.16407003638E+03  0.00000000000E+00 0.  1.
         21    1    1    2  503  506  0.38728039415E+02 -0.15386251585E+03  0.21817111928E+03  0.26976317782E+03  0.00000000000E+00 0.  1.
         21    1    1    2  504  503 -0.65997538929E+02  0.47427657849E+02 -0.37597246350E+02  0.89546696236E+02  0.00000000000E+00 0.  1.
         21    1    1    2  505  504 -0.63787405513E+01  0.10511041828E+03 -0.35853525254E+02  0.11124011703E+03  0.00000000000E+00 0.  1.
         21    1    1    2  506  501  0.33648240065E+02  0.13244397140E+01  0.24424467085E+03  0.24655510021E+03  0.00000000000E+00 0. -1.
<scales pt_clust_3="166.22380" pt_clust_4="69.39204" pt_clust_5="69.39204" pt_clust_6="33.67430"></scales>
<clustering>
<clus scale="   33.674">  1  6  2 -1</clus>
<clus scale="   69.392">  4  5 -1 -1</clus>
<clus scale="  166.224">  1  3  2 -1</clus>
<clus scale="   33.674">  1  3  2 -1</clus>
</clustering>
</event>
<event>
 6    0  0.3446372E+002  0.9069675E+02  0.7546771E-02  0.1301173E+00
         21   -1    0    0  503  501  0.00000000000E+00  0.00000000000E+00  0.55527205573E+03  0.55527205573E+03  0.00000000000E+00 0.  1.
         21   -1    0    0  504  502 -0.00000000000E+00 -0.00000000000E+00 -0.53519336127E+02  0.53519336127E+02  0.00000000000E+00 0. -1.
         21    1    1    2  503  505 -0.84286822101E+00  0.78545754584E+02  0.36541838425E+03  0.37376562380E+03  0.00000000000E+00 0.  1.
         21    1    1    2  504  506  0.41403020334E+02 -0.11214877336E+03  0.65073853814E+02  0.13611085155E+03  0.00000000000E+00 0. -1.
         21    1    1    2  505  502 -0.80530201045E+01  0.31542285170E+02  0.20080733353E+02  0.38249218796E+02  0.00000000000E+00 0. -1.
         21    1    1    2  506  501 -0.32507132008E+02  0.20607336035E+01  0.51179748184E+02  0.60665697709E+02  0.00000000000E+00 0.  1.
<scales pt_clust_3="90.69675" pt_clust_4="14000.00000" pt_clust_5="32.55406" pt_clust_6="33.80526"></scales>
<clustering>
<clus scale="   32.554">  2  5  1 -1</clus>
<clus scale="   33.805">  1  6  2 -1</clus>
<clus scale="   90.697">  1  3  2 -1</clus>
<clus scale="   33.805">  1  3  2 -1</clus>
</clustering>
</event>
<event>
 6    0  0.3446372E+002  0.1431958E+03  0.7546771E-02  0.1209092E+00
         21   -1    0    0  503  501  0.00000000000E+00  0.00000000000E+00  0.42973545462E+03  0.42973545462E+03  0.00000000000E+00 0.  1.
         21   -1    0    0  504  502 -0.00000000000E+00 -0.00000000000E+00 -0.37675388076E+03  0.37675388076E+03  0.00000000000E+00 0.  1.
         21    1    1    2  503  502 -0.63812887653E+01  0.30255480840E+02  0.21850893224E+03  0.22068590448E+03  0.00000000000E+00 0.  1.
         21    1    1    2  504  505 -0.11186319957E+03  0.98137265762E+02 -0.28235260530E+03  0.31916655851E+03  0.00000000000E+00 0.  1.
         21    1    1    2  505  506  0.30850653352E+02 -0.10828341539E+03  0.13432062873E+03  0.17526862857E+03  0.00000000000E+00 0. -1.
         21    1    1    2  506  501  0.87393834982E+02 -0.20109331216E+02 -0.17495381798E+02  0.91368243822E+02  0.00000000000E+00 0. -1.
<scales pt_clust_3="30.92111" pt_clust_4="14000.00000" pt_clust_5="143.19578" pt_clust_6="87.53097"></scales>
<clustering>
<clus scale="   30.921">  1  3  2 -1</clus>
<clus scale="   87.531">  1  6  2 -1</clus>
<clus scale="  143.196">  1  5  2 -1</clus>
<clus scale="   30.921">  1  3  2 -1</clus>
</clustering>
</event>
<event>
 6    0  0.3446372E+002  0.1091306E+03  0.7546771E-02  0.1262188E+00
         21   -1    0    0  506  501  0.00000000000E+00  0.00000000000E+00  0.26123697558E+03  0.26123697558E+03  0.00000000000E+00 0.  1.
         21   -1    0    0  505  502 -0.00000000000E+00 -0.00000000000E+00 -0.62888822701E+03  0.62888822701E+03  0.00000000000E+00 0. -1.
         21    1    1    2  503  501 -0.41161118748E+02 -0.46493929287E+01  0.15906362430E+03  0.16436876566E+03  0.00000000000E+00 0.  1.
         21    1    1    2  504  503  0.59887647598E+02 -0.85472516370E+02 -0.23366063975E+03  0.25590892122E+03  0.00000000000E+00 0. -1.
         21    1    1    2  505  504 -0.78899042180E+01  0.12069050639E+03 -0.36843845018E+03  0.38778259437E+03  0.00000000000E+00 0. -1.
         21    1    1    2  506  502 -0.10836624633E+02 -0.30568597087E+02  0.75384214215E+02  0.82064921338E+02  0.00000000000E+00 0.  1.
<scales pt_clust_3="59.86637" pt_clust_4="14000.00000" pt_clust_5="109.13065" pt_clust_6="32.43257"></scales>
<clustering>
<clus scale="   32.433">  1  6  2 -1</clus>
<clus scale="   59.866">  1  3  2 -1</clus>
<clus scale="  109.131">  2  5  1 -1</clus>
<clus scale="   32.433">  1  3  2 -1</clus>
</clustering>
</event>
<event>
 6    0  0.3446372E+002  0.8482706E+02  0.7546771E-02  0.1315885E+00
         21   -1    0    0  503  501  0.00000000000E+00  0.00000000000E+00  0.33146413721E+03  0.33146413721E+03  0.00000000000E+00 0. -1.
         21   -1    0    0  505  502 -0.00000000000E+00 -0.00000000000E+00 -0.11082349385E+04  0.11082349385E+04  0.00000000000E+00 0. -1.
         21    1    1    2  503  506  0.67771249735E+02 -0.56542627957E+02  0.27799518550E+03  0.29166990628E+03  0.00000000000E+00 0. -1.
         21    1    1    2  504  502  0.29115077446E+02  0.15534839525E+02 -0.23977982700E+03  0.24204004712E+03  0.00000000000E+00 0. -1.
         21    1    1    2  505  501 -0.76774863753E+01  0.57617500478E+02 -0.81315378928E+03  0.81522868275E+03  0.00000000000E+00 0. -1.
         21    1    1    2  506  504 -0.89208840805E+02 -0.16609712046E+02 -0.18323705272E+01  0.90760439585E+02  0.00000000000E+00 0. -1.
<scales pt_clust_3="84.82706" pt_clust_4="33.00029" pt_clust_5="74.82788" pt_clust_6="14000.00000"></scales>
<clustering>
<clus scale="   33.000">  2  4  1 -1</clus>
<clus scale="   74.828">  2  5  1 -1</clus>
<clus scale="   84.827">  1  3  2 -1</clus>
<clus scale="   84.827">  1  3  2 -1</clus>
</clustering>
</event>
<event>
 6    0  0.3446372E+002  0.8444030E+02  0.7546771E-02  0.1316903E+00
         21   -1    0    0  503  501  0.00000000000E+00  0.00000000000E+00  0.10259458602E+04  0.10259458602E+04  0.00000000000E+00 0. -1.
         21   -1    0    0  506  502 -0.00000000000E+00 -0.00000000000E+00 -0.12385892227E+03  0.12385892227E+03  0.00000000000E+00 0.  1.
         21    1    1    2  503  505  0.83176168808E+01  0.46771776539E+02  0.32979236598E+03  0.33319631824E+03  0.00000000000E+00 0. -1.
         21    1    1    2  504  501 -0.60504128222E+02 -0.10741897739E+03  0.62163754861E+03  0.63374508131E+03  0.00000000000E+00 0. -1.
         21    1    1    2  505  502  0.35314580400E+02  0.91459911902E+02 -0.87206281846E+02  0.13121345460E+03  0.00000000000E+00 0.  1.
         21    1    1    2  506  504  0.16871930941E+02 -0.30812711047E+02  0.37863305152E+02  0.51649928294E+02  0.00000000000E+00 0.  1.
<scales pt_clust_3="47.10824" pt_clust_4="84.44030" pt_clust_5="14000.00000" pt_clust_6="35.12955"></scales>
<clustering>
<clus scale="   35.130">  2  6  1 -1</clus>
<clus scale="   47.108">  1  3  2 -1</clus>
<clus scale="   84.440">  1  4  2 -1</clus>
<clus scale="   47.108">  1  3  2 -1</clus>
</clustering>
</event>
<event>
 6    0  0.3446372E+002  0.8897796E+02  0.7546771E-02  0.1305346E+00
         21   -1    0    0  505  501  0.00000000000E+00  0.00000000000E+00  0.21041153382E+04  0.21041153382E+04  0.00000000000E+00 0.  1.
         21   -1    0    0  506  502 -0.00000000000E+00 -0.00000000000E+00 -0.32603545198E+02  0.32603545198E+02  0.00000000000E+00 0.  1.
         21    1    1    2  503  504  0.60307616547E+02 -0.29799580682E+02  0.29455260401E+02  0.73434569432E+02  0.00000000000E+00 0.  1.
         21    1    1    2  504  501 -0.81704424181E+02  0.92245035181E+02  0.14064172554E+04  0.14118053180E+04  0.00000000000E+00 0.  1.
         21    1    1    2  505  502  0.22036042731E+02 -0.26067512828E+02  0.59855344095E+03  0.59952591611E+03  0.00000000000E+00 0.  1.
         21    1    1    2  506  503 -0.63923509708E+00 -0.36377941672E+02  0.37085836166E+02  0.51953079850E+02  0.00000000000E+00 0.  1.
<scales pt_clust_3="14000.00000" pt_clust_4="88.97796" pt_clust_5="34.13360" pt_clust_6="37.14901"></scales>
<clustering>
<clus scale="   34.134">  1  5  2 -1</clus>
<clus scale="   37.149">  2  6  1 -1</clus>
<clus scale="   88.978">  1  4  2 -1</clus>
<clus scale="   34.134">  1  3  2 -1</clus>
</clustering>
</event>
<event>
 6    0  0.3446372E+002  0.9922703E+02  0.7546771E-02  0.1281930E+00
         21   -1    0    0  503  501  0.00000000000E+00  0.00000000000E+00  0.11407482378E+03  0.11407482378E+03  0.00000000000E+00 0.  1.
         21   -1    0    0  505  502 -0.00000000000E+00 -0.00000000000E+00 -0.48903235921E+03  0.48903235921E+03  0.00000000000E+00 0.  1.
         21    1    1    2  503  506 -0.33576427553E+02  0.89568586991E+02  0.49104330153E+02  0.10752275807E+03  0.00000000000E+00 0.  1.
         21    1    1    2  504  501  0.79943244322E+02 -0.10018668862E+03 -0.17249739577E+03  0.21490380740E+03  0.00000000000E+00 0.  1.
         21    1    1    2  505  504  0.31594130660E+01  0.32531679650E+02 -0.20969107180E+03  0.21222308467E+03  0.00000000000E+00 0.  1.
         21    1    1    2  506  502 -0.49526229835E+02 -0.21913578027E+02 -0.41873398010E+02  0.68457532854E+02  0.00000000000E+00 0. -1.
<scales pt_clust_3="14000.00000" pt_clust_4="99.22703" pt_clust_5="32.68474" pt_clust_6="51.28512"></scales>
<clustering>
<clus scale="   32.685">  2  5  1 -1</clus>
<clus scale="   51.285">  2  6  1 -1</clus>
<clus scale="   99.227">  2  4  1 -1</clus>
<clus scale="   99.227">  1  3  2 -1</clus>
</clustering>
</event>
<event>
 6    0  0.3446372E+002  0.1761108E+03  0.7546771E-02  0.1171621E+00
         21   -1    0    0  504  501  0.00000000000E+00  0.00000000000E+00  0.59876295514E+03  0.59876295514E+03  0.00000000000E+00 0.  1.
         21   -1    0    0  503  502 -0.00000000000E+00 -0.00000000000E+00 -0.52978520401E+03  0.52978520401E+03  0.00000000000E+00 0.  1.
         21    1    1    2  503  506  0.38127671614E+02  0.29017852442E+02 -0.66819916532E+02  0.82223210521E+02  0.00000000000E+00 0. -1.
         21    1    1    2  504  505  0.12271030153E+03  0.76902733421E+00  0.46625304112E+03  0.48213100695E+03  0.00000000000E+00 0.  1.
         21    1    1    2  505  502 -0.20818360071E+03  0.23622536393E+02 -0.40809209825E+03  0.45873477793E+03  0.00000000000E+00 0.  1.
         21    1    1    2  506  501  0.47345627571E+02 -0.53409416169E+02  0.77636724775E+02  0.10545916375E+03  0.00000000000E+00 0. -1.
<scales pt_clust_3="47.91404" pt_clust_4="14000.00000" pt_clust_5="176.11083" pt_clust_6="71.49771"></scales>
<clustering>
<clus scale="   47.914">  2  3  1 -1</clus>
<clus scale="   71.498">  1  6  2 -1</clus>
<clus scale="  176.111">  2  5  1 -1</clus>
<clus scale="   71.498">  1  3  2 -1</clus>
</clustering>
</event>
<event>
 6    0  0.3446372E+002  0.7897808E+02  0.7546771E-02  0.1331977E+00
         21   -1    0    0  505  501  0.00000000000E+00  0.00000000000E+00  0.32412327232E+03  0.32412327232E+03  0.00000000000E+00 0.  1.
         21   -1    0    0  503  502 -0.00000000000E+00 -0.00000000000E+00 -0.75904947929E+02  0.75904947929E+02  0.00000000000E+00 0.  1.
         21    1    1    2  503  504  0.65863324930E+02  0.40936846446E+02  0.63053339649E+01  0.77804628424E+02  0.00000000000E+00 0.  1.
         21    1    1    2  504  506 -0.37131995784E+02 -0.82692228547E+02  0.40859488784E+02  0.99429812414E+02  0.00000000000E+00 0.  1.
         21    1    1    2  505  502  0.14011112103E+02  0.45947221298E+02  0.70113193566E+02  0.84990107186E+02  0.00000000000E+00 0.  1.
         21    1    1    2  506  501 -0.42742441249E+02 -0.41918391974E+01  0.13094030808E+03  0.13780367223E+03  0.00000000000E+00 0.  1.
<scales pt_clust_3="78.97808" pt_clust_4="14000.00000" pt_clust_5="44.36895" pt_clust_6="42.94750"></scales>
<clustering>
<clus scale="   42.948">  1  6  2 -1</clus>
<clus scale="   44.369">  1  5  2 -1</clus>
<clus scale="   78.978">  2  3  1 -1</clus>
<clus scale="   42.948">  1  3  2 -1</clus>
</clustering>
</event>
<event>
 6    0  0.3446372E+002  0.9750637E+02  0.7546771E-02  0.1285629E+00
         21   -1    0    0  504  501  0.00000000000E+00  0.00000000000E+00  0.30616289337E+04  0.30616289337E+04  0.00000000000E+00 0. -1.
         21   -1    0    0  506  502 -0.00000000000E+00 -0.00000000000E+00 -0.84566140071E+03  0.84566140071E+03  0.00000000000E+00 0. -1.
         21    1    1    2  503  502 -0.78823603484E+01 -0.33562681141E+02 -0.62881373122E+02  0.71712288039E+02  0.00000000000E+00 0. -1.
         21    1    1    2  504  505  0.31573052683E+02 -0.91423095942E+02  0.27533526488E+04  0.27550509703E+04  0.00000000000E+00 0. -1.
         21    1    1    2  505  503 -0.12054103207E+03  0.76081734553E+02  0.28216145603E+03  0.31612285272E+03  0.00000000000E+00 0.  1.
         21    1    1    2  506  501  0.96850339737E+02  0.48904042530E+02 -0.75666519874E+03  0.76440422335E+03  0.00000000000E+00 0. -1.
<scales pt_clust_3="34.47586" pt_clust_4="14000.00000" pt_clust_5="97.50637" pt_clust_6="90.59249"></scales>
<clustering>
<clus scale="   34.476">  2  3  1 -1</clus>
<clus scale="   90.592">  2  6  1 -1</clus>
<clus scale="   97.506">  2  5  1 -1</clus>
<clus scale="   97.506">  1  3  2 -1</clus>
</clustering>
</event>
<event>
 6    0  0.3446372E+002  0.7240863E+02  0.7546771E-02  0.1352089E+00
         21   -1    0    0  502  501  0.00000000000E+00  0.00000000000E+00  0.73688178368E+03  0.73688178368E+03  0.00000000000E+00 0.  1.
         21   -1    0    0  503  502 -0.00000000000E+00 -0.00000000000E+00 -0.69393145836E+03  0.69393145836E+03  0.00000000000E+00 0. -1.
         21    1    1    2  503  505 -0.64800459396E+02  0.70903876369E+01 -0.41294212084E+03  0.41805570000E+03  0.00000000000E+00 0. -1.
         21    1    1    2  504  506 -0.80693465251E+02  0.18293399881E+02 -0.94668163452E+01  0.83280876707E+02  0.00000000000E+00 0. -1.
         21    1    1    2  505  504  0.10886073272E+03 -0.39212289254E+02 -0.21703913530E+03  0.24595578670E+03  0.00000000000E+00 0. -1.
         21    1    1    2  506  501  0.36633191924E+02  0.13828501737E+02  0.68239839781E+03  0.68352087865E+03  0.00000000000E+00 0.  1.
<scales pt_clust_3="72.40863" pt_clust_4="62.16184" pt_clust_5="14000.00000" pt_clust_6="39.15633"></scales>
<clustering>
<clus scale="   39.156">  1  6  2 -1</clus>
<clus scale="   62.162">  1  4  2 -1</clus>
<clus scale="   72.409">  2  3  1 -1</clus>
<clus scale="   39.156">  1  3  2 -1</clus>
</clustering>
</event>
<event>
 6    0  0.3446372E+002  0.2817136E+03  0.7546771E-02  0.1094757E+00
         21   -1    0    0  506  501  0.00000000000E+00  0.00000000000E+00  0.10295867014E+03  0.10295867014E+03  0.00000000000E+00 0. -1.
         21   -1    0    0  505  502 -0.00000000000E+00 -0.00000000000E+00 -0.26635554468E+04  0.26635554468E+04  0.00000000000E+00 0. -1.
         21    1    1    2  503  502  0.10706548238E+03 -0.24357883144E+03 -0.14414551064E+04  0.14658057471E+04  0.00000000000E+00 0. -1.
         21    1    1    2  504  503 -0.32965101487E+02  0.15661571159E+03 -0.79680027974E+03  0.81271511911E+03  0.00000000000E+00 0. -1.
         21    1    1    2  505  501  0.18386739304E+02  0.25789951276E+02  0.71839782922E+02  0.78512089383E+02  0.00000000000E+00 0. -1.
         21    1    1    2  506  504 -0.92487120199E+02  0.61173168572E+02 -0.39418117347E+03  0.40948116132E+03  0.00000000000E+00 0. -1.
<scales pt_clust_3="259.24093" pt_clust_4="90.04172" pt_clust_5="31.67323" pt_clust_6="90.04172"></scales>
<clustering>
<clus scale="   31.673">  1  5  2 -1</clus>
<clus scale="   90.042">  4  6 -1 -1</clus>
<clus scale="  259.241">  2  3  1 -1</clus>
<clus scale="   31.673">  1  3  2 -1</clus>
</clustering>
</event>
<event>
 6    0  0.3446372E+002  0.1005779E+03  0.7546771E-02  0.1279085E+00
         21   -1    0    0  504  501  0.00000000000E+00  0.00000000000E+00  0.16796052559E+03  0.16796052559E+03  0.00000000000E+00 0.  1.
         21   -1    0    0  503  502 -0.00000000000E+00 -0.00000000000E+00 -0.47527879871E+03  0.47527879871E+03  0.00000000000E+00 0.  1.
         21    1    1    2  503  506  0.45431140532E+02  0.22696627585E+02 -0.11278347062E+03  0.12369008319E+03  0.00000000000E+00 0.  1.
         21    1    1    2  504  505  0.14224084235E+02  0.29840793168E+02  0.10687663580E+03  0.11187230573E+03  0.00000000000E+00 0.  1.
         21    1    1    2  505  502 -0.12184929153E+03 -0.91878396417E+02 -0.29704773779E+03  0.33395545826E+03  0.00000000000E+00 0.  1.
         21    1    1    2  506  501  0.62194066760E+02  0.39340975664E+02 -0.43637005072E+01  0.73721477118E+02  0.00000000000E+00 0.  1.
<scales pt_clust_3="53.24455" pt_clust_4="33.05749" pt_clust_5="14000.00000" pt_clust_6="100.57792"></scales>
<clustering>
<clus scale="   33.057">  1  4  2 -1</clus>
<clus scale="   53.245">  2  3  1 -1</clus>
<clus scale="  100.578">  1  6  2 -1</clus>
<clus scale="   33.057">  1  3  2 -1</clus>
</clustering>
</event>
<event>
 6    0  0.3446372E+002  0.3257524E+03  0.7546771E-02  0.1073032E+00
         21   -1    0    0  503  501  0.00000000000E+00  0.00000000000E+00  0.80298530050E+03  0.80298530050E+03  0.00000000000E+00 0.  1.
         21   -1    0    0  501  502 -0.00000000000E+00 -0.00000000000E+00 -0.23420942868E+03  0.23420942868E+03  0.00000000000E+00 0.  1.
         21    1    1    2  503  505  0.34965105069E+02  0.35784560831E+02  0.31229619888E+03  0.31627837296E+03  0.00000000000E+00 0.  1.
         21    1    1    2  504  502  0.11212587271E+03  0.22055182525E+03  0.32276151497E+02  0.24951366477E+03  0.00000000000E+00 0.  1.
         21    1    1    2  505  506 -0.20535045771E+03 -0.27567225200E+03  0.22348961158E+03  0.41001415523E+03  0.00000000000E+00 0.  1.
         21    1    1    2  506  504  0.58259479936E+02  0.19335865916E+02  0.71390986877E+00  0.61388536230E+02  0.00000000000E+00 0. -1.
<scales pt_clust_3="50.03092" pt_clust_4="47.23935" pt_clust_5="311.64096" pt_clust_6="47.23935"></scales>
<clustering>
<clus scale="   47.239">  4  6 -1 -1</clus>
<clus scale="   50.031">  1  3  2 -1</clus>
<clus scale="  311.641">  1  5  2 -1</clus>
<clus scale="   50.031">  1  3  2 -1</clus>
</clustering>
</event>
<event>
 6    0  0.3446372E+002  0.8640285E+02  0.7546771E-02  0.1311804E+00
         21   -1    0    0  506  501  0.00000000000E+00  0.00000000000E+00  0.12202727635E+03  0.12202727635E+03  0.00000000000E+00 0.  1.
         21   -1    0    0  505  502 -0.00000000000E+00 -0.00000000000E+00 -0.64281233865E+03  0.64281233865E+03  0.00000000000E+00 0.  1.
         21    1    1    2  503  501  0.26609866691E+02 -0.49557434695E+02  0.73398875198E+02  0.92473883985E+02  0.00000000000E+00 0.  1.
         21    1    1    2  504  502 -0.11406176342E+03  0.11405166037E+02 -0.13726367164E+03  0.17883366360E+03  0.00000000000E+00 0.  1.
         21    1    1    2  505  503  0.68634545687E+02 -0.44892789003E+02 -0.33452080915E+03  0.34442740181E+03  0.00000000000E+00 0.  1.
         21    1    1    2  506  504  0.18817351037E+02  0.83045057661E+02 -0.12239945670E+03  0.14910466560E+03  0.00000000000E+00 0.  1.
<scales pt_clust_3="56.24966" pt_clust_4="86.40285" pt_clust_5="14000.00000" pt_clust_6="71.76547"></scales>
<clustering>
<clus scale="   56.250">  1  3  2 -1</clus>
<clus scale="   71.765">  1  6  2 -1</clus>
<clus scale="   86.403">  1  4  2 -1</clus>
<clus scale="   56.250">  1  3  2 -1</clus>
</clustering>
</event>
<event>
 6    0  0.3446372E+002  0.8090103E+02  0.7546771E-02  0.1326514E+00
         21   -1    0    0  505  501  0.00000000000E+00  0.00000000000E+00  0.45403040846E+03  0.45403040846E+03  0.00000000000E+00 0. -1.
         21   -1    0    0  506  502 -0.00000000000E+00 -0.00000000000E+00 -0.15438530956E+04  0.15438530956E+04  0.00000000000E+00 0. -1.
         21    1    1    2  503  504  0.32916038878E+02 -0.38212408541E+02 -0.47006675075E+03  0.47276463905E+03  0.00000000000E+00 0. -1.
         21    1    1    2  504  502  0.26459490619E+02 -0.19829145407E+02 -0.10450828889E+04  0.10456058265E+04  0.00000000000E+00 0. -1.
         21    1    1    2  505  503  0.43773890398E+02  0.68062557861E+02  0.32625466498E+03  0.33614099970E+03  0.00000000000E+00 0. -1.
         21    1    1    2  506  501 -0.10314941989E+03 -0.10021003913E+02  0.99072287580E+02  0.14337203880E+03  0.00000000000E+00 0.  1.
<scales pt_clust_3="80.73690" pt_clust_4="33.06508" pt_clust_5="80.90103" pt_clust_6="14000.00000"></scales>
<clustering>
<clus scale="   33.065">  2  4  1 -1</clus>
<clus scale="   80.901">  1  5  2 -1</clus>
<clus scale="   80.737">  2  3  1 -1</clus>
<clus scale="   80.901">  1  3  2 -1</clus>
</clustering>
</event>
<event>
 6    0  0.3446372E+002  0.1042751E+03  0.7546771E-02  0.1271555E+00
         21   -1    0    0  505  501  0.00000000000E+00  0.00000000000E+00  0.77774482956E+03  0.77774482956E+03  0.00000000000E+00 0. -1.
         21   -1    0    0  501  502 -0.00000000000E+00 -0.00000000000E+00 -0.59700620633E+02  0.59700620633E+02  0.00000000000E+00 0.  1.
         21    1    1    2  503  506  0.82383337191E+02  0.22862825786E+02  0.79191285070E+02  0.11653747329E+03  0.00000000000E+00 0.  1.
         21    1    1    2  504  503 -0.76579638991E+02 -0.45302187056E+02  0.53848514013E+03  0.54578656580E+03  0.00000000000E+00 0. -1.
         21    1    1    2  505  504 -0.21312300345E+02 -0.40140892699E+02  0.10088136090E+03  0.11064607715E+03  0.00000000000E+00 0.  1.
         21    1    1    2  506  502  0.15508602145E+02  0.62580253970E+02 -0.51357717047E+00  0.64475333957E+02  0.00000000000E+00 0.  1.
<scales pt_clust_3="14000.00000" pt_clust_4="104.27506" pt_clust_5="45.44783" pt_clust_6="62.37723"></scales>
<clustering>
<clus scale="   45.448">  1  5  2 -1</clus>
<clus scale="   62.377">  2  6  1 -1</clus>
<clus scale="  104.275">  1  4  2 -1</clus>
<clus scale="   45.448">  1  3  2 -1</clus>
</clustering>
</event>
<event>
 6    0  0.3446372E+002  0.5786228E+02  0.7546771E-02  0.1407028E+00
         21   -1    0    0  503  501  0.00000000000E+00  0.00000000000E+00  0.16002194533E+04  0.16002194533E+04  0.00000000000E+00 0. -1.
         21   -1    0    0  506  502 -0.00000000000E+00 -0.00000000000E+00 -0.76578258912E+03  0.76578258912E+03  0.00000000000E+00 0.  1.
         21    1    1    2  503  505 -0.38616044103E+02  0.26183305313E+02  0.14311123922E+04  0.14318727050E+04  0.00000000000E+00 0. -1.
         21    1    1    2  504  502 -0.45792987088E+02  0.10192018553E+02 -0.24416433178E+03  0.24863044025E+03  0.00000000000E+00 0. -1.
         21    1    1    2  505  504  0.75719263070E+02  0.38936476259E+02 -0.50663452961E+03  0.51373923597E+03  0.00000000000E+00 0.  1.
         21    1    1    2  506  501  0.86897681216E+01 -0.75311800125E+02  0.15412333338E+03  0.17175966116E+03  0.00000000000E+00 0.  1.
<scales pt_clust_3="46.65581" pt_clust_4="47.48818" pt_clust_5="57.86228" pt_clust_6="14000.00000"></scales>
<clustering>
<clus scale="   46.656">  1  3  2 -1</clus>
<clus scale="   47.488">  2  4  1 -1</clus>
<clus scale="   57.862">  2  5  1 -1</clus>
<clus scale="   46.656">  1  3  2 -1</clus>
</clustering>
</event>
<event>
 6    0  0.3446372E+002  0.9460396E+02  0.7546771E-02  0.1292071E+00
         21   -1    0    0  506  501  0.00000000000E+00  0.00000000000E+00  0.16120261831E+03  0.16120261831E+03  0.00000000000E+00 0.  1.
         21   -1    0    0  505  502 -0.00000000000E+00 -0.00000000000E+00 -0.19854546854E+03  0.19854546854E+03  0.00000000000E+00 0.  1.
         21    1    1    2  503  504  0.70319952810E+02  0.98675502477E+02 -0.36382867585E+01  0.12122288432E+03  0.00000000000E+00 0.  1.
         21    1    1    2  504  501 -0.63834661413E+02 -0.12486086026E+02  0.49349116146E+02  0.81646197746E+02  0.00000000000E+00 0.  1.
         21    1    1    2  505  503  0.42401633710E+02 -0.16132748595E+02 -0.15408347318E+02  0.47912224803E+02  0.00000000000E+00 0.  1.
         21    1    1    2  506  502 -0.48886925107E+02 -0.70056667856E+02 -0.67645332305E+02  0.10896677998E+03  0.00000000000E+00 0.  1.
<scales pt_clust_3="94.60396" pt_clust_4="61.36121" pt_clust_5="45.36699" pt_clust_6="14000.00000"></scales>
<clustering>
<clus scale="   45.367">  2  5  1 -1</clus>
<clus scale="   61.361">  1  4  2 -1</clus>
<clus scale="   94.604">  1  3  2 -1</clus>
<clus scale="   61.361">  1  3  2 -1</clus>
</clustering>
</event>
<event>
 6    0  0.3446372E+002  0.1590230E+03  0.7546771E-02  0.1189804E+00
         21   -1    0    0  504  501  0.00000000000E+00  0.00000000000E+00  0.50211332467E+03  0.50211332467E+03  0.00000000000E+00 0.  1.
         21   -1    0    0  506  502 -0.00000000000E+00 -0.00000000000E+00 -0.29705238621E+03  0.29705238621E+03  0.00000000000E+00 0. -1.
         21    1    1    2  503  501  0.41387391752E+02  0.27356208790E+02  0.26348586097E+02  0.56174071819E+02  0.00000000000E+00 0.  1.
         21    1    1    2  504  502  0.49750755685E+02  0.90294616134E+02  0.43123433188E+03  0.44338617974E+03  0.00000000000E+00 0.  1.
         21    1    1    2  505  503 -0.87561096693E+02 -0.83696446222E+02 -0.15787637442E+03  0.19898992528E+03  0.00000000000E+00 0. -1.
         21    1    1    2  506  505 -0.35770507443E+01 -0.33954378703E+02 -0.94645605096E+02  0.10061553403E+03  0.00000000000E+00 0. -1.
<scales pt_clust_3="49.61127" pt_clust_4="146.42443" pt_clust_5="32.93461" pt_clust_6="32.93461"></scales>
<clustering>
<clus scale="   32.935">  5  6 -1 -1</clus>
<clus scale="   49.611">  1  3  2 -1</clus>
<clus scale="  146.424">  1  4  2 -1</clus>
<clus scale="   49.611">  1  3  2 -1</clus>
</clustering>
</event>
<event>
 6    0  0.8447438E+002  0.1154660E+03  0.7546771E-02  0.1250770E+00
         21   -1    0    0  505  501  0.00000000000E+00  0.00000000000E+00  0.19605436189E+04  0.19605436189E+04  0.00000000000E+00 0.  1.
         21   -1    0    0  503  502 -0.00000000000E+00 -0.00000000000E+00 -0.26277896265E+03  0.26277896265E+03  0.00000000000E+00 0. -1.
         21    1    1    2  503  504 -0.25907758596E+02  0.21064455788E+02 -0.21786415367E+03  0.22040805954E+03  0.00000000000E+00 0. -1.
         21    1    1    2  504  501  0.69359463059E+02 -0.95069196785E+02  0.18641867649E+04  0.18678975298E+04  0.00000000000E+00 0.  1.
         21    1    1    2  505  506 -0.14504954885E+02  0.89833043662E+02  0.44534877505E+02  0.10131004276E+03  0.00000000000E+00 0. -1.
         21    1    1    2  506  502 -0.28946749578E+02 -0.15828302665E+02  0.69071674482E+01  0.33706949410E+02  0.00000000000E+00 0. -1.
<scales pt_clust_3="51.84029" pt_clust_4="14000.00000" pt_clust_5="115.46605" pt_clust_6="32.99166"></scales>
<clustering>
<clus scale="   32.992">  2  6  1 -1</clus>
<clus scale="   51.840">  2  3  1 -1</clus>
<clus scale="  115.466">  2  5  1 -1</clus>
<clus scale="  115.466">  1  3  2 -1</clus>
</clustering>
</event>
<event>
 6    0  0.3446372E+002  0.1828158E+03  0.7546771E-02  0.1165105E+00
         21   -1    0    0  505  501  0.00000000000E+00  0.00000000000E+00  0.76251291472E+03  0.76251291472E+03  0.00000000000E+00 0. -1.
         21   -1    0    0  504  502 -0.00000000000E+00 -0.00000000000E+00 -0.31444613179E+03  0.31444613179E+03  0.00000000000E+00 0. -1.
         21    1    1    2  503  501  0.36007713477E+02 -0.30914740470E+02  0.34793859522E+03  0.35116028057E+03  0.00000000000E+00 0. -1.
         21    1    1    2  504  506 -0.12260572645E+03 -0.12940169906E+03 -0.22288022637E+03  0.28539894742E+03  0.00000000000E+00 0. -1.
         21    1    1    2  505  502  0.12507082452E+03  0.20034113575E+03  0.29595947989E+03  0.37864402221E+03  0.00000000000E+00 0. -1.
         21    1    1    2  506  503 -0.38472811546E+02 -0.40024696225E+02  0.27048934195E+02  0.61755796304E+02  0.00000000000E+00 0.  1.
<scales pt_clust_3="47.45816" pt_clust_4="182.81580" pt_clust_5="14000.00000" pt_clust_6="55.46488"></scales>
<clustering>
<clus scale="   47.458">  1  3  2 -1</clus>
<clus scale="   55.465">  1  6  2 -1</clus>
<clus scale="  182.816">  2  4  1 -1</clus>
<clus scale="   47.458">  1  3  2 -1</clus>
</clustering>
</event>
<event>
 6    0  0.3446372E+002  0.1842657E+03  0.7546771E-02  0.1163737E+00
         21   -1    0    0  503  501  0.00000000000E+00  0.00000000000E+00  0.16243966439E+04  0.16243966439E+04  0.00000000000E+00 0. -1.
         21   -1    0    0  506  502 -0.00000000000E+00 -0.00000000000E+00 -0.32516143169E+03  0.32516143169E+03  0.00000000000E+00 0. -1.
         21    1    1    2  503  505  0.32693103254E+02 -0.55343010860E+02  0.20746257105E+03  0.21719209525E+03  0.00000000000E+00 0. -1.
         21    1    1    2  504  501 -0.73866474146E+02 -0.12507983456E+03  0.13441616268E+04  0.13519880547E+04  0.00000000000E+00 0. -1.
         21    1    1    2  505  502  0.51549203597E+02  0.21338503714E+03 -0.26452708264E+03  0.34375146823E+03  0.00000000000E+00 0. -1.
         21    1    1    2  506  504 -0.10375832705E+02 -0.32962191713E+02  0.12138097025E+02  0.36626457462E+02  0.00000000000E+00 0. -1.
<scales pt_clust_3="64.63861" pt_clust_4="14000.00000" pt_clust_5="184.26575" pt_clust_6="34.55668"></scales>
<clustering>
<clus scale="   34.557">  2  6  1 -1</clus>
<clus scale="   64.639">  1  3  2 -1</clus>
<clus scale="  184.266">  2  5  1 -1</clus>
<clus scale="   64.639">  1  3  2 -1</clus>
</clustering>
</event>
<event>
 6    0  0.3446372E+002  0.1299210E+03  0.7546771E-02  0.1227573E+00
         21   -1    0    0  505  501  0.00000000000E+00  0.00000000000E+00  0.73529214203E+03  0.73529214203E+03  0.00000000000E+00 0. -1.
         21   -1    0    0  506  502 -0.00000000000E+00 -0.00000000000E+00 -0.90499899682E+02  0.90499899682E+02  0.00000000000E+00 0.  1.
         21    1    1    2  503  504  0.73287721966E+01 -0.13392806633E+03  0.23822127574E+03  0.27338583370E+03  0.00000000000E+00 0. -1.
         21    1    1    2  504  501  0.14523937703E+02 -0.30307843170E+02  0.20428354766E+03  0.20702965481E+03  0.00000000000E+00 0. -1.
         21    1    1    2  505  502 -0.10148288093E+03  0.53764062391E+02  0.17044087034E+03  0.20552235842E+03  0.00000000000E+00 0. -1.
         21    1    1    2  506  503  0.79630171034E+02  0.11047184711E+03  0.31846548611E+02  0.13985419479E+03  0.00000000000E+00 0.  1.
<scales pt_clust_3="129.92098" pt_clust_4="33.60819" pt_clust_5="105.49255" pt_clust_6="14000.00000"></scales>
<clustering>
<clus scale="   33.608">  1  4  2 -1</clus>
<clus scale="  105.493">  1  5  2 -1</clus>
<clus scale="  129.921">  1  3  2 -1</clus>
<clus scale="   33.608">  1  3  2 -1</clus>
</clustering>
</event>
<event>
 6    0  0.3446372E+002  0.6260250E+02  0.7546771E-02  0.1387224E+00
         21   -1    0    0  505  501  0.00000000000E+00  0.00000000000E+00  0.11588516119E+04  0.11588516119E+04  0.00000000000E+00 0.  1.
         21   -1    0    0  503  502 -0.00000000000E+00 -0.00000000000E+00 -0.86081744693E+02  0.86081744693E+02  0.00000000000E+00 0. -1.
         21    1    1    2  503  506  0.28775700779E+02 -0.27796477283E+02 -0.18053970272E+00  0.40008970234E+02  0.00000000000E+00 0. -1.
         21    1    1    2  504  502 -0.38431810805E+02  0.85412706455E+02 -0.23951277325E+02  0.96674702954E+02  0.00000000000E+00 0. -1.
         21    1    1    2  505  504  0.17158900104E+02 -0.95271472724E+02  0.98888550607E+03  0.99361241211E+03  0.00000000000E+00 0.  1.
         21    1    1    2  506  501 -0.75027900780E+01  0.37655243552E+02  0.10801617812E+03  0.11463727126E+03  0.00000000000E+00 0.  1.
<scales pt_clust_3="39.41082" pt_clust_4="14000.00000" pt_clust_5="62.60250" pt_clust_6="38.39543"></scales>
<clustering>
<clus scale="   38.395">  1  6  2 -1</clus>
<clus scale="   39.411">  2  3  1 -1</clus>
<clus scale="   62.603">  1  5  2 -1</clus>
<clus scale="   38.395">  1  3  2 -1</clus>
</clustering>
</event>
<event>
 6    0  0.3446372E+002  0.1508053E+03  0.7546771E-02  0.1199487E+00
         21   -1    0    0  506  501  0.00000000000E+00  0.00000000000E+00  0.75373035235E+03  0.75373035235E+03  0.00000000000E+00 0. -1.
         21   -1    0    0  504  502 -0.00000000000E+00 -0.00000000000E+00 -0.30169409302E+03  0.30169409302E+03  0.00000000000E+00 0. -1.
         21    1    1    2  503  505  0.21617419766E+02  0.78248398564E+02 -0.91931585683E+02  0.12264396097E+03  0.00000000000E+00 0. -1.
         21    1    1    2  504  501 -0.17382380896E+02 -0.37619637013E+02  0.44901828549E+03  0.45092660707E+03  0.00000000000E+00 0. -1.
         21    1    1    2  505  502  0.35911991818E+02  0.46962117630E+02 -0.18055438553E+03  0.18998683582E+03  0.00000000000E+00 0. -1.
         21    1    1    2  506  503 -0.40147030688E+02 -0.87590879181E+02  0.27550394506E+03  0.29186704153E+03  0.00000000000E+00 0. -1.
<scales pt_clust_3="57.69399" pt_clust_4="41.44134" pt_clust_5="57.69399" pt_clust_6="135.05599"></scales>
<clustering>
<clus scale="   41.441">  1  4  2 -1</clus>
<clus scale="   57.694">  3  5 -1 -1</clus>
<clus scale="  135.056">  1  6  2 -1</clus>
<clus scale="   41.441">  1  3  2 -1</clus>
</clustering>
</event>
<event>
 6    0  0.3446372E+002  0.1603408E+03  0.7546771E-02  0.1188313E+00
         21   -1    0    0  505  501  0.00000000000E+00  0.00000000000E+00  0.81341532028E+03  0.81341532028E+03  0.00000000000E+00 0. -1.
         21   -1    0    0  504  502 -0.00000000000E+00 -0.00000000000E+00 -0.27217569261E+03  0.27217569261E+03  0.00000000000E+00 0.  1.
         21    1    1    2  503  502  0.15997250855E+03 -0.59109427137E+02 -0.19545223018E+03  0.25939680443E+03  0.00000000000E+00 0.  1.
         21    1    1    2  504  506 -0.86468469858E+01  0.38406790767E+02  0.16787794619E+02  0.42798125987E+02  0.00000000000E+00 0. -1.
         21    1    1    2  505  503 -0.22710267481E+03  0.41052535431E+01  0.58836354201E+03  0.63068544900E+03  0.00000000000E+00 0. -1.
         21    1    1    2  506  501  0.75777013244E+02  0.16597382827E+02  0.13154052122E+03  0.15271063347E+03  0.00000000000E+00 0. -1.
<scales pt_clust_3="160.34080" pt_clust_4="39.36813" pt_clust_5="14000.00000" pt_clust_6="77.58068"></scales>
<clustering>
<clus scale="   39.368">  2  4  1 -1</clus>
<clus scale="   77.581">  1  6  2 -1</clus>
<clus scale="  160.341">  2  3  1 -1</clus>
<clus scale="   77.581">  1  3  2 -1</clus>
</clustering>
</event>
<event>
 6    0  0.3446372E+002  0.1915845E+03  0.7546771E-02  0.1157040E+00
         21   -1    0    0  502  501  0.00000000000E+00  0.00000000000E+00  0.10427517384E+03  0.10427517384E+03  0.00000000000E+00 0. -1.
         21   -1    0    0  506  502 -0.00000000000E+00 -0.00000000000E+00 -0.64809785399E+03  0.64809785399E+03  0.00000000000E+00 0.  1.
         21    1    1    2  503  505  0.24599037718E+02 -0.30382524935E+02 -0.31887904553E+02  0.50448478023E+02  0.00000000000E+00 0. -1.
         21    1    1    2  504  503 -0.79283433953E+02  0.36044666414E+02 -0.25209201385E+03  0.26671232503E+03  0.00000000000E+00 0.  1.
         21    1    1    2  505  501  0.11995168043E+03 -0.72990164120E+02  0.18381022279E+02  0.14161155206E+03  0.00000000000E+00 0. -1.
         21    1    1    2  506  504 -0.65267284193E+02  0.67328022641E+02 -0.27822378403E+03  0.29360067271E+03  0.00000000000E+00 0.  1.
<scales pt_clust_3="37.76915" pt_clust_4="32.46779" pt_clust_5="37.76915" pt_clust_6="180.87512"></scales>
<clustering>
<clus scale="   32.468">  4  6 -1 -1</clus>
<clus scale="   37.769">  3  5 -1 -1</clus>
<clus scale="  180.875">  2  4  1 -1</clus>
<clus scale="  191.584">  1  3  2 -1</clus>
</clustering>
</event>
<event>
 6    0  0.3446372E+002  0.7030382E+02  0.7546771E-02  0.1359063E+00
         21   -1    0    0  506  501  0.00000000000E+00  0.00000000000E+00  0.82669429914E+03  0.82669429914E+03  0.00000000000E+00 0. -1.
         21   -1    0    0  505  502 -0.00000000000E+00 -0.00000000000E+00 -0.24530091413E+03  0.24530091413E+03  0.00000000000E+00 0. -1.
         21    1    1    2  503  502  0.63086741649E+02  0.75675129069E+02 -0.21006113706E+03  0.23201798085E+03  0.00000000000E+00 0. -1.
         21    1    1    2  504  501 -0.75185639038E+02 -0.69786487907E+02  0.66503500823E+03  0.67290013850E+03  0.00000000000E+00 0. -1.
         21    1    1    2  505  504 -0.58232476877E+01 -0.38594172240E+02  0.41554476102E+01  0.39251599832E+02  0.00000000000E+00 0. -1.
         21    1    1    2  506  503  0.17922145077E+02  0.32705531078E+02  0.12226406623E+03  0.12782549409E+03  0.00000000000E+00 0. -1.
<scales pt_clust_3="70.30382" pt_clust_4="14000.00000" pt_clust_5="37.95006" pt_clust_6="37.29417"></scales>
<clustering>
<clus scale="   37.294">  1  6  2 -1</clus>
<clus scale="   37.950">  2  5  1 -1</clus>
<clus scale="   70.304">  2  3  1 -1</clus>
<clus scale="   37.294">  1  3  2 -1</clus>
</clustering>
</event>
<event>
 6    0  0.3446372E+002  0.1387838E+03  0.7546771E-02  0.1214975E+00
         21   -1    0    0  505  501  0.00000000000E+00  0.00000000000E+00  0.32250484370E+03  0.32250484370E+03  0.00000000000E+00 0. -1.
         21   -1    0    0  506  502 -0.00000000000E+00 -0.00000000000E+00 -0.15442094170E+04  0.15442094170E+04  0.00000000000E+00 0.  1.
         21    1    1    2  503  504  0.48067123568E+02  0.70674924086E+02 -0.39576507706E+03  0.40488935461E+03  0.00000000000E+00 0.  1.
         21    1    1    2  504  501 -0.60610987630E+02 -0.40762428093E+02  0.69865683015E+02  0.10107660970E+03  0.00000000000E+00 0. -1.
         21    1    1    2  505  502 -0.28807324799E+01 -0.91025360460E+02  0.22263080623E+03  0.24053771170E+03  0.00000000000E+00 0. -1.
         21    1    1    2  506  503  0.15424596542E+02  0.61112864467E+02 -0.11184359855E+04  0.11202105846E+04  0.00000000000E+00 0.  1.
<scales pt_clust_3="14000.00000" pt_clust_4="71.33696" pt_clust_5="138.78376" pt_clust_6="63.02936"></scales>
<clustering>
<clus scale="   63.029">  2  6  1 -1</clus>
<clus scale="   71.337">  1  4  2 -1</clus>
<clus scale="  138.784">  1  5  2 -1</clus>
<clus scale="   71.337">  1  3  2 -1</clus>
</clustering>
</event>
<event>
 6    0  0.3446372E+002  0.8741410E+02  0.7546771E-02  0.1309237E+00
         21   -1    0    0  505  501  0.00000000000E+00  0.00000000000E+00  0.17174939411E+03  0.17174939411E+03  0.00000000000E+00 0.  1.
         21   -1    0    0  503  502 -0.00000000000E+00 -0.00000000000E+00 -0.76786183522E+03  0.76786183522E+03  0.00000000000E+00 0.  1.
         21    1    1    2  503  506 -0.69669141158E+02 -0.53069667767E+02 -0.67120321275E+03  0.67689285096E+03  0.00000000000E+00 0.  1.
         21    1    1    2  504  501 -0.19594670996E+02 -0.41721800811E+02  0.70479826707E+02  0.84214403560E+02  0.00000000000E+00 0.  1.
         21    1    1    2  505  502  0.40265776627E+02  0.83057206415E+02  0.54835873770E+02  0.10736296082E+03  0.00000000000E+00 0.  1.
         21    1    1    2  506  504  0.48998035527E+02  0.11734262163E+02 -0.50224928838E+02  0.71141013984E+02  0.00000000000E+00 0.  1.
<scales pt_clust_3="87.41410" pt_clust_4="46.09403" pt_clust_5="14000.00000" pt_clust_6="47.36434"></scales>
<clustering>
<clus scale="   46.094">  1  4  2 -1</clus>
<clus scale="   47.364">  1  6  2 -1</clus>
<clus scale="   87.414">  2  3  1 -1</clus>
<clus scale="   46.094">  1  3  2 -1</clus>
</clustering>
</event>
<event>
 6    0  0.3446372E+002  0.7081771E+02  0.7546771E-02  0.1357334E+00
         21   -1    0    0  506  501  0.00000000000E+00  0.00000000000E+00  0.90150397846E+03  0.90150397846E+03  0.00000000000E+00 0.  1.
         21   -1    0    0  504  502 -0.00000000000E+00 -0.00000000000E+00 -0.88785574135E+02  0.88785574135E+02  0.00000000000E+00 0.  1.
         21    1    1    2  503  502  0.83025592626E+01 -0.64350304740E+02 -0.46956108170E+02  0.80092261205E+02  0.00000000000E+00 0.  1.
         21    1    1    2  504  505  0.40130972220E+02  0.12607347712E+02  0.95845171365E+01  0.43142822304E+02  0.00000000000E+00 0.  1.
         21    1    1    2  505  501 -0.30758946804E+02 -0.40645436907E+02  0.55498345151E+03  0.55731929430E+03  0.00000000000E+00 0.  1.
         21    1    1    2  506  503 -0.17674584678E+02  0.92388393935E+02  0.29510654385E+03  0.30973517479E+03  0.00000000000E+00 0.  1.
<scales pt_clust_3="14000.00000" pt_clust_4="42.06471" pt_clust_5="50.41790" pt_clust_6="70.81771"></scales>
<clustering>
<clus scale="   42.065">  2  4  1 -1</clus>
<clus scale="   50.418">  1  5  2 -1</clus>
<clus scale="   70.818">  1  6  2 -1</clus>
<clus scale="   50.418">  1  3  2 -1</clus>
</clustering>
</event>
<event>
 6    0  0.3446372E+002  0.7305015E+02  0.7546771E-02  0.1350018E+00
         21   -1    0    0  506  501  0.00000000000E+00  0.00000000000E+00  0.61327451473E+02  0.61327451473E+02  0.00000000000E+00 0. -1.
         21   -1    0    0  501  502 -0.00000000000E+00 -0.00000000000E+00 -0.18120154234E+04  0.18120154234E+04  0.00000000000E+00 0. -1.
         21    1    1    2  503  505 -0.47085752116E+02  0.45984358208E+02 -0.31864853239E+03  0.32537442501E+03  0.00000000000E+00 0. -1.
         21    1    1    2  504  502 -0.54290557486E+02  0.42339689474E+02 -0.11151626672E+04  0.11172859474E+04  0.00000000000E+00 0.  1.
         21    1    1    2  505  504  0.60422633452E+02 -0.97624540654E+02 -0.35552844288E+03  0.37360663708E+03  0.00000000000E+00 0. -1.
         21    1    1    2  506  503  0.40953676150E+02  0.93004929722E+01  0.38651670622E+02  0.57075865316E+02  0.00000000000E+00 0. -1.
<scales pt_clust_3="60.76183" pt_clust_4="14000.00000" pt_clust_5="73.05015" pt_clust_6="41.99646"></scales>
<clustering>
<clus scale="   41.996">  1  6  2 -1</clus>
<clus scale="   60.762">  1  3  2 -1</clus>
<clus scale="   73.050">  1  5  2 -1</clus>
<clus scale="   41.996">  1  3  2 -1</clus>
</clustering>
</event>
<event>
 6    0  0.3446372E+002  0.1556357E+03  0.7546771E-02  0.1193714E+00
         21   -1    0    0  506  501  0.00000000000E+00  0.00000000000E+00  0.11232048509E+03  0.11232048509E+03  0.00000000000E+00 0.  1.
         21   -1    0    0  505  502 -0.00000000000E+00 -0.00000000000E+00 -0.12628640747E+04  0.12628640747E+04  0.00000000000E+00 0. -1.
         21    1    1    2  503  501 -0.49469786773E+01 -0.44997291912E+02  0.62482451481E+02  0.77157537678E+02  0.00000000000E+00 0.  1.
         21    1    1    2  504  503 -0.12584879448E+03  0.15645134934E+03 -0.28833068897E+03  0.35135385295E+03  0.00000000000E+00 0.  1.
         21    1    1    2  505  504  0.10898993411E+03 -0.47020885004E+02 -0.38987251563E+03  0.40754183566E+03  0.00000000000E+00 0. -1.
         21    1    1    2  506  502  0.21805839048E+02 -0.64433172426E+02 -0.53482283647E+03  0.53913133348E+03  0.00000000000E+00 0. -1.
<scales pt_clust_3="45.26841" pt_clust_4="14000.00000" pt_clust_5="155.63567" pt_clust_6="70.10975"></scales>
<clustering>
<clus scale="   45.268">  1  3  2 -1</clus>
<clus scale="   70.110">  2  6  1 -1</clus>
<clus scale="  155.636">  2  5  1 -1</clus>
<clus scale="   45.268">  1  3  2 -1</clus>
</clustering>
</event>
<event>
 6    0  0.3446372E+002  0.8619987E+02  0.7546771E-02  0.1312324E+00
         21   -1    0    0  504  501  0.00000000000E+00  0.00000000000E+00  0.72500244492E+02  0.72500244492E+02  0.00000000000E+00 0.  1.
         21   -1    0    0  505  502 -0.00000000000E+00 -0.00000000000E+00 -0.42868233948E+03  0.42868233948E+03  0.00000000000E+00 0.  1.
         21    1    1    2  503  506  0.38611824158E+02 -0.11262959238E+03 -0.49494455235E+02  0.12894184403E+03  0.00000000000E+00 0.  1.
         21    1    1    2  504  503  0.67044932265E+01  0.41512797263E+02 -0.37489648652E+02  0.56335923903E+02  0.00000000000E+00 0.  1.
         21    1    1    2  505  501 -0.76273346372E+02  0.25286922285E+02 -0.62116718905E+02  0.10156543985E+03  0.00000000000E+00 0.  1.
         21    1    1    2  506  502  0.30957028988E+02  0.45829872830E+02 -0.20708127220E+03  0.21433937618E+03  0.00000000000E+00 0.  1.
<scales pt_clust_3="86.19987" pt_clust_4="42.05071" pt_clust_5="14000.00000" pt_clust_6="57.50973"></scales>
<clustering>
<clus scale="   42.051">  1  4  2 -1</clus>
<clus scale="   57.510">  2  6  1 -1</clus>
<clus scale="   86.200">  1  3  2 -1</clus>
<clus scale="   42.051">  1  3  2 -1</clus>
</clustering>
</event>
<event>
 6    0  0.3446372E+002  0.6866801E+02  0.7546771E-02  0.1364682E+00
         21   -1    0    0  506  501  0.00000000000E+00  0.00000000000E+00  0.27068865824E+03  0.27068865824E+03  0.00000000000E+00 0. -1.
         21   -1    0    0  503  502 -0.00000000000E+00 -0.00000000000E+00 -0.72230100074E+03  0.72230100074E+03  0.00000000000E+00 0. -1.
         21    1    1    2  503  501  0.62878513930E+02  0.79593706051E+02  0.18395737895E+02  0.10308864501E+03  0.00000000000E+00 0.  1.
         21    1    1    2  504  505 -0.47732168675E+02  0.46150459282E+02 -0.17817393021E+03  0.19014251031E+03  0.00000000000E+00 0.  1.
         21    1    1    2  505  502 -0.25756680075E+02 -0.58581913484E+02 -0.48798165451E+03  0.49215987473E+03  0.00000000000E+00 0. -1.
         21    1    1    2  506  504  0.10610334820E+02 -0.67162251849E+02  0.19614750433E+03  0.20759862893E+03  0.00000000000E+00 0. -1.
<scales pt_clust_3="68.66801" pt_clust_4="68.15786" pt_clust_5="63.99412" pt_clust_6="14000.00000"></scales>
<clustering>
<clus scale="   63.994">  2  5  1 -1</clus>
<clus scale="   68.158">  2  4  1 -1</clus>
<clus scale="   68.668">  2  3  1 -1</clus>
<clus scale="   68.668">  1  3  2 -1</clus>
</clustering>
</event>
<event>
 6    0  0.3446372E+002  0.1181053E+03  0.7546771E-02  0.1246256E+00
         21   -1    0    0  505  501  0.00000000000E+00  0.00000000000E+00  0.22430121236E+03  0.22430121236E+03  0.00000000000E+00 0. -1.
         21   -1    0    0  504  502 -0.00000000000E+00 -0.00000000000E+00 -0.13700728946E+04  0.13700728946E+04  0.00000000000E+00 0.  1.
         21    1    1    2  503  506 -0.47441353598E+02 -0.26173432492E+02  0.92100651593E+02  0.10685626151E+03  0.00000000000E+00 0. -1.
         21    1    1    2  504  503  0.92120519516E+02  0.96287606436E+02 -0.98132315801E+03  0.99032955813E+03  0.00000000000E+00 0.  1.
         21    1    1    2  505  502 -0.80637972052E+02 -0.55486096452E+02 -0.36714912547E+03  0.37997324875E+03  0.00000000000E+00 0.  1.
         21    1    1    2  506  501  0.35958806134E+02 -0.14628077491E+02  0.11059994968E+03  0.11721503854E+03  0.00000000000E+00 0. -1.
<scales pt_clust_3="42.13038" pt_clust_4="118.10530" pt_clust_5="14000.00000" pt_clust_6="38.82031"></scales>
<clustering>
<clus scale="   38.820">  1  6  2 -1</clus>
<clus scale="   42.130">  1  3  2 -1</clus>
<clus scale="  118.105">  2  4  1 -1</clus>
<clus scale="   38.820">  1  3  2 -1</clus>
</clustering>
</event>
<event>
 6    0  0.3446372E+002  0.8190622E+02  0.7546771E-02  0.1323727E+00
         21   -1    0    0  506  501  0.00000000000E+00  0.00000000000E+00  0.92138110266E+02  0.92138110266E+02  0.00000000000E+00 0. -1.
         21   -1    0    0  505  502 -0.00000000000E+00 -0.00000000000E+00 -0.24462930279E+03  0.24462930279E+03  0.00000000000E+00 0. -1.
         21    1    1    2  503  501 -0.41404621513E+02  0.97720606606E+02 -0.27726400157E+02  0.10969235572E+03  0.00000000000E+00 0. -1.
         21    1    1    2  504  502 -0.30866457902E+02 -0.80699611724E+01 -0.50175357482E+02  0.59459473553E+02  0.00000000000E+00 0. -1.
         21    1    1    2  505  503  0.52423005778E+02 -0.58843249088E+02 -0.96753055038E+02  0.12478723155E+03  0.00000000000E+00 0. -1.
         21    1    1    2  506  504  0.19848073637E+02 -0.30807396346E+02  0.22163620153E+02  0.42828352233E+02  0.00000000000E+00 0. -1.
<scales pt_clust_3="81.90622" pt_clust_4="31.90396" pt_clust_5="14000.00000" pt_clust_6="36.14452"></scales>
<clustering>
<clus scale="   31.904">  2  4  1 -1</clus>
<clus scale="   36.145">  1  6  2 -1</clus>
<clus scale="   81.906">  1  3  2 -1</clus>
<clus scale="   36.145">  1  3  2 -1</clus>
</clustering>
</event>
<event>
 6    0  0.3446372E+002  0.1104643E+03  0.7546771E-02  0.1259713E+00
         21   -1    0    0  503  501  0.00000000000E+00  0.00000000000E+00  0.34234968235E+02  0.34234968235E+02  0.00000000000E+00 0.  1.
         21   -1    0    0  506  502 -0.00000000000E+00 -0.00000000000E+00 -0.78646407736E+03  0.78646407736E+03  0.00000000000E+00 0.  1.
         21    1    1    2  503  505  0.40906398084E+02  0.25983641782E+02 -0.15444823891E+02  0.50862811852E+02  0.00000000000E+00 0. -1.
         21    1    1    2  504  502  0.79178029479E+01 -0.40007989324E+02 -0.18300612070E+03  0.18749552268E+03  0.00000000000E+00 0.  1.
         21    1    1    2  505  504  0.20181350272E+02 -0.59774311004E+02 -0.10642050490E+03  0.12371571856E+03  0.00000000000E+00 0.  1.
         21    1    1    2  506  501 -0.69005551304E+02  0.73798658546E+02 -0.44735765963E+03  0.45862499250E+03  0.00000000000E+00 0.  1.
<scales pt_clust_3="48.46115" pt_clust_4="38.88163" pt_clust_5="38.88163" pt_clust_6="99.31646"></scales>
<clustering>
<clus scale="   38.882">  4  5 -1 -1</clus>
<clus scale="   48.461">  1  3  2 -1</clus>
<clus scale="   99.316">  2  6  1 -1</clus>
<clus scale="   48.461">  1  3  2 -1</clus>
</clustering>
</event>
<event>
 6    0  0.3446372E+002  0.1783395E+03  0.7546771E-02  0.1169420E+00
         21   -1    0    0  503  501  0.00000000000E+00  0.00000000000E+00  0.23326551963E+03  0.23326551963E+03  0.00000000000E+00 0.  1.
         21   -1    0    0  506  502 -0.00000000000E+00 -0.00000000000E+00 -0.41593834189E+03  0.41593834189E+03  0.00000000000E+00 0.  1.
         21    1    1    2  503  504  0.47263699696E+02  0.19665868826E+03  0.54143737318E+02  0.20938013580E+03  0.00000000000E+00 0.  1.
         21    1    1    2  504  505  0.34765883736E+02 -0.82109658660E+02 -0.17637433615E+03  0.19763240921E+03  0.00000000000E+00 0.  1.
         21    1    1    2  505  502  0.46915948752E+02 -0.36312256519E+01 -0.54495049525E+02  0.72000017151E+02  0.00000000000E+00 0.  1.
         21    1    1    2  506  501 -0.12894553218E+03 -0.11091780394E+03 -0.59471738947E+01  0.17019129936E+03  0.00000000000E+00 0.  1.
<scales pt_clust_3="14000.00000" pt_clust_4="103.04855" pt_clust_5="47.05626" pt_clust_6="178.33953"></scales>
<clustering>
<clus scale="   47.056">  2  5  1 -1</clus>
<clus scale="  103.049">  2  4  1 -1</clus>
<clus scale="  178.340">  2  6  1 -1</clus>
<clus scale="  178.340">  1  3  2 -1</clus>
</clustering>
</event>
<event>
 6    0  0.3446372E+002  0.7864819E+02  0.7546771E-02  0.1332932E+00
         21   -1    0    0  505  501  0.00000000000E+00  0.00000000000E+00  0.35825578448E+03  0.35825578448E+03  0.00000000000E+00 0.  1.
         21   -1    0    0  503  502 -0.00000000000E+00 -0.00000000000E+00 -0.21024130334E+04  0.21024130334E+04  0.00000000000E+00 0.  1.
         21    1    1    2  503  504  0.42277706775E+02 -0.60452638477E+02 -0.71907743021E+03  0.72285149002E+03  0.00000000000E+00 0.  1.
         21    1    1    2  504  501  0.60837254458E+01 -0.66656515613E+02  0.33355874682E+03  0.34020808392E+03  0.00000000000E+00 0.  1.
         21    1    1    2  505  506 -0.53757542656E+02  0.46888342639E+01 -0.26991018428E+02  0.60335508906E+02  0.00000000000E+00 0.  1.
         21    1    1    2  506  502  0.53961104348E+01  0.12242031983E+03 -0.13316475471E+04  0.13372737350E+04  0.00000000000E+00 0.  1.
<scales pt_clust_3="73.57834" pt_clust_4="14000.00000" pt_clust_5="53.96164" pt_clust_6="78.64819"></scales>
<clustering>
<clus scale="   53.962">  1  5  2 -1</clus>
<clus scale="   73.578">  2  3  1 -1</clus>
<clus scale="   78.648">  2  6  1 -1</clus>
<clus scale="   53.962">  1  3  2 -1</clus>
</clustering>
</event>
<event>
 6    0  0.3446372E+002  0.2665180E+03  0.7546771E-02  0.1103289E+00
         21   -1    0    0  506  501  0.00000000000E+00  0.00000000000E+00  0.23083187471E+03  0.23083187471E+03  0.00000000000E+00 0.  1.
         21   -1    0    0  505  502 -0.00000000000E+00 -0.00000000000E+00 -0.66555120053E+03  0.66555120053E+03  0.00000000000E+00 0. -1.
         21    1    1    2  503  502  0.31117031864E+02 -0.23084373547E+02 -0.94730161114E+02  0.10234725887E+03  0.00000000000E+00 0. -1.
         21    1    1    2  504  501  0.11578440251E+03  0.28157599452E+03 -0.12648583361E+03  0.32968126222E+03  0.00000000000E+00 0.  1.
         21    1    1    2  505  504 -0.96422144610E+01 -0.52432279266E+02 -0.21008270390E+03  0.21674145586E+03  0.00000000000E+00 0. -1.
         21    1    1    2  506  503 -0.13725921991E+03 -0.20605934171E+03 -0.34206271892E+01  0.24761309829E+03  0.00000000000E+00 0. -1.
<scales pt_clust_3="38.74478" pt_clust_4="266.51801" pt_clust_5="61.15580" pt_clust_6="14000.00000"></scales>
<clustering>
<clus scale="   38.745">  2  3  1 -1</clus>
<clus scale="   61.156">  2  5  1 -1</clus>
<clus scale="  266.518">  2  4  1 -1</clus>
<clus scale="  266.518">  1  3  2 -1</clus>
</clustering>
</event>
<event>
 6    0  0.3446372E+002  0.1385002E+03  0.7546771E-02  0.1215361E+00
         21   -1    0    0  504  501  0.00000000000E+00  0.00000000000E+00  0.17565930183E+03  0.17565930183E+03  0.00000000000E+00 0. -1.
         21   -1    0    0  505  502 -0.00000000000E+00 -0.00000000000E+00 -0.56106661015E+03  0.56106661015E+03  0.00000000000E+00 0. -1.
         21    1    1    2  503  501  0.72625620284E+00  0.31549794568E+02 -0.54364232644E+00  0.31562834669E+02  0.00000000000E+00 0.  1.
         21    1    1    2  504  506 -0.15023545485E+02  0.46060226739E+02  0.11616643588E+03  0.12586457893E+03  0.00000000000E+00 0. -1.
         21    1    1    2  505  503 -0.55412661256E+02  0.90815905495E+02 -0.15193689929E+03  0.18548022289E+03  0.00000000000E+00 0. -1.
         21    1    1    2  506  502  0.69709950538E+02 -0.16842592680E+03 -0.34909320258E+03  0.39381827549E+03  0.00000000000E+00 0. -1.
<scales pt_clust_3="31.55815" pt_clust_4="71.38347" pt_clust_5="138.50016" pt_clust_6="14000.00000"></scales>
<clustering>
<clus scale="   31.558">  1  3  2 -1</clus>
<clus scale="   71.383">  1  4  2 -1</clus>
<clus scale="  138.500">  2  5  1 -1</clus>
<clus scale="   31.558">  1  3  2 -1</clus>
</clustering>
</event>
<event>
 6    0  0.3446372E+002  0.1509920E+03  0.7546771E-02  0.1199259E+00
         21   -1    0    0  503  501  0.00000000000E+00  0.00000000000E+00  0.18918557460E+04  0.18918557460E+04  0.00000000000E+00 0.  1.
         21   -1    0    0  506  502 -0.00000000000E+00 -0.00000000000E+00 -0.12707943303E+03  0.12707943303E+03  0.00000000000E+00 0.  1.
         21    1    1    2  503  502 -0.35397190956E+02 -0.52885672362E+02  0.10668811149E+04  0.10687774178E+04  0.00000000000E+00 0.  1.
         21    1    1    2  504  505  0.64881874276E+02  0.41067127050E+02 -0.22103552400E+02  0.79904527797E+02  0.00000000000E+00 0.  1.
         21    1    1    2  505  501 -0.10375393387E+03  0.10031315791E+02  0.77236126183E+03  0.77936347416E+03  0.00000000000E+00 0.  1.
         21    1    1    2  506  504  0.74269250545E+02  0.17872295206E+01 -0.52362511281E+02  0.90889759344E+02  0.00000000000E+00 0.  1.
<scales pt_clust_3="63.63847" pt_clust_4="48.44701" pt_clust_5="142.73273" pt_clust_6="48.44701"></scales>
<clustering>
<clus scale="   48.447">  4  6 -1 -1</clus>
<clus scale="   63.638">  1  3  2 -1</clus>
<clus scale="  142.733">  1  5  2 -1</clus>
<clus scale="   63.638">  1  3  2 -1</clus>
</clustering>
</event>
<event>
 6    0  0.3446372E+002  0.8689237E+02  0.7546771E-02  0.1310557E+00
         21   -1    0    0  505  501  0.00000000000E+00  0.00000000000E+00  0.26644800660E+03  0.26644800660E+03  0.00000000000E+00 0. -1.
         21   -1    0    0  503  502 -0.00000000000E+00 -0.00000000000E+00 -0.23699783796E+03  0.23699783796E+03  0.00000000000E+00 0. -1.
         21    1    1    2  503  506  0.53157372826E+02 -0.25016871525E+02 -0.43306601756E+02  0.72986381623E+02  0.00000000000E+00 0. -1.
         21    1    1    2  504  502 -0.13632215042E+03  0.48278707221E+02 -0.13029512246E+03  0.19465708619E+03  0.00000000000E+00 0. -1.
         21    1    1    2  505  504  0.49379597357E+02 -0.19468036236E+02  0.19326919052E+03  0.20042537034E+03  0.00000000000E+00 0. -1.
         21    1    1    2  506  501  0.33785180240E+02 -0.37937994608E+01  0.97827023331E+01  0.35377006419E+02  0.00000000000E+00 0. -1.
<scales pt_clust_3="60.71205" pt_clust_4="14000.00000" pt_clust_5="86.89237" pt_clust_6="33.99752"></scales>
<clustering>
<clus scale="   33.998">  1  6  2 -1</clus>
<clus scale="   60.712">  2  3  1 -1</clus>
<clus scale="   86.892">  1  5  2 -1</clus>
<clus scale="   33.998">  1  3  2 -1</clus>
</clustering>
</event>
<event>
 6    0  0.3446372E+002  0.8515186E+02  0.7546771E-02  0.1315036E+00
         21   -1    0    0  506  501  0.00000000000E+00  0.00000000000E+00  0.25360185839E+03  0.25360185839E+03  0.00000000000E+00 0. -1.
         21   -1    0    0  505  502 -0.00000000000E+00 -0.00000000000E+00 -0.14928555131E+04  0.14928555131E+04  0.00000000000E+00 0.  1.
         21    1    1    2  503  504  0.44518780797E+02  0.20912028462E+02 -0.41667976507E+03  0.41957271288E+03  0.00000000000E+00 0. -1.
         21    1    1    2  504  502  0.41028817414E+02 -0.96764173199E+01 -0.10477340336E+04  0.10485817098E+04  0.00000000000E+00 0.  1.
         21    1    1    2  505  501 -0.11979930875E+03 -0.24619192084E+02  0.14221533700E+03  0.18757180245E+03  0.00000000000E+00 0. -1.
         21    1    1    2  506  503  0.34251710540E+02  0.13383580941E+02  0.82944806980E+02  0.90731146354E+02  0.00000000000E+00 0. -1.
<scales pt_clust_3="14000.00000" pt_clust_4="42.23139" pt_clust_5="85.15186" pt_clust_6="36.77363"></scales>
<clustering>
<clus scale="   36.774">  1  6  2 -1</clus>
<clus scale="   42.231">  2  4  1 -1</clus>
<clus scale="   85.152">  1  5  2 -1</clus>
<clus scale="   36.774">  1  3  2 -1</clus>
</clustering>
</event>
<event>
 6    0  0.3446372E+002  0.1007176E+03  0.7546771E-02  0.1278794E+00
         21   -1    0    0  503  501  0.00000000000E+00  0.00000000000E+00  0.14839103555E+03  0.14839103555E+03  0.00000000000E+00 0. -1.
         21   -1    0    0  506  502 -0.00000000000E+00 -0.00000000000E+00 -0.90148688318E+03  0.90148688318E+03  0.00000000000E+00 0. -1.
         21    1    1    2  503  502  0.36211049785E+02 -0.74696894972E+02  0.35132261875E+02  0.90139569943E+02  0.00000000000E+00 0. -1.
         21    1    1    2  504  505 -0.54079243086E+02  0.11574445746E+03 -0.53980546500E+03  0.55471730099E+03  0.00000000000E+00 0. -1.
         21    1    1    2  505  501 -0.98965119724E+01  0.36081174481E+02  0.68292448075E+02  0.77869445646E+02  0.00000000000E+00 0. -1.
         21    1    1    2  506  504  0.27764705273E+02 -0.77128736968E+02 -0.31671509258E+03  0.32715160215E+03  0.00000000000E+00 0. -1.
<scales pt_clust_3="52.72471" pt_clust_4="100.71765" pt_clust_5="37.41380" pt_clust_6="14000.00000"></scales>
<clustering>
<clus scale="   37.414">  1  5  2 -1</clus>
<clus scale="   52.725">  1  3  2 -1</clus>
<clus scale="  100.718">  1  4  2 -1</clus>
<clus scale="   37.414">  1  3  2 -1</clus>
</clustering>
</event>
<event>
 6    0  0.3446372E+002  0.1196461E+03  0.7546771E-02  0.1243682E+00
         21   -1    0    0  503  501  0.00000000000E+00  0.00000000000E+00  0.92349687502E+03  0.92349687502E+03  0.00000000000E+00 0.  1.
         21   -1    0    0  505  502 -0.00000000000E+00 -0.00000000000E+00 -0.62938726526E+03  0.62938726526E+03  0.00000000000E+00 0. -1.
         21    1    1    2  503  504  0.19734705974E+02 -0.23674152554E+02  0.96693893709E+02  0.10148710854E+03  0.00000000000E+00 0.  1.
         21    1    1    2  504  506 -0.13041268651E+03 -0.21756518232E+02  0.80911024884E+03  0.81984157596E+03  0.00000000000E+00 0.  1.
         21    1    1    2  505  501  0.89642987938E+02  0.76763312380E+02 -0.49662245342E+03  0.51045306607E+03  0.00000000000E+00 0. -1.
         21    1    1    2  506  502  0.21034992596E+02 -0.31332641594E+02 -0.11507207937E+03  0.12110238971E+03  0.00000000000E+00 0. -1.
<scales pt_clust_3="30.82084" pt_clust_4="14000.00000" pt_clust_5="119.64613" pt_clust_6="37.85076"></scales>
<clustering>
<clus scale="   30.821">  1  3  2 -1</clus>
<clus scale="   37.851">  2  6  1 -1</clus>
<clus scale="  119.646">  2  5  1 -1</clus>
<clus scale="   30.821">  1  3  2 -1</clus>
</clustering>
</event>
<event>
 6    0  0.3446372E+002  0.1262205E+03  0.7546771E-02  0.1233174E+00
         21   -1    0    0  503  501  0.00000000000E+00  0.00000000000E+00  0.60954475978E+03  0.60954475978E+03  0.00000000000E+00 0.  1.
         21   -1    0    0  506  502 -0.00000000000E+00 -0.00000000000E+00 -0.40847782736E+02  0.40847782736E+02  0.00000000000E+00 0.  1.
         21    1    1    2  503  505 -0.13825739068E+02 -0.28455545297E+02  0.11067191634E+03  0.11510491816E+03  0.00000000000E+00 0. -1.
         21    1    1    2  504  501 -0.49744378612E+02 -0.50289850324E+02  0.82962087898E+02  0.10902421877E+03  0.00000000000E+00 0.  1.
         21    1    1    2  505  502  0.65624996734E+02  0.12433793986E+03  0.34239889673E+03  0.37013993025E+03  0.00000000000E+00 0.  1.
         21    1    1    2  506  504 -0.20548790538E+01 -0.45592544238E+02  0.32664076079E+02  0.56123475339E+02  0.00000000000E+00 0.  1.
<scales pt_clust_3="31.63652" pt_clust_4="35.74991" pt_clust_5="117.91466" pt_clust_6="35.74991"></scales>
<clustering>
<clus scale="   31.637">  1  3  2 -1</clus>
<clus scale="   35.750">  4  6 -1 -1</clus>
<clus scale="  117.915">  1  5  2 -1</clus>
<clus scale="   31.637">  1  3  2 -1</clus>
</clustering>
</event>
<event>
 6    0  0.3446372E+002  0.1433462E+03  0.7546771E-02  0.1208896E+00
         21   -1    0    0  504  501  0.00000000000E+00  0.00000000000E+00  0.14878005543E+03  0.14878005543E+03  0.00000000000E+00 0. -1.
         21   -1    0    0  506  502 -0.00000000000E+00 -0.00000000000E+00 -0.44642093157E+03  0.44642093157E+03  0.00000000000E+00 0. -1.
         21    1    1    2  503  505  0.55595416560E+00 -0.89028869051E+02 -0.16640254764E+03  0.18872269729E+03  0.00000000000E+00 0.  1.
         21    1    1    2  504  503 -0.62477585568E+02  0.57126071129E+02  0.42231209100E+02  0.94606087136E+02  0.00000000000E+00 0. -1.
         21    1    1    2  505  502 -0.25552620565E+02 -0.52149874441E+02 -0.18123489962E+03  0.19031194041E+03  0.00000000000E+00 0. -1.
         21    1    1    2  506  501  0.87474251968E+02  0.84052672363E+02  0.77653620320E+01  0.12156026216E+03  0.00000000000E+00 0. -1.
<scales pt_clust_3="38.38807" pt_clust_4="84.65717" pt_clust_5="38.38807" pt_clust_6="135.23664"></scales>
<clustering>
<clus scale="   38.388">  3  5 -1 -1</clus>
<clus scale="   84.657">  1  4  2 -1</clus>
<clus scale="  135.237">  1  6  2 -1</clus>
<clus scale="   84.657">  1  3  2 -1</clus>
</clustering>
</event>
<event>
 6    0  0.3446372E+002  0.9054821E+02  0.7546771E-02  0.1301530E+00
         21   -1    0    0  505  501  0.00000000000E+00  0.00000000000E+00  0.39942912486E+03  0.39942912486E+03  0.00000000000E+00 0.  1.
         21   -1    0    0  503  502 -0.00000000000E+00 -0.00000000000E+00 -0.57404598156E+03  0.57404598156E+03  0.00000000000E+00 0.  1.
         21    1    1    2  503  506 -0.16235484981E+02 -0.10327187051E+03 -0.11771183488E+03  0.15743171943E+03  0.00000000000E+00 0.  1.
         21    1    1    2  504  502 -0.44779415926E+02  0.72887789841E+02 -0.24045343034E+03  0.25521692373E+03  0.00000000000E+00 0.  1.
         21    1    1    2  505  504  0.10136736044E+03  0.23107876994E+02 -0.17304904056E+03  0.20187938523E+03  0.00000000000E+00 0.  1.
         21    1    1    2  506  501 -0.40352459531E+02  0.72762036723E+01  0.35659744908E+03  0.35894707802E+03  0.00000000000E+00 0.  1.
<scales pt_clust_3="14000.00000" pt_clust_4="90.54821" pt_clust_5="87.86732" pt_clust_6="41.00322"></scales>
<clustering>
<clus scale="   41.003">  1  6  2 -1</clus>
<clus scale="   90.548">  2  4  1 -1</clus>
<clus scale="   87.867">  2  5  1 -1</clus>
<clus scale="   41.003">  1  3  2 -1</clus>
</clustering>
</event>
<event>
 6    0  0.3446372E+002  0.1362598E+03  0.7546771E-02  0.1218452E+00
         21   -1    0    0  505  501  0.00000000000E+00  0.00000000000E+00  0.38911225704E+03  0.38911225704E+03  0.00000000000E+00 0.  1.
         21   -1    0    0  506  502 -0.00000000000E+00 -0.00000000000E+00 -0.24118439763E+03  0.24118439763E+03  0.00000000000E+00 0. -1.
         21    1    1    2  503  502 -0.62609117827E+01 -0.16722155283E+03  0.24686812964E+03  0.29823836135E+03  0.00000000000E+00 0.  1.
         21    1    1    2  504  501 -0.54301689426E+01  0.14180285855E+03 -0.11798262034E+03  0.18454656900E+03  0.00000000000E+00 0. -1.
         21    1    1    2  505  503 -0.26834677256E+02  0.40312330857E+02  0.67984897482E+02  0.83469336934E+02  0.00000000000E+00 0.  1.
         21    1    1    2  506  504  0.38525757982E+02 -0.14893636576E+02 -0.48942547377E+02  0.64042387387E+02  0.00000000000E+00 0. -1.
<scales pt_clust_3="136.25975" pt_clust_4="14000.00000" pt_clust_5="47.02308" pt_clust_6="41.30441"></scales>
<clustering>
<clus scale="   41.304">  2  6  1 -1</clus>
<clus scale="   47.023">  1  5  2 -1</clus>
<clus scale="  136.260">  1  3  2 -1</clus>
<clus scale="   47.023">  1  3  2 -1</clus>
</clustering>
</event>
<event>
 6    0  0.3446372E+002  0.1516790E+03  0.7546771E-02  0.1198425E+00
         21   -1    0    0  506  501  0.00000000000E+00  0.00000000000E+00  0.18082353519E+04  0.18082353519E+04  0.00000000000E+00 0. -1.
         21   -1    0    0  505  502 -0.00000000000E+00 -0.00000000000E+00 -0.37575117081E+02  0.37575117081E+02  0.00000000000E+00 0. -1.
         21    1    1    2  503  504  0.39538725927E+02 -0.41818472953E+02  0.92941822755E+02  0.10931732683E+03  0.00000000000E+00 0. -1.
         21    1    1    2  504  501 -0.63270063009E+02  0.19950745377E+03  0.11557096048E+04  0.11745088402E+04  0.00000000000E+00 0. -1.
         21    1    1    2  505  503  0.22148969896E+02 -0.78860638514E+02  0.85474467285E+02  0.11838691538E+03  0.00000000000E+00 0. -1.
         21    1    1    2  506  502  0.15823671853E+01 -0.78828342298E+02  0.43653433997E+03  0.44359738661E+03  0.00000000000E+00 0. -1.
<scales pt_clust_3="34.02784" pt_clust_4="146.14547" pt_clust_5="34.02784" pt_clust_6="78.84422"></scales>
<clustering>
<clus scale="   34.028">  3  5 -1 -1</clus>
<clus scale="   78.844">  1  6  2 -1</clus>
<clus scale="  146.145">  1  4  2 -1</clus>
<clus scale="   78.844">  1  3  2 -1</clus>
</clustering>
</event>
<event>
 6    0  0.3446372E+002  0.1366801E+03  0.7546771E-02  0.1217867E+00
         21   -1    0    0  502  501  0.00000000000E+00  0.00000000000E+00  0.65001026367E+02  0.65001026367E+02  0.00000000000E+00 0.  1.
         21   -1    0    0  505  502 -0.00000000000E+00 -0.00000000000E+00 -0.76243083441E+03  0.76243083441E+03  0.00000000000E+00 0.  1.
         21    1    1    2  503  504  0.80177508023E+01  0.41595525661E+02 -0.68569195238E+02  0.80599048496E+02  0.00000000000E+00 0.  1.
         21    1    1    2  504  501  0.57078605749E+02 -0.14164694333E+03 -0.63879231772E+02  0.16553664260E+03  0.00000000000E+00 0.  1.
         21    1    1    2  505  506 -0.37643806184E+02  0.50042681503E+02 -0.43311603522E+03  0.43761949920E+03  0.00000000000E+00 0.  1.
         21    1    1    2  506  503 -0.27452550367E+02  0.50008736171E+02 -0.13186534581E+03  0.14367667048E+03  0.00000000000E+00 0.  1.
<scales pt_clust_3="31.73796" pt_clust_4="131.62413" pt_clust_5="62.62049" pt_clust_6="31.73796"></scales>
<clustering>
<clus scale="   31.738">  3  6 -1 -1</clus>
<clus scale="   62.620">  2  5  1 -1</clus>
<clus scale="  131.624">  1  4  2 -1</clus>
<clus scale="  131.624">  1  3  2 -1</clus>
</clustering>
</event>
<event>
 6    0  0.3446372E+002  0.1804828E+03  0.7546771E-02  0.1167337E+00
         21   -1    0    0  505  501  0.00000000000E+00  0.00000000000E+00  0.17777792268E+03  0.17777792268E+03  0.00000000000E+00 0.  1.
         21   -1    0    0  503  502 -0.00000000000E+00 -0.00000000000E+00 -0.67822098981E+03  0.67822098981E+03  0.00000000000E+00 0. -1.
         21    1    1    2  503  504 -0.47682592579E+02 -0.40357054846E+02 -0.30882292649E+03  0.31507764351E+03  0.00000000000E+00 0.  1.
         21    1    1    2  504  501 -0.58391757779E+02 -0.12924283050E+03 -0.19970588710E+03  0.24494029468E+03  0.00000000000E+00 0. -1.
         21    1    1    2  505  506  0.20146447401E+02  0.19546770768E+03  0.40381058767E+02  0.20060940655E+03  0.00000000000E+00 0.  1.
         21    1    1    2  506  502  0.85927902957E+02 -0.25867822332E+02 -0.32295312298E+02  0.95371567751E+02  0.00000000000E+00 0. -1.
<scales pt_clust_3="62.46856" pt_clust_4="180.48282" pt_clust_5="14000.00000" pt_clust_6="84.30311"></scales>
<clustering>
<clus scale="   62.469">  2  3  1 -1</clus>
<clus scale="   84.303">  2  6  1 -1</clus>
<clus scale="  180.483">  2  4  1 -1</clus>
<clus scale="  180.483">  1  3  2 -1</clus>
</clustering>
</event>
<event>
 6    0  0.3769454E+002  0.1206670E+03  0.7546771E-02  0.1242001E+00
         21   -1    0    0  505  501  0.00000000000E+00  0.00000000000E+00  0.11205097717E+04  0.11205097717E+04  0.00000000000E+00 0.  1.
         21   -1    0    0  503  502 -0.00000000000E+00 -0.00000000000E+00 -0.30282188103E+03  0.30282188103E+03  0.00000000000E+00 0. -1.
         21    1    1    2  503  506  0.41262872146E+02  0.39429794321E+01 -0.65474473929E+01  0.41964756307E+02  0.00000000000E+00 0.  1.
         21    1    1    2  504  502  0.69680702629E+02  0.50710099876E+02 -0.26229306238E+03  0.27608796628E+03  0.00000000000E+00 0. -1.
         21    1    1    2  505  504 -0.46134137542E+02 -0.31657248366E+02  0.87326130849E+02  0.10371303269E+03  0.00000000000E+00 0. -1.
         21    1    1    2  506  501 -0.64809437233E+02 -0.22995830943E+02  0.99920226956E+03  0.10015658974E+04  0.00000000000E+00 0.  1.
<scales pt_clust_3="41.45083" pt_clust_4="14000.00000" pt_clust_5="54.88808" pt_clust_6="120.66702"></scales>
<clustering>
<clus scale="   41.451">  2  3  1 -1</clus>
<clus scale="   54.888">  1  5  2 -1</clus>
<clus scale="  120.667">  1  6  2 -1</clus>
<clus scale="   54.888">  1  3  2 -1</clus>
</clustering>
</event>
<event>
 6    0  0.3446372E+002  0.1186784E+03  0.7546771E-02  0.1245293E+00
         21   -1    0    0  506  501  0.00000000000E+00  0.00000000000E+00  0.35549931418E+03  0.35549931418E+03  0.00000000000E+00 0. -1.
         21   -1    0    0  501  502 -0.00000000000E+00 -0.00000000000E+00 -0.12707684296E+03  0.12707684296E+03  0.00000000000E+00 0. -1.
         21    1    1    2  503  504  0.35583087891E+02  0.40867856522E+02 -0.99603133977E+01  0.55095786440E+02  0.00000000000E+00 0. -1.
         21    1    1    2  504  505  0.13569594071E+02  0.38958799412E+02 -0.39662136076E+02  0.57227676635E+02  0.00000000000E+00 0. -1.
         21    1    1    2  505  502 -0.34654777780E+02  0.35681906138E+02 -0.17402339094E+02  0.52697186401E+02  0.00000000000E+00 0. -1.
         21    1    1    2  506  503 -0.14497904182E+02 -0.11550856207E+03  0.29544725978E+03  0.31755550767E+03  0.00000000000E+00 0. -1.
<scales pt_clust_3="32.24717" pt_clust_4="32.24717" pt_clust_5="49.74085" pt_clust_6="112.77706"></scales>
<clustering>
<clus scale="   32.247">  3  4 -1 -1</clus>
<clus scale="   49.741">  2  5  1 -1</clus>
<clus scale="  112.777">  1  6  2 -1</clus>
<clus scale="  112.777">  1  3  2 -1</clus>
</clustering>
</event>
<event>
 6    0  0.3446372E+002  0.8829570E+02  0.7546771E-02  0.1307032E+00
         21   -1    0    0  503  501  0.00000000000E+00  0.00000000000E+00  0.16688255380E+03  0.16688255380E+03  0.00000000000E+00 0. -1.
         21   -1    0    0  506  502 -0.00000000000E+00 -0.00000000000E+00 -0.38171560011E+03  0.38171560011E+03  0.00000000000E+00 0. -1.
         21    1    1    2  503  505  0.69982899935E+02  0.28598994044E+02  0.48707382945E+02  0.89932852157E+02  0.00000000000E+00 0. -1.
         21    1    1    2  504  501 -0.11859914221E+03  0.70749028410E+00  0.45101911335E+02  0.12688750719E+03  0.00000000000E+00 0. -1.
         21    1    1    2  505  502  0.58331318238E+02 -0.63290470061E+02 -0.22916055026E+03  0.24479130721E+03  0.00000000000E+00 0. -1.
         21    1    1    2  506  504 -0.97150759634E+01  0.33983985733E+02 -0.79481790327E+02  0.86986487347E+02  0.00000000000E+00 0. -1.
<scales pt_clust_3="88.29570" pt_clust_4="14000.00000" pt_clust_5="62.29414" pt_clust_6="35.34535"></scales>
<clustering>
<clus scale="   35.345">  2  6  1 -1</clus>
<clus scale="   62.294">  2  5  1 -1</clus>
<clus scale="   88.296">  1  3  2 -1</clus>
<clus scale="   88.296">  1  3  2 -1</clus>
</clustering>
</event>
<event>
 6    0  0.3446372E+002  0.9045368E+02  0.7546771E-02  0.1301757E+00
         21   -1    0    0  504  501  0.00000000000E+00  0.00000000000E+00  0.87092130557E+03  0.87092130557E+03  0.00000000000E+00 0. -1.
         21   -1    0    0  506  502 -0.00000000000E+00 -0.00000000000E+00 -0.93461263774E+02  0.93461263774E+02  0.00000000000E+00 0. -1.
         21    1    1    2  503  502  0.71983305157E+02 -0.14504541325E+02 -0.27404042276E+02  0.78377034095E+02  0.00000000000E+00 0. -1.
         21    1    1    2  504  503  0.65299123709E+02  0.55132946150E+02  0.10233351945E+03  0.13332579087E+03  0.00000000000E+00 0. -1.
         21    1    1    2  505  501 -0.86990377629E+02  0.43230584322E+02  0.61122223464E+03  0.61889322936E+03  0.00000000000E+00 0. -1.
         21    1    1    2  506  505 -0.50292051238E+02 -0.83858989146E+02  0.91308329982E+02  0.13378651502E+03  0.00000000000E+00 0. -1.
<scales pt_clust_3="73.43009" pt_clust_4="87.03861" pt_clust_5="90.45368" pt_clust_6="14000.00000"></scales>
<clustering>
<clus scale="   73.430">  2  3  1 -1</clus>
<clus scale="   90.454">  1  5  2 -1</clus>
<clus scale="   87.039">  1  4  2 -1</clus>
<clus scale="   90.454">  1  3  2 -1</clus>
</clustering>
</event>
<event>
 6    0  0.9740206E+002  0.1634691E+03  0.7546771E-02  0.1184835E+00
         21   -1    0    0  506  501  0.00000000000E+00  0.00000000000E+00  0.65470606350E+03  0.65470606350E+03  0.00000000000E+00 0. -1.
         21   -1    0    0  503  502 -0.00000000000E+00 -0.00000000000E+00 -0.97737708483E+03  0.97737708483E+03  0.00000000000E+00 0. -1.
         21    1    1    2  503  504 -0.69362838464E+01 -0.45036885791E+02 -0.35196660298E+02  0.57578103577E+02  0.00000000000E+00 0. -1.
         21    1    1    2  504  501  0.12663510310E+03 -0.16430057221E+02  0.60113745184E+03  0.61455075634E+03  0.00000000000E+00 0. -1.
         21    1    1    2  505  502 -0.15585590228E+03  0.69249588257E+02 -0.90396233092E+03  0.91991003010E+03  0.00000000000E+00 0. -1.
         21    1    1    2  506  505  0.36157083024E+02 -0.77826452445E+01  0.15350518051E+02  0.40044258318E+02  0.00000000000E+00 0.  1.
<scales pt_clust_3="45.61171" pt_clust_4="163.46909" pt_clust_5="14000.00000" pt_clust_6="36.98519"></scales>
<clustering>
<clus scale="   36.985">  1  6  2 -1</clus>
<clus scale="   45.612">  2  3  1 -1</clus>
<clus scale="  163.469">  1  4  2 -1</clus>
<clus scale="   36.985">  1  3  2 -1</clus>
</clustering>
</event>
<event>
 6    0  0.3446372E+002  0.1132560E+03  0.7546771E-02  0.1254656E+00
         21   -1    0    0  506  501  0.00000000000E+00  0.00000000000E+00  0.31398600858E+03  0.31398600858E+03  0.00000000000E+00 0. -1.
         21   -1    0    0  505  502 -0.00000000000E+00 -0.00000000000E+00 -0.41150219181E+03  0.41150219181E+03  0.00000000000E+00 0. -1.
         21    1    1    2  503  502 -0.30649335785E+02  0.14284988053E+02 -0.19024759179E+03  0.19322936850E+03  0.00000000000E+00 0. -1.
         21    1    1    2  504  503 -0.44467637840E+02  0.53802815781E+02 -0.16293447955E+03  0.17725619433E+03  0.00000000000E+00 0. -1.
         21    1    1    2  505  501  0.51760096091E+02 -0.15017344235E+03  0.18777681610E+03  0.24594979772E+03  0.00000000000E+00 0. -1.
         21    1    1    2  506  504  0.23356877534E+02  0.82085638516E+02  0.67889072006E+02  0.10905283984E+03  0.00000000000E+00 0.  1.
<scales pt_clust_3="32.96736" pt_clust_4="32.96736" pt_clust_5="102.87589" pt_clust_6="85.34399"></scales>
<clustering>
<clus scale="   32.967">  3  4 -1 -1</clus>
<clus scale="   85.344">  1  6  2 -1</clus>
<clus scale="  102.876">  1  5  2 -1</clus>
<clus scale="   85.344">  1  3  2 -1</clus>
</clustering>
</event>
<event>
 6    0  0.3446372E+002  0.1386096E+03  0.7546771E-02  0.1215212E+00
         21   -1    0    0  503  501  0.00000000000E+00  0.00000000000E+00  0.27170310928E+04  0.27170310928E+04  0.00000000000E+00 0.  1.
         21   -1    0    0  506  502 -0.00000000000E+00 -0.00000000000E+00 -0.15398193180E+03  0.15398193180E+03  0.00000000000E+00 0. -1.
         21    1    1    2  503  505 -0.74207660804E+02  0.14037239636E+03  0.24604480512E+04  0.24655660200E+04  0.00000000000E+00 0.  1.
         21    1    1    2  504  502 -0.19229800893E+02 -0.80681538696E+02 -0.83098007375E+02  0.11740772870E+03  0.00000000000E+00 0. -1.
         21    1    1    2  505  504  0.17025713019E+02 -0.50531011545E+02 -0.28481402318E+02  0.60452033131E+02  0.00000000000E+00 0. -1.
         21    1    1    2  506  501  0.76411748678E+02 -0.91598461176E+01  0.21418051954E+03  0.22758724276E+03  0.00000000000E+00 0.  1.
<scales pt_clust_3="131.33955" pt_clust_4="35.52035" pt_clust_5="35.52035" pt_clust_6="76.95881"></scales>
<clustering>
<clus scale="   35.520">  4  5 -1 -1</clus>
<clus scale="   76.959">  1  6  2 -1</clus>
<clus scale="  131.340">  1  3  2 -1</clus>
<clus scale="   76.959">  1  3  2 -1</clus>
</clustering>
</event>
<event>
 6    0  0.3446372E+002  0.3653059E+03  0.7546771E-02  0.1056502E+00
         21   -1    0    0  506  501  0.00000000000E+00  0.00000000000E+00  0.52395434579E+03  0.52395434579E+03  0.00000000000E+00 0.  1.
         21   -1    0    0  505  502 -0.00000000000E+00 -0.00000000000E+00 -0.58537559438E+03  0.58537559438E+03  0.00000000000E+00 0.  1.
         21    1    1    2  503  504 -0.38826504824E+02 -0.40194259840E+02 -0.27316449604E+02  0.62203411642E+02  0.00000000000E+00 0.  1.
         21    1    1    2  504  501  0.30730710604E+03  0.17499035422E+03  0.35164202625E+03  0.49870973133E+03  0.00000000000E+00 0.  1.
         21    1    1    2  505  503 -0.25271647885E+03 -0.16054287258E+03 -0.41139180756E+03  0.50880531831E+03  0.00000000000E+00 0.  1.
         21    1    1    2  506  502 -0.15764122362E+02  0.25746778198E+02  0.25644982315E+02  0.39611478884E+02  0.00000000000E+00 0.  1.
<scales pt_clust_3="39.25560" pt_clust_4="353.77266" pt_clust_5="39.25560" pt_clust_6="30.18947"></scales>
<clustering>
<clus scale="   30.189">  1  6  2 -1</clus>
<clus scale="   39.256">  3  5 -1 -1</clus>
<clus scale="  353.773">  1  4  2 -1</clus>
<clus scale="   30.189">  1  3  2 -1</clus>
</clustering>
</event>
<event>
 6    0  0.3446372E+002  0.1407003E+03  0.7546771E-02  0.1212390E+00
         21   -1    0    0  503  501  0.00000000000E+00  0.00000000000E+00  0.12134949674E+04  0.12134949674E+04  0.00000000000E+00 0. -1.
         21   -1    0    0  505  502 -0.00000000000E+00 -0.00000000000E+00 -0.83234886313E+02  0.83234886313E+02  0.00000000000E+00 0. -1.
         21    1    1    2  503  502 -0.77521304332E+02  0.56291473159E+02  0.18916058416E+03  0.21203775412E+03  0.00000000000E+00 0. -1.
         21    1    1    2  504  506  0.27155847508E+02  0.48780553374E+02  0.26194446381E+02  0.61669534314E+02  0.00000000000E+00 0.  1.
         21    1    1    2  505  504  0.79962789339E+01  0.75768185424E+02 -0.12494240479E+02  0.77206634717E+02  0.00000000000E+00 0. -1.
         21    1    1    2  506  501  0.42369177891E+02 -0.18084021196E+03  0.92739929100E+03  0.94581593053E+03  0.00000000000E+00 0. -1.
<scales pt_clust_3="95.80335" pt_clust_4="41.50482" pt_clust_5="41.50482" pt_clust_6="132.08233"></scales>
<clustering>
<clus scale="   41.505">  4  5 -1 -1</clus>
<clus scale="   95.803">  1  3  2 -1</clus>
<clus scale="  132.082">  1  6  2 -1</clus>
<clus scale="   95.803">  1  3  2 -1</clus>
</clustering>
</event>
<event>
 6    0  0.3446372E+002  0.1020890E+03  0.7546771E-02  0.1275963E+00
         21   -1    0    0  506  501  0.00000000000E+00  0.00000000000E+00  0.13813116541E+04  0.13813116541E+04  0.00000000000E+00 0.  1.
         21   -1    0    0  504  502 -0.00000000000E+00 -0.00000000000E+00 -0.10328009120E+03  0.10328009120E+03  0.00000000000E+00 0. -1.
         21    1    1    2  503  505  0.33398551351E+02  0.80141619239E+02 -0.18449362145E+02  0.88761034976E+02  0.00000000000E+00 0. -1.
         21    1    1    2  504  501  0.25348220621E+02  0.17818020177E+02  0.51742577926E+02  0.60310102820E+02  0.00000000000E+00 0.  1.
         21    1    1    2  505  502 -0.77908245808E+02  0.34887877314E+01 -0.81269928042E+01  0.78408637386E+02  0.00000000000E+00 0.  1.
         21    1    1    2  506  503  0.19161473836E+02 -0.10144842715E+03  0.12528653400E+04  0.12571119702E+04  0.00000000000E+00 0.  1.
<scales pt_clust_3="102.08896" pt_clust_4="30.98409" pt_clust_5="67.77411" pt_clust_6="14000.00000"></scales>
<clustering>
<clus scale="   30.984">  2  4  1 -1</clus>
<clus scale="   67.774">  2  5  1 -1</clus>
<clus scale="  102.089">  2  3  1 -1</clus>
<clus scale="  102.089">  1  3  2 -1</clus>
</clustering>
</event>
<event>
 6    0  0.3446372E+002  0.1014611E+03  0.7546771E-02  0.1277253E+00
         21   -1    0    0  504  501  0.00000000000E+00  0.00000000000E+00  0.11826972603E+04  0.11826972603E+04  0.00000000000E+00 0.  1.
         21   -1    0    0  505  502 -0.00000000000E+00 -0.00000000000E+00 -0.91297578278E+02  0.91297578278E+02  0.00000000000E+00 0. -1.
         21    1    1    2  503  501 -0.49389570535E+02 -0.28128102101E+02  0.56304665127E+03  0.56590816509E+03  0.00000000000E+00 0.  1.
         21    1    1    2  504  506  0.82420610875E+02  0.11375812871E+03  0.52275590456E+03  0.54130195335E+03  0.00000000000E+00 0.  1.
         21    1    1    2  505  503 -0.36777410978E+02 -0.12301223314E+03  0.10849368962E+02  0.12884989821E+03  0.00000000000E+00 0. -1.
         21    1    1    2  506  502  0.37463706375E+01  0.37382206530E+02 -0.52522428091E+01  0.37934821899E+02  0.00000000000E+00 0.  1.
<scales pt_clust_3="56.39461" pt_clust_4="14000.00000" pt_clust_5="101.46113" pt_clust_6="37.56946"></scales>
<clustering>
<clus scale="   37.569">  2  6  1 -1</clus>
<clus scale="   56.395">  1  3  2 -1</clus>
<clus scale="  101.461">  2  5  1 -1</clus>
<clus scale="   56.395">  1  3  2 -1</clus>
</clustering>
</event>
<event>
 6    0  0.3446372E+002  0.1183188E+03  0.7546771E-02  0.1245896E+00
         21   -1    0    0  505  501  0.00000000000E+00  0.00000000000E+00  0.35444889713E+03  0.35444889713E+03  0.00000000000E+00 0.  1.
         21   -1    0    0  506  502 -0.00000000000E+00 -0.00000000000E+00 -0.14123713567E+03  0.14123713567E+03  0.00000000000E+00 0.  1.
         21    1    1    2  503  502  0.26021844718E+02 -0.30617236156E+02 -0.43255880931E+02  0.59039163168E+02  0.00000000000E+00 0.  1.
         21    1    1    2  504  501  0.59933962400E+02  0.24249182544E+02  0.11972275162E+03  0.13606483733E+03  0.00000000000E+00 0.  1.
         21    1    1    2  505  503  0.73711775665E+02 -0.45086887770E+02  0.37220630049E+01  0.86487612254E+02  0.00000000000E+00 0.  1.
         21    1    1    2  506  504 -0.15966758278E+03  0.51454941382E+02  0.13302282777E+03  0.21409442004E+03  0.00000000000E+00 0.  1.
<scales pt_clust_3="40.18148" pt_clust_4="65.89092" pt_clust_5="118.31884" pt_clust_6="14000.00000"></scales>
<clustering>
<clus scale="   40.181">  2  3  1 -1</clus>
<clus scale="   65.891">  1  4  2 -1</clus>
<clus scale="  118.319">  2  5  1 -1</clus>
<clus scale="   65.891">  1  3  2 -1</clus>
</clustering>
</event>
<event>
 6    0  0.3446372E+002  0.1343672E+03  0.7546771E-02  0.1221116E+00
         21   -1    0    0  505  501  0.00000000000E+00  0.00000000000E+00  0.59381067766E+02  0.59381067766E+02  0.00000000000E+00 0. -1.
         21   -1    0    0  501  502 -0.00000000000E+00 -0.00000000000E+00 -0.77839497170E+03  0.77839497170E+03  0.00000000000E+00 0.  1.
         21    1    1    2  503  506 -0.57081073584E+02  0.48813636160E+02 -0.38384208803E+02  0.84346710203E+02  0.00000000000E+00 0.  1.
         21    1    1    2  504  503 -0.39798877220E+02 -0.25902152362E+01 -0.34043071790E+02  0.52436538595E+02  0.00000000000E+00 0.  1.
         21    1    1    2  505  504 -0.36827425642E+02 -0.69435039196E+02 -0.59913951604E+02  0.98828971179E+02  0.00000000000E+00 0. -1.
         21    1    1    2  506  502  0.13370737645E+03  0.23211618272E+02 -0.58667267174E+03  0.60216381949E+03  0.00000000000E+00 0.  1.
<scales pt_clust_3="32.10973" pt_clust_4="32.10973" pt_clust_5="78.59697" pt_clust_6="126.93676"></scales>
<clustering>
<clus scale="   32.110">  3  4 -1 -1</clus>
<clus scale="   78.597">  1  5  2 -1</clus>
<clus scale="  126.937">  2  6  1 -1</clus>
<clus scale="   78.597">  1  3  2 -1</clus>
</clustering>
</event>
<event>
 6    0  0.3446372E+002  0.7670353E+02  0.7546771E-02  0.1338675E+00
         21   -1    0    0  506  501  0.00000000000E+00  0.00000000000E+00  0.19571253362E+03  0.19571253362E+03  0.00000000000E+00 0.  1.
         21   -1    0    0  503  502 -0.00000000000E+00 -0.00000000000E+00 -0.21769366254E+03  0.21769366254E+03  0.00000000000E+00 0.  1.
         21    1    1    2  503  504 -0.69990727063E+02  0.52723732841E+02 -0.10833124174E+03  0.13933467557E+03  0.00000000000E+00 0.  1.
         21    1    1    2  504  505  0.18920278743E+00 -0.81294752514E+02 -0.48152702005E+02  0.94485741222E+02  0.00000000000E+00 0.  1.
         21    1    1    2  505  501  0.38316961572E+02  0.40016277790E+02  0.13516492572E+03  0.14607891421E+03  0.00000000000E+00 0.  1.
         21    1    1    2  506  502  0.31484562703E+02 -0.11445258117E+02 -0.66211089689E+00  0.33506865160E+02  0.00000000000E+00 0.  1.
<scales pt_clust_3="14000.00000" pt_clust_4="76.70353" pt_clust_5="70.24137" pt_clust_6="33.50032"></scales>
<clustering>
<clus scale="   33.500">  1  6  2 -1</clus>
<clus scale="   70.241">  1  5  2 -1</clus>
<clus scale="   76.704">  1  4  2 -1</clus>
<clus scale="   33.500">  1  3  2 -1</clus>
</clustering>
</event>
<event>
 6    0  0.3446372E+002  0.7268682E+02  0.7546771E-02  0.1351188E+00
         21   -1    0    0  504  501  0.00000000000E+00  0.00000000000E+00  0.95798076815E+03  0.95798076815E+03  0.00000000000E+00 0.  1.
         21   -1    0    0  503  502 -0.00000000000E+00 -0.00000000000E+00 -0.43408441288E+03  0.43408441288E+03  0.00000000000E+00 0. -1.
         21    1    1    2  503  501 -0.83161932783E+02 -0.44133311590E+02 -0.17098379506E+03  0.19518994449E+03  0.00000000000E+00 0. -1.
         21    1    1    2  504  506  0.31984236420E+02 -0.15514049000E+02  0.91123552893E+03  0.91192865197E+03  0.00000000000E+00 0.  1.
         21    1    1    2  505  502  0.66990190423E+02 -0.38120638144E+01 -0.20855517259E+03  0.21908326604E+03  0.00000000000E+00 0. -1.
         21    1    1    2  506  505 -0.15812494060E+02  0.63459424405E+02 -0.78002059944E+01  0.65863318530E+02  0.00000000000E+00 0. -1.
<scales pt_clust_3="72.68682" pt_clust_4="35.54824" pt_clust_5="14000.00000" pt_clust_6="53.91615"></scales>
<clustering>
<clus scale="   35.548">  1  4  2 -1</clus>
<clus scale="   53.916">  1  6  2 -1</clus>
<clus scale="   72.687">  1  3  2 -1</clus>
<clus scale="   35.548">  1  3  2 -1</clus>
</clustering>
</event>
<event>
 6    0  0.3446372E+002  0.1244220E+03  0.7546771E-02  0.1235975E+00
         21   -1    0    0  506  501  0.00000000000E+00  0.00000000000E+00  0.17039123097E+03  0.17039123097E+03  0.00000000000E+00 0.  1.
         21   -1    0    0  505  502 -0.00000000000E+00 -0.00000000000E+00 -0.50366908689E+03  0.50366908689E+03  0.00000000000E+00 0.  1.
         21    1    1    2  503  502  0.69112797839E+02 -0.19526554249E+02 -0.99193704387E+02  0.12246328485E+03  0.00000000000E+00 0.  1.
         21    1    1    2  504  503  0.72113081804E+02  0.98319374965E+01 -0.75076542452E+02  0.10456314259E+03  0.00000000000E+00 0.  1.
         21    1    1    2  505  501 -0.10908146381E+03  0.23708437747E+02 -0.29036152530E+03  0.31107984689E+03  0.00000000000E+00 0.  1.
         21    1    1    2  506  504 -0.32144415837E+02 -0.14013820995E+02  0.13135391622E+03  0.13595404354E+03  0.00000000000E+00 0.  1.
<scales pt_clust_3="33.42426" pt_clust_4="33.42426" pt_clust_5="119.78606" pt_clust_6="35.06637"></scales>
<clustering>
<clus scale="   33.424">  3  4 -1 -1</clus>
<clus scale="   35.066">  1  6  2 -1</clus>
<clus scale="  119.786">  2  5  1 -1</clus>
<clus scale="   35.066">  1  3  2 -1</clus>
</clustering>
</event>
<event>
 6    0  0.3446372E+002  0.1026311E+03  0.7546771E-02  0.1274859E+00
         21   -1    0    0  506  501  0.00000000000E+00  0.00000000000E+00  0.28406665390E+03  0.28406665390E+03  0.00000000000E+00 0.  1.
         21   -1    0    0  505  502 -0.00000000000E+00 -0.00000000000E+00 -0.25674624266E+03  0.25674624266E+03  0.00000000000E+00 0.  1.
         21    1    1    2  503  501  0.11306567186E+02 -0.62520052465E+02 -0.14745967536E+02  0.65222994261E+02  0.00000000000E+00 0.  1.
         21    1    1    2  504  502 -0.10435171352E+02  0.16585665385E+03 -0.63041124601E+02  0.17773999499E+03  0.00000000000E+00 0.  1.
         21    1    1    2  505  503  0.43886508651E+02 -0.43519849994E+02 -0.78332895846E+02  0.99779985752E+02  0.00000000000E+00 0.  1.
         21    1    1    2  506  504 -0.44757904485E+02 -0.59816751394E+02  0.18344039922E+03  0.19806992156E+03  0.00000000000E+00 0.  1.
<scales pt_clust_3="102.63106" pt_clust_4="14000.00000" pt_clust_5="61.80617" pt_clust_6="75.12872"></scales>
<clustering>
<clus scale="   61.806">  2  5  1 -1</clus>
<clus scale="   75.129">  1  6  2 -1</clus>
<clus scale="  102.631">  1  3  2 -1</clus>
<clus scale="   75.129">  1  3  2 -1</clus>
</clustering>
</event>
<event>
 6    0  0.3446372E+002  0.2373672E+03  0.7546771E-02  0.1121559E+00
         21   -1    0    0  504  501  0.00000000000E+00  0.00000000000E+00  0.85404976689E+03  0.85404976689E+03  0.00000000000E+00 0. -1.
         21   -1    0    0  505  502 -0.00000000000E+00 -0.00000000000E+00 -0.49273939007E+03  0.49273939007E+03  0.00000000000E+00 0. -1.
         21    1    1    2  503  506 -0.76596662887E+02  0.71860276835E+02 -0.21111562175E+03  0.23579812107E+03  0.00000000000E+00 0. -1.
         21    1    1    2  504  502  0.70529400607E+02 -0.11384004102E+03  0.71654957646E+03  0.72895627222E+03  0.00000000000E+00 0. -1.
         21    1    1    2  505  503 -0.12165644485E+03  0.59035549837E+02 -0.20013052317E+03  0.24153201242E+03  0.00000000000E+00 0. -1.
         21    1    1    2  506  501  0.12772370713E+03 -0.17055785655E+02  0.56006945281E+02  0.14050275124E+03  0.00000000000E+00 0. -1.
<scales pt_clust_3="42.10624" pt_clust_4="232.50916" pt_clust_5="42.10624" pt_clust_6="128.85746"></scales>
<clustering>
<clus scale="   42.106">  3  5 -1 -1</clus>
<clus scale="  128.857">  1  6  2 -1</clus>
<clus scale="  232.509">  1  4  2 -1</clus>
<clus scale="  128.857">  1  3  2 -1</clus>
</clustering>
</event>
<event>
 6    0  0.3446372E+002  0.1906008E+03  0.7546771E-02  0.1157921E+00
         21   -1    0    0  505  501  0.00000000000E+00  0.00000000000E+00  0.13166764236E+04  0.13166764236E+04  0.00000000000E+00 0. -1.
         21   -1    0    0  506  502 -0.00000000000E+00 -0.00000000000E+00 -0.16603287656E+03  0.16603287656E+03  0.00000000000E+00 0. -1.
         21    1    1    2  503  502  0.13253813637E+03  0.16091805200E+03  0.51777876780E+03  0.55817186371E+03  0.00000000000E+00 0. -1.
         21    1    1    2  504  501 -0.77584489130E+02 -0.11208127671E+03 -0.74569504714E+02  0.15537752919E+03  0.00000000000E+00 0. -1.
         21    1    1    2  505  503 -0.75069931839E+01 -0.34463924153E+02  0.71767181525E+03  0.71853806539E+03  0.00000000000E+00 0. -1.
         21    1    1    2  506  504 -0.47446654054E+02 -0.14372851136E+02 -0.10237531268E+02  0.50621841898E+02  0.00000000000E+00 0. -1.
<scales pt_clust_3="180.85521" pt_clust_4="36.20845" pt_clust_5="35.27204" pt_clust_6="36.20845"></scales>
<clustering>
<clus scale="   35.272">  1  5  2 -1</clus>
<clus scale="   36.208">  4  6 -1 -1</clus>
<clus scale="  180.855">  1  3  2 -1</clus>
<clus scale="   35.272">  1  3  2 -1</clus>
</clustering>
</event>
<event>
 6    0  0.3446372E+002  0.1215303E+03  0.7546771E-02  0.1240594E+00
         21   -1    0    0  506  501  0.00000000000E+00  0.00000000000E+00  0.25898946619E+03  0.25898946619E+03  0.00000000000E+00 0. -1.
         21   -1    0    0  505  502 -0.00000000000E+00 -0.00000000000E+00 -0.36216089114E+03  0.36216089114E+03  0.00000000000E+00 0. -1.
         21    1    1    2  503  502  0.42056029242E+02 -0.14039127931E+02 -0.27293651090E+02  0.52064864338E+02  0.00000000000E+00 0.  1.
         21    1    1    2  504  503  0.32238446039E+02  0.13698072569E+03  0.71820094130E+02  0.15799102043E+03  0.00000000000E+00 0. -1.
         21    1    1    2  505  501 -0.22263668478E+01 -0.10486152745E+03 -0.25777000282E+03  0.27829170128E+03  0.00000000000E+00 0. -1.
         21    1    1    2  506  504 -0.72068108433E+02 -0.18080070316E+02  0.11007213483E+03  0.13280277129E+03  0.00000000000E+00 0. -1.
<scales pt_clust_3="44.33742" pt_clust_4="121.53031" pt_clust_5="14000.00000" pt_clust_6="72.98902"></scales>
<clustering>
<clus scale="   44.337">  2  3  1 -1</clus>
<clus scale="   72.989">  1  6  2 -1</clus>
<clus scale="  121.530">  1  4  2 -1</clus>
<clus scale="   72.989">  1  3  2 -1</clus>
</clustering>
</event>
<event>
 6    0  0.3446372E+002  0.5132723E+03  0.7546771E-02  0.1010372E+00
         21   -1    0    0  506  501  0.00000000000E+00  0.00000000000E+00  0.19321066783E+04  0.19321066783E+04  0.00000000000E+00 0.  1.
         21   -1    0    0  505  502 -0.00000000000E+00 -0.00000000000E+00 -0.38372864495E+03  0.38372864495E+03  0.00000000000E+00 0. -1.
         21    1    1    2  503  502 -0.21489875031E+03 -0.45688955558E+03  0.70351460717E+03  0.86594592290E+03  0.00000000000E+00 0.  1.
         21    1    1    2  504  501  0.13046800801E+03  0.30658951939E+03 -0.32604179572E+02  0.33478659926E+03  0.00000000000E+00 0. -1.
         21    1    1    2  505  504  0.43050125449E+02  0.17499092204E+03 -0.49500176507E+02  0.18688339566E+03  0.00000000000E+00 0. -1.
         21    1    1    2  506  503  0.41380616848E+02 -0.24690885851E+02  0.92696778225E+03  0.92821940544E+03  0.00000000000E+00 0.  1.
<scales pt_clust_3="509.97864" pt_clust_4="42.69390" pt_clust_5="42.69390" pt_clust_6="48.18709"></scales>
<clustering>
<clus scale="   42.694">  4  5 -1 -1</clus>
<clus scale="   48.187">  1  6  2 -1</clus>
<clus scale="  509.979">  1  3  2 -1</clus>
<clus scale="   48.187">  1  3  2 -1</clus>
</clustering>
</event>
<event>
 6    0  0.3446372E+002  0.1217737E+03  0.7546771E-02  0.1240199E+00
         21   -1    0    0  503  501  0.00000000000E+00  0.00000000000E+00  0.57165499262E+02  0.57165499262E+02  0.00000000000E+00 0. -1.
         21   -1    0    0  505  502 -0.00000000000E+00 -0.00000000000E+00 -0.46024778452E+03  0.46024778452E+03  0.00000000000E+00 0. -1.
         21    1    1    2  503  504 -0.51919681359E+02  0.45095230276E+02 -0.83625992773E+02  0.10827067827E+03  0.00000000000E+00 0. -1.
         21    1    1    2  504  506 -0.15323312488E+01 -0.60510678059E+02 -0.85441201395E+02  0.10470954634E+03  0.00000000000E+00 0.  1.
         21    1    1    2  505  501  0.89711452233E+02  0.70131670442E+02 -0.86585404966E+02  0.14305113846E+03  0.00000000000E+00 0. -1.
         21    1    1    2  506  502 -0.36259439626E+02 -0.54716222659E+02 -0.14742968613E+03  0.16138192072E+03  0.00000000000E+00 0. -1.
<scales pt_clust_3="68.76942" pt_clust_4="41.53021" pt_clust_5="113.83533" pt_clust_6="41.53021"></scales>
<clustering>
<clus scale="   41.530">  4  6 -1 -1</clus>
<clus scale="   68.769">  1  3  2 -1</clus>
<clus scale="  113.835">  1  5  2 -1</clus>
<clus scale="   68.769">  1  3  2 -1</clus>
</clustering>
</event>
<event>
 6    0  0.4155484E+002  0.1447473E+03  0.7546771E-02  0.1207080E+00
         21   -1    0    0  506  501  0.00000000000E+00  0.00000000000E+00  0.22670509966E+03  0.22670509966E+03  0.00000000000E+00 0. -1.
         21   -1    0    0  503  502 -0.00000000000E+00 -0.00000000000E+00 -0.27228338597E+04  0.27228338597E+04  0.00000000000E+00 0. -1.
         21    1    1    2  503  504  0.26182711141E+02 -0.18828921884E+02 -0.21780170727E+04  0.21782558233E+04  0.00000000000E+00 0. -1.
         21    1    1    2  504  505  0.51636070875E+02 -0.33842801011E+02 -0.27467253679E+03  0.28152552542E+03  0.00000000000E+00 0.  1.
         21    1    1    2  505  501  0.54620485341E+02  0.33489873515E+01 -0.24084181101E+03  0.24698054795E+03  0.00000000000E+00 0.  1.
         21    1    1    2  506  502 -0.13243926736E+03  0.49322735544E+02  0.19740266051E+03  0.24277706267E+03  0.00000000000E+00 0. -1.
<scales pt_clust_3="32.25000" pt_clust_4="33.81001" pt_clust_5="33.81001" pt_clust_6="140.03026"></scales>
<clustering>
<clus scale="   32.250">  2  3  1 -1</clus>
<clus scale="   33.810">  4  5 -1 -1</clus>
<clus scale="  140.030">  1  6  2 -1</clus>
<clus scale="  140.030">  1  3  2 -1</clus>
</clustering>
</event>
<event>
 6    0  0.3446372E+002  0.9984241E+02  0.7546771E-02  0.1280628E+00
         21   -1    0    0  506  501  0.00000000000E+00  0.00000000000E+00  0.16532332773E+04  0.16532332773E+04  0.00000000000E+00 0. -1.
         21   -1    0    0  503  502 -0.00000000000E+00 -0.00000000000E+00 -0.18930023963E+03  0.18930023963E+03  0.00000000000E+00 0. -1.
         21    1    1    2  503  504  0.34151984409E+02  0.41089118381E+02 -0.13154265473E+03  0.14197937774E+03  0.00000000000E+00 0. -1.
         21    1    1    2  504  505  0.68280581633E+02 -0.31660888952E+02 -0.19515988787E+02  0.77752964803E+02  0.00000000000E+00 0. -1.
         21    1    1    2  505  501 -0.37779403262E+01 -0.47174951264E+02  0.31630810092E+03  0.31982895987E+03  0.00000000000E+00 0. -1.
         21    1    1    2  506  502 -0.98654625715E+02  0.37746721835E+02  0.12986835803E+04  0.13029722145E+04  0.00000000000E+00 0. -1.
<scales pt_clust_3="53.27802" pt_clust_4="14000.00000" pt_clust_5="47.32599" pt_clust_6="99.84241"></scales>
<clustering>
<clus scale="   47.326">  1  5  2 -1</clus>
<clus scale="   53.278">  2  3  1 -1</clus>
<clus scale="   99.842">  1  6  2 -1</clus>
<clus scale="   47.326">  1  3  2 -1</clus>
</clustering>
</event>
<event>
 6    0  0.3446372E+002  0.2362612E+03  0.7546771E-02  0.1122309E+00
         21   -1    0    0  503  501  0.00000000000E+00  0.00000000000E+00  0.15074884127E+04  0.15074884127E+04  0.00000000000E+00 0. -1.
         21   -1    0    0  505  502 -0.00000000000E+00 -0.00000000000E+00 -0.17654423473E+03  0.17654423473E+03  0.00000000000E+00 0.  1.
         21    1    1    2  503  502  0.13523881159E+03  0.14968856252E+03 -0.68455638340E+02  0.21303139752E+03  0.00000000000E+00 0.  1.
         21    1    1    2  504  501  0.55351214246E+02  0.66929217495E+01  0.70859839355E+03  0.71078846042E+03  0.00000000000E+00 0. -1.
         21    1    1    2  505  506  0.13479296756E+02  0.32187415763E+02  0.43286262404E+02  0.55600554740E+02  0.00000000000E+00 0.  1.
         21    1    1    2  506  504 -0.20406932259E+03 -0.18856890003E+03  0.64751516038E+03  0.70461223478E+03  0.00000000000E+00 0. -1.
<scales pt_clust_3="14000.00000" pt_clust_4="55.86556" pt_clust_5="34.89586" pt_clust_6="236.26119"></scales>
<clustering>
<clus scale="   34.896">  2  5  1 -1</clus>
<clus scale="   55.866">  1  4  2 -1</clus>
<clus scale="  236.261">  1  6  2 -1</clus>
<clus scale="   55.866">  1  3  2 -1</clus>
</clustering>
</event>
<event>
 6    0  0.3446372E+002  0.1155617E+03  0.7546771E-02  0.1250604E+00
         21   -1    0    0  506  501  0.00000000000E+00  0.00000000000E+00  0.93863855201E+03  0.93863855201E+03  0.00000000000E+00 0.  1.
         21   -1    0    0  503  502 -0.00000000000E+00 -0.00000000000E+00 -0.18649180691E+03  0.18649180691E+03  0.00000000000E+00 0.  1.
         21    1    1    2  503  504 -0.37309270172E+02  0.30436989747E+02 -0.13261612050E+03  0.14108659540E+03  0.00000000000E+00 0.  1.
         21    1    1    2  504  501  0.61102272893E+02 -0.15875377296E+03  0.41779567173E+03  0.45109807304E+03  0.00000000000E+00 0.  1.
         21    1    1    2  505  502 -0.12767649756E+02  0.28918580884E+02 -0.18941517544E+02  0.36852113746E+02  0.00000000000E+00 0.  1.
         21    1    1    2  506  505 -0.11025352965E+02  0.99398202333E+02  0.48590871142E+03  0.49609357673E+03  0.00000000000E+00 0.  1.
<scales pt_clust_3="73.50908" pt_clust_4="14000.00000" pt_clust_5="31.61166" pt_clust_6="115.56165"></scales>
<clustering>
<clus scale="   31.612">  2  5  1 -1</clus>
<clus scale="   73.509">  2  3  1 -1</clus>
<clus scale="  115.562">  1  6  2 -1</clus>
<clus scale="  115.562">  1  3  2 -1</clus>
</clustering>
</event>
<event>
 6    0  0.3446372E+002  0.1380679E+03  0.7546771E-02  0.1215953E+00
         21   -1    0    0  504  501  0.00000000000E+00  0.00000000000E+00  0.13683129093E+04  0.13683129093E+04  0.00000000000E+00 0. -1.
         21   -1    0    0  501  502 -0.00000000000E+00 -0.00000000000E+00 -0.15779214161E+03  0.15779214161E+03  0.00000000000E+00 0.  1.
         21    1    1    2  503  502  0.16120900575E+03  0.16528000548E+01 -0.42199634344E+02  0.16664898566E+03  0.00000000000E+00 0.  1.
         21    1    1    2  504  506  0.25657874503E+02 -0.25728691690E+02  0.54126795278E+03  0.54248621070E+03  0.00000000000E+00 0. -1.
         21    1    1    2  505  503 -0.11240232938E+03  0.27370291293E+02  0.15132937656E+02  0.11667228591E+03  0.00000000000E+00 0. -1.
         21    1    1    2  506  505 -0.74464550863E+02 -0.32943996576E+01  0.69631951157E+03  0.70029756861E+03  0.00000000000E+00 0. -1.
<scales pt_clust_3="138.06794" pt_clust_4="36.33582" pt_clust_5="14000.00000" pt_clust_6="58.42023"></scales>
<clustering>
<clus scale="   36.336">  1  4  2 -1</clus>
<clus scale="   58.420">  1  6  2 -1</clus>
<clus scale="  138.068">  2  3  1 -1</clus>
<clus scale="   36.336">  1  3  2 -1</clus>
</clustering>
</event>
<event>
 6    0  0.3446372E+002  0.1414644E+03  0.7546771E-02  0.1211372E+00
         21   -1    0    0  505  501  0.00000000000E+00  0.00000000000E+00  0.12460289178E+04  0.12460289178E+04  0.00000000000E+00 0. -1.
         21   -1    0    0  506  502 -0.00000000000E+00 -0.00000000000E+00 -0.15835235261E+03  0.15835235261E+03  0.00000000000E+00 0. -1.
         21    1    1    2  503  502 -0.28052642345E+02  0.44046509618E+02 -0.60996400078E+02  0.80296989822E+02  0.00000000000E+00 0. -1.
         21    1    1    2  504  503 -0.72193793388E+02  0.49535530193E+02 -0.53840141545E+02  0.10278362417E+03  0.00000000000E+00 0. -1.
         21    1    1    2  505  504  0.70015711676E+02  0.36488691957E+02  0.50240310965E+03  0.50856907997E+03  0.00000000000E+00 0. -1.
         21    1    1    2  506  501  0.30230724057E+02 -0.13007073177E+03  0.70010999717E+03  0.71273157646E+03  0.00000000000E+00 0. -1.
<scales pt_clust_3="30.15064" pt_clust_4="30.15064" pt_clust_5="78.95331" pt_clust_6="135.97075"></scales>
<clustering>
<clus scale="   30.151">  3  4 -1 -1</clus>
<clus scale="   78.953">  1  5  2 -1</clus>
<clus scale="  135.971">  1  6  2 -1</clus>
<clus scale="   78.953">  1  3  2 -1</clus>
</clustering>
</event>
<event>
 6    0  0.3446372E+002  0.7469224E+02  0.7546771E-02  0.1344827E+00
         21   -1    0    0  504  501  0.00000000000E+00  0.00000000000E+00  0.12142314564E+04  0.12142314564E+04  0.00000000000E+00 0.  1.
         21   -1    0    0  505  502 -0.00000000000E+00 -0.00000000000E+00 -0.10892665500E+03  0.10892665500E+03  0.00000000000E+00 0. -1.
         21    1    1    2  503  501 -0.69553065427E+02  0.11193511242E+03  0.16050061647E+03  0.20767172699E+03  0.00000000000E+00 0.  1.
         21    1    1    2  504  506  0.17890507025E+02 -0.69627243450E+02  0.10064473644E+04  0.10090115563E+04  0.00000000000E+00 0.  1.
         21    1    1    2  505  503  0.24434165097E+02 -0.24934266489E+02 -0.65222738035E+02  0.73978048272E+02  0.00000000000E+00 0. -1.
         21    1    1    2  506  502  0.27228393304E+02 -0.17373602477E+02  0.35795585557E+01  0.32496779909E+02  0.00000000000E+00 0.  1.
<scales pt_clust_3="74.69224" pt_clust_4="14000.00000" pt_clust_5="58.34118" pt_clust_6="32.29903"></scales>
<clustering>
<clus scale="   32.299">  2  6  1 -1</clus>
<clus scale="   58.341">  2  5  1 -1</clus>
<clus scale="   74.692">  2  3  1 -1</clus>
<clus scale="   74.692">  1  3  2 -1</clus>
</clustering>
</event>
<event>
 6    0  0.3446372E+002  0.1272060E+03  0.7546771E-02  0.1231661E+00
         21   -1    0    0  506  501  0.00000000000E+00  0.00000000000E+00  0.74677160991E+02  0.74677160991E+02  0.00000000000E+00 0. -1.
         21   -1    0    0  503  502 -0.00000000000E+00 -0.00000000000E+00 -0.63062574413E+03  0.63062574413E+03  0.00000000000E+00 0. -1.
         21    1    1    2  503  504 -0.62323410266E+02 -0.54114856314E+01 -0.10206100181E+03  0.11970772629E+03  0.00000000000E+00 0. -1.
         21    1    1    2  504  501  0.34768484007E+02  0.97927315501E+01 -0.25907274394E+02  0.44451455971E+02  0.00000000000E+00 0.  1.
         21    1    1    2  505  502 -0.46523209289E+02  0.94534843968E+02 -0.40105576910E+03  0.41466489561E+03  0.00000000000E+00 0. -1.
         21    1    1    2  506  505  0.74078135547E+02 -0.98916089886E+02 -0.26924537844E+02  0.12647882725E+03  0.00000000000E+00 0. -1.
<scales pt_clust_3="57.77800" pt_clust_4="36.12126" pt_clust_5="127.20602" pt_clust_6="14000.00000"></scales>
<clustering>
<clus scale="   36.121">  1  4  2 -1</clus>
<clus scale="   57.778">  2  3  1 -1</clus>
<clus scale="  127.206">  2  5  1 -1</clus>
<clus scale="   36.121">  1  3  2 -1</clus>
</clustering>
</event>
<event>
 6    0  0.3446372E+002  0.8525609E+02  0.7546771E-02  0.1314764E+00
         21   -1    0    0  505  501  0.00000000000E+00  0.00000000000E+00  0.45973775923E+03  0.45973775923E+03  0.00000000000E+00 0.  1.
         21   -1    0    0  504  502 -0.00000000000E+00 -0.00000000000E+00 -0.34161942383E+03  0.34161942383E+03  0.00000000000E+00 0.  1.
         21    1    1    2  503  506  0.40150110249E+02 -0.10768875826E+03  0.42599682038E+02  0.12257093015E+03  0.00000000000E+00 0.  1.
         21    1    1    2  504  503 -0.98309711722E+01  0.76724876256E+02 -0.18047053536E+03  0.19634909922E+03  0.00000000000E+00 0.  1.
         21    1    1    2  505  502  0.34625414026E+02  0.57238812230E+01 -0.10711002165E+03  0.11271308199E+03  0.00000000000E+00 0.  1.
         21    1    1    2  506  501 -0.64944553103E+02  0.25240000778E+02  0.36309921038E+03  0.36972407170E+03  0.00000000000E+00 0.  1.
<scales pt_clust_3="14000.00000" pt_clust_4="85.25609" pt_clust_5="35.09533" pt_clust_6="69.24551"></scales>
<clustering>
<clus scale="   35.095">  2  5  1 -1</clus>
<clus scale="   69.246">  1  6  2 -1</clus>
<clus scale="   85.256">  2  4  1 -1</clus>
<clus scale="   69.246">  1  3  2 -1</clus>
</clustering>
</event>
<event>
 6    0  0.3446372E+002  0.8481807E+02  0.7546771E-02  0.1315909E+00
         21   -1    0    0  505  501  0.00000000000E+00  0.00000000000E+00  0.48337285451E+02  0.48337285451E+02  0.00000000000E+00 0. -1.
         21   -1    0    0  503  502 -0.00000000000E+00 -0.00000000000E+00 -0.13216835822E+04  0.13216835822E+04  0.00000000000E+00 0. -1.
         21    1    1    2  503  506 -0.11317832794E+02  0.82527349329E+02 -0.84671546218E+03  0.85080310920E+03  0.00000000000E+00 0. -1.
         21    1    1    2  504  501 -0.94132766847E+01  0.36810172880E+02  0.70538956416E+01  0.38643965235E+02  0.00000000000E+00 0. -1.
         21    1    1    2  505  502  0.40847886214E+02 -0.28946545805E+02 -0.15721215620E+02  0.52474841045E+02  0.00000000000E+00 0. -1.
         21    1    1    2  506  504 -0.20116776735E+02 -0.90390976404E+02 -0.41796351456E+03  0.42809895214E+03  0.00000000000E+00 0. -1.
<scales pt_clust_3="84.81807" pt_clust_4="37.99472" pt_clust_5="34.14595" pt_clust_6="14000.00000"></scales>
<clustering>
<clus scale="   37.995">  1  4  2 -1</clus>
<clus scale="   34.146">  1  5  2 -1</clus>
<clus scale="   84.818">  2  3  1 -1</clus>
<clus scale="   37.995">  1  3  2 -1</clus>
</clustering>
</event>
<event>
 6    0  0.3446372E+002  0.1024546E+03  0.7546771E-02  0.1275217E+00
         21   -1    0    0  503  501  0.00000000000E+00  0.00000000000E+00  0.47797033897E+03  0.47797033897E+03  0.00000000000E+00 0.  1.
         21   -1    0    0  506  502 -0.00000000000E+00 -0.00000000000E+00 -0.35177656769E+03  0.35177656769E+03  0.00000000000E+00 0.  1.
         21    1    1    2  503  504 -0.75183811006E+02  0.56255065993E+02  0.12429039526E+03  0.15577336178E+03  0.00000000000E+00 0.  1.
         21    1    1    2  504  502 -0.29545426273E+02 -0.17465589518E+02 -0.52475237929E+02  0.62702708287E+02  0.00000000000E+00 0.  1.
         21    1    1    2  505  501  0.12005980553E+03  0.39702361067E+02  0.31458623243E+03  0.33905033846E+03  0.00000000000E+00 0.  1.
         21    1    1    2  506  505 -0.15330568247E+02 -0.78491837542E+02 -0.26020761848E+03  0.27222049812E+03  0.00000000000E+00 0.  1.
<scales pt_clust_3="94.62127" pt_clust_4="34.32170" pt_clust_5="102.45465" pt_clust_6="14000.00000"></scales>
<clustering>
<clus scale="   34.322">  2  4  1 -1</clus>
<clus scale="   94.621">  1  3  2 -1</clus>
<clus scale="  102.455">  1  5  2 -1</clus>
<clus scale="   94.621">  1  3  2 -1</clus>
</clustering>
</event>
<event>
 6    0  0.3446372E+002  0.8806973E+02  0.7546771E-02  0.1307595E+00
         21   -1    0    0  504  501  0.00000000000E+00  0.00000000000E+00  0.15193719066E+03  0.15193719066E+03  0.00000000000E+00 0.  1.
         21   -1    0    0  505  502 -0.00000000000E+00 -0.00000000000E+00 -0.97030561772E+03  0.97030561772E+03  0.00000000000E+00 0. -1.
         21    1    1    2  503  506 -0.36895531875E+02 -0.14610902355E+02 -0.41773514216E+03  0.41961578585E+03  0.00000000000E+00 0.  1.
         21    1    1    2  504  502 -0.57475504684E+02  0.75415923307E+02 -0.11538400515E+03  0.14934679029E+03  0.00000000000E+00 0.  1.
         21    1    1    2  505  503  0.11587249794E+02 -0.28877313368E+02 -0.40391467423E+03  0.40511137684E+03  0.00000000000E+00 0. -1.
         21    1    1    2  506  501  0.82783786765E+02 -0.31927707584E+02  0.11866539448E+03  0.14816885540E+03  0.00000000000E+00 0.  1.
<scales pt_clust_3="45.78884" pt_clust_4="14000.00000" pt_clust_5="31.11533" pt_clust_6="88.06973"></scales>
<clustering>
<clus scale="   31.115">  2  5  1 -1</clus>
<clus scale="   45.789">  2  3  1 -1</clus>
<clus scale="   88.070">  1  6  2 -1</clus>
<clus scale="   88.070">  1  3  2 -1</clus>
</clustering>
</event>
<event>
 6    0  0.3446372E+002  0.7768163E+02  0.7546771E-02  0.1335762E+00
         21   -1    0    0  504  501  0.00000000000E+00  0.00000000000E+00  0.61365060460E+03  0.61365060460E+03  0.00000000000E+00 0. -1.
         21   -1    0    0  505  502 -0.00000000000E+00 -0.00000000000E+00 -0.13664329869E+03  0.13664329869E+03  0.00000000000E+00 0.  1.
         21    1    1    2  503  502 -0.28988296695E+01  0.33225373535E+02  0.41352881960E+01  0.33606982436E+02  0.00000000000E+00 0.  1.
         21    1    1    2  504  506 -0.48176825533E+00  0.46711252483E+02  0.48924465622E+03  0.49146974154E+03  0.00000000000E+00 0. -1.
         21    1    1    2  505  501 -0.68828647489E+02 -0.72583943066E+02 -0.80473506849E+02  0.12838145042E+03  0.00000000000E+00 0.  1.
         21    1    1    2  506  503  0.72209245414E+02 -0.73526829521E+01  0.64100868334E+02  0.96835728897E+02  0.00000000000E+00 0.  1.
<scales pt_clust_3="33.35159" pt_clust_4="47.01722" pt_clust_5="77.68163" pt_clust_6="14000.00000"></scales>
<clustering>
<clus scale="   33.352">  2  3  1 -1</clus>
<clus scale="   47.017">  1  4  2 -1</clus>
<clus scale="   77.682">  2  5  1 -1</clus>
<clus scale="   47.017">  1  3  2 -1</clus>
</clustering>
</event>
<event>
 6    0  0.3446372E+002  0.2558482E+03  0.7546771E-02  0.1109664E+00
         21   -1    0    0  506  501  0.00000000000E+00  0.00000000000E+00  0.12549269944E+03  0.12549269944E+03  0.00000000000E+00 0.  1.
         21   -1    0    0  504  502 -0.00000000000E+00 -0.00000000000E+00 -0.15101999372E+04  0.15101999372E+04  0.00000000000E+00 0.  1.
         21    1    1    2  503  505  0.11260400003E+03  0.10097455584E+03 -0.67720919670E+03  0.69389323231E+03  0.00000000000E+00 0.  1.
         21    1    1    2  504  501  0.64147163556E+02  0.75101746354E+02 -0.14274982913E+03  0.17358757045E+03  0.00000000000E+00 0.  1.
         21    1    1    2  505  502  0.93727867502E+02 -0.79475779292E+01 -0.39752802785E+03  0.40850533664E+03  0.00000000000E+00 0.  1.
         21    1    1    2  506  503 -0.27047903109E+03 -0.16812872426E+03 -0.16722018407E+03  0.35970649722E+03  0.00000000000E+00 0.  1.
<scales pt_clust_3="74.79725" pt_clust_4="98.76807" pt_clust_5="74.79725" pt_clust_6="237.61869"></scales>
<clustering>
<clus scale="   74.797">  3  5 -1 -1</clus>
<clus scale="   98.768">  1  4  2 -1</clus>
<clus scale="  237.619">  1  6  2 -1</clus>
<clus scale="   98.768">  1  3  2 -1</clus>
</clustering>
</event>
<event>
 6    0  0.3446372E+002  0.2079032E+03  0.7546771E-02  0.1143237E+00
         21   -1    0    0  505  501  0.00000000000E+00  0.00000000000E+00  0.20335890818E+04  0.20335890818E+04  0.00000000000E+00 0. -1.
         21   -1    0    0  506  502 -0.00000000000E+00 -0.00000000000E+00 -0.36593229344E+03  0.36593229344E+03  0.00000000000E+00 0.  1.
         21    1    1    2  503  504 -0.11720687802E+03 -0.68627174999E+02  0.12459926797E+04  0.12533734078E+04  0.00000000000E+00 0. -1.
         21    1    1    2  504  502  0.54669159726E+02 -0.26301847644E+02 -0.10777122558E+03  0.12367352698E+03  0.00000000000E+00 0.  1.
         21    1    1    2  505  503 -0.37997585437E+01 -0.71979273554E+02  0.74125864356E+03  0.74475487957E+03  0.00000000000E+00 0. -1.
         21    1    1    2  506  501  0.66337476840E+02  0.16690829620E+03 -0.21182330930E+03  0.27771956096E+03  0.00000000000E+00 0.  1.
<scales pt_clust_3="69.06985" pt_clust_4="60.66716" pt_clust_5="69.06985" pt_clust_6="185.16940"></scales>
<clustering>
<clus scale="   60.667">  2  4  1 -1</clus>
<clus scale="   69.070">  3  5 -1 -1</clus>
<clus scale="  185.169">  2  6  1 -1</clus>
<clus scale="  207.903">  1  3  2 -1</clus>
</clustering>
</event>
<event>
 6    0  0.3446372E+002  0.1338872E+03  0.7546771E-02  0.1221799E+00
         21   -1    0    0  504  501  0.00000000000E+00  0.00000000000E+00  0.13753869963E+03  0.13753869963E+03  0.00000000000E+00 0. -1.
         21   -1    0    0  503  502 -0.00000000000E+00 -0.00000000000E+00 -0.33593505399E+03  0.33593505399E+03  0.00000000000E+00 0.  1.
         21    1    1    2  503  501 -0.79265495999E+02 -0.13072304850E+03 -0.10129562398E+03  0.18339121490E+03  0.00000000000E+00 0.  1.
         21    1    1    2  504  505  0.12586937764E+03  0.14534115755E+02 -0.58684602841E+01  0.12684155303E+03  0.00000000000E+00 0. -1.
         21    1    1    2  505  506 -0.48679933892E+02  0.64673827195E+02 -0.39010561168E+02  0.89856907194E+02  0.00000000000E+00 0.  1.
         21    1    1    2  506  502  0.20760522528E+01  0.51515105554E+02 -0.52221708927E+02  0.73384078494E+02  0.00000000000E+00 0. -1.
<scales pt_clust_3="123.58511" pt_clust_4="126.70572" pt_clust_5="41.10273" pt_clust_6="41.10273"></scales>
<clustering>
<clus scale="   41.103">  5  6 -1 -1</clus>
<clus scale="  126.706">  1  4  2 -1</clus>
<clus scale="  123.585">  1  3  2 -1</clus>
<clus scale="  126.706">  1  3  2 -1</clus>
</clustering>
</event>
<event>
 6    0  0.3446372E+002  0.7167322E+02  0.7546771E-02  0.1354494E+00
         21   -1    0    0  504  501  0.00000000000E+00  0.00000000000E+00  0.89782097608E+02  0.89782097608E+02  0.00000000000E+00 0. -1.
         21   -1    0    0  503  502 -0.00000000000E+00 -0.00000000000E+00 -0.12181721174E+04  0.12181721174E+04  0.00000000000E+00 0. -1.
         21    1    1    2  503  505 -0.10876923306E+02  0.58743347639E+02 -0.16560718495E+03  0.17605348068E+03  0.00000000000E+00 0. -1.
         21    1    1    2  504  506 -0.38486066885E+02  0.60176873037E+02  0.54918410776E+02  0.90102526241E+02  0.00000000000E+00 0. -1.
         21    1    1    2  505  501 -0.20376344884E+02 -0.11156527341E+03 -0.87991106516E+03  0.88718965743E+03  0.00000000000E+00 0. -1.
         21    1    1    2  506  502  0.69739335075E+02 -0.73549472664E+01 -0.13779018048E+03  0.15460855068E+03  0.00000000000E+00 0. -1.
<scales pt_clust_3="59.74185" pt_clust_4="14000.00000" pt_clust_5="71.67322" pt_clust_6="68.22625"></scales>
<clustering>
<clus scale="   59.742">  2  3  1 -1</clus>
<clus scale="   68.226">  2  6  1 -1</clus>
<clus scale="   71.673">  2  5  1 -1</clus>
<clus scale="   71.673">  1  3  2 -1</clus>
</clustering>
</event>
<event>
 6    0  0.3446372E+002  0.9087687E+02  0.7546771E-02  0.1300742E+00
         21   -1    0    0  505  501  0.00000000000E+00  0.00000000000E+00  0.23300901474E+03  0.23300901474E+03  0.00000000000E+00 0.  1.
         21   -1    0    0  506  502 -0.00000000000E+00 -0.00000000000E+00 -0.61511172289E+03  0.61511172289E+03  0.00000000000E+00 0.  1.
         21    1    1    2  503  504  0.22264091933E+02 -0.46915685131E+02 -0.63402886487E+02  0.81955459341E+02  0.00000000000E+00 0.  1.
         21    1    1    2  504  502 -0.81197770244E+02 -0.45059067687E+02 -0.50627970099E+03  0.51472568724E+03  0.00000000000E+00 0.  1.
         21    1    1    2  505  503  0.28440291773E+02  0.15699662625E+02  0.16226182698E+03  0.16548181198E+03  0.00000000000E+00 0.  1.
         21    1    1    2  506  501  0.30493386537E+02  0.76275090193E+02  0.25318052349E+02  0.85957779061E+02  0.00000000000E+00 0.  1.
<scales pt_clust_3="51.84624" pt_clust_4="90.87687" pt_clust_5="32.48584" pt_clust_6="14000.00000"></scales>
<clustering>
<clus scale="   32.486">  1  5  2 -1</clus>
<clus scale="   51.846">  1  3  2 -1</clus>
<clus scale="   90.877">  2  4  1 -1</clus>
<clus scale="   32.486">  1  3  2 -1</clus>
</clustering>
</event>
<event>
 6    0  0.3446372E+002  0.2989527E+03  0.7546771E-02  0.1085765E+00
         21   -1    0    0  506  501  0.00000000000E+00  0.00000000000E+00  0.38887408278E+03  0.38887408278E+03  0.00000000000E+00 0.  1.
         21   -1    0    0  504  502 -0.00000000000E+00 -0.00000000000E+00 -0.11945845243E+04  0.11945845243E+04  0.00000000000E+00 0.  1.
         21    1    1    2  503  505 -0.16351550985E+03  0.25632685259E+02 -0.47536058477E+03  0.50335081412E+03  0.00000000000E+00 0.  1.
         21    1    1    2  504  503 -0.12601166329E+03  0.23263652766E+02 -0.61410348172E+03  0.62733023448E+03  0.00000000000E+00 0.  1.
         21    1    1    2  505  501  0.24884418595E+03 -0.56137934385E+02  0.11640298934E+03  0.28040069986E+03  0.00000000000E+00 0.  1.
         21    1    1    2  506  502  0.40682987188E+02  0.72415963604E+01  0.16735063561E+03  0.17237685867E+03  0.00000000000E+00 0.  1.
<scales pt_clust_3="64.19501" pt_clust_4="64.19501" pt_clust_5="289.96872" pt_clust_6="41.32247"></scales>
<clustering>
<clus scale="   41.322">  1  6  2 -1</clus>
<clus scale="   64.195">  3  4 -1 -1</clus>
<clus scale="  289.969">  1  5  2 -1</clus>
<clus scale="   41.322">  1  3  2 -1</clus>
</clustering>
</event>
<event>
 6    0  0.3446372E+002  0.5798255E+02  0.7546771E-02  0.1406498E+00
         21   -1    0    0  504  501  0.00000000000E+00  0.00000000000E+00  0.32295944500E+03  0.32295944500E+03  0.00000000000E+00 0. -1.
         21   -1    0    0  506  502 -0.00000000000E+00 -0.00000000000E+00 -0.83779211162E+03  0.83779211162E+03  0.00000000000E+00 0.  1.
         21    1    1    2  503  502 -0.23572247918E+02  0.51599922347E+02 -0.54672432518E+02  0.78786278854E+02  0.00000000000E+00 0.  1.
         21    1    1    2  504  503 -0.23803699443E+01  0.56868061706E+02  0.16153540170E+03  0.17126975391E+03  0.00000000000E+00 0. -1.
         21    1    1    2  505  501  0.54554253123E+02 -0.26899318643E+02  0.13552945304E+03  0.14855292834E+03  0.00000000000E+00 0. -1.
         21    1    1    2  506  505 -0.28601635260E+02 -0.81568665411E+02 -0.75722508885E+03  0.76214259551E+03  0.00000000000E+00 0.  1.
<scales pt_clust_3="56.72921" pt_clust_4="57.24967" pt_clust_5="57.98255" pt_clust_6="14000.00000"></scales>
<clustering>
<clus scale="   56.729">  2  3  1 -1</clus>
<clus scale="   57.250">  1  4  2 -1</clus>
<clus scale="   57.983">  1  5  2 -1</clus>
<clus scale="   57.250">  1  3  2 -1</clus>
</clustering>
</event>
<event>
 6    0  0.3446372E+002  0.3073812E+03  0.7546771E-02  0.1081608E+00
         21   -1    0    0  503  501  0.00000000000E+00  0.00000000000E+00  0.14353939958E+03  0.14353939958E+03  0.00000000000E+00 0.  1.
         21   -1    0    0  505  502 -0.00000000000E+00 -0.00000000000E+00 -0.93173111676E+03  0.93173111676E+03  0.00000000000E+00 0.  1.
         21    1    1    2  503  502 -0.20011033438E+03 -0.18739122397E+03 -0.70559786688E+03  0.75698610720E+03  0.00000000000E+00 0.  1.
         21    1    1    2  504  506  0.60249995365E+02  0.24353663239E+02  0.18851789483E+02  0.67665004406E+02  0.00000000000E+00 0.  1.
         21    1    1    2  505  504  0.13313966768E+02  0.61968205205E+02 -0.49876846521E+02  0.80653704108E+02  0.00000000000E+00 0.  1.
         21    1    1    2  506  501  0.12654637224E+03  0.10106935552E+03 -0.51568793266E+02  0.16996570064E+03  0.00000000000E+00 0.  1.
<scales pt_clust_3="274.15254" pt_clust_4="43.76846" pt_clust_5="61.78691" pt_clust_6="61.78691"></scales>
<clustering>
<clus scale="   43.768">  4  6 -1 -1</clus>
<clus scale="   61.787">  4  5 -1 -1</clus>
<clus scale="  274.153">  2  3  1 -1</clus>
<clus scale="  307.381">  1  3  2 -1</clus>
</clustering>
</event>
<event>
 6    0  0.3446372E+002  0.9663797E+02  0.7546771E-02  0.1287529E+00
         21   -1    0    0  505  501  0.00000000000E+00  0.00000000000E+00  0.17958843085E+03  0.17958843085E+03  0.00000000000E+00 0.  1.
         21   -1    0    0  506  502 -0.00000000000E+00 -0.00000000000E+00 -0.39952553058E+03  0.39952553058E+03  0.00000000000E+00 0. -1.
         21    1    1    2  503  504 -0.68881688528E+02 -0.23339059962E+02 -0.27935432667E+03  0.28866631006E+03  0.00000000000E+00 0. -1.
         21    1    1    2  504  501  0.20191995520E+02 -0.42620084144E+02  0.61288626210E+02  0.77333588810E+02  0.00000000000E+00 0.  1.
         21    1    1    2  505  502  0.60999896763E+02  0.99885312905E+02  0.67361200867E+02  0.13503923327E+03  0.00000000000E+00 0.  1.
         21    1    1    2  506  503 -0.12310203755E+02 -0.33926168799E+02 -0.69232600147E+02  0.78074829292E+02  0.00000000000E+00 0.  1.
<scales pt_clust_3="96.63797" pt_clust_4="47.79051" pt_clust_5="14000.00000" pt_clust_6="36.09053"></scales>
<clustering>
<clus scale="   36.091">  2  6  1 -1</clus>
<clus scale="   47.791">  1  4  2 -1</clus>
<clus scale="   96.638">  2  3  1 -1</clus>
<clus scale="   47.791">  1  3  2 -1</clus>
</clustering>
</event>
<event>
 6    0  0.3446372E+002  0.1005312E+03  0.7546771E-02  0.1279183E+00
         21   -1    0    0  506  501  0.00000000000E+00  0.00000000000E+00  0.16308385983E+04  0.16308385983E+04  0.00000000000E+00 0. -1.
         21   -1    0    0  503  502 -0.00000000000E+00 -0.00000000000E+00 -0.26211974121E+03  0.26211974121E+03  0.00000000000E+00 0. -1.
         21    1    1    2  503  504 -0.38258268290E+02  0.51593966273E+02 -0.17665940795E+02  0.66616198575E+02  0.00000000000E+00 0. -1.
         21    1    1    2  504  501  0.62696775725E+02 -0.10634164962E+03  0.77617977576E+02  0.14582174931E+03  0.00000000000E+00 0. -1.
         21    1    1    2  505  502 -0.14898888011E+02 -0.44740817008E+02 -0.18118457905E+03  0.18722064325E+03  0.00000000000E+00 0. -1.
         21    1    1    2  506  505 -0.95396194243E+01  0.99488500352E+02  0.14899513993E+04  0.14932997484E+04  0.00000000000E+00 0. -1.
<scales pt_clust_3="53.81211" pt_clust_4="14000.00000" pt_clust_5="47.15631" pt_clust_6="100.53123"></scales>
<clustering>
<clus scale="   47.156">  2  5  1 -1</clus>
<clus scale="   53.812">  2  3  1 -1</clus>
<clus scale="  100.531">  1  6  2 -1</clus>
<clus scale="  100.531">  1  3  2 -1</clus>
</clustering>
</event>
<event>
 6    0  0.3446372E+002  0.2309638E+03  0.7546771E-02  0.1125963E+00
         21   -1    0    0  506  501  0.00000000000E+00  0.00000000000E+00  0.52579810599E+02  0.52579810599E+02  0.00000000000E+00 0.  1.
         21   -1    0    0  505  502 -0.00000000000E+00 -0.00000000000E+00 -0.14885397866E+04  0.14885397866E+04  0.00000000000E+00 0.  1.
         21    1    1    2  503  502 -0.99129397660E+02 -0.19234048172E+03 -0.53589258034E+03  0.57792936943E+03  0.00000000000E+00 0.  1.
         21    1    1    2  504  501  0.33574506072E+01  0.10154242207E+03 -0.27665492776E+03  0.29472035051E+03  0.00000000000E+00 0.  1.
         21    1    1    2  505  504  0.56294049078E+02  0.10561116189E+03 -0.61362054490E+03  0.62518230189E+03  0.00000000000E+00 0. -1.
         21    1    1    2  506  503  0.39477897975E+02 -0.14813102232E+02 -0.97919230270E+01  0.43287575386E+02  0.00000000000E+00 0.  1.
<scales pt_clust_3="214.90624" pt_clust_4="76.50220" pt_clust_5="76.50220" pt_clust_6="42.16554"></scales>
<clustering>
<clus scale="   42.166">  1  6  2 -1</clus>
<clus scale="   76.502">  4  5 -1 -1</clus>
<clus scale="  214.906">  1  3  2 -1</clus>
<clus scale="   42.166">  1  3  2 -1</clus>
</clustering>
</event>
<event>
 6    0  0.3446372E+002  0.8609324E+02  0.7546771E-02  0.1312598E+00
         21   -1    0    0  505  501  0.00000000000E+00  0.00000000000E+00  0.18143010865E+03  0.18143010865E+03  0.00000000000E+00 0.  1.
         21   -1    0    0  503  502 -0.00000000000E+00 -0.00000000000E+00 -0.18551987740E+04  0.18551987740E+04  0.00000000000E+00 0.  1.
         21    1    1    2  503  506  0.60669043218E+02  0.18790685336E+02 -0.13793835173E+04  0.13808449263E+04  0.00000000000E+00 0.  1.
         21    1    1    2  504  502 -0.92264020249E+01  0.51831224117E+02 -0.41276516603E+03  0.41610898161E+03  0.00000000000E+00 0. -1.
         21    1    1    2  505  504 -0.29121048059E+02  0.35409055502E+02 -0.30847675305E+02  0.55257720938E+02  0.00000000000E+00 0. -1.
         21    1    1    2  506  501 -0.22321593134E+02 -0.10603096495E+03  0.14922769331E+03  0.18441725380E+03  0.00000000000E+00 0.  1.
<scales pt_clust_3="14000.00000" pt_clust_4="53.04132" pt_clust_5="45.84579" pt_clust_6="86.09324"></scales>
<clustering>
<clus scale="   45.846">  1  5  2 -1</clus>
<clus scale="   53.041">  2  4  1 -1</clus>
<clus scale="   86.093">  1  6  2 -1</clus>
<clus scale="   45.846">  1  3  2 -1</clus>
</clustering>
</event>
<event>
 6    0  0.3446372E+002  0.9984322E+02  0.7546771E-02  0.1280626E+00
         21   -1    0    0  505  501  0.00000000000E+00  0.00000000000E+00  0.41417867030E+03  0.41417867030E+03  0.00000000000E+00 0. -1.
         21   -1    0    0  506  502 -0.00000000000E+00 -0.00000000000E+00 -0.69551188329E+03  0.69551188329E+03  0.00000000000E+00 0.  1.
         21    1    1    2  503  501  0.38985185077E+02  0.10948317997E+03  0.35526895618E+03  0.37379465295E+03  0.00000000000E+00 0. -1.
         21    1    1    2  504  502 -0.28953328683E+02 -0.37504815317E+02 -0.14671525665E+03  0.15417611017E+03  0.00000000000E+00 0.  1.
         21    1    1    2  505  504  0.23261017401E+02 -0.29826769217E+02  0.36521046999E+02  0.52578493382E+02  0.00000000000E+00 0. -1.
         21    1    1    2  506  503 -0.33292873795E+02 -0.42151595440E+02 -0.52640795952E+03  0.52914129709E+03  0.00000000000E+00 0.  1.
<scales pt_clust_3="99.84322" pt_clust_4="47.47671" pt_clust_5="37.82474" pt_clust_6="14000.00000"></scales>
<clustering>
<clus scale="   37.825">  1  5  2 -1</clus>
<clus scale="   47.477">  2  4  1 -1</clus>
<clus scale="   99.843">  1  3  2 -1</clus>
<clus scale="   37.825">  1  3  2 -1</clus>
</clustering>
</event>
<event>
 6    0  0.3446372E+002  0.6574316E+02  0.7546771E-02  0.1375198E+00
         21   -1    0    0  503  501  0.00000000000E+00  0.00000000000E+00  0.10307359893E+03  0.10307359893E+03  0.00000000000E+00 0.  1.
         21   -1    0    0  505  502 -0.00000000000E+00 -0.00000000000E+00 -0.19738811095E+04  0.19738811095E+04  0.00000000000E+00 0. -1.
         21    1    1    2  503  502 -0.10597063418E+02 -0.64805777825E+02  0.81308096098E+02  0.10451360239E+03  0.00000000000E+00 0.  1.
         21    1    1    2  504  501 -0.30834958256E+02  0.32971467528E+02 -0.64155316207E+02  0.78446267720E+02  0.00000000000E+00 0.  1.
         21    1    1    2  505  506  0.21632750405E+02 -0.55199649059E+02 -0.92886113248E+03  0.93075129899E+03  0.00000000000E+00 0.  1.
         21    1    1    2  506  504  0.19799271269E+02  0.87033959356E+02 -0.95909915803E+03  0.96324353938E+03  0.00000000000E+00 0. -1.
<scales pt_clust_3="52.13169" pt_clust_4="45.14324" pt_clust_5="14000.00000" pt_clust_6="65.74316"></scales>
<clustering>
<clus scale="   45.143">  1  4  2 -1</clus>
<clus scale="   52.132">  1  3  2 -1</clus>
<clus scale="   65.743">  1  6  2 -1</clus>
<clus scale="   45.143">  1  3  2 -1</clus>
</clustering>
</event>
<event>
 6    0  0.3446372E+002  0.1032574E+03  0.7546771E-02  0.1273591E+00
         21   -1    0    0  505  501  0.00000000000E+00  0.00000000000E+00  0.24077083888E+04  0.24077083888E+04  0.00000000000E+00 0.  1.
         21   -1    0    0  506  502 -0.00000000000E+00 -0.00000000000E+00 -0.28704825961E+03  0.28704825961E+03  0.00000000000E+00 0. -1.
         21    1    1    2  503  501 -0.31270402063E+02 -0.18819215490E+02  0.12684904199E+04  0.12690153452E+04  0.00000000000E+00 0.  1.
         21    1    1    2  504  503  0.51946028894E+02 -0.82943091788E+02  0.10933293121E+04  0.10977007476E+04  0.00000000000E+00 0.  1.
         21    1    1    2  505  502 -0.32536603527E+02  0.55192842270E+01  0.27156946928E+02  0.42738657372E+02  0.00000000000E+00 0. -1.
         21    1    1    2  506  504  0.11860976697E+02  0.96243023051E+02 -0.26831654982E+03  0.28530189828E+03  0.00000000000E+00 0. -1.
<scales pt_clust_3="36.52012" pt_clust_4="103.25741" pt_clust_5="33.00141" pt_clust_6="14000.00000"></scales>
<clustering>
<clus scale="   33.001">  2  5  1 -1</clus>
<clus scale="   36.520">  1  3  2 -1</clus>
<clus scale="  103.257">  1  4  2 -1</clus>
<clus scale="   36.520">  1  3  2 -1</clus>
</clustering>
</event>
<event>
 6    0  0.3446372E+002  0.9669153E+02  0.7546771E-02  0.1287411E+00
         21   -1    0    0  506  501  0.00000000000E+00  0.00000000000E+00  0.95918495385E+02  0.95918495385E+02  0.00000000000E+00 0. -1.
         21   -1    0    0  505  502 -0.00000000000E+00 -0.00000000000E+00 -0.13804359647E+04  0.13804359647E+04  0.00000000000E+00 0. -1.
         21    1    1    2  503  502 -0.25328888813E+02  0.20219625635E+02 -0.50092896417E+03  0.50197630722E+03  0.00000000000E+00 0. -1.
         21    1    1    2  504  501 -0.10251458209E+03 -0.50410459596E+02 -0.45682233448E+03  0.47088968906E+03  0.00000000000E+00 0. -1.
         21    1    1    2  505  504  0.85270426282E+02  0.28446351649E+02 -0.40475639395E+03  0.41461787102E+03  0.00000000000E+00 0. -1.
         21    1    1    2  506  503  0.42573044626E+02  0.17444823113E+01  0.77990223249E+02  0.88870592828E+02  0.00000000000E+00 0. -1.
<scales pt_clust_3="32.40966" pt_clust_4="96.69153" pt_clust_5="14000.00000" pt_clust_6="42.45746"></scales>
<clustering>
<clus scale="   32.410">  2  3  1 -1</clus>
<clus scale="   42.457">  1  6  2 -1</clus>
<clus scale="   96.692">  1  4  2 -1</clus>
<clus scale="   42.457">  1  3  2 -1</clus>
</clustering>
</event>
<event>
 6    0  0.3446372E+002  0.2205225E+03  0.7546771E-02  0.1133494E+00
         21   -1    0    0  506  501  0.00000000000E+00  0.00000000000E+00  0.33242546944E+03  0.33242546944E+03  0.00000000000E+00 0. -1.
         21   -1    0    0  504  502 -0.00000000000E+00 -0.00000000000E+00 -0.49682323967E+03  0.49682323967E+03  0.00000000000E+00 0. -1.
         21    1    1    2  503  501 -0.41160590182E+02 -0.24216018640E+02  0.23497953488E+03  0.23978321784E+03  0.00000000000E+00 0. -1.
         21    1    1    2  504  505 -0.10324805023E+03 -0.12368858684E+02 -0.14646663272E+03  0.17962634284E+03  0.00000000000E+00 0. -1.
         21    1    1    2  505  503 -0.80808548309E+02 -0.22815875740E+02 -0.35311288753E+02  0.91090464808E+02  0.00000000000E+00 0. -1.
         21    1    1    2  506  502  0.22521718872E+03  0.59400753063E+02 -0.21759938364E+03  0.31874868363E+03  0.00000000000E+00 0. -1.
<scales pt_clust_3="47.75573" pt_clust_4="66.95343" pt_clust_5="66.95343" pt_clust_6="208.56796"></scales>
<clustering>
<clus scale="   47.756">  1  3  2 -1</clus>
<clus scale="   66.953">  4  5 -1 -1</clus>
<clus scale="  208.568">  1  6  2 -1</clus>
<clus scale="   47.756">  1  3  2 -1</clus>
</clustering>
</event>
<event>
 6    0  0.3446372E+002  0.1268918E+03  0.7546771E-02  0.1232142E+00
         21   -1    0    0  503  501  0.00000000000E+00  0.00000000000E+00  0.43884314409E+03  0.43884314409E+03  0.00000000000E+00 0.  1.
         21   -1    0    0  505  502 -0.00000000000E+00 -0.00000000000E+00 -0.28478450774E+03  0.28478450774E+03  0.00000000000E+00 0.  1.
         21    1    1    2  503  504  0.24787938057E+02  0.38323189205E+02 -0.10268165179E+03  0.11236827986E+03  0.00000000000E+00 0.  1.
         21    1    1    2  504  502 -0.27400643266E+02  0.79630302128E+02 -0.15330630153E+03  0.17491312803E+03  0.00000000000E+00 0.  1.
         21    1    1    2  505  506  0.44157773252E+02 -0.66342535502E+02  0.17799860783E+03  0.19502498646E+03  0.00000000000E+00 0.  1.
         21    1    1    2  506  501 -0.41545068044E+02 -0.51610955831E+02  0.23204798183E+03  0.24132125748E+03  0.00000000000E+00 0.  1.
<scales pt_clust_3="40.86294" pt_clust_4="40.86294" pt_clust_5="114.10783" pt_clust_6="66.25469"></scales>
<clustering>
<clus scale="   40.863">  3  4 -1 -1</clus>
<clus scale="   66.255">  1  6  2 -1</clus>
<clus scale="  114.108">  1  5  2 -1</clus>
<clus scale="   66.255">  1  3  2 -1</clus>
</clustering>
</event>
<event>
 6    0  0.3446372E+002  0.8278769E+02  0.7546771E-02  0.1321321E+00
         21   -1    0    0  505  501  0.00000000000E+00  0.00000000000E+00  0.41214343101E+02  0.41214343101E+02  0.00000000000E+00 0. -1.
         21   -1    0    0  504  502 -0.00000000000E+00 -0.00000000000E+00 -0.78864191581E+03  0.78864191581E+03  0.00000000000E+00 0.  1.
         21    1    1    2  503  501  0.23020883856E+02  0.73266459802E+02 -0.91127673017E+02  0.11917293323E+03  0.00000000000E+00 0.  1.
         21    1    1    2  504  503 -0.88170757204E+02 -0.98517340443E+02 -0.15647893076E+03  0.20485459372E+03  0.00000000000E+00 0. -1.
         21    1    1    2  505  506  0.35428778459E+02  0.53612576453E+01 -0.15164177425E+03  0.15581774329E+03  0.00000000000E+00 0.  1.
         21    1    1    2  506  502  0.29721094888E+02  0.19889622995E+02 -0.34817919468E+03  0.35001098867E+03  0.00000000000E+00 0.  1.
<scales pt_clust_3="76.79802" pt_clust_4="75.45998" pt_clust_5="34.01958" pt_clust_6="34.01958"></scales>
<clustering>
<clus scale="   34.020">  5  6 -1 -1</clus>
<clus scale="   76.798">  1  3  2 -1</clus>
<clus scale="   75.460">  1  4  2 -1</clus>
<clus scale="   76.798">  1  3  2 -1</clus>
</clustering>
</event>
<event>
 6    0  0.3446372E+002  0.1244869E+03  0.7546771E-02  0.1235873E+00
         21   -1    0    0  505  501  0.00000000000E+00  0.00000000000E+00  0.45913023837E+03  0.45913023837E+03  0.00000000000E+00 0. -1.
         21   -1    0    0  503  502 -0.00000000000E+00 -0.00000000000E+00 -0.52616849704E+03  0.52616849704E+03  0.00000000000E+00 0.  1.
         21    1    1    2  503  506 -0.41042549179E+02 -0.39091720888E+01 -0.80105719408E+02  0.90092723077E+02  0.00000000000E+00 0. -1.
         21    1    1    2  504  501  0.63761505579E+02  0.70239621534E+02  0.87544839632E+02  0.12908614555E+03  0.00000000000E+00 0.  1.
         21    1    1    2  505  502 -0.57135296227E+02 -0.14040823599E+03  0.32487444126E+03  0.35850009399E+03  0.00000000000E+00 0. -1.
         21    1    1    2  506  504  0.34416339827E+02  0.74077786546E+02 -0.39935182016E+03  0.40761977279E+03  0.00000000000E+00 0.  1.
<scales pt_clust_3="41.22830" pt_clust_4="124.48695" pt_clust_5="14000.00000" pt_clust_6="70.57112"></scales>
<clustering>
<clus scale="   41.228">  2  3  1 -1</clus>
<clus scale="   70.571">  2  6  1 -1</clus>
<clus scale="  124.487">  2  4  1 -1</clus>
<clus scale="  124.487">  1  3  2 -1</clus>
</clustering>
</event>
<event>
 6    0  0.3446372E+002  0.1026972E+03  0.7546771E-02  0.1274724E+00
         21   -1    0    0  505  501  0.00000000000E+00  0.00000000000E+00  0.44329274682E+03  0.44329274682E+03  0.00000000000E+00 0.  1.
         21   -1    0    0  503  502 -0.00000000000E+00 -0.00000000000E+00 -0.93929450520E+02  0.93929450520E+02  0.00000000000E+00 0.  1.
         21    1    1    2  503  506 -0.32460372120E+02  0.22483350446E+02 -0.20227970473E+02  0.44366063549E+02  0.00000000000E+00 0.  1.
         21    1    1    2  504  502 -0.44045813948E+02 -0.25877290292E+02 -0.11825437616E+02  0.52435759306E+02  0.00000000000E+00 0.  1.
         21    1    1    2  505  504 -0.41861554274E+02 -0.67292890759E+02  0.10522838743E+03  0.13173358112E+03  0.00000000000E+00 0.  1.
         21    1    1    2  506  501  0.11836774034E+03  0.70686830605E+02  0.27618831696E+03  0.30868679337E+03  0.00000000000E+00 0.  1.
<scales pt_clust_3="39.48641" pt_clust_4="62.59013" pt_clust_5="14000.00000" pt_clust_6="102.69724"></scales>
<clustering>
<clus scale="   39.486">  2  3  1 -1</clus>
<clus scale="   62.590">  2  4  1 -1</clus>
<clus scale="  102.697">  2  6  1 -1</clus>
<clus scale="  102.697">  1  3  2 -1</clus>
</clustering>
</event>
<event>
 6    0  0.3446372E+002  0.1069807E+03  0.7546771E-02  0.1266265E+00
         21   -1    0    0  505  501  0.00000000000E+00  0.00000000000E+00  0.37622468216E+02  0.37622468216E+02  0.00000000000E+00 0.  1.
         21   -1    0    0  504  502 -0.00000000000E+00 -0.00000000000E+00 -0.24685383997E+04  0.24685383997E+04  0.00000000000E+00 0.  1.
         21    1    1    2  503  501 -0.65364551387E+02  0.96884783804E+02 -0.16692686570E+03  0.20377380696E+03  0.00000000000E+00 0.  1.
         21    1    1    2  504  503  0.44763171752E+01 -0.32413583408E+02 -0.31305628931E+03  0.31476168459E+03  0.00000000000E+00 0. -1.
         21    1    1    2  505  506  0.10649952934E+03 -0.30931389074E+02 -0.15386703729E+03  0.18966804092E+03  0.00000000000E+00 0.  1.
         21    1    1    2  506  502 -0.45611295129E+02 -0.33539811323E+02 -0.17970657392E+04  0.17979573354E+04  0.00000000000E+00 0.  1.
<scales pt_clust_3="106.98072" pt_clust_4="32.72121" pt_clust_5="14000.00000" pt_clust_6="73.64601"></scales>
<clustering>
<clus scale="   32.721">  2  4  1 -1</clus>
<clus scale="   73.646">  2  6  1 -1</clus>
<clus scale="  106.981">  2  3  1 -1</clus>
<clus scale="  106.981">  1  3  2 -1</clus>
</clustering>
</event>
<event>
 6    0  0.3446372E+002  0.1082333E+03  0.7546771E-02  0.1263877E+00
         21   -1    0    0  506  501  0.00000000000E+00  0.00000000000E+00  0.65299510600E+03  0.65299510600E+03  0.00000000000E+00 0. -1.
         21   -1    0    0  505  502 -0.00000000000E+00 -0.00000000000E+00 -0.13643980309E+03  0.13643980309E+03  0.00000000000E+00 0. -1.
         21    1    1    2  503  501 -0.35841591018E+01  0.43422000811E+02  0.63820644398E+02  0.77274775977E+02  0.00000000000E+00 0. -1.
         21    1    1    2  504  502  0.26804914501E+02 -0.30969655407E+02  0.23367444682E+02  0.47155704516E+02  0.00000000000E+00 0.  1.
         21    1    1    2  505  503  0.81774729395E+02  0.47785245809E+02 -0.90638960652E+02  0.13109522216E+03  0.00000000000E+00 0. -1.
         21    1    1    2  506  504 -0.10499548479E+03 -0.60237591213E+02  0.52000617448E+03  0.53390920644E+03  0.00000000000E+00 0. -1.
<scales pt_clust_3="41.80387" pt_clust_4="40.95880" pt_clust_5="14000.00000" pt_clust_6="108.23330"></scales>
<clustering>
<clus scale="   40.959">  2  4  1 -1</clus>
<clus scale="   41.804">  1  3  2 -1</clus>
<clus scale="  108.233">  1  6  2 -1</clus>
<clus scale="   41.804">  1  3  2 -1</clus>
</clustering>
</event>
<event>
 6    0  0.3446372E+002  0.2949102E+03  0.7546771E-02  0.1087813E+00
         21   -1    0    0  504  501  0.00000000000E+00  0.00000000000E+00  0.48695025135E+03  0.48695025135E+03  0.00000000000E+00 0.  1.
         21   -1    0    0  506  502 -0.00000000000E+00 -0.00000000000E+00 -0.31123611113E+03  0.31123611113E+03  0.00000000000E+00 0. -1.
         21    1    1    2  503  501  0.38268186157E+00 -0.84826936551E+02  0.42471695817E+02  0.94866224525E+02  0.00000000000E+00 0. -1.
         21    1    1    2  504  505 -0.12231140160E+03  0.43687305237E+02 -0.48876008997E+02  0.13877148070E+03  0.00000000000E+00 0. -1.
         21    1    1    2  505  502 -0.14015444654E+03  0.10383097784E+03 -0.77035142829E+02  0.19067919151E+03  0.00000000000E+00 0. -1.
         21    1    1    2  506  503  0.26208316627E+03 -0.62691346527E+02  0.25915359623E+03  0.37386946574E+03  0.00000000000E+00 0.  1.
<scales pt_clust_3="84.82780" pt_clust_4="38.91870" pt_clust_5="38.91870" pt_clust_6="291.44101"></scales>
<clustering>
<clus scale="   38.919">  4  5 -1 -1</clus>
<clus scale="   84.828">  1  3  2 -1</clus>
<clus scale="  291.441">  1  6  2 -1</clus>
<clus scale="   84.828">  1  3  2 -1</clus>
</clustering>
</event>
<event>
 6    0  0.3446372E+002  0.1191178E+03  0.7546771E-02  0.1244560E+00
         21   -1    0    0  504  501  0.00000000000E+00  0.00000000000E+00  0.12384431311E+03  0.12384431311E+03  0.00000000000E+00 0. -1.
         21   -1    0    0  506  502 -0.00000000000E+00 -0.00000000000E+00 -0.91010977611E+03  0.91010977611E+03  0.00000000000E+00 0. -1.
         21    1    1    2  503  502  0.27170455226E+02  0.43537838605E+02 -0.86097408434E+02  0.10023243371E+03  0.00000000000E+00 0. -1.
         21    1    1    2  504  505 -0.35093657399E+01 -0.80947159883E+02 -0.19948265691E+03  0.21530928626E+03  0.00000000000E+00 0. -1.
         21    1    1    2  505  503  0.31182853604E+02 -0.78005370274E+02 -0.56786589961E+03  0.57404606792E+03  0.00000000000E+00 0. -1.
         21    1    1    2  506  501 -0.54843943090E+02  0.11541469155E+03  0.67180501957E+02  0.14436630134E+03  0.00000000000E+00 0. -1.
<scales pt_clust_3="51.32034" pt_clust_4="119.11779" pt_clust_5="69.14347" pt_clust_6="14000.00000"></scales>
<clustering>
<clus scale="   51.320">  2  3  1 -1</clus>
<clus scale="   69.143">  2  5  1 -1</clus>
<clus scale="  119.118">  2  4  1 -1</clus>
<clus scale="  119.118">  1  3  2 -1</clus>
</clustering>
</event>
<event>
 6    0  0.3446372E+002  0.1996440E+03  0.7546771E-02  0.1150040E+00
         21   -1    0    0  503  501  0.00000000000E+00  0.00000000000E+00  0.10302784204E+04  0.10302784204E+04  0.00000000000E+00 0. -1.
         21   -1    0    0  505  502 -0.00000000000E+00 -0.00000000000E+00 -0.16928977825E+03  0.16928977825E+03  0.00000000000E+00 0. -1.
         21    1    1    2  503  502  0.16555191482E+03  0.17951854878E+03  0.27961849136E+02  0.24579709287E+03  0.00000000000E+00 0. -1.
         21    1    1    2  504  506 -0.28309654505E+02 -0.26308423229E+02  0.37995666228E+02  0.54196312818E+02  0.00000000000E+00 0. -1.
         21    1    1    2  505  504 -0.12034347865E+03 -0.18136097721E+02  0.33856920781E+02  0.12632403564E+03  0.00000000000E+00 0. -1.
         21    1    1    2  506  501 -0.16898781662E+02 -0.13507402783E+03  0.76117420601E+03  0.77325075733E+03  0.00000000000E+00 0. -1.
<scales pt_clust_3="191.06538" pt_clust_4="32.62432" pt_clust_5="32.62432" pt_clust_6="136.12701"></scales>
<clustering>
<clus scale="   32.624">  4  5 -1 -1</clus>
<clus scale="  136.127">  1  6  2 -1</clus>
<clus scale="  191.065">  1  3  2 -1</clus>
<clus scale="  136.127">  1  3  2 -1</clus>
</clustering>
</event>
<event>
 6    0  0.3446372E+002  0.1408713E+03  0.7546771E-02  0.1212161E+00
         21   -1    0    0  505  501  0.00000000000E+00  0.00000000000E+00  0.14474688263E+03  0.14474688263E+03  0.00000000000E+00 0.  1.
         21   -1    0    0  503  502 -0.00000000000E+00 -0.00000000000E+00 -0.34599880378E+03  0.34599880378E+03  0.00000000000E+00 0.  1.
         21    1    1    2  503  501 -0.29752142663E+02  0.13044750147E+03  0.67757803263E+02  0.14997619990E+03  0.00000000000E+00 0.  1.
         21    1    1    2  504  502 -0.51390379734E+02 -0.22517173498E+02 -0.34110546395E+02  0.65662193132E+02  0.00000000000E+00 0.  1.
         21    1    1    2  505  506  0.30226037041E+02 -0.71684589720E+02 -0.10233677977E+03  0.12855003000E+03  0.00000000000E+00 0.  1.
         21    1    1    2  506  504  0.50916485357E+02 -0.36245738250E+02 -0.13256239824E+03  0.14655726338E+03  0.00000000000E+00 0.  1.
<scales pt_clust_3="132.55707" pt_clust_4="56.10699" pt_clust_5="42.73576" pt_clust_6="42.73576"></scales>
<clustering>
<clus scale="   42.736">  5  6 -1 -1</clus>
<clus scale="   56.107">  2  4  1 -1</clus>
<clus scale="  132.557">  1  3  2 -1</clus>
<clus scale="  132.557">  1  3  2 -1</clus>
</clustering>
</event>
<event>
 6    0  0.3446372E+002  0.1314818E+03  0.7546771E-02  0.1225273E+00
         21   -1    0    0  506  501  0.00000000000E+00  0.00000000000E+00  0.44115739913E+02  0.44115739913E+02  0.00000000000E+00 0. -1.
         21   -1    0    0  503  502 -0.00000000000E+00 -0.00000000000E+00 -0.95819381742E+03  0.95819381742E+03  0.00000000000E+00 0.  1.
         21    1    1    2  503  504  0.76861939216E+02  0.84624468435E+02 -0.45350705664E+03  0.46769403330E+03  0.00000000000E+00 0.  1.
         21    1    1    2  504  501  0.44406208129E+02 -0.74919829009E+01 -0.54032491298E+02  0.70338831694E+02  0.00000000000E+00 0.  1.
         21    1    1    2  505  502  0.37431932636E+02 -0.24790171747E+02 -0.16190727105E+03  0.16801686408E+03  0.00000000000E+00 0.  1.
         21    1    1    2  506  505 -0.15870007998E+03 -0.52342313787E+02 -0.24463125852E+03  0.29625982827E+03  0.00000000000E+00 0. -1.
<scales pt_clust_3="14000.00000" pt_clust_4="48.27182" pt_clust_5="44.89657" pt_clust_6="131.48182"></scales>
<clustering>
<clus scale="   44.897">  2  5  1 -1</clus>
<clus scale="   48.272">  1  4  2 -1</clus>
<clus scale="  131.482">  1  6  2 -1</clus>
<clus scale="   48.272">  1  3  2 -1</clus>
</clustering>
</event>
<event>
 6    0  0.3446372E+002  0.1062856E+03  0.7546771E-02  0.1267607E+00
         21   -1    0    0  503  501  0.00000000000E+00  0.00000000000E+00  0.26216494940E+03  0.26216494940E+03  0.00000000000E+00 0.  1.
         21   -1    0    0  505  502 -0.00000000000E+00 -0.00000000000E+00 -0.75612933980E+03  0.75612933980E+03  0.00000000000E+00 0.  1.
         21    1    1    2  503  504 -0.32363811534E+02 -0.32684257945E+02  0.59756018452E+02  0.75408611946E+02  0.00000000000E+00 0.  1.
         21    1    1    2  504  502 -0.54605001124E+02  0.25012782117E+02 -0.20211619723E+02  0.63370773932E+02  0.00000000000E+00 0. -1.
         21    1    1    2  505  506  0.11818211824E+03  0.76741342008E+01 -0.70008901001E+03  0.71003558174E+03  0.00000000000E+00 0.  1.
         21    1    1    2  506  501 -0.31213305585E+02 -0.26583724401E-02  0.16658022088E+03  0.16947932158E+03  0.00000000000E+00 0.  1.
<scales pt_clust_3="63.78430" pt_clust_4="106.28561" pt_clust_5="14000.00000" pt_clust_6="31.21331"></scales>
<clustering>
<clus scale="   31.213">  1  6  2 -1</clus>
<clus scale="   63.784">  1  3  2 -1</clus>
<clus scale="  106.286">  1  4  2 -1</clus>
<clus scale="   31.213">  1  3  2 -1</clus>
</clustering>
</event>
<event>
 6    0  0.3446372E+002  0.1123443E+03  0.7546771E-02  0.1256289E+00
         21   -1    0    0  505  501  0.00000000000E+00  0.00000000000E+00  0.50230049237E+02  0.50230049237E+02  0.00000000000E+00 0.  1.
         21   -1    0    0  504  502 -0.00000000000E+00 -0.00000000000E+00 -0.62980939417E+03  0.62980939417E+03  0.00000000000E+00 0. -1.
         21    1    1    2  503  502  0.16939264726E+02 -0.42741310390E+02 -0.30094880707E+03  0.30444037640E+03  0.00000000000E+00 0. -1.
         21    1    1    2  504  501 -0.60749082003E+02  0.11499913871E+03 -0.77913128339E+02  0.15161038367E+03  0.00000000000E+00 0.  1.
         21    1    1    2  505  506  0.48924692313E+01 -0.32716968195E+02 -0.30637688888E+02  0.45088848326E+02  0.00000000000E+00 0. -1.
         21    1    1    2  506  503  0.38917348046E+02 -0.39540860123E+02 -0.17007972064E+03  0.17889983502E+03  0.00000000000E+00 0. -1.
<scales pt_clust_3="38.84992" pt_clust_4="103.73847" pt_clust_5="33.08075" pt_clust_6="38.84992"></scales>
<clustering>
<clus scale="   33.081">  1  5  2 -1</clus>
<clus scale="   38.850">  3  6 -1 -1</clus>
<clus scale="  103.738">  1  4  2 -1</clus>
<clus scale="   33.081">  1  3  2 -1</clus>
</clustering>
</event>
<event>
 6    0  0.3446372E+002  0.1588094E+03  0.7546771E-02  0.1190047E+00
         21   -1    0    0  506  501  0.00000000000E+00  0.00000000000E+00  0.17976418354E+03  0.17976418354E+03  0.00000000000E+00 0.  1.
         21   -1    0    0  505  502 -0.00000000000E+00 -0.00000000000E+00 -0.52534613387E+03  0.52534613387E+03  0.00000000000E+00 0.  1.
         21    1    1    2  503  504  0.55358875460E+02 -0.15066156084E+02 -0.12208300055E+03  0.13489200560E+03  0.00000000000E+00 0.  1.
         21    1    1    2  504  501  0.34304092203E+02 -0.42158577369E+02 -0.27455689712E+02  0.60892785166E+02  0.00000000000E+00 0.  1.
         21    1    1    2  505  503  0.18048548923E+02 -0.49842023196E+02 -0.31311363139E+03  0.31756908470E+03  0.00000000000E+00 0.  1.
         21    1    1    2  506  502 -0.10771151659E+03  0.10706675665E+03  0.11707037133E+03  0.19175644195E+03  0.00000000000E+00 0.  1.
<scales pt_clust_3="61.29439" pt_clust_4="61.29439" pt_clust_5="53.00922" pt_clust_6="143.40394"></scales>
<clustering>
<clus scale="   53.009">  2  5  1 -1</clus>
<clus scale="   61.294">  3  4 -1 -1</clus>
<clus scale="  143.404">  1  6  2 -1</clus>
<clus scale="  143.404">  1  3  2 -1</clus>
</clustering>
</event>
<event>
 6    0  0.3446372E+002  0.1212498E+03  0.7546771E-02  0.1241049E+00
         21   -1    0    0  504  501  0.00000000000E+00  0.00000000000E+00  0.17881284821E+03  0.17881284821E+03  0.00000000000E+00 0. -1.
         21   -1    0    0  506  502 -0.00000000000E+00 -0.00000000000E+00 -0.17335080431E+04  0.17335080431E+04  0.00000000000E+00 0. -1.
         21    1    1    2  503  501 -0.29887729318E+02 -0.42052547695E+02 -0.48823107347E+02  0.71030901321E+02  0.00000000000E+00 0.  1.
         21    1    1    2  504  505  0.71151578635E+02  0.38101490411E+01  0.14778184680E+03  0.16406260580E+03  0.00000000000E+00 0. -1.
         21    1    1    2  505  502 -0.78371152421E+02  0.11094564481E+03 -0.14698603239E+04  0.14761234181E+04  0.00000000000E+00 0. -1.
         21    1    1    2  506  503  0.37107303105E+02 -0.72703246157E+02 -0.18379361047E+03  0.20110396614E+03  0.00000000000E+00 0. -1.
<scales pt_clust_3="51.59160" pt_clust_4="55.90739" pt_clust_5="14000.00000" pt_clust_6="121.24976"></scales>
<clustering>
<clus scale="   51.592">  1  3  2 -1</clus>
<clus scale="   55.907">  1  4  2 -1</clus>
<clus scale="  121.250">  1  6  2 -1</clus>
<clus scale="   51.592">  1  3  2 -1</clus>
</clustering>
</event>
<event>
 6    0  0.3446372E+002  0.2843669E+03  0.7546771E-02  0.1093327E+00
         21   -1    0    0  506  501  0.00000000000E+00  0.00000000000E+00  0.10496959929E+03  0.10496959929E+03  0.00000000000E+00 0.  1.
         21   -1    0    0  503  502 -0.00000000000E+00 -0.00000000000E+00 -0.18211565759E+04  0.18211565759E+04  0.00000000000E+00 0. -1.
         21    1    1    2  503  505  0.18943321100E+03 -0.18708539981E+03 -0.19253724825E+03  0.32856731459E+03  0.00000000000E+00 0.  1.
         21    1    1    2  504  502 -0.66676150187E+02  0.31431496134E+02 -0.39081121962E+03  0.39770222194E+03  0.00000000000E+00 0. -1.
         21    1    1    2  505  501 -0.22997374808E+02 -0.31829794692E+02  0.74424125867E+01  0.39967544124E+02  0.00000000000E+00 0.  1.
         21    1    1    2  506  504 -0.99759686002E+02  0.18748369837E+03 -0.11402809213E+04  0.11598890946E+04  0.00000000000E+00 0. -1.
<scales pt_clust_3="273.20632" pt_clust_4="46.80271" pt_clust_5="39.26850" pt_clust_6="46.80271"></scales>
<clustering>
<clus scale="   39.268">  1  5  2 -1</clus>
<clus scale="   46.803">  4  6 -1 -1</clus>
<clus scale="  273.206">  1  3  2 -1</clus>
<clus scale="   39.268">  1  3  2 -1</clus>
</clustering>
</event>
<event>
 6    0  0.3446372E+002  0.1029416E+03  0.7546771E-02  0.1274229E+00
         21   -1    0    0  504  501  0.00000000000E+00  0.00000000000E+00  0.87547341584E+02  0.87547341584E+02  0.00000000000E+00 0.  1.
         21   -1    0    0  505  502 -0.00000000000E+00 -0.00000000000E+00 -0.85847724985E+03  0.85847724985E+03  0.00000000000E+00 0.  1.
         21    1    1    2  503  501 -0.27685113993E+02  0.63144203605E+02  0.56448917191E+02  0.89107442101E+02  0.00000000000E+00 0.  1.
         21    1    1    2  504  506  0.50940012385E+02  0.22678067103E+02 -0.19923179077E+03  0.20688761694E+03  0.00000000000E+00 0.  1.
         21    1    1    2  505  503 -0.60442145327E+02 -0.92441607087E+02 -0.29944772837E+03  0.31916711246E+03  0.00000000000E+00 0.  1.
         21    1    1    2  506  502  0.37187246934E+02  0.66193363796E+01 -0.32869930632E+03  0.33086241993E+03  0.00000000000E+00 0.  1.
<scales pt_clust_3="68.94676" pt_clust_4="35.29602" pt_clust_5="93.58352" pt_clust_6="35.29602"></scales>
<clustering>
<clus scale="   35.296">  4  6 -1 -1</clus>
<clus scale="   68.947">  1  3  2 -1</clus>
<clus scale="   93.584">  1  5  2 -1</clus>
<clus scale="   68.947">  1  3  2 -1</clus>
</clustering>
</event>
<event>
 6    0  0.3446372E+002  0.1074793E+03  0.7546771E-02  0.1265310E+00
         21   -1    0    0  503  501  0.00000000000E+00  0.00000000000E+00  0.26029486564E+03  0.26029486564E+03  0.00000000000E+00 0.  1.
         21   -1    0    0  504  502 -0.00000000000E+00 -0.00000000000E+00 -0.10529167109E+03  0.10529167109E+03  0.00000000000E+00 0.  1.
         21    1    1    2  503  502 -0.30315818948E+02  0.59125134928E+02  0.44112169281E+02  0.79754084143E+02  0.00000000000E+00 0.  1.
         21    1    1    2  504  505  0.49847574668E+02 -0.10582939506E+02 -0.17569828586E+02  0.53902487748E+02  0.00000000000E+00 0.  1.
         21    1    1    2  505  506  0.40880977639E+02 -0.68045510837E+02 -0.96127460842E+01  0.79961558046E+02  0.00000000000E+00 0.  1.
         21    1    1    2  506  501 -0.60412733360E+02  0.19503315415E+02  0.13807359993E+03  0.15196840679E+03  0.00000000000E+00 0.  1.
<scales pt_clust_3="93.72947" pt_clust_4="42.14256" pt_clust_5="42.14256" pt_clust_6="63.48289"></scales>
<clustering>
<clus scale="   42.143">  4  5 -1 -1</clus>
<clus scale="   63.483">  1  6  2 -1</clus>
<clus scale="   93.729">  1  3  2 -1</clus>
<clus scale="   63.483">  1  3  2 -1</clus>
</clustering>
</event>
<event>
 6    0  0.3446372E+002  0.8309238E+02  0.7546771E-02  0.1320498E+00
         21   -1    0    0  506  501  0.00000000000E+00  0.00000000000E+00  0.84545871582E+03  0.84545871582E+03  0.00000000000E+00 0.  1.
         21   -1    0    0  503  502 -0.00000000000E+00 -0.00000000000E+00 -0.64838471615E+02  0.64838471615E+02  0.00000000000E+00 0.  1.
         21    1    1    2  503  504  0.31025589826E+02  0.79931635774E+01 -0.54555221581E+01  0.32499855539E+02  0.00000000000E+00 0. -1.
         21    1    1    2  504  501 -0.10856879888E+03 -0.20120052423E+02  0.44528259864E+02  0.11905782850E+03  0.00000000000E+00 0.  1.
         21    1    1    2  505  502  0.75824202698E+02 -0.23939923703E+02  0.18941428058E+03  0.20542687105E+03  0.00000000000E+00 0.  1.
         21    1    1    2  506  505  0.17190063596E+01  0.36066812549E+02  0.55213322592E+03  0.55331263235E+03  0.00000000000E+00 0.  1.
<scales pt_clust_3="32.03869" pt_clust_4="83.09238" pt_clust_5="14000.00000" pt_clust_6="36.23155"></scales>
<clustering>
<clus scale="   32.039">  2  3  1 -1</clus>
<clus scale="   36.232">  1  6  2 -1</clus>
<clus scale="   83.092">  2  4  1 -1</clus>
<clus scale="   36.232">  1  3  2 -1</clus>
</clustering>
</event>
<event>
 6    0  0.3446372E+002  0.1238899E+03  0.7546771E-02  0.1236814E+00
         21   -1    0    0  505  501  0.00000000000E+00  0.00000000000E+00  0.45059528216E+03  0.45059528216E+03  0.00000000000E+00 0.  1.
         21   -1    0    0  506  502 -0.00000000000E+00 -0.00000000000E+00 -0.11334729797E+04  0.11334729797E+04  0.00000000000E+00 0. -1.
         21    1    1    2  503  502 -0.71885637703E+02 -0.10844104508E+02  0.20789799021E+03  0.22024239792E+03  0.00000000000E+00 0.  1.
         21    1    1    2  504  501  0.54666738573E+02 -0.54838999267E+02 -0.33568291827E+03  0.34449788064E+03  0.00000000000E+00 0. -1.
         21    1    1    2  505  503 -0.45128700916E+02  0.20272611050E+02  0.22756398541E+03  0.23287968108E+03  0.00000000000E+00 0.  1.
         21    1    1    2  506  504  0.62347600045E+02  0.45410492726E+02 -0.78265675486E+03  0.78644830218E+03  0.00000000000E+00 0. -1.
<scales pt_clust_3="36.06426" pt_clust_4="115.92014" pt_clust_5="36.06426" pt_clust_6="77.13194"></scales>
<clustering>
<clus scale="   36.064">  3  5 -1 -1</clus>
<clus scale="   77.132">  2  6  1 -1</clus>
<clus scale="  115.920">  2  4  1 -1</clus>
<clus scale="  123.890">  1  3  2 -1</clus>
</clustering>
</event>
<event>
 6    0  0.3446372E+002  0.2084907E+03  0.7546771E-02  0.1142767E+00
         21   -1    0    0  505  501  0.00000000000E+00  0.00000000000E+00  0.28805988753E+03  0.28805988753E+03  0.00000000000E+00 0.  1.
         21   -1    0    0  506  502 -0.00000000000E+00 -0.00000000000E+00 -0.94493199535E+03  0.94493199535E+03  0.00000000000E+00 0. -1.
         21    1    1    2  503  504 -0.21754333631E+02 -0.22624719365E+03 -0.22091153889E+02  0.22836169282E+03  0.00000000000E+00 0.  1.
         21    1    1    2  504  501  0.11110767620E+03  0.17498891043E+03  0.11691539666E+03  0.23798160530E+03  0.00000000000E+00 0.  1.
         21    1    1    2  505  502 -0.11034147339E+03  0.25123998638E+02 -0.64364612009E+03  0.65351877093E+03  0.00000000000E+00 0. -1.
         21    1    1    2  506  503  0.20988130813E+02  0.26134284578E+02 -0.10805023050E+03  0.11312981383E+03  0.00000000000E+00 0.  1.
<scales pt_clust_3="208.49068" pt_clust_4="14000.00000" pt_clust_5="104.43031" pt_clust_6="33.51869"></scales>
<clustering>
<clus scale="   33.519">  2  6  1 -1</clus>
<clus scale="  104.430">  2  5  1 -1</clus>
<clus scale="  208.491">  2  3  1 -1</clus>
<clus scale="  208.491">  1  3  2 -1</clus>
</clustering>
</event>
<event>
 6    0  0.3446372E+002  0.1089843E+03  0.7546771E-02  0.1262462E+00
         21   -1    0    0  503  501  0.00000000000E+00  0.00000000000E+00  0.12307283813E+03  0.12307283813E+03  0.00000000000E+00 0.  1.
         21   -1    0    0  505  502 -0.00000000000E+00 -0.00000000000E+00 -0.10722847579E+04  0.10722847579E+04  0.00000000000E+00 0.  1.
         21    1    1    2  503  504  0.74243052094E+02 -0.67600928703E+02  0.37710542905E+02  0.10725670791E+03  0.00000000000E+00 0.  1.
         21    1    1    2  504  506 -0.92508541956E+02 -0.52020939842E+02 -0.16328940551E+02  0.10738083077E+03  0.00000000000E+00 0.  1.
         21    1    1    2  505  501  0.24841082671E+02  0.40174136236E+02 -0.17916410055E+03  0.18528576723E+03  0.00000000000E+00 0.  1.
         21    1    1    2  506  502 -0.65755928095E+01  0.79447732309E+02 -0.79142942158E+03  0.79543429014E+03  0.00000000000E+00 0.  1.
<scales pt_clust_3="100.08608" pt_clust_4="108.98432" pt_clust_5="47.23389" pt_clust_6="14000.00000"></scales>
<clustering>
<clus scale="   47.234">  2  5  1 -1</clus>
<clus scale="  100.086">  1  3  2 -1</clus>
<clus scale="  108.984">  1  4  2 -1</clus>
<clus scale="  100.086">  1  3  2 -1</clus>
</clustering>
</event>
<event>
 6    0  0.3446372E+002  0.1840697E+03  0.7546771E-02  0.1163922E+00
         21   -1    0    0  505  501  0.00000000000E+00  0.00000000000E+00  0.61874589767E+03  0.61874589767E+03  0.00000000000E+00 0. -1.
         21   -1    0    0  504  502 -0.00000000000E+00 -0.00000000000E+00 -0.33152077595E+03  0.33152077595E+03  0.00000000000E+00 0. -1.
         21    1    1    2  503  502  0.11737037186E+03 -0.58748965818E+02  0.72146854957E+01  0.13145073930E+03  0.00000000000E+00 0. -1.
         21    1    1    2  504  506  0.43656926246E+02  0.17338008005E+03 -0.19730368537E+03  0.26626175773E+03  0.00000000000E+00 0. -1.
         21    1    1    2  505  503  0.20595959287E+02 -0.75545820536E+02  0.70656103806E+02  0.10546871358E+03  0.00000000000E+00 0. -1.
         21    1    1    2  506  501 -0.18162325739E+03 -0.39085293696E+02  0.40665801778E+03  0.44708546301E+03  0.00000000000E+00 0. -1.
<scales pt_clust_3="138.28680" pt_clust_4="184.06967" pt_clust_5="78.30303" pt_clust_6="14000.00000"></scales>
<clustering>
<clus scale="   78.303">  1  5  2 -1</clus>
<clus scale="  138.287">  2  3  1 -1</clus>
<clus scale="  184.070">  2  4  1 -1</clus>
<clus scale="   78.303">  1  3  2 -1</clus>
</clustering>
</event>
<event>
 6    0  0.3446372E+002  0.1324042E+03  0.7546771E-02  0.1223931E+00
         21   -1    0    0  504  501  0.00000000000E+00  0.00000000000E+00  0.14729168845E+03  0.14729168845E+03  0.00000000000E+00 0. -1.
         21   -1    0    0  503  502 -0.00000000000E+00 -0.00000000000E+00 -0.21579014721E+03  0.21579014721E+03  0.00000000000E+00 0. -1.
         21    1    1    2  503  506  0.19009662195E+02 -0.41085032387E+02 -0.14960102048E+02  0.47677581695E+02  0.00000000000E+00 0. -1.
         21    1    1    2  504  505 -0.34221642987E+02  0.22356377309E+02  0.47280651141E+02  0.62501107410E+02  0.00000000000E+00 0.  1.
         21    1    1    2  505  502 -0.72353517865E+02  0.57696242242E+02  0.23931303986E+02  0.95585538796E+02  0.00000000000E+00 0. -1.
         21    1    1    2  506  501  0.87565498657E+02 -0.38967587165E+02 -0.12475031184E+03  0.15731760775E+03  0.00000000000E+00 0. -1.
<scales pt_clust_3="45.26972" pt_clust_4="30.84253" pt_clust_5="30.84253" pt_clust_6="124.00529"></scales>
<clustering>
<clus scale="   30.843">  4  5 -1 -1</clus>
<clus scale="   45.270">  2  3  1 -1</clus>
<clus scale="  124.005">  2  6  1 -1</clus>
<clus scale="  132.404">  1  3  2 -1</clus>
</clustering>
</event>
<event>
 6    0  0.3446372E+002  0.1624832E+03  0.7546771E-02  0.1185921E+00
         21   -1    0    0  505  501  0.00000000000E+00  0.00000000000E+00  0.16849183273E+03  0.16849183273E+03  0.00000000000E+00 0.  1.
         21   -1    0    0  506  502 -0.00000000000E+00 -0.00000000000E+00 -0.49693163667E+03  0.49693163667E+03  0.00000000000E+00 0. -1.
         21    1    1    2  503  501  0.72990061901E+01  0.41109647303E+02  0.29736226151E+02  0.51259357570E+02  0.00000000000E+00 0. -1.
         21    1    1    2  504  503  0.66950477003E+02  0.57387871711E+02 -0.22260153628E+03  0.23943094651E+03  0.00000000000E+00 0. -1.
         21    1    1    2  505  502 -0.97023605042E+02 -0.16454960087E+03  0.31531669123E+02  0.19360887697E+03  0.00000000000E+00 0.  1.
         21    1    1    2  506  504  0.22774121849E+02  0.66052081857E+02 -0.16710616293E+03  0.18112428836E+03  0.00000000000E+00 0.  1.
<scales pt_clust_3="41.75259" pt_clust_4="36.77317" pt_clust_5="157.14352" pt_clust_6="36.77317"></scales>
<clustering>
<clus scale="   36.773">  4  6 -1 -1</clus>
<clus scale="   41.753">  1  3  2 -1</clus>
<clus scale="  157.144">  1  5  2 -1</clus>
<clus scale="   41.753">  1  3  2 -1</clus>
</clustering>
</event>
<event>
 6    0  0.3446372E+002  0.9620048E+02  0.7546771E-02  0.1288495E+00
         21   -1    0    0  503  501  0.00000000000E+00  0.00000000000E+00  0.12664357535E+04  0.12664357535E+04  0.00000000000E+00 0.  1.
         21   -1    0    0  504  502 -0.00000000000E+00 -0.00000000000E+00 -0.65938329356E+02  0.65938329356E+02  0.00000000000E+00 0.  1.
         21    1    1    2  503  505 -0.54617828802E+02  0.81952271498E+02  0.11213842156E+04  0.11257006001E+04  0.00000000000E+00 0.  1.
         21    1    1    2  504  501 -0.43118567965E+02 -0.25178455658E+02  0.43574901279E+02  0.66271694970E+02  0.00000000000E+00 0.  1.
         21    1    1    2  505  506  0.37792744220E+02 -0.61588385853E+02  0.34936831377E+02  0.80262089272E+02  0.00000000000E+00 0.  1.
         21    1    1    2  506  502  0.59943652547E+02  0.48145700132E+01  0.60147587837E+00  0.60139698522E+02  0.00000000000E+00 0.  1.
<scales pt_clust_3="96.20048" pt_clust_4="49.93161" pt_clust_5="14000.00000" pt_clust_6="37.50528"></scales>
<clustering>
<clus scale="   49.932">  2  4  1 -1</clus>
<clus scale="   37.505">  2  6  1 -1</clus>
<clus scale="   96.200">  1  3  2 -1</clus>
<clus scale="   96.200">  1  3  2 -1</clus>
</clustering>
</event>
<event>
 6    0  0.3446372E+002  0.1576356E+03  0.7546771E-02  0.1191392E+00
         21   -1    0    0  503  501  0.00000000000E+00  0.00000000000E+00  0.49937758587E+03  0.49937758587E+03  0.00000000000E+00 0. -1.
         21   -1    0    0  501  502 -0.00000000000E+00 -0.00000000000E+00 -0.52091430255E+03  0.52091430255E+03  0.00000000000E+00 0.  1.
         21    1    1    2  503  506  0.95360528536E+02 -0.10668535477E+03  0.46856421830E+03  0.48992634344E+03  0.00000000000E+00 0. -1.
         21    1    1    2  504  505 -0.48443737495E+02  0.25890959809E+02 -0.19778049097E+03  0.20526631509E+03  0.00000000000E+00 0.  1.
         21    1    1    2  505  502 -0.46762588362E+02  0.25129256107E+01 -0.42284465430E+02  0.63095407774E+02  0.00000000000E+00 0.  1.
         21    1    1    2  506  504 -0.15420267947E+00  0.78281469352E+02 -0.25003597857E+03  0.26200382212E+03  0.00000000000E+00 0.  1.
<scales pt_clust_3="142.34063" pt_clust_4="63.55180" pt_clust_5="46.83006" pt_clust_6="63.55180"></scales>
<clustering>
<clus scale="   46.830">  2  5  1 -1</clus>
<clus scale="   63.552">  4  6 -1 -1</clus>
<clus scale="  142.341">  1  3  2 -1</clus>
<clus scale="  142.341">  1  3  2 -1</clus>
</clustering>
</event>
<event>
 6    0  0.3446372E+002  0.1045766E+03  0.7546771E-02  0.1270956E+00
         21   -1    0    0  503  501  0.00000000000E+00  0.00000000000E+00  0.44757471963E+03  0.44757471963E+03  0.00000000000E+00 0.  1.
         21   -1    0    0  505  502 -0.00000000000E+00 -0.00000000000E+00 -0.13649788888E+04  0.13649788888E+04  0.00000000000E+00 0. -1.
         21    1    1    2  503  504  0.30833799147E+02  0.78824464303E+02  0.36812187060E+03  0.37772705881E+03  0.00000000000E+00 0.  1.
         21    1    1    2  504  502 -0.31808803262E+02  0.10444884171E+02 -0.51788974852E+02  0.61668415631E+02  0.00000000000E+00 0.  1.
         21    1    1    2  505  506 -0.34640000807E+02 -0.91908546234E+02 -0.12968915284E+04  0.13006055309E+04  0.00000000000E+00 0. -1.
         21    1    1    2  506  501  0.35615004922E+02  0.26391977596E+01  0.63154463560E+02  0.72552603041E+02  0.00000000000E+00 0.  1.
<scales pt_clust_3="14000.00000" pt_clust_4="33.47978" pt_clust_5="104.57656" pt_clust_6="35.60152"></scales>
<clustering>
<clus scale="   33.480">  2  4  1 -1</clus>
<clus scale="   35.602">  1  6  2 -1</clus>
<clus scale="  104.577">  2  5  1 -1</clus>
<clus scale="   35.602">  1  3  2 -1</clus>
</clustering>
</event>
<event>
 6    0  0.3446372E+002  0.1491556E+03  0.7546771E-02  0.1201514E+00
         21   -1    0    0  503  501  0.00000000000E+00  0.00000000000E+00  0.22610758867E+03  0.22610758867E+03  0.00000000000E+00 0. -1.
         21   -1    0    0  506  502 -0.00000000000E+00 -0.00000000000E+00 -0.36746642033E+03  0.36746642033E+03  0.00000000000E+00 0. -1.
         21    1    1    2  503  505 -0.96660835869E+02  0.13395085998E+03 -0.21166254592E+03  0.26849056488E+03  0.00000000000E+00 0. -1.
         21    1    1    2  504  501  0.27795523104E+02 -0.52088944740E+02  0.13966364130E+03  0.15163041242E+03  0.00000000000E+00 0. -1.
         21    1    1    2  505  502 -0.30949307824E+02 -0.91017160837E+01 -0.29355766134E+02  0.43617220175E+02  0.00000000000E+00 0. -1.
         21    1    1    2  506  504  0.99814620589E+02 -0.72760199161E+02 -0.40004160907E+02  0.12983581153E+03  0.00000000000E+00 0. -1.
<scales pt_clust_3="14000.00000" pt_clust_4="58.92561" pt_clust_5="32.25990" pt_clust_6="149.15562"></scales>
<clustering>
<clus scale="   32.260">  2  5  1 -1</clus>
<clus scale="   58.926">  1  4  2 -1</clus>
<clus scale="  149.156">  1  6  2 -1</clus>
<clus scale="   58.926">  1  3  2 -1</clus>
</clustering>
</event>
<event>
 6    0  0.3446372E+002  0.1106161E+03  0.7546771E-02  0.1259433E+00
         21   -1    0    0  505  501  0.00000000000E+00  0.00000000000E+00  0.53037177961E+02  0.53037177961E+02  0.00000000000E+00 0.  1.
         21   -1    0    0  503  502 -0.00000000000E+00 -0.00000000000E+00 -0.14749665186E+04  0.14749665186E+04  0.00000000000E+00 0.  1.
         21    1    1    2  503  504 -0.12830178130E+02 -0.45463333753E+02 -0.18059880273E+03  0.18667473245E+03  0.00000000000E+00 0. -1.
         21    1    1    2  504  501 -0.95322309909E+02  0.28131301075E+02 -0.53248122414E+01  0.99529224311E+02  0.00000000000E+00 0.  1.
         21    1    1    2  505  506  0.33131852467E+02  0.27035471091E+02 -0.35905952877E+03  0.36159698774E+03  0.00000000000E+00 0. -1.
         21    1    1    2  506  502  0.75020635573E+02 -0.97034384130E+01 -0.87694619692E+03  0.88020275208E+03  0.00000000000E+00 0.  1.
<scales pt_clust_3="47.23905" pt_clust_4="99.38234" pt_clust_5="36.51837" pt_clust_6="36.51837"></scales>
<clustering>
<clus scale="   36.518">  5  6 -1 -1</clus>
<clus scale="   47.239">  2  3  1 -1</clus>
<clus scale="   99.382">  1  4  2 -1</clus>
<clus scale="   99.382">  1  3  2 -1</clus>
</clustering>
</event>
<event>
 6    0  0.3446372E+002  0.1499838E+03  0.7546771E-02  0.1200493E+00
         21   -1    0    0  505  501  0.00000000000E+00  0.00000000000E+00  0.28241545468E+04  0.28241545468E+04  0.00000000000E+00 0. -1.
         21   -1    0    0  503  502 -0.00000000000E+00 -0.00000000000E+00 -0.12621461474E+02  0.12621461474E+02  0.00000000000E+00 0.  1.
         21    1    1    2  503  501  0.14788146663E+03  0.33133702382E+02  0.19490967526E+04  0.19549795194E+04  0.00000000000E+00 0. -1.
         21    1    1    2  504  502 -0.24702278775E+02 -0.39621085908E+02  0.33613684403E+03  0.33936412736E+03  0.00000000000E+00 0.  1.
         21    1    1    2  505  506 -0.47598166314E+02  0.75440135416E+01  0.29990840860E+03  0.30375574254E+03  0.00000000000E+00 0.  1.
         21    1    1    2  506  504 -0.75581021538E+02 -0.10566300157E+01  0.22639108018E+03  0.23867661903E+03  0.00000000000E+00 0.  1.
<scales pt_clust_3="143.06857" pt_clust_4="46.69082" pt_clust_5="35.94482" pt_clust_6="35.94482"></scales>
<clustering>
<clus scale="   35.945">  5  6 -1 -1</clus>
<clus scale="   46.691">  2  4  1 -1</clus>
<clus scale="  143.069">  1  3  2 -1</clus>
<clus scale="  143.069">  1  3  2 -1</clus>
</clustering>
</event>
<event>
 6    0  0.3446372E+002  0.1569654E+03  0.7546771E-02  0.1192166E+00
         21   -1    0    0  506  501  0.00000000000E+00  0.00000000000E+00  0.78690157009E+03  0.78690157009E+03  0.00000000000E+00 0. -1.
         21   -1    0    0  504  502 -0.00000000000E+00 -0.00000000000E+00 -0.14177409735E+03  0.14177409735E+03  0.00000000000E+00 0. -1.
         21    1    1    2  503  502  0.71657023449E-01 -0.52312969825E+02 -0.53176474908E+02  0.74594835145E+02  0.00000000000E+00 0. -1.
         21    1    1    2  504  501  0.45116772022E+02  0.59257881480E+01  0.42352538576E+03  0.42596289799E+03  0.00000000000E+00 0. -1.
         21    1    1    2  505  503 -0.36517983648E+02 -0.12522638046E+03  0.38578832164E+02  0.13602770226E+03  0.00000000000E+00 0.  1.
         21    1    1    2  506  505 -0.86704453978E+01  0.17161356213E+03  0.23619972973E+03  0.29209023204E+03  0.00000000000E+00 0. -1.
<scales pt_clust_3="52.15669" pt_clust_4="45.50426" pt_clust_5="14000.00000" pt_clust_6="156.96545"></scales>
<clustering>
<clus scale="   45.504">  1  4  2 -1</clus>
<clus scale="   52.157">  2  3  1 -1</clus>
<clus scale="  156.965">  1  6  2 -1</clus>
<clus scale="   45.504">  1  3  2 -1</clus>
</clustering>
</event>
<event>
 6    0  0.3446372E+002  0.8382867E+02  0.7546771E-02  0.1318524E+00
         21   -1    0    0  505  501  0.00000000000E+00  0.00000000000E+00  0.86057093525E+03  0.86057093525E+03  0.00000000000E+00 0. -1.
         21   -1    0    0  503  502 -0.00000000000E+00 -0.00000000000E+00 -0.56115209807E+02  0.56115209807E+02  0.00000000000E+00 0. -1.
         21    1    1    2  503  501 -0.36139231831E+02  0.11306919554E+03  0.42232955827E+02  0.12599329195E+03  0.00000000000E+00 0. -1.
         21    1    1    2  504  506  0.54914704463E+02 -0.26802304099E+02  0.27319324459E+03  0.27994381072E+03  0.00000000000E+00 0. -1.
         21    1    1    2  505  504 -0.91368479140E+01 -0.50947551867E+02  0.46286405175E+03  0.46574914432E+03  0.00000000000E+00 0. -1.
         21    1    1    2  506  502 -0.96386247186E+01 -0.35319339577E+02  0.26165473277E+02  0.44999898071E+02  0.00000000000E+00 0. -1.
<scales pt_clust_3="83.82867" pt_clust_4="14000.00000" pt_clust_5="52.88693" pt_clust_6="36.61091"></scales>
<clustering>
<clus scale="   36.611">  2  6  1 -1</clus>
<clus scale="   52.887">  1  5  2 -1</clus>
<clus scale="   83.829">  2  3  1 -1</clus>
<clus scale="   52.887">  1  3  2 -1</clus>
</clustering>
</event>
<event>
 6    0  0.3446372E+002  0.1412077E+03  0.7546771E-02  0.1211713E+00
         21   -1    0    0  505  501  0.00000000000E+00  0.00000000000E+00  0.25535789052E+02  0.25535789052E+02  0.00000000000E+00 0. -1.
         21   -1    0    0  503  502 -0.00000000000E+00 -0.00000000000E+00 -0.23476579812E+04  0.23476579812E+04  0.00000000000E+00 0. -1.
         21    1    1    2  503  504  0.95500686398E+01 -0.64203305219E+02 -0.88152685213E+03  0.88391337767E+03  0.00000000000E+00 0. -1.
         21    1    1    2  504  501  0.59495171693E+02 -0.59313803289E+02 -0.10518821152E+04  0.10552316271E+04  0.00000000000E+00 0. -1.
         21    1    1    2  505  506 -0.14300543904E+02  0.27148430183E+02 -0.88799741420E+00  0.30697416125E+02  0.00000000000E+00 0. -1.
         21    1    1    2  506  502 -0.54744696429E+02  0.96368678325E+02 -0.38782522741E+03  0.40335134928E+03  0.00000000000E+00 0. -1.
<scales pt_clust_3="41.23486" pt_clust_4="41.23486" pt_clust_5="30.68457" pt_clust_6="133.22994"></scales>
<clustering>
<clus scale="   30.685">  1  5  2 -1</clus>
<clus scale="   41.235">  3  4 -1 -1</clus>
<clus scale="  133.230">  1  6  2 -1</clus>
<clus scale="   30.685">  1  3  2 -1</clus>
</clustering>
</event>
<event>
 6    0  0.3446372E+002  0.9615509E+02  0.7546771E-02  0.1288596E+00
         21   -1    0    0  505  501  0.00000000000E+00  0.00000000000E+00  0.26653667972E+03  0.26653667972E+03  0.00000000000E+00 0.  1.
         21   -1    0    0  506  502 -0.00000000000E+00 -0.00000000000E+00 -0.24343259738E+03  0.24343259738E+03  0.00000000000E+00 0.  1.
         21    1    1    2  503  502  0.77768972163E+01 -0.35563868636E+02 -0.41516314426E+02  0.55216602994E+02  0.00000000000E+00 0.  1.
         21    1    1    2  504  501  0.91231227166E+02 -0.11521484511E+02  0.19449852053E+03  0.21514078159E+03  0.00000000000E+00 0.  1.
         21    1    1    2  505  503  0.48157625058E+02  0.11492682323E+02 -0.38979713353E+02  0.63013146654E+02  0.00000000000E+00 0.  1.
         21    1    1    2  506  504 -0.14716574944E+03  0.35592670824E+02 -0.90898410414E+02  0.17659874586E+03  0.00000000000E+00 0.  1.
<scales pt_clust_3="36.40424" pt_clust_4="96.15509" pt_clust_5="50.23873" pt_clust_6="14000.00000"></scales>
<clustering>
<clus scale="   36.404">  2  3  1 -1</clus>
<clus scale="   50.239">  2  5  1 -1</clus>
<clus scale="   96.155">  1  4  2 -1</clus>
<clus scale="   96.155">  1  3  2 -1</clus>
</clustering>
</event>
<event>
 6    0  0.3446372E+002  0.1027308E+03  0.7546771E-02  0.1274656E+00
         21   -1    0    0  504  501  0.00000000000E+00  0.00000000000E+00  0.22534985546E+03  0.22534985546E+03  0.00000000000E+00 0. -1.
         21   -1    0    0  506  502 -0.00000000000E+00 -0.00000000000E+00 -0.35792177680E+03  0.35792177680E+03  0.00000000000E+00 0. -1.
         21    1    1    2  503  501 -0.72891187403E+02 -0.72132579968E+02  0.60889281900E+02  0.11926331768E+03  0.00000000000E+00 0. -1.
         21    1    1    2  504  505  0.20704407036E+02 -0.23458917199E+02  0.12002602632E+03  0.12403725352E+03  0.00000000000E+00 0. -1.
         21    1    1    2  505  502  0.46594933341E+02  0.14384605569E+02 -0.94407543038E+02  0.10625812380E+03  0.00000000000E+00 0. -1.
         21    1    1    2  506  503  0.55918470261E+01  0.81206891598E+02 -0.21907968652E+03  0.23371293726E+03  0.00000000000E+00 0. -1.
<scales pt_clust_3="102.73085" pt_clust_4="31.28887" pt_clust_5="49.52951" pt_clust_6="14000.00000"></scales>
<clustering>
<clus scale="   31.289">  1  4  2 -1</clus>
<clus scale="   49.530">  2  5  1 -1</clus>
<clus scale="  102.731">  1  3  2 -1</clus>
<clus scale="   31.289">  1  3  2 -1</clus>
</clustering>
</event>
<event>
 6    0  0.3446372E+002  0.1614505E+03  0.7546771E-02  0.1187069E+00
         21   -1    0    0  506  501  0.00000000000E+00  0.00000000000E+00  0.32978891469E+03  0.32978891469E+03  0.00000000000E+00 0.  1.
         21   -1    0    0  503  502 -0.00000000000E+00 -0.00000000000E+00 -0.47968602370E+03  0.47968602370E+03  0.00000000000E+00 0. -1.
         21    1    1    2  503  501 -0.17934687520E+03  0.13844438103E+03 -0.26342517022E+03  0.34745498786E+03  0.00000000000E+00 0. -1.
         21    1    1    2  504  502  0.27526580240E+02 -0.31553701947E+02 -0.11135211341E+03  0.11896487669E+03  0.00000000000E+00 0.  1.
         21    1    1    2  505  504  0.69296794743E+01 -0.46222001110E+02 -0.21034531044E+02  0.51253734893E+02  0.00000000000E+00 0.  1.
         21    1    1    2  506  505  0.14489061549E+03 -0.60668677973E+02  0.24591470566E+03  0.29180133894E+03  0.00000000000E+00 0.  1.
<scales pt_clust_3="161.45049" pt_clust_4="41.87301" pt_clust_5="50.28702" pt_clust_6="14000.00000"></scales>
<clustering>
<clus scale="   41.873">  2  4  1 -1</clus>
<clus scale="   50.287">  2  5  1 -1</clus>
<clus scale="  161.450">  2  3  1 -1</clus>
<clus scale="  161.450">  1  3  2 -1</clus>
</clustering>
</event>
<event>
 6    0  0.3446372E+002  0.1049274E+03  0.7546771E-02  0.1270263E+00
         21   -1    0    0  505  501  0.00000000000E+00  0.00000000000E+00  0.49142418616E+03  0.49142418616E+03  0.00000000000E+00 0. -1.
         21   -1    0    0  504  502 -0.00000000000E+00 -0.00000000000E+00 -0.60555261144E+03  0.60555261144E+03  0.00000000000E+00 0. -1.
         21    1    1    2  503  502  0.10960913860E+03 -0.32949037859E+02 -0.47627854824E+03  0.48983778730E+03  0.00000000000E+00 0. -1.
         21    1    1    2  504  506 -0.20815491441E+02 -0.23017781490E+02 -0.79519193953E+02  0.85360442569E+02  0.00000000000E+00 0.  1.
         21    1    1    2  505  503 -0.47425992000E+02  0.11057157266E+03  0.60811057901E+02  0.13480831637E+03  0.00000000000E+00 0. -1.
         21    1    1    2  506  501 -0.41367655161E+02 -0.54604753315E+02  0.38085825901E+03  0.38697025136E+03  0.00000000000E+00 0. -1.
<scales pt_clust_3="104.92737" pt_clust_4="31.03390" pt_clust_5="14000.00000" pt_clust_6="68.68581"></scales>
<clustering>
<clus scale="   31.034">  2  4  1 -1</clus>
<clus scale="   68.686">  1  6  2 -1</clus>
<clus scale="  104.927">  2  3  1 -1</clus>
<clus scale="   68.686">  1  3  2 -1</clus>
</clustering>
</event>
<event>
 6    0  0.3446372E+002  0.1185835E+03  0.7546771E-02  0.1245452E+00
         21   -1    0    0  506  501  0.00000000000E+00  0.00000000000E+00  0.33691597683E+03  0.33691597683E+03  0.00000000000E+00 0. -1.
         21   -1    0    0  504  502 -0.00000000000E+00 -0.00000000000E+00 -0.33899505860E+03  0.33899505860E+03  0.00000000000E+00 0.  1.
         21    1    1    2  503  502  0.61794956637E+02 -0.11243419733E+03 -0.94470932204E+01  0.12864413304E+03  0.00000000000E+00 0. -1.
         21    1    1    2  504  505  0.56340122192E+02  0.11536070797E+03 -0.22462788451E+03  0.25872763442E+03  0.00000000000E+00 0.  1.
         21    1    1    2  505  501  0.78460513141E+01  0.36440189303E+02  0.72430414003E+02  0.81459270745E+02  0.00000000000E+00 0. -1.
         21    1    1    2  506  503 -0.12598113014E+03 -0.39366699939E+02  0.15956548196E+03  0.20707999722E+03  0.00000000000E+00 0. -1.
<scales pt_clust_3="14000.00000" pt_clust_4="118.58345" pt_clust_5="37.27530" pt_clust_6="121.22164"></scales>
<clustering>
<clus scale="   37.275">  1  5  2 -1</clus>
<clus scale="  121.222">  1  6  2 -1</clus>
<clus scale="  118.583">  2  4  1 -1</clus>
<clus scale="   37.275">  1  3  2 -1</clus>
</clustering>
</event>
<event>
 6    0  0.3446372E+002  0.8102443E+02  0.7546771E-02  0.1326169E+00
         21   -1    0    0  504  501  0.00000000000E+00  0.00000000000E+00  0.13321468462E+03  0.13321468462E+03  0.00000000000E+00 0. -1.
         21   -1    0    0  505  502 -0.00000000000E+00 -0.00000000000E+00 -0.14678265433E+04  0.14678265433E+04  0.00000000000E+00 0.  1.
         21    1    1    2  503  502 -0.39855974511E+02 -0.81999818512E+02 -0.11530012861E+04  0.11566003782E+04  0.00000000000E+00 0.  1.
         21    1    1    2  504  503 -0.62952621389E+01  0.65655922804E+02  0.83308660629E+02  0.10625753366E+03  0.00000000000E+00 0. -1.
         21    1    1    2  505  506 -0.20361000957E+02  0.23858111788E+02 -0.26928522928E+03  0.27110572581E+03  0.00000000000E+00 0.  1.
         21    1    1    2  506  501  0.66512237607E+02 -0.75142160806E+01  0.43659961078E+01  0.67077590273E+02  0.00000000000E+00 0. -1.
<scales pt_clust_3="14000.00000" pt_clust_4="66.20342" pt_clust_5="31.36527" pt_clust_6="81.02443"></scales>
<clustering>
<clus scale="   31.365">  2  5  1 -1</clus>
<clus scale="   66.203">  1  4  2 -1</clus>
<clus scale="   81.024">  1  6  2 -1</clus>
<clus scale="   66.203">  1  3  2 -1</clus>
</clustering>
</event>
<event>
 6    0  0.3446372E+002  0.1627638E+03  0.7546771E-02  0.1185611E+00
         21   -1    0    0  505  501  0.00000000000E+00  0.00000000000E+00  0.11783795931E+03  0.11783795931E+03  0.00000000000E+00 0.  1.
         21   -1    0    0  503  502 -0.00000000000E+00 -0.00000000000E+00 -0.16388568256E+04  0.16388568256E+04  0.00000000000E+00 0. -1.
         21    1    1    2  503  504  0.12980651383E+03  0.27340185791E+02 -0.13472066590E+04  0.13537219060E+04  0.00000000000E+00 0. -1.
         21    1    1    2  504  501 -0.14205674091E+03 -0.28370089429E+02 -0.16119491282E+02  0.14575602084E+03  0.00000000000E+00 0.  1.
         21    1    1    2  505  506 -0.13140095019E+02 -0.35182782437E+02  0.39864733555E+02  0.54769400750E+02  0.00000000000E+00 0.  1.
         21    1    1    2  506  502  0.25390322101E+02  0.36212686075E+02 -0.19755744957E+03  0.20244745731E+03  0.00000000000E+00 0.  1.
<scales pt_clust_3="14000.00000" pt_clust_4="162.76383" pt_clust_5="37.55649" pt_clust_6="42.96793"></scales>
<clustering>
<clus scale="   37.556">  1  5  2 -1</clus>
<clus scale="   42.968">  2  6  1 -1</clus>
<clus scale="  162.764">  1  4  2 -1</clus>
<clus scale="   37.556">  1  3  2 -1</clus>
</clustering>
</event>
<event>
 6    0  0.3446372E+002  0.1050109E+03  0.7546771E-02  0.1270098E+00
         21   -1    0    0  504  501  0.00000000000E+00  0.00000000000E+00  0.33913082688E+03  0.33913082688E+03  0.00000000000E+00 0. -1.
         21   -1    0    0  503  502 -0.00000000000E+00 -0.00000000000E+00 -0.65138654317E+03  0.65138654317E+03  0.00000000000E+00 0. -1.
         21    1    1    2  503  501  0.59105486603E+02 -0.26381867488E+02 -0.20561361731E+03  0.21556071326E+03  0.00000000000E+00 0.  1.
         21    1    1    2  504  505  0.30273021394E+02  0.59403940890E+02  0.68023090042E+02  0.95249277143E+02  0.00000000000E+00 0. -1.
         21    1    1    2  505  506 -0.12931592995E+03 -0.10465748140E+02  0.23449057717E+03  0.26798875425E+03  0.00000000000E+00 0. -1.
         21    1    1    2  506  502  0.39937421951E+02 -0.22556325262E+02 -0.40915576619E+03  0.41171862539E+03  0.00000000000E+00 0. -1.
<scales pt_clust_3="105.01085" pt_clust_4="66.61237" pt_clust_5="14000.00000" pt_clust_6="45.86704"></scales>
<clustering>
<clus scale="   45.867">  2  6  1 -1</clus>
<clus scale="   66.612">  1  4  2 -1</clus>
<clus scale="  105.011">  2  3  1 -1</clus>
<clus scale="   66.612">  1  3  2 -1</clus>
</clustering>
</event>
<event>
 6    0  0.3446372E+002  0.1650390E+03  0.7546771E-02  0.1183122E+00
         21   -1    0    0  504  501  0.00000000000E+00  0.00000000000E+00  0.12195701726E+03  0.12195701726E+03  0.00000000000E+00 0.  1.
         21   -1    0    0  503  502 -0.00000000000E+00 -0.00000000000E+00 -0.14648954454E+04  0.14648954454E+04  0.00000000000E+00 0. -1.
         21    1    1    2  503  506 -0.12129925362E+03 -0.52515400650E+02 -0.12265749610E+04  0.12336764208E+04  0.00000000000E+00 0. -1.
         21    1    1    2  504  505  0.17264289473E+03 -0.10635909651E+02 -0.65446088745E+01  0.17309397327E+03  0.00000000000E+00 0.  1.
         21    1    1    2  505  502 -0.42574022001E+02  0.13824572034E+02 -0.12077035069E+03  0.12879884994E+03  0.00000000000E+00 0.  1.
         21    1    1    2  506  501 -0.87696191130E+01  0.49326738267E+02  0.10951492458E+02  0.51283218644E+02  0.00000000000E+00 0.  1.
<scales pt_clust_3="165.03896" pt_clust_4="14000.00000" pt_clust_5="44.76233" pt_clust_6="50.42070"></scales>
<clustering>
<clus scale="   44.762">  2  5  1 -1</clus>
<clus scale="   50.421">  1  6  2 -1</clus>
<clus scale="  165.039">  2  3  1 -1</clus>
<clus scale="   50.421">  1  3  2 -1</clus>
</clustering>
</event>
<event>
 6    0  0.3446372E+002  0.6961604E+02  0.7546771E-02  0.1361404E+00
         21   -1    0    0  506  501  0.00000000000E+00  0.00000000000E+00  0.32441865016E+03  0.32441865016E+03  0.00000000000E+00 0.  1.
         21   -1    0    0  505  502 -0.00000000000E+00 -0.00000000000E+00 -0.87543784894E+02  0.87543784894E+02  0.00000000000E+00 0.  1.
         21    1    1    2  503  502  0.14749757202E+02 -0.33180574319E+02 -0.58562116145E+01  0.36780444045E+02  0.00000000000E+00 0.  1.
         21    1    1    2  504  501 -0.51422971785E+02  0.25082902485E+02  0.77977665040E+02  0.96716029020E+02  0.00000000000E+00 0.  1.
         21    1    1    2  505  504 -0.19640942055E+02  0.70761930717E+02 -0.19399030657E+02  0.75956170481E+02  0.00000000000E+00 0.  1.
         21    1    1    2  506  503  0.56314156638E+02 -0.62664258883E+02  0.18415244250E+03  0.20250979151E+03  0.00000000000E+00 0.  1.
<scales pt_clust_3="36.31124" pt_clust_4="14000.00000" pt_clust_5="47.73467" pt_clust_6="69.61604"></scales>
<clustering>
<clus scale="   36.311">  2  3  1 -1</clus>
<clus scale="   47.735">  2  5  1 -1</clus>
<clus scale="   69.616">  1  6  2 -1</clus>
<clus scale="   69.616">  1  3  2 -1</clus>
</clustering>
</event>
<event>
 6    0  0.3446372E+002  0.8299013E+02  0.7546771E-02  0.1320774E+00
         21   -1    0    0  505  501  0.00000000000E+00  0.00000000000E+00  0.51024315652E+03  0.51024315652E+03  0.00000000000E+00 0. -1.
         21   -1    0    0  503  502 -0.00000000000E+00 -0.00000000000E+00 -0.42825690156E+03  0.42825690156E+03  0.00000000000E+00 0.  1.
         21    1    1    2  503  501 -0.79799196867E+02 -0.46500894784E+02  0.30826279738E+03  0.32180148739E+03  0.00000000000E+00 0. -1.
         21    1    1    2  504  502 -0.44805502725E+02  0.75004091896E+01 -0.11758646868E+03  0.12605699834E+03  0.00000000000E+00 0.  1.
         21    1    1    2  505  506  0.85251964061E+02 -0.45204112250E+02  0.17076065365E+03  0.19613900677E+03  0.00000000000E+00 0.  1.
         21    1    1    2  506  504  0.39352735532E+02  0.84204597844E+02 -0.27945072740E+03  0.29450256558E+03  0.00000000000E+00 0.  1.
<scales pt_clust_3="82.99013" pt_clust_4="45.42895" pt_clust_5="14000.00000" pt_clust_6="91.26599"></scales>
<clustering>
<clus scale="   45.429">  2  4  1 -1</clus>
<clus scale="   91.266">  2  6  1 -1</clus>
<clus scale="   82.990">  1  3  2 -1</clus>
<clus scale="   82.990">  1  3  2 -1</clus>
</clustering>
</event>
<event>
 6    0  0.3446372E+002  0.7863999E+02  0.7546771E-02  0.1332956E+00
         21   -1    0    0  506  501  0.00000000000E+00  0.00000000000E+00  0.52153963876E+03  0.52153963876E+03  0.00000000000E+00 0.  1.
         21   -1    0    0  505  502 -0.00000000000E+00 -0.00000000000E+00 -0.12304037309E+03  0.12304037309E+03  0.00000000000E+00 0.  1.
         21    1    1    2  503  504  0.71366691343E+02 -0.95404446373E+02  0.15226237781E+03  0.19333660987E+03  0.00000000000E+00 0.  1.
         21    1    1    2  504  502  0.57550094054E+01  0.30164785048E+02 -0.74132431595E+02  0.80241210138E+02  0.00000000000E+00 0.  1.
         21    1    1    2  505  501 -0.10523223339E+02  0.35475270333E+02 -0.51945678526E+01  0.37365981451E+02  0.00000000000E+00 0. -1.
         21    1    1    2  506  503 -0.66598477409E+02  0.29764390992E+02  0.32556388731E+03  0.33363621039E+03  0.00000000000E+00 0.  1.
<scales pt_clust_3="14000.00000" pt_clust_4="30.70887" pt_clust_5="50.09378" pt_clust_6="78.63999"></scales>
<clustering>
<clus scale="   30.709">  2  4  1 -1</clus>
<clus scale="   50.094">  2  5  1 -1</clus>
<clus scale="   78.640">  1  6  2 -1</clus>
<clus scale="   78.640">  1  3  2 -1</clus>
</clustering>
</event>
<event>
 6    0  0.3482816E+002  0.2051140E+03  0.7546771E-02  0.1145495E+00
         21   -1    0    0  506  501  0.00000000000E+00  0.00000000000E+00  0.10162334766E+04  0.10162334766E+04  0.00000000000E+00 0.  1.
         21   -1    0    0  505  502 -0.00000000000E+00 -0.00000000000E+00 -0.81490932135E+03  0.81490932135E+03  0.00000000000E+00 0.  1.
         21    1    1    2  503  502  0.37926791612E+02 -0.44930239340E+02 -0.15952083236E+03  0.17001195218E+03  0.00000000000E+00 0.  1.
         21    1    1    2  504  501 -0.67439637179E+02 -0.54116550599E+02 -0.26696967983E+03  0.28062344104E+03  0.00000000000E+00 0.  1.
         21    1    1    2  505  504 -0.11820259543E+03 -0.38073674047E+02 -0.35559564084E+03  0.37665596771E+03  0.00000000000E+00 0.  1.
         21    1    1    2  506  503  0.14771544100E+03  0.13712046399E+03  0.98341030831E+03  0.10038514370E+04  0.00000000000E+00 0.  1.
<scales pt_clust_3="58.79769" pt_clust_4="31.95561" pt_clust_5="31.95561" pt_clust_6="201.50724"></scales>
<clustering>
<clus scale="   31.956">  4  5 -1 -1</clus>
<clus scale="   58.798">  2  3  1 -1</clus>
<clus scale="  201.507">  1  6  2 -1</clus>
<clus scale="  201.507">  1  3  2 -1</clus>
</clustering>
</event>
<event>
 6    0  0.3446372E+002  0.7539155E+02  0.7546771E-02  0.1342663E+00
         21   -1    0    0  503  501  0.00000000000E+00  0.00000000000E+00  0.22242475841E+03  0.22242475841E+03  0.00000000000E+00 0.  1.
         21   -1    0    0  504  502 -0.00000000000E+00 -0.00000000000E+00 -0.41007300837E+03  0.41007300837E+03  0.00000000000E+00 0.  1.
         21    1    1    2  503  505 -0.60736474049E+02  0.63310141610E+02  0.11277153633E+03  0.14287936421E+03  0.00000000000E+00 0.  1.
         21    1    1    2  504  501  0.36468603810E+02 -0.85280645268E+01  0.67634007037E+02  0.77311356580E+02  0.00000000000E+00 0.  1.
         21    1    1    2  505  506 -0.56971513726E+02 -0.39144429944E+02 -0.54504882054E+02  0.88027393121E+02  0.00000000000E+00 0.  1.
         21    1    1    2  506  502  0.81239383965E+02 -0.15637647139E+02 -0.31354891126E+03  0.32427965288E+03  0.00000000000E+00 0.  1.
<scales pt_clust_3="63.40034" pt_clust_4="37.45246" pt_clust_5="14000.00000" pt_clust_6="75.39155"></scales>
<clustering>
<clus scale="   37.452">  1  4  2 -1</clus>
<clus scale="   63.400">  1  3  2 -1</clus>
<clus scale="   75.392">  2  6  1 -1</clus>
<clus scale="   37.452">  1  3  2 -1</clus>
</clustering>
</event>
<event>
 6    0  0.3446372E+002  0.8910266E+02  0.7546771E-02  0.1305039E+00
         21   -1    0    0  503  501  0.00000000000E+00  0.00000000000E+00  0.20526941917E+03  0.20526941917E+03  0.00000000000E+00 0.  1.
         21   -1    0    0  504  502 -0.00000000000E+00 -0.00000000000E+00 -0.13318698497E+03  0.13318698497E+03  0.00000000000E+00 0.  1.
         21    1    1    2  503  505 -0.33328828291E+02 -0.72959140083E+01  0.98918199095E+02  0.10463675869E+03  0.00000000000E+00 0.  1.
         21    1    1    2  504  501  0.26848163326E+02 -0.37074559044E+02 -0.10401220664E+02  0.46941795807E+02  0.00000000000E+00 0.  1.
         21    1    1    2  505  506  0.38645924005E+02  0.10550775298E+03  0.10231265401E+02  0.11282762149E+03  0.00000000000E+00 0.  1.
         21    1    1    2  506  502 -0.32165259039E+02 -0.61137279923E+02 -0.26665809634E+02  0.74050228149E+02  0.00000000000E+00 0.  1.
<scales pt_clust_3="34.11805" pt_clust_4="43.71716" pt_clust_5="89.10266" pt_clust_6="14000.00000"></scales>
<clustering>
<clus scale="   34.118">  1  3  2 -1</clus>
<clus scale="   43.717">  2  4  1 -1</clus>
<clus scale="   89.103">  1  5  2 -1</clus>
<clus scale="   34.118">  1  3  2 -1</clus>
</clustering>
</event>
<event>
 6    0  0.3446372E+002  0.9608223E+02  0.7546771E-02  0.1288757E+00
         21   -1    0    0  503  501  0.00000000000E+00  0.00000000000E+00  0.63812960146E+03  0.63812960146E+03  0.00000000000E+00 0. -1.
         21   -1    0    0  504  502 -0.00000000000E+00 -0.00000000000E+00 -0.75918090458E+02  0.75918090458E+02  0.00000000000E+00 0. -1.
         21    1    1    2  503  506  0.15746812173E+03 -0.39187879549E+02  0.31426900288E+03  0.35369040902E+03  0.00000000000E+00 0. -1.
         21    1    1    2  504  505 -0.58205004212E+02 -0.17318612342E+02  0.45939407419E+02  0.76145820652E+02  0.00000000000E+00 0. -1.
         21    1    1    2  505  501 -0.48609948833E+02  0.37562400684E+02  0.21905588313E+03  0.22750679331E+03  0.00000000000E+00 0. -1.
         21    1    1    2  506  502 -0.50653168688E+02  0.18944091207E+02 -0.17052782423E+02  0.56704668928E+02  0.00000000000E+00 0. -1.
<scales pt_clust_3="14000.00000" pt_clust_4="96.08223" pt_clust_5="67.04601" pt_clust_6="54.07978"></scales>
<clustering>
<clus scale="   54.080">  2  6  1 -1</clus>
<clus scale="   67.046">  1  5  2 -1</clus>
<clus scale="   96.082">  2  4  1 -1</clus>
<clus scale="   67.046">  1  3  2 -1</clus>
</clustering>
</event>
<event>
 6    0  0.3446372E+002  0.6184228E+02  0.7546771E-02  0.1390259E+00
         21   -1    0    0  504  501  0.00000000000E+00  0.00000000000E+00  0.13824365375E+03  0.13824365375E+03  0.00000000000E+00 0.  1.
         21   -1    0    0  506  502 -0.00000000000E+00 -0.00000000000E+00 -0.31047971059E+03  0.31047971059E+03  0.00000000000E+00 0.  1.
         21    1    1    2  503  501 -0.12478729579E+02 -0.75211747582E+02  0.14894240742E+02  0.77681169363E+02  0.00000000000E+00 0.  1.
         21    1    1    2  504  505 -0.21124590065E+02  0.55014829719E+02  0.57347524847E+02  0.82229060560E+02  0.00000000000E+00 0. -1.
         21    1    1    2  505  502  0.59062552903E+02  0.58464527232E+02 -0.70857925345E+02  0.10921232387E+03  0.00000000000E+00 0.  1.
         21    1    1    2  506  503 -0.25459233258E+02 -0.38267609368E+02 -0.17361989709E+03  0.17960081055E+03  0.00000000000E+00 0.  1.
<scales pt_clust_3="61.84228" pt_clust_4="14000.00000" pt_clust_5="53.19787" pt_clust_6="45.96284"></scales>
<clustering>
<clus scale="   45.963">  2  6  1 -1</clus>
<clus scale="   53.198">  2  5  1 -1</clus>
<clus scale="   61.842">  2  3  1 -1</clus>
<clus scale="   61.842">  1  3  2 -1</clus>
</clustering>
</event>
<event>
 6    0  0.3446372E+002  0.1267611E+03  0.7546771E-02  0.1232342E+00
         21   -1    0    0  505  501  0.00000000000E+00  0.00000000000E+00  0.65837052223E+03  0.65837052223E+03  0.00000000000E+00 0. -1.
         21   -1    0    0  506  502 -0.00000000000E+00 -0.00000000000E+00 -0.96722984798E+02  0.96722984798E+02  0.00000000000E+00 0. -1.
         21    1    1    2  503  504  0.86166017067E+02  0.57907885934E+02  0.17771043824E+02  0.10532670957E+03  0.00000000000E+00 0. -1.
         21    1    1    2  504  501 -0.18357683558E+03 -0.94776145366E+01  0.45990037789E+03  0.49527632421E+03  0.00000000000E+00 0. -1.
         21    1    1    2  505  502  0.58331837058E+02 -0.14467955524E+02  0.83292896650E+02  0.10271139948E+03  0.00000000000E+00 0. -1.
         21    1    1    2  506  503  0.39078981459E+02 -0.33962315873E+02  0.68321906807E+00  0.51779073762E+02  0.00000000000E+00 0. -1.
<scales pt_clust_3="126.76111" pt_clust_4="14000.00000" pt_clust_5="66.46645" pt_clust_6="51.77457"></scales>
<clustering>
<clus scale="   51.775">  2  6  1 -1</clus>
<clus scale="   66.466">  1  5  2 -1</clus>
<clus scale="  126.761">  2  3  1 -1</clus>
<clus scale="   66.466">  1  3  2 -1</clus>
</clustering>
</event>
<event>
 6    0  0.3446372E+002  0.1264773E+03  0.7546771E-02  0.1232778E+00
         21   -1    0    0  506  501  0.00000000000E+00  0.00000000000E+00  0.25345775145E+04  0.25345775145E+04  0.00000000000E+00 0.  1.
         21   -1    0    0  503  502 -0.00000000000E+00 -0.00000000000E+00 -0.50942356932E+02  0.50942356932E+02  0.00000000000E+00 0. -1.
         21    1    1    2  503  504 -0.36614288782E+02 -0.10448341686E+02  0.10237773845E+03  0.10922900401E+03  0.00000000000E+00 0. -1.
         21    1    1    2  504  501  0.42447872851E+02 -0.83101681324E+01  0.16482524811E+04  0.16488199181E+04  0.00000000000E+00 0.  1.
         21    1    1    2  505  502 -0.93681998698E+02  0.56895469537E+02  0.24225934926E+02  0.11225109023E+03  0.00000000000E+00 0. -1.
         21    1    1    2  506  505  0.87848414629E+02 -0.38136959719E+02  0.70877900309E+03  0.71521985911E+03  0.00000000000E+00 0.  1.
<scales pt_clust_3="38.07590" pt_clust_4="43.05124" pt_clust_5="126.47730" pt_clust_6="14000.00000"></scales>
<clustering>
<clus scale="   38.076">  2  3  1 -1</clus>
<clus scale="   43.051">  1  4  2 -1</clus>
<clus scale="  126.477">  2  5  1 -1</clus>
<clus scale="   43.051">  1  3  2 -1</clus>
</clustering>
</event>
<event>
 6    0  0.3446372E+002  0.6791512E+02  0.7546771E-02  0.1367330E+00
         21   -1    0    0  506  501  0.00000000000E+00  0.00000000000E+00  0.17985252123E+03  0.17985252123E+03  0.00000000000E+00 0. -1.
         21   -1    0    0  504  502 -0.00000000000E+00 -0.00000000000E+00 -0.79774508051E+03  0.79774508051E+03  0.00000000000E+00 0. -1.
         21    1    1    2  503  502  0.33851818921E+02 -0.30699766544E+02 -0.27480516707E+03  0.27857907524E+03  0.00000000000E+00 0. -1.
         21    1    1    2  504  505  0.69919921904E+01  0.81866411826E+02 -0.47564101771E+03  0.48268558614E+03  0.00000000000E+00 0. -1.
         21    1    1    2  505  501  0.27833918264E+02 -0.68929547978E+02  0.12441308010E+03  0.14492972121E+03  0.00000000000E+00 0. -1.
         21    1    1    2  506  503 -0.68677729376E+02  0.17762902695E+02  0.81405454134E+01  0.71403219143E+02  0.00000000000E+00 0. -1.
<scales pt_clust_3="45.69925" pt_clust_4="65.80270" pt_clust_5="67.91512" pt_clust_6="14000.00000"></scales>
<clustering>
<clus scale="   45.699">  2  3  1 -1</clus>
<clus scale="   65.803">  2  4  1 -1</clus>
<clus scale="   67.915">  1  5  2 -1</clus>
<clus scale="   67.915">  1  3  2 -1</clus>
</clustering>
</event>
<event>
 6    0  0.3446372E+002  0.9594092E+02  0.7546771E-02  0.1289071E+00
         21   -1    0    0  504  501  0.00000000000E+00  0.00000000000E+00  0.30692354383E+04  0.30692354383E+04  0.00000000000E+00 0. -1.
         21   -1    0    0  506  502 -0.00000000000E+00 -0.00000000000E+00 -0.95171942830E+01  0.95171942830E+01  0.00000000000E+00 0. -1.
         21    1    1    2  503  501 -0.39649198465E+02 -0.29068031076E+02  0.62766989679E+03  0.62959233533E+03  0.00000000000E+00 0. -1.
         21    1    1    2  504  502  0.74779618125E+02  0.68781102624E+02  0.41247543131E+03  0.42480444066E+03  0.00000000000E+00 0. -1.
         21    1    1    2  505  503 -0.13867586871E+02 -0.66239555730E+02  0.18586227093E+04  0.18598543933E+04  0.00000000000E+00 0. -1.
         21    1    1    2  506  505 -0.21262832789E+02  0.26526484182E+02  0.16095020660E+03  0.16450146330E+03  0.00000000000E+00 0. -1.
<scales pt_clust_3="49.52476" pt_clust_4="95.94092" pt_clust_5="14000.00000" pt_clust_6="33.99651"></scales>
<clustering>
<clus scale="   33.997">  2  6  1 -1</clus>
<clus scale="   49.525">  1  3  2 -1</clus>
<clus scale="   95.941">  2  4  1 -1</clus>
<clus scale="   49.525">  1  3  2 -1</clus>
</clustering>
</event>
<event>
 6    0  0.5963605E+002  0.9919456E+02  0.7546771E-02  0.1281999E+00
         21   -1    0    0  505  501  0.00000000000E+00  0.00000000000E+00  0.39168679540E+03  0.39168679540E+03  0.00000000000E+00 0. -1.
         21   -1    0    0  504  502 -0.00000000000E+00 -0.00000000000E+00 -0.15145579304E+04  0.15145579304E+04  0.00000000000E+00 0. -1.
         21    1    1    2  503  502  0.42888700315E+02  0.10561074085E+02 -0.20519260611E+03  0.20989278811E+03  0.00000000000E+00 0. -1.
         21    1    1    2  504  506 -0.10711429143E+03  0.33291783573E+02 -0.95193978011E+03  0.95852551309E+03  0.00000000000E+00 0. -1.
         21    1    1    2  505  503  0.25510436519E+02  0.44009037537E+02 -0.34391280581E+03  0.34765442002E+03  0.00000000000E+00 0. -1.
         21    1    1    2  506  501  0.38715154593E+02 -0.87861895196E+02  0.37817405698E+03  0.39017200463E+03  0.00000000000E+00 0. -1.
<scales pt_clust_3="38.25977" pt_clust_4="90.29820" pt_clust_5="38.25977" pt_clust_6="96.01341"></scales>
<clustering>
<clus scale="   38.260">  3  5 -1 -1</clus>
<clus scale="   96.013">  1  6  2 -1</clus>
<clus scale="   90.298">  2  4  1 -1</clus>
<clus scale="   96.013">  1  3  2 -1</clus>
</clustering>
</event>
<event>
 6    0  0.3446372E+002  0.8077086E+02  0.7546771E-02  0.1326878E+00
         21   -1    0    0  504  501  0.00000000000E+00  0.00000000000E+00  0.16008115273E+04  0.16008115273E+04  0.00000000000E+00 0. -1.
         21   -1    0    0  503  502 -0.00000000000E+00 -0.00000000000E+00 -0.64964391857E+02  0.64964391857E+02  0.00000000000E+00 0. -1.
         21    1    1    2  503  505 -0.40934229208E+02  0.14697005417E+02 -0.41396453101E+02  0.60043979036E+02  0.00000000000E+00 0. -1.
         21    1    1    2  504  502 -0.21870256527E+02 -0.22194332177E+02  0.23889350888E+02  0.39263183610E+02  0.00000000000E+00 0.  1.
         21    1    1    2  505  506  0.42047373863E+02  0.86298526873E+02  0.45083396708E+03  0.46094108437E+03  0.00000000000E+00 0. -1.
         21    1    1    2  506  501  0.20757111872E+02 -0.78801200113E+02  0.11025202705E+04  0.11055276721E+04  0.00000000000E+00 0. -1.
<scales pt_clust_3="60.50409" pt_clust_4="31.15921" pt_clust_5="14000.00000" pt_clust_6="80.77086"></scales>
<clustering>
<clus scale="   31.159">  2  4  1 -1</clus>
<clus scale="   60.504">  2  3  1 -1</clus>
<clus scale="   80.771">  1  6  2 -1</clus>
<clus scale="   80.771">  1  3  2 -1</clus>
</clustering>
</event>
<event>
 6    0  0.3446372E+002  0.1554072E+03  0.7546771E-02  0.1193982E+00
         21   -1    0    0  503  501  0.00000000000E+00  0.00000000000E+00  0.74780179819E+03  0.74780179819E+03  0.00000000000E+00 0.  1.
         21   -1    0    0  505  502 -0.00000000000E+00 -0.00000000000E+00 -0.22784583365E+03  0.22784583365E+03  0.00000000000E+00 0.  1.
         21    1    1    2  503  506 -0.88837933056E+02 -0.67347915650E+01  0.52461791223E+03  0.53212920386E+03  0.00000000000E+00 0.  1.
         21    1    1    2  504  501 -0.10796260516E+03  0.15763933943E+02 -0.23540058127E+02  0.11161791999E+03  0.00000000000E+00 0.  1.
         21    1    1    2  505  504 -0.39707888837E+02  0.18364719817E+02 -0.65957839544E+02  0.79148063572E+02  0.00000000000E+00 0.  1.
         21    1    1    2  506  502  0.23650842705E+03 -0.27393862195E+02  0.84835949977E+02  0.25275244442E+03  0.00000000000E+00 0.  1.
<scales pt_clust_3="90.01831" pt_clust_4="14000.00000" pt_clust_5="43.74905" pt_clust_6="155.40720"></scales>
<clustering>
<clus scale="   43.749">  2  5  1 -1</clus>
<clus scale="   90.018">  1  3  2 -1</clus>
<clus scale="  155.407">  1  6  2 -1</clus>
<clus scale="   90.018">  1  3  2 -1</clus>
</clustering>
</event>
<event>
 6    0  0.3446372E+002  0.1496859E+03  0.7546771E-02  0.1200859E+00
         21   -1    0    0  506  501  0.00000000000E+00  0.00000000000E+00  0.13042666405E+03  0.13042666405E+03  0.00000000000E+00 0.  1.
         21   -1    0    0  504  502 -0.00000000000E+00 -0.00000000000E+00 -0.13671547483E+04  0.13671547483E+04  0.00000000000E+00 0.  1.
         21    1    1    2  503  502  0.26556328674E+02  0.20304853227E+02 -0.11190589910E+03  0.11679236238E+03  0.00000000000E+00 0.  1.
         21    1    1    2  504  501 -0.15596916366E+03 -0.83951063674E+02 -0.93891460121E+03  0.95547621084E+03  0.00000000000E+00 0.  1.
         21    1    1    2  505  503  0.27373566278E+02  0.18010820621E+03 -0.19915257285E+03  0.26990743848E+03  0.00000000000E+00 0. -1.
         21    1    1    2  506  505  0.10203926871E+03 -0.11646199576E+03  0.13244988933E+02  0.15540540063E+03  0.00000000000E+00 0.  1.
<scales pt_clust_3="33.42941" pt_clust_4="152.22431" pt_clust_5="149.68591" pt_clust_6="14000.00000"></scales>
<clustering>
<clus scale="   33.429">  2  3  1 -1</clus>
<clus scale="  152.224">  2  4  1 -1</clus>
<clus scale="  149.686">  2  5  1 -1</clus>
<clus scale="  149.686">  1  3  2 -1</clus>
</clustering>
</event>
<event>
 6    0  0.3446372E+002  0.8437575E+02  0.7546771E-02  0.1317073E+00
         21   -1    0    0  504  501  0.00000000000E+00  0.00000000000E+00  0.44474998352E+02  0.44474998352E+02  0.00000000000E+00 0.  1.
         21   -1    0    0  506  502 -0.00000000000E+00 -0.00000000000E+00 -0.49883939399E+03  0.49883939399E+03  0.00000000000E+00 0.  1.
         21    1    1    2  503  505 -0.60984064511E+01  0.44797215038E+02 -0.39461689826E+02  0.60010049162E+02  0.00000000000E+00 0.  1.
         21    1    1    2  504  503  0.26134882792E+02  0.16139086374E+02 -0.45288230785E+01  0.31048549822E+02  0.00000000000E+00 0.  1.
         21    1    1    2  505  502 -0.48572558508E+02  0.52904934755E+02 -0.17748817917E+03  0.19146874237E+03  0.00000000000E+00 0.  1.
         21    1    1    2  506  501  0.28536082167E+02 -0.11384123617E+03 -0.23288570356E+03  0.26078705099E+03  0.00000000000E+00 0.  1.
<scales pt_clust_3="50.17176" pt_clust_4="30.71648" pt_clust_5="14000.00000" pt_clust_6="84.37575"></scales>
<clustering>
<clus scale="   30.716">  1  4  2 -1</clus>
<clus scale="   50.172">  1  3  2 -1</clus>
<clus scale="   84.376">  1  6  2 -1</clus>
<clus scale="   30.716">  1  3  2 -1</clus>
</clustering>
</event>
<event>
 6    0  0.3446372E+002  0.1557436E+03  0.7546771E-02  0.1193588E+00
         21   -1    0    0  503  501  0.00000000000E+00  0.00000000000E+00  0.17216351362E+04  0.17216351362E+04  0.00000000000E+00 0. -1.
         21   -1    0    0  505  502 -0.00000000000E+00 -0.00000000000E+00 -0.83369739491E+03  0.83369739491E+03  0.00000000000E+00 0.  1.
         21    1    1    2  503  502 -0.37265222265E+02 -0.90979905129E+02  0.15173161751E+04  0.15204980813E+04  0.00000000000E+00 0. -1.
         21    1    1    2  504  506  0.11559250722E+03  0.35099550024E+02 -0.15710710373E+03  0.19818236092E+03  0.00000000000E+00 0. -1.
         21    1    1    2  505  504  0.10573573640E+02  0.64778169082E+02 -0.64173267022E+03  0.64508048465E+03  0.00000000000E+00 0.  1.
         21    1    1    2  506  501 -0.88900858599E+02 -0.88978139764E+01  0.16946134008E+03  0.19157160419E+03  0.00000000000E+00 0.  1.
<scales pt_clust_3="14000.00000" pt_clust_4="155.74361" pt_clust_5="65.63545" pt_clust_6="88.43575"></scales>
<clustering>
<clus scale="   65.635">  2  5  1 -1</clus>
<clus scale="   88.436">  1  6  2 -1</clus>
<clus scale="  155.744">  2  4  1 -1</clus>
<clus scale="   88.436">  1  3  2 -1</clus>
</clustering>
</event>
<event>
 6    0  0.3446372E+002  0.2176109E+03  0.7546771E-02  0.1135677E+00
         21   -1    0    0  505  501  0.00000000000E+00  0.00000000000E+00  0.13015568686E+04  0.13015568686E+04  0.00000000000E+00 0. -1.
         21   -1    0    0  503  502 -0.00000000000E+00 -0.00000000000E+00 -0.16892617943E+03  0.16892617943E+03  0.00000000000E+00 0. -1.
         21    1    1    2  503  506  0.35445713984E+01  0.67505931912E+02 -0.12113798689E+01  0.67609779403E+02  0.00000000000E+00 0. -1.
         21    1    1    2  504  501  0.25619818635E+02  0.16342103763E+02  0.10250533241E+04  0.10255036600E+04  0.00000000000E+00 0. -1.
         21    1    1    2  505  502 -0.54196921331E+02 -0.21722363311E+03  0.49556950028E+02  0.22930177575E+03  0.00000000000E+00 0. -1.
         21    1    1    2  506  504  0.25032531297E+02  0.13337559744E+03  0.59231794986E+02  0.14806783294E+03  0.00000000000E+00 0. -1.
<scales pt_clust_3="31.00734" pt_clust_4="30.38815" pt_clust_5="213.01191" pt_clust_6="31.00734"></scales>
<clustering>
<clus scale="   30.388">  1  4  2 -1</clus>
<clus scale="   31.007">  3  6 -1 -1</clus>
<clus scale="  213.012">  1  5  2 -1</clus>
<clus scale="   30.388">  1  3  2 -1</clus>
</clustering>
</event>
<event>
 6    0  0.3446372E+002  0.1712124E+03  0.7546771E-02  0.1176589E+00
         21   -1    0    0  503  501  0.00000000000E+00  0.00000000000E+00  0.65187957398E+03  0.65187957398E+03  0.00000000000E+00 0.  1.
         21   -1    0    0  505  502 -0.00000000000E+00 -0.00000000000E+00 -0.23287733027E+03  0.23287733027E+03  0.00000000000E+00 0.  1.
         21    1    1    2  503  504 -0.11406702346E+03  0.13461434864E+03  0.98937934043E+02  0.20228945473E+03  0.00000000000E+00 0.  1.
         21    1    1    2  504  502  0.69127630691E+02 -0.19214683221E+02 -0.79679476609E+02  0.10722244340E+03  0.00000000000E+00 0.  1.
         21    1    1    2  505  506  0.79141727491E+02 -0.12798510871E+03 -0.21870138257E+02  0.15205888343E+03  0.00000000000E+00 0.  1.
         21    1    1    2  506  501 -0.34202334720E+02  0.12585443292E+02  0.42161392453E+03  0.42318612269E+03  0.00000000000E+00 0.  1.
<scales pt_clust_3="171.21237" pt_clust_4="69.56879" pt_clust_5="14000.00000" pt_clust_6="36.44438"></scales>
<clustering>
<clus scale="   36.444">  1  6  2 -1</clus>
<clus scale="   69.569">  2  4  1 -1</clus>
<clus scale="  171.212">  1  3  2 -1</clus>
<clus scale="   36.444">  1  3  2 -1</clus>
</clustering>
</event>
<event>
 6    0  0.3446372E+002  0.1256681E+03  0.7546771E-02  0.1234029E+00
         21   -1    0    0  504  501  0.00000000000E+00  0.00000000000E+00  0.82353643641E+02  0.82353643641E+02  0.00000000000E+00 0. -1.
         21   -1    0    0  506  502 -0.00000000000E+00 -0.00000000000E+00 -0.58738534588E+03  0.58738534588E+03  0.00000000000E+00 0. -1.
         21    1    1    2  503  505 -0.92695934197E+02 -0.47002627517E+02 -0.20888109523E+03  0.23330901216E+03  0.00000000000E+00 0. -1.
         21    1    1    2  504  503  0.10817252219E+03  0.14563139056E+03 -0.11306921636E+03  0.21376258831E+03  0.00000000000E+00 0. -1.
         21    1    1    2  505  502  0.70015369888E+01 -0.37262782448E+02 -0.13840132352E+03  0.14350074156E+03  0.00000000000E+00 0.  1.
         21    1    1    2  506  501 -0.22478124982E+02 -0.61365980593E+02 -0.44680067133E+02  0.79166647497E+02  0.00000000000E+00 0. -1.
<scales pt_clust_3="125.66809" pt_clust_4="14000.00000" pt_clust_5="37.91486" pt_clust_6="69.92424"></scales>
<clustering>
<clus scale="   37.915">  2  5  1 -1</clus>
<clus scale="   69.924">  1  6  2 -1</clus>
<clus scale="  125.668">  2  3  1 -1</clus>
<clus scale="   69.924">  1  3  2 -1</clus>
</clustering>
</event>
<event>
 6    0  0.3446372E+002  0.1000278E+03  0.7546771E-02  0.1280238E+00
         21   -1    0    0  505  501  0.00000000000E+00  0.00000000000E+00  0.15514057883E+03  0.15514057883E+03  0.00000000000E+00 0.  1.
         21   -1    0    0  503  502 -0.00000000000E+00 -0.00000000000E+00 -0.18720492150E+04  0.18720492150E+04  0.00000000000E+00 0.  1.
         21    1    1    2  503  504 -0.19993678448E+02  0.33460895320E+02 -0.13693607379E+03  0.14237579499E+03  0.00000000000E+00 0. -1.
         21    1    1    2  504  501 -0.50592999934E+02 -0.89185110696E+02 -0.54022235687E+02  0.11589666760E+03  0.00000000000E+00 0.  1.
         21    1    1    2  505  506 -0.29840754233E+02  0.28027218061E+02  0.11633655423E+03  0.12332959668E+03  0.00000000000E+00 0.  1.
         21    1    1    2  506  502  0.10042743261E+03  0.27696997315E+02 -0.16422868809E+04  0.16455877345E+04  0.00000000000E+00 0.  1.
<scales pt_clust_3="38.97921" pt_clust_4="100.02779" pt_clust_5="41.01458" pt_clust_6="14000.00000"></scales>
<clustering>
<clus scale="   38.979">  2  3  1 -1</clus>
<clus scale="   41.015">  1  5  2 -1</clus>
<clus scale="  100.028">  1  4  2 -1</clus>
<clus scale="   41.015">  1  3  2 -1</clus>
</clustering>
</event>
<event>
 6    0  0.3446372E+002  0.1467440E+03  0.7546771E-02  0.1204532E+00
         21   -1    0    0  504  501  0.00000000000E+00  0.00000000000E+00  0.74879258574E+03  0.74879258574E+03  0.00000000000E+00 0. -1.
         21   -1    0    0  503  502 -0.00000000000E+00 -0.00000000000E+00 -0.11331360127E+03  0.11331360127E+03  0.00000000000E+00 0. -1.
         21    1    1    2  503  505 -0.30957842390E+02 -0.17102663633E+03 -0.67737115894E+01  0.17393786680E+03  0.00000000000E+00 0. -1.
         21    1    1    2  504  506  0.42736928932E+02  0.14604749969E+01  0.24970765504E+03  0.25334263571E+03  0.00000000000E+00 0. -1.
         21    1    1    2  505  501 -0.20387069502E+02  0.14064545189E+03  0.37226432354E+03  0.39846894775E+03  0.00000000000E+00 0. -1.
         21    1    1    2  506  502  0.86079829603E+01  0.28920709443E+02  0.20280717479E+02  0.36356736746E+02  0.00000000000E+00 0. -1.
<scales pt_clust_3="14000.00000" pt_clust_4="42.93029" pt_clust_5="146.74400" pt_clust_6="30.17457"></scales>
<clustering>
<clus scale="   30.175">  2  6  1 -1</clus>
<clus scale="   42.930">  1  4  2 -1</clus>
<clus scale="  146.744">  1  5  2 -1</clus>
<clus scale="   42.930">  1  3  2 -1</clus>
</clustering>
</event>
<event>
 6    0  0.3446372E+002  0.8820869E+02  0.7546771E-02  0.1307249E+00
         21   -1    0    0  503  501  0.00000000000E+00  0.00000000000E+00  0.53743372322E+03  0.53743372322E+03  0.00000000000E+00 0. -1.
         21   -1    0    0  506  502 -0.00000000000E+00 -0.00000000000E+00 -0.79075559762E+03  0.79075559762E+03  0.00000000000E+00 0. -1.
         21    1    1    2  503  502 -0.21108962715E+02 -0.41185031697E+02  0.35624459421E+03  0.35923809103E+03  0.00000000000E+00 0. -1.
         21    1    1    2  504  505  0.28561470448E+02 -0.38182953521E+02 -0.17595166553E+03  0.18229833827E+03  0.00000000000E+00 0. -1.
         21    1    1    2  505  501 -0.38538678540E+02  0.11041355379E+03  0.15624248926E+03  0.19516172282E+03  0.00000000000E+00 0. -1.
         21    1    1    2  506  504  0.31086170807E+02 -0.31045568569E+02 -0.58985729234E+03  0.59149116872E+03  0.00000000000E+00 0. -1.
<scales pt_clust_3="46.38120" pt_clust_4="88.20869" pt_clust_5="14000.00000" pt_clust_6="43.93378"></scales>
<clustering>
<clus scale="   43.934">  2  6  1 -1</clus>
<clus scale="   46.381">  1  3  2 -1</clus>
<clus scale="   88.209">  2  4  1 -1</clus>
<clus scale="   46.381">  1  3  2 -1</clus>
</clustering>
</event>
<event>
 6    0  0.3446372E+002  0.1678482E+03  0.7546771E-02  0.1180111E+00
         21   -1    0    0  504  501  0.00000000000E+00  0.00000000000E+00  0.43213795446E+02  0.43213795446E+02  0.00000000000E+00 0.  1.
         21   -1    0    0  506  502 -0.00000000000E+00 -0.00000000000E+00 -0.15300075615E+04  0.15300075615E+04  0.00000000000E+00 0.  1.
         21    1    1    2  503  501  0.28280662604E+02 -0.63359721879E+02 -0.17045047901E+03  0.18403156259E+03  0.00000000000E+00 0. -1.
         21    1    1    2  504  505  0.15726933440E+03 -0.39938908689E+02 -0.75945889365E+03  0.77659936332E+03  0.00000000000E+00 0.  1.
         21    1    1    2  505  502 -0.22661460139E+02 -0.27955290875E+02 -0.15949068300E+03  0.16350020803E+03  0.00000000000E+00 0. -1.
         21    1    1    2  506  503 -0.16288853687E+03  0.13125392144E+03 -0.39739371044E+03  0.44909022304E+03  0.00000000000E+00 0.  1.
<scales pt_clust_3="71.61541" pt_clust_4="167.84816" pt_clust_5="35.98667" pt_clust_6="14000.00000"></scales>
<clustering>
<clus scale="   35.987">  2  5  1 -1</clus>
<clus scale="   71.615">  1  3  2 -1</clus>
<clus scale="  167.848">  2  4  1 -1</clus>
<clus scale="   71.615">  1  3  2 -1</clus>
</clustering>
</event>
<event>
 6    0  0.3446372E+002  0.1068012E+03  0.7546771E-02  0.1266611E+00
         21   -1    0    0  505  501  0.00000000000E+00  0.00000000000E+00  0.23805275936E+03  0.23805275936E+03  0.00000000000E+00 0.  1.
         21   -1    0    0  506  502 -0.00000000000E+00 -0.00000000000E+00 -0.25712774910E+03  0.25712774910E+03  0.00000000000E+00 0.  1.
         21    1    1    2  503  502  0.18849014988E+02 -0.10160551112E+03 -0.15932192463E+03  0.18990113460E+03  0.00000000000E+00 0.  1.
         21    1    1    2  504  501  0.55775559498E+02 -0.43105590412E+02  0.21210482483E+01  0.70523072875E+02  0.00000000000E+00 0.  1.
         21    1    1    2  505  503 -0.51947247033E+02  0.96437131883E+01  0.40256309112E+02  0.66423550806E+02  0.00000000000E+00 0. -1.
         21    1    1    2  506  504 -0.22677327453E+02  0.13506738834E+03  0.97869577533E+02  0.16833275017E+03  0.00000000000E+00 0.  1.
<scales pt_clust_3="106.80124" pt_clust_4="61.43266" pt_clust_5="52.83482" pt_clust_6="14000.00000"></scales>
<clustering>
<clus scale="   52.835">  1  5  2 -1</clus>
<clus scale="   61.433">  1  4  2 -1</clus>
<clus scale="  106.801">  2  3  1 -1</clus>
<clus scale="   52.835">  1  3  2 -1</clus>
</clustering>
</event>
<event>
 6    0  0.3446372E+002  0.1047820E+03  0.7546771E-02  0.1270550E+00
         21   -1    0    0  505  501  0.00000000000E+00  0.00000000000E+00  0.31814244389E+03  0.31814244389E+03  0.00000000000E+00 0. -1.
         21   -1    0    0  506  502 -0.00000000000E+00 -0.00000000000E+00 -0.12702276126E+04  0.12702276126E+04  0.00000000000E+00 0.  1.
         21    1    1    2  503  502  0.18968831401E+02 -0.28236366407E+02 -0.93129012164E+03  0.93191115436E+03  0.00000000000E+00 0.  1.
         21    1    1    2  504  503  0.23115939268E+02  0.52841594654E+02 -0.37979668510E+01  0.57801430139E+02  0.00000000000E+00 0.  1.
         21    1    1    2  505  504 -0.93040797675E+02 -0.51484920358E+02  0.27823210757E+03  0.29785968633E+03  0.00000000000E+00 0. -1.
         21    1    1    2  506  501  0.50956027006E+02  0.26879692111E+02 -0.29522918779E+03  0.30079778566E+03  0.00000000000E+00 0.  1.
<scales pt_clust_3="34.01630" pt_clust_4="56.07583" pt_clust_5="14000.00000" pt_clust_6="104.78198"></scales>
<clustering>
<clus scale="   34.016">  2  3  1 -1</clus>
<clus scale="   56.076">  2  4  1 -1</clus>
<clus scale="  104.782">  2  6  1 -1</clus>
<clus scale="  104.782">  1  3  2 -1</clus>
</clustering>
</event>
<event>
 6    0  0.3446372E+002  0.8544077E+02  0.7546771E-02  0.1314284E+00
         21   -1    0    0  504  501  0.00000000000E+00  0.00000000000E+00  0.24912770879E+04  0.24912770879E+04  0.00000000000E+00 0. -1.
         21   -1    0    0  503  502 -0.00000000000E+00 -0.00000000000E+00 -0.14711319560E+02  0.14711319560E+02  0.00000000000E+00 0. -1.
         21    1    1    2  503  501 -0.17328451640E+02  0.25117593506E+02  0.59498495461E+02  0.66867329107E+02  0.00000000000E+00 0. -1.
         21    1    1    2  504  506  0.35736507212E+02 -0.78399844665E+02  0.14084421248E+04  0.14110750698E+04  0.00000000000E+00 0. -1.
         21    1    1    2  505  502 -0.53643973470E+02 -0.44806485556E+02  0.18343869520E+03  0.19630346898E+03  0.00000000000E+00 0. -1.
         21    1    1    2  506  505  0.35235917899E+02  0.98088736714E+02  0.82518645288E+03  0.83174253961E+03  0.00000000000E+00 0. -1.
<scales pt_clust_3="30.51506" pt_clust_4="85.44077" pt_clust_5="70.52409" pt_clust_6="14000.00000"></scales>
<clustering>
<clus scale="   30.515">  2  3  1 -1</clus>
<clus scale="   70.524">  2  5  1 -1</clus>
<clus scale="   85.441">  1  4  2 -1</clus>
<clus scale="   85.441">  1  3  2 -1</clus>
</clustering>
</event>
<event>
 6    0  0.3446372E+002  0.1432313E+03  0.7546771E-02  0.1209046E+00
         21   -1    0    0  505  501  0.00000000000E+00  0.00000000000E+00  0.32400857549E+03  0.32400857549E+03  0.00000000000E+00 0.  1.
         21   -1    0    0  503  502 -0.00000000000E+00 -0.00000000000E+00 -0.30422172110E+03  0.30422172110E+03  0.00000000000E+00 0. -1.
         21    1    1    2  503  501 -0.64574020791E+02  0.89432287282E+02 -0.20585953149E+03  0.23355103270E+03  0.00000000000E+00 0. -1.
         21    1    1    2  504  502  0.31492496062E+02  0.63955990319E+02 -0.32727293060E+02  0.78442473934E+02  0.00000000000E+00 0.  1.
         21    1    1    2  505  506  0.29890269961E+02 -0.23841919713E+02  0.12313753874E+03  0.12893687922E+03  0.00000000000E+00 0.  1.
         21    1    1    2  506  504  0.31912547688E+01 -0.12954635789E+03  0.13523614019E+03  0.18729991074E+03  0.00000000000E+00 0.  1.
<scales pt_clust_3="14000.00000" pt_clust_4="70.47616" pt_clust_5="38.23435" pt_clust_6="143.23132"></scales>
<clustering>
<clus scale="   38.234">  1  5  2 -1</clus>
<clus scale="   70.476">  2  4  1 -1</clus>
<clus scale="  143.231">  1  6  2 -1</clus>
<clus scale="   38.234">  1  3  2 -1</clus>
</clustering>
</event>
<event>
 6    0  0.3446372E+002  0.1903786E+03  0.7546771E-02  0.1158120E+00
         21   -1    0    0  504  501  0.00000000000E+00  0.00000000000E+00  0.34606007743E+03  0.34606007743E+03  0.00000000000E+00 0. -1.
         21   -1    0    0  503  502 -0.00000000000E+00 -0.00000000000E+00 -0.19412619066E+04  0.19412619066E+04  0.00000000000E+00 0.  1.
         21    1    1    2  503  501 -0.14683843642E+03  0.98228771606E+02  0.28517893933E+03  0.33546601232E+03  0.00000000000E+00 0. -1.
         21    1    1    2  504  505  0.16350122297E+03  0.84214934234E+02 -0.25722432091E+03  0.31621062020E+03  0.00000000000E+00 0. -1.
         21    1    1    2  505  506  0.31046534016E+02 -0.65705169871E+02 -0.46520867919E+03  0.47085047714E+03  0.00000000000E+00 0.  1.
         21    1    1    2  506  502 -0.47709320560E+02 -0.11673853597E+03 -0.11579477684E+04  0.11647948744E+04  0.00000000000E+00 0.  1.
<scales pt_clust_3="176.66470" pt_clust_4="170.61214" pt_clust_5="64.12327" pt_clust_6="64.12327"></scales>
<clustering>
<clus scale="   64.123">  5  6 -1 -1</clus>
<clus scale="  176.665">  1  3  2 -1</clus>
<clus scale="  170.612">  1  4  2 -1</clus>
<clus scale="  176.665">  1  3  2 -1</clus>
</clustering>
</event>
<event>
 6    0  0.3446372E+002  0.7369681E+02  0.7546771E-02  0.1347955E+00
         21   -1    0    0  504  501  0.00000000000E+00  0.00000000000E+00  0.26752625661E+03  0.26752625661E+03  0.00000000000E+00 0. -1.
         21   -1    0    0  503  502 -0.00000000000E+00 -0.00000000000E+00 -0.48220620200E+03  0.48220620200E+03  0.00000000000E+00 0.  1.
         21    1    1    2  503  506 -0.24329091701E+02 -0.19196138680E+02 -0.17233858931E+03  0.17510278641E+03  0.00000000000E+00 0.  1.
         21    1    1    2  504  505  0.70437131951E+02 -0.28523277118E+02  0.15416875982E+03  0.17188069525E+03  0.00000000000E+00 0. -1.
         21    1    1    2  505  502 -0.79739266307E+02 -0.38899392649E+02  0.74751584577E+02  0.11601427816E+03  0.00000000000E+00 0. -1.
         21    1    1    2  506  501  0.33631226056E+02  0.86618808447E+02 -0.27126170047E+03  0.28673469878E+03  0.00000000000E+00 0.  1.
<scales pt_clust_3="30.99026" pt_clust_4="14000.00000" pt_clust_5="73.69681" pt_clust_6="70.22688"></scales>
<clustering>
<clus scale="   30.990">  2  3  1 -1</clus>
<clus scale="   70.227">  2  6  1 -1</clus>
<clus scale="   73.697">  2  5  1 -1</clus>
<clus scale="   73.697">  1  3  2 -1</clus>
</clustering>
</event>
<event>
 6    0  0.3446372E+002  0.2046293E+03  0.7546771E-02  0.1145891E+00
         21   -1    0    0  504  501  0.00000000000E+00  0.00000000000E+00  0.45526763811E+03  0.45526763811E+03  0.00000000000E+00 0.  1.
         21   -1    0    0  503  502 -0.00000000000E+00 -0.00000000000E+00 -0.97349911446E+03  0.97349911446E+03  0.00000000000E+00 0. -1.
         21    1    1    2  503  506 -0.16432220458E+03 -0.66959778143E+02 -0.32173428327E+03  0.36742121311E+03  0.00000000000E+00 0. -1.
         21    1    1    2  504  505  0.46776404084E+02  0.46901784517E+02 -0.16016553663E+03  0.17332284469E+03  0.00000000000E+00 0.  1.
         21    1    1    2  505  502  0.14757958951E+03  0.73275281061E+01 -0.44970809857E+03  0.47336117482E+03  0.00000000000E+00 0. -1.
         21    1    1    2  506  501 -0.30033789008E+02  0.12730465520E+02  0.41337644212E+03  0.41466151995E+03  0.00000000000E+00 0.  1.
<scales pt_clust_3="190.61437" pt_clust_4="50.61676" pt_clust_5="50.61676" pt_clust_6="32.62044"></scales>
<clustering>
<clus scale="   32.620">  1  6  2 -1</clus>
<clus scale="   50.617">  4  5 -1 -1</clus>
<clus scale="  190.614">  1  3  2 -1</clus>
<clus scale="   32.620">  1  3  2 -1</clus>
</clustering>
</event>
<event>
 6    0  0.3446372E+002  0.9527246E+02  0.7546771E-02  0.1290564E+00
         21   -1    0    0  503  501  0.00000000000E+00  0.00000000000E+00  0.14277862370E+03  0.14277862370E+03  0.00000000000E+00 0.  1.
         21   -1    0    0  506  502 -0.00000000000E+00 -0.00000000000E+00 -0.98435160124E+03  0.98435160124E+03  0.00000000000E+00 0. -1.
         21    1    1    2  503  504  0.44592602128E+02 -0.89777600911E+01 -0.96738331101E+01  0.46504659851E+02  0.00000000000E+00 0.  1.
         21    1    1    2  504  505  0.19419305316E+02 -0.11510227636E+03 -0.12114235419E+03  0.16822934768E+03  0.00000000000E+00 0.  1.
         21    1    1    2  505  502 -0.46986712002E+02  0.80896048747E+02 -0.80337136153E+03  0.80880001628E+03  0.00000000000E+00 0. -1.
         21    1    1    2  506  501 -0.17025195442E+02  0.43183987705E+02  0.92614571290E+02  0.10359620113E+03  0.00000000000E+00 0.  1.
<scales pt_clust_3="45.48736" pt_clust_4="95.27246" pt_clust_5="14000.00000" pt_clust_6="40.40842"></scales>
<clustering>
<clus scale="   45.487">  1  3  2 -1</clus>
<clus scale="   40.408">  1  6  2 -1</clus>
<clus scale="   95.272">  1  4  2 -1</clus>
<clus scale="   45.487">  1  3  2 -1</clus>
</clustering>
</event>
<event>
 6    0  0.3446372E+002  0.1108481E+03  0.7546771E-02  0.1259007E+00
         21   -1    0    0  504  501  0.00000000000E+00  0.00000000000E+00  0.75058579254E+03  0.75058579254E+03  0.00000000000E+00 0. -1.
         21   -1    0    0  505  502 -0.00000000000E+00 -0.00000000000E+00 -0.58744993034E+03  0.58744993034E+03  0.00000000000E+00 0. -1.
         21    1    1    2  503  501  0.51718395198E+02 -0.93052427390E+02  0.31774572910E+03  0.33510579673E+03  0.00000000000E+00 0. -1.
         21    1    1    2  504  502 -0.10179744832E+03 -0.92515313229E+01  0.41051815887E+03  0.42305256184E+03  0.00000000000E+00 0. -1.
         21    1    1    2  505  506  0.38338499306E+02  0.24064374390E+02 -0.13101827490E+03  0.13861718148E+03  0.00000000000E+00 0.  1.
         21    1    1    2  506  503  0.11740553815E+02  0.78239584322E+02 -0.43410975086E+03  0.44126018283E+03  0.00000000000E+00 0. -1.
<scales pt_clust_3="110.84807" pt_clust_4="101.65856" pt_clust_5="45.26516" pt_clust_6="14000.00000"></scales>
<clustering>
<clus scale="   45.265">  2  5  1 -1</clus>
<clus scale="  101.659">  1  4  2 -1</clus>
<clus scale="  110.848">  1  3  2 -1</clus>
<clus scale="  101.659">  1  3  2 -1</clus>
</clustering>
</event>
<event>
 6    0  0.3446372E+002  0.8304938E+02  0.7546771E-02  0.1320614E+00
         21   -1    0    0  504  501  0.00000000000E+00  0.00000000000E+00  0.10870860574E+04  0.10870860574E+04  0.00000000000E+00 0.  1.
         21   -1    0    0  505  502 -0.00000000000E+00 -0.00000000000E+00 -0.26103025468E+03  0.26103025468E+03  0.00000000000E+00 0. -1.
         21    1    1    2  503  501  0.20432210884E+02 -0.46950050131E+02  0.77557364421E+03  0.77726202792E+03  0.00000000000E+00 0.  1.
         21    1    1    2  504  506 -0.64619302362E+02  0.11928256165E+02  0.27625514820E+03  0.28396275186E+03  0.00000000000E+00 0. -1.
         21    1    1    2  505  503  0.10616028428E+03  0.13745792232E+01 -0.14408869914E+03  0.17897890559E+03  0.00000000000E+00 0. -1.
         21    1    1    2  506  502 -0.61973192800E+02  0.33647214743E+02 -0.81684290548E+02  0.10791262673E+03  0.00000000000E+00 0. -1.
<scales pt_clust_3="51.20334" pt_clust_4="55.30397" pt_clust_5="83.04938" pt_clust_6="14000.00000"></scales>
<clustering>
<clus scale="   51.203">  1  3  2 -1</clus>
<clus scale="   55.304">  1  4  2 -1</clus>
<clus scale="   83.049">  1  5  2 -1</clus>
<clus scale="   51.203">  1  3  2 -1</clus>
</clustering>
</event>
<event>
 6    0  0.3446372E+002  0.1462109E+03  0.7546771E-02  0.1205208E+00
         21   -1    0    0  505  501  0.00000000000E+00  0.00000000000E+00  0.60137569272E+03  0.60137569272E+03  0.00000000000E+00 0. -1.
         21   -1    0    0  503  502 -0.00000000000E+00 -0.00000000000E+00 -0.36025351665E+03  0.36025351665E+03  0.00000000000E+00 0.  1.
         21    1    1    2  503  504  0.14797822869E+03  0.35744678888E+02  0.31572117877E+03  0.35050691999E+03  0.00000000000E+00 0. -1.
         21    1    1    2  504  501 -0.28501749417E+02  0.33845078984E+02  0.25071991824E+03  0.25459441568E+03  0.00000000000E+00 0. -1.
         21    1    1    2  505  506 -0.47257032620E+02 -0.93337654201E+01 -0.75157282654E+02  0.89269050879E+02  0.00000000000E+00 0.  1.
         21    1    1    2  506  502 -0.72219446649E+02 -0.60255992451E+02 -0.25016163830E+03  0.26725882282E+03  0.00000000000E+00 0.  1.
<scales pt_clust_3="138.61911" pt_clust_4="44.24748" pt_clust_5="33.27823" pt_clust_6="33.27823"></scales>
<clustering>
<clus scale="   33.278">  5  6 -1 -1</clus>
<clus scale="   44.247">  1  4  2 -1</clus>
<clus scale="  138.619">  1  3  2 -1</clus>
<clus scale="   44.247">  1  3  2 -1</clus>
</clustering>
</event>
<event>
 6    0  0.3446372E+002  0.8399938E+02  0.7546771E-02  0.1318070E+00
         21   -1    0    0  506  501  0.00000000000E+00  0.00000000000E+00  0.16258269344E+04  0.16258269344E+04  0.00000000000E+00 0. -1.
         21   -1    0    0  505  502 -0.00000000000E+00 -0.00000000000E+00 -0.33027444994E+02  0.33027444994E+02  0.00000000000E+00 0.  1.
         21    1    1    2  503  504  0.72315218536E+02  0.10962680725E+01  0.39233570441E+03  0.39894610863E+03  0.00000000000E+00 0. -1.
         21    1    1    2  504  501  0.22502573076E+02  0.53579158202E+02  0.10143242168E+04  0.10159875534E+04  0.00000000000E+00 0. -1.
         21    1    1    2  505  503 -0.32992581649E+02 -0.77895642535E+02  0.67845822454E+02  0.10844029322E+03  0.00000000000E+00 0.  1.
         21    1    1    2  506  502 -0.61825209963E+02  0.23220216261E+02  0.11829374579E+03  0.13548042413E+03  0.00000000000E+00 0.  1.
<scales pt_clust_3="14000.00000" pt_clust_4="58.11275" pt_clust_5="83.99938" pt_clust_6="66.67986"></scales>
<clustering>
<clus scale="   58.113">  1  4  2 -1</clus>
<clus scale="   66.680">  2  6  1 -1</clus>
<clus scale="   83.999">  2  5  1 -1</clus>
<clus scale="   58.113">  1  3  2 -1</clus>
</clustering>
</event>
<event>
 6    0  0.3446372E+002  0.1202258E+03  0.7546771E-02  0.1242725E+00
         21   -1    0    0  505  501  0.00000000000E+00  0.00000000000E+00  0.19888454343E+04  0.19888454343E+04  0.00000000000E+00 0.  1.
         21   -1    0    0  506  502 -0.00000000000E+00 -0.00000000000E+00 -0.25814911458E+02  0.25814911458E+02  0.00000000000E+00 0.  1.
         21    1    1    2  503  504 -0.18795320056E+02  0.64730731313E+02  0.11418383371E+03  0.13259441735E+03  0.00000000000E+00 0.  1.
         21    1    1    2  504  502  0.45027729122E+01  0.47441328065E+02  0.34831663194E+02  0.59027106767E+02  0.00000000000E+00 0.  1.
         21    1    1    2  505  503  0.68897064390E+02 -0.10129824705E+03  0.13891024080E+04  0.13944940445E+04  0.00000000000E+00 0.  1.
         21    1    1    2  506  501 -0.54604517246E+02 -0.10873812330E+02  0.42491261793E+03  0.42854477709E+03  0.00000000000E+00 0.  1.
<scales pt_clust_3="34.93590" pt_clust_4="34.93590" pt_clust_5="112.81801" pt_clust_6="55.67668"></scales>
<clustering>
<clus scale="   34.936">  3  4 -1 -1</clus>
<clus scale="   55.677">  1  6  2 -1</clus>
<clus scale="  112.818">  1  5  2 -1</clus>
<clus scale="   55.677">  1  3  2 -1</clus>
</clustering>
</event>
<event>
 6    0  0.3446372E+002  0.8163774E+02  0.7546771E-02  0.1324467E+00
         21   -1    0    0  506  501  0.00000000000E+00  0.00000000000E+00  0.59968421653E+02  0.59968421653E+02  0.00000000000E+00 0. -1.
         21   -1    0    0  505  502 -0.00000000000E+00 -0.00000000000E+00 -0.13811069819E+04  0.13811069819E+04  0.00000000000E+00 0. -1.
         21    1    1    2  503  501  0.23628318115E+02  0.11048259540E+03 -0.28073464277E+02  0.11641658258E+03  0.00000000000E+00 0. -1.
         21    1    1    2  504  502 -0.97621995195E+01 -0.51970914994E+02 -0.40923758987E+03  0.41263989326E+03  0.00000000000E+00 0. -1.
         21    1    1    2  505  503 -0.43383996801E+02 -0.18327193520E+02 -0.85104371762E+03  0.85234586085E+03  0.00000000000E+00 0. -1.
         21    1    1    2  506  504  0.29517878205E+02 -0.40184486885E+02 -0.32783788430E+02  0.59673066820E+02  0.00000000000E+00 0.  1.
<scales pt_clust_3="14000.00000" pt_clust_4="81.63774" pt_clust_5="47.09625" pt_clust_6="49.07120"></scales>
<clustering>
<clus scale="   47.096">  2  5  1 -1</clus>
<clus scale="   49.071">  1  6  2 -1</clus>
<clus scale="   81.638">  2  4  1 -1</clus>
<clus scale="   49.071">  1  3  2 -1</clus>
</clustering>
</event>
<event>
 6    0  0.3446372E+002  0.1484853E+03  0.7546771E-02  0.1202347E+00
         21   -1    0    0  505  501  0.00000000000E+00  0.00000000000E+00  0.20840039719E+03  0.20840039719E+03  0.00000000000E+00 0. -1.
         21   -1    0    0  503  502 -0.00000000000E+00 -0.00000000000E+00 -0.79777354735E+03  0.79777354735E+03  0.00000000000E+00 0.  1.
         21    1    1    2  503  504 -0.47537961551E+02 -0.44718749782E+01 -0.56926747646E+03  0.57126641351E+03  0.00000000000E+00 0.  1.
         21    1    1    2  504  501 -0.70575757769E+02  0.95225496728E+02  0.23536664873E+01  0.11855113900E+03  0.00000000000E+00 0.  1.
         21    1    1    2  505  506  0.12631215375E+03 -0.12458867407E+03  0.89780874784E+02  0.19884089964E+03  0.00000000000E+00 0. -1.
         21    1    1    2  506  502 -0.81984344289E+01  0.33835052323E+02 -0.11224021498E+03  0.11751549239E+03  0.00000000000E+00 0.  1.
<scales pt_clust_3="59.35713" pt_clust_4="148.48532" pt_clust_5="14000.00000" pt_clust_6="34.81415"></scales>
<clustering>
<clus scale="   34.814">  2  6  1 -1</clus>
<clus scale="   59.357">  2  3  1 -1</clus>
<clus scale="  148.485">  2  4  1 -1</clus>
<clus scale="  148.485">  1  3  2 -1</clus>
</clustering>
</event>
<event>
 6    0  0.3446372E+002  0.6360894E+02  0.7546771E-02  0.1383282E+00
         21   -1    0    0  506  501  0.00000000000E+00  0.00000000000E+00  0.20406208545E+02  0.20406208545E+02  0.00000000000E+00 0. -1.
         21   -1    0    0  503  502 -0.00000000000E+00 -0.00000000000E+00 -0.16556582088E+04  0.16556582088E+04  0.00000000000E+00 0. -1.
         21    1    1    2  503  505 -0.14161881040E+01  0.33043297004E+02 -0.44385565508E+03  0.44508617998E+03  0.00000000000E+00 0.  1.
         21    1    1    2  504  501 -0.38929715818E+02  0.71054395168E+02 -0.14455344109E+03  0.16571043171E+03  0.00000000000E+00 0. -1.
         21    1    1    2  505  504 -0.10841100614E+02 -0.79264641779E+02 -0.94684128014E+03  0.95021514547E+03  0.00000000000E+00 0. -1.
         21    1    1    2  506  502  0.51187004535E+02 -0.24833050392E+02 -0.10000162398E+03  0.11505266022E+03  0.00000000000E+00 0. -1.
<scales pt_clust_3="33.07363" pt_clust_4="14000.00000" pt_clust_5="54.70826" pt_clust_6="63.60894"></scales>
<clustering>
<clus scale="   33.074">  2  3  1 -1</clus>
<clus scale="   54.708">  2  5  1 -1</clus>
<clus scale="   63.609">  1  6  2 -1</clus>
<clus scale="   63.609">  1  3  2 -1</clus>
</clustering>
</event>
<event>
 6    0  0.3446372E+002  0.1929092E+03  0.7546771E-02  0.1155863E+00
         21   -1    0    0  505  501  0.00000000000E+00  0.00000000000E+00  0.13282314814E+03  0.13282314814E+03  0.00000000000E+00 0.  1.
         21   -1    0    0  503  502 -0.00000000000E+00 -0.00000000000E+00 -0.17572591219E+04  0.17572591219E+04  0.00000000000E+00 0.  1.
         21    1    1    2  503  506  0.16439772667E+03  0.42256171459E+02 -0.10505791671E+04  0.10642033560E+04  0.00000000000E+00 0.  1.
         21    1    1    2  504  502  0.28569840329E+02 -0.35775063724E+02 -0.18549527439E+03  0.19106173814E+03  0.00000000000E+00 0.  1.
         21    1    1    2  505  504 -0.21727794058E+03 -0.30929369009E+02 -0.48492846079E+03  0.53227994647E+03  0.00000000000E+00 0.  1.
         21    1    1    2  506  501  0.24310373584E+02  0.24448261274E+02  0.96566928500E+02  0.10253722945E+03  0.00000000000E+00 0.  1.
<scales pt_clust_3="14000.00000" pt_clust_4="45.54425" pt_clust_5="192.90924" pt_clust_6="34.47770"></scales>
<clustering>
<clus scale="   34.478">  1  6  2 -1</clus>
<clus scale="   45.544">  2  4  1 -1</clus>
<clus scale="  192.909">  1  5  2 -1</clus>
<clus scale="   34.478">  1  3  2 -1</clus>
</clustering>
</event>
<event>
 6    0  0.3446372E+002  0.2235600E+03  0.7546771E-02  0.1131256E+00
         21   -1    0    0  504  501  0.00000000000E+00  0.00000000000E+00  0.60756660242E+03  0.60756660242E+03  0.00000000000E+00 0. -1.
         21   -1    0    0  506  502 -0.00000000000E+00 -0.00000000000E+00 -0.37979799560E+03  0.37979799560E+03  0.00000000000E+00 0. -1.
         21    1    1    2  503  502  0.18483082678E+02  0.25144599891E+02 -0.12932453510E+02  0.33780521055E+02  0.00000000000E+00 0.  1.
         21    1    1    2  504  503  0.32251430663E+01  0.31294264563E+02  0.11495038969E+03  0.11917770191E+03  0.00000000000E+00 0. -1.
         21    1    1    2  505  501 -0.15651508598E+03  0.13367748439E+03  0.41482461244E+03  0.46308325500E+03  0.00000000000E+00 0. -1.
         21    1    1    2  506  505  0.13480686023E+03 -0.19011634884E+03 -0.28907394180E+03  0.37132312006E+03  0.00000000000E+00 0. -1.
<scales pt_clust_3="31.20697" pt_clust_4="31.61971" pt_clust_5="14000.00000" pt_clust_6="223.56003"></scales>
<clustering>
<clus scale="   31.207">  2  3  1 -1</clus>
<clus scale="   31.620">  1  4  2 -1</clus>
<clus scale="  223.560">  2  6  1 -1</clus>
<clus scale="   31.620">  1  3  2 -1</clus>
</clustering>
</event>
<event>
 6    0  0.3446372E+002  0.1236806E+03  0.7546771E-02  0.1237146E+00
         21   -1    0    0  504  501  0.00000000000E+00  0.00000000000E+00  0.35033628988E+02  0.35033628988E+02  0.00000000000E+00 0.  1.
         21   -1    0    0  506  502 -0.00000000000E+00 -0.00000000000E+00 -0.18422740410E+04  0.18422740410E+04  0.00000000000E+00 0.  1.
         21    1    1    2  503  502  0.71987602600E+02  0.98336030862E+02 -0.10070720534E+04  0.10144191987E+04  0.00000000000E+00 0.  1.
         21    1    1    2  504  503  0.62208466191E+02  0.35040775190E+02 -0.14379457263E+03  0.16054478599E+03  0.00000000000E+00 0.  1.
         21    1    1    2  505  501 -0.96638820508E+02 -0.14276064468E+03 -0.31765511617E+03  0.36142002729E+03  0.00000000000E+00 0.  1.
         21    1    1    2  506  505 -0.37557248283E+02  0.93838386273E+01 -0.33871866982E+03  0.34092365804E+03  0.00000000000E+00 0. -1.
<scales pt_clust_3="123.68055" pt_clust_4="68.60369" pt_clust_5="14000.00000" pt_clust_6="38.71180"></scales>
<clustering>
<clus scale="   38.712">  2  6  1 -1</clus>
<clus scale="   68.604">  1  4  2 -1</clus>
<clus scale="  123.681">  2  3  1 -1</clus>
<clus scale="   68.604">  1  3  2 -1</clus>
</clustering>
</event>
<event>
 6    0  0.3446372E+002  0.1085593E+03  0.7546771E-02  0.1263261E+00
         21   -1    0    0  503  501  0.00000000000E+00  0.00000000000E+00  0.12568617325E+04  0.12568617325E+04  0.00000000000E+00 0. -1.
         21   -1    0    0  506  502 -0.00000000000E+00 -0.00000000000E+00 -0.37503227647E+03  0.37503227647E+03  0.00000000000E+00 0. -1.
         21    1    1    2  503  504  0.96631294971E+02 -0.89977872372E+01  0.12049154746E+04  0.12088175496E+04  0.00000000000E+00 0. -1.
         21    1    1    2  504  502 -0.95876726081E+02  0.88870141910E+01 -0.24554856162E+03  0.26375257674E+03  0.00000000000E+00 0. -1.
         21    1    1    2  505  501  0.10319202633E+02  0.31848656647E+02  0.31044881750E+02  0.45657502735E+02  0.00000000000E+00 0. -1.
         21    1    1    2  506  505 -0.11073771523E+02 -0.31737883600E+02 -0.10858233862E+03  0.11366637995E+03  0.00000000000E+00 0. -1.
<scales pt_clust_3="14000.00000" pt_clust_4="108.55934" pt_clust_5="33.47869" pt_clust_6="33.54448"></scales>
<clustering>
<clus scale="   33.479">  1  5  2 -1</clus>
<clus scale="   33.544">  2  6  1 -1</clus>
<clus scale="  108.559">  2  4  1 -1</clus>
<clus scale="   33.479">  1  3  2 -1</clus>
</clustering>
</event>
<event>
 6    0  0.3446372E+002  0.7473952E+02  0.7546771E-02  0.1344680E+00
         21   -1    0    0  505  501  0.00000000000E+00  0.00000000000E+00  0.73034239715E+02  0.73034239715E+02  0.00000000000E+00 0. -1.
         21   -1    0    0  506  502 -0.00000000000E+00 -0.00000000000E+00 -0.67066563839E+03  0.67066563839E+03  0.00000000000E+00 0.  1.
         21    1    1    2  503  502 -0.15687073083E+02  0.36880972534E+02 -0.82181692699E+02  0.91433697355E+02  0.00000000000E+00 0. -1.
         21    1    1    2  504  503  0.26810905722E+02 -0.10891594395E+03 -0.51033170682E+03  0.52251311802E+03  0.00000000000E+00 0.  1.
         21    1    1    2  505  504 -0.37239269307E+02  0.63457684054E+01  0.32361043677E+02  0.49742025522E+02  0.00000000000E+00 0. -1.
         21    1    1    2  506  501  0.26115436667E+02  0.65689203010E+02 -0.37479042833E+02  0.80011037215E+02  0.00000000000E+00 0. -1.
<scales pt_clust_3="43.27631" pt_clust_4="74.73952" pt_clust_5="37.77608" pt_clust_6="14000.00000"></scales>
<clustering>
<clus scale="   37.776">  1  5  2 -1</clus>
<clus scale="   43.276">  2  3  1 -1</clus>
<clus scale="   74.740">  2  4  1 -1</clus>
<clus scale="   37.776">  1  3  2 -1</clus>
</clustering>
</event>
<event>
 6    0  0.3446372E+002  0.1006534E+03  0.7546771E-02  0.1278928E+00
         21   -1    0    0  506  501  0.00000000000E+00  0.00000000000E+00  0.16776809873E+04  0.16776809873E+04  0.00000000000E+00 0.  1.
         21   -1    0    0  503  502 -0.00000000000E+00 -0.00000000000E+00 -0.39008698128E+03  0.39008698128E+03  0.00000000000E+00 0.  1.
         21    1    1    2  503  505 -0.23066210860E+02  0.21291349247E+02 -0.15546157643E+03  0.15859909641E+03  0.00000000000E+00 0.  1.
         21    1    1    2  504  501  0.39542678321E+02  0.16218501668E+02  0.21124456736E+03  0.21552477918E+03  0.00000000000E+00 0.  1.
         21    1    1    2  505  504  0.22011618542E+02  0.79643205606E+02 -0.22082787185E+03  0.23578061950E+03  0.00000000000E+00 0.  1.
         21    1    1    2  506  502 -0.38488086004E+02 -0.11715305652E+03  0.14526388870E+04  0.14578634735E+04  0.00000000000E+00 0.  1.
<scales pt_clust_3="31.39063" pt_clust_4="42.61850" pt_clust_5="100.65339" pt_clust_6="14000.00000"></scales>
<clustering>
<clus scale="   31.391">  2  3  1 -1</clus>
<clus scale="   42.619">  1  4  2 -1</clus>
<clus scale="  100.653">  2  5  1 -1</clus>
<clus scale="   42.619">  1  3  2 -1</clus>
</clustering>
</event>
<event>
 6    0  0.3446372E+002  0.1311180E+03  0.7546771E-02  0.1225806E+00
         21   -1    0    0  505  501  0.00000000000E+00  0.00000000000E+00  0.42438918300E+03  0.42438918300E+03  0.00000000000E+00 0.  1.
         21   -1    0    0  504  502 -0.00000000000E+00 -0.00000000000E+00 -0.86061497512E+02  0.86061497512E+02  0.00000000000E+00 0.  1.
         21    1    1    2  503  501 -0.42916866986E+02  0.33565363318E+02  0.20288854422E+03  0.21007677754E+03  0.00000000000E+00 0.  1.
         21    1    1    2  504  506  0.62663745784E+02  0.10933336829E+02  0.16595356199E+02  0.65739552306E+02  0.00000000000E+00 0.  1.
         21    1    1    2  505  502 -0.99534450346E+02 -0.16375459055E+02  0.11051108270E+03  0.14962607347E+03  0.00000000000E+00 0.  1.
         21    1    1    2  506  503  0.79787571547E+02 -0.28123241091E+02  0.83327023778E+01  0.85008277195E+02  0.00000000000E+00 0.  1.
<scales pt_clust_3="54.48386" pt_clust_4="33.75812" pt_clust_5="125.20506" pt_clust_6="33.75812"></scales>
<clustering>
<clus scale="   33.758">  4  6 -1 -1</clus>
<clus scale="   54.484">  1  3  2 -1</clus>
<clus scale="  125.205">  1  5  2 -1</clus>
<clus scale="   54.484">  1  3  2 -1</clus>
</clustering>
</event>
<event>
 6    0  0.3446372E+002  0.1019678E+03  0.7546771E-02  0.1276212E+00
         21   -1    0    0  503  501  0.00000000000E+00  0.00000000000E+00  0.10855627324E+04  0.10855627324E+04  0.00000000000E+00 0.  1.
         21   -1    0    0  506  502 -0.00000000000E+00 -0.00000000000E+00 -0.46866437833E+03  0.46866437833E+03  0.00000000000E+00 0.  1.
         21    1    1    2  503  504  0.18753291894E+01 -0.37774219872E+02  0.42030387013E+02  0.56541683553E+02  0.00000000000E+00 0. -1.
         21    1    1    2  504  505  0.11731375286E+03 -0.48936268966E+02 -0.41950231969E+03  0.43833716618E+03  0.00000000000E+00 0.  1.
         21    1    1    2  505  502 -0.36394667256E+02 -0.11421908431E+02 -0.15627764702E+02  0.41222067227E+02  0.00000000000E+00 0.  1.
         21    1    1    2  506  501 -0.82794414789E+02  0.98132397270E+02  0.10099980514E+04  0.10181261938E+04  0.00000000000E+00 0.  1.
<scales pt_clust_3="37.82074" pt_clust_4="101.96777" pt_clust_5="38.26513" pt_clust_6="14000.00000"></scales>
<clustering>
<clus scale="   37.821">  1  3  2 -1</clus>
<clus scale="   38.265">  2  5  1 -1</clus>
<clus scale="  101.968">  2  4  1 -1</clus>
<clus scale="   37.821">  1  3  2 -1</clus>
</clustering>
</event>
<event>
 6    0  0.3446372E+002  0.1374513E+03  0.7546771E-02  0.1216800E+00
         21   -1    0    0  506  501  0.00000000000E+00  0.00000000000E+00  0.32208380535E+03  0.32208380535E+03  0.00000000000E+00 0.  1.
         21   -1    0    0  505  502 -0.00000000000E+00 -0.00000000000E+00 -0.10657484770E+03  0.10657484770E+03  0.00000000000E+00 0.  1.
         21    1    1    2  503  502 -0.12910632306E+03  0.42956323224E+01  0.21905417101E+02  0.13102191576E+03  0.00000000000E+00 0.  1.
         21    1    1    2  504  501  0.64372977262E+02 -0.27429142172E+02  0.12555017455E+03  0.14373268373E+03  0.00000000000E+00 0.  1.
         21    1    1    2  505  504  0.89494362645E+02  0.48709131341E+02  0.44276105012E+02  0.11109542698E+03  0.00000000000E+00 0.  1.
         21    1    1    2  506  503 -0.24761016848E+02 -0.25575621492E+02  0.23777260981E+02  0.42808626582E+02  0.00000000000E+00 0. -1.
<scales pt_clust_3="33.20978" pt_clust_4="69.97312" pt_clust_5="122.02753" pt_clust_6="33.20978"></scales>
<clustering>
<clus scale="   33.210">  3  6 -1 -1</clus>
<clus scale="   69.973">  1  4  2 -1</clus>
<clus scale="  122.028">  2  5  1 -1</clus>
<clus scale="   69.973">  1  3  2 -1</clus>
</clustering>
</event>
<event>
 6    0  0.3446372E+002  0.1327763E+03  0.7546771E-02  0.1223393E+00
         21   -1    0    0  504  501  0.00000000000E+00  0.00000000000E+00  0.65701450018E+03  0.65701450018E+03  0.00000000000E+00 0. -1.
         21   -1    0    0  505  502 -0.00000000000E+00 -0.00000000000E+00 -0.13794005727E+03  0.13794005727E+03  0.00000000000E+00 0.  1.
         21    1    1    2  503  506 -0.52064326756E+02 -0.46074683849E+02 -0.58559888314E+02  0.90900116236E+02  0.00000000000E+00 0.  1.
         21    1    1    2  504  503 -0.42316910406E+02  0.40388670986E+02  0.51844686689E+02  0.78165447534E+02  0.00000000000E+00 0. -1.
         21    1    1    2  505  501  0.15207608000E+03 -0.29196254807E+01  0.54393274959E+03  0.56479951700E+03  0.00000000000E+00 0. -1.
         21    1    1    2  506  502 -0.57694842837E+02  0.86056383436E+01 -0.18143105055E+02  0.61089476691E+02  0.00000000000E+00 0. -1.
<scales pt_clust_3="56.21582" pt_clust_4="58.49757" pt_clust_5="117.74148" pt_clust_6="56.21582"></scales>
<clustering>
<clus scale="   56.216">  3  6 -1 -1</clus>
<clus scale="   58.498">  1  4  2 -1</clus>
<clus scale="  117.741">  1  5  2 -1</clus>
<clus scale="   58.498">  1  3  2 -1</clus>
</clustering>
</event>
<event>
 6    0  0.3446372E+002  0.6660237E+02  0.7546771E-02  0.1372043E+00
         21   -1    0    0  505  501  0.00000000000E+00  0.00000000000E+00  0.41207788082E+04  0.41207788082E+04  0.00000000000E+00 0. -1.
         21   -1    0    0  503  502 -0.00000000000E+00 -0.00000000000E+00 -0.16425476313E+02  0.16425476313E+02  0.00000000000E+00 0. -1.
         21    1    1    2  503  506 -0.58902654706E+02 -0.25147734538E+01  0.19154924282E+03  0.20041696346E+03  0.00000000000E+00 0. -1.
         21    1    1    2  504  502  0.89088947272E+02 -0.56091434667E+02  0.23910663187E+03  0.26125671470E+03  0.00000000000E+00 0. -1.
         21    1    1    2  505  504  0.13846993830E+01  0.62110679821E+02  0.32683591123E+04  0.32689495164E+04  0.00000000000E+00 0. -1.
         21    1    1    2  506  501 -0.31570991948E+02 -0.35044717000E+01  0.40533834491E+03  0.40658108996E+03  0.00000000000E+00 0. -1.
<scales pt_clust_3="60.62838" pt_clust_4="14000.00000" pt_clust_5="66.60237" pt_clust_6="31.76490"></scales>
<clustering>
<clus scale="   31.765">  1  6  2 -1</clus>
<clus scale="   60.628">  2  3  1 -1</clus>
<clus scale="   66.602">  1  5  2 -1</clus>
<clus scale="   31.765">  1  3  2 -1</clus>
</clustering>
</event>
<event>
 6    0  0.3446372E+002  0.7612887E+02  0.7546771E-02  0.1340410E+00
         21   -1    0    0  505  501  0.00000000000E+00  0.00000000000E+00  0.97374727726E+03  0.97374727726E+03  0.00000000000E+00 0. -1.
         21   -1    0    0  504  502 -0.00000000000E+00 -0.00000000000E+00 -0.80806405517E+02  0.80806405517E+02  0.00000000000E+00 0. -1.
         21    1    1    2  503  502 -0.31380472220E+02 -0.48832739213E+02 -0.26145469975E+02  0.63662831040E+02  0.00000000000E+00 0. -1.
         21    1    1    2  504  501 -0.30989022022E+02  0.26496880920E+02  0.33673028998E+02  0.52879836103E+02  0.00000000000E+00 0. -1.
         21    1    1    2  505  506 -0.42696166875E+02 -0.32011802203E+02  0.77295662988E+03  0.77479653447E+03  0.00000000000E+00 0. -1.
         21    1    1    2  506  503  0.10506566112E+03  0.54347660497E+02  0.11245668284E+03  0.16321448116E+03  0.00000000000E+00 0. -1.
<scales pt_clust_3="76.12887" pt_clust_4="40.77259" pt_clust_5="53.48147" pt_clust_6="14000.00000"></scales>
<clustering>
<clus scale="   40.773">  2  4  1 -1</clus>
<clus scale="   53.481">  1  5  2 -1</clus>
<clus scale="   76.129">  2  3  1 -1</clus>
<clus scale="   53.481">  1  3  2 -1</clus>
</clustering>
</event>
<event>
 6    0  0.3446372E+002  0.9983591E+02  0.7546771E-02  0.1280641E+00
         21   -1    0    0  503  501  0.00000000000E+00  0.00000000000E+00  0.59897841539E+02  0.59897841539E+02  0.00000000000E+00 0.  1.
         21   -1    0    0  506  502 -0.00000000000E+00 -0.00000000000E+00 -0.19589189958E+04  0.19589189958E+04  0.00000000000E+00 0.  1.
         21    1    1    2  503  505 -0.67988363322E+02 -0.78131121845E+02  0.11219981136E-01  0.10357069988E+03  0.00000000000E+00 0.  1.
         21    1    1    2  504  501  0.32069623908E+02  0.78345272614E+02 -0.25766492763E+03  0.27121514974E+03  0.00000000000E+00 0.  1.
         21    1    1    2  505  502 -0.88229290959E+01 -0.35481008722E+02 -0.65566933916E+03  0.65668792312E+03  0.00000000000E+00 0. -1.
         21    1    1    2  506  504  0.44741668510E+02  0.35266857952E+02 -0.98569810746E+03  0.98734306461E+03  0.00000000000E+00 0.  1.
<scales pt_clust_3="14000.00000" pt_clust_4="99.83591" pt_clust_5="36.56154" pt_clust_6="38.97593"></scales>
<clustering>
<clus scale="   36.562">  2  5  1 -1</clus>
<clus scale="   38.976">  2  6  1 -1</clus>
<clus scale="   99.836">  2  4  1 -1</clus>
<clus scale="   99.836">  1  3  2 -1</clus>
</clustering>
</event>
<event>
 6    0  0.3446372E+002  0.1182921E+03  0.7546771E-02  0.1245942E+00
         21   -1    0    0  505  501  0.00000000000E+00  0.00000000000E+00  0.51141547757E+03  0.51141547757E+03  0.00000000000E+00 0.  1.
         21   -1    0    0  506  502 -0.00000000000E+00 -0.00000000000E+00 -0.14070425457E+04  0.14070425457E+04  0.00000000000E+00 0. -1.
         21    1    1    2  503  504 -0.19114896965E+02 -0.10310232284E+03  0.12890369694E+03  0.16616747980E+03  0.00000000000E+00 0.  1.
         21    1    1    2  504  501  0.27686680585E+02 -0.19865921710E+02  0.35860205037E+03  0.36021748661E+03  0.00000000000E+00 0.  1.
         21    1    1    2  505  502  0.16231751343E+02  0.57397153992E+02 -0.10474912519E+04  0.10491881747E+04  0.00000000000E+00 0. -1.
         21    1    1    2  506  503 -0.24803534963E+02  0.65571090555E+02 -0.33564156350E+03  0.34288488216E+03  0.00000000000E+00 0. -1.
<scales pt_clust_3="118.29206" pt_clust_4="34.07649" pt_clust_5="59.58378" pt_clust_6="14000.00000"></scales>
<clustering>
<clus scale="   34.076">  1  4  2 -1</clus>
<clus scale="   59.584">  2  5  1 -1</clus>
<clus scale="  118.292">  1  3  2 -1</clus>
<clus scale="   34.076">  1  3  2 -1</clus>
</clustering>
</event>
<event>
 6    0  0.3446372E+002  0.1089953E+03  0.7546771E-02  0.1262442E+00
         21   -1    0    0  505  501  0.00000000000E+00  0.00000000000E+00  0.14114230727E+04  0.14114230727E+04  0.00000000000E+00 0. -1.
         21   -1    0    0  501  502 -0.00000000000E+00 -0.00000000000E+00 -0.90892167972E+02  0.90892167972E+02  0.00000000000E+00 0. -1.
         21    1    1    2  503  502 -0.21429168237E+01  0.55915305752E+02 -0.39708220983E+02  0.68613820208E+02  0.00000000000E+00 0. -1.
         21    1    1    2  504  503 -0.43471045300E+02 -0.63863214324E+02  0.59487544719E+02  0.97503896845E+02  0.00000000000E+00 0. -1.
         21    1    1    2  505  506  0.10266647319E+03 -0.51028426661E+02  0.12035210459E+04  0.12089694839E+04  0.00000000000E+00 0. -1.
         21    1    1    2  506  504 -0.57052511066E+02  0.58976335233E+02  0.97230535036E+02  0.12722803968E+03  0.00000000000E+00 0. -1.
<scales pt_clust_3="55.95635" pt_clust_4="56.63298" pt_clust_5="108.99528" pt_clust_6="14000.00000"></scales>
<clustering>
<clus scale="   55.956">  2  3  1 -1</clus>
<clus scale="   56.633">  2  4  1 -1</clus>
<clus scale="  108.995">  1  5  2 -1</clus>
<clus scale="  108.995">  1  3  2 -1</clus>
</clustering>
</event>
<event>
 6    0  0.3446372E+002  0.2408388E+03  0.7546771E-02  0.1119235E+00
         21   -1    0    0  504  501  0.00000000000E+00  0.00000000000E+00  0.44194511067E+03  0.44194511067E+03  0.00000000000E+00 0.  1.
         21   -1    0    0  506  502 -0.00000000000E+00 -0.00000000000E+00 -0.11338577629E+04  0.11338577629E+04  0.00000000000E+00 0.  1.
         21    1    1    2  503  501 -0.16509552257E+02  0.28388985914E+02  0.33217569280E+03  0.33379513287E+03  0.00000000000E+00 0.  1.
         21    1    1    2  504  502 -0.19094528752E+03  0.81187276715E+02 -0.19831291312E+02  0.20843405874E+03  0.00000000000E+00 0.  1.
         21    1    1    2  505  503  0.10531398882E+03 -0.48382680541E+02 -0.35351130968E+03  0.37202441599E+03  0.00000000000E+00 0. -1.
         21    1    1    2  506  505  0.10214085096E+03 -0.61193582087E+02 -0.65074574407E+03  0.66154926600E+03  0.00000000000E+00 0.  1.
<scales pt_clust_3="32.84052" pt_clust_4="230.87980" pt_clust_5="67.35974" pt_clust_6="67.35974"></scales>
<clustering>
<clus scale="   32.841">  1  3  2 -1</clus>
<clus scale="   67.360">  5  6 -1 -1</clus>
<clus scale="  230.880">  1  4  2 -1</clus>
<clus scale="   32.841">  1  3  2 -1</clus>
</clustering>
</event>
<event>
 6    0  0.3446372E+002  0.2401329E+03  0.7546771E-02  0.1119704E+00
         21   -1    0    0  504  501  0.00000000000E+00  0.00000000000E+00  0.25283524199E+03  0.25283524199E+03  0.00000000000E+00 0.  1.
         21   -1    0    0  505  502 -0.00000000000E+00 -0.00000000000E+00 -0.20401373908E+03  0.20401373908E+03  0.00000000000E+00 0.  1.
         21    1    1    2  503  502  0.47610658251E+02 -0.56244428487E+02 -0.33914927669E+02  0.81119867072E+02  0.00000000000E+00 0.  1.
         21    1    1    2  504  506  0.12860629617E+02 -0.65406488448E+02  0.45395200258E+02  0.80648178725E+02  0.00000000000E+00 0. -1.
         21    1    1    2  505  501 -0.10697770016E+03  0.18521339823E+03  0.29959926321E+02  0.21597645335E+03  0.00000000000E+00 0.  1.
         21    1    1    2  506  503  0.46506412293E+02 -0.63562481294E+02  0.73813040058E+01  0.79104481930E+02  0.00000000000E+00 0.  1.
<scales pt_clust_3="40.53466" pt_clust_4="63.88947" pt_clust_5="213.88836" pt_clust_6="63.88947"></scales>
<clustering>
<clus scale="   40.535">  3  6 -1 -1</clus>
<clus scale="   63.889">  3  4 -1 -1</clus>
<clus scale="  213.888">  1  5  2 -1</clus>
<clus scale="  213.888">  1  3  2 -1</clus>
</clustering>
</event>
<event>
 6    0  0.3446372E+002  0.1565471E+03  0.7546771E-02  0.1192651E+00
         21   -1    0    0  505  501  0.00000000000E+00  0.00000000000E+00  0.14459225892E+04  0.14459225892E+04  0.00000000000E+00 0.  1.
         21   -1    0    0  503  502 -0.00000000000E+00 -0.00000000000E+00 -0.13530812297E+03  0.13530812297E+03  0.00000000000E+00 0.  1.
         21    1    1    2  503  501  0.79312459091E+00 -0.64223569567E+02  0.11898286688E+03  0.13521175447E+03  0.00000000000E+00 0.  1.
         21    1    1    2  504  506  0.16171358577E+03 -0.10811937376E+03  0.20156766957E+03  0.28012605773E+03  0.00000000000E+00 0.  1.
         21    1    1    2  505  504 -0.34914001466E+02  0.99974683515E+02  0.10120432502E+04  0.10175684080E+04  0.00000000000E+00 0.  1.
         21    1    1    2  506  502 -0.12759270890E+03  0.72368259814E+02 -0.21979320347E+02  0.14832449196E+03  0.00000000000E+00 0.  1.
<scales pt_clust_3="64.22847" pt_clust_4="14000.00000" pt_clust_5="61.09555" pt_clust_6="156.54713"></scales>
<clustering>
<clus scale="   64.228">  1  3  2 -1</clus>
<clus scale="   61.096">  1  5  2 -1</clus>
<clus scale="  156.547">  2  6  1 -1</clus>
<clus scale="   64.228">  1  3  2 -1</clus>
</clustering>
</event>
<event>
 6    0  0.3446372E+002  0.1087170E+03  0.7546771E-02  0.1262964E+00
         21   -1    0    0  505  501  0.00000000000E+00  0.00000000000E+00  0.65532868584E+03  0.65532868584E+03  0.00000000000E+00 0.  1.
         21   -1    0    0  504  502 -0.00000000000E+00 -0.00000000000E+00 -0.32682929559E+03  0.32682929559E+03  0.00000000000E+00 0.  1.
         21    1    1    2  503  501  0.38128599982E+02 -0.35082430236E+01  0.70859779488E+02  0.80543194963E+02  0.00000000000E+00 0.  1.
         21    1    1    2  504  503 -0.13221397253E+03 -0.75048941000E+02 -0.24925487429E+03  0.29196039189E+03  0.00000000000E+00 0.  1.
         21    1    1    2  505  506  0.60683818345E+02  0.49218745027E+02  0.54532217302E+03  0.55089135322E+03  0.00000000000E+00 0.  1.
         21    1    1    2  506  502  0.33401554205E+02  0.29338438996E+02 -0.38427687970E+02  0.58763041350E+02  0.00000000000E+00 0.  1.
<scales pt_clust_3="38.28966" pt_clust_4="14000.00000" pt_clust_5="108.71701" pt_clust_6="44.92136"></scales>
<clustering>
<clus scale="   38.290">  1  3  2 -1</clus>
<clus scale="   44.921">  2  6  1 -1</clus>
<clus scale="  108.717">  1  5  2 -1</clus>
<clus scale="   38.290">  1  3  2 -1</clus>
</clustering>
</event>
<event>
 6    0  0.3446372E+002  0.1971625E+03  0.7546771E-02  0.1152155E+00
         21   -1    0    0  505  501  0.00000000000E+00  0.00000000000E+00  0.21294073358E+04  0.21294073358E+04  0.00000000000E+00 0. -1.
         21   -1    0    0  504  502 -0.00000000000E+00 -0.00000000000E+00 -0.29108440504E+03  0.29108440504E+03  0.00000000000E+00 0. -1.
         21    1    1    2  503  502  0.31875534393E+02 -0.69538864481E+02 -0.89151399347E+02  0.11747201953E+03  0.00000000000E+00 0. -1.
         21    1    1    2  504  501  0.37182268923E+02 -0.30004116317E+02  0.90376300421E+01  0.48625578403E+02  0.00000000000E+00 0. -1.
         21    1    1    2  505  506 -0.26634922640E+02  0.17979878100E+03  0.20698705279E+04  0.20778356583E+04  0.00000000000E+00 0. -1.
         21    1    1    2  506  503 -0.42422880675E+02 -0.80255800200E+02 -0.15143382783E+03  0.17655848459E+03  0.00000000000E+00 0. -1.
<scales pt_clust_3="74.75024" pt_clust_4="47.77832" pt_clust_5="181.24582" pt_clust_6="74.75024"></scales>
<clustering>
<clus scale="   47.778">  2  4  1 -1</clus>
<clus scale="   74.750">  3  6 -1 -1</clus>
<clus scale="  181.246">  1  5  2 -1</clus>
<clus scale="  181.246">  1  3  2 -1</clus>
</clustering>
</event>
<event>
 6    0  0.3446372E+002  0.1740527E+03  0.7546771E-02  0.1173686E+00
         21   -1    0    0  503  501  0.00000000000E+00  0.00000000000E+00  0.63894576958E+03  0.63894576958E+03  0.00000000000E+00 0. -1.
         21   -1    0    0  501  502 -0.00000000000E+00 -0.00000000000E+00 -0.19389019361E+03  0.19389019361E+03  0.00000000000E+00 0. -1.
         21    1    1    2  503  506  0.77626286252E+02 -0.48291075034E+02  0.35783318128E+03  0.36932702835E+03  0.00000000000E+00 0. -1.
         21    1    1    2  504  505 -0.19215622872E+01  0.92203065989E+02 -0.41502736538E+02  0.10113147344E+03  0.00000000000E+00 0.  1.
         21    1    1    2  505  502 -0.17656459228E+02  0.87790763461E+02 -0.72333088761E+02  0.11511318096E+03  0.00000000000E+00 0. -1.
         21    1    1    2  506  504 -0.58048264737E+02 -0.13170275442E+03  0.20105821999E+03  0.24726428045E+03  0.00000000000E+00 0.  1.
<scales pt_clust_3="91.42138" pt_clust_4="31.50299" pt_clust_5="31.50299" pt_clust_6="171.09140"></scales>
<clustering>
<clus scale="   31.503">  4  5 -1 -1</clus>
<clus scale="   91.421">  1  3  2 -1</clus>
<clus scale="  171.091">  1  6  2 -1</clus>
<clus scale="   91.421">  1  3  2 -1</clus>
</clustering>
</event>
<event>
 6    0  0.3446372E+002  0.1127348E+03  0.7546771E-02  0.1255588E+00
         21   -1    0    0  503  501  0.00000000000E+00  0.00000000000E+00  0.17685841516E+04  0.17685841516E+04  0.00000000000E+00 0.  1.
         21   -1    0    0  505  502 -0.00000000000E+00 -0.00000000000E+00 -0.36948736343E+02  0.36948736343E+02  0.00000000000E+00 0.  1.
         21    1    1    2  503  502 -0.44210587269E+02 -0.76809439650E+01  0.14863046543E+03  0.15525652379E+03  0.00000000000E+00 0.  1.
         21    1    1    2  504  501 -0.34506372448E+02 -0.61959041707E+02  0.79503514488E+03  0.79819201586E+03  0.00000000000E+00 0.  1.
         21    1    1    2  505  506 -0.58966747728E+02 -0.35896988216E+02  0.31327299364E+02  0.75809437315E+02  0.00000000000E+00 0.  1.
         21    1    1    2  506  504  0.13768370744E+03  0.10553697389E+03  0.75664250563E+03  0.77627491102E+03  0.00000000000E+00 0.  1.
<scales pt_clust_3="44.87285" pt_clust_4="72.26266" pt_clust_5="14000.00000" pt_clust_6="112.73479"></scales>
<clustering>
<clus scale="   44.873">  2  3  1 -1</clus>
<clus scale="   72.263">  1  4  2 -1</clus>
<clus scale="  112.735">  1  6  2 -1</clus>
<clus scale="   72.263">  1  3  2 -1</clus>
</clustering>
</event>
<event>
 6    0  0.3446372E+002  0.8344223E+02  0.7546771E-02  0.1319557E+00
         21   -1    0    0  506  501  0.00000000000E+00  0.00000000000E+00  0.15581221684E+04  0.15581221684E+04  0.00000000000E+00 0.  1.
         21   -1    0    0  503  502 -0.00000000000E+00 -0.00000000000E+00 -0.16360330643E+04  0.16360330643E+04  0.00000000000E+00 0. -1.
         21    1    1    2  503  504 -0.33966316483E+02  0.18830890948E+02 -0.54685752637E+02  0.67073427307E+02  0.00000000000E+00 0. -1.
         21    1    1    2  504  501 -0.28890013930E+02 -0.32488281048E+02  0.68355118251E+03  0.68493236194E+03  0.00000000000E+00 0.  1.
         21    1    1    2  505  502  0.11684842409E+03 -0.71951201460E+01 -0.15713177250E+04  0.15756727823E+04  0.00000000000E+00 0. -1.
         21    1    1    2  506  505 -0.53992093679E+02  0.20852510247E+02  0.86454139924E+03  0.86647666117E+03  0.00000000000E+00 0.  1.
<scales pt_clust_3="38.83701" pt_clust_4="43.47925" pt_clust_5="83.44223" pt_clust_6="14000.00000"></scales>
<clustering>
<clus scale="   38.837">  2  3  1 -1</clus>
<clus scale="   43.479">  1  4  2 -1</clus>
<clus scale="   83.442">  2  5  1 -1</clus>
<clus scale="   43.479">  1  3  2 -1</clus>
</clustering>
</event>
<event>
 6    0  0.3446372E+002  0.1289951E+03  0.7546771E-02  0.1228955E+00
         21   -1    0    0  502  501  0.00000000000E+00  0.00000000000E+00  0.10116673221E+03  0.10116673221E+03  0.00000000000E+00 0. -1.
         21   -1    0    0  504  502 -0.00000000000E+00 -0.00000000000E+00 -0.10969345451E+04  0.10969345451E+04  0.00000000000E+00 0. -1.
         21    1    1    2  503  505  0.13443351717E+03  0.81700725518E+02 -0.24902714793E+03  0.29455372938E+03  0.00000000000E+00 0. -1.
         21    1    1    2  504  506 -0.60627238558E+02 -0.45611247769E+02 -0.50454956060E+03  0.51022182144E+03  0.00000000000E+00 0. -1.
         21    1    1    2  505  501 -0.70060030675E+02  0.11565938976E+02  0.56555834842E+02  0.90778528834E+02  0.00000000000E+00 0. -1.
         21    1    1    2  506  503 -0.37462479364E+01 -0.47655416725E+02 -0.29874693918E+03  0.30254719762E+03  0.00000000000E+00 0. -1.
<scales pt_clust_3="119.05516" pt_clust_4="39.41439" pt_clust_5="71.00830" pt_clust_6="39.41439"></scales>
<clustering>
<clus scale="   39.414">  4  6 -1 -1</clus>
<clus scale="   71.008">  1  5  2 -1</clus>
<clus scale="  119.055">  1  3  2 -1</clus>
<clus scale="   71.008">  1  3  2 -1</clus>
</clustering>
</event>
<event>
 6    0  0.3446372E+002  0.1113933E+03  0.7546771E-02  0.1258011E+00
         21   -1    0    0  505  501  0.00000000000E+00  0.00000000000E+00  0.46922772670E+02  0.46922772670E+02  0.00000000000E+00 0. -1.
         21   -1    0    0  503  502 -0.00000000000E+00 -0.00000000000E+00 -0.65435292416E+03  0.65435292416E+03  0.00000000000E+00 0. -1.
         21    1    1    2  503  501  0.80999261598E+02  0.10089301199E+03 -0.17176267395E+03  0.21504115051E+03  0.00000000000E+00 0. -1.
         21    1    1    2  504  506 -0.22867805477E+02 -0.56419071877E+02 -0.68444442433E+02  0.91600709051E+02  0.00000000000E+00 0. -1.
         21    1    1    2  505  504  0.12701446930E+02 -0.40275275242E+02 -0.34798893684E+02  0.54720997355E+02  0.00000000000E+00 0.  1.
         21    1    1    2  506  502 -0.70832903051E+02 -0.41986648688E+01 -0.33242414142E+03  0.33991283991E+03  0.00000000000E+00 0. -1.
<scales pt_clust_3="105.40758" pt_clust_4="30.00362" pt_clust_5="30.00362" pt_clust_6="70.95723"></scales>
<clustering>
<clus scale="   30.004">  4  5 -1 -1</clus>
<clus scale="   70.957">  2  6  1 -1</clus>
<clus scale="  105.408">  2  3  1 -1</clus>
<clus scale="  111.393">  1  3  2 -1</clus>
</clustering>
</event>
<event>
 6    0  0.3446372E+002  0.9920142E+02  0.7546771E-02  0.1281984E+00
         21   -1    0    0  505  501  0.00000000000E+00  0.00000000000E+00  0.57696993130E+02  0.57696993130E+02  0.00000000000E+00 0. -1.
         21   -1    0    0  504  502 -0.00000000000E+00 -0.00000000000E+00 -0.10441352594E+04  0.10441352594E+04  0.00000000000E+00 0. -1.
         21    1    1    2  503  502 -0.41510907894E+02 -0.32503050667E+02 -0.79084803797E+03  0.79260344621E+03  0.00000000000E+00 0. -1.
         21    1    1    2  504  506  0.92046229711E+02  0.59796055291E+02 -0.51766102852E+02  0.12135817252E+03  0.00000000000E+00 0. -1.
         21    1    1    2  505  503 -0.82846032124E+02 -0.26252590231E+02 -0.90190508038E+02  0.12524771963E+03  0.00000000000E+00 0. -1.
         21    1    1    2  506  501  0.32310710307E+02 -0.10404143936E+01 -0.53633617365E+02  0.62622914131E+02  0.00000000000E+00 0. -1.
<scales pt_clust_3="52.31395" pt_clust_4="14000.00000" pt_clust_5="99.20142" pt_clust_6="32.32746"></scales>
<clustering>
<clus scale="   32.327">  1  6  2 -1</clus>
<clus scale="   52.314">  2  3  1 -1</clus>
<clus scale="   99.201">  1  5  2 -1</clus>
<clus scale="   32.327">  1  3  2 -1</clus>
</clustering>
</event>
<event>
 6    0  0.3446372E+002  0.1410833E+03  0.7546771E-02  0.1211879E+00
         21   -1    0    0  505  501  0.00000000000E+00  0.00000000000E+00  0.65075895032E+03  0.65075895032E+03  0.00000000000E+00 0.  1.
         21   -1    0    0  504  502 -0.00000000000E+00 -0.00000000000E+00 -0.21194038632E+03  0.21194038632E+03  0.00000000000E+00 0. -1.
         21    1    1    2  503  502 -0.23256514668E+02 -0.57057204675E+02 -0.12991791995E+03  0.14378823319E+03  0.00000000000E+00 0. -1.
         21    1    1    2  504  506  0.23612247244E+02  0.54521153104E+02  0.16987257201E+03  0.17996328814E+03  0.00000000000E+00 0. -1.
         21    1    1    2  505  503 -0.20881256065E+02 -0.76917254091E+02 -0.42290268195E+02  0.90226147074E+02  0.00000000000E+00 0. -1.
         21    1    1    2  506  501  0.20525523489E+02  0.79453305661E+02  0.44115418014E+03  0.44872166824E+03  0.00000000000E+00 0.  1.
<scales pt_clust_3="61.61485" pt_clust_4="37.99403" pt_clust_5="133.83090" pt_clust_6="37.99403"></scales>
<clustering>
<clus scale="   37.994">  4  6 -1 -1</clus>
<clus scale="   61.615">  2  3  1 -1</clus>
<clus scale="  133.831">  2  5  1 -1</clus>
<clus scale="  141.083">  1  3  2 -1</clus>
</clustering>
</event>
<event>
 6    0  0.6377442E+002  0.1047290E+03  0.7546771E-02  0.1270654E+00
         21   -1    0    0  504  501  0.00000000000E+00  0.00000000000E+00  0.51409442405E+03  0.51409442405E+03  0.00000000000E+00 0.  1.
         21   -1    0    0  505  502 -0.00000000000E+00 -0.00000000000E+00 -0.97380588142E+03  0.97380588142E+03  0.00000000000E+00 0.  1.
         21    1    1    2  503  502 -0.80558811794E+02  0.54054192423E+02 -0.84812152279E+03  0.85365197551E+03  0.00000000000E+00 0.  1.
         21    1    1    2  504  506 -0.76332110685E+01 -0.45005029284E+02 -0.33688333511E+02  0.56732903916E+02  0.00000000000E+00 0.  1.
         21    1    1    2  505  501  0.53107626095E+02  0.31042112490E+02  0.48851461186E+03  0.49237237808E+03  0.00000000000E+00 0.  1.
         21    1    1    2  506  503  0.35084396768E+02 -0.40091275630E+02 -0.66416212922E+02  0.85143047967E+02  0.00000000000E+00 0.  1.
<scales pt_clust_3="94.10235" pt_clust_4="42.54899" pt_clust_5="61.51449" pt_clust_6="42.54899"></scales>
<clustering>
<clus scale="   42.549">  4  6 -1 -1</clus>
<clus scale="   61.514">  1  5  2 -1</clus>
<clus scale="   94.102">  2  3  1 -1</clus>
<clus scale="   61.514">  1  3  2 -1</clus>
</clustering>
</event>
<event>
 6    0  0.3446372E+002  0.2406305E+03  0.7546771E-02  0.1119374E+00
         21   -1    0    0  503  501  0.00000000000E+00  0.00000000000E+00  0.12937820339E+04  0.12937820339E+04  0.00000000000E+00 0.  1.
         21   -1    0    0  504  502 -0.00000000000E+00 -0.00000000000E+00 -0.75079710464E+02  0.75079710464E+02  0.00000000000E+00 0.  1.
         21    1    1    2  503  502  0.43830595095E+02  0.24470020016E+03  0.32939644553E+03  0.41267581387E+03  0.00000000000E+00 0.  1.
         21    1    1    2  504  506 -0.31139110946E+02 -0.14766665797E+03  0.21713475273E+03  0.26442879373E+03  0.00000000000E+00 0.  1.
         21    1    1    2  505  501  0.36071986690E+02 -0.43591561953E+02  0.52211150968E+03  0.52516839303E+03  0.00000000000E+00 0.  1.
         21    1    1    2  506  505 -0.48763470840E+02 -0.53441980239E+02  0.15005961554E+03  0.16658874378E+03  0.00000000000E+00 0.  1.
<scales pt_clust_3="231.92182" pt_clust_4="44.41635" pt_clust_5="56.58103" pt_clust_6="44.41635"></scales>
<clustering>
<clus scale="   44.416">  4  6 -1 -1</clus>
<clus scale="   56.581">  1  5  2 -1</clus>
<clus scale="  231.922">  2  3  1 -1</clus>
<clus scale="   56.581">  1  3  2 -1</clus>
</clustering>
</event>
<event>
 6    0  0.3446372E+002  0.9282364E+02  0.7546771E-02  0.1296154E+00
         21   -1    0    0  506  501  0.00000000000E+00  0.00000000000E+00  0.34093265221E+03  0.34093265221E+03  0.00000000000E+00 0. -1.
         21   -1    0    0  504  502 -0.00000000000E+00 -0.00000000000E+00 -0.13542008209E+03  0.13542008209E+03  0.00000000000E+00 0. -1.
         21    1    1    2  503  502  0.76101304230E+02 -0.67922560569E+02 -0.12155956693E+00  0.10200439950E+03  0.00000000000E+00 0. -1.
         21    1    1    2  504  505 -0.81471096015E+01  0.97076347878E+02  0.17171538242E+02  0.98919434075E+02  0.00000000000E+00 0. -1.
         21    1    1    2  505  501  0.46529692929E+02  0.17904505526E+02  0.12861837821E+03  0.13794299857E+03  0.00000000000E+00 0. -1.
         21    1    1    2  506  503 -0.11448388756E+03 -0.47058292835E+02  0.59844213226E+02  0.13748590215E+03  0.00000000000E+00 0. -1.
<scales pt_clust_3="92.82364" pt_clust_4="14000.00000" pt_clust_5="49.85563" pt_clust_6="100.09701"></scales>
<clustering>
<clus scale="   49.856">  1  5  2 -1</clus>
<clus scale="  100.097">  1  6  2 -1</clus>
<clus scale="   92.824">  2  3  1 -1</clus>
<clus scale="   49.856">  1  3  2 -1</clus>
</clustering>
</event>
<event>
 6    0  0.3446372E+002  0.2010075E+03  0.7546771E-02  0.1148892E+00
         21   -1    0    0  504  501  0.00000000000E+00  0.00000000000E+00  0.32211015897E+02  0.32211015897E+02  0.00000000000E+00 0. -1.
         21   -1    0    0  505  502 -0.00000000000E+00 -0.00000000000E+00 -0.17110189114E+04  0.17110189114E+04  0.00000000000E+00 0. -1.
         21    1    1    2  503  506 -0.93131191517E+02 -0.12882845107E+02 -0.41667508501E+03  0.42715045710E+03  0.00000000000E+00 0. -1.
         21    1    1    2  504  503 -0.12076355506E+03  0.23729365751E+02 -0.35061452121E+03  0.37158775748E+03  0.00000000000E+00 0. -1.
         21    1    1    2  505  501  0.34037445475E+02 -0.10639518001E+02 -0.35935575214E+02  0.50627192334E+02  0.00000000000E+00 0. -1.
         21    1    1    2  506  502  0.17985730111E+03 -0.20700264302E+00 -0.87558271406E+03  0.89386452037E+03  0.00000000000E+00 0. -1.
<scales pt_clust_3="52.23823" pt_clust_4="52.23823" pt_clust_5="35.66156" pt_clust_6="192.41416"></scales>
<clustering>
<clus scale="   35.662">  1  5  2 -1</clus>
<clus scale="   52.238">  3  4 -1 -1</clus>
<clus scale="  192.414">  2  6  1 -1</clus>
<clus scale="   35.662">  1  3  2 -1</clus>
</clustering>
</event>
<event>
 6    0  0.3446372E+002  0.9360676E+02  0.7546771E-02  0.1294345E+00
         21   -1    0    0  503  501  0.00000000000E+00  0.00000000000E+00  0.18287146889E+03  0.18287146889E+03  0.00000000000E+00 0.  1.
         21   -1    0    0  505  502 -0.00000000000E+00 -0.00000000000E+00 -0.28904975961E+03  0.28904975961E+03  0.00000000000E+00 0.  1.
         21    1    1    2  503  502  0.17398321376E+02 -0.26114829053E+02 -0.41566367713E+02  0.52081175179E+02  0.00000000000E+00 0.  1.
         21    1    1    2  504  501  0.37376020363E+02  0.78014125284E+02  0.96830030055E+02  0.12984307976E+03  0.00000000000E+00 0.  1.
         21    1    1    2  505  506 -0.26625476104E+02  0.82739551663E+02 -0.11637748028E+03  0.14525311461E+03  0.00000000000E+00 0.  1.
         21    1    1    2  506  504 -0.28148865635E+02 -0.13463884789E+03 -0.45064472784E+02  0.14474385896E+03  0.00000000000E+00 0.  1.
<scales pt_clust_3="31.37970" pt_clust_4="93.60676" pt_clust_5="70.76559" pt_clust_6="14000.00000"></scales>
<clustering>
<clus scale="   31.380">  2  3  1 -1</clus>
<clus scale="   70.766">  2  5  1 -1</clus>
<clus scale="   93.607">  1  4  2 -1</clus>
<clus scale="   93.607">  1  3  2 -1</clus>
</clustering>
</event>
<event>
 6    0  0.3446372E+002  0.1246678E+03  0.7546771E-02  0.1235589E+00
         21   -1    0    0  506  501  0.00000000000E+00  0.00000000000E+00  0.98971739870E+03  0.98971739870E+03  0.00000000000E+00 0.  1.
         21   -1    0    0  503  502 -0.00000000000E+00 -0.00000000000E+00 -0.43375956344E+03  0.43375956344E+03  0.00000000000E+00 0.  1.
         21    1    1    2  503  501 -0.24046388952E+02  0.40770494893E+02 -0.18277927189E+03  0.18880869765E+03  0.00000000000E+00 0.  1.
         21    1    1    2  504  502  0.33968933711E+02  0.98833371659E+02 -0.19780491777E+03  0.22371568855E+03  0.00000000000E+00 0. -1.
         21    1    1    2  505  504  0.10091427719E+03 -0.86261932506E+02  0.10206256319E+03  0.16745620068E+03  0.00000000000E+00 0.  1.
         21    1    1    2  506  505 -0.11083682195E+03 -0.53341934047E+02  0.83447946173E+03  0.84349637526E+03  0.00000000000E+00 0.  1.
<scales pt_clust_3="47.33352" pt_clust_4="124.66780" pt_clust_5="14000.00000" pt_clust_6="123.08021"></scales>
<clustering>
<clus scale="   47.334">  2  3  1 -1</clus>
<clus scale="  123.080">  1  6  2 -1</clus>
<clus scale="  124.668">  2  4  1 -1</clus>
<clus scale="  123.080">  1  3  2 -1</clus>
</clustering>
</event>
<event>
 6    0  0.3446372E+002  0.1423308E+03  0.7546771E-02  0.1210227E+00
         21   -1    0    0  504  501  0.00000000000E+00  0.00000000000E+00  0.12048287712E+04  0.12048287712E+04  0.00000000000E+00 0.  1.
         21   -1    0    0  505  502 -0.00000000000E+00 -0.00000000000E+00 -0.20843620351E+02  0.20843620351E+02  0.00000000000E+00 0.  1.
         21    1    1    2  503  502  0.60890891487E+02 -0.63693852401E+02  0.14802136113E+03  0.17226413106E+03  0.00000000000E+00 0.  1.
         21    1    1    2  504  503  0.34304689230E+02 -0.29315859457E+02  0.17313152051E+03  0.17891549601E+03  0.00000000000E+00 0.  1.
         21    1    1    2  505  506 -0.79750481553E+01  0.37597097258E+02  0.20089942733E+03  0.20454271685E+03  0.00000000000E+00 0.  1.
         21    1    1    2  506  501 -0.87220532561E+02  0.55412614600E+02  0.66193284187E+03  0.66995004762E+03  0.00000000000E+00 0.  1.
<scales pt_clust_3="142.08433" pt_clust_4="35.60084" pt_clust_5="30.76684" pt_clust_6="30.76684"></scales>
<clustering>
<clus scale="   30.767">  5  6 -1 -1</clus>
<clus scale="   35.601">  3  4 -1 -1</clus>
<clus scale="  142.084">  2  3  1 -1</clus>
<clus scale="  142.331">  1  3  2 -1</clus>
</clustering>
</event>
<event>
 6    0  0.3446372E+002  0.9715084E+02  0.7546771E-02  0.1286404E+00
         21   -1    0    0  506  501  0.00000000000E+00  0.00000000000E+00  0.77416719197E+01  0.77416719197E+01  0.00000000000E+00 0.  1.
         21   -1    0    0  504  502 -0.00000000000E+00 -0.00000000000E+00 -0.31914064435E+04  0.31914064435E+04  0.00000000000E+00 0.  1.
         21    1    1    2  503  505  0.78183819626E+02  0.54533618024E+01 -0.69260125489E+03  0.69702148251E+03  0.00000000000E+00 0.  1.
         21    1    1    2  504  503  0.25028784762E+02  0.16770647671E+02 -0.88294411745E+03  0.88345798385E+03  0.00000000000E+00 0.  1.
         21    1    1    2  505  501  0.16209333479E+02 -0.57545860387E+02 -0.48880813698E+03  0.49245067095E+03  0.00000000000E+00 0.  1.
         21    1    1    2  506  502 -0.11942193787E+03  0.35321850914E+02 -0.11193112623E+04  0.11262179781E+04  0.00000000000E+00 0.  1.
<scales pt_clust_3="14000.00000" pt_clust_4="30.12797" pt_clust_5="58.11606" pt_clust_6="97.15084"></scales>
<clustering>
<clus scale="   30.128">  2  4  1 -1</clus>
<clus scale="   58.116">  1  5  2 -1</clus>
<clus scale="   97.151">  1  6  2 -1</clus>
<clus scale="   58.116">  1  3  2 -1</clus>
</clustering>
</event>
<event>
 6    0  0.3446372E+002  0.1070603E+03  0.7546771E-02  0.1266113E+00
         21   -1    0    0  502  501  0.00000000000E+00  0.00000000000E+00  0.22718604826E+03  0.22718604826E+03  0.00000000000E+00 0. -1.
         21   -1    0    0  505  502 -0.00000000000E+00 -0.00000000000E+00 -0.90635308032E+03  0.90635308032E+03  0.00000000000E+00 0.  1.
         21    1    1    2  503  501 -0.10888226403E+02 -0.40216235663E+02  0.10170632801E+03  0.10990940016E+03  0.00000000000E+00 0. -1.
         21    1    1    2  504  506 -0.29169487652E+02  0.55712728479E+02 -0.63534860838E+03  0.63845330392E+03  0.00000000000E+00 0.  1.
         21    1    1    2  505  504 -0.48726885569E+02  0.22365304039E+02 -0.24249864253E+03  0.24835480231E+03  0.00000000000E+00 0.  1.
         21    1    1    2  506  503  0.88784599624E+02 -0.37861796855E+02  0.96973890835E+02  0.13682162218E+03  0.00000000000E+00 0. -1.
<scales pt_clust_3="41.66412" pt_clust_4="14000.00000" pt_clust_5="53.45772" pt_clust_6="107.06033"></scales>
<clustering>
<clus scale="   41.664">  1  3  2 -1</clus>
<clus scale="   53.458">  2  5  1 -1</clus>
<clus scale="  107.060">  1  6  2 -1</clus>
<clus scale="   41.664">  1  3  2 -1</clus>
</clustering>
</event>
<event>
 6    0  0.3446372E+002  0.1391007E+03  0.7546771E-02  0.1214544E+00
         21   -1    0    0  506  501  0.00000000000E+00  0.00000000000E+00  0.21097280006E+04  0.21097280006E+04  0.00000000000E+00 0. -1.
         21   -1    0    0  505  502 -0.00000000000E+00 -0.00000000000E+00 -0.10634382384E+03  0.10634382384E+03  0.00000000000E+00 0. -1.
         21    1    1    2  503  504 -0.70498171974E+02 -0.12878965397E+02 -0.39073503747E+02  0.81624743163E+02  0.00000000000E+00 0. -1.
         21    1    1    2  504  502 -0.65533387902E+02  0.13304438556E+02 -0.15591282893E+02  0.68663826848E+02  0.00000000000E+00 0. -1.
         21    1    1    2  505  501  0.37817295391E+02 -0.77731930019E+01  0.14053830922E+03  0.14574493720E+03  0.00000000000E+00 0.  1.
         21    1    1    2  506  503  0.98214264485E+02  0.73477198433E+01  0.19175106542E+04  0.19200383172E+04  0.00000000000E+00 0. -1.
<scales pt_clust_3="31.94495" pt_clust_4="31.94495" pt_clust_5="38.60791" pt_clust_6="135.11235"></scales>
<clustering>
<clus scale="   31.945">  3  4 -1 -1</clus>
<clus scale="   38.608">  1  5  2 -1</clus>
<clus scale="  135.112">  1  6  2 -1</clus>
<clus scale="   38.608">  1  3  2 -1</clus>
</clustering>
</event>
<event>
 6    0  0.3446372E+002  0.9531347E+02  0.7546771E-02  0.1290472E+00
         21   -1    0    0  504  501  0.00000000000E+00  0.00000000000E+00  0.10628647125E+03  0.10628647125E+03  0.00000000000E+00 0.  1.
         21   -1    0    0  503  502 -0.00000000000E+00 -0.00000000000E+00 -0.16669158946E+04  0.16669158946E+04  0.00000000000E+00 0.  1.
         21    1    1    2  503  506  0.34479385965E+02  0.19664035287E+01 -0.13551879864E+04  0.13556279627E+04  0.00000000000E+00 0.  1.
         21    1    1    2  504  502 -0.11941371778E+03 -0.33497032596E+01  0.51868849518E+02  0.13023530265E+03  0.00000000000E+00 0.  1.
         21    1    1    2  505  501  0.22886497224E+02 -0.25425090957E+02 -0.17977223011E+02  0.38644631613E+02  0.00000000000E+00 0.  1.
         21    1    1    2  506  505  0.62047834594E+02  0.26808390687E+02 -0.23933306344E+03  0.24869446886E+03  0.00000000000E+00 0.  1.
<scales pt_clust_3="34.58453" pt_clust_4="95.31347" pt_clust_5="34.20858" pt_clust_6="14000.00000"></scales>
<clustering>
<clus scale="   34.209">  1  5  2 -1</clus>
<clus scale="   34.585">  2  3  1 -1</clus>
<clus scale="   95.313">  1  4  2 -1</clus>
<clus scale="   34.209">  1  3  2 -1</clus>
</clustering>
</event>
<event>
 6    0  0.3446372E+002  0.7034792E+02  0.7546771E-02  0.1358914E+00
         21   -1    0    0  504  501  0.00000000000E+00  0.00000000000E+00  0.14024171761E+04  0.14024171761E+04  0.00000000000E+00 0. -1.
         21   -1    0    0  505  502 -0.00000000000E+00 -0.00000000000E+00 -0.26908100030E+02  0.26908100030E+02  0.00000000000E+00 0. -1.
         21    1    1    2  503  506 -0.63100381207E+02  0.38294505037E+02  0.14685007655E+03  0.16435653990E+03  0.00000000000E+00 0. -1.
         21    1    1    2  504  502  0.20724693362E+02  0.45769857836E+02  0.18844582620E+03  0.19502877279E+03  0.00000000000E+00 0.  1.
         21    1    1    2  505  503  0.48037009164E+02 -0.26445532437E+01  0.30564101787E+02  0.56997475640E+02  0.00000000000E+00 0. -1.
         21    1    1    2  506  501 -0.56613213196E+01 -0.81419809629E+02  0.10096490715E+04  0.10129424878E+04  0.00000000000E+00 0. -1.
<scales pt_clust_3="48.87636" pt_clust_4="70.34792" pt_clust_5="48.10975" pt_clust_6="14000.00000"></scales>
<clustering>
<clus scale="   48.110">  2  5  1 -1</clus>
<clus scale="   48.876">  2  3  1 -1</clus>
<clus scale="   70.348">  2  4  1 -1</clus>
<clus scale="   70.348">  1  3  2 -1</clus>
</clustering>
</event>
<event>
 6    0  0.3446372E+002  0.8065168E+02  0.7546771E-02  0.1327212E+00
         21   -1    0    0  506  501  0.00000000000E+00  0.00000000000E+00  0.13043392295E+04  0.13043392295E+04  0.00000000000E+00 0.  1.
         21   -1    0    0  505  502 -0.00000000000E+00 -0.00000000000E+00 -0.62870501980E+02  0.62870501980E+02  0.00000000000E+00 0. -1.
         21    1    1    2  503  504  0.37689528980E+01 -0.72686349390E+02  0.12009598621E+02  0.73768156088E+02  0.00000000000E+00 0. -1.
         21    1    1    2  504  502  0.34703837091E+02  0.21676311149E+01 -0.14915519318E+02  0.37835534224E+02  0.00000000000E+00 0. -1.
         21    1    1    2  505  501 -0.40939949351E+02  0.11257184425E+03  0.10441185503E+04  0.10509671958E+04  0.00000000000E+00 0.  1.
         21    1    1    2  506  503  0.24671593616E+01 -0.42053125977E+02  0.20025609795E+03  0.20463884540E+03  0.00000000000E+00 0. -1.
<scales pt_clust_3="14000.00000" pt_clust_4="34.77147" pt_clust_5="80.65168" pt_clust_6="42.16926"></scales>
<clustering>
<clus scale="   34.771">  2  4  1 -1</clus>
<clus scale="   42.169">  1  6  2 -1</clus>
<clus scale="   80.652">  1  5  2 -1</clus>
<clus scale="   42.169">  1  3  2 -1</clus>
</clustering>
</event>
<event>
 6    0  0.3446372E+002  0.9059640E+02  0.7546771E-02  0.1301414E+00
         21   -1    0    0  504  501  0.00000000000E+00  0.00000000000E+00  0.11103688460E+04  0.11103688460E+04  0.00000000000E+00 0.  1.
         21   -1    0    0  505  502 -0.00000000000E+00 -0.00000000000E+00 -0.64699137129E+02  0.64699137129E+02  0.00000000000E+00 0.  1.
         21    1    1    2  503  502 -0.26616149332E+01 -0.46927480578E+02  0.13770861929E+02  0.48978661330E+02  0.00000000000E+00 0.  1.
         21    1    1    2  504  506 -0.56030993488E+02 -0.66254166087E+02  0.81406708597E+03  0.81867839059E+03  0.00000000000E+00 0.  1.
         21    1    1    2  505  501  0.32666497203E+02 -0.20549460640E+02 -0.11842442046E+02  0.40368599254E+02  0.00000000000E+00 0.  1.
         21    1    1    2  506  503  0.26026111218E+02  0.13373110730E+03  0.22967420303E+03  0.26704233197E+03  0.00000000000E+00 0.  1.
<scales pt_clust_3="57.61569" pt_clust_4="90.59640" pt_clust_5="38.59249" pt_clust_6="14000.00000"></scales>
<clustering>
<clus scale="   38.592">  2  5  1 -1</clus>
<clus scale="   57.616">  2  3  1 -1</clus>
<clus scale="   90.596">  1  4  2 -1</clus>
<clus scale="   90.596">  1  3  2 -1</clus>
</clustering>
</event>
<event>
 6    0  0.3446372E+002  0.1047488E+03  0.7546771E-02  0.1270615E+00
         21   -1    0    0  503  501  0.00000000000E+00  0.00000000000E+00  0.36751990113E+02  0.36751990113E+02  0.00000000000E+00 0. -1.
         21   -1    0    0  506  502 -0.00000000000E+00 -0.00000000000E+00 -0.29318620526E+04  0.29318620526E+04  0.00000000000E+00 0.  1.
         21    1    1    2  503  502  0.16200293494E+03 -0.14920262497E+02 -0.23298560540E+04  0.23355292329E+04  0.00000000000E+00 0.  1.
         21    1    1    2  504  501 -0.10237991696E+03 -0.44138194588E+01 -0.65804388106E+02  0.12178401658E+03  0.00000000000E+00 0. -1.
         21    1    1    2  505  504 -0.48804749921E+02 -0.31061733172E+02 -0.25625560983E+03  0.26270453451E+03  0.00000000000E+00 0.  1.
         21    1    1    2  506  505 -0.10818268058E+02  0.50395815128E+02 -0.24319401049E+03  0.24859625871E+03  0.00000000000E+00 0.  1.
<scales pt_clust_3="14000.00000" pt_clust_4="104.74879" pt_clust_5="56.31245" pt_clust_6="51.54389"></scales>
<clustering>
<clus scale="   51.544">  2  6  1 -1</clus>
<clus scale="   56.312">  2  5  1 -1</clus>
<clus scale="  104.749">  1  4  2 -1</clus>
<clus scale="  104.749">  1  3  2 -1</clus>
</clustering>
</event>
<event>
 6    0  0.3446372E+002  0.1219510E+03  0.7546771E-02  0.1239913E+00
         21   -1    0    0  505  501  0.00000000000E+00  0.00000000000E+00  0.70118618404E+03  0.70118618404E+03  0.00000000000E+00 0. -1.
         21   -1    0    0  503  502 -0.00000000000E+00 -0.00000000000E+00 -0.15160270725E+03  0.15160270725E+03  0.00000000000E+00 0.  1.
         21    1    1    2  503  506  0.31694531585E+02 -0.10654482881E+03 -0.19201435771E+02  0.11280531466E+03  0.00000000000E+00 0.  1.
         21    1    1    2  504  502 -0.11832565987E+02  0.14640098791E+03  0.45407928979E+02  0.15373723977E+03  0.00000000000E+00 0.  1.
         21    1    1    2  505  504  0.56504173674E+02 -0.19214138057E+02  0.50029311683E+03  0.50384035914E+03  0.00000000000E+00 0. -1.
         21    1    1    2  506  501 -0.76366139272E+02 -0.20642021038E+02  0.23083866751E+02  0.82405977720E+02  0.00000000000E+00 0.  1.
<scales pt_clust_3="121.95102" pt_clust_4="14000.00000" pt_clust_5="59.68170" pt_clust_6="66.57266"></scales>
<clustering>
<clus scale="   59.682">  1  5  2 -1</clus>
<clus scale="   66.573">  1  6  2 -1</clus>
<clus scale="  121.951">  2  3  1 -1</clus>
<clus scale="   59.682">  1  3  2 -1</clus>
</clustering>
</event>
<event>
 6    0  0.3446372E+002  0.7670592E+02  0.7546771E-02  0.1338668E+00
         21   -1    0    0  505  501  0.00000000000E+00  0.00000000000E+00  0.54781815656E+03  0.54781815656E+03  0.00000000000E+00 0.  1.
         21   -1    0    0  504  502 -0.00000000000E+00 -0.00000000000E+00 -0.36557889204E+03  0.36557889204E+03  0.00000000000E+00 0.  1.
         21    1    1    2  503  502 -0.68628277067E+02  0.53283146808E+02  0.18828793704E+02  0.88901392673E+02  0.00000000000E+00 0.  1.
         21    1    1    2  504  506 -0.34868839173E+00 -0.39770565593E+02 -0.31519919559E+03  0.31769852435E+03  0.00000000000E+00 0.  1.
         21    1    1    2  505  503  0.11150888987E+03 -0.55715910872E+01  0.41579095603E+03  0.43051991158E+03  0.00000000000E+00 0.  1.
         21    1    1    2  506  501 -0.42531924416E+02 -0.79409901278E+01  0.62818710378E+02  0.76277220009E+02  0.00000000000E+00 0. -1.
<scales pt_clust_3="76.70592" pt_clust_4="39.77209" pt_clust_5="14000.00000" pt_clust_6="44.63492"></scales>
<clustering>
<clus scale="   39.772">  2  4  1 -1</clus>
<clus scale="   44.635">  1  6  2 -1</clus>
<clus scale="   76.706">  2  3  1 -1</clus>
<clus scale="   44.635">  1  3  2 -1</clus>
</clustering>
</event>
<event>
 6    0  0.3446372E+002  0.1418175E+03  0.7546771E-02  0.1210904E+00
         21   -1    0    0  503  501  0.00000000000E+00  0.00000000000E+00  0.55257605996E+03  0.55257605996E+03  0.00000000000E+00 0.  1.
         21   -1    0    0  505  502 -0.00000000000E+00 -0.00000000000E+00 -0.66055749187E+02  0.66055749187E+02  0.00000000000E+00 0.  1.
         21    1    1    2  503  504  0.10117458931E+02 -0.12844055926E+03  0.20908012223E+03  0.24558875737E+03  0.00000000000E+00 0.  1.
         21    1    1    2  504  506  0.41237818922E+01  0.41768644018E+02  0.39537899013E+02  0.57661691430E+02  0.00000000000E+00 0.  1.
         21    1    1    2  505  501  0.38395694652E+02  0.44413946187E+01  0.21043707819E+03  0.21395728366E+03  0.00000000000E+00 0.  1.
         21    1    1    2  506  502 -0.52636935475E+02  0.82230520619E+02  0.27465211343E+02  0.10142407669E+03  0.00000000000E+00 0.  1.
<scales pt_clust_3="130.47091" pt_clust_4="36.44382" pt_clust_5="38.65172" pt_clust_6="36.44382"></scales>
<clustering>
<clus scale="   36.444">  4  6 -1 -1</clus>
<clus scale="   38.652">  1  5  2 -1</clus>
<clus scale="  130.471">  1  3  2 -1</clus>
<clus scale="   38.652">  1  3  2 -1</clus>
</clustering>
</event>
<event>
 6    0  0.3446372E+002  0.1002363E+03  0.7546771E-02  0.1279800E+00
         21   -1    0    0  504  501  0.00000000000E+00  0.00000000000E+00  0.64938616436E+03  0.64938616436E+03  0.00000000000E+00 0. -1.
         21   -1    0    0  506  502 -0.00000000000E+00 -0.00000000000E+00 -0.32343140176E+03  0.32343140176E+03  0.00000000000E+00 0.  1.
         21    1    1    2  503  502 -0.74824588849E+02 -0.87089667503E+02  0.12004478491E+02  0.11544451822E+03  0.00000000000E+00 0.  1.
         21    1    1    2  504  503 -0.11963655246E+02  0.69845822344E+02  0.57427782866E+03  0.57863338344E+03  0.00000000000E+00 0. -1.
         21    1    1    2  505  501  0.48921782827E+02  0.27013856475E+02 -0.10964930769E+03  0.12306932986E+03  0.00000000000E+00 0.  1.
         21    1    1    2  506  505  0.37866461268E+02 -0.97700113160E+01 -0.15067823686E+03  0.15567033460E+03  0.00000000000E+00 0.  1.
<scales pt_clust_3="89.17118" pt_clust_4="70.86302" pt_clust_5="38.29620" pt_clust_6="38.29620"></scales>
<clustering>
<clus scale="   38.296">  5  6 -1 -1</clus>
<clus scale="   70.863">  1  4  2 -1</clus>
<clus scale="   89.171">  1  3  2 -1</clus>
<clus scale="   70.863">  1  3  2 -1</clus>
</clustering>
</event>
<event>
 6    0  0.3446372E+002  0.1010333E+03  0.7546771E-02  0.1278138E+00
         21   -1    0    0  504  501  0.00000000000E+00  0.00000000000E+00  0.51506485308E+03  0.51506485308E+03  0.00000000000E+00 0.  1.
         21   -1    0    0  505  502 -0.00000000000E+00 -0.00000000000E+00 -0.11556952571E+03  0.11556952571E+03  0.00000000000E+00 0.  1.
         21    1    1    2  503  501  0.24664585866E+02  0.26095112104E+02  0.50879274781E+02  0.62273568020E+02  0.00000000000E+00 0. -1.
         21    1    1    2  504  506 -0.58475982285E+01  0.79314374201E+02  0.37544253006E+03  0.38377344585E+03  0.00000000000E+00 0.  1.
         21    1    1    2  505  503 -0.73590722118E+02 -0.85259141603E+02 -0.48101069398E+02  0.12246807129E+03  0.00000000000E+00 0.  1.
         21    1    1    2  506  502  0.54773734481E+02 -0.20150344702E+02  0.21274591931E+02  0.62119293640E+02  0.00000000000E+00 0. -1.
<scales pt_clust_3="35.90678" pt_clust_4="101.03331" pt_clust_5="14000.00000" pt_clust_6="59.72392"></scales>
<clustering>
<clus scale="   35.907">  1  3  2 -1</clus>
<clus scale="   59.724">  2  6  1 -1</clus>
<clus scale="  101.033">  1  4  2 -1</clus>
<clus scale="   35.907">  1  3  2 -1</clus>
</clustering>
</event>
<event>
 6    0  0.3446372E+002  0.1282880E+03  0.7546771E-02  0.1230018E+00
         21   -1    0    0  505  501  0.00000000000E+00  0.00000000000E+00  0.14114599271E+03  0.14114599271E+03  0.00000000000E+00 0. -1.
         21   -1    0    0  503  502 -0.00000000000E+00 -0.00000000000E+00 -0.40865671665E+04  0.40865671665E+04  0.00000000000E+00 0. -1.
         21    1    1    2  503  504  0.54264412594E+02  0.59541484341E+01 -0.35158074138E+04  0.35162311996E+04  0.00000000000E+00 0. -1.
         21    1    1    2  504  501  0.10878758231E+03  0.67435918440E+02  0.85141772360E+02  0.15372528276E+03  0.00000000000E+00 0. -1.
         21    1    1    2  505  506 -0.12808809002E+03 -0.39494370386E+02 -0.20997370761E+03  0.24910905641E+03  0.00000000000E+00 0. -1.
         21    1    1    2  506  502 -0.34963904877E+02 -0.33895696487E+02 -0.30478182476E+03  0.30864762042E+03  0.00000000000E+00 0. -1.
<scales pt_clust_3="33.56759" pt_clust_4="14000.00000" pt_clust_5="128.28801" pt_clust_6="48.69695"></scales>
<clustering>
<clus scale="   48.697">  2  6  1 -1</clus>
<clus scale="   33.568">  2  3  1 -1</clus>
<clus scale="  128.288">  2  5  1 -1</clus>
<clus scale="  128.288">  1  3  2 -1</clus>
</clustering>
</event>
<event>
 6    0  0.3446372E+002  0.1678246E+03  0.7546771E-02  0.1180136E+00
         21   -1    0    0  506  501  0.00000000000E+00  0.00000000000E+00  0.42209543798E+03  0.42209543798E+03  0.00000000000E+00 0.  1.
         21   -1    0    0  503  502 -0.00000000000E+00 -0.00000000000E+00 -0.24920836081E+03  0.24920836081E+03  0.00000000000E+00 0. -1.
         21    1    1    2  503  504 -0.13882776114E+03  0.54304938156E+02 -0.65828679250E+02  0.16295885549E+03  0.00000000000E+00 0. -1.
         21    1    1    2  504  501  0.17222883077E+02 -0.40487079629E+02  0.28006123622E+02  0.52155290035E+02  0.00000000000E+00 0. -1.
         21    1    1    2  505  502  0.26200813585E+03  0.60470288477E+01  0.12352215231E+03  0.28972841062E+03  0.00000000000E+00 0.  1.
         21    1    1    2  506  505 -0.14040325779E+03 -0.19864887375E+02  0.87187480483E+02  0.16646124264E+03  0.00000000000E+00 0. -1.
<scales pt_clust_3="14000.00000" pt_clust_4="43.99808" pt_clust_5="167.82460" pt_clust_6="138.74247"></scales>
<clustering>
<clus scale="   43.998">  1  4  2 -1</clus>
<clus scale="  138.742">  1  6  2 -1</clus>
<clus scale="  167.825">  1  5  2 -1</clus>
<clus scale="   43.998">  1  3  2 -1</clus>
</clustering>
</event>
<event>
 6    0  0.3446372E+002  0.1424343E+03  0.7546771E-02  0.1210091E+00
         21   -1    0    0  506  501  0.00000000000E+00  0.00000000000E+00  0.76093523536E+02  0.76093523536E+02  0.00000000000E+00 0. -1.
         21   -1    0    0  503  502 -0.00000000000E+00 -0.00000000000E+00 -0.11336830786E+04  0.11336830786E+04  0.00000000000E+00 0. -1.
         21    1    1    2  503  501  0.59846325857E+02  0.11003747316E+03 -0.61752344466E+03  0.63009922466E+03  0.00000000000E+00 0. -1.
         21    1    1    2  504  505 -0.48005298207E+02 -0.70197020245E+02  0.44810262568E+01  0.85159907841E+02  0.00000000000E+00 0. -1.
         21    1    1    2  505  502  0.45596391909E+02 -0.39498129999E+02 -0.43139505897E+03  0.43559250468E+03  0.00000000000E+00 0. -1.
         21    1    1    2  506  504 -0.57437419559E+02 -0.34232291923E+00 -0.13152077731E+02  0.58924964991E+02  0.00000000000E+00 0. -1.
<scales pt_clust_3="125.28455" pt_clust_4="55.68683" pt_clust_5="60.32523" pt_clust_6="55.68683"></scales>
<clustering>
<clus scale="   55.687">  4  6 -1 -1</clus>
<clus scale="   60.325">  2  5  1 -1</clus>
<clus scale="  125.285">  2  3  1 -1</clus>
<clus scale="  142.434">  1  3  2 -1</clus>
</clustering>
</event>
<event>
 6    0  0.3446372E+002  0.8431011E+02  0.7546771E-02  0.1317247E+00
         21   -1    0    0  504  501  0.00000000000E+00  0.00000000000E+00  0.47934244623E+03  0.47934244623E+03  0.00000000000E+00 0. -1.
         21   -1    0    0  506  502 -0.00000000000E+00 -0.00000000000E+00 -0.74221437161E+02  0.74221437161E+02  0.00000000000E+00 0. -1.
         21    1    1    2  503  505 -0.23625013615E+02  0.49434361604E+02  0.13493992735E+03  0.14563887314E+03  0.00000000000E+00 0. -1.
         21    1    1    2  504  503  0.29030441658E+02 -0.17467225619E+02  0.22374793299E+03  0.22629849322E+03  0.00000000000E+00 0. -1.
         21    1    1    2  505  502  0.79995210646E+02 -0.32567941345E+02  0.42174632186E+02  0.96117657742E+02  0.00000000000E+00 0. -1.
         21    1    1    2  506  501 -0.85400638689E+02  0.60080536017E+00  0.42585165454E+01  0.85508859300E+02  0.00000000000E+00 0. -1.
<scales pt_clust_3="40.52019" pt_clust_4="33.88024" pt_clust_5="84.31011" pt_clust_6="14000.00000"></scales>
<clustering>
<clus scale="   33.880">  1  4  2 -1</clus>
<clus scale="   40.520">  1  3  2 -1</clus>
<clus scale="   84.310">  1  5  2 -1</clus>
<clus scale="   33.880">  1  3  2 -1</clus>
</clustering>
</event>
<event>
 6    0  0.3446372E+002  0.1092818E+03  0.7546771E-02  0.1261906E+00
         21   -1    0    0  503  501  0.00000000000E+00  0.00000000000E+00  0.13270519435E+04  0.13270519435E+04  0.00000000000E+00 0.  1.
         21   -1    0    0  506  502 -0.00000000000E+00 -0.00000000000E+00 -0.32419803642E+02  0.32419803642E+02  0.00000000000E+00 0. -1.
         21    1    1    2  503  504 -0.31404415056E+02 -0.37702686544E+02  0.57826751856E+03  0.58034563226E+03  0.00000000000E+00 0.  1.
         21    1    1    2  504  502 -0.25647326492E+01  0.50105018874E+02  0.17374091666E+03  0.18083969943E+03  0.00000000000E+00 0.  1.
         21    1    1    2  505  501 -0.83674003344E+02 -0.19015426810E+02  0.41824790920E+03  0.42695929412E+03  0.00000000000E+00 0.  1.
         21    1    1    2  506  505  0.11764315105E+03  0.66130944794E+01  0.12437579542E+03  0.17132712130E+03  0.00000000000E+00 0. -1.
<scales pt_clust_3="49.06862" pt_clust_4="42.36544" pt_clust_5="109.28176" pt_clust_6="14000.00000"></scales>
<clustering>
<clus scale="   49.069">  1  3  2 -1</clus>
<clus scale="   42.365">  1  4  2 -1</clus>
<clus scale="  109.282">  1  5  2 -1</clus>
<clus scale="   49.069">  1  3  2 -1</clus>
</clustering>
</event>
<event>
 6    0  0.3446372E+002  0.7871897E+02  0.7546771E-02  0.1332727E+00
         21   -1    0    0  503  501  0.00000000000E+00  0.00000000000E+00  0.71128196576E+03  0.71128196576E+03  0.00000000000E+00 0. -1.
         21   -1    0    0  505  502 -0.00000000000E+00 -0.00000000000E+00 -0.10993815660E+03  0.10993815660E+03  0.00000000000E+00 0. -1.
         21    1    1    2  503  504 -0.70671906060E+02 -0.33795438804E+02  0.19137793603E+03  0.20679014577E+03  0.00000000000E+00 0. -1.
         21    1    1    2  504  502 -0.83555934274E+02  0.42246702756E+02  0.52717285765E+02  0.10744994306E+03  0.00000000000E+00 0. -1.
         21    1    1    2  505  506  0.60255761018E+02  0.31034935792E+02 -0.51873720513E+02  0.85351079989E+02  0.00000000000E+00 0. -1.
         21    1    1    2  506  501  0.93972079316E+02 -0.39486199744E+02  0.40912230787E+03  0.42162895353E+03  0.00000000000E+00 0. -1.
<scales pt_clust_3="65.70455" pt_clust_4="78.71897" pt_clust_5="67.77849" pt_clust_6="14000.00000"></scales>
<clustering>
<clus scale="   67.778">  2  5  1 -1</clus>
<clus scale="   65.705">  1  3  2 -1</clus>
<clus scale="   78.719">  2  4  1 -1</clus>
<clus scale="   65.705">  1  3  2 -1</clus>
</clustering>
</event>
<event>
 6    0  0.3446372E+002  0.1151820E+03  0.7546771E-02  0.1251264E+00
         21   -1    0    0  504  501  0.00000000000E+00  0.00000000000E+00  0.19009387936E+04  0.19009387936E+04  0.00000000000E+00 0.  1.
         21   -1    0    0  503  502 -0.00000000000E+00 -0.00000000000E+00 -0.30616521634E+03  0.30616521634E+03  0.00000000000E+00 0.  1.
         21    1    1    2  503  506 -0.75006795187E+02  0.30701716759E+02 -0.54510634782E+02  0.97673046643E+02  0.00000000000E+00 0. -1.
         21    1    1    2  504  505  0.13598038313E+03 -0.15969266534E+03  0.13550489577E+04  0.13711856511E+04  0.00000000000E+00 0.  1.
         21    1    1    2  505  502 -0.16010005612E+02  0.43754703657E+02 -0.21499046281E+03  0.21998112071E+03  0.00000000000E+00 0.  1.
         21    1    1    2  506  501 -0.44963582328E+02  0.85236244927E+02  0.50922571717E+03  0.51826419152E+03  0.00000000000E+00 0.  1.
<scales pt_clust_3="14000.00000" pt_clust_4="115.18198" pt_clust_5="46.59178" pt_clust_6="98.72219"></scales>
<clustering>
<clus scale="   46.592">  2  5  1 -1</clus>
<clus scale="   98.722">  1  6  2 -1</clus>
<clus scale="  115.182">  1  4  2 -1</clus>
<clus scale="   98.722">  1  3  2 -1</clus>
</clustering>
</event>
<event>
 6    0  0.3446372E+002  0.1084510E+03  0.7546771E-02  0.1263466E+00
         21   -1    0    0  505  501  0.00000000000E+00  0.00000000000E+00  0.18517805364E+03  0.18517805364E+03  0.00000000000E+00 0. -1.
         21   -1    0    0  504  502 -0.00000000000E+00 -0.00000000000E+00 -0.28638162989E+03  0.28638162989E+03  0.00000000000E+00 0. -1.
         21    1    1    2  503  501  0.56839253996E+02  0.39662673235E+02  0.54030387515E+02  0.87881233594E+02  0.00000000000E+00 0. -1.
         21    1    1    2  504  503  0.43487059535E+02 -0.69747362355E+02 -0.13940964592E+03  0.16183593012E+03  0.00000000000E+00 0. -1.
         21    1    1    2  505  506 -0.58403685989E+02  0.90952156472E+02  0.53416112205E+02  0.12056768368E+03  0.00000000000E+00 0.  1.
         21    1    1    2  506  502 -0.41922627542E+02 -0.60867467353E+02 -0.69240430051E+02  0.10127483614E+03  0.00000000000E+00 0. -1.
<scales pt_clust_3="69.30966" pt_clust_4="108.45097" pt_clust_5="14000.00000" pt_clust_6="64.89577"></scales>
<clustering>
<clus scale="   69.310">  1  3  2 -1</clus>
<clus scale="   64.896">  2  6  1 -1</clus>
<clus scale="  108.451">  2  4  1 -1</clus>
<clus scale="   69.310">  1  3  2 -1</clus>
</clustering>
</event>
<event>
 6    0  0.3446372E+002  0.4379476E+03  0.7546771E-02  0.1031378E+00
         21   -1    0    0  504  501  0.00000000000E+00  0.00000000000E+00  0.97783279539E+03  0.97783279539E+03  0.00000000000E+00 0.  1.
         21   -1    0    0  506  502 -0.00000000000E+00 -0.00000000000E+00 -0.49495798975E+03  0.49495798975E+03  0.00000000000E+00 0.  1.
         21    1    1    2  503  502  0.33181840138E+03  0.26168793877E+03  0.15770620350E+03  0.45106016828E+03  0.00000000000E+00 0.  1.
         21    1    1    2  504  503  0.37165788872E+02 -0.58697596252E+02  0.53214639309E+03  0.53666235879E+03  0.00000000000E+00 0.  1.
         21    1    1    2  505  501 -0.29926961334E+03 -0.10967053921E+03 -0.12378077368E+03  0.34192339577E+03  0.00000000000E+00 0.  1.
         21    1    1    2  506  505 -0.69714576907E+02 -0.93319803300E+02 -0.83197017269E+02  0.14314486230E+03  0.00000000000E+00 0.  1.
<scales pt_clust_3="420.35826" pt_clust_4="69.47448" pt_clust_5="75.21251" pt_clust_6="75.21251"></scales>
<clustering>
<clus scale="   69.474">  1  4  2 -1</clus>
<clus scale="   75.213">  5  6 -1 -1</clus>
<clus scale="  420.358">  1  3  2 -1</clus>
<clus scale="   69.474">  1  3  2 -1</clus>
</clustering>
</event>
<event>
 6    0  0.3446372E+002  0.8617697E+02  0.7546771E-02  0.1312383E+00
         21   -1    0    0  504  501  0.00000000000E+00  0.00000000000E+00  0.65373279172E+02  0.65373279172E+02  0.00000000000E+00 0. -1.
         21   -1    0    0  501  502 -0.00000000000E+00 -0.00000000000E+00 -0.48536208702E+03  0.48536208702E+03  0.00000000000E+00 0. -1.
         21    1    1    2  503  505 -0.64349364260E+02 -0.97290216688E+02 -0.14469976666E+03  0.18586083346E+03  0.00000000000E+00 0. -1.
         21    1    1    2  504  503  0.78628726034E+02  0.26220104392E+02 -0.66781759495E+01  0.83153884251E+02  0.00000000000E+00 0. -1.
         21    1    1    2  505  506  0.76045710487E+01  0.42394113399E+02 -0.19558533983E+03  0.20027160435E+03  0.00000000000E+00 0. -1.
         21    1    1    2  506  502 -0.21883932823E+02  0.28675998897E+02 -0.73025525400E+02  0.81449044122E+02  0.00000000000E+00 0. -1.
<scales pt_clust_3="86.17697" pt_clust_4="14000.00000" pt_clust_5="56.38145" pt_clust_6="36.07242"></scales>
<clustering>
<clus scale="   36.072">  2  6  1 -1</clus>
<clus scale="   56.381">  2  5  1 -1</clus>
<clus scale="   86.177">  2  3  1 -1</clus>
<clus scale="   86.177">  1  3  2 -1</clus>
</clustering>
</event>
<event>
 6    0  0.3446372E+002  0.8367114E+02  0.7546771E-02  0.1318945E+00
         21   -1    0    0  503  501  0.00000000000E+00  0.00000000000E+00  0.99786765952E+02  0.99786765952E+02  0.00000000000E+00 0. -1.
         21   -1    0    0  505  502 -0.00000000000E+00 -0.00000000000E+00 -0.25985667842E+03  0.25985667842E+03  0.00000000000E+00 0. -1.
         21    1    1    2  503  504  0.41422493404E+02 -0.56815179804E+02 -0.23279178549E+02  0.74065563995E+02  0.00000000000E+00 0. -1.
         21    1    1    2  504  502 -0.27046307550E+01 -0.67141180186E+02 -0.89066667240E+02  0.11157116257E+03  0.00000000000E+00 0. -1.
         21    1    1    2  505  506 -0.72654715670E+02  0.79592105919E+02 -0.48424520933E+02  0.11814628755E+03  0.00000000000E+00 0. -1.
         21    1    1    2  506  501  0.33936853021E+02  0.44364254071E+02  0.70045425614E+00  0.55860430257E+02  0.00000000000E+00 0. -1.
<scales pt_clust_3="83.67114" pt_clust_4="60.21772" pt_clust_5="14000.00000" pt_clust_6="55.85604"></scales>
<clustering>
<clus scale="   55.856">  1  6  2 -1</clus>
<clus scale="   60.218">  2  4  1 -1</clus>
<clus scale="   83.671">  1  3  2 -1</clus>
<clus scale="   55.856">  1  3  2 -1</clus>
</clustering>
</event>
<event>
 6    0  0.3446372E+002  0.1388726E+03  0.7546771E-02  0.1214854E+00
         21   -1    0    0  504  501  0.00000000000E+00  0.00000000000E+00  0.20698979536E+03  0.20698979536E+03  0.00000000000E+00 0. -1.
         21   -1    0    0  506  502 -0.00000000000E+00 -0.00000000000E+00 -0.48294301132E+03  0.48294301132E+03  0.00000000000E+00 0.  1.
         21    1    1    2  503  505 -0.29119815234E+02  0.45182887612E+02 -0.12825506300E+03  0.13906407932E+03  0.00000000000E+00 0.  1.
         21    1    1    2  504  503  0.37601092233E+02 -0.90081779241E+01  0.15781840599E+02  0.41761895303E+02  0.00000000000E+00 0.  1.
         21    1    1    2  505  502 -0.72795910760E+02  0.42109650132E+02 -0.31544596683E+03  0.32646381920E+03  0.00000000000E+00 0.  1.
         21    1    1    2  506  501  0.64314633761E+02 -0.78284359820E+02  0.15196597328E+03  0.18264301285E+03  0.00000000000E+00 0. -1.
<scales pt_clust_3="34.28315" pt_clust_4="38.66509" pt_clust_5="34.28315" pt_clust_6="132.08622"></scales>
<clustering>
<clus scale="   34.283">  3  5 -1 -1</clus>
<clus scale="   38.665">  1  4  2 -1</clus>
<clus scale="  132.086">  1  6  2 -1</clus>
<clus scale="   38.665">  1  3  2 -1</clus>
</clustering>
</event>
<event>
 6    0  0.3446372E+002  0.1049095E+03  0.7546771E-02  0.1270298E+00
         21   -1    0    0  506  501  0.00000000000E+00  0.00000000000E+00  0.10450245924E+04  0.10450245924E+04  0.00000000000E+00 0. -1.
         21   -1    0    0  504  502 -0.00000000000E+00 -0.00000000000E+00 -0.17413626546E+03  0.17413626546E+03  0.00000000000E+00 0. -1.
         21    1    1    2  503  501  0.86837991770E+02  0.50208340346E+02  0.74522270815E+03  0.75194321527E+03  0.00000000000E+00 0. -1.
         21    1    1    2  504  505 -0.39900881658E+01 -0.34457708685E+02 -0.13400049704E+03  0.13841744000E+03  0.00000000000E+00 0. -1.
         21    1    1    2  505  503  0.24148618536E+02  0.59170367339E+02  0.47412285582E+02  0.79575203250E+02  0.00000000000E+00 0. -1.
         21    1    1    2  506  502 -0.10699652214E+03 -0.74920999000E+02  0.21225383028E+03  0.24922499937E+03  0.00000000000E+00 0. -1.
<scales pt_clust_3="14000.00000" pt_clust_4="34.68796" pt_clust_5="49.89894" pt_clust_6="104.90950"></scales>
<clustering>
<clus scale="   34.688">  2  4  1 -1</clus>
<clus scale="   49.899">  2  5  1 -1</clus>
<clus scale="  104.910">  2  6  1 -1</clus>
<clus scale="  104.910">  1  3  2 -1</clus>
</clustering>
</event>
<event>
 6    0  0.3446372E+002  0.3246028E+03  0.7546771E-02  0.1073550E+00
         21   -1    0    0  503  501  0.00000000000E+00  0.00000000000E+00  0.10835353705E+04  0.10835353705E+04  0.00000000000E+00 0.  1.
         21   -1    0    0  504  502 -0.00000000000E+00 -0.00000000000E+00 -0.12561365774E+03  0.12561365774E+03  0.00000000000E+00 0.  1.
         21    1    1    2  503  502  0.10351778893E+03 -0.30843956573E+03  0.22237225250E+03  0.39408161212E+03  0.00000000000E+00 0.  1.
         21    1    1    2  504  506 -0.75527818973E+02  0.23049960598E+03  0.50835755322E+03  0.56326008355E+03  0.00000000000E+00 0.  1.
         21    1    1    2  505  501 -0.36648606468E+02  0.86843953507E+01  0.97613838195E+02  0.10462791447E+03  0.00000000000E+00 0.  1.
         21    1    1    2  506  505  0.86586365114E+01  0.69255564400E+02  0.12957806880E+03  0.14717941806E+03  0.00000000000E+00 0.  1.
<scales pt_clust_3="319.26350" pt_clust_4="31.45156" pt_clust_5="37.66350" pt_clust_6="31.45156"></scales>
<clustering>
<clus scale="   31.452">  4  6 -1 -1</clus>
<clus scale="   37.663">  1  5  2 -1</clus>
<clus scale="  319.263">  2  3  1 -1</clus>
<clus scale="   37.663">  1  3  2 -1</clus>
</clustering>
</event>
<event>
 6    0  0.3446372E+002  0.1357215E+03  0.7546771E-02  0.1219205E+00
         21   -1    0    0  506  501  0.00000000000E+00  0.00000000000E+00  0.36761530004E+02  0.36761530004E+02  0.00000000000E+00 0.  1.
         21   -1    0    0  505  502 -0.00000000000E+00 -0.00000000000E+00 -0.11865415759E+04  0.11865415759E+04  0.00000000000E+00 0.  1.
         21    1    1    2  503  502  0.52057794045E+02  0.41210614292E+02 -0.29827036571E+03  0.30557084238E+03  0.00000000000E+00 0. -1.
         21    1    1    2  504  503 -0.41780802228E+01  0.45893864519E+02 -0.16139649588E+03  0.16784675164E+03  0.00000000000E+00 0. -1.
         21    1    1    2  505  501 -0.69994431388E+02 -0.14137682052E+03 -0.66938467720E+03  0.68772267075E+03  0.00000000000E+00 0.  1.
         21    1    1    2  506  504  0.22114717566E+02  0.54272341709E+02 -0.20728507080E+02  0.62162841098E+02  0.00000000000E+00 0.  1.
<scales pt_clust_3="45.25692" pt_clust_4="45.25692" pt_clust_5="124.37599" pt_clust_6="58.60502"></scales>
<clustering>
<clus scale="   45.257">  3  4 -1 -1</clus>
<clus scale="   58.605">  1  6  2 -1</clus>
<clus scale="  124.376">  1  5  2 -1</clus>
<clus scale="   58.605">  1  3  2 -1</clus>
</clustering>
</event>
<event>
 6    0  0.3446372E+002  0.2551412E+03  0.7546771E-02  0.1110098E+00
         21   -1    0    0  503  501  0.00000000000E+00  0.00000000000E+00  0.31407789734E+03  0.31407789734E+03  0.00000000000E+00 0.  1.
         21   -1    0    0  506  502 -0.00000000000E+00 -0.00000000000E+00 -0.71519381502E+03  0.71519381502E+03  0.00000000000E+00 0. -1.
         21    1    1    2  503  504 -0.25418811756E+03 -0.13418577646E+03  0.18264402381E+03  0.34055287570E+03  0.00000000000E+00 0.  1.
         21    1    1    2  504  505  0.14781341585E+03  0.62359817735E+02 -0.46472218926E+03  0.49163428070E+03  0.00000000000E+00 0. -1.
         21    1    1    2  505  502  0.73824266639E+02  0.34447969785E+02 -0.12281335594E+03  0.14737640708E+03  0.00000000000E+00 0. -1.
         21    1    1    2  506  501  0.32550435075E+02  0.37377988945E+02  0.37756037079E+01  0.49708148874E+02  0.00000000000E+00 0.  1.
<scales pt_clust_3="245.87678" pt_clust_4="48.54912" pt_clust_5="48.54912" pt_clust_6="49.56455"></scales>
<clustering>
<clus scale="   48.549">  4  5 -1 -1</clus>
<clus scale="   49.565">  1  6  2 -1</clus>
<clus scale="  245.877">  1  3  2 -1</clus>
<clus scale="   49.565">  1  3  2 -1</clus>
</clustering>
</event>
<event>
 6    0  0.3446372E+002  0.9174439E+02  0.7546771E-02  0.1298682E+00
         21   -1    0    0  506  501  0.00000000000E+00  0.00000000000E+00  0.85804794585E+03  0.85804794585E+03  0.00000000000E+00 0. -1.
         21   -1    0    0  503  502 -0.00000000000E+00 -0.00000000000E+00 -0.48058019072E+02  0.48058019072E+02  0.00000000000E+00 0. -1.
         21    1    1    2  503  504  0.10456870114E+03  0.69514061667E+02  0.12496904172E+03  0.17715552325E+03  0.00000000000E+00 0. -1.
         21    1    1    2  504  501 -0.61324525988E+02  0.20787556554E+02  0.23909220913E+03  0.24770527742E+03  0.00000000000E+00 0. -1.
         21    1    1    2  505  502 -0.29647878388E+02 -0.16165742791E+02  0.52586374075E+01  0.34175739938E+02  0.00000000000E+00 0. -1.
         21    1    1    2  506  505 -0.13596296765E+02 -0.74135875429E+02  0.44067003852E+03  0.44706942432E+03  0.00000000000E+00 0. -1.
<scales pt_clust_3="91.74439" pt_clust_4="67.76048" pt_clust_5="33.76874" pt_clust_6="14000.00000"></scales>
<clustering>
<clus scale="   33.769">  2  5  1 -1</clus>
<clus scale="   67.760">  1  4  2 -1</clus>
<clus scale="   91.744">  2  3  1 -1</clus>
<clus scale="   67.760">  1  3  2 -1</clus>
</clustering>
</event>
<event>
 6    0  0.3446372E+002  0.9710219E+02  0.7546771E-02  0.1286510E+00
         21   -1    0    0  505  501  0.00000000000E+00  0.00000000000E+00  0.39554853067E+03  0.39554853067E+03  0.00000000000E+00 0. -1.
         21   -1    0    0  503  502 -0.00000000000E+00 -0.00000000000E+00 -0.78519913560E+02  0.78519913560E+02  0.00000000000E+00 0. -1.
         21    1    1    2  503  506  0.52060141021E+02  0.50078781684E+02  0.68714849057E+02  0.99698912426E+02  0.00000000000E+00 0. -1.
         21    1    1    2  504  502  0.55123088515E+01 -0.10358659501E+03  0.37998381440E+02  0.11047373085E+03  0.00000000000E+00 0. -1.
         21    1    1    2  505  504 -0.43004825390E+02  0.83515812618E+02  0.63615965604E+02  0.11345173883E+03  0.00000000000E+00 0. -1.
         21    1    1    2  506  501 -0.14567624482E+02 -0.30007999291E+02  0.14669942101E+03  0.15044406213E+03  0.00000000000E+00 0. -1.
<scales pt_clust_3="61.68959" pt_clust_4="97.10219" pt_clust_5="14000.00000" pt_clust_6="33.35709"></scales>
<clustering>
<clus scale="   33.357">  1  6  2 -1</clus>
<clus scale="   61.690">  1  3  2 -1</clus>
<clus scale="   97.102">  2  4  1 -1</clus>
<clus scale="   33.357">  1  3  2 -1</clus>
</clustering>
</event>
<event>
 6    0  0.3446372E+002  0.1154980E+03  0.7546771E-02  0.1250714E+00
         21   -1    0    0  503  501  0.00000000000E+00  0.00000000000E+00  0.75181154635E+02  0.75181154635E+02  0.00000000000E+00 0.  1.
         21   -1    0    0  504  502 -0.00000000000E+00 -0.00000000000E+00 -0.76540486292E+03  0.76540486292E+03  0.00000000000E+00 0.  1.
         21    1    1    2  503  506 -0.14557336971E+03  0.11148715894E+02 -0.62182584591E+02  0.15869018136E+03  0.00000000000E+00 0.  1.
         21    1    1    2  504  501  0.30654680376E+02 -0.88146959401E+02 -0.23442828910E+03  0.25232165704E+03  0.00000000000E+00 0.  1.
         21    1    1    2  505  502  0.50389926961E+02  0.51575196473E-01 -0.24555774577E+03  0.25067459765E+03  0.00000000000E+00 0.  1.
         21    1    1    2  506  505  0.64528762369E+02  0.76946668310E+02 -0.14805508883E+03  0.17889958151E+03  0.00000000000E+00 0.  1.
<scales pt_clust_3="14000.00000" pt_clust_4="103.54159" pt_clust_5="50.38995" pt_clust_6="115.49805"></scales>
<clustering>
<clus scale="   50.390">  2  5  1 -1</clus>
<clus scale="  103.542">  2  4  1 -1</clus>
<clus scale="  115.498">  2  6  1 -1</clus>
<clus scale="  115.498">  1  3  2 -1</clus>
</clustering>
</event>
<event>
 6    0  0.3446372E+002  0.1936879E+03  0.7546771E-02  0.1155177E+00
         21   -1    0    0  503  501  0.00000000000E+00  0.00000000000E+00  0.10046477068E+04  0.10046477068E+04  0.00000000000E+00 0. -1.
         21   -1    0    0  506  502 -0.00000000000E+00 -0.00000000000E+00 -0.25408694159E+03  0.25408694159E+03  0.00000000000E+00 0. -1.
         21    1    1    2  503  504  0.22035239489E+02  0.18326740894E+03  0.93474096822E+03  0.95279230299E+03  0.00000000000E+00 0. -1.
         21    1    1    2  504  505 -0.19170621346E+02 -0.86130485556E+02 -0.15825998344E+03  0.18119656626E+03  0.00000000000E+00 0. -1.
         21    1    1    2  505  502  0.14519587027E+02 -0.64873702180E+02 -0.47966695888E+02  0.81976945274E+02  0.00000000000E+00 0. -1.
         21    1    1    2  506  501 -0.17384205170E+02 -0.32263221204E+02  0.22046476278E+02  0.42768833841E+02  0.00000000000E+00 0. -1.
<scales pt_clust_3="183.32496" pt_clust_4="50.62578" pt_clust_5="50.62578" pt_clust_6="36.64868"></scales>
<clustering>
<clus scale="   36.649">  2  6  1 -1</clus>
<clus scale="   50.626">  4  5 -1 -1</clus>
<clus scale="  183.325">  1  3  2 -1</clus>
<clus scale="  183.325">  1  3  2 -1</clus>
</clustering>
</event>
<event>
 6    0  0.3446372E+002  0.1098939E+03  0.7546771E-02  0.1260766E+00
         21   -1    0    0  506  501  0.00000000000E+00  0.00000000000E+00  0.19006291102E+04  0.19006291102E+04  0.00000000000E+00 0.  1.
         21   -1    0    0  505  502 -0.00000000000E+00 -0.00000000000E+00 -0.68850055087E+02  0.68850055087E+02  0.00000000000E+00 0. -1.
         21    1    1    2  503  501 -0.13312063862E+03 -0.52468151834E+01  0.12001450614E+04  0.12075167916E+04  0.00000000000E+00 0.  1.
         21    1    1    2  504  502  0.13310322138E+03  0.79639259292E+02  0.67141481389E+02  0.16901732954E+03  0.00000000000E+00 0. -1.
         21    1    1    2  505  503 -0.30311916672E+02 -0.68653054087E+02  0.88854145571E+02  0.11630611898E+03  0.00000000000E+00 0. -1.
         21    1    1    2  506  504  0.30329333916E+02 -0.57393900222E+01  0.47563836669E+03  0.47663892515E+03  0.00000000000E+00 0. -1.
<scales pt_clust_3="14000.00000" pt_clust_4="109.89390" pt_clust_5="74.57438" pt_clust_6="30.86761"></scales>
<clustering>
<clus scale="   30.868">  1  6  2 -1</clus>
<clus scale="   74.574">  2  5  1 -1</clus>
<clus scale="  109.894">  2  4  1 -1</clus>
<clus scale="   30.868">  1  3  2 -1</clus>
</clustering>
</event>
<event>
 6    0  0.3446372E+002  0.9044225E+02  0.7546771E-02  0.1301784E+00
         21   -1    0    0  503  501  0.00000000000E+00  0.00000000000E+00  0.12662569529E+03  0.12662569529E+03  0.00000000000E+00 0.  1.
         21   -1    0    0  505  502 -0.00000000000E+00 -0.00000000000E+00 -0.27991078681E+03  0.27991078681E+03  0.00000000000E+00 0.  1.
         21    1    1    2  503  506  0.84093154958E+02  0.36303628171E+02  0.68804070616E+02  0.11455833563E+03  0.00000000000E+00 0.  1.
         21    1    1    2  504  501 -0.81775613907E+02 -0.21868745949E+02 -0.11668893196E+03  0.14415893979E+03  0.00000000000E+00 0.  1.
         21    1    1    2  505  504  0.82022089491E+01 -0.58100195126E+02 -0.57434218814E+02  0.82107237173E+02  0.00000000000E+00 0.  1.
         21    1    1    2  506  502 -0.10519750000E+02  0.43665312904E+02 -0.47966011355E+02  0.65711969506E+02  0.00000000000E+00 0.  1.
<scales pt_clust_3="14000.00000" pt_clust_4="90.44225" pt_clust_5="44.71350" pt_clust_6="44.91464"></scales>
<clustering>
<clus scale="   44.915">  2  6  1 -1</clus>
<clus scale="   44.713">  2  5  1 -1</clus>
<clus scale="   90.442">  2  4  1 -1</clus>
<clus scale="   90.442">  1  3  2 -1</clus>
</clustering>
</event>
<event>
 6    0  0.3446372E+002  0.8436301E+02  0.7546771E-02  0.1317107E+00
         21   -1    0    0  503  501  0.00000000000E+00  0.00000000000E+00  0.57812868102E+03  0.57812868102E+03  0.00000000000E+00 0. -1.
         21   -1    0    0  505  502 -0.00000000000E+00 -0.00000000000E+00 -0.15562749821E+03  0.15562749821E+03  0.00000000000E+00 0. -1.
         21    1    1    2  503  506  0.51434283171E+02 -0.89870995770E+01  0.43821045930E+03  0.44131016313E+03  0.00000000000E+00 0. -1.
         21    1    1    2  504  501 -0.99336629734E+01 -0.95325053861E+02  0.19684847019E+02  0.97841896730E+02  0.00000000000E+00 0. -1.
         21    1    1    2  505  504  0.64925287833E+01  0.81002994239E+02 -0.87927325718E+02  0.11972824485E+03  0.00000000000E+00 0. -1.
         21    1    1    2  506  502 -0.47993148981E+02  0.23309159199E+02  0.52533202202E+02  0.74875874520E+02  0.00000000000E+00 0. -1.
<scales pt_clust_3="52.21354" pt_clust_4="14000.00000" pt_clust_5="84.36301" pt_clust_6="30.96230"></scales>
<clustering>
<clus scale="   52.214">  1  3  2 -1</clus>
<clus scale="   30.962">  1  6  2 -1</clus>
<clus scale="   84.363">  2  5  1 -1</clus>
<clus scale="   52.214">  1  3  2 -1</clus>
</clustering>
</event>
<event>
 6    0  0.3446372E+002  0.8383061E+02  0.7546771E-02  0.1318519E+00
         21   -1    0    0  503  501  0.00000000000E+00  0.00000000000E+00  0.65994067267E+02  0.65994067267E+02  0.00000000000E+00 0.  1.
         21   -1    0    0  506  502 -0.00000000000E+00 -0.00000000000E+00 -0.18194254860E+04  0.18194254860E+04  0.00000000000E+00 0.  1.
         21    1    1    2  503  505 -0.37533640364E+02 -0.78645447027E+01  0.36050458818E+02  0.52633267079E+02  0.00000000000E+00 0.  1.
         21    1    1    2  504  501  0.96630418451E+02  0.72191418925E+02 -0.16155148507E+03  0.20161329585E+03  0.00000000000E+00 0.  1.
         21    1    1    2  505  502 -0.48130760084E+02 -0.23233519282E+02 -0.60409024132E+03  0.60644982162E+03  0.00000000000E+00 0. -1.
         21    1    1    2  506  504 -0.10966018003E+02 -0.41093354940E+02 -0.10238401512E+04  0.10247231688E+04  0.00000000000E+00 0.  1.
<scales pt_clust_3="38.34873" pt_clust_4="83.83061" pt_clust_5="14000.00000" pt_clust_6="42.88933"></scales>
<clustering>
<clus scale="   38.349">  1  3  2 -1</clus>
<clus scale="   42.889">  2  6  1 -1</clus>
<clus scale="   83.831">  1  4  2 -1</clus>
<clus scale="   38.349">  1  3  2 -1</clus>
</clustering>
</event>
<event>
 6    0  0.3446372E+002  0.1059730E+03  0.7546771E-02  0.1268214E+00
         21   -1    0    0  504  501  0.00000000000E+00  0.00000000000E+00  0.31833101963E+03  0.31833101963E+03  0.00000000000E+00 0. -1.
         21   -1    0    0  506  502 -0.00000000000E+00 -0.00000000000E+00 -0.87436723367E+02  0.87436723367E+02  0.00000000000E+00 0. -1.
         21    1    1    2  503  505 -0.28404900317E+02  0.58278274607E+02 -0.12736837838E+02  0.66071345463E+02  0.00000000000E+00 0. -1.
         21    1    1    2  504  502 -0.34354303753E+02 -0.60200158386E+02  0.14493746975E+03  0.16065848062E+03  0.00000000000E+00 0. -1.
         21    1    1    2  505  501  0.46581151987E+02 -0.48034828347E+02  0.10667544488E+03  0.12592378249E+03  0.00000000000E+00 0. -1.
         21    1    1    2  506  503  0.16178052082E+02  0.49956712126E+02 -0.79817805353E+01  0.53114134429E+02  0.00000000000E+00 0. -1.
<scales pt_clust_3="39.34864" pt_clust_4="96.53325" pt_clust_5="66.91150" pt_clust_6="39.34864"></scales>
<clustering>
<clus scale="   39.349">  3  6 -1 -1</clus>
<clus scale="   66.911">  1  5  2 -1</clus>
<clus scale="   96.533">  1  4  2 -1</clus>
<clus scale="   66.911">  1  3  2 -1</clus>
</clustering>
</event>
<event>
 6    0  0.3446372E+002  0.7191081E+02  0.7546771E-02  0.1353713E+00
         21   -1    0    0  503  501  0.00000000000E+00  0.00000000000E+00  0.32694846290E+03  0.32694846290E+03  0.00000000000E+00 0. -1.
         21   -1    0    0  504  502 -0.00000000000E+00 -0.00000000000E+00 -0.42054493032E+03  0.42054493032E+03  0.00000000000E+00 0.  1.
         21    1    1    2  503  502 -0.85723549295E+02  0.34768683785E+02  0.43023722121E+01  0.92606148190E+02  0.00000000000E+00 0. -1.
         21    1    1    2  504  506  0.50565934131E+02 -0.49427562073E+02 -0.30449926357E+03  0.31260166203E+03  0.00000000000E+00 0.  1.
         21    1    1    2  505  501 -0.22155314546E+02  0.27821761448E+02  0.26025943078E+03  0.26267828171E+03  0.00000000000E+00 0. -1.
         21    1    1    2  506  505  0.57312929711E+02 -0.13162883160E+02 -0.53659006838E+02  0.79607301298E+02  0.00000000000E+00 0.  1.
<scales pt_clust_3="14000.00000" pt_clust_4="71.91081" pt_clust_5="35.56555" pt_clust_6="53.47315"></scales>
<clustering>
<clus scale="   35.566">  1  5  2 -1</clus>
<clus scale="   53.473">  1  6  2 -1</clus>
<clus scale="   71.911">  2  4  1 -1</clus>
<clus scale="   35.566">  1  3  2 -1</clus>
</clustering>
</event>
<event>
 6    0  0.3446372E+002  0.1283968E+03  0.7546771E-02  0.1229854E+00
         21   -1    0    0  504  501  0.00000000000E+00  0.00000000000E+00  0.53555926378E+03  0.53555926378E+03  0.00000000000E+00 0.  1.
         21   -1    0    0  503  502 -0.00000000000E+00 -0.00000000000E+00 -0.31647543921E+03  0.31647543921E+03  0.00000000000E+00 0. -1.
         21    1    1    2  503  506  0.11956496137E+03  0.15133228004E+02 -0.88531463751E+02  0.14954134763E+03  0.00000000000E+00 0. -1.
         21    1    1    2  504  505 -0.94578029375E+01 -0.49024551927E+02  0.52005817809E+02  0.72093424208E+02  0.00000000000E+00 0. -1.
         21    1    1    2  505  502 -0.13556409349E+03  0.10930546107E+02 -0.16192327865E+03  0.21146216790E+03  0.00000000000E+00 0. -1.
         21    1    1    2  506  501  0.25456935061E+02  0.22960777816E+02  0.41753274916E+03  0.41893776325E+03  0.00000000000E+00 0.  1.
<scales pt_clust_3="14000.00000" pt_clust_4="37.09809" pt_clust_5="128.39678" pt_clust_6="34.28196"></scales>
<clustering>
<clus scale="   34.282">  1  6  2 -1</clus>
<clus scale="   37.098">  1  4  2 -1</clus>
<clus scale="  128.397">  2  5  1 -1</clus>
<clus scale="   34.282">  1  3  2 -1</clus>
</clustering>
</event>
<event>
 6    0  0.3446372E+002  0.1266368E+03  0.7546771E-02  0.1232533E+00
         21   -1    0    0  504  501  0.00000000000E+00  0.00000000000E+00  0.89253179774E+02  0.89253179774E+02  0.00000000000E+00 0.  1.
         21   -1    0    0  506  502 -0.00000000000E+00 -0.00000000000E+00 -0.46634949227E+03  0.46634949227E+03  0.00000000000E+00 0.  1.
         21    1    1    2  503  505 -0.64262887593E+02 -0.17318106996E+02 -0.14310602481E+03  0.15782575800E+03  0.00000000000E+00 0.  1.
         21    1    1    2  504  503  0.14200945659E+03  0.10613427545E+02 -0.34172591074E+02  0.14644827273E+03  0.00000000000E+00 0.  1.
         21    1    1    2  505  502 -0.47876701247E+02 -0.21430506325E+02 -0.20347924094E+03  0.21013149839E+03  0.00000000000E+00 0.  1.
         21    1    1    2  506  501 -0.29869867750E+02  0.28135185777E+02  0.36615443250E+01  0.41197142922E+02  0.00000000000E+00 0.  1.
<scales pt_clust_3="30.68194" pt_clust_4="121.82945" pt_clust_5="30.68194" pt_clust_6="41.03410"></scales>
<clustering>
<clus scale="   30.682">  3  5 -1 -1</clus>
<clus scale="   41.034">  1  6  2 -1</clus>
<clus scale="  121.829">  1  4  2 -1</clus>
<clus scale="   41.034">  1  3  2 -1</clus>
</clustering>
</event>
<event>
 6    0  0.3446372E+002  0.2063772E+03  0.7546771E-02  0.1144467E+00
         21   -1    0    0  506  501  0.00000000000E+00  0.00000000000E+00  0.47070960805E+03  0.47070960805E+03  0.00000000000E+00 0.  1.
         21   -1    0    0  504  502 -0.00000000000E+00 -0.00000000000E+00 -0.29199393740E+03  0.29199393740E+03  0.00000000000E+00 0.  1.
         21    1    1    2  503  502 -0.12192375297E+03  0.68952509458E+02 -0.17903545104E+03  0.22731815332E+03  0.00000000000E+00 0.  1.
         21    1    1    2  504  505 -0.58795504692E+02  0.46230273630E+02 -0.44520226636E+01  0.74926431102E+02  0.00000000000E+00 0.  1.
         21    1    1    2  505  501  0.19389551974E+03 -0.15107724431E+03  0.32002108959E+03  0.40352608851E+03  0.00000000000E+00 0.  1.
         21    1    1    2  506  503 -0.13176262077E+02  0.35894461226E+02  0.42182054756E+02  0.56932872512E+02  0.00000000000E+00 0.  1.
<scales pt_clust_3="14000.00000" pt_clust_4="77.53517" pt_clust_5="206.37723" pt_clust_6="38.23645"></scales>
<clustering>
<clus scale="   38.236">  1  6  2 -1</clus>
<clus scale="   77.535">  2  4  1 -1</clus>
<clus scale="  206.377">  1  5  2 -1</clus>
<clus scale="   38.236">  1  3  2 -1</clus>
</clustering>
</event>
<event>
 6    0  0.3446372E+002  0.9962677E+02  0.7546771E-02  0.1281083E+00
         21   -1    0    0  506  501  0.00000000000E+00  0.00000000000E+00  0.53717685423E+02  0.53717685423E+02  0.00000000000E+00 0.  1.
         21   -1    0    0  505  502 -0.00000000000E+00 -0.00000000000E+00 -0.14417197623E+04  0.14417197623E+04  0.00000000000E+00 0.  1.
         21    1    1    2  503  502 -0.18917329309E+01 -0.34565127554E+02 -0.64250264683E+03  0.64343451716E+03  0.00000000000E+00 0.  1.
         21    1    1    2  504  503  0.38571320217E+02 -0.21222418768E+02 -0.54927503377E+03  0.55103647840E+03  0.00000000000E+00 0.  1.
         21    1    1    2  505  501 -0.19077361568E+02  0.11580752830E+03 -0.26833801848E+02  0.12039677013E+03  0.00000000000E+00 0.  1.
         21    1    1    2  506  504 -0.17602225718E+02 -0.60019981981E+02 -0.16939059441E+03  0.18056968201E+03  0.00000000000E+00 0.  1.
<scales pt_clust_3="34.61686" pt_clust_4="58.45183" pt_clust_5="99.62677" pt_clust_6="14000.00000"></scales>
<clustering>
<clus scale="   34.617">  2  3  1 -1</clus>
<clus scale="   58.452">  2  4  1 -1</clus>
<clus scale="   99.627">  1  5  2 -1</clus>
<clus scale="   99.627">  1  3  2 -1</clus>
</clustering>
</event>
<event>
 6    0  0.3446372E+002  0.2028006E+03  0.7546771E-02  0.1147397E+00
         21   -1    0    0  506  501  0.00000000000E+00  0.00000000000E+00  0.39626906551E+03  0.39626906551E+03  0.00000000000E+00 0.  1.
         21   -1    0    0  505  502 -0.00000000000E+00 -0.00000000000E+00 -0.16394018235E+03  0.16394018235E+03  0.00000000000E+00 0.  1.
         21    1    1    2  503  502  0.58733624570E+00  0.73943350298E+02 -0.32615449301E+02  0.80819128616E+02  0.00000000000E+00 0.  1.
         21    1    1    2  504  503 -0.89286206384E+01  0.13107503867E+03  0.27603745814E+01  0.13140778400E+03  0.00000000000E+00 0.  1.
         21    1    1    2  505  501  0.45493677307E+02 -0.17537929369E+03  0.20359928995E+03  0.27254401883E+03  0.00000000000E+00 0.  1.
         21    1    1    2  506  504 -0.37152392914E+02 -0.29639095271E+02  0.58584667929E+02  0.75438316419E+02  0.00000000000E+00 0. -1.
<scales pt_clust_3="33.94170" pt_clust_4="33.94170" pt_clust_5="197.68985" pt_clust_6="47.52658"></scales>
<clustering>
<clus scale="   33.942">  3  4 -1 -1</clus>
<clus scale="   47.527">  1  6  2 -1</clus>
<clus scale="  197.690">  1  5  2 -1</clus>
<clus scale="   47.527">  1  3  2 -1</clus>
</clustering>
</event>
<event>
 6    0  0.3446372E+002  0.1889122E+03  0.7546771E-02  0.1159446E+00
         21   -1    0    0  503  501  0.00000000000E+00  0.00000000000E+00  0.62631785734E+03  0.62631785734E+03  0.00000000000E+00 0.  1.
         21   -1    0    0  505  502 -0.00000000000E+00 -0.00000000000E+00 -0.16387478534E+04  0.16387478534E+04  0.00000000000E+00 0. -1.
         21    1    1    2  503  504  0.10843787571E+03  0.91767829721E+02 -0.63347114429E+03  0.64920397266E+03  0.00000000000E+00 0. -1.
         21    1    1    2  504  502  0.50877448607E+02 -0.68409489896E+02 -0.84873987916E+03  0.85301099381E+03  0.00000000000E+00 0. -1.
         21    1    1    2  505  506 -0.97646630763E+00  0.81708399758E+02 -0.11889272993E+03  0.14426606430E+03  0.00000000000E+00 0.  1.
         21    1    1    2  506  501 -0.15833885801E+03 -0.10506673958E+03  0.58867375733E+03  0.61858467997E+03  0.00000000000E+00 0.  1.
<scales pt_clust_3="14000.00000" pt_clust_4="55.03780" pt_clust_5="81.71423" pt_clust_6="188.91218"></scales>
<clustering>
<clus scale="   81.714">  2  5  1 -1</clus>
<clus scale="   55.038">  2  4  1 -1</clus>
<clus scale="  188.912">  1  6  2 -1</clus>
<clus scale="  188.912">  1  3  2 -1</clus>
</clustering>
</event>
<event>
 6    0  0.3446372E+002  0.9045353E+02  0.7546771E-02  0.1301757E+00
         21   -1    0    0  503  501  0.00000000000E+00  0.00000000000E+00  0.13432735664E+04  0.13432735664E+04  0.00000000000E+00 0.  1.
         21   -1    0    0  506  502 -0.00000000000E+00 -0.00000000000E+00 -0.10626576794E+03  0.10626576794E+03  0.00000000000E+00 0. -1.
         21    1    1    2  503  505  0.83405327967E+02 -0.56820816673E+02  0.11447943397E+04  0.11492341512E+04  0.00000000000E+00 0.  1.
         21    1    1    2  504  501 -0.50717766047E+02  0.30221331986E+02  0.12373864840E+03  0.13710169149E+03  0.00000000000E+00 0.  1.
         21    1    1    2  505  502  0.29083631992E+02  0.41474160479E+02  0.42162249997E+02  0.65906137514E+02  0.00000000000E+00 0.  1.
         21    1    1    2  506  504 -0.61771193912E+02 -0.14874675792E+02 -0.73687439631E+02  0.97297354212E+02  0.00000000000E+00 0. -1.
<scales pt_clust_3="14000.00000" pt_clust_4="90.45353" pt_clust_5="50.65534" pt_clust_6="42.07211"></scales>
<clustering>
<clus scale="   50.655">  2  5  1 -1</clus>
<clus scale="   42.072">  2  6  1 -1</clus>
<clus scale="   90.454">  2  4  1 -1</clus>
<clus scale="   90.454">  1  3  2 -1</clus>
</clustering>
</event>
<event>
 6    0  0.3446372E+002  0.1891544E+03  0.7546771E-02  0.1159226E+00
         21   -1    0    0  504  501  0.00000000000E+00  0.00000000000E+00  0.40242572993E+03  0.40242572993E+03  0.00000000000E+00 0. -1.
         21   -1    0    0  503  502 -0.00000000000E+00 -0.00000000000E+00 -0.55623141549E+03  0.55623141549E+03  0.00000000000E+00 0. -1.
         21    1    1    2  503  501 -0.21324447385E+03  0.73443606929E+02 -0.46606637155E+03  0.51776928425E+03  0.00000000000E+00 0. -1.
         21    1    1    2  504  506  0.33485885466E+02 -0.15477398227E+02  0.15306888857E+03  0.15745138624E+03  0.00000000000E+00 0. -1.
         21    1    1    2  505  502  0.40511939192E+02  0.10524611668E+02 -0.20001690856E+02  0.46390217772E+02  0.00000000000E+00 0. -1.
         21    1    1    2  506  505  0.13924664919E+03 -0.68490820371E+02  0.17919348828E+03  0.23704625715E+03  0.00000000000E+00 0. -1.
<scales pt_clust_3="14000.00000" pt_clust_4="36.88976" pt_clust_5="43.39707" pt_clust_6="189.15435"></scales>
<clustering>
<clus scale="   36.890">  1  4  2 -1</clus>
<clus scale="   43.397">  2  5  1 -1</clus>
<clus scale="  189.154">  1  6  2 -1</clus>
<clus scale="   36.890">  1  3  2 -1</clus>
</clustering>
</event>
<event>
 6    0  0.3446372E+002  0.8886436E+02  0.7546771E-02  0.1305625E+00
         21   -1    0    0  503  501  0.00000000000E+00  0.00000000000E+00  0.13331074818E+04  0.13331074818E+04  0.00000000000E+00 0. -1.
         21   -1    0    0  506  502 -0.00000000000E+00 -0.00000000000E+00 -0.54533340346E+02  0.54533340346E+02  0.00000000000E+00 0.  1.
         21    1    1    2  503  502 -0.41698337263E+02 -0.83530907194E+02  0.69834628855E+01  0.93621218434E+02  0.00000000000E+00 0.  1.
         21    1    1    2  504  505  0.49702624278E+02 -0.14892587618E+02  0.98551065642E+02  0.11137527807E+03  0.00000000000E+00 0.  1.
         21    1    1    2  505  501 -0.22024478644E+02  0.32366506131E+02  0.91743595054E+03  0.91827087057E+03  0.00000000000E+00 0. -1.
         21    1    1    2  506  504  0.14020191629E+02  0.66056988681E+02  0.25560366243E+03  0.26437345512E+03  0.00000000000E+00 0.  1.
<scales pt_clust_3="88.86436" pt_clust_4="44.64288" pt_clust_5="39.14931" pt_clust_6="14000.00000"></scales>
<clustering>
<clus scale="   39.149">  1  5  2 -1</clus>
<clus scale="   44.643">  1  4  2 -1</clus>
<clus scale="   88.864">  2  3  1 -1</clus>
<clus scale="   39.149">  1  3  2 -1</clus>
</clustering>
</event>
<event>
 6    0  0.3446372E+002  0.9058326E+02  0.7546771E-02  0.1301445E+00
         21   -1    0    0  506  501  0.00000000000E+00  0.00000000000E+00  0.21170898145E+03  0.21170898145E+03  0.00000000000E+00 0.  1.
         21   -1    0    0  504  502 -0.00000000000E+00 -0.00000000000E+00 -0.71044822155E+03  0.71044822155E+03  0.00000000000E+00 0. -1.
         21    1    1    2  503  501  0.33217064104E+02 -0.97717739217E+02  0.81623477082E+02  0.13158465684E+03  0.00000000000E+00 0.  1.
         21    1    1    2  504  505 -0.32662233224E+02 -0.14646621184E+02 -0.12768641403E+03  0.13260906952E+03  0.00000000000E+00 0. -1.
         21    1    1    2  505  503  0.44308926361E+02  0.10330729162E+03 -0.54417096424E+03  0.55565971222E+03  0.00000000000E+00 0. -1.
         21    1    1    2  506  502 -0.44863757241E+02  0.90570687818E+01  0.91494661085E+02  0.10230376443E+03  0.00000000000E+00 0.  1.
<scales pt_clust_3="14000.00000" pt_clust_4="35.79588" pt_clust_5="90.58326" pt_clust_6="46.04044"></scales>
<clustering>
<clus scale="   35.796">  2  4  1 -1</clus>
<clus scale="   46.040">  1  6  2 -1</clus>
<clus scale="   90.583">  2  5  1 -1</clus>
<clus scale="   46.040">  1  3  2 -1</clus>
</clustering>
</event>
<event>
 6    0  0.3446372E+002  0.1360941E+03  0.7546771E-02  0.1218683E+00
         21   -1    0    0  505  501  0.00000000000E+00  0.00000000000E+00  0.39243966318E+02  0.39243966318E+02  0.00000000000E+00 0. -1.
         21   -1    0    0  504  502 -0.00000000000E+00 -0.00000000000E+00 -0.90076949083E+03  0.90076949083E+03  0.00000000000E+00 0. -1.
         21    1    1    2  503  501  0.12820685043E+02 -0.11935534372E+03 -0.13491048740E+03  0.18058490427E+03  0.00000000000E+00 0. -1.
         21    1    1    2  504  506 -0.21921071837E+02  0.10731083670E+03 -0.50995543701E+03  0.52158479349E+03  0.00000000000E+00 0. -1.
         21    1    1    2  505  502  0.54202230294E+01  0.52618294335E+02 -0.85861558418E+02  0.10084776116E+03  0.00000000000E+00 0. -1.
         21    1    1    2  506  503  0.36801637639E+01 -0.40573787316E+02 -0.13079804169E+03  0.13699599823E+03  0.00000000000E+00 0. -1.
<scales pt_clust_3="38.67386" pt_clust_4="118.80494" pt_clust_5="52.89673" pt_clust_6="38.67386"></scales>
<clustering>
<clus scale="   38.674">  3  6 -1 -1</clus>
<clus scale="   52.897">  1  5  2 -1</clus>
<clus scale="  118.805">  2  4  1 -1</clus>
<clus scale="   52.897">  1  3  2 -1</clus>
</clustering>
</event>
<event>
 6    0  0.3446372E+002  0.7219092E+02  0.7546771E-02  0.1352797E+00
         21   -1    0    0  504  501  0.00000000000E+00  0.00000000000E+00  0.51127885410E+03  0.51127885410E+03  0.00000000000E+00 0.  1.
         21   -1    0    0  506  502 -0.00000000000E+00 -0.00000000000E+00 -0.58795030549E+03  0.58795030549E+03  0.00000000000E+00 0. -1.
         21    1    1    2  503  502 -0.26034212186E+02  0.66308120365E+02  0.60063672606E+02  0.93178279644E+02  0.00000000000E+00 0. -1.
         21    1    1    2  504  503 -0.33741525282E+02  0.63596169443E+02  0.41557445209E+03  0.42176425705E+03  0.00000000000E+00 0.  1.
         21    1    1    2  505  501  0.38184448839E+02 -0.69812348084E+02 -0.10147899828E+03  0.12895659413E+03  0.00000000000E+00 0.  1.
         21    1    1    2  506  505  0.21591288629E+02 -0.60091941725E+02 -0.45083057780E+03  0.45533002876E+03  0.00000000000E+00 0. -1.
<scales pt_clust_3="63.40068" pt_clust_4="14000.00000" pt_clust_5="72.19092" pt_clust_6="63.85315"></scales>
<clustering>
<clus scale="   63.853">  2  6  1 -1</clus>
<clus scale="   63.401">  2  3  1 -1</clus>
<clus scale="   72.191">  2  5  1 -1</clus>
<clus scale="   72.191">  1  3  2 -1</clus>
</clustering>
</event>
<event>
 6    0  0.1202171E+003  0.1218512E+03  0.7546771E-02  0.1240074E+00
         21   -1    0    0  502  501  0.00000000000E+00  0.00000000000E+00  0.93325121715E+03  0.93325121715E+03  0.00000000000E+00 0.  1.
         21   -1    0    0  504  502 -0.00000000000E+00 -0.00000000000E+00 -0.70183003483E+03  0.70183003483E+03  0.00000000000E+00 0. -1.
         21    1    1    2  503  505 -0.15922462375E+02 -0.92324238794E+02 -0.60348555718E+02  0.11144163519E+03  0.00000000000E+00 0.  1.
         21    1    1    2  504  506  0.47837996942E+02  0.93928558099E+02 -0.57894215881E+03  0.58845991471E+03  0.00000000000E+00 0. -1.
         21    1    1    2  505  501 -0.61575455925E+02  0.37226111484E+02  0.88208216973E+03  0.88501201930E+03  0.00000000000E+00 0.  1.
         21    1    1    2  506  503  0.29659921358E+02 -0.38830430788E+02 -0.11370272882E+02  0.50167682780E+02  0.00000000000E+00 0.  1.
<scales pt_clust_3="43.23278" pt_clust_4="106.13203" pt_clust_5="71.95360" pt_clust_6="43.23278"></scales>
<clustering>
<clus scale="   43.233">  3  6 -1 -1</clus>
<clus scale="   71.954">  1  5  2 -1</clus>
<clus scale="  106.132">  2  4  1 -1</clus>
<clus scale="   71.954">  1  3  2 -1</clus>
</clustering>
</event>
<event>
 6    0  0.3446372E+002  0.1046824E+03  0.7546771E-02  0.1270747E+00
         21   -1    0    0  505  501  0.00000000000E+00  0.00000000000E+00  0.16032740429E+04  0.16032740429E+04  0.00000000000E+00 0.  1.
         21   -1    0    0  503  502 -0.00000000000E+00 -0.00000000000E+00 -0.78916531408E+03  0.78916531408E+03  0.00000000000E+00 0.  1.
         21    1    1    2  503  501  0.84509872995E+02  0.12256091563E+03  0.13947962159E+04  0.14027186391E+04  0.00000000000E+00 0.  1.
         21    1    1    2  504  502 -0.39763357188E+02  0.14131840653E+02 -0.30686250353E+03  0.30975059252E+03  0.00000000000E+00 0.  1.
         21    1    1    2  505  506  0.43061540296E+01 -0.66536581421E+02  0.19360577201E+03  0.20476536471E+03  0.00000000000E+00 0.  1.
         21    1    1    2  506  504 -0.49052669836E+02 -0.70156174857E+02 -0.46743075555E+03  0.47520476063E+03  0.00000000000E+00 0.  1.
<scales pt_clust_3="104.68245" pt_clust_4="42.19992" pt_clust_5="66.48386" pt_clust_6="14000.00000"></scales>
<clustering>
<clus scale="   42.200">  2  4  1 -1</clus>
<clus scale="   66.484">  1  5  2 -1</clus>
<clus scale="  104.682">  1  3  2 -1</clus>
<clus scale="   66.484">  1  3  2 -1</clus>
</clustering>
</event>
<event>
 6    0  0.3446372E+002  0.1411358E+03  0.7546771E-02  0.1211809E+00
         21   -1    0    0  504  501  0.00000000000E+00  0.00000000000E+00  0.26952007241E+03  0.26952007241E+03  0.00000000000E+00 0. -1.
         21   -1    0    0  503  502 -0.00000000000E+00 -0.00000000000E+00 -0.19201864946E+04  0.19201864946E+04  0.00000000000E+00 0. -1.
         21    1    1    2  503  505 -0.30563785928E+02 -0.10275486017E+03 -0.32221781880E+03  0.33958361128E+03  0.00000000000E+00 0. -1.
         21    1    1    2  504  506 -0.20467776176E+02  0.31151460929E+02 -0.18415806696E+03  0.18789235483E+03  0.00000000000E+00 0.  1.
         21    1    1    2  505  501  0.97742079704E+02 -0.26628580138E+02  0.24685806716E+03  0.26683609341E+03  0.00000000000E+00 0. -1.
         21    1    1    2  506  502 -0.46710517600E+02  0.98231979379E+02 -0.13911486036E+04  0.13953945075E+04  0.00000000000E+00 0. -1.
<scales pt_clust_3="126.35713" pt_clust_4="36.80586" pt_clust_5="101.30447" pt_clust_6="36.80586"></scales>
<clustering>
<clus scale="   36.806">  4  6 -1 -1</clus>
<clus scale="  101.304">  1  5  2 -1</clus>
<clus scale="  126.357">  1  3  2 -1</clus>
<clus scale="  101.304">  1  3  2 -1</clus>
</clustering>
</event>
<event>
 6    0  0.3446372E+002  0.1061324E+03  0.7546771E-02  0.1267904E+00
         21   -1    0    0  503  501  0.00000000000E+00  0.00000000000E+00  0.62884749857E+03  0.62884749857E+03  0.00000000000E+00 0.  1.
         21   -1    0    0  506  502 -0.00000000000E+00 -0.00000000000E+00 -0.37058341072E+03  0.37058341072E+03  0.00000000000E+00 0.  1.
         21    1    1    2  503  505  0.51398961983E+02 -0.78476077820E+02  0.55600881754E+03  0.56386714150E+03  0.00000000000E+00 0.  1.
         21    1    1    2  504  502  0.26224836597E+01  0.30048027674E+02 -0.68701469365E+02  0.75031015458E+02  0.00000000000E+00 0. -1.
         21    1    1    2  505  504 -0.88184287681E+02  0.34368169024E+02 -0.28115328046E+03  0.29665604115E+03  0.00000000000E+00 0.  1.
         21    1    1    2  506  501  0.34162842038E+02  0.14059881122E+02  0.52110020134E+02  0.63876711184E+02  0.00000000000E+00 0. -1.
<scales pt_clust_3="106.13240" pt_clust_4="30.16225" pt_clust_5="14000.00000" pt_clust_6="37.21967"></scales>
<clustering>
<clus scale="   30.162">  2  4  1 -1</clus>
<clus scale="   37.220">  1  6  2 -1</clus>
<clus scale="  106.132">  1  3  2 -1</clus>
<clus scale="   37.220">  1  3  2 -1</clus>
</clustering>
</event>
<event>
 6    0  0.3446372E+002  0.1514040E+03  0.7546771E-02  0.1198758E+00
         21   -1    0    0  506  501  0.00000000000E+00  0.00000000000E+00  0.50432689132E+03  0.50432689132E+03  0.00000000000E+00 0.  1.
         21   -1    0    0  503  502 -0.00000000000E+00 -0.00000000000E+00 -0.26688347697E+03  0.26688347697E+03  0.00000000000E+00 0. -1.
         21    1    1    2  503  501 -0.33589249205E+02  0.82964615293E+01 -0.11620633017E+02  0.36498055397E+02  0.00000000000E+00 0.  1.
         21    1    1    2  504  505  0.45834908801E+02  0.70330213659E+01  0.74674666510E+02  0.87901126687E+02  0.00000000000E+00 0.  1.
         21    1    1    2  505  502 -0.98717352869E+02 -0.52539999748E+02 -0.21707511647E+03  0.24418675952E+03  0.00000000000E+00 0. -1.
         21    1    1    2  506  504  0.86471693272E+02  0.37210516853E+02  0.39146449733E+03  0.40262442670E+03  0.00000000000E+00 0.  1.
<scales pt_clust_3="34.59868" pt_clust_4="43.38019" pt_clust_5="138.04383" pt_clust_6="43.38019"></scales>
<clustering>
<clus scale="   34.599">  2  3  1 -1</clus>
<clus scale="   43.380">  4  6 -1 -1</clus>
<clus scale="  138.044">  2  5  1 -1</clus>
<clus scale="  151.404">  1  3  2 -1</clus>
</clustering>
</event>
<event>
 6    0  0.3446372E+002  0.1105040E+03  0.7546771E-02  0.1259639E+00
         21   -1    0    0  503  501  0.00000000000E+00  0.00000000000E+00  0.74084274289E+03  0.74084274289E+03  0.00000000000E+00 0. -1.
         21   -1    0    0  505  502 -0.00000000000E+00 -0.00000000000E+00 -0.25279449129E+03  0.25279449129E+03  0.00000000000E+00 0. -1.
         21    1    1    2  503  506  0.73014657311E+02  0.33616220757E+02  0.59717673125E+03  0.60256222818E+03  0.00000000000E+00 0. -1.
         21    1    1    2  504  501  0.14441332683E+02  0.34831545102E+02  0.98778043586E+02  0.10573027248E+03  0.00000000000E+00 0. -1.
         21    1    1    2  505  504  0.21132365299E+02  0.31615316266E+02 -0.11709628191E+02  0.39789703166E+02  0.00000000000E+00 0. -1.
         21    1    1    2  506  502 -0.10858835529E+03 -0.10006308213E+03 -0.19619689504E+03  0.24555503036E+03  0.00000000000E+00 0. -1.
<scales pt_clust_3="14000.00000" pt_clust_4="37.70661" pt_clust_5="38.84114" pt_clust_6="110.50398"></scales>
<clustering>
<clus scale="   37.707">  1  4  2 -1</clus>
<clus scale="   38.841">  2  5  1 -1</clus>
<clus scale="  110.504">  2  6  1 -1</clus>
<clus scale="   37.707">  1  3  2 -1</clus>
</clustering>
</event>
<event>
 6    0  0.3446372E+002  0.1439601E+03  0.7546771E-02  0.1208098E+00
         21   -1    0    0  503  501  0.00000000000E+00  0.00000000000E+00  0.64472900753E+02  0.64472900753E+02  0.00000000000E+00 0. -1.
         21   -1    0    0  506  502 -0.00000000000E+00 -0.00000000000E+00 -0.12291235533E+04  0.12291235533E+04  0.00000000000E+00 0. -1.
         21    1    1    2  503  505 -0.50194176465E+02  0.90573978311E+02 -0.87447612271E+03  0.88058593566E+03  0.00000000000E+00 0. -1.
         21    1    1    2  504  501  0.66764338109E+02 -0.27316792896E+02  0.69848673056E+01  0.72473942824E+02  0.00000000000E+00 0. -1.
         21    1    1    2  505  502 -0.59154913711E+02 -0.11939612898E+02 -0.25407543629E+03  0.26114399380E+03  0.00000000000E+00 0. -1.
         21    1    1    2  506  504  0.42584752068E+02 -0.51317572517E+02 -0.43083960868E+02  0.79392581780E+02  0.00000000000E+00 0. -1.
<scales pt_clust_3="130.78534" pt_clust_4="57.84620" pt_clust_5="60.34781" pt_clust_6="57.84620"></scales>
<clustering>
<clus scale="   57.846">  4  6 -1 -1</clus>
<clus scale="   60.348">  2  5  1 -1</clus>
<clus scale="  130.785">  2  3  1 -1</clus>
<clus scale="  143.960">  1  3  2 -1</clus>
</clustering>
</event>
<event>
 6    0  0.3446372E+002  0.1658015E+03  0.7546771E-02  0.1182298E+00
         21   -1    0    0  506  501  0.00000000000E+00  0.00000000000E+00  0.41620416790E+03  0.41620416790E+03  0.00000000000E+00 0. -1.
         21   -1    0    0  501  502 -0.00000000000E+00 -0.00000000000E+00 -0.84464477949E+02  0.84464477949E+02  0.00000000000E+00 0.  1.
         21    1    1    2  503  505 -0.33532248522E+02  0.11190960441E+03  0.56462484798E+02  0.12975431954E+03  0.00000000000E+00 0.  1.
         21    1    1    2  504  503  0.30055777985E+02 -0.76134156017E+02  0.86406258242E+02  0.11902017042E+03  0.00000000000E+00 0. -1.
         21    1    1    2  505  502 -0.24062729120E+02  0.28392666709E+02 -0.12102010084E+02  0.39135880003E+02  0.00000000000E+00 0.  1.
         21    1    1    2  506  504  0.27539199657E+02 -0.64168115105E+02  0.20097295700E+03  0.21275827589E+03  0.00000000000E+00 0. -1.
<scales pt_clust_3="162.96026" pt_clust_4="61.87810" pt_clust_5="33.64910" pt_clust_6="61.87810"></scales>
<clustering>
<clus scale="   33.649">  3  5 -1 -1</clus>
<clus scale="   61.878">  4  6 -1 -1</clus>
<clus scale="  162.960">  2  3  1 -1</clus>
<clus scale="  165.801">  1  3  2 -1</clus>
</clustering>
</event>
<event>
 6    0  0.3446372E+002  0.1038448E+03  0.7546771E-02  0.1272413E+00
         21   -1    0    0  505  501  0.00000000000E+00  0.00000000000E+00  0.28996043688E+03  0.28996043688E+03  0.00000000000E+00 0. -1.
         21   -1    0    0  503  502 -0.00000000000E+00 -0.00000000000E+00 -0.65484191979E+03  0.65484191979E+03  0.00000000000E+00 0. -1.
         21    1    1    2  503  504  0.21345322580E+02 -0.24228478460E+02 -0.34823456482E+02  0.47490157779E+02  0.00000000000E+00 0. -1.
         21    1    1    2  504  501 -0.33844615249E+02 -0.11264689886E+02  0.34327753098E+02  0.49505008356E+02  0.00000000000E+00 0. -1.
         21    1    1    2  505  506  0.36544894564E+02 -0.92270765030E+02  0.22412102441E+03  0.24511151947E+03  0.00000000000E+00 0. -1.
         21    1    1    2  506  502 -0.24045601895E+02  0.12776393338E+03 -0.58850680393E+03  0.60269567106E+03  0.00000000000E+00 0. -1.
<scales pt_clust_3="32.28997" pt_clust_4="35.51611" pt_clust_5="14000.00000" pt_clust_6="103.84479"></scales>
<clustering>
<clus scale="   32.290">  2  3  1 -1</clus>
<clus scale="   35.516">  1  4  2 -1</clus>
<clus scale="  103.845">  2  6  1 -1</clus>
<clus scale="   35.516">  1  3  2 -1</clus>
</clustering>
</event>
<event>
 6    0  0.3446372E+002  0.1315768E+03  0.7546771E-02  0.1225135E+00
         21   -1    0    0  506  501  0.00000000000E+00  0.00000000000E+00  0.71291745393E+02  0.71291745393E+02  0.00000000000E+00 0.  1.
         21   -1    0    0  505  502 -0.00000000000E+00 -0.00000000000E+00 -0.13810854784E+04  0.13810854784E+04  0.00000000000E+00 0.  1.
         21    1    1    2  503  502 -0.11603852293E+03 -0.18236506228E+02 -0.12250120618E+04  0.12306307572E+04  0.00000000000E+00 0.  1.
         21    1    1    2  504  501  0.57201289260E+02  0.12885170257E+02  0.13019257199E+02  0.60062602038E+02  0.00000000000E+00 0.  1.
         21    1    1    2  505  504  0.78627659237E+02  0.37323959940E+02 -0.48362988009E+02  0.99570906353E+02  0.00000000000E+00 0.  1.
         21    1    1    2  506  503 -0.19790425564E+02 -0.31972623969E+02 -0.49437940362E+02  0.62112958187E+02  0.00000000000E+00 0.  1.
<scales pt_clust_3="118.52949" pt_clust_4="44.90206" pt_clust_5="44.90206" pt_clust_6="37.60199"></scales>
<clustering>
<clus scale="   37.602">  1  6  2 -1</clus>
<clus scale="   44.902">  4  5 -1 -1</clus>
<clus scale="  118.529">  2  3  1 -1</clus>
<clus scale="   37.602">  1  3  2 -1</clus>
</clustering>
</event>
<event>
 6    0  0.3446372E+002  0.1310438E+03  0.7546771E-02  0.1225915E+00
         21   -1    0    0  504  501  0.00000000000E+00  0.00000000000E+00  0.45126522961E+03  0.45126522961E+03  0.00000000000E+00 0. -1.
         21   -1    0    0  505  502 -0.00000000000E+00 -0.00000000000E+00 -0.12139521745E+03  0.12139521745E+03  0.00000000000E+00 0. -1.
         21    1    1    2  503  502 -0.11509127581E+03 -0.51872508519E+02 -0.80265173760E+01  0.12649578606E+03  0.00000000000E+00 0. -1.
         21    1    1    2  504  506  0.52349794281E+02 -0.30189112434E+02  0.91328134896E+02  0.10951124004E+03  0.00000000000E+00 0. -1.
         21    1    1    2  505  501  0.13158456102E+03  0.54831908614E+02  0.10552136785E+03  0.17735781340E+03  0.00000000000E+00 0. -1.
         21    1    1    2  506  503 -0.68843079482E+02  0.27229712339E+02  0.14104702679E+03  0.15929560758E+03  0.00000000000E+00 0. -1.
<scales pt_clust_3="131.04382" pt_clust_4="60.43082" pt_clust_5="14000.00000" pt_clust_6="48.59029"></scales>
<clustering>
<clus scale="   60.431">  1  4  2 -1</clus>
<clus scale="   48.590">  1  6  2 -1</clus>
<clus scale="  131.044">  2  3  1 -1</clus>
<clus scale="   60.431">  1  3  2 -1</clus>
</clustering>
</event>
<event>
 6    0  0.3446372E+002  0.8848605E+02  0.7546771E-02  0.1306560E+00
         21   -1    0    0  505  501  0.00000000000E+00  0.00000000000E+00  0.97827178919E+03  0.97827178919E+03  0.00000000000E+00 0. -1.
         21   -1    0    0  506  502 -0.00000000000E+00 -0.00000000000E+00 -0.11707152874E+03  0.11707152874E+03  0.00000000000E+00 0.  1.
         21    1    1    2  503  501 -0.41130330909E+02  0.62128236846E+02  0.78657804395E+03  0.79009913375E+03  0.00000000000E+00 0. -1.
         21    1    1    2  504  502 -0.23088840706E+02 -0.53792597275E+02  0.58254482865E+02  0.82585246022E+02  0.00000000000E+00 0. -1.
         21    1    1    2  505  504  0.14843688387E+02 -0.55538503352E+02  0.99590845494E+02  0.11499216037E+03  0.00000000000E+00 0.  1.
         21    1    1    2  506  503  0.49375483228E+02  0.47202863781E+02 -0.83223111854E+02  0.10766677779E+03  0.00000000000E+00 0.  1.
<scales pt_clust_3="75.69259" pt_clust_4="45.41719" pt_clust_5="45.41719" pt_clust_6="68.30848"></scales>
<clustering>
<clus scale="   45.417">  4  5 -1 -1</clus>
<clus scale="   68.308">  2  6  1 -1</clus>
<clus scale="   75.693">  1  3  2 -1</clus>
<clus scale="   75.693">  1  3  2 -1</clus>
</clustering>
</event>
<event>
 6    0  0.3446372E+002  0.1300557E+03  0.7546771E-02  0.1227373E+00
         21   -1    0    0  505  501  0.00000000000E+00  0.00000000000E+00  0.16225654932E+04  0.16225654932E+04  0.00000000000E+00 0.  1.
         21   -1    0    0  503  502 -0.00000000000E+00 -0.00000000000E+00 -0.12355112617E+04  0.12355112617E+04  0.00000000000E+00 0. -1.
         21    1    1    2  503  504 -0.29987736018E+02 -0.31044629467E+02 -0.10175002039E+04  0.10184152878E+04  0.00000000000E+00 0. -1.
         21    1    1    2  504  501  0.11467368143E+03  0.10649305089E+03  0.12238494288E+04  0.12338145110E+04  0.00000000000E+00 0.  1.
         21    1    1    2  505  506 -0.16373425226E+02 -0.10568941315E+03  0.37907630199E+03  0.39387457881E+03  0.00000000000E+00 0.  1.
         21    1    1    2  506  502 -0.68312520182E+02  0.30240991732E+02 -0.19837129532E+03  0.21197237745E+03  0.00000000000E+00 0. -1.
<scales pt_clust_3="43.16287" pt_clust_4="130.05566" pt_clust_5="14000.00000" pt_clust_6="96.59836"></scales>
<clustering>
<clus scale="   43.163">  2  3  1 -1</clus>
<clus scale="   96.598">  2  6  1 -1</clus>
<clus scale="  130.056">  1  4  2 -1</clus>
<clus scale="  130.056">  1  3  2 -1</clus>
</clustering>
</event>
<event>
 6    0  0.3446372E+002  0.7083391E+02  0.7546771E-02  0.1357280E+00
         21   -1    0    0  504  501  0.00000000000E+00  0.00000000000E+00  0.58858179881E+03  0.58858179881E+03  0.00000000000E+00 0. -1.
         21   -1    0    0  506  502 -0.00000000000E+00 -0.00000000000E+00 -0.69070192320E+03  0.69070192320E+03  0.00000000000E+00 0.  1.
         21    1    1    2  503  502  0.28606266342E+02 -0.24359792843E+02 -0.41267667170E+03  0.41438358238E+03  0.00000000000E+00 0.  1.
         21    1    1    2  504  503 -0.56848958771E+02 -0.59898304591E+02  0.12948012767E+02  0.83589844125E+02  0.00000000000E+00 0.  1.
         21    1    1    2  505  501  0.43704093247E+02 -0.70568621198E+01  0.52963545401E+03  0.53148241854E+03  0.00000000000E+00 0. -1.
         21    1    1    2  506  505 -0.15461400818E+02  0.91314959553E+02 -0.23202691947E+03  0.24982787697E+03  0.00000000000E+00 0.  1.
<scales pt_clust_3="37.57284" pt_clust_4="70.83391" pt_clust_5="44.37724" pt_clust_6="14000.00000"></scales>
<clustering>
<clus scale="   37.573">  2  3  1 -1</clus>
<clus scale="   44.377">  1  5  2 -1</clus>
<clus scale="   70.834">  1  4  2 -1</clus>
<clus scale="   44.377">  1  3  2 -1</clus>
</clustering>
</event>
<event>
 6    0  0.3446372E+002  0.1006792E+03  0.7546771E-02  0.1278874E+00
         21   -1    0    0  504  501  0.00000000000E+00  0.00000000000E+00  0.61846134325E+02  0.61846134325E+02  0.00000000000E+00 0.  1.
         21   -1    0    0  506  502 -0.00000000000E+00 -0.00000000000E+00 -0.67784638292E+03  0.67784638292E+03  0.00000000000E+00 0.  1.
         21    1    1    2  503  505 -0.21607449944E+00 -0.40689891940E+02 -0.14920213224E+03  0.15465118900E+03  0.00000000000E+00 0.  1.
         21    1    1    2  504  503 -0.59958040082E+01 -0.41736676002E+02 -0.30215497274E+02  0.51873654825E+02  0.00000000000E+00 0.  1.
         21    1    1    2  505  502  0.33491064622E+01 -0.50559286062E+02 -0.38840318691E+03  0.39169438791E+03  0.00000000000E+00 0.  1.
         21    1    1    2  506  501  0.28627720454E+01  0.13298585400E+03 -0.48179432179E+02  0.14147328551E+03  0.00000000000E+00 0.  1.
<scales pt_clust_3="30.22734" pt_clust_4="42.16515" pt_clust_5="30.22734" pt_clust_6="94.86052"></scales>
<clustering>
<clus scale="   30.227">  3  5 -1 -1</clus>
<clus scale="   42.165">  1  4  2 -1</clus>
<clus scale="   94.861">  1  6  2 -1</clus>
<clus scale="   42.165">  1  3  2 -1</clus>
</clustering>
</event>
<event>
 6    0  0.3446372E+002  0.9865171E+02  0.7546771E-02  0.1283157E+00
         21   -1    0    0  506  501  0.00000000000E+00  0.00000000000E+00  0.89971118191E+03  0.89971118191E+03  0.00000000000E+00 0. -1.
         21   -1    0    0  503  502 -0.00000000000E+00 -0.00000000000E+00 -0.15070342816E+03  0.15070342816E+03  0.00000000000E+00 0.  1.
         21    1    1    2  503  501  0.60529769089E+02  0.32878285430E+02 -0.53817977039E+02  0.87414010612E+02  0.00000000000E+00 0.  1.
         21    1    1    2  504  502  0.45380112096E+02 -0.49896759497E+02 -0.57539072556E+02  0.88655434423E+02  0.00000000000E+00 0.  1.
         21    1    1    2  505  504 -0.78935057475E+02  0.38663343550E+02  0.29231785641E+03  0.30524633758E+03  0.00000000000E+00 0. -1.
         21    1    1    2  506  505 -0.26974823710E+02 -0.21644869483E+02  0.56804694693E+03  0.56909882745E+03  0.00000000000E+00 0. -1.
<scales pt_clust_3="67.15695" pt_clust_4="14000.00000" pt_clust_5="98.65171" pt_clust_6="34.58528"></scales>
<clustering>
<clus scale="   34.585">  1  6  2 -1</clus>
<clus scale="   67.157">  2  3  1 -1</clus>
<clus scale="   98.652">  1  5  2 -1</clus>
<clus scale="   34.585">  1  3  2 -1</clus>
</clustering>
</event>
<event>
 6    0  0.3446372E+002  0.1045821E+03  0.7546771E-02  0.1270945E+00
         21   -1    0    0  504  501  0.00000000000E+00  0.00000000000E+00  0.26425015719E+04  0.26425015719E+04  0.00000000000E+00 0. -1.
         21   -1    0    0  503  502 -0.00000000000E+00 -0.00000000000E+00 -0.12852504820E+03  0.12852504820E+03  0.00000000000E+00 0.  1.
         21    1    1    2  503  505  0.46283187686E+02 -0.97285155964E+02 -0.90098633841E+02  0.14044322288E+03  0.00000000000E+00 0.  1.
         21    1    1    2  504  502  0.22148814674E+02  0.21733416116E+02  0.39206706509E+02  0.50000772022E+02  0.00000000000E+00 0. -1.
         21    1    1    2  505  506 -0.37829728780E+02  0.14247247951E+03  0.75709268835E+03  0.77130981749E+03  0.00000000000E+00 0. -1.
         21    1    1    2  506  501 -0.30602273580E+02 -0.66920739665E+02  0.18077757626E+04  0.18092728077E+04  0.00000000000E+00 0. -1.
<scales pt_clust_3="14000.00000" pt_clust_4="31.03081" pt_clust_5="104.58215" pt_clust_6="73.40978"></scales>
<clustering>
<clus scale="   31.031">  2  4  1 -1</clus>
<clus scale="   73.410">  1  6  2 -1</clus>
<clus scale="  104.582">  1  5  2 -1</clus>
<clus scale="   73.410">  1  3  2 -1</clus>
</clustering>
</event>
<event>
 6    0  0.3446372E+002  0.1167003E+03  0.7546771E-02  0.1248642E+00
         21   -1    0    0  505  501  0.00000000000E+00  0.00000000000E+00  0.89090244737E+02  0.89090244737E+02  0.00000000000E+00 0. -1.
         21   -1    0    0  506  502 -0.00000000000E+00 -0.00000000000E+00 -0.49772120341E+03  0.49772120341E+03  0.00000000000E+00 0. -1.
         21    1    1    2  503  504 -0.18458963493E+02 -0.93437171203E+02 -0.19367542504E+03  0.21582726556E+03  0.00000000000E+00 0. -1.
         21    1    1    2  504  501 -0.72583792485E+01  0.11713186489E+03 -0.26607396392E+02  0.12033499650E+03  0.00000000000E+00 0. -1.
         21    1    1    2  505  502  0.29947286219E+02  0.14314288029E+02  0.20045277335E+02  0.38775661659E+02  0.00000000000E+00 0. -1.
         21    1    1    2  506  503 -0.42299434778E+01 -0.38008981711E+02 -0.20839341458E+03  0.21187352442E+03  0.00000000000E+00 0. -1.
<scales pt_clust_3="116.70025" pt_clust_4="14000.00000" pt_clust_5="33.19245" pt_clust_6="37.74120"></scales>
<clustering>
<clus scale="   33.192">  1  5  2 -1</clus>
<clus scale="   37.741">  2  6  1 -1</clus>
<clus scale="  116.700">  2  3  1 -1</clus>
<clus scale="   33.192">  1  3  2 -1</clus>
</clustering>
</event>
<event>
 6    0  0.3446372E+002  0.1528938E+03  0.7546771E-02  0.1196962E+00
         21   -1    0    0  504  501  0.00000000000E+00  0.00000000000E+00  0.71591616503E+03  0.71591616503E+03  0.00000000000E+00 0.  1.
         21   -1    0    0  506  502 -0.00000000000E+00 -0.00000000000E+00 -0.21069585730E+04  0.21069585730E+04  0.00000000000E+00 0.  1.
         21    1    1    2  503  501 -0.15354597179E+03 -0.11198424027E+03  0.41193001922E+03  0.45365534964E+03  0.00000000000E+00 0.  1.
         21    1    1    2  504  505  0.11270332149E+03  0.60210304844E+02  0.26786182957E+03  0.29677816501E+03  0.00000000000E+00 0.  1.
         21    1    1    2  505  502  0.21676670813E+02  0.24629668896E+02 -0.16397441382E+04  0.16400723573E+04  0.00000000000E+00 0.  1.
         21    1    1    2  506  503  0.19165979479E+02  0.27144266535E+02 -0.43109011865E+03  0.43236886610E+03  0.00000000000E+00 0.  1.
<scales pt_clust_3="14000.00000" pt_clust_4="152.89377" pt_clust_5="32.81004" pt_clust_6="63.46685"></scales>
<clustering>
<clus scale="   32.810">  2  5  1 -1</clus>
<clus scale="   63.467">  2  6  1 -1</clus>
<clus scale="  152.894">  1  4  2 -1</clus>
<clus scale="  152.894">  1  3  2 -1</clus>
</clustering>
</event>
<event>
 6    0  0.3446372E+002  0.1660100E+03  0.7546771E-02  0.1182074E+00
         21   -1    0    0  506  501  0.00000000000E+00  0.00000000000E+00  0.10960583777E+04  0.10960583777E+04  0.00000000000E+00 0.  1.
         21   -1    0    0  503  502 -0.00000000000E+00 -0.00000000000E+00 -0.76379541593E+02  0.76379541593E+02  0.00000000000E+00 0.  1.
         21    1    1    2  503  504  0.21585627169E+02 -0.49487589174E+02  0.51598636543E+02  0.74681859080E+02  0.00000000000E+00 0.  1.
         21    1    1    2  504  505  0.57951251812E+02 -0.72700716843E+02 -0.94610879840E+01  0.93451880676E+02  0.00000000000E+00 0.  1.
         21    1    1    2  505  501 -0.18379298541E+02 -0.46954674041E+02  0.21962510234E+03  0.22533913466E+03  0.00000000000E+00 0.  1.
         21    1    1    2  506  502 -0.61157580440E+02  0.16914298006E+03  0.75791618519E+03  0.77896504487E+03  0.00000000000E+00 0.  1.
<scales pt_clust_3="56.10785" pt_clust_4="56.10785" pt_clust_5="50.42361" pt_clust_6="149.40562"></scales>
<clustering>
<clus scale="   50.424">  1  5  2 -1</clus>
<clus scale="   56.108">  3  4 -1 -1</clus>
<clus scale="  149.406">  1  6  2 -1</clus>
<clus scale="   50.424">  1  3  2 -1</clus>
</clustering>
</event>
<event>
 6    0  0.3446372E+002  0.1663474E+03  0.7546771E-02  0.1181711E+00
         21   -1    0    0  505  501  0.00000000000E+00  0.00000000000E+00  0.97860040165E+03  0.97860040165E+03  0.00000000000E+00 0.  1.
         21   -1    0    0  504  502 -0.00000000000E+00 -0.00000000000E+00 -0.14660837019E+03  0.14660837019E+03  0.00000000000E+00 0. -1.
         21    1    1    2  503  506  0.79826075071E+02  0.37690880845E+01 -0.45573935340E+02  0.91996694879E+02  0.00000000000E+00 0. -1.
         21    1    1    2  504  501 -0.19041111409E+02  0.71003494907E+02  0.18146782457E+03  0.19579231743E+03  0.00000000000E+00 0. -1.
         21    1    1    2  505  503 -0.12822997094E+03 -0.12655231741E+03  0.72543492617E+03  0.74747190355E+03  0.00000000000E+00 0.  1.
         21    1    1    2  506  502  0.67445007279E+02  0.51779734419E+02 -0.29336783933E+02  0.89947855978E+02  0.00000000000E+00 0. -1.
<scales pt_clust_3="50.54005" pt_clust_4="73.51231" pt_clust_5="157.96740" pt_clust_6="50.54005"></scales>
<clustering>
<clus scale="   50.540">  3  6 -1 -1</clus>
<clus scale="   73.512">  1  4  2 -1</clus>
<clus scale="  157.967">  1  5  2 -1</clus>
<clus scale="   73.512">  1  3  2 -1</clus>
</clustering>
</event>
<event>
 6    0  0.3446372E+002  0.7428216E+02  0.7546771E-02  0.1346108E+00
         21   -1    0    0  503  501  0.00000000000E+00  0.00000000000E+00  0.18189187334E+03  0.18189187334E+03  0.00000000000E+00 0. -1.
         21   -1    0    0  506  502 -0.00000000000E+00 -0.00000000000E+00 -0.20393012110E+03  0.20393012110E+03  0.00000000000E+00 0. -1.
         21    1    1    2  503  505  0.11639665309E+02  0.66546089933E+02  0.85282594030E+02  0.10879790778E+03  0.00000000000E+00 0. -1.
         21    1    1    2  504  501 -0.67607248206E+02 -0.84786153078E+02  0.24505954088E+02  0.11117541792E+03  0.00000000000E+00 0. -1.
         21    1    1    2  505  502  0.49863577735E+02  0.48453523590E+02 -0.96934990932E+02  0.11929171304E+03  0.00000000000E+00 0. -1.
         21    1    1    2  506  504  0.61040051615E+01 -0.30213460444E+02 -0.34891804942E+02  0.46556955690E+02  0.00000000000E+00 0. -1.
<scales pt_clust_3="74.28216" pt_clust_4="14000.00000" pt_clust_5="60.94878" pt_clust_6="30.82389"></scales>
<clustering>
<clus scale="   30.824">  2  6  1 -1</clus>
<clus scale="   60.949">  2  5  1 -1</clus>
<clus scale="   74.282">  1  3  2 -1</clus>
<clus scale="   74.282">  1  3  2 -1</clus>
</clustering>
</event>
<event>
 6    0  0.3446372E+002  0.2054874E+03  0.7546771E-02  0.1145190E+00
         21   -1    0    0  504  501  0.00000000000E+00  0.00000000000E+00  0.14938301707E+04  0.14938301707E+04  0.00000000000E+00 0.  1.
         21   -1    0    0  506  502 -0.00000000000E+00 -0.00000000000E+00 -0.42828963941E+03  0.42828963941E+03  0.00000000000E+00 0.  1.
         21    1    1    2  503  502 -0.18667892617E+03  0.68749757543E+02 -0.24917499531E+03  0.31884750106E+03  0.00000000000E+00 0.  1.
         21    1    1    2  504  503 -0.21433921014E+02 -0.52724998449E+02  0.13789185981E+04  0.13800926920E+04  0.00000000000E+00 0.  1.
         21    1    1    2  505  501  0.12553208706E+03  0.12940680323E+02 -0.35930353486E+02  0.13121263807E+03  0.00000000000E+00 0.  1.
         21    1    1    2  506  505  0.82580760127E+02 -0.28965439417E+02 -0.28272718046E+02  0.91966978909E+02  0.00000000000E+00 0.  1.
<scales pt_clust_3="200.26416" pt_clust_4="56.91519" pt_clust_5="38.33664" pt_clust_6="38.33664"></scales>
<clustering>
<clus scale="   38.337">  5  6 -1 -1</clus>
<clus scale="   56.915">  1  4  2 -1</clus>
<clus scale="  200.264">  2  3  1 -1</clus>
<clus scale="   56.915">  1  3  2 -1</clus>
</clustering>
</event>
<event>
 6    0  0.3446372E+002  0.9815305E+02  0.7546771E-02  0.1284228E+00
         21   -1    0    0  506  501  0.00000000000E+00  0.00000000000E+00  0.26832215418E+03  0.26832215418E+03  0.00000000000E+00 0. -1.
         21   -1    0    0  505  502 -0.00000000000E+00 -0.00000000000E+00 -0.11965016285E+03  0.11965016285E+03  0.00000000000E+00 0. -1.
         21    1    1    2  503  502  0.81526825324E+01  0.10133731143E+03 -0.28178283308E+02  0.10549754769E+03  0.00000000000E+00 0. -1.
         21    1    1    2  504  503  0.54008563091E+02 -0.59659047716E+02  0.14718559946E+03  0.16774900164E+03  0.00000000000E+00 0. -1.
         21    1    1    2  505  501 -0.47604144575E+02  0.62031988873E+01 -0.12139158764E+02  0.49517607299E+02  0.00000000000E+00 0. -1.
         21    1    1    2  506  504 -0.14557101048E+02 -0.47881462597E+02  0.41803833944E+02  0.65208160408E+02  0.00000000000E+00 0. -1.
<scales pt_clust_3="98.15305" pt_clust_4="14000.00000" pt_clust_5="48.00661" pt_clust_6="51.46729"></scales>
<clustering>
<clus scale="   48.007">  2  5  1 -1</clus>
<clus scale="   51.467">  1  6  2 -1</clus>
<clus scale="   98.153">  2  3  1 -1</clus>
<clus scale="   51.467">  1  3  2 -1</clus>
</clustering>
</event>
<event>
 6    0  0.3446372E+002  0.1018964E+03  0.7546771E-02  0.1276358E+00
         21   -1    0    0  504  501  0.00000000000E+00  0.00000000000E+00  0.14977276457E+03  0.14977276457E+03  0.00000000000E+00 0.  1.
         21   -1    0    0  503  502 -0.00000000000E+00 -0.00000000000E+00 -0.44565200046E+03  0.44565200046E+03  0.00000000000E+00 0.  1.
         21    1    1    2  503  506 -0.43259366078E+02  0.44334240548E+02 -0.41213094537E+02  0.74400381718E+02  0.00000000000E+00 0. -1.
         21    1    1    2  504  505 -0.26625250597E+01 -0.10781024934E+03 -0.87773338893E+02  0.13904782603E+03  0.00000000000E+00 0.  1.
         21    1    1    2  505  502 -0.29827456405E+02  0.73543592106E+02 -0.25399534716E+03  0.26610519249E+03  0.00000000000E+00 0.  1.
         21    1    1    2  506  501  0.75749347543E+02 -0.10067583316E+02  0.87102544696E+02  0.11587136480E+03  0.00000000000E+00 0.  1.
<scales pt_clust_3="61.94270" pt_clust_4="101.89635" pt_clust_5="14000.00000" pt_clust_6="74.62188"></scales>
<clustering>
<clus scale="   61.943">  2  3  1 -1</clus>
<clus scale="   74.622">  1  6  2 -1</clus>
<clus scale="  101.896">  1  4  2 -1</clus>
<clus scale="   74.622">  1  3  2 -1</clus>
</clustering>
</event>
<event>
 6    0  0.3446372E+002  0.8209670E+02  0.7546771E-02  0.1323204E+00
         21   -1    0    0  504  501  0.00000000000E+00  0.00000000000E+00  0.48431651549E+02  0.48431651549E+02  0.00000000000E+00 0. -1.
         21   -1    0    0  503  502 -0.00000000000E+00 -0.00000000000E+00 -0.13870730686E+04  0.13870730686E+04  0.00000000000E+00 0. -1.
         21    1    1    2  503  505  0.66168200578E+02 -0.42083735266E+02 -0.72945672942E+03  0.73365958839E+03  0.00000000000E+00 0. -1.
         21    1    1    2  504  506 -0.57421157353E+02  0.29701362398E+02  0.67573537219E+00  0.64651503140E+02  0.00000000000E+00 0. -1.
         21    1    1    2  505  501  0.28524403432E+02  0.73656248502E+02 -0.13083377978E+03  0.15282788511E+03  0.00000000000E+00 0. -1.
         21    1    1    2  506  502 -0.37271446658E+02 -0.61273875634E+02 -0.47902664325E+03  0.48436574354E+03  0.00000000000E+00 0. -1.
<scales pt_clust_3="69.83996" pt_clust_4="64.64797" pt_clust_5="82.09670" pt_clust_6="14000.00000"></scales>
<clustering>
<clus scale="   64.648">  1  4  2 -1</clus>
<clus scale="   69.840">  2  3  1 -1</clus>
<clus scale="   82.097">  1  5  2 -1</clus>
<clus scale="   64.648">  1  3  2 -1</clus>
</clustering>
</event>
<event>
 6    0  0.3446372E+002  0.1316167E+03  0.7546771E-02  0.1225076E+00
         21   -1    0    0  503  501  0.00000000000E+00  0.00000000000E+00  0.38361722330E+03  0.38361722330E+03  0.00000000000E+00 0. -1.
         21   -1    0    0  504  502 -0.00000000000E+00 -0.00000000000E+00 -0.24451845615E+03  0.24451845615E+03  0.00000000000E+00 0.  1.
         21    1    1    2  503  506 -0.10563000763E+03  0.86157859835E+02  0.18217254984E+03  0.22752519254E+03  0.00000000000E+00 0. -1.
         21    1    1    2  504  501  0.10910831313E+03  0.34346309928E+02 -0.10559357791E+03  0.15567368659E+03  0.00000000000E+00 0.  1.
         21    1    1    2  505  502 -0.33264411874E+02  0.20169181334E+02 -0.49288303104E+02  0.62790554989E+02  0.00000000000E+00 0.  1.
         21    1    1    2  506  505  0.29786106373E+02 -0.14067335110E+03  0.11180809832E+03  0.18214624534E+03  0.00000000000E+00 0. -1.
<scales pt_clust_3="131.61667" pt_clust_4="98.69377" pt_clust_5="38.90137" pt_clust_6="14000.00000"></scales>
<clustering>
<clus scale="   38.901">  2  5  1 -1</clus>
<clus scale="   98.694">  2  4  1 -1</clus>
<clus scale="  131.617">  1  3  2 -1</clus>
<clus scale="  131.617">  1  3  2 -1</clus>
</clustering>
</event>
<event>
 6    0  0.3446372E+002  0.8761934E+02  0.7546771E-02  0.1308721E+00
         21   -1    0    0  504  501  0.00000000000E+00  0.00000000000E+00  0.25026935346E+03  0.25026935346E+03  0.00000000000E+00 0. -1.
         21   -1    0    0  506  502 -0.00000000000E+00 -0.00000000000E+00 -0.24365033813E+04  0.24365033813E+04  0.00000000000E+00 0.  1.
         21    1    1    2  503  502  0.21972870493E+02 -0.32187157220E+02 -0.76474794407E+03  0.76574032027E+03  0.00000000000E+00 0.  1.
         21    1    1    2  504  503  0.96692209714E+02  0.26750460326E+02  0.19652596523E+03  0.22065227294E+03  0.00000000000E+00 0. -1.
         21    1    1    2  505  501 -0.25192220477E+02  0.23796368731E+02  0.32269096600E+02  0.47351977073E+02  0.00000000000E+00 0. -1.
         21    1    1    2  506  505 -0.93472859730E+02 -0.18359671837E+02 -0.16502811456E+04  0.16530281645E+04  0.00000000000E+00 0.  1.
<scales pt_clust_3="38.89222" pt_clust_4="14000.00000" pt_clust_5="34.65422" pt_clust_6="87.61934"></scales>
<clustering>
<clus scale="   34.654">  1  5  2 -1</clus>
<clus scale="   38.892">  2  3  1 -1</clus>
<clus scale="   87.619">  2  6  1 -1</clus>
<clus scale="   34.654">  1  3  2 -1</clus>
</clustering>
</event>
<event>
 6    0  0.3446372E+002  0.2300510E+03  0.7546771E-02  0.1126604E+00
         21   -1    0    0  505  501  0.00000000000E+00  0.00000000000E+00  0.43309498705E+03  0.43309498705E+03  0.00000000000E+00 0.  1.
         21   -1    0    0  501  502 -0.00000000000E+00 -0.00000000000E+00 -0.42004414402E+03  0.42004414402E+03  0.00000000000E+00 0.  1.
         21    1    1    2  503  504  0.90335933831E+02 -0.56657414742E+02 -0.99053767981E+02  0.14554137741E+03  0.00000000000E+00 0. -1.
         21    1    1    2  504  502  0.10855801603E+03 -0.69209599175E+02 -0.19582514449E+03  0.23435506966E+03  0.00000000000E+00 0.  1.
         21    1    1    2  505  506 -0.54377183352E+02 -0.12863822470E+02  0.26176707448E+03  0.26766463584E+03  0.00000000000E+00 0.  1.
         21    1    1    2  506  503 -0.14451676651E+03  0.13873083639E+03  0.46162681020E+02  0.20557804816E+03  0.00000000000E+00 0.  1.
<scales pt_clust_3="40.35741" pt_clust_4="40.35741" pt_clust_5="55.87805" pt_clust_6="225.73660"></scales>
<clustering>
<clus scale="   40.357">  3  4 -1 -1</clus>
<clus scale="   55.878">  1  5  2 -1</clus>
<clus scale="  225.737">  1  6  2 -1</clus>
<clus scale="   55.878">  1  3  2 -1</clus>
</clustering>
</event>
<event>
 6    0  0.3446372E+002  0.1279709E+03  0.7546771E-02  0.1230498E+00
         21   -1    0    0  505  501  0.00000000000E+00  0.00000000000E+00  0.20256570765E+03  0.20256570765E+03  0.00000000000E+00 0. -1.
         21   -1    0    0  504  502 -0.00000000000E+00 -0.00000000000E+00 -0.18814524436E+04  0.18814524436E+04  0.00000000000E+00 0. -1.
         21    1    1    2  503  506 -0.11842448735E+03  0.68578921381E+02 -0.23532562058E+03  0.27222339238E+03  0.00000000000E+00 0. -1.
         21    1    1    2  504  501 -0.16687170301E+02  0.32767661287E+02  0.35006054356E+02  0.50770120351E+02  0.00000000000E+00 0. -1.
         21    1    1    2  505  503  0.77227841708E+01 -0.87366285894E+02  0.12480388646E+03  0.15254022218E+03  0.00000000000E+00 0. -1.
         21    1    1    2  506  502  0.12738887348E+03 -0.13980296775E+02 -0.16033710562E+04  0.16084844163E+04  0.00000000000E+00 0. -1.
<scales pt_clust_3="127.97089" pt_clust_4="36.77202" pt_clust_5="59.29685" pt_clust_6="14000.00000"></scales>
<clustering>
<clus scale="   36.772">  1  4  2 -1</clus>
<clus scale="   59.297">  1  5  2 -1</clus>
<clus scale="  127.971">  1  3  2 -1</clus>
<clus scale="   36.772">  1  3  2 -1</clus>
</clustering>
</event>
<event>
 6    0  0.3446372E+002  0.1240353E+03  0.7546771E-02  0.1236585E+00
         21   -1    0    0  503  501  0.00000000000E+00  0.00000000000E+00  0.29946232898E+03  0.29946232898E+03  0.00000000000E+00 0.  1.
         21   -1    0    0  505  502 -0.00000000000E+00 -0.00000000000E+00 -0.23445260767E+03  0.23445260767E+03  0.00000000000E+00 0.  1.
         21    1    1    2  503  502  0.32356201888E+02  0.18633410826E+02  0.66353882927E+02  0.76137806503E+02  0.00000000000E+00 0.  1.
         21    1    1    2  504  506 -0.50640545887E+02  0.10554775273E+03 -0.67104344281E+02  0.13493622944E+03  0.00000000000E+00 0.  1.
         21    1    1    2  505  504 -0.59234559256E+02 -0.31867484517E+02 -0.98389689754E+02  0.11918389417E+03  0.00000000000E+00 0.  1.
         21    1    1    2  506  501  0.77518903254E+02 -0.92313679038E+02  0.16414987241E+03  0.20365700654E+03  0.00000000000E+00 0.  1.
<scales pt_clust_3="37.33802" pt_clust_4="124.03529" pt_clust_5="65.56237" pt_clust_6="14000.00000"></scales>
<clustering>
<clus scale="   37.338">  1  3  2 -1</clus>
<clus scale="   65.562">  2  5  1 -1</clus>
<clus scale="  124.035">  2  4  1 -1</clus>
<clus scale="   37.338">  1  3  2 -1</clus>
</clustering>
</event>
<event>
 6    0  0.3446372E+002  0.1473411E+03  0.7546771E-02  0.1203779E+00
         21   -1    0    0  506  501  0.00000000000E+00  0.00000000000E+00  0.11170805345E+04  0.11170805345E+04  0.00000000000E+00 0. -1.
         21   -1    0    0  503  502 -0.00000000000E+00 -0.00000000000E+00 -0.23568731211E+03  0.23568731211E+03  0.00000000000E+00 0.  1.
         21    1    1    2  503  504  0.86356910270E+01 -0.42563800129E+02 -0.11002655804E+03  0.11828818925E+03  0.00000000000E+00 0.  1.
         21    1    1    2  504  505 -0.18892638246E+02 -0.91790927392E+02 -0.92433989580E+02  0.13163034818E+03  0.00000000000E+00 0.  1.
         21    1    1    2  505  501  0.40063236019E+01  0.16842574224E+03  0.86227009819E+03  0.87857441546E+03  0.00000000000E+00 0. -1.
         21    1    1    2  506  502  0.62506236174E+01 -0.34071014719E+02  0.22158367179E+03  0.22427489370E+03  0.00000000000E+00 0.  1.
<scales pt_clust_3="39.10685" pt_clust_4="39.10685" pt_clust_5="135.63481" pt_clust_6="34.63964"></scales>
<clustering>
<clus scale="   34.640">  1  6  2 -1</clus>
<clus scale="   39.107">  3  4 -1 -1</clus>
<clus scale="  135.635">  1  5  2 -1</clus>
<clus scale="   34.640">  1  3  2 -1</clus>
</clustering>
</event>
<event>
 6    0  0.3446372E+002  0.1072982E+03  0.7546771E-02  0.1265657E+00
         21   -1    0    0  506  501  0.00000000000E+00  0.00000000000E+00  0.46219705986E+03  0.46219705986E+03  0.00000000000E+00 0.  1.
         21   -1    0    0  505  502 -0.00000000000E+00 -0.00000000000E+00 -0.17006772552E+03  0.17006772552E+03  0.00000000000E+00 0.  1.
         21    1    1    2  503  502  0.16174223097E+02  0.93135466024E+02 -0.98541554900E+02  0.13655130379E+03  0.00000000000E+00 0.  1.
         21    1    1    2  504  501 -0.11458700695E+02 -0.37985477969E+02  0.59504434437E+02  0.71519060927E+02  0.00000000000E+00 0. -1.
         21    1    1    2  505  504  0.64243689237E+02 -0.10680498391E+02 -0.16330031134E+02  0.67141600886E+02  0.00000000000E+00 0.  1.
         21    1    1    2  506  503 -0.68959211639E+02 -0.44469489664E+02  0.34749648593E+03  0.35705281978E+03  0.00000000000E+00 0.  1.
<scales pt_clust_3="14000.00000" pt_clust_4="39.67617" pt_clust_5="64.84948" pt_clust_6="107.29822"></scales>
<clustering>
<clus scale="   39.676">  1  4  2 -1</clus>
<clus scale="   64.849">  2  5  1 -1</clus>
<clus scale="  107.298">  1  6  2 -1</clus>
<clus scale="   39.676">  1  3  2 -1</clus>
</clustering>
</event>
<event>
 6    0  0.3446372E+002  0.8003259E+02  0.7546771E-02  0.1328959E+00
         21   -1    0    0  503  501  0.00000000000E+00  0.00000000000E+00  0.75442173780E+02  0.75442173780E+02  0.00000000000E+00 0.  1.
         21   -1    0    0  504  502 -0.00000000000E+00 -0.00000000000E+00 -0.25146018241E+03  0.25146018241E+03  0.00000000000E+00 0.  1.
         21    1    1    2  503  506 -0.70324256291E+02 -0.31464075792E+02 -0.18091610984E+02  0.79137825826E+02  0.00000000000E+00 0.  1.
         21    1    1    2  504  501 -0.12115966314E+02  0.33456297539E+02 -0.15699043007E+02  0.38891907077E+02  0.00000000000E+00 0.  1.
         21    1    1    2  505  502 -0.76760375865E+01  0.40883634112E+02 -0.82957877582E+02  0.92803030900E+02  0.00000000000E+00 0.  1.
         21    1    1    2  506  505  0.90116260192E+02 -0.42875855859E+02 -0.59269477062E+02  0.11606959239E+03  0.00000000000E+00 0.  1.
<scales pt_clust_3="80.03259" pt_clust_4="35.58259" pt_clust_5="44.30780" pt_clust_6="14000.00000"></scales>
<clustering>
<clus scale="   35.583">  1  4  2 -1</clus>
<clus scale="   44.308">  2  5  1 -1</clus>
<clus scale="   80.033">  1  3  2 -1</clus>
<clus scale="   35.583">  1  3  2 -1</clus>
</clustering>
</event>
<event>
 6    0  0.3446372E+002  0.2552285E+03  0.7546771E-02  0.1110044E+00
         21   -1    0    0  505  501  0.00000000000E+00  0.00000000000E+00  0.50681509706E+03  0.50681509706E+03  0.00000000000E+00 0.  1.
         21   -1    0    0  504  502 -0.00000000000E+00 -0.00000000000E+00 -0.22337710785E+03  0.22337710785E+03  0.00000000000E+00 0.  1.
         21    1    1    2  503  501  0.28796702971E+02 -0.13902298919E+02  0.20219846287E+03  0.20471136364E+03  0.00000000000E+00 0.  1.
         21    1    1    2  504  506  0.41726674059E+02  0.66148509969E+02 -0.55688491991E+01  0.78407606650E+02  0.00000000000E+00 0. -1.
         21    1    1    2  505  502 -0.11110593062E+03 -0.20625503597E+03 -0.47134554127E+02  0.23897140807E+03  0.00000000000E+00 0.  1.
         21    1    1    2  506  503  0.40582553591E+02  0.15400882492E+03  0.13394292967E+03  0.20810182656E+03  0.00000000000E+00 0.  1.
<scales pt_clust_3="31.97693" pt_clust_4="72.13277" pt_clust_5="234.04680" pt_clust_6="72.13277"></scales>
<clustering>
<clus scale="   31.977">  1  3  2 -1</clus>
<clus scale="   72.133">  4  6 -1 -1</clus>
<clus scale="  234.047">  2  5  1 -1</clus>
<clus scale="   31.977">  1  3  2 -1</clus>
</clustering>
</event>
<event>
 6    0  0.3446372E+002  0.1082031E+03  0.7546771E-02  0.1263934E+00
         21   -1    0    0  506  501  0.00000000000E+00  0.00000000000E+00  0.33800339314E+02  0.33800339314E+02  0.00000000000E+00 0. -1.
         21   -1    0    0  503  502 -0.00000000000E+00 -0.00000000000E+00 -0.73418831964E+03  0.73418831964E+03  0.00000000000E+00 0. -1.
         21    1    1    2  503  504  0.42771146458E+02 -0.30459712567E+02 -0.22663236548E+03  0.23263575423E+03  0.00000000000E+00 0. -1.
         21    1    1    2  504  505  0.19882000326E+02 -0.47367725000E+02 -0.29825964031E+03  0.30265129827E+03  0.00000000000E+00 0.  1.
         21    1    1    2  505  501  0.31623282123E+02  0.47576992936E+01 -0.24544840163E+02  0.40312738103E+02  0.00000000000E+00 0. -1.
         21    1    1    2  506  502 -0.94276428906E+02  0.73069738274E+02 -0.15095113437E+03  0.19238886835E+03  0.00000000000E+00 0. -1.
<scales pt_clust_3="31.86840" pt_clust_4="31.86840" pt_clust_5="31.97918" pt_clust_6="103.29490"></scales>
<clustering>
<clus scale="   31.868">  3  4 -1 -1</clus>
<clus scale="   31.979">  1  5  2 -1</clus>
<clus scale="  103.295">  1  6  2 -1</clus>
<clus scale="   31.979">  1  3  2 -1</clus>
</clustering>
</event>
<event>
 6    0  0.3446372E+002  0.2073408E+03  0.7546771E-02  0.1143689E+00
         21   -1    0    0  505  501  0.00000000000E+00  0.00000000000E+00  0.22822615526E+03  0.22822615526E+03  0.00000000000E+00 0.  1.
         21   -1    0    0  503  502 -0.00000000000E+00 -0.00000000000E+00 -0.56977050862E+03  0.56977050862E+03  0.00000000000E+00 0.  1.
         21    1    1    2  503  504 -0.26210968558E+03 -0.10481089560E+03 -0.42539656876E+02  0.28547580198E+03  0.00000000000E+00 0.  1.
         21    1    1    2  504  501  0.73988941012E+02  0.10722910760E+03  0.27230645928E+02  0.13309377516E+03  0.00000000000E+00 0.  1.
         21    1    1    2  505  506  0.11548199973E+03  0.15208344291E+02 -0.16804585656E+03  0.20446710226E+03  0.00000000000E+00 0.  1.
         21    1    1    2  506  502  0.72638744834E+02 -0.17626556288E+02 -0.15818948585E+03  0.17495998449E+03  0.00000000000E+00 0.  1.
<scales pt_clust_3="202.11395" pt_clust_4="130.27834" pt_clust_5="37.05908" pt_clust_6="37.05908"></scales>
<clustering>
<clus scale="   37.059">  5  6 -1 -1</clus>
<clus scale="  130.278">  1  4  2 -1</clus>
<clus scale="  202.114">  1  3  2 -1</clus>
<clus scale="  130.278">  1  3  2 -1</clus>
</clustering>
</event>
<event>
 6    0  0.3446372E+002  0.1805105E+03  0.7546771E-02  0.1167310E+00
         21   -1    0    0  504  501  0.00000000000E+00  0.00000000000E+00  0.12218494730E+04  0.12218494730E+04  0.00000000000E+00 0. -1.
         21   -1    0    0  505  502 -0.00000000000E+00 -0.00000000000E+00 -0.15303728100E+03  0.15303728100E+03  0.00000000000E+00 0. -1.
         21    1    1    2  503  506  0.14250780662E+03  0.85566184969E+02 -0.42918611593E+02  0.17167426767E+03  0.00000000000E+00 0. -1.
         21    1    1    2  504  502 -0.16271143381E+03 -0.93343101709E+02  0.50104990332E+03  0.53501303810E+03  0.00000000000E+00 0. -1.
         21    1    1    2  505  503 -0.16617474418E+02  0.48746253440E+02 -0.34376101337E+01  0.51615451600E+02  0.00000000000E+00 0. -1.
         21    1    1    2  506  501  0.36821101609E+02 -0.40969336700E+02  0.61411851039E+03  0.61658399661E+03  0.00000000000E+00 0. -1.
<scales pt_clust_3="14000.00000" pt_clust_4="180.51051" pt_clust_5="51.50085" pt_clust_6="54.61947"></scales>
<clustering>
<clus scale="   51.501">  2  5  1 -1</clus>
<clus scale="   54.619">  1  6  2 -1</clus>
<clus scale="  180.511">  1  4  2 -1</clus>
<clus scale="   54.619">  1  3  2 -1</clus>
</clustering>
</event>
<event>
 6    0  0.3446372E+002  0.1190924E+03  0.7546771E-02  0.1244602E+00
         21   -1    0    0  505  501  0.00000000000E+00  0.00000000000E+00  0.81483951996E+03  0.81483951996E+03  0.00000000000E+00 0.  1.
         21   -1    0    0  506  502 -0.00000000000E+00 -0.00000000000E+00 -0.17828725522E+03  0.17828725522E+03  0.00000000000E+00 0.  1.
         21    1    1    2  503  501 -0.30474096652E+02  0.52912970782E+01  0.76635814131E+02  0.82642098225E+02  0.00000000000E+00 0.  1.
         21    1    1    2  504  502  0.57349712153E+02  0.80363209585E+01 -0.10464566886E+03  0.11960053491E+03  0.00000000000E+00 0.  1.
         21    1    1    2  505  504 -0.84987322735E+02  0.46918805386E+02  0.69505187412E+03  0.70179863710E+03  0.00000000000E+00 0.  1.
         21    1    1    2  506  503  0.58111707234E+02 -0.60246423423E+02 -0.30489754650E+02  0.89085504946E+02  0.00000000000E+00 0.  1.
<scales pt_clust_3="30.93006" pt_clust_4="57.61064" pt_clust_5="119.09245" pt_clust_6="14000.00000"></scales>
<clustering>
<clus scale="   30.930">  1  3  2 -1</clus>
<clus scale="   57.611">  2  4  1 -1</clus>
<clus scale="  119.092">  1  5  2 -1</clus>
<clus scale="   30.930">  1  3  2 -1</clus>
</clustering>
</event>
<event>
 6    0  0.3446372E+002  0.8490181E+02  0.7546771E-02  0.1315690E+00
         21   -1    0    0  506  501  0.00000000000E+00  0.00000000000E+00  0.67688869700E+03  0.67688869700E+03  0.00000000000E+00 0. -1.
         21   -1    0    0  504  502 -0.00000000000E+00 -0.00000000000E+00 -0.44499333315E+03  0.44499333315E+03  0.00000000000E+00 0. -1.
         21    1    1    2  503  502  0.23607436272E+02  0.55772062354E+02 -0.64492446510E+02  0.88470953670E+02  0.00000000000E+00 0. -1.
         21    1    1    2  504  505 -0.11309373328E+02 -0.38418944607E+02 -0.44603958500E+02  0.59945227864E+02  0.00000000000E+00 0. -1.
         21    1    1    2  505  501 -0.57664779360E+02  0.62262008541E+02  0.64776456506E+03  0.65329986701E+03  0.00000000000E+00 0. -1.
         21    1    1    2  506  503  0.45366716417E+02 -0.79615126289E+02 -0.30677279620E+03  0.32016598161E+03  0.00000000000E+00 0. -1.
<scales pt_clust_3="52.82136" pt_clust_4="40.04894" pt_clust_5="84.90181" pt_clust_6="14000.00000"></scales>
<clustering>
<clus scale="   40.049">  2  4  1 -1</clus>
<clus scale="   52.821">  2  3  1 -1</clus>
<clus scale="   84.902">  1  5  2 -1</clus>
<clus scale="   84.902">  1  3  2 -1</clus>
</clustering>
</event>
<event>
 6    0  0.3446372E+002  0.6069279E+02  0.7546771E-02  0.1394947E+00
         21   -1    0    0  504  501  0.00000000000E+00  0.00000000000E+00  0.94561931758E+02  0.94561931758E+02  0.00000000000E+00 0.  1.
         21   -1    0    0  505  502 -0.00000000000E+00 -0.00000000000E+00 -0.85258429209E+03  0.85258429209E+03  0.00000000000E+00 0. -1.
         21    1    1    2  503  501  0.57905800585E+02  0.14543757414E+02  0.70769585202E+02  0.92590155042E+02  0.00000000000E+00 0.  1.
         21    1    1    2  504  502  0.61028030176E+02  0.18359759554E+02 -0.24571756431E+03  0.25384763668E+03  0.00000000000E+00 0. -1.
         21    1    1    2  505  506 -0.15266922748E+02 -0.37715630521E+02 -0.16041987224E+03  0.16549949585E+03  0.00000000000E+00 0. -1.
         21    1    1    2  506  503 -0.10366690801E+03  0.48121135531E+01 -0.42265450898E+03  0.43520893627E+03  0.00000000000E+00 0. -1.
<scales pt_clust_3="14000.00000" pt_clust_4="55.69692" pt_clust_5="40.68842" pt_clust_6="60.69279"></scales>
<clustering>
<clus scale="   40.688">  2  5  1 -1</clus>
<clus scale="   55.697">  2  4  1 -1</clus>
<clus scale="   60.693">  2  6  1 -1</clus>
<clus scale="   60.693">  1  3  2 -1</clus>
</clustering>
</event>
<event>
 6    0  0.3446372E+002  0.1070328E+03  0.7546771E-02  0.1266166E+00
         21   -1    0    0  506  501  0.00000000000E+00  0.00000000000E+00  0.28476664875E+03  0.28476664875E+03  0.00000000000E+00 0. -1.
         21   -1    0    0  503  502 -0.00000000000E+00 -0.00000000000E+00 -0.39318962671E+03  0.39318962671E+03  0.00000000000E+00 0.  1.
         21    1    1    2  503  504  0.82550988670E+02 -0.17583713780E+02 -0.22977552201E+02  0.87474685629E+02  0.00000000000E+00 0. -1.
         21    1    1    2  504  505  0.36425263766E+02 -0.34883988495E+02  0.19914719656E+02  0.54224427639E+02  0.00000000000E+00 0. -1.
         21    1    1    2  505  501 -0.35665396489E+02  0.24977975274E+02  0.20714482319E+03  0.21167167390E+03  0.00000000000E+00 0. -1.
         21    1    1    2  506  502 -0.83310855948E+02  0.27489727001E+02 -0.31250496861E+03  0.32458548830E+03  0.00000000000E+00 0.  1.
<scales pt_clust_3="43.46133" pt_clust_4="43.46133" pt_clust_5="43.54216" pt_clust_6="91.07668"></scales>
<clustering>
<clus scale="   43.461">  3  4 -1 -1</clus>
<clus scale="   43.542">  1  5  2 -1</clus>
<clus scale="   91.077">  2  6  1 -1</clus>
<clus scale="   43.542">  1  3  2 -1</clus>
</clustering>
</event>
<event>
 6    0  0.3446372E+002  0.8071913E+02  0.7546771E-02  0.1327023E+00
         21   -1    0    0  505  501  0.00000000000E+00  0.00000000000E+00  0.11723239592E+03  0.11723239592E+03  0.00000000000E+00 0. -1.
         21   -1    0    0  504  502 -0.00000000000E+00 -0.00000000000E+00 -0.13627582169E+04  0.13627582169E+04  0.00000000000E+00 0.  1.
         21    1    1    2  503  501 -0.50894249447E+02  0.11674034141E+02  0.90009343744E+02  0.10405858764E+03  0.00000000000E+00 0. -1.
         21    1    1    2  504  503 -0.52446451528E+02  0.10340129457E+02 -0.45378604021E+03  0.45692375605E+03  0.00000000000E+00 0.  1.
         21    1    1    2  505  506  0.13288316484E+03 -0.90178416050E+01 -0.22499287671E+03  0.26145946442E+03  0.00000000000E+00 0. -1.
         21    1    1    2  506  502 -0.29542463867E+02 -0.12996321992E+02 -0.65675624776E+03  0.65754880467E+03  0.00000000000E+00 0.  1.
<scales pt_clust_3="52.47406" pt_clust_4="80.71913" pt_clust_5="14000.00000" pt_clust_6="32.27478"></scales>
<clustering>
<clus scale="   32.275">  2  6  1 -1</clus>
<clus scale="   52.474">  1  3  2 -1</clus>
<clus scale="   80.719">  2  4  1 -1</clus>
<clus scale="   52.474">  1  3  2 -1</clus>
</clustering>
</event>
<event>
 6    0  0.3446372E+002  0.1420026E+03  0.7546771E-02  0.1210659E+00
         21   -1    0    0  506  501  0.00000000000E+00  0.00000000000E+00  0.62678076206E+03  0.62678076206E+03  0.00000000000E+00 0. -1.
         21   -1    0    0  503  502 -0.00000000000E+00 -0.00000000000E+00 -0.14379763630E+03  0.14379763630E+03  0.00000000000E+00 0. -1.
         21    1    1    2  503  504  0.12159319476E+03 -0.49526780652E+02 -0.58925867868E+02  0.14390991945E+03  0.00000000000E+00 0. -1.
         21    1    1    2  504  505 -0.37744094114E+02  0.31545427127E+01  0.34508870729E+02  0.51238949435E+02  0.00000000000E+00 0.  1.
         21    1    1    2  505  501 -0.58105089720E+02  0.84978057104E+02  0.47812822870E+02  0.11350567242E+03  0.00000000000E+00 0. -1.
         21    1    1    2  506  502 -0.25744010923E+02 -0.38605819165E+02  0.45958730003E+03  0.46192385706E+03  0.00000000000E+00 0. -1.
<scales pt_clust_3="129.44205" pt_clust_4="35.41812" pt_clust_5="35.41812" pt_clust_6="46.40219"></scales>
<clustering>
<clus scale="   35.418">  4  5 -1 -1</clus>
<clus scale="   46.402">  1  6  2 -1</clus>
<clus scale="  129.442">  2  3  1 -1</clus>
<clus scale="   46.402">  1  3  2 -1</clus>
</clustering>
</event>
<event>
 6    0  0.3446372E+002  0.1614314E+03  0.7546771E-02  0.1187090E+00
         21   -1    0    0  506  501  0.00000000000E+00  0.00000000000E+00  0.77553415385E+02  0.77553415385E+02  0.00000000000E+00 0.  1.
         21   -1    0    0  505  502 -0.00000000000E+00 -0.00000000000E+00 -0.11298229465E+04  0.11298229465E+04  0.00000000000E+00 0.  1.
         21    1    1    2  503  502 -0.70369287933E+02 -0.10579083410E+03 -0.54436360995E+03  0.55899488111E+03  0.00000000000E+00 0.  1.
         21    1    1    2  504  501 -0.10554520678E+03  0.70561723734E+01 -0.12427776344E+03  0.16320092747E+03  0.00000000000E+00 0.  1.
         21    1    1    2  505  504  0.34690619472E+02 -0.61437163169E+02 -0.16557968280E+03  0.17998498674E+03  0.00000000000E+00 0.  1.
         21    1    1    2  506  503  0.14122387524E+03  0.16017182490E+03 -0.21804847493E+03  0.30519556656E+03  0.00000000000E+00 0.  1.
<scales pt_clust_3="14000.00000" pt_clust_4="100.35846" pt_clust_5="70.55469" pt_clust_6="161.43137"></scales>
<clustering>
<clus scale="   70.555">  2  5  1 -1</clus>
<clus scale="  100.358">  1  4  2 -1</clus>
<clus scale="  161.431">  1  6  2 -1</clus>
<clus scale="  100.358">  1  3  2 -1</clus>
</clustering>
</event>
<event>
 6    0  0.3446372E+002  0.1626985E+03  0.7546771E-02  0.1185683E+00
         21   -1    0    0  502  501  0.00000000000E+00  0.00000000000E+00  0.14790133196E+03  0.14790133196E+03  0.00000000000E+00 0.  1.
         21   -1    0    0  504  502 -0.00000000000E+00 -0.00000000000E+00 -0.87609338147E+03  0.87609338147E+03  0.00000000000E+00 0.  1.
         21    1    1    2  503  505 -0.75522295092E+02 -0.31760209105E+02  0.93683201816E+01  0.82462678597E+02  0.00000000000E+00 0. -1.
         21    1    1    2  504  506  0.23813810676E+02  0.68821082705E+02 -0.24485199711E+03  0.25545242119E+03  0.00000000000E+00 0.  1.
         21    1    1    2  505  501 -0.70557655357E+02 -0.62096405318E+01  0.75806795625E+02  0.10374783192E+03  0.00000000000E+00 0.  1.
         21    1    1    2  506  503  0.12226613977E+03 -0.30851233069E+02 -0.56851516820E+03  0.58233178171E+03  0.00000000000E+00 0.  1.
<scales pt_clust_3="63.32569" pt_clust_4="72.82471" pt_clust_5="63.32569" pt_clust_6="147.75757"></scales>
<clustering>
<clus scale="   63.326">  3  5 -1 -1</clus>
<clus scale="   72.825">  2  4  1 -1</clus>
<clus scale="  147.758">  2  6  1 -1</clus>
<clus scale="  162.698">  1  3  2 -1</clus>
</clustering>
</event>
<event>
 6    0  0.3446372E+002  0.2775594E+03  0.7546771E-02  0.1097029E+00
         21   -1    0    0  502  501  0.00000000000E+00  0.00000000000E+00  0.12172152742E+04  0.12172152742E+04  0.00000000000E+00 0. -1.
         21   -1    0    0  506  502 -0.00000000000E+00 -0.00000000000E+00 -0.97941415570E+02  0.97941415570E+02  0.00000000000E+00 0. -1.
         21    1    1    2  503  504 -0.34350752115E+02 -0.12314183880E+03  0.11673558268E+03  0.17312158415E+03  0.00000000000E+00 0. -1.
         21    1    1    2  504  505 -0.32408833317E+02  0.26248901484E+03  0.46163192884E+03  0.53202899650E+03  0.00000000000E+00 0. -1.
         21    1    1    2  505  501  0.39901042208E+02  0.12971526451E+02  0.39550255205E+03  0.39772179013E+03  0.00000000000E+00 0. -1.
         21    1    1    2  506  503  0.26858543224E+02 -0.15231870248E+03  0.14540379505E+03  0.21228431898E+03  0.00000000000E+00 0. -1.
<scales pt_clust_3="55.97572" pt_clust_4="270.46845" pt_clust_5="41.95657" pt_clust_6="55.97572"></scales>
<clustering>
<clus scale="   41.957">  1  5  2 -1</clus>
<clus scale="   55.976">  3  6 -1 -1</clus>
<clus scale="  270.468">  1  4  2 -1</clus>
<clus scale="   41.957">  1  3  2 -1</clus>
</clustering>
</event>
<event>
 6    0  0.3446372E+002  0.1368559E+03  0.7546771E-02  0.1217623E+00
         21   -1    0    0  505  501  0.00000000000E+00  0.00000000000E+00  0.24561533332E+03  0.24561533332E+03  0.00000000000E+00 0.  1.
         21   -1    0    0  506  502 -0.00000000000E+00 -0.00000000000E+00 -0.14132571437E+03  0.14132571437E+03  0.00000000000E+00 0.  1.
         21    1    1    2  503  504 -0.77172580921E+02  0.32819311811E+02 -0.19744343884E+02  0.86154243013E+02  0.00000000000E+00 0.  1.
         21    1    1    2  504  501  0.72114944304E+02 -0.11229099076E+03 -0.53451118845E+01  0.13356048075E+03  0.00000000000E+00 0.  1.
         21    1    1    2  505  502  0.21977846603E+02  0.40643188784E+02  0.11252357485E+03  0.12164065699E+03  0.00000000000E+00 0.  1.
         21    1    1    2  506  503 -0.16920209986E+02  0.38828490161E+02  0.16855499871E+02  0.45585666936E+02  0.00000000000E+00 0.  1.
<scales pt_clust_3="41.19590" pt_clust_4="123.97319" pt_clust_5="46.20492" pt_clust_6="41.19590"></scales>
<clustering>
<clus scale="   41.196">  3  6 -1 -1</clus>
<clus scale="   46.205">  1  5  2 -1</clus>
<clus scale="  123.973">  1  4  2 -1</clus>
<clus scale="   46.205">  1  3  2 -1</clus>
</clustering>
</event>
<event>
 6    0  0.3446372E+002  0.7664763E+02  0.7546771E-02  0.1338843E+00
         21   -1    0    0  503  501  0.00000000000E+00  0.00000000000E+00  0.10126391123E+02  0.10126391123E+02  0.00000000000E+00 0. -1.
         21   -1    0    0  504  502 -0.00000000000E+00 -0.00000000000E+00 -0.21097944143E+04  0.21097944143E+04  0.00000000000E+00 0. -1.
         21    1    1    2  503  505 -0.59090691343E+02 -0.24942956668E+02 -0.30151957219E+03  0.30826597818E+03  0.00000000000E+00 0. -1.
         21    1    1    2  504  506 -0.34628986723E+02  0.21009281928E+02 -0.35682194695E+03  0.35911343399E+03  0.00000000000E+00 0. -1.
         21    1    1    2  505  502  0.58768704281E+02 -0.73896185773E+02 -0.70762117609E+03  0.71389224378E+03  0.00000000000E+00 0. -1.
         21    1    1    2  506  501  0.34950973785E+02  0.77829860513E+02 -0.73370532791E+03  0.73864914943E+03  0.00000000000E+00 0. -1.
<scales pt_clust_3="68.50851" pt_clust_4="40.50379" pt_clust_5="76.64763" pt_clust_6="14000.00000"></scales>
<clustering>
<clus scale="   40.504">  2  4  1 -1</clus>
<clus scale="   68.509">  1  3  2 -1</clus>
<clus scale="   76.648">  2  5  1 -1</clus>
<clus scale="   68.509">  1  3  2 -1</clus>
</clustering>
</event>
<event>
 6    0  0.3446372E+002  0.9830729E+02  0.7546771E-02  0.1283896E+00
         21   -1    0    0  504  501  0.00000000000E+00  0.00000000000E+00  0.15025635137E+03  0.15025635137E+03  0.00000000000E+00 0.  1.
         21   -1    0    0  506  502 -0.00000000000E+00 -0.00000000000E+00 -0.16889670661E+03  0.16889670661E+03  0.00000000000E+00 0.  1.
         21    1    1    2  503  501 -0.10775539641E+03  0.56951608193E+02 -0.41308930337E+02  0.12869008842E+03  0.00000000000E+00 0.  1.
         21    1    1    2  504  505  0.28663172912E+02 -0.27586905793E+02  0.58113529200E+02  0.70425827143E+02  0.00000000000E+00 0.  1.
         21    1    1    2  505  502  0.59937007063E+02 -0.55891269008E+02 -0.26114500117E+02  0.86013056470E+02  0.00000000000E+00 0.  1.
         21    1    1    2  506  503  0.19155216440E+02  0.26526566608E+02 -0.93304539881E+01  0.34024085947E+02  0.00000000000E+00 0.  1.
<scales pt_clust_3="14000.00000" pt_clust_4="39.61318" pt_clust_5="98.30729" pt_clust_6="32.71973"></scales>
<clustering>
<clus scale="   32.720">  2  6  1 -1</clus>
<clus scale="   39.613">  1  4  2 -1</clus>
<clus scale="   98.307">  2  5  1 -1</clus>
<clus scale="   39.613">  1  3  2 -1</clus>
</clustering>
</event>
<event>
 6    0  0.3446372E+002  0.1218734E+03  0.7546771E-02  0.1240038E+00
         21   -1    0    0  506  501  0.00000000000E+00  0.00000000000E+00  0.13712940997E+04  0.13712940997E+04  0.00000000000E+00 0. -1.
         21   -1    0    0  504  502 -0.00000000000E+00 -0.00000000000E+00 -0.93741616334E+03  0.93741616334E+03  0.00000000000E+00 0. -1.
         21    1    1    2  503  502  0.81344237798E+02  0.69996883141E+02 -0.79659766527E+03  0.80379368559E+03  0.00000000000E+00 0. -1.
         21    1    1    2  504  501  0.50567877397E+02 -0.11170900424E+03 -0.85868221344E+02  0.14969757276E+03  0.00000000000E+00 0. -1.
         21    1    1    2  505  503 -0.10926202164E+03  0.13287456419E+02  0.13893958583E+03  0.17725392628E+03  0.00000000000E+00 0.  1.
         21    1    1    2  506  505 -0.22650093550E+02  0.28424664681E+02  0.11774042372E+04  0.11779650784E+04  0.00000000000E+00 0. -1.
<scales pt_clust_3="107.34233" pt_clust_4="14000.00000" pt_clust_5="121.87339" pt_clust_6="36.34540"></scales>
<clustering>
<clus scale="   36.345">  1  6  2 -1</clus>
<clus scale="  107.342">  2  3  1 -1</clus>
<clus scale="  121.873">  1  5  2 -1</clus>
<clus scale="   36.345">  1  3  2 -1</clus>
</clustering>
</event>
<event>
 6    0  0.3446372E+002  0.9702183E+02  0.7546771E-02  0.1286686E+00
         21   -1    0    0  504  501  0.00000000000E+00  0.00000000000E+00  0.16496469382E+03  0.16496469382E+03  0.00000000000E+00 0.  1.
         21   -1    0    0  506  502 -0.00000000000E+00 -0.00000000000E+00 -0.17405427722E+04  0.17405427722E+04  0.00000000000E+00 0.  1.
         21    1    1    2  503  502 -0.30599227478E+02  0.31193609781E+02 -0.10385167214E+03  0.11266997746E+03  0.00000000000E+00 0.  1.
         21    1    1    2  504  503  0.74447757713E+02  0.62065876279E+02  0.12130574516E+03  0.15527306732E+03  0.00000000000E+00 0.  1.
         21    1    1    2  505  501 -0.15256404911E+02 -0.12971484635E+03 -0.17294928616E+03  0.21672599022E+03  0.00000000000E+00 0.  1.
         21    1    1    2  506  505 -0.28592125324E+02  0.36455360290E+02 -0.14200828653E+04  0.14208384310E+04  0.00000000000E+00 0.  1.
<scales pt_clust_3="43.69616" pt_clust_4="14000.00000" pt_clust_5="97.02183" pt_clust_6="84.22818"></scales>
<clustering>
<clus scale="   43.696">  2  3  1 -1</clus>
<clus scale="   84.228">  2  6  1 -1</clus>
<clus scale="   97.022">  2  5  1 -1</clus>
<clus scale="   97.022">  1  3  2 -1</clus>
</clustering>
</event>
<event>
 6    0  0.3446372E+002  0.1392040E+03  0.7546771E-02  0.1214404E+00
         21   -1    0    0  503  501  0.00000000000E+00  0.00000000000E+00  0.22184762335E+03  0.22184762335E+03  0.00000000000E+00 0.  1.
         21   -1    0    0  505  502 -0.00000000000E+00 -0.00000000000E+00 -0.12521868015E+04  0.12521868015E+04  0.00000000000E+00 0. -1.
         21    1    1    2  503  506  0.79460450911E+02 -0.45914596725E+02 -0.44362386659E+03  0.45301683022E+03  0.00000000000E+00 0. -1.
         21    1    1    2  504  502 -0.37905817137E+02 -0.75650014920E+01 -0.22886619470E+03  0.23210733572E+03  0.00000000000E+00 0.  1.
         21    1    1    2  505  501 -0.10384802243E+03  0.82524407632E+02  0.19278110210E+03  0.23400692927E+03  0.00000000000E+00 0.  1.
         21    1    1    2  506  504  0.62293388652E+02 -0.29044809414E+02 -0.55063021893E+03  0.55490332962E+03  0.00000000000E+00 0. -1.
<scales pt_clust_3="35.14047" pt_clust_4="38.65333" pt_clust_5="133.15008" pt_clust_6="35.14047"></scales>
<clustering>
<clus scale="   35.140">  3  6 -1 -1</clus>
<clus scale="   38.653">  2  4  1 -1</clus>
<clus scale="  133.150">  1  5  2 -1</clus>
<clus scale="  133.150">  1  3  2 -1</clus>
</clustering>
</event>
<event>
 6    0  0.3446372E+002  0.1026503E+03  0.7546771E-02  0.1274820E+00
         21   -1    0    0  503  501  0.00000000000E+00  0.00000000000E+00  0.91709029915E+02  0.91709029915E+02  0.00000000000E+00 0.  1.
         21   -1    0    0  505  502 -0.00000000000E+00 -0.00000000000E+00 -0.48111506413E+03  0.48111506413E+03  0.00000000000E+00 0.  1.
         21    1    1    2  503  502 -0.13995711293E+03  0.20906903282E+02 -0.14310817366E+03  0.20125864313E+03  0.00000000000E+00 0.  1.
         21    1    1    2  504  506  0.67539281831E+02 -0.32860103226E+01 -0.15580339667E+03  0.16984419586E+03  0.00000000000E+00 0. -1.
         21    1    1    2  505  504 -0.33766216004E+01  0.41288847259E+02 -0.97029915742E+02  0.10550343611E+03  0.00000000000E+00 0. -1.
         21    1    1    2  506  501  0.75794452701E+02 -0.58909740219E+02  0.65354518550E+01  0.96217818952E+02  0.00000000000E+00 0.  1.
<scales pt_clust_3="14000.00000" pt_clust_4="67.64511" pt_clust_5="41.42669" pt_clust_6="102.65026"></scales>
<clustering>
<clus scale="   41.427">  2  5  1 -1</clus>
<clus scale="   67.645">  2  4  1 -1</clus>
<clus scale="  102.650">  1  6  2 -1</clus>
<clus scale="  102.650">  1  3  2 -1</clus>
</clustering>
</event>
<event>
 6    0  0.3446372E+002  0.1429246E+03  0.7546771E-02  0.1209447E+00
         21   -1    0    0  503  501  0.00000000000E+00  0.00000000000E+00  0.54386932866E+03  0.54386932866E+03  0.00000000000E+00 0. -1.
         21   -1    0    0  506  502 -0.00000000000E+00 -0.00000000000E+00 -0.39581470988E+03  0.39581470988E+03  0.00000000000E+00 0. -1.
         21    1    1    2  503  504  0.10770051055E+03  0.95954851662E+02  0.47409676895E+03  0.49555471934E+03  0.00000000000E+00 0. -1.
         21    1    1    2  504  505 -0.84418568921E+02 -0.95229076535E+02 -0.10370234592E+03  0.16416226224E+03  0.00000000000E+00 0. -1.
         21    1    1    2  505  502 -0.31188163221E+02 -0.51444207152E+02 -0.22054691919E+03  0.22860479334E+03  0.00000000000E+00 0. -1.
         21    1    1    2  506  501  0.79062215882E+01  0.50718432024E+02 -0.17928850565E+01  0.51362263615E+02  0.00000000000E+00 0. -1.
<scales pt_clust_3="14000.00000" pt_clust_4="142.92462" pt_clust_5="33.46776" pt_clust_6="51.33096"></scales>
<clustering>
<clus scale="   51.331">  2  6  1 -1</clus>
<clus scale="   33.468">  2  5  1 -1</clus>
<clus scale="  142.925">  2  4  1 -1</clus>
<clus scale="  142.925">  1  3  2 -1</clus>
</clustering>
</event>
<event>
 6    0  0.3446372E+002  0.1093796E+03  0.7546771E-02  0.1261723E+00
         21   -1    0    0  505  501  0.00000000000E+00  0.00000000000E+00  0.30688666760E+02  0.30688666760E+02  0.00000000000E+00 0.  1.
         21   -1    0    0  503  502 -0.00000000000E+00 -0.00000000000E+00 -0.10505621998E+04  0.10505621998E+04  0.00000000000E+00 0.  1.
         21    1    1    2  503  504 -0.40198629353E+02  0.39231057855E+02 -0.18667344216E+03  0.19494096468E+03  0.00000000000E+00 0.  1.
         21    1    1    2  504  501 -0.24601410167E+02  0.28408603509E+02 -0.30503420027E+03  0.30734043254E+03  0.00000000000E+00 0.  1.
         21    1    1    2  505  506 -0.51698121963E+02 -0.36349333882E+02 -0.37052559635E+02  0.73258870204E+02  0.00000000000E+00 0.  1.
         21    1    1    2  506  502  0.11649816148E+03 -0.31290327482E+02 -0.49111333097E+03  0.50571059914E+03  0.00000000000E+00 0.  1.
<scales pt_clust_3="34.08069" pt_clust_4="34.08069" pt_clust_5="63.19786" pt_clust_6="101.13289"></scales>
<clustering>
<clus scale="   34.081">  3  4 -1 -1</clus>
<clus scale="   63.198">  1  5  2 -1</clus>
<clus scale="  101.133">  1  6  2 -1</clus>
<clus scale="   63.198">  1  3  2 -1</clus>
</clustering>
</event>
<event>
 6    0  0.3446372E+002  0.1223510E+03  0.7546771E-02  0.1239268E+00
         21   -1    0    0  503  501  0.00000000000E+00  0.00000000000E+00  0.11986098999E+04  0.11986098999E+04  0.00000000000E+00 0.  1.
         21   -1    0    0  504  502 -0.00000000000E+00 -0.00000000000E+00 -0.25263926521E+03  0.25263926521E+03  0.00000000000E+00 0. -1.
         21    1    1    2  503  505  0.16708470648E+02 -0.29188469045E+02  0.83019027223E+03  0.83087124623E+03  0.00000000000E+00 0.  1.
         21    1    1    2  504  506  0.30554718311E+02  0.39162498511E+02  0.39217310420E+01  0.49826419449E+02  0.00000000000E+00 0.  1.
         21    1    1    2  505  502  0.70808161674E+02  0.34385690642E+02 -0.21031772243E+03  0.22456561591E+03  0.00000000000E+00 0. -1.
         21    1    1    2  506  501 -0.11807135063E+03 -0.44359720108E+02  0.32217635385E+03  0.34598588351E+03  0.00000000000E+00 0.  1.
<scales pt_clust_3="33.63242" pt_clust_4="48.79500" pt_clust_5="122.35097" pt_clust_6="14000.00000"></scales>
<clustering>
<clus scale="   33.632">  1  3  2 -1</clus>
<clus scale="   48.795">  2  4  1 -1</clus>
<clus scale="  122.351">  2  5  1 -1</clus>
<clus scale="   33.632">  1  3  2 -1</clus>
</clustering>
</event>
<event>
 6    0  0.3446372E+002  0.1555423E+03  0.7546771E-02  0.1193823E+00
         21   -1    0    0  504  501  0.00000000000E+00  0.00000000000E+00  0.16011762247E+03  0.16011762247E+03  0.00000000000E+00 0.  1.
         21   -1    0    0  503  502 -0.00000000000E+00 -0.00000000000E+00 -0.65735756196E+03  0.65735756196E+03  0.00000000000E+00 0.  1.
         21    1    1    2  503  506  0.13586301800E+02  0.10209889486E+03 -0.32917103417E+03  0.34490917886E+03  0.00000000000E+00 0.  1.
         21    1    1    2  504  502 -0.15298903375E+02 -0.14742007116E+03  0.47480104603E+02  0.15563127629E+03  0.00000000000E+00 0.  1.
         21    1    1    2  505  501 -0.39588563475E+02  0.19963600788E+02  0.38245959932E+02  0.58553848427E+02  0.00000000000E+00 0.  1.
         21    1    1    2  506  505  0.41301165050E+02  0.25357575517E+02 -0.25379496985E+03  0.25838088086E+03  0.00000000000E+00 0. -1.
<scales pt_clust_3="47.30205" pt_clust_4="139.07426" pt_clust_5="44.33734" pt_clust_6="47.30205"></scales>
<clustering>
<clus scale="   44.337">  1  5  2 -1</clus>
<clus scale="   47.302">  3  6 -1 -1</clus>
<clus scale="  139.074">  1  4  2 -1</clus>
<clus scale="   44.337">  1  3  2 -1</clus>
</clustering>
</event>
<event>
 6    0  0.3446372E+002  0.8222260E+02  0.7546771E-02  0.1322860E+00
         21   -1    0    0  504  501  0.00000000000E+00  0.00000000000E+00  0.54349583487E+03  0.54349583487E+03  0.00000000000E+00 0. -1.
         21   -1    0    0  505  502 -0.00000000000E+00 -0.00000000000E+00 -0.34859757700E+03  0.34859757700E+03  0.00000000000E+00 0.  1.
         21    1    1    2  503  502  0.41702084507E+02  0.18883993635E+02 -0.13178915936E+03  0.13951362512E+03  0.00000000000E+00 0.  1.
         21    1    1    2  504  506  0.33323611865E+02  0.24589064171E+02  0.43103869328E+03  0.43302360246E+03  0.00000000000E+00 0. -1.
         21    1    1    2  505  501 -0.11601710926E+03  0.17335471784E+02 -0.17957954778E+03  0.21449779067E+03  0.00000000000E+00 0.  1.
         21    1    1    2  506  503  0.40991412887E+02 -0.60808529590E+02  0.75228271735E+02  0.10505839362E+03  0.00000000000E+00 0.  1.
<scales pt_clust_3="47.18273" pt_clust_4="41.41359" pt_clust_5="82.22260" pt_clust_6="14000.00000"></scales>
<clustering>
<clus scale="   41.414">  1  4  2 -1</clus>
<clus scale="   47.183">  2  3  1 -1</clus>
<clus scale="   82.223">  2  5  1 -1</clus>
<clus scale="   41.414">  1  3  2 -1</clus>
</clustering>
</event>
<event>
 6    0  0.3446372E+002  0.1492089E+03  0.7546771E-02  0.1201449E+00
         21   -1    0    0  504  501  0.00000000000E+00  0.00000000000E+00  0.22884797198E+03  0.22884797198E+03  0.00000000000E+00 0.  1.
         21   -1    0    0  506  502 -0.00000000000E+00 -0.00000000000E+00 -0.14814863991E+04  0.14814863991E+04  0.00000000000E+00 0.  1.
         21    1    1    2  503  502  0.26742458286E+02  0.10581094791E+03 -0.74711758404E+03  0.75504688606E+03  0.00000000000E+00 0.  1.
         21    1    1    2  504  505  0.10872493563E+02  0.14161813912E+03  0.15427350894E+03  0.20970031951E+03  0.00000000000E+00 0.  1.
         21    1    1    2  505  503 -0.66376546348E+01 -0.28911904977E+03 -0.50054965071E+03  0.57808635706E+03  0.00000000000E+00 0.  1.
         21    1    1    2  506  501 -0.30977297214E+02  0.41689962727E+02 -0.15924470130E+03  0.16750080844E+03  0.00000000000E+00 0.  1.
<scales pt_clust_3="129.88510" pt_clust_4="149.20886" pt_clust_5="14000.00000" pt_clust_6="51.93887"></scales>
<clustering>
<clus scale="   51.939">  2  6  1 -1</clus>
<clus scale="  129.885">  2  3  1 -1</clus>
<clus scale="  149.209">  1  4  2 -1</clus>
<clus scale="  149.209">  1  3  2 -1</clus>
</clustering>
</event>
<event>
 6    0  0.3446372E+002  0.1097313E+03  0.7546771E-02  0.1261068E+00
         21   -1    0    0  506  501  0.00000000000E+00  0.00000000000E+00  0.57992218044E+03  0.57992218044E+03  0.00000000000E+00 0. -1.
         21   -1    0    0  505  502 -0.00000000000E+00 -0.00000000000E+00 -0.25988271248E+03  0.25988271248E+03  0.00000000000E+00 0.  1.
         21    1    1    2  503  502 -0.20155284960E+02 -0.24783140756E+02 -0.74930720153E+02  0.81455830977E+02  0.00000000000E+00 0.  1.
         21    1    1    2  504  503  0.26008680171E+02 -0.48513980933E+02 -0.15232118670E+03  0.16196234658E+03  0.00000000000E+00 0.  1.
         21    1    1    2  505  501 -0.62259089448E+02  0.13763828452E+03  0.36427101776E+03  0.39435246413E+03  0.00000000000E+00 0. -1.
         21    1    1    2  506  504  0.56405694237E+02 -0.64341162835E+02  0.18302035705E+03  0.20203425124E+03  0.00000000000E+00 0. -1.
<scales pt_clust_3="31.94432" pt_clust_4="70.47255" pt_clust_5="14000.00000" pt_clust_6="109.73134"></scales>
<clustering>
<clus scale="   31.944">  2  3  1 -1</clus>
<clus scale="   70.473">  2  4  1 -1</clus>
<clus scale="  109.731">  1  6  2 -1</clus>
<clus scale="  109.731">  1  3  2 -1</clus>
</clustering>
</event>
<event>
 6    0  0.3446372E+002  0.1120349E+03  0.7546771E-02  0.1256847E+00
         21   -1    0    0  506  501  0.00000000000E+00  0.00000000000E+00  0.30770663654E+04  0.30770663654E+04  0.00000000000E+00 0.  1.
         21   -1    0    0  501  502 -0.00000000000E+00 -0.00000000000E+00 -0.18748024616E+03  0.18748024616E+03  0.00000000000E+00 0.  1.
         21    1    1    2  503  502 -0.56455037704E+01  0.32390825326E+02  0.10489841216E+02  0.34511940642E+02  0.00000000000E+00 0.  1.
         21    1    1    2  504  505  0.52077930182E+02 -0.91037572560E+02  0.20293093502E+04  0.20320178122E+04  0.00000000000E+00 0.  1.
         21    1    1    2  505  503 -0.74271353987E+02  0.46799846751E+02 -0.16280945776E+03  0.18496858981E+03  0.00000000000E+00 0.  1.
         21    1    1    2  506  504  0.27838927575E+02  0.11846900484E+02  0.10125963856E+04  0.10130482689E+04  0.00000000000E+00 0.  1.
<scales pt_clust_3="32.95581" pt_clust_4="112.03494" pt_clust_5="14000.00000" pt_clust_6="30.25483"></scales>
<clustering>
<clus scale="   30.255">  1  6  2 -1</clus>
<clus scale="   32.956">  2  3  1 -1</clus>
<clus scale="  112.035">  1  4  2 -1</clus>
<clus scale="   30.255">  1  3  2 -1</clus>
</clustering>
</event>
<event>
 6    0  0.3446372E+002  0.1344195E+03  0.7546771E-02  0.1221042E+00
         21   -1    0    0  504  501  0.00000000000E+00  0.00000000000E+00  0.15772244307E+04  0.15772244307E+04  0.00000000000E+00 0.  1.
         21   -1    0    0  505  502 -0.00000000000E+00 -0.00000000000E+00 -0.15488985469E+03  0.15488985469E+03  0.00000000000E+00 0.  1.
         21    1    1    2  503  501 -0.65772889280E+02 -0.32303749570E+02 -0.35428730691E+02  0.81392875357E+02  0.00000000000E+00 0.  1.
         21    1    1    2  504  506 -0.15447693030E+02 -0.28480875836E+02  0.32861297481E+03  0.33020641835E+03  0.00000000000E+00 0.  1.
         21    1    1    2  505  503 -0.47902505015E+02 -0.15823893353E+02 -0.84067305671E+02  0.98042630883E+02  0.00000000000E+00 0.  1.
         21    1    1    2  506  502  0.12912308732E+03  0.76608518759E+02  0.12132176375E+04  0.12224723608E+04  0.00000000000E+00 0.  1.
<scales pt_clust_3="42.86363" pt_clust_4="32.40049" pt_clust_5="42.86363" pt_clust_6="124.05308"></scales>
<clustering>
<clus scale="   32.400">  1  4  2 -1</clus>
<clus scale="   42.864">  3  5 -1 -1</clus>
<clus scale="  124.053">  1  6  2 -1</clus>
<clus scale="   32.400">  1  3  2 -1</clus>
</clustering>
</event>
<event>
 6    0  0.3446372E+002  0.8798621E+02  0.7546771E-02  0.1307803E+00
         21   -1    0    0  505  501  0.00000000000E+00  0.00000000000E+00  0.66304152264E+03  0.66304152264E+03  0.00000000000E+00 0. -1.
         21   -1    0    0  504  502 -0.00000000000E+00 -0.00000000000E+00 -0.12964425979E+04  0.12964425979E+04  0.00000000000E+00 0.  1.
         21    1    1    2  503  502  0.11945308217E+02  0.39240626926E+02 -0.11908399698E+03  0.12595044869E+03  0.00000000000E+00 0.  1.
         21    1    1    2  504  506 -0.45377005919E+02  0.42173066987E+02 -0.11587629154E+04  0.11604176551E+04  0.00000000000E+00 0.  1.
         21    1    1    2  505  503  0.27025831730E+02  0.27180863518E+02  0.43879455939E+03  0.44046550407E+03  0.00000000000E+00 0. -1.
         21    1    1    2  506  501  0.64058659719E+01 -0.10859455743E+03  0.20565127770E+03  0.23265051267E+03  0.00000000000E+00 0. -1.
<scales pt_clust_3="41.53995" pt_clust_4="87.98621" pt_clust_5="38.33008" pt_clust_6="14000.00000"></scales>
<clustering>
<clus scale="   38.330">  1  5  2 -1</clus>
<clus scale="   41.540">  2  3  1 -1</clus>
<clus scale="   87.986">  2  4  1 -1</clus>
<clus scale="   38.330">  1  3  2 -1</clus>
</clustering>
</event>
<event>
 6    0  0.3446372E+002  0.9961276E+02  0.7546771E-02  0.1281112E+00
         21   -1    0    0  504  501  0.00000000000E+00  0.00000000000E+00  0.14892920734E+04  0.14892920734E+04  0.00000000000E+00 0.  1.
         21   -1    0    0  505  502 -0.00000000000E+00 -0.00000000000E+00 -0.73337470671E+03  0.73337470671E+03  0.00000000000E+00 0.  1.
         21    1    1    2  503  501 -0.76010181622E+02  0.60531807591E+02  0.11875115675E+04  0.11914803273E+04  0.00000000000E+00 0.  1.
         21    1    1    2  504  506 -0.23040526004E+02 -0.48025658403E+02  0.27663468301E+03  0.28171630686E+03  0.00000000000E+00 0.  1.
         21    1    1    2  505  503  0.99978916747E+02 -0.62635290651E+02 -0.68342310421E+03  0.69353161630E+03  0.00000000000E+00 0.  1.
         21    1    1    2  506  502 -0.92820911998E+00  0.50129141463E+02 -0.24805779613E+02  0.55938529639E+02  0.00000000000E+00 0. -1.
<scales pt_clust_3="14000.00000" pt_clust_4="53.10242" pt_clust_5="99.61276" pt_clust_6="50.13773"></scales>
<clustering>
<clus scale="   50.138">  2  6  1 -1</clus>
<clus scale="   53.102">  1  4  2 -1</clus>
<clus scale="   99.613">  2  5  1 -1</clus>
<clus scale="   53.102">  1  3  2 -1</clus>
</clustering>
</event>
<event>
 6    0  0.3446372E+002  0.1377680E+03  0.7546771E-02  0.1216364E+00
         21   -1    0    0  505  501  0.00000000000E+00  0.00000000000E+00  0.13463936937E+04  0.13463936937E+04  0.00000000000E+00 0. -1.
         21   -1    0    0  503  502 -0.00000000000E+00 -0.00000000000E+00 -0.13521400143E+03  0.13521400143E+03  0.00000000000E+00 0.  1.
         21    1    1    2  503  501  0.36520174440E+02  0.12854784258E+02 -0.10405685435E+02  0.40090484018E+02  0.00000000000E+00 0.  1.
         21    1    1    2  504  506  0.65051056521E+02  0.42084438106E+02  0.10438747216E+03  0.12999801625E+03  0.00000000000E+00 0.  1.
         21    1    1    2  505  504 -0.12849654809E+03 -0.10225349430E+03  0.12006786222E+04  0.12118565484E+04  0.00000000000E+00 0. -1.
         21    1    1    2  506  502  0.26925317128E+02  0.47314271935E+02 -0.83480716729E+02  0.99662646447E+02  0.00000000000E+00 0.  1.
<scales pt_clust_3="38.71652" pt_clust_4="14000.00000" pt_clust_5="137.76801" pt_clust_6="81.57008"></scales>
<clustering>
<clus scale="   38.717">  2  3  1 -1</clus>
<clus scale="   81.570">  2  6  1 -1</clus>
<clus scale="  137.768">  1  5  2 -1</clus>
<clus scale="  137.768">  1  3  2 -1</clus>
</clustering>
</event>
<event>
 6    0  0.3446372E+002  0.1008396E+03  0.7546771E-02  0.1278540E+00
         21   -1    0    0  503  501  0.00000000000E+00  0.00000000000E+00  0.59853634364E+03  0.59853634364E+03  0.00000000000E+00 0.  1.
         21   -1    0    0  506  502 -0.00000000000E+00 -0.00000000000E+00 -0.47568524852E+02  0.47568524852E+02  0.00000000000E+00 0. -1.
         21    1    1    2  503  504  0.90771560994E+02 -0.92776919599E+02  0.44276740695E+03  0.46140005391E+03  0.00000000000E+00 0.  1.
         21    1    1    2  504  505 -0.16164094803E+02  0.45938528073E+02  0.27638840614E+02  0.55995819780E+02  0.00000000000E+00 0. -1.
         21    1    1    2  505  502 -0.37933408413E+02  0.26153649353E+02  0.10957556084E+02  0.47360583650E+02  0.00000000000E+00 0. -1.
         21    1    1    2  506  501 -0.36674057778E+02  0.20684742173E+02  0.69604015141E+02  0.81348411149E+02  0.00000000000E+00 0.  1.
<scales pt_clust_3="95.39178" pt_clust_4="31.80323" pt_clust_5="31.80323" pt_clust_6="42.10517"></scales>
<clustering>
<clus scale="   31.803">  4  5 -1 -1</clus>
<clus scale="   42.105">  1  6  2 -1</clus>
<clus scale="   95.392">  1  3  2 -1</clus>
<clus scale="   42.105">  1  3  2 -1</clus>
</clustering>
</event>
<event>
 6    0  0.3446372E+002  0.8605505E+02  0.7546771E-02  0.1312696E+00
         21   -1    0    0  505  501  0.00000000000E+00  0.00000000000E+00  0.55327929989E+03  0.55327929989E+03  0.00000000000E+00 0. -1.
         21   -1    0    0  506  502 -0.00000000000E+00 -0.00000000000E+00 -0.29252259855E+03  0.29252259855E+03  0.00000000000E+00 0.  1.
         21    1    1    2  503  504  0.71380916007E+02  0.38673635020E+02 -0.82145141571E+02  0.11549333097E+03  0.00000000000E+00 0. -1.
         21    1    1    2  504  501 -0.28086155856E+02  0.50533010189E+02  0.50162795898E+03  0.50494853846E+03  0.00000000000E+00 0. -1.
         21    1    1    2  505  502 -0.67303277090E+02 -0.64748909961E+02 -0.16586641854E+03  0.19035183542E+03  0.00000000000E+00 0.  1.
         21    1    1    2  506  503  0.24008516938E+02 -0.24457735248E+02  0.71403024771E+01  0.35008193591E+02  0.00000000000E+00 0.  1.
<scales pt_clust_3="14000.00000" pt_clust_4="57.61675" pt_clust_5="86.05505" pt_clust_6="34.27229"></scales>
<clustering>
<clus scale="   34.272">  2  6  1 -1</clus>
<clus scale="   57.617">  1  4  2 -1</clus>
<clus scale="   86.055">  2  5  1 -1</clus>
<clus scale="   57.617">  1  3  2 -1</clus>
</clustering>
</event>
<event>
 6    0  0.3446372E+002  0.1149936E+03  0.7546771E-02  0.1251592E+00
         21   -1    0    0  502  501  0.00000000000E+00  0.00000000000E+00  0.71715602917E+02  0.71715602917E+02  0.00000000000E+00 0. -1.
         21   -1    0    0  503  502 -0.00000000000E+00 -0.00000000000E+00 -0.12059254052E+04  0.12059254052E+04  0.00000000000E+00 0. -1.
         21    1    1    2  503  506  0.11628717003E+03 -0.62463956809E+01 -0.10052656648E+04  0.10119885277E+04  0.00000000000E+00 0. -1.
         21    1    1    2  504  505 -0.26035125829E+02 -0.32960155549E+02 -0.53949489090E+02  0.68372121540E+02  0.00000000000E+00 0. -1.
         21    1    1    2  505  501 -0.40694230455E+02  0.47191476077E+02  0.38452960018E+02  0.73223534064E+02  0.00000000000E+00 0. -1.
         21    1    1    2  506  504 -0.49557813746E+02 -0.79849248470E+01 -0.11344760839E+03  0.12405682479E+03  0.00000000000E+00 0. -1.
<scales pt_clust_3="107.73680" pt_clust_4="36.77577" pt_clust_5="62.31417" pt_clust_6="36.77577"></scales>
<clustering>
<clus scale="   36.776">  4  6 -1 -1</clus>
<clus scale="   62.314">  1  5  2 -1</clus>
<clus scale="  107.737">  2  3  1 -1</clus>
<clus scale="   62.314">  1  3  2 -1</clus>
</clustering>
</event>
<event>
 6    0  0.3446372E+002  0.9776503E+02  0.7546771E-02  0.1285067E+00
         21   -1    0    0  503  501  0.00000000000E+00  0.00000000000E+00  0.54665906733E+03  0.54665906733E+03  0.00000000000E+00 0. -1.
         21   -1    0    0  505  502 -0.00000000000E+00 -0.00000000000E+00 -0.10146900823E+04  0.10146900823E+04  0.00000000000E+00 0.  1.
         21    1    1    2  503  502  0.60271801185E+02 -0.12886320557E+02  0.37183464686E+03  0.37690814780E+03  0.00000000000E+00 0. -1.
         21    1    1    2  504  506 -0.68938983494E+02  0.70801164896E+01 -0.61739150609E+03  0.62126884945E+03  0.00000000000E+00 0.  1.
         21    1    1    2  505  504 -0.56709229044E+00  0.63881755137E+02 -0.38503669199E+03  0.39030046683E+03  0.00000000000E+00 0.  1.
         21    1    1    2  506  501  0.92342745992E+01 -0.58075551070E+02  0.16256253627E+03  0.17287168553E+03  0.00000000000E+00 0.  1.
<scales pt_clust_3="97.76503" pt_clust_4="14000.00000" pt_clust_5="63.48039" pt_clust_6="58.80511"></scales>
<clustering>
<clus scale="   58.805">  1  6  2 -1</clus>
<clus scale="   63.480">  2  5  1 -1</clus>
<clus scale="   97.765">  1  3  2 -1</clus>
<clus scale="   58.805">  1  3  2 -1</clus>
</clustering>
</event>
<event>
 6    0  0.3834081E+002  0.1154412E+03  0.7546771E-02  0.1250813E+00
         21   -1    0    0  503  501  0.00000000000E+00  0.00000000000E+00  0.72269155228E+03  0.72269155228E+03  0.00000000000E+00 0.  1.
         21   -1    0    0  504  502 -0.00000000000E+00 -0.00000000000E+00 -0.12450625761E+04  0.12450625761E+04  0.00000000000E+00 0. -1.
         21    1    1    2  503  505  0.79232892394E+02  0.40502201837E+01  0.61912122587E+03  0.62418374526E+03  0.00000000000E+00 0.  1.
         21    1    1    2  504  501  0.56262016236E+02 -0.55609537999E+02 -0.11054469294E+04  0.11082737698E+04  0.00000000000E+00 0. -1.
         21    1    1    2  505  506 -0.12558584616E+03  0.10004912254E+03  0.18518243122E+02  0.16163092837E+03  0.00000000000E+00 0. -1.
         21    1    1    2  506  502 -0.99090624724E+01 -0.48489804729E+02 -0.54563563447E+02  0.73665684941E+02  0.00000000000E+00 0. -1.
<scales pt_clust_3="79.30989" pt_clust_4="115.44122" pt_clust_5="14000.00000" pt_clust_6="49.49193"></scales>
<clustering>
<clus scale="   49.492">  2  6  1 -1</clus>
<clus scale="   79.310">  1  3  2 -1</clus>
<clus scale="  115.441">  2  4  1 -1</clus>
<clus scale="   79.310">  1  3  2 -1</clus>
</clustering>
</event>
<event>
 6    0  0.3446372E+002  0.8356293E+02  0.7546771E-02  0.1319234E+00
         21   -1    0    0  503  501  0.00000000000E+00  0.00000000000E+00  0.18051272306E+03  0.18051272306E+03  0.00000000000E+00 0.  1.
         21   -1    0    0  505  502 -0.00000000000E+00 -0.00000000000E+00 -0.46927039975E+03  0.46927039975E+03  0.00000000000E+00 0.  1.
         21    1    1    2  503  504 -0.58859989737E+02 -0.30611282501E+02  0.58653274683E+02  0.88553687892E+02  0.00000000000E+00 0.  1.
         21    1    1    2  504  506 -0.87986010433E-01  0.99847531504E+02 -0.19006929847E+03  0.21469950049E+03  0.00000000000E+00 0.  1.
         21    1    1    2  505  501  0.22561927065E+02 -0.50626500300E+02  0.84611545341E+02  0.10114937810E+03  0.00000000000E+00 0.  1.
         21    1    1    2  506  502  0.36386048683E+02 -0.18609748703E+02 -0.24195319824E+03  0.24538055633E+03  0.00000000000E+00 0.  1.
<scales pt_clust_3="83.56293" pt_clust_4="14000.00000" pt_clust_5="56.60009" pt_clust_6="40.86890"></scales>
<clustering>
<clus scale="   40.869">  2  6  1 -1</clus>
<clus scale="   56.600">  1  5  2 -1</clus>
<clus scale="   83.563">  1  3  2 -1</clus>
<clus scale="   56.600">  1  3  2 -1</clus>
</clustering>
</event>
<event>
 6    0  0.3446372E+002  0.7563340E+02  0.7546771E-02  0.1341921E+00
         21   -1    0    0  506  501  0.00000000000E+00  0.00000000000E+00  0.18257097414E+03  0.18257097414E+03  0.00000000000E+00 0. -1.
         21   -1    0    0  505  502 -0.00000000000E+00 -0.00000000000E+00 -0.12233094230E+04  0.12233094230E+04  0.00000000000E+00 0. -1.
         21    1    1    2  503  502 -0.76429865629E+02 -0.50570298149E+02 -0.38253168615E+03  0.39335654351E+03  0.00000000000E+00 0.  1.
         21    1    1    2  504  501  0.16691425288E+02  0.25566188154E+02  0.79097738697E+01  0.31540421328E+02  0.00000000000E+00 0. -1.
         21    1    1    2  505  504  0.69988528500E+02 -0.27039620015E+02 -0.81731438897E+03  0.82075108626E+03  0.00000000000E+00 0. -1.
         21    1    1    2  506  503 -0.10250088159E+02  0.52043730010E+02  0.15119785241E+03  0.16023234602E+03  0.00000000000E+00 0. -1.
<scales pt_clust_3="75.63340" pt_clust_4="30.53250" pt_clust_5="75.09796" pt_clust_6="14000.00000"></scales>
<clustering>
<clus scale="   30.533">  1  4  2 -1</clus>
<clus scale="   75.098">  2  5  1 -1</clus>
<clus scale="   75.633">  2  3  1 -1</clus>
<clus scale="   30.533">  1  3  2 -1</clus>
</clustering>
</event>
<event>
 6    0  0.3446372E+002  0.1572341E+03  0.7546771E-02  0.1191855E+00
         21   -1    0    0  504  501  0.00000000000E+00  0.00000000000E+00  0.17526209422E+04  0.17526209422E+04  0.00000000000E+00 0. -1.
         21   -1    0    0  505  502 -0.00000000000E+00 -0.00000000000E+00 -0.54924387065E+02  0.54924387065E+02  0.00000000000E+00 0.  1.
         21    1    1    2  503  502  0.39675902574E+02  0.49534148792E+01  0.69395872719E+02  0.80090578187E+02  0.00000000000E+00 0. -1.
         21    1    1    2  504  506 -0.64922328316E+02  0.15463609008E+03  0.61153765802E+03  0.63411791983E+03  0.00000000000E+00 0. -1.
         21    1    1    2  505  501 -0.61529264898E+02 -0.15813071773E+03  0.98716353805E+03  0.10016401675E+04  0.00000000000E+00 0. -1.
         21    1    1    2  506  503  0.86775690640E+02 -0.14587872240E+01  0.29599486334E+02  0.91696663720E+02  0.00000000000E+00 0.  1.
<scales pt_clust_3="39.98392" pt_clust_4="157.23408" pt_clust_5="14000.00000" pt_clust_6="111.63560"></scales>
<clustering>
<clus scale="   39.984">  2  3  1 -1</clus>
<clus scale="  111.636">  2  6  1 -1</clus>
<clus scale="  157.234">  2  4  1 -1</clus>
<clus scale="  157.234">  1  3  2 -1</clus>
</clustering>
</event>
<event>
 6    0  0.3446372E+002  0.1217930E+03  0.7546771E-02  0.1240168E+00
         21   -1    0    0  505  501  0.00000000000E+00  0.00000000000E+00  0.91646685517E+03  0.91646685517E+03  0.00000000000E+00 0.  1.
         21   -1    0    0  504  502 -0.00000000000E+00 -0.00000000000E+00 -0.20805540908E+04  0.20805540908E+04  0.00000000000E+00 0. -1.
         21    1    1    2  503  501  0.11166701075E+03  0.64683574991E+02  0.79595214566E+03  0.80634564818E+03  0.00000000000E+00 0.  1.
         21    1    1    2  504  503  0.31039915123E+02 -0.76821834027E+01 -0.32655303452E+02  0.45704060172E+02  0.00000000000E+00 0.  1.
         21    1    1    2  505  506 -0.47122700111E+02 -0.90221394424E+02  0.83431982369E+02  0.13161057921E+03  0.00000000000E+00 0.  1.
         21    1    1    2  506  502 -0.95584225763E+02  0.33220002836E+02 -0.20108160602E+04  0.20133606584E+04  0.00000000000E+00 0. -1.
<scales pt_clust_3="14000.00000" pt_clust_4="31.97643" pt_clust_5="121.79303" pt_clust_6="69.86753"></scales>
<clustering>
<clus scale="   31.976">  2  4  1 -1</clus>
<clus scale="   69.868">  2  6  1 -1</clus>
<clus scale="  121.793">  2  5  1 -1</clus>
<clus scale="  121.793">  1  3  2 -1</clus>
</clustering>
</event>
<event>
 6    0  0.3446372E+002  0.1781686E+03  0.7546771E-02  0.1169587E+00
         21   -1    0    0  503  501  0.00000000000E+00  0.00000000000E+00  0.16036052861E+03  0.16036052861E+03  0.00000000000E+00 0.  1.
         21   -1    0    0  506  502 -0.00000000000E+00 -0.00000000000E+00 -0.16212097014E+04  0.16212097014E+04  0.00000000000E+00 0.  1.
         21    1    1    2  503  505 -0.23224893669E+02 -0.43536327084E+02  0.10643118559E+03  0.11731327601E+03  0.00000000000E+00 0.  1.
         21    1    1    2  504  501 -0.14107112781E+03 -0.56605050557E+02 -0.11937245303E+04  0.12033633903E+04  0.00000000000E+00 0.  1.
         21    1    1    2  505  502  0.19642292493E+03  0.81991477513E+02 -0.23304163676E+03  0.31561522823E+03  0.00000000000E+00 0.  1.
         21    1    1    2  506  504 -0.32126903453E+02  0.18149900129E+02 -0.14051419129E+03  0.14527833546E+03  0.00000000000E+00 0.  1.
<scales pt_clust_3="49.34067" pt_clust_4="178.16861" pt_clust_5="14000.00000" pt_clust_6="36.89928"></scales>
<clustering>
<clus scale="   36.899">  2  6  1 -1</clus>
<clus scale="   49.341">  1  3  2 -1</clus>
<clus scale="  178.169">  2  4  1 -1</clus>
<clus scale="   49.341">  1  3  2 -1</clus>
</clustering>
</event>
<event>
 6    0  0.3446372E+002  0.1337255E+03  0.7546771E-02  0.1222030E+00
         21   -1    0    0  505  501  0.00000000000E+00  0.00000000000E+00  0.74742612760E+02  0.74742612760E+02  0.00000000000E+00 0.  1.
         21   -1    0    0  501  502 -0.00000000000E+00 -0.00000000000E+00 -0.11244654051E+04  0.11244654051E+04  0.00000000000E+00 0.  1.
         21    1    1    2  503  504  0.12248655398E+03 -0.50102470036E+02 -0.88674280348E+02  0.15929953360E+03  0.00000000000E+00 0.  1.
         21    1    1    2  504  506 -0.71849964886E+02  0.33279370390E+02 -0.51305306119E+03  0.51912751569E+03  0.00000000000E+00 0.  1.
         21    1    1    2  505  503 -0.23472949613E+01  0.36204814521E+02  0.25556867922E+02  0.44378507029E+02  0.00000000000E+00 0.  1.
         21    1    1    2  506  502 -0.48289294129E+02 -0.19381714875E+02 -0.47355231875E+03  0.47640246157E+03  0.00000000000E+00 0.  1.
<scales pt_clust_3="121.73466" pt_clust_4="44.31755" pt_clust_5="36.28083" pt_clust_6="44.31755"></scales>
<clustering>
<clus scale="   36.281">  1  5  2 -1</clus>
<clus scale="   44.318">  4  6 -1 -1</clus>
<clus scale="  121.735">  1  3  2 -1</clus>
<clus scale="   36.281">  1  3  2 -1</clus>
</clustering>
</event>
<event>
 6    0  0.3446372E+002  0.8267263E+02  0.7546771E-02  0.1321634E+00
         21   -1    0    0  504  501  0.00000000000E+00  0.00000000000E+00  0.13714431745E+03  0.13714431745E+03  0.00000000000E+00 0.  1.
         21   -1    0    0  505  502 -0.00000000000E+00 -0.00000000000E+00 -0.21152402076E+03  0.21152402076E+03  0.00000000000E+00 0. -1.
         21    1    1    2  503  501  0.50131355748E+02  0.17944032991E+02 -0.56993721792E+02  0.77996317047E+02  0.00000000000E+00 0. -1.
         21    1    1    2  504  506 -0.86118461998E+02  0.31424949913E+02  0.38154525306E+02  0.99295945412E+02  0.00000000000E+00 0. -1.
         21    1    1    2  505  503  0.63124034202E+01  0.36744909761E+02 -0.69848157830E+02  0.79175753754E+02  0.00000000000E+00 0. -1.
         21    1    1    2  506  502  0.29674702830E+02 -0.86113892666E+02  0.14307651006E+02  0.92200321992E+02  0.00000000000E+00 0.  1.
<scales pt_clust_3="64.29517" pt_clust_4="14000.00000" pt_clust_5="37.28317" pt_clust_6="82.67263"></scales>
<clustering>
<clus scale="   37.283">  2  5  1 -1</clus>
<clus scale="   64.295">  2  3  1 -1</clus>
<clus scale="   82.673">  2  6  1 -1</clus>
<clus scale="   82.673">  1  3  2 -1</clus>
</clustering>
</event>
<event>
 6    0  0.3446372E+002  0.1077815E+03  0.7546771E-02  0.1264734E+00
         21   -1    0    0  506  501  0.00000000000E+00  0.00000000000E+00  0.39370155992E+02  0.39370155992E+02  0.00000000000E+00 0. -1.
         21   -1    0    0  504  502 -0.00000000000E+00 -0.00000000000E+00 -0.21968846690E+04  0.21968846690E+04  0.00000000000E+00 0. -1.
         21    1    1    2  503  502 -0.53794773948E+02 -0.17827822461E+02 -0.93355143916E+02  0.10921031020E+03  0.00000000000E+00 0. -1.
         21    1    1    2  504  505  0.10986072426E+03  0.47930405059E+02 -0.19230226969E+04  0.19267545238E+04  0.00000000000E+00 0. -1.
         21    1    1    2  505  501 -0.35230240915E+02  0.18023977659E+02 -0.14243551368E+03  0.14783067747E+03  0.00000000000E+00 0. -1.
         21    1    1    2  506  503 -0.20835709401E+02 -0.48126560257E+02  0.12988413948E+01  0.52459313542E+02  0.00000000000E+00 0. -1.
<scales pt_clust_3="107.78146" pt_clust_4="14000.00000" pt_clust_5="39.57314" pt_clust_6="58.27570"></scales>
<clustering>
<clus scale="   39.573">  1  5  2 -1</clus>
<clus scale="   58.276">  1  6  2 -1</clus>
<clus scale="  107.781">  1  3  2 -1</clus>
<clus scale="   39.573">  1  3  2 -1</clus>
</clustering>
</event>
<event>
 6    0  0.3446372E+002  0.8501308E+02  0.7546771E-02  0.1315398E+00
         21   -1    0    0  506  501  0.00000000000E+00  0.00000000000E+00  0.88838967307E+03  0.88838967307E+03  0.00000000000E+00 0.  1.
         21   -1    0    0  503  502 -0.00000000000E+00 -0.00000000000E+00 -0.25329971460E+03  0.25329971460E+03  0.00000000000E+00 0.  1.
         21    1    1    2  503  505 -0.60799374076E+02  0.31898150404E+02 -0.21967720013E+03  0.23015674690E+03  0.00000000000E+00 0.  1.
         21    1    1    2  504  502  0.34901284071E+02  0.25531632470E+02  0.66401773642E+01  0.43749923906E+02  0.00000000000E+00 0.  1.
         21    1    1    2  505  501  0.42140328064E+02  0.47043508446E+02  0.16785931812E+03  0.17934784530E+03  0.00000000000E+00 0. -1.
         21    1    1    2  506  504 -0.16242238058E+02 -0.10447329132E+03  0.68026766312E+03  0.68843487156E+03  0.00000000000E+00 0.  1.
<scales pt_clust_3="62.65044" pt_clust_4="43.24308" pt_clust_5="85.01308" pt_clust_6="14000.00000"></scales>
<clustering>
<clus scale="   43.243">  2  4  1 -1</clus>
<clus scale="   62.650">  2  3  1 -1</clus>
<clus scale="   85.013">  2  5  1 -1</clus>
<clus scale="   85.013">  1  3  2 -1</clus>
</clustering>
</event>
<event>
 6    0  0.3446372E+002  0.6345072E+02  0.7546771E-02  0.1383896E+00
         21   -1    0    0  503  501  0.00000000000E+00  0.00000000000E+00  0.12670597173E+04  0.12670597173E+04  0.00000000000E+00 0.  1.
         21   -1    0    0  506  502 -0.00000000000E+00 -0.00000000000E+00 -0.36808642664E+03  0.36808642664E+03  0.00000000000E+00 0. -1.
         21    1    1    2  503  504  0.51349693801E+02 -0.84398474579E+01  0.74185586433E+03  0.74367879190E+03  0.00000000000E+00 0.  1.
         21    1    1    2  504  505 -0.54960645027E+02  0.28745031492E+02  0.46173470452E+02  0.77323597374E+02  0.00000000000E+00 0. -1.
         21    1    1    2  505  502 -0.58372608081E+02  0.24692899985E+02 -0.34552661843E+03  0.35129153808E+03  0.00000000000E+00 0. -1.
         21    1    1    2  506  501  0.61983559308E+02 -0.44998084020E+02  0.45647057435E+03  0.46285221662E+03  0.00000000000E+00 0.  1.
<scales pt_clust_3="52.03866" pt_clust_4="56.23695" pt_clust_5="63.45072" pt_clust_6="14000.00000"></scales>
<clustering>
<clus scale="   52.039">  1  3  2 -1</clus>
<clus scale="   56.237">  1  4  2 -1</clus>
<clus scale="   63.451">  2  5  1 -1</clus>
<clus scale="   52.039">  1  3  2 -1</clus>
</clustering>
</event>
<event>
 6    0  0.3446372E+002  0.1589768E+03  0.7546771E-02  0.1189857E+00
         21   -1    0    0  504  501  0.00000000000E+00  0.00000000000E+00  0.72952780227E+02  0.72952780227E+02  0.00000000000E+00 0.  1.
         21   -1    0    0  506  502 -0.00000000000E+00 -0.00000000000E+00 -0.11173947491E+04  0.11173947491E+04  0.00000000000E+00 0.  1.
         21    1    1    2  503  505 -0.14458475336E+03  0.42402487891E+02 -0.75262706152E+03  0.76756121295E+03  0.00000000000E+00 0.  1.
         21    1    1    2  504  503  0.12742615195E+03 -0.99221725846E+02 -0.48785613061E+02  0.16870806478E+03  0.00000000000E+00 0.  1.
         21    1    1    2  505  502 -0.83242094959E+01  0.36108017907E+02 -0.17021651705E+03  0.17420316902E+03  0.00000000000E+00 0. -1.
         21    1    1    2  506  501  0.25482810910E+02  0.20711220048E+02 -0.72812777287E+02  0.79875082623E+02  0.00000000000E+00 0. -1.
<scales pt_clust_3="158.97681" pt_clust_4="14000.00000" pt_clust_5="39.74700" pt_clust_6="32.83791"></scales>
<clustering>
<clus scale="   32.838">  2  6  1 -1</clus>
<clus scale="   39.747">  2  5  1 -1</clus>
<clus scale="  158.977">  2  3  1 -1</clus>
<clus scale="  158.977">  1  3  2 -1</clus>
</clustering>
</event>
<event>
 6    0  0.3446372E+002  0.1188392E+03  0.7546771E-02  0.1245024E+00
         21   -1    0    0  503  501  0.00000000000E+00  0.00000000000E+00  0.84952422718E+03  0.84952422718E+03  0.00000000000E+00 0.  1.
         21   -1    0    0  504  502 -0.00000000000E+00 -0.00000000000E+00 -0.65384226975E+02  0.65384226975E+02  0.00000000000E+00 0.  1.
         21    1    1    2  503  505  0.10142339467E+03 -0.62961041246E+02  0.64220490861E+03  0.65320589583E+03  0.00000000000E+00 0.  1.
         21    1    1    2  504  501 -0.10758662942E+03  0.43223148825E+02  0.28140501957E+02  0.11931056648E+03  0.00000000000E+00 0.  1.
         21    1    1    2  505  506  0.94306087877E+01  0.49561008252E+02  0.93274385521E+02  0.10604405177E+03  0.00000000000E+00 0.  1.
         21    1    1    2  506  502 -0.32673740403E+01 -0.29823115832E+02  0.20520204117E+02  0.36347940080E+02  0.00000000000E+00 0.  1.
<scales pt_clust_3="118.83919" pt_clust_4="14000.00000" pt_clust_5="47.12827" pt_clust_6="30.00157"></scales>
<clustering>
<clus scale="   30.002">  2  6  1 -1</clus>
<clus scale="   47.128">  2  5  1 -1</clus>
<clus scale="  118.839">  1  3  2 -1</clus>
<clus scale="  118.839">  1  3  2 -1</clus>
</clustering>
</event>
<event>
 6    0  0.3446372E+002  0.1084320E+03  0.7546771E-02  0.1263501E+00
         21   -1    0    0  504  501  0.00000000000E+00  0.00000000000E+00  0.22258071645E+03  0.22258071645E+03  0.00000000000E+00 0. -1.
         21   -1    0    0  505  502 -0.00000000000E+00 -0.00000000000E+00 -0.16741564013E+03  0.16741564013E+03  0.00000000000E+00 0. -1.
         21    1    1    2  503  502 -0.21183306490E+02  0.25653174550E+02 -0.29563107612E+02  0.44506125084E+02  0.00000000000E+00 0.  1.
         21    1    1    2  504  506 -0.88234667380E+02 -0.31032829070E+02  0.76588325166E+02  0.12088905889E+03  0.00000000000E+00 0. -1.
         21    1    1    2  505  501  0.18082020209E+02 -0.67643518971E+02  0.64130761785E+02  0.94949248132E+02  0.00000000000E+00 0. -1.
         21    1    1    2  506  503  0.91335953661E+02  0.73023173491E+02 -0.55990903022E+02  0.12965192447E+03  0.00000000000E+00 0. -1.
<scales pt_clust_3="33.26887" pt_clust_4="14000.00000" pt_clust_5="66.46319" pt_clust_6="108.43203"></scales>
<clustering>
<clus scale="   33.269">  2  3  1 -1</clus>
<clus scale="   66.463">  1  5  2 -1</clus>
<clus scale="  108.432">  2  6  1 -1</clus>
<clus scale="   66.463">  1  3  2 -1</clus>
</clustering>
</event>
<event>
 6    0  0.3446372E+002  0.8147637E+02  0.7546771E-02  0.1324913E+00
         21   -1    0    0  503  501  0.00000000000E+00  0.00000000000E+00  0.61496320356E+03  0.61496320356E+03  0.00000000000E+00 0.  1.
         21   -1    0    0  506  502 -0.00000000000E+00 -0.00000000000E+00 -0.67571846176E+02  0.67571846176E+02  0.00000000000E+00 0.  1.
         21    1    1    2  503  504  0.30858959404E+02  0.53014989558E+02  0.27853123271E+03  0.28520608705E+03  0.00000000000E+00 0. -1.
         21    1    1    2  504  505 -0.43130108673E+01  0.55894707106E+02  0.12190961286E+02  0.57371071825E+02  0.00000000000E+00 0.  1.
         21    1    1    2  505  502  0.37834978095E+02  0.19112341340E+02 -0.39179129717E+01  0.42568969931E+02  0.00000000000E+00 0.  1.
         21    1    1    2  506  501 -0.64380926632E+02 -0.12802203800E+03  0.26058707635E+03  0.29738892093E+03  0.00000000000E+00 0.  1.
<scales pt_clust_3="64.04238" pt_clust_4="14000.00000" pt_clust_5="42.38829" pt_clust_6="81.47637"></scales>
<clustering>
<clus scale="   42.388">  2  5  1 -1</clus>
<clus scale="   64.042">  1  3  2 -1</clus>
<clus scale="   81.476">  1  6  2 -1</clus>
<clus scale="   64.042">  1  3  2 -1</clus>
</clustering>
</event>
<event>
 6    0  0.3446372E+002  0.7040014E+02  0.7546771E-02  0.1358738E+00
         21   -1    0    0  503  501  0.00000000000E+00  0.00000000000E+00  0.28240814019E+04  0.28240814019E+04  0.00000000000E+00 0.  1.
         21   -1    0    0  506  502 -0.00000000000E+00 -0.00000000000E+00 -0.26637063375E+02  0.26637063375E+02  0.00000000000E+00 0. -1.
         21    1    1    2  503  505  0.20802598961E+02 -0.67228085551E+02  0.21305511333E+04  0.21317130424E+04  0.00000000000E+00 0.  1.
         21    1    1    2  504  501 -0.75779925129E+02  0.67896359815E+01  0.35905934625E+03  0.36703175658E+03  0.00000000000E+00 0.  1.
         21    1    1    2  505  502 -0.44374428780E+01  0.73154527018E+02  0.54172918201E+02  0.91137153724E+02  0.00000000000E+00 0. -1.
         21    1    1    2  506  504  0.59414769047E+02 -0.12716077449E+02  0.25366094083E+03  0.26083651261E+03  0.00000000000E+00 0. -1.
<scales pt_clust_3="14000.00000" pt_clust_4="65.66522" pt_clust_5="70.40014" pt_clust_6="60.76029"></scales>
<clustering>
<clus scale="   60.760">  2  6  1 -1</clus>
<clus scale="   65.665">  2  4  1 -1</clus>
<clus scale="   70.400">  2  5  1 -1</clus>
<clus scale="   70.400">  1  3  2 -1</clus>
</clustering>
</event>
<event>
 6    0  0.3446372E+002  0.1009948E+03  0.7546771E-02  0.1278218E+00
         21   -1    0    0  503  501  0.00000000000E+00  0.00000000000E+00  0.32432595412E+04  0.32432595412E+04  0.00000000000E+00 0.  1.
         21   -1    0    0  506  502 -0.00000000000E+00 -0.00000000000E+00 -0.16160626145E+02  0.16160626145E+02  0.00000000000E+00 0.  1.
         21    1    1    2  503  504 -0.86747202834E+01  0.13948694595E+03  0.10474349826E+04  0.10567175127E+04  0.00000000000E+00 0.  1.
         21    1    1    2  504  502 -0.14490954736E+01 -0.49335240179E+02  0.68851193013E+02  0.84714535828E+02  0.00000000000E+00 0.  1.
         21    1    1    2  505  501 -0.37522920780E+02 -0.27534466527E+02  0.16389016097E+04  0.16395623205E+04  0.00000000000E+00 0.  1.
         21    1    1    2  506  505  0.47646736537E+02 -0.62617239248E+02  0.47191112974E+03  0.47842579835E+03  0.00000000000E+00 0.  1.
<scales pt_clust_3="100.99475" pt_clust_4="50.75714" pt_clust_5="46.54156" pt_clust_6="14000.00000"></scales>
<clustering>
<clus scale="   46.542">  1  5  2 -1</clus>
<clus scale="   50.757">  2  4  1 -1</clus>
<clus scale="  100.995">  2  3  1 -1</clus>
<clus scale="   46.542">  1  3  2 -1</clus>
</clustering>
</event>
<event>
 6    0  0.3446372E+002  0.1006113E+03  0.7546771E-02  0.1279016E+00
         21   -1    0    0  504  501  0.00000000000E+00  0.00000000000E+00  0.36686343673E+02  0.36686343673E+02  0.00000000000E+00 0. -1.
         21   -1    0    0  506  502 -0.00000000000E+00 -0.00000000000E+00 -0.13552854712E+04  0.13552854712E+04  0.00000000000E+00 0.  1.
         21    1    1    2  503  502 -0.39606024426E+02 -0.29329989494E+02 -0.49920036231E+03  0.50162723927E+03  0.00000000000E+00 0.  1.
         21    1    1    2  504  503  0.25815684914E+01  0.82810983205E+02 -0.56177609674E+03  0.56785271532E+03  0.00000000000E+00 0.  1.
         21    1    1    2  505  501  0.79567414667E+02 -0.73378043520E+02 -0.69580057003E+02  0.12867282184E+03  0.00000000000E+00 0. -1.
         21    1    1    2  506  505 -0.42542958732E+02  0.19897049809E+02 -0.18804261153E+03  0.19381903848E+03  0.00000000000E+00 0.  1.
<scales pt_clust_3="61.50618" pt_clust_4="100.61132" pt_clust_5="14000.00000" pt_clust_6="46.96590"></scales>
<clustering>
<clus scale="   46.966">  2  6  1 -1</clus>
<clus scale="   61.506">  2  3  1 -1</clus>
<clus scale="  100.611">  2  4  1 -1</clus>
<clus scale="  100.611">  1  3  2 -1</clus>
</clustering>
</event>
<event>
 6    0  0.3446372E+002  0.1041661E+03  0.7546771E-02  0.1271771E+00
         21   -1    0    0  503  501  0.00000000000E+00  0.00000000000E+00  0.41321115321E+03  0.41321115321E+03  0.00000000000E+00 0. -1.
         21   -1    0    0  505  502 -0.00000000000E+00 -0.00000000000E+00 -0.10204377325E+03  0.10204377325E+03  0.00000000000E+00 0. -1.
         21    1    1    2  503  502 -0.12846202684E+03  0.71472882952E+02  0.12312722272E+03  0.19175812450E+03  0.00000000000E+00 0. -1.
         21    1    1    2  504  501  0.10722754299E+02 -0.51642877836E+02  0.17085785641E+03  0.17881378971E+03  0.00000000000E+00 0. -1.
         21    1    1    2  505  506  0.37638786089E+02 -0.34525211187E+02 -0.20391926149E+02  0.54995445973E+02  0.00000000000E+00 0. -1.
         21    1    1    2  506  504  0.80100486455E+02  0.14695206072E+02  0.37574226976E+02  0.89687566277E+02  0.00000000000E+00 0. -1.
<scales pt_clust_3="104.16613" pt_clust_4="55.33778" pt_clust_5="51.07513" pt_clust_6="14000.00000"></scales>
<clustering>
<clus scale="   51.075">  2  5  1 -1</clus>
<clus scale="   55.338">  1  4  2 -1</clus>
<clus scale="  104.166">  1  3  2 -1</clus>
<clus scale="   55.338">  1  3  2 -1</clus>
</clustering>
</event>
<event>
 6    0  0.3446372E+002  0.1834631E+03  0.7546771E-02  0.1164493E+00
         21   -1    0    0  506  501  0.00000000000E+00  0.00000000000E+00  0.41816069755E+03  0.41816069755E+03  0.00000000000E+00 0. -1.
         21   -1    0    0  503  502 -0.00000000000E+00 -0.00000000000E+00 -0.70799913261E+03  0.70799913261E+03  0.00000000000E+00 0. -1.
         21    1    1    2  503  501  0.14747495426E+03 -0.17775395597E+03 -0.25193429387E+03  0.34178387824E+03  0.00000000000E+00 0. -1.
         21    1    1    2  504  505 -0.50637198312E+02  0.15261594542E+03 -0.27306989835E+03  0.31689575894E+03  0.00000000000E+00 0.  1.
         21    1    1    2  505  502 -0.39604962049E+02 -0.16432281143E+02 -0.10847101326E+03  0.11663847393E+03  0.00000000000E+00 0.  1.
         21    1    1    2  506  504 -0.57232793901E+02  0.41570291693E+02  0.34363677041E+03  0.35084171905E+03  0.00000000000E+00 0. -1.
<scales pt_clust_3="183.46309" pt_clust_4="14000.00000" pt_clust_5="42.87858" pt_clust_6="70.87250"></scales>
<clustering>
<clus scale="   42.879">  2  5  1 -1</clus>
<clus scale="   70.872">  1  6  2 -1</clus>
<clus scale="  183.463">  1  3  2 -1</clus>
<clus scale="   70.872">  1  3  2 -1</clus>
</clustering>
</event>
<event>
 6    0  0.3446372E+002  0.8451532E+02  0.7546771E-02  0.1316705E+00
         21   -1    0    0  503  501  0.00000000000E+00  0.00000000000E+00  0.19919096111E+03  0.19919096111E+03  0.00000000000E+00 0.  1.
         21   -1    0    0  506  502 -0.00000000000E+00 -0.00000000000E+00 -0.21028726052E+03  0.21028726052E+03  0.00000000000E+00 0. -1.
         21    1    1    2  503  505  0.12277317434E+03  0.25890168637E+02  0.91888321520E+02  0.15552175668E+03  0.00000000000E+00 0.  1.
         21    1    1    2  504  501 -0.36695352069E+02 -0.35608088763E+02  0.50435244233E+02  0.71820600872E+02  0.00000000000E+00 0.  1.
         21    1    1    2  505  502 -0.31261254457E+02 -0.10496345480E+02 -0.26115604962E+02  0.42064998766E+02  0.00000000000E+00 0.  1.
         21    1    1    2  506  504 -0.54816567814E+02  0.20214265606E+02 -0.12730426020E+03  0.14007086530E+03  0.00000000000E+00 0. -1.
<scales pt_clust_3="84.51532" pt_clust_4="52.94416" pt_clust_5="32.97634" pt_clust_6="14000.00000"></scales>
<clustering>
<clus scale="   32.976">  2  5  1 -1</clus>
<clus scale="   52.944">  1  4  2 -1</clus>
<clus scale="   84.515">  1  3  2 -1</clus>
<clus scale="   52.944">  1  3  2 -1</clus>
</clustering>
</event>
<event>
 6    0  0.3446372E+002  0.1124798E+03  0.7546771E-02  0.1256045E+00
         21   -1    0    0  504  501  0.00000000000E+00  0.00000000000E+00  0.51880129914E+03  0.51880129914E+03  0.00000000000E+00 0. -1.
         21   -1    0    0  503  502 -0.00000000000E+00 -0.00000000000E+00 -0.15665107063E+03  0.15665107063E+03  0.00000000000E+00 0.  1.
         21    1    1    2  503  505  0.64031962289E+02 -0.64484643639E+01  0.10220897568E+02  0.65162425019E+02  0.00000000000E+00 0. -1.
         21    1    1    2  504  506 -0.57226883696E+02  0.13689495501E+03  0.31539721653E+03  0.34855494419E+03  0.00000000000E+00 0. -1.
         21    1    1    2  505  501 -0.52460778538E+02 -0.76029020854E+02  0.12044881357E+03  0.15179084948E+03  0.00000000000E+00 0.  1.
         21    1    1    2  506  502  0.45655699944E+02 -0.54417469792E+02 -0.83916699164E+02  0.10994415107E+03  0.00000000000E+00 0.  1.
<scales pt_clust_3="64.35585" pt_clust_4="112.47984" pt_clust_5="88.86753" pt_clust_6="14000.00000"></scales>
<clustering>
<clus scale="   64.356">  2  3  1 -1</clus>
<clus scale="   88.868">  1  5  2 -1</clus>
<clus scale="  112.480">  1  4  2 -1</clus>
<clus scale="   88.868">  1  3  2 -1</clus>
</clustering>
</event>
<event>
 6    0  0.3446372E+002  0.1109690E+03  0.7546771E-02  0.1258786E+00
         21   -1    0    0  504  501  0.00000000000E+00  0.00000000000E+00  0.47729360431E+03  0.47729360431E+03  0.00000000000E+00 0. -1.
         21   -1    0    0  503  502 -0.00000000000E+00 -0.00000000000E+00 -0.14828896365E+03  0.14828896365E+03  0.00000000000E+00 0.  1.
         21    1    1    2  503  501 -0.60793424315E+01  0.95176329290E+02  0.17909462296E+03  0.20290484478E+03  0.00000000000E+00 0. -1.
         21    1    1    2  504  506  0.75526577657E+02 -0.12396819878E+03  0.25167314532E+03  0.29053700335E+03  0.00000000000E+00 0. -1.
         21    1    1    2  505  502 -0.31353931233E+02  0.24810430792E+02 -0.76320539652E+02  0.86159452486E+02  0.00000000000E+00 0.  1.
         21    1    1    2  506  505 -0.38093303992E+02  0.39814386952E+01 -0.25442587974E+02  0.45981267337E+02  0.00000000000E+00 0.  1.
<scales pt_clust_3="14000.00000" pt_clust_4="110.96900" pt_clust_5="84.29375" pt_clust_6="37.31483"></scales>
<clustering>
<clus scale="   37.315">  5  6 -1 -1</clus>
<clus scale="   84.294">  2  5  1 -1</clus>
<clus scale="  110.969">  2  4  1 -1</clus>
<clus scale="  110.969">  1  3  2 -1</clus>
</clustering>
</event>
<event>
 6    0  0.3446372E+002  0.1415711E+03  0.7546771E-02  0.1211230E+00
         21   -1    0    0  503  501  0.00000000000E+00  0.00000000000E+00  0.20509392211E+03  0.20509392211E+03  0.00000000000E+00 0.  1.
         21   -1    0    0  506  502 -0.00000000000E+00 -0.00000000000E+00 -0.14142234693E+04  0.14142234693E+04  0.00000000000E+00 0.  1.
         21    1    1    2  503  505  0.55401357041E+02  0.93310268893E+01 -0.55849512832E+03  0.56131380420E+03  0.00000000000E+00 0.  1.
         21    1    1    2  504  501  0.39421907818E+02  0.12297040420E+02  0.18214157540E+03  0.18676417619E+03  0.00000000000E+00 0.  1.
         21    1    1    2  505  502  0.72018215549E+02 -0.39384670648E+01 -0.41168132763E+03  0.41795173216E+03  0.00000000000E+00 0.  1.
         21    1    1    2  506  504 -0.16684148041E+03 -0.17689600244E+02 -0.42109466662E+03  0.45328767885E+03  0.00000000000E+00 0.  1.
<scales pt_clust_3="33.65157" pt_clust_4="41.29533" pt_clust_5="33.65157" pt_clust_6="136.33992"></scales>
<clustering>
<clus scale="   33.652">  3  5 -1 -1</clus>
<clus scale="   41.295">  1  4  2 -1</clus>
<clus scale="  136.340">  1  6  2 -1</clus>
<clus scale="   41.295">  1  3  2 -1</clus>
</clustering>
</event>
<event>
 6    0  0.3446372E+002  0.1742621E+03  0.7546771E-02  0.1173475E+00
         21   -1    0    0  505  501  0.00000000000E+00  0.00000000000E+00  0.15735411509E+03  0.15735411509E+03  0.00000000000E+00 0. -1.
         21   -1    0    0  504  502 -0.00000000000E+00 -0.00000000000E+00 -0.59232849905E+03  0.59232849905E+03  0.00000000000E+00 0. -1.
         21    1    1    2  503  501  0.15683094806E+03  0.59300520391E+02 -0.46389015661E+02  0.17396677488E+03  0.00000000000E+00 0. -1.
         21    1    1    2  504  506 -0.50597239267E+02 -0.25141233646E+02 -0.61334305292E+02  0.83391002250E+02  0.00000000000E+00 0.  1.
         21    1    1    2  505  502  0.11799952309E+02 -0.17859541580E+03 -0.18778691911E+03  0.25942144940E+03  0.00000000000E+00 0. -1.
         21    1    1    2  506  503 -0.11803366110E+03  0.14443612905E+03 -0.13946414390E+03  0.23290338762E+03  0.00000000000E+00 0. -1.
<scales pt_clust_3="155.75990" pt_clust_4="56.49922" pt_clust_5="174.26211" pt_clust_6="14000.00000"></scales>
<clustering>
<clus scale="   56.499">  2  4  1 -1</clus>
<clus scale="  155.760">  1  3  2 -1</clus>
<clus scale="  174.262">  2  5  1 -1</clus>
<clus scale="  155.760">  1  3  2 -1</clus>
</clustering>
</event>
<event>
 6    0  0.3446372E+002  0.9980770E+02  0.7546771E-02  0.1280701E+00
         21   -1    0    0  504  501  0.00000000000E+00  0.00000000000E+00  0.13342798786E+03  0.13342798786E+03  0.00000000000E+00 0. -1.
         21   -1    0    0  505  502 -0.00000000000E+00 -0.00000000000E+00 -0.94807623896E+03  0.94807623896E+03  0.00000000000E+00 0.  1.
         21    1    1    2  503  502 -0.88453692809E+02 -0.29910133945E+01 -0.74677753026E+03  0.75200377768E+03  0.00000000000E+00 0.  1.
         21    1    1    2  504  503  0.83180471659E+02  0.36085152057E+02 -0.12727741944E+03  0.15627114437E+03  0.00000000000E+00 0. -1.
         21    1    1    2  505  506 -0.27891811242E+02  0.17673087139E+02 -0.42999968328E+02  0.54215204691E+02  0.00000000000E+00 0. -1.
         21    1    1    2  506  501  0.33165032393E+02 -0.50767225802E+02  0.10240666693E+03  0.11901410009E+03  0.00000000000E+00 0. -1.
<scales pt_clust_3="99.80770" pt_clust_4="14000.00000" pt_clust_5="33.01956" pt_clust_6="60.36289"></scales>
<clustering>
<clus scale="   33.020">  2  5  1 -1</clus>
<clus scale="   60.363">  1  6  2 -1</clus>
<clus scale="   99.808">  2  3  1 -1</clus>
<clus scale="   60.363">  1  3  2 -1</clus>
</clustering>
</event>
<event>
 6    0  0.3446372E+002  0.8649073E+02  0.7546771E-02  0.1311580E+00
         21   -1    0    0  506  501  0.00000000000E+00  0.00000000000E+00  0.34749539791E+03  0.34749539791E+03  0.00000000000E+00 0. -1.
         21   -1    0    0  503  502 -0.00000000000E+00 -0.00000000000E+00 -0.22404718214E+03  0.22404718214E+03  0.00000000000E+00 0. -1.
         21    1    1    2  503  505  0.46050887165E+02  0.47855535080E+02 -0.92724207260E+02  0.11405531578E+03  0.00000000000E+00 0. -1.
         21    1    1    2  504  502  0.49928442753E+02 -0.62436823514E+02 -0.74905698281E+02  0.10955395913E+03  0.00000000000E+00 0. -1.
         21    1    1    2  505  501 -0.78917330492E+02  0.39428956819E+02  0.43198424676E+02  0.98227753626E+02  0.00000000000E+00 0. -1.
         21    1    1    2  506  504 -0.17061999425E+02 -0.24847668385E+02  0.24787969663E+03  0.24970555150E+03  0.00000000000E+00 0. -1.
<scales pt_clust_3="63.20330" pt_clust_4="86.49073" pt_clust_5="14000.00000" pt_clust_6="30.14164"></scales>
<clustering>
<clus scale="   30.142">  1  6  2 -1</clus>
<clus scale="   63.203">  2  3  1 -1</clus>
<clus scale="   86.491">  2  4  1 -1</clus>
<clus scale="   30.142">  1  3  2 -1</clus>
</clustering>
</event>
<event>
 6    0  0.3446372E+002  0.1315267E+03  0.7546771E-02  0.1225208E+00
         21   -1    0    0  504  501  0.00000000000E+00  0.00000000000E+00  0.15373249347E+02  0.15373249347E+02  0.00000000000E+00 0.  1.
         21   -1    0    0  503  502 -0.00000000000E+00 -0.00000000000E+00 -0.13995437392E+04  0.13995437392E+04  0.00000000000E+00 0.  1.
         21    1    1    2  503  506 -0.52345909182E+02  0.41942370813E+02 -0.46802463757E+03  0.47280685068E+03  0.00000000000E+00 0.  1.
         21    1    1    2  504  505  0.10862984038E+03 -0.61692996022E+02 -0.49585423974E+03  0.51134909313E+03  0.00000000000E+00 0.  1.
         21    1    1    2  505  502 -0.16081967373E+02 -0.26548565916E+02 -0.18633531506E+03  0.18890290010E+03  0.00000000000E+00 0. -1.
         21    1    1    2  506  501 -0.40201963829E+02  0.46299191125E+02 -0.23395629747E+03  0.24185814463E+03  0.00000000000E+00 0.  1.
<scales pt_clust_3="38.08894" pt_clust_4="125.22836" pt_clust_5="31.03959" pt_clust_6="38.08894"></scales>
<clustering>
<clus scale="   31.040">  2  5  1 -1</clus>
<clus scale="   38.089">  3  6 -1 -1</clus>
<clus scale="  125.228">  1  4  2 -1</clus>
<clus scale="  125.228">  1  3  2 -1</clus>
</clustering>
</event>
<event>
 6    0  0.3446372E+002  0.7921780E+02  0.7546771E-02  0.1331286E+00
         21   -1    0    0  504  501  0.00000000000E+00  0.00000000000E+00  0.12345026901E+04  0.12345026901E+04  0.00000000000E+00 0.  1.
         21   -1    0    0  506  502 -0.00000000000E+00 -0.00000000000E+00 -0.39752238044E+02  0.39752238044E+02  0.00000000000E+00 0.  1.
         21    1    1    2  503  501  0.81723565286E+02 -0.25104597808E+02  0.83743174922E+03  0.84178436464E+03  0.00000000000E+00 0.  1.
         21    1    1    2  504  502 -0.66161905909E+02  0.12786184881E+02  0.26616724311E+03  0.27456490238E+03  0.00000000000E+00 0.  1.
         21    1    1    2  505  503 -0.65995304365E+02  0.28761392903E+02  0.71139914516E+02  0.10121010502E+03  0.00000000000E+00 0.  1.
         21    1    1    2  506  505  0.50433644988E+02 -0.16442979976E+02  0.20011545174E+02  0.56695556065E+02  0.00000000000E+00 0.  1.
<scales pt_clust_3="79.21780" pt_clust_4="14000.00000" pt_clust_5="35.09137" pt_clust_6="53.04643"></scales>
<clustering>
<clus scale="   53.046">  2  6  1 -1</clus>
<clus scale="   35.091">  2  5  1 -1</clus>
<clus scale="   79.218">  1  3  2 -1</clus>
<clus scale="   79.218">  1  3  2 -1</clus>
</clustering>
</event>
<event>
 6    0  0.3446372E+002  0.1017379E+03  0.7546771E-02  0.1276683E+00
         21   -1    0    0  503  501  0.00000000000E+00  0.00000000000E+00  0.64720646073E+02  0.64720646073E+02  0.00000000000E+00 0.  1.
         21   -1    0    0  504  502 -0.00000000000E+00 -0.00000000000E+00 -0.44728175305E+03  0.44728175305E+03  0.00000000000E+00 0.  1.
         21    1    1    2  503  502 -0.38776248501E+02 -0.46499101563E+01 -0.12652511619E+02  0.41052468410E+02  0.00000000000E+00 0. -1.
         21    1    1    2  504  505 -0.39052300868E+02 -0.27123330150E+02 -0.15822265803E+03  0.16521248971E+03  0.00000000000E+00 0.  1.
         21    1    1    2  505  506 -0.48514797434E+02  0.70875957041E+01 -0.15943767672E+03  0.16680615199E+03  0.00000000000E+00 0.  1.
         21    1    1    2  506  501  0.12634334680E+03  0.24685644603E+02 -0.52248260604E+02  0.13893128901E+03  0.00000000000E+00 0.  1.
<scales pt_clust_3="39.05405" pt_clust_4="34.93998" pt_clust_5="34.93998" pt_clust_6="95.35059"></scales>
<clustering>
<clus scale="   34.940">  4  5 -1 -1</clus>
<clus scale="   39.054">  1  3  2 -1</clus>
<clus scale="   95.351">  1  6  2 -1</clus>
<clus scale="   39.054">  1  3  2 -1</clus>
</clustering>
</event>
<event>
 6    0  0.3446372E+002  0.6660677E+02  0.7546771E-02  0.1372027E+00
         21   -1    0    0  505  501  0.00000000000E+00  0.00000000000E+00  0.66858985590E+03  0.66858985590E+03  0.00000000000E+00 0. -1.
         21   -1    0    0  504  502 -0.00000000000E+00 -0.00000000000E+00 -0.96607546891E+03  0.96607546891E+03  0.00000000000E+00 0. -1.
         21    1    1    2  503  502 -0.58705680959E+01 -0.11578640560E+03  0.40646205289E+03  0.42267287083E+03  0.00000000000E+00 0. -1.
         21    1    1    2  504  506  0.60738984637E+02  0.20023964819E+02 -0.65915918914E+03  0.66225449795E+03  0.00000000000E+00 0. -1.
         21    1    1    2  505  503  0.32827249692E+01  0.49488394061E+02  0.24530908610E+03  0.25027270157E+03  0.00000000000E+00 0. -1.
         21    1    1    2  506  501 -0.58151141510E+02  0.46274046721E+02 -0.29009756286E+03  0.29946525447E+03  0.00000000000E+00 0. -1.
<scales pt_clust_3="14000.00000" pt_clust_4="64.02322" pt_clust_5="49.59715" pt_clust_6="66.60677"></scales>
<clustering>
<clus scale="   49.597">  1  5  2 -1</clus>
<clus scale="   64.023">  2  4  1 -1</clus>
<clus scale="   66.607">  2  6  1 -1</clus>
<clus scale="   49.597">  1  3  2 -1</clus>
</clustering>
</event>
<event>
 6    0  0.3446372E+002  0.7720005E+02  0.7546771E-02  0.1337190E+00
         21   -1    0    0  506  501  0.00000000000E+00  0.00000000000E+00  0.14628644050E+03  0.14628644050E+03  0.00000000000E+00 0.  1.
         21   -1    0    0  504  502 -0.00000000000E+00 -0.00000000000E+00 -0.25951671286E+03  0.25951671286E+03  0.00000000000E+00 0.  1.
         21    1    1    2  503  501 -0.37168836787E+02  0.29239804998E+02  0.66561489562E+02  0.81651212588E+02  0.00000000000E+00 0.  1.
         21    1    1    2  504  503 -0.47348266204E+01  0.76528510961E+02 -0.17829667187E+03  0.19408434964E+03  0.00000000000E+00 0.  1.
         21    1    1    2  505  502  0.58326255639E+02 -0.74277238309E+02  0.12116888636E+01  0.94448549050E+02  0.00000000000E+00 0.  1.
         21    1    1    2  506  505 -0.16422592231E+02 -0.31491077650E+02 -0.27067789091E+01  0.35619042087E+02  0.00000000000E+00 0.  1.
<scales pt_clust_3="47.88659" pt_clust_4="14000.00000" pt_clust_5="77.20005" pt_clust_6="35.51605"></scales>
<clustering>
<clus scale="   35.516">  1  6  2 -1</clus>
<clus scale="   47.887">  1  3  2 -1</clus>
<clus scale="   77.200">  1  5  2 -1</clus>
<clus scale="   35.516">  1  3  2 -1</clus>
</clustering>
</event>
<event>
 6    0  0.3446372E+002  0.1307781E+03  0.7546771E-02  0.1226306E+00
         21   -1    0    0  505  501  0.00000000000E+00  0.00000000000E+00  0.17804488322E+04  0.17804488322E+04  0.00000000000E+00 0.  1.
         21   -1    0    0  504  502 -0.00000000000E+00 -0.00000000000E+00 -0.13010735755E+03  0.13010735755E+03  0.00000000000E+00 0.  1.
         21    1    1    2  503  506  0.32606687289E+02 -0.56739170844E+02 -0.42463531538E+02  0.78010775375E+02  0.00000000000E+00 0.  1.
         21    1    1    2  504  503  0.56287858272E+02 -0.32561699852E+02 -0.46866667423E+02  0.80156545593E+02  0.00000000000E+00 0.  1.
         21    1    1    2  505  502  0.49731460723E+02  0.35666157226E+02  0.43700412688E+03  0.44126851221E+03  0.00000000000E+00 0.  1.
         21    1    1    2  506  501 -0.13862600628E+03  0.53634713470E+02  0.13026675467E+04  0.13111203566E+04  0.00000000000E+00 0.  1.
<scales pt_clust_3="33.95293" pt_clust_4="33.95293" pt_clust_5="61.19880" pt_clust_6="126.26471"></scales>
<clustering>
<clus scale="   33.953">  3  4 -1 -1</clus>
<clus scale="   61.199">  1  5  2 -1</clus>
<clus scale="  126.265">  1  6  2 -1</clus>
<clus scale="   61.199">  1  3  2 -1</clus>
</clustering>
</event>
<event>
 6    0  0.3446372E+002  0.6583349E+02  0.7546771E-02  0.1374863E+00
         21   -1    0    0  504  501  0.00000000000E+00  0.00000000000E+00  0.63120617441E+03  0.63120617441E+03  0.00000000000E+00 0. -1.
         21   -1    0    0  506  502 -0.00000000000E+00 -0.00000000000E+00 -0.16991246383E+03  0.16991246383E+03  0.00000000000E+00 0. -1.
         21    1    1    2  503  501  0.40823678789E+02 -0.11687394041E+03  0.52768702599E+03  0.54201447222E+03  0.00000000000E+00 0. -1.
         21    1    1    2  504  505 -0.16788184431E+02  0.56557611246E+02  0.58668000721E+02  0.83201807882E+02  0.00000000000E+00 0. -1.
         21    1    1    2  505  502 -0.56800164174E+02  0.30445879927E+02 -0.11278253032E+03  0.12989653344E+03  0.00000000000E+00 0. -1.
         21    1    1    2  506  503  0.32764669816E+02  0.29870449234E+02 -0.12278785813E+02  0.46005824704E+02  0.00000000000E+00 0. -1.
<scales pt_clust_3="14000.00000" pt_clust_4="60.77912" pt_clust_5="65.83349" pt_clust_6="44.33697"></scales>
<clustering>
<clus scale="   44.337">  2  6  1 -1</clus>
<clus scale="   60.779">  1  4  2 -1</clus>
<clus scale="   65.833">  2  5  1 -1</clus>
<clus scale="   60.779">  1  3  2 -1</clus>
</clustering>
</event>
<event>
 6    0  0.3446372E+002  0.7519094E+02  0.7546771E-02  0.1343281E+00
         21   -1    0    0  503  501  0.00000000000E+00  0.00000000000E+00  0.74844515942E+03  0.74844515942E+03  0.00000000000E+00 0.  1.
         21   -1    0    0  506  502 -0.00000000000E+00 -0.00000000000E+00 -0.54877110418E+03  0.54877110418E+03  0.00000000000E+00 0.  1.
         21    1    1    2  503  504  0.52377855696E+01 -0.37800863821E+02  0.22715403049E+03  0.23033734667E+03  0.00000000000E+00 0. -1.
         21    1    1    2  504  505  0.69332387367E+02  0.29655869125E+02  0.50458267933E+03  0.51018636869E+03  0.00000000000E+00 0.  1.
         21    1    1    2  505  502  0.27337505915E+02 -0.41618689638E+02 -0.14198107721E+03  0.15045956548E+03  0.00000000000E+00 0.  1.
         21    1    1    2  506  501 -0.10190767885E+03  0.49763684334E+02 -0.39008157737E+03  0.40623298277E+03  0.00000000000E+00 0.  1.
<scales pt_clust_3="38.16202" pt_clust_4="14000.00000" pt_clust_5="50.07548" pt_clust_6="75.19094"></scales>
<clustering>
<clus scale="   38.162">  1  3  2 -1</clus>
<clus scale="   50.075">  2  5  1 -1</clus>
<clus scale="   75.191">  2  6  1 -1</clus>
<clus scale="   38.162">  1  3  2 -1</clus>
</clustering>
</event>
<event>
 6    0  0.3446372E+002  0.6786342E+02  0.7546771E-02  0.1367513E+00
         21   -1    0    0  506  501  0.00000000000E+00  0.00000000000E+00  0.12530772693E+03  0.12530772693E+03  0.00000000000E+00 0.  1.
         21   -1    0    0  503  502 -0.00000000000E+00 -0.00000000000E+00 -0.21838515033E+03  0.21838515033E+03  0.00000000000E+00 0. -1.
         21    1    1    2  503  505 -0.24940191887E+02 -0.52820546545E+02 -0.73991044142E+02  0.94269284086E+02  0.00000000000E+00 0. -1.
         21    1    1    2  504  501 -0.41338317746E+02 -0.26852915269E+02  0.26827648595E+02  0.56121816628E+02  0.00000000000E+00 0.  1.
         21    1    1    2  505  504 -0.34036177314E+01  0.10620768533E+03 -0.52357338117E+02  0.11846074409E+03  0.00000000000E+00 0. -1.
         21    1    1    2  506  502  0.69682127364E+02 -0.26534223514E+02  0.64433102588E+01  0.74841032453E+02  0.00000000000E+00 0.  1.
<scales pt_clust_3="14000.00000" pt_clust_4="49.29438" pt_clust_5="67.86342" pt_clust_6="63.47175"></scales>
<clustering>
<clus scale="   49.294">  1  4  2 -1</clus>
<clus scale="   63.472">  1  6  2 -1</clus>
<clus scale="   67.863">  1  5  2 -1</clus>
<clus scale="   49.294">  1  3  2 -1</clus>
</clustering>
</event>
<event>
 6    0  0.3446372E+002  0.2661390E+03  0.7546771E-02  0.1103510E+00
         21   -1    0    0  506  501  0.00000000000E+00  0.00000000000E+00  0.26708358406E+03  0.26708358406E+03  0.00000000000E+00 0. -1.
         21   -1    0    0  503  502 -0.00000000000E+00 -0.00000000000E+00 -0.79780101677E+03  0.79780101677E+03  0.00000000000E+00 0. -1.
         21    1    1    2  503  505 -0.11275220580E+03 -0.35634478583E+02 -0.44250111265E+03  0.45802850421E+03  0.00000000000E+00 0. -1.
         21    1    1    2  504  502 -0.45756634491E+02  0.42033697978E+02 -0.10201635601E+03  0.11944805674E+03  0.00000000000E+00 0. -1.
         21    1    1    2  505  501  0.28328108915E+03 -0.49219600622E+02  0.12629399457E+03  0.31403967523E+03  0.00000000000E+00 0. -1.
         21    1    1    2  506  504 -0.12477224886E+03  0.42820381227E+02 -0.11249395862E+03  0.17336836465E+03  0.00000000000E+00 0. -1.
<scales pt_clust_3="118.24921" pt_clust_4="40.29026" pt_clust_5="259.58336" pt_clust_6="40.29026"></scales>
<clustering>
<clus scale="   40.290">  4  6 -1 -1</clus>
<clus scale="  118.249">  2  3  1 -1</clus>
<clus scale="  259.583">  1  5  2 -1</clus>
<clus scale="  259.583">  1  3  2 -1</clus>
</clustering>
</event>
<event>
 6    0  0.3446372E+002  0.8634225E+02  0.7546771E-02  0.1311959E+00
         21   -1    0    0  503  501  0.00000000000E+00  0.00000000000E+00  0.11236972766E+03  0.11236972766E+03  0.00000000000E+00 0. -1.
         21   -1    0    0  505  502 -0.00000000000E+00 -0.00000000000E+00 -0.68984470288E+03  0.68984470288E+03  0.00000000000E+00 0.  1.
         21    1    1    2  503  506  0.32527869876E+02 -0.98291216840E+02  0.69978907534E+02  0.12496508763E+03  0.00000000000E+00 0. -1.
         21    1    1    2  504  501 -0.43418752619E+02  0.10247029646E+02 -0.42262233631E+02  0.61451493774E+02  0.00000000000E+00 0.  1.
         21    1    1    2  505  504  0.31266619105E+02  0.64102424398E+02 -0.52225550378E+03  0.52710296291E+03  0.00000000000E+00 0.  1.
         21    1    1    2  506  502 -0.20375736362E+02  0.23941762797E+02 -0.82936145341E+02  0.88694886223E+02  0.00000000000E+00 0.  1.
<scales pt_clust_3="14000.00000" pt_clust_4="46.81349" pt_clust_5="86.34225" pt_clust_6="31.43849"></scales>
<clustering>
<clus scale="   31.438">  2  6  1 -1</clus>
<clus scale="   46.813">  1  4  2 -1</clus>
<clus scale="   86.342">  2  5  1 -1</clus>
<clus scale="   46.813">  1  3  2 -1</clus>
</clustering>
</event>
<event>
 6    0  0.3446372E+002  0.2094315E+03  0.7546771E-02  0.1142017E+00
         21   -1    0    0  503  501  0.00000000000E+00  0.00000000000E+00  0.13038693192E+03  0.13038693192E+03  0.00000000000E+00 0. -1.
         21   -1    0    0  505  502 -0.00000000000E+00 -0.00000000000E+00 -0.11555408049E+04  0.11555408049E+04  0.00000000000E+00 0.  1.
         21    1    1    2  503  506 -0.17298406751E+03 -0.26026335204E+02  0.58555150838E+00  0.17493198852E+03  0.00000000000E+00 0. -1.
         21    1    1    2  504  501  0.52467364656E+02 -0.47808418422E+01 -0.53321435651E+02  0.74959030827E+02  0.00000000000E+00 0. -1.
         21    1    1    2  505  504  0.19895122534E+03  0.11178354757E+03 -0.48870676207E+03  0.53936207770E+03  0.00000000000E+00 0.  1.
         21    1    1    2  506  502 -0.78434522484E+02 -0.80976370524E+02 -0.48371122681E+03  0.49667463982E+03  0.00000000000E+00 0.  1.
<scales pt_clust_3="186.88655" pt_clust_4="45.41791" pt_clust_5="45.41791" pt_clust_6="112.73485"></scales>
<clustering>
<clus scale="   45.418">  4  5 -1 -1</clus>
<clus scale="  112.735">  2  6  1 -1</clus>
<clus scale="  186.887">  1  3  2 -1</clus>
<clus scale="  186.887">  1  3  2 -1</clus>
</clustering>
</event>
<event>
 6    0  0.3446372E+002  0.9980670E+02  0.7546771E-02  0.1280703E+00
         21   -1    0    0  503  501  0.00000000000E+00  0.00000000000E+00  0.27505819030E+03  0.27505819030E+03  0.00000000000E+00 0.  1.
         21   -1    0    0  506  502 -0.00000000000E+00 -0.00000000000E+00 -0.35218022853E+03  0.35218022853E+03  0.00000000000E+00 0.  1.
         21    1    1    2  503  504 -0.57088116495E+02 -0.71956748537E+02  0.11163991243E+03  0.14456934928E+03  0.00000000000E+00 0.  1.
         21    1    1    2  504  502 -0.67942500334E+02 -0.74777718046E+02 -0.47236733595E+02  0.11153115918E+03  0.00000000000E+00 0.  1.
         21    1    1    2  505  501  0.74544091003E+02  0.60482445076E+02  0.82024161133E+02  0.12626523938E+03  0.00000000000E+00 0.  1.
         21    1    1    2  506  505  0.50486525826E+02  0.86252021508E+02 -0.22354937820E+03  0.24487267099E+03  0.00000000000E+00 0.  1.
<scales pt_clust_3="91.85220" pt_clust_4="14000.00000" pt_clust_5="35.38194" pt_clust_6="99.80670"></scales>
<clustering>
<clus scale="   91.852">  1  3  2 -1</clus>
<clus scale="   35.382">  1  5  2 -1</clus>
<clus scale="   99.807">  2  6  1 -1</clus>
<clus scale="   91.852">  1  3  2 -1</clus>
</clustering>
</event>
<event>
 6    0  0.3446372E+002  0.7712043E+02  0.7546771E-02  0.1337428E+00
         21   -1    0    0  504  501  0.00000000000E+00  0.00000000000E+00  0.85974233668E+02  0.85974233668E+02  0.00000000000E+00 0.  1.
         21   -1    0    0  505  502 -0.00000000000E+00 -0.00000000000E+00 -0.36501314589E+03  0.36501314589E+03  0.00000000000E+00 0.  1.
         21    1    1    2  503  501 -0.34940406324E+02  0.65250618747E+02 -0.19605028740E+02  0.76569134727E+02  0.00000000000E+00 0.  1.
         21    1    1    2  504  502 -0.86301955939E+02  0.15150978903E+02 -0.16123983089E+03  0.18350984395E+03  0.00000000000E+00 0.  1.
         21    1    1    2  505  506  0.26955772188E+02 -0.40737031514E+02 -0.68987585940E+02  0.84530505763E+02  0.00000000000E+00 0. -1.
         21    1    1    2  506  503  0.94286590075E+02 -0.39664566137E+02 -0.29206466648E+02  0.10637789511E+03  0.00000000000E+00 0.  1.
<scales pt_clust_3="65.90732" pt_clust_4="77.12043" pt_clust_5="48.84792" pt_clust_6="14000.00000"></scales>
<clustering>
<clus scale="   48.848">  2  5  1 -1</clus>
<clus scale="   65.907">  1  3  2 -1</clus>
<clus scale="   77.120">  2  4  1 -1</clus>
<clus scale="   65.907">  1  3  2 -1</clus>
</clustering>
</event>
<event>
 6    0  0.3446372E+002  0.1967072E+03  0.7546771E-02  0.1152547E+00
         21   -1    0    0  506  501  0.00000000000E+00  0.00000000000E+00  0.50776261982E+03  0.50776261982E+03  0.00000000000E+00 0. -1.
         21   -1    0    0  504  502 -0.00000000000E+00 -0.00000000000E+00 -0.36218059057E+03  0.36218059057E+03  0.00000000000E+00 0. -1.
         21    1    1    2  503  505  0.13566074685E+03  0.55048458230E+02 -0.24859297087E+03  0.28850066925E+03  0.00000000000E+00 0. -1.
         21    1    1    2  504  501 -0.81616269795E+02 -0.59100804098E+02  0.51357458285E+02  0.11310043794E+03  0.00000000000E+00 0. -1.
         21    1    1    2  505  502  0.81997418422E+02 -0.12342369944E+02 -0.15821889389E+02  0.84417077108E+02  0.00000000000E+00 0. -1.
         21    1    1    2  506  503 -0.13604189548E+03  0.16394715813E+02  0.35863943123E+03  0.38392502610E+03  0.00000000000E+00 0. -1.
<scales pt_clust_3="196.70718" pt_clust_4="95.08746" pt_clust_5="82.92111" pt_clust_6="14000.00000"></scales>
<clustering>
<clus scale="   82.921">  2  5  1 -1</clus>
<clus scale="   95.087">  1  4  2 -1</clus>
<clus scale="  196.707">  2  3  1 -1</clus>
<clus scale="   95.087">  1  3  2 -1</clus>
</clustering>
</event>
<event>
 6    0  0.3446372E+002  0.1485305E+03  0.7546771E-02  0.1202290E+00
         21   -1    0    0  503  501  0.00000000000E+00  0.00000000000E+00  0.18354518574E+03  0.18354518574E+03  0.00000000000E+00 0.  1.
         21   -1    0    0  505  502 -0.00000000000E+00 -0.00000000000E+00 -0.74267896355E+03  0.74267896355E+03  0.00000000000E+00 0.  1.
         21    1    1    2  503  506  0.36541770003E+02 -0.86861985751E+02 -0.14006021369E+03  0.16881104520E+03  0.00000000000E+00 0.  1.
         21    1    1    2  504  502 -0.59967251749E+02  0.69759068457E+02 -0.21986506669E+03  0.23833389701E+03  0.00000000000E+00 0.  1.
         21    1    1    2  505  501  0.34763581850E+02  0.11124598949E+03  0.13110683254E+03  0.17542285580E+03  0.00000000000E+00 0.  1.
         21    1    1    2  506  504 -0.11338100104E+02 -0.94143072193E+02 -0.33031532998E+03  0.34365635128E+03  0.00000000000E+00 0.  1.
<scales pt_clust_3="89.00670" pt_clust_4="91.99130" pt_clust_5="118.69996" pt_clust_6="89.00670"></scales>
<clustering>
<clus scale="   89.007">  3  6 -1 -1</clus>
<clus scale="   91.991">  2  4  1 -1</clus>
<clus scale="  118.700">  1  5  2 -1</clus>
<clus scale="  118.700">  1  3  2 -1</clus>
</clustering>
</event>
<event>
 6    0  0.3446372E+002  0.7227999E+02  0.7546771E-02  0.1352507E+00
         21   -1    0    0  504  501  0.00000000000E+00  0.00000000000E+00  0.75883298519E+02  0.75883298519E+02  0.00000000000E+00 0.  1.
         21   -1    0    0  503  502 -0.00000000000E+00 -0.00000000000E+00 -0.24672644904E+03  0.24672644904E+03  0.00000000000E+00 0.  1.
         21    1    1    2  503  506 -0.29025051832E+02 -0.37139641036E+02 -0.80884687475E+02  0.93616981569E+02  0.00000000000E+00 0.  1.
         21    1    1    2  504  505 -0.17507339409E+02  0.81614016521E+02 -0.29490178304E+02  0.88526974659E+02  0.00000000000E+00 0.  1.
         21    1    1    2  505  502  0.81921542000E+02 -0.22581584487E+02 -0.44206587791E+02  0.95787730977E+02  0.00000000000E+00 0.  1.
         21    1    1    2  506  501 -0.35389150758E+02 -0.21892790998E+02 -0.16261696948E+02  0.44678060351E+02  0.00000000000E+00 0.  1.
<scales pt_clust_3="51.18753" pt_clust_4="14000.00000" pt_clust_5="72.27999" pt_clust_6="41.61353"></scales>
<clustering>
<clus scale="   41.614">  1  6  2 -1</clus>
<clus scale="   51.188">  2  3  1 -1</clus>
<clus scale="   72.280">  2  5  1 -1</clus>
<clus scale="   41.614">  1  3  2 -1</clus>
</clustering>
</event>
<event>
 6    0  0.3446372E+002  0.1809553E+03  0.7546771E-02  0.1166882E+00
         21   -1    0    0  505  501  0.00000000000E+00  0.00000000000E+00  0.46097643895E+03  0.46097643895E+03  0.00000000000E+00 0. -1.
         21   -1    0    0  506  502 -0.00000000000E+00 -0.00000000000E+00 -0.13649963822E+03  0.13649963822E+03  0.00000000000E+00 0. -1.
         21    1    1    2  503  504 -0.72262535676E+02  0.76749063303E+02 -0.14397708368E+02  0.10639354673E+03  0.00000000000E+00 0. -1.
         21    1    1    2  504  502 -0.23854122662E+02  0.70129954325E+02  0.33404682227E+02  0.81259476102E+02  0.00000000000E+00 0. -1.
         21    1    1    2  505  503  0.30894922168E+02  0.25663296231E+01  0.22656720063E+03  0.22867833012E+03  0.00000000000E+00 0.  1.
         21    1    1    2  506  501  0.65221736171E+02 -0.14944534725E+03  0.78902626235E+02  0.18114472422E+03  0.00000000000E+00 0. -1.
<scales pt_clust_3="53.70304" pt_clust_4="53.70304" pt_clust_5="31.00133" pt_clust_6="169.42342"></scales>
<clustering>
<clus scale="   31.001">  1  5  2 -1</clus>
<clus scale="   53.703">  3  4 -1 -1</clus>
<clus scale="  169.423">  1  6  2 -1</clus>
<clus scale="   31.001">  1  3  2 -1</clus>
</clustering>
</event>
<event>
 6    0  0.3446372E+002  0.7907300E+02  0.7546771E-02  0.1331703E+00
         21   -1    0    0  504  501  0.00000000000E+00  0.00000000000E+00  0.13178176025E+03  0.13178176025E+03  0.00000000000E+00 0. -1.
         21   -1    0    0  503  502 -0.00000000000E+00 -0.00000000000E+00 -0.43038112777E+03  0.43038112777E+03  0.00000000000E+00 0. -1.
         21    1    1    2  503  506 -0.43062634393E+01 -0.41489484894E+02 -0.23774959830E+03  0.24138101158E+03  0.00000000000E+00 0. -1.
         21    1    1    2  504  505  0.36127212671E+02 -0.31205509984E+02  0.66948949146E+02  0.82226036877E+02  0.00000000000E+00 0. -1.
         21    1    1    2  505  502 -0.87366727617E+01  0.11619247708E+03 -0.17583113277E+02  0.11783966672E+03  0.00000000000E+00 0. -1.
         21    1    1    2  506  501 -0.23084276470E+02 -0.43497482201E+02 -0.11021560509E+03  0.12071617283E+03  0.00000000000E+00 0. -1.
<scales pt_clust_3="41.71236" pt_clust_4="48.71292" pt_clust_5="79.07300" pt_clust_6="14000.00000"></scales>
<clustering>
<clus scale="   41.712">  2  3  1 -1</clus>
<clus scale="   48.713">  1  4  2 -1</clus>
<clus scale="   79.073">  1  5  2 -1</clus>
<clus scale="   48.713">  1  3  2 -1</clus>
</clustering>
</event>
<event>
 6    0  0.3446372E+002  0.6688688E+02  0.7546771E-02  0.1371011E+00
         21   -1    0    0  506  501  0.00000000000E+00  0.00000000000E+00  0.11236545112E+03  0.11236545112E+03  0.00000000000E+00 0. -1.
         21   -1    0    0  503  502 -0.00000000000E+00 -0.00000000000E+00 -0.11954894518E+04  0.11954894518E+04  0.00000000000E+00 0. -1.
         21    1    1    2  503  504  0.56182700618E+02 -0.87895731885E+01 -0.12354570021E+03  0.13600475170E+03  0.00000000000E+00 0. -1.
         21    1    1    2  504  505 -0.48243178521E+02 -0.49434468686E+02 -0.11480460371E+03  0.13398234213E+03  0.00000000000E+00 0. -1.
         21    1    1    2  505  501 -0.66907705456E+02  0.39842653521E+01  0.82975701451E+02  0.10666528231E+03  0.00000000000E+00 0. -1.
         21    1    1    2  506  502  0.58968183359E+02  0.54239776523E+02 -0.92774939825E+03  0.93120252682E+03  0.00000000000E+00 0. -1.
<scales pt_clust_3="56.86609" pt_clust_4="65.45168" pt_clust_5="14000.00000" pt_clust_6="66.88688"></scales>
<clustering>
<clus scale="   56.866">  2  3  1 -1</clus>
<clus scale="   65.452">  2  4  1 -1</clus>
<clus scale="   66.887">  2  6  1 -1</clus>
<clus scale="   66.887">  1  3  2 -1</clus>
</clustering>
</event>
<event>
 6    0  0.3446372E+002  0.1498533E+03  0.7546771E-02  0.1200653E+00
         21   -1    0    0  504  501  0.00000000000E+00  0.00000000000E+00  0.35257677075E+03  0.35257677075E+03  0.00000000000E+00 0.  1.
         21   -1    0    0  505  502 -0.00000000000E+00 -0.00000000000E+00 -0.79932247153E+02  0.79932247153E+02  0.00000000000E+00 0.  1.
         21    1    1    2  503  502 -0.91054779668E+01  0.79494142344E+02  0.43615490667E+02  0.91129245701E+02  0.00000000000E+00 0.  1.
         21    1    1    2  504  503  0.21568647811E+02  0.56949661531E+02  0.10344646194E+03  0.12004016413E+03  0.00000000000E+00 0.  1.
         21    1    1    2  505  506 -0.36735814445E+02 -0.28238959066E+01  0.71233006020E+00  0.36851076852E+02  0.00000000000E+00 0.  1.
         21    1    1    2  506  501  0.24272644600E+02 -0.13361990797E+03  0.12487024093E+03  0.18448853122E+03  0.00000000000E+00 0.  1.
<scales pt_clust_3="54.98788" pt_clust_4="54.98788" pt_clust_5="36.84419" pt_clust_6="135.14048"></scales>
<clustering>
<clus scale="   36.844">  2  5  1 -1</clus>
<clus scale="   54.988">  3  4 -1 -1</clus>
<clus scale="  135.140">  2  6  1 -1</clus>
<clus scale="  149.853">  1  3  2 -1</clus>
</clustering>
</event>
<event>
 6    0  0.3446372E+002  0.9809175E+02  0.7546771E-02  0.1284361E+00
         21   -1    0    0  505  501  0.00000000000E+00  0.00000000000E+00  0.18207507939E+04  0.18207507939E+04  0.00000000000E+00 0.  1.
         21   -1    0    0  504  502 -0.00000000000E+00 -0.00000000000E+00 -0.29583508594E+02  0.29583508594E+02  0.00000000000E+00 0. -1.
         21    1    1    2  503  501 -0.14529745583E+02 -0.33960392306E+02  0.45443470456E+03  0.45593346275E+03  0.00000000000E+00 0.  1.
         21    1    1    2  504  503 -0.77746231665E+02 -0.49214059021E+02  0.85480694735E+02  0.12559239354E+03  0.00000000000E+00 0. -1.
         21    1    1    2  505  506 -0.16842781003E+02 -0.40218415278E+02  0.19715173872E+03  0.20191584455E+03  0.00000000000E+00 0.  1.
         21    1    1    2  506  502  0.10911875825E+03  0.12339286660E+03  0.10541001473E+04  0.10668926017E+04  0.00000000000E+00 0.  1.
<scales pt_clust_3="36.93808" pt_clust_4="14000.00000" pt_clust_5="48.99993" pt_clust_6="98.09175"></scales>
<clustering>
<clus scale="   36.938">  1  3  2 -1</clus>
<clus scale="   49.000">  1  5  2 -1</clus>
<clus scale="   98.092">  1  6  2 -1</clus>
<clus scale="   36.938">  1  3  2 -1</clus>
</clustering>
</event>
<event>
 6    0  0.3446372E+002  0.9041686E+02  0.7546771E-02  0.1301845E+00
         21   -1    0    0  503  501  0.00000000000E+00  0.00000000000E+00  0.35096327368E+03  0.35096327368E+03  0.00000000000E+00 0.  1.
         21   -1    0    0  505  502 -0.00000000000E+00 -0.00000000000E+00 -0.84593998311E+03  0.84593998311E+03  0.00000000000E+00 0. -1.
         21    1    1    2  503  506 -0.88576576398E+02 -0.13352828210E+03  0.28322844405E+03  0.32541352696E+03  0.00000000000E+00 0.  1.
         21    1    1    2  504  501  0.42692332955E+02  0.54063315524E+02  0.15784698208E+02  0.70672725122E+02  0.00000000000E+00 0. -1.
         21    1    1    2  505  504  0.18982555429E+02  0.32522364642E+02 -0.15371988365E+03  0.15826510747E+03  0.00000000000E+00 0.  1.
         21    1    1    2  506  502  0.26901688013E+02  0.46942601933E+02 -0.64026996803E+03  0.64255189724E+03  0.00000000000E+00 0. -1.
<scales pt_clust_3="14000.00000" pt_clust_4="70.37094" pt_clust_5="37.65689" pt_clust_6="90.41686"></scales>
<clustering>
<clus scale="   37.657">  2  5  1 -1</clus>
<clus scale="   70.371">  1  4  2 -1</clus>
<clus scale="   90.417">  2  6  1 -1</clus>
<clus scale="   70.371">  1  3  2 -1</clus>
</clustering>
</event>
<event>
 6    0  0.3446372E+002  0.1658496E+03  0.7546771E-02  0.1182246E+00
         21   -1    0    0  505  501  0.00000000000E+00  0.00000000000E+00  0.13411281568E+04  0.13411281568E+04  0.00000000000E+00 0.  1.
         21   -1    0    0  503  502 -0.00000000000E+00 -0.00000000000E+00 -0.30335072206E+02  0.30335072206E+02  0.00000000000E+00 0.  1.
         21    1    1    2  503  504  0.10145707273E+03 -0.11885860895E+02  0.30014268349E+03  0.31704958878E+03  0.00000000000E+00 0.  1.
         21    1    1    2  504  506  0.29095758105E+02 -0.34628895533E+02  0.16721472645E+03  0.17322380981E+03  0.00000000000E+00 0.  1.
         21    1    1    2  505  502 -0.15317045323E+03  0.85677382397E+02  0.41789447761E+03  0.45325224325E+03  0.00000000000E+00 0.  1.
         21    1    1    2  506  501  0.22617622402E+02 -0.39162625969E+02  0.42554119709E+03  0.42793758720E+03  0.00000000000E+00 0. -1.
<scales pt_clust_3="34.81442" pt_clust_4="34.81442" pt_clust_5="157.38077" pt_clust_6="45.22464"></scales>
<clustering>
<clus scale="   34.814">  3  4 -1 -1</clus>
<clus scale="   45.225">  1  6  2 -1</clus>
<clus scale="  157.381">  2  5  1 -1</clus>
<clus scale="   45.225">  1  3  2 -1</clus>
</clustering>
</event>
<event>
 6    0  0.3446372E+002  0.8490823E+02  0.7546771E-02  0.1315673E+00
         21   -1    0    0  503  501  0.00000000000E+00  0.00000000000E+00  0.11853432078E+04  0.11853432078E+04  0.00000000000E+00 0. -1.
         21   -1    0    0  505  502 -0.00000000000E+00 -0.00000000000E+00 -0.16288229798E+03  0.16288229798E+03  0.00000000000E+00 0. -1.
         21    1    1    2  503  504 -0.43803742669E+02 -0.10097525433E+03  0.12247757364E+03  0.16466792615E+03  0.00000000000E+00 0. -1.
         21    1    1    2  504  502  0.25175857677E+02  0.76826607075E+02 -0.21302434208E+01  0.80874528138E+02  0.00000000000E+00 0. -1.
         21    1    1    2  505  506  0.40815937394E+02 -0.27652872071E+02 -0.93380016837E+02  0.10559568942E+03  0.00000000000E+00 0. -1.
         21    1    1    2  506  501 -0.22188052402E+02  0.51801519326E+02  0.99549359648E+03  0.99708736212E+03  0.00000000000E+00 0. -1.
<scales pt_clust_3="84.90823" pt_clust_4="14000.00000" pt_clust_5="49.30134" pt_clust_6="55.83288"></scales>
<clustering>
<clus scale="   49.301">  2  5  1 -1</clus>
<clus scale="   55.833">  1  6  2 -1</clus>
<clus scale="   84.908">  1  3  2 -1</clus>
<clus scale="   55.833">  1  3  2 -1</clus>
</clustering>
</event>
<event>
 6    0  0.3446372E+002  0.1020803E+03  0.7546771E-02  0.1275981E+00
         21   -1    0    0  504  501  0.00000000000E+00  0.00000000000E+00  0.52922727837E+02  0.52922727837E+02  0.00000000000E+00 0.  1.
         21   -1    0    0  505  502 -0.00000000000E+00 -0.00000000000E+00 -0.13913813989E+04  0.13913813989E+04  0.00000000000E+00 0. -1.
         21    1    1    2  503  501 -0.33473168354E+02 -0.18275182360E+02  0.67500611715E+00  0.38143032433E+02  0.00000000000E+00 0.  1.
         21    1    1    2  504  502 -0.40267421463E+02 -0.48973415650E+02 -0.19233770830E+03  0.20251828240E+03  0.00000000000E+00 0.  1.
         21    1    1    2  505  506  0.65672756823E+02  0.11291188924E+03 -0.11497804450E+04  0.11571763381E+04  0.00000000000E+00 0. -1.
         21    1    1    2  506  503  0.80678329938E+01 -0.45663291225E+02  0.29844760878E+01  0.46466473852E+02  0.00000000000E+00 0.  1.
<scales pt_clust_3="38.13706" pt_clust_4="102.08034" pt_clust_5="14000.00000" pt_clust_6="61.43904"></scales>
<clustering>
<clus scale="   38.137">  1  3  2 -1</clus>
<clus scale="   61.439">  1  6  2 -1</clus>
<clus scale="  102.080">  1  4  2 -1</clus>
<clus scale="   38.137">  1  3  2 -1</clus>
</clustering>
</event>
<event>
 6    0  0.3446372E+002  0.1386552E+03  0.7546771E-02  0.1215150E+00
         21   -1    0    0  503  501  0.00000000000E+00  0.00000000000E+00  0.46602147181E+03  0.46602147181E+03  0.00000000000E+00 0. -1.
         21   -1    0    0  505  502 -0.00000000000E+00 -0.00000000000E+00 -0.24616628816E+03  0.24616628816E+03  0.00000000000E+00 0.  1.
         21    1    1    2  503  502  0.13041002337E+02  0.46263977644E+02  0.18551910676E+03  0.19164488603E+03  0.00000000000E+00 0. -1.
         21    1    1    2  504  506  0.49098589030E+02  0.23746015209E+01  0.53229261416E+02  0.72454568165E+02  0.00000000000E+00 0.  1.
         21    1    1    2  505  504 -0.12397670839E+03 -0.39179633254E+02 -0.21000611678E+03  0.24699764568E+03  0.00000000000E+00 0.  1.
         21    1    1    2  506  501  0.61837117023E+02 -0.94589459112E+01  0.19111293226E+03  0.20109066009E+03  0.00000000000E+00 0. -1.
<scales pt_clust_3="48.06686" pt_clust_4="46.62880" pt_clust_5="128.28987" pt_clust_6="46.62880"></scales>
<clustering>
<clus scale="   46.629">  4  6 -1 -1</clus>
<clus scale="   48.067">  1  3  2 -1</clus>
<clus scale="  128.290">  2  5  1 -1</clus>
<clus scale="   48.067">  1  3  2 -1</clus>
</clustering>
</event>
<event>
 6    0  0.3446372E+002  0.8941537E+02  0.7546771E-02  0.1304274E+00
         21   -1    0    0  504  501  0.00000000000E+00  0.00000000000E+00  0.33960586634E+03  0.33960586634E+03  0.00000000000E+00 0. -1.
         21   -1    0    0  506  502 -0.00000000000E+00 -0.00000000000E+00 -0.35180197013E+03  0.35180197013E+03  0.00000000000E+00 0. -1.
         21    1    1    2  503  501  0.22611105036E+02  0.36829043626E+02  0.21423852148E+03  0.21855384831E+03  0.00000000000E+00 0. -1.
         21    1    1    2  504  505 -0.11277754345E+03 -0.25454152784E+02  0.77883156653E+02  0.13940040994E+03  0.00000000000E+00 0. -1.
         21    1    1    2  505  502  0.35559091323E+02  0.45258819820E+02 -0.12274234023E+03  0.13556729632E+03  0.00000000000E+00 0. -1.
         21    1    1    2  506  503  0.54607347089E+02 -0.56633710662E+02 -0.18157544170E+03  0.19788628191E+03  0.00000000000E+00 0. -1.
<scales pt_clust_3="43.21621" pt_clust_4="14000.00000" pt_clust_5="59.79183" pt_clust_6="89.41537"></scales>
<clustering>
<clus scale="   43.216">  1  3  2 -1</clus>
<clus scale="   59.792">  2  5  1 -1</clus>
<clus scale="   89.415">  2  6  1 -1</clus>
<clus scale="   43.216">  1  3  2 -1</clus>
</clustering>
</event>
<event>
 6    0  0.3446372E+002  0.1552326E+03  0.7546771E-02  0.1194187E+00
         21   -1    0    0  504  501  0.00000000000E+00  0.00000000000E+00  0.45586336811E+03  0.45586336811E+03  0.00000000000E+00 0. -1.
         21   -1    0    0  503  502 -0.00000000000E+00 -0.00000000000E+00 -0.28590539544E+03  0.28590539544E+03  0.00000000000E+00 0.  1.
         21    1    1    2  503  501  0.25869920370E+01  0.36492848079E+02  0.26545787462E+03  0.26796698246E+03  0.00000000000E+00 0. -1.
         21    1    1    2  504  505 -0.54856164639E+02 -0.16120333929E+03  0.43023389812E+02  0.17563236452E+03  0.00000000000E+00 0. -1.
         21    1    1    2  505  506 -0.21826284117E+02  0.17153326565E+03 -0.68527180142E+02  0.18600006001E+03  0.00000000000E+00 0.  1.
         21    1    1    2  506  502  0.74095456719E+02 -0.46822774442E+02 -0.69996111615E+02  0.11216935657E+03  0.00000000000E+00 0.  1.
<scales pt_clust_3="36.58443" pt_clust_4="155.23257" pt_clust_5="14000.00000" pt_clust_6="85.79574"></scales>
<clustering>
<clus scale="   36.584">  1  3  2 -1</clus>
<clus scale="   85.796">  2  6  1 -1</clus>
<clus scale="  155.233">  1  4  2 -1</clus>
<clus scale="   36.584">  1  3  2 -1</clus>
</clustering>
</event>
<event>
 6    0  0.3446372E+002  0.1021465E+03  0.7546771E-02  0.1275846E+00
         21   -1    0    0  504  501  0.00000000000E+00  0.00000000000E+00  0.84276382212E+03  0.84276382212E+03  0.00000000000E+00 0. -1.
         21   -1    0    0  506  502 -0.00000000000E+00 -0.00000000000E+00 -0.21861343226E+03  0.21861343226E+03  0.00000000000E+00 0.  1.
         21    1    1    2  503  505 -0.90346584206E+02 -0.49083592367E+02  0.43791257645E+03  0.44982121886E+03  0.00000000000E+00 0. -1.
         21    1    1    2  504  503 -0.14262847677E+02  0.38798472150E+02  0.34643613618E+03  0.34889360372E+03  0.00000000000E+00 0. -1.
         21    1    1    2  505  502  0.69896187634E+02 -0.63872716244E+02 -0.15370087101E+03  0.18052467608E+03  0.00000000000E+00 0.  1.
         21    1    1    2  506  501  0.34713244249E+02  0.74157836461E+02 -0.64974517699E+01  0.82137755717E+02  0.00000000000E+00 0.  1.
<scales pt_clust_3="14000.00000" pt_clust_4="41.33703" pt_clust_5="102.14646" pt_clust_6="84.13262"></scales>
<clustering>
<clus scale="   41.337">  1  4  2 -1</clus>
<clus scale="   84.133">  2  6  1 -1</clus>
<clus scale="  102.146">  2  5  1 -1</clus>
<clus scale="   41.337">  1  3  2 -1</clus>
</clustering>
</event>
<event>
 6    0  0.3446372E+002  0.1624091E+03  0.7546771E-02  0.1186003E+00
         21   -1    0    0  504  501  0.00000000000E+00  0.00000000000E+00  0.10582535508E+04  0.10582535508E+04  0.00000000000E+00 0. -1.
         21   -1    0    0  506  502 -0.00000000000E+00 -0.00000000000E+00 -0.45654559782E+03  0.45654559782E+03  0.00000000000E+00 0. -1.
         21    1    1    2  503  502 -0.14660044687E+03 -0.24232631678E+02 -0.40306957628E+03  0.42958584100E+03  0.00000000000E+00 0. -1.
         21    1    1    2  504  503 -0.66468421130E+02  0.33978512032E+02  0.72271204190E+03  0.72655714559E+03  0.00000000000E+00 0. -1.
         21    1    1    2  505  501  0.15658205727E+03 -0.64279763937E+01  0.15922363138E+03  0.22340864873E+03  0.00000000000E+00 0.  1.
         21    1    1    2  506  505  0.56486810739E+02 -0.33179039601E+01  0.12284185595E+03  0.13524751328E+03  0.00000000000E+00 0.  1.
<scales pt_clust_3="150.98593" pt_clust_4="74.64978" pt_clust_5="35.95290" pt_clust_6="35.95290"></scales>
<clustering>
<clus scale="   35.953">  5  6 -1 -1</clus>
<clus scale="   74.650">  1  4  2 -1</clus>
<clus scale="  150.986">  2  3  1 -1</clus>
<clus scale="   74.650">  1  3  2 -1</clus>
</clustering>
</event>
<event>
 6    0  0.3446372E+002  0.1178052E+03  0.7546771E-02  0.1246762E+00
         21   -1    0    0  504  501  0.00000000000E+00  0.00000000000E+00  0.68025369804E+02  0.68025369804E+02  0.00000000000E+00 0. -1.
         21   -1    0    0  506  502 -0.00000000000E+00 -0.00000000000E+00 -0.96650242851E+03  0.96650242851E+03  0.00000000000E+00 0. -1.
         21    1    1    2  503  505 -0.69473211546E+01 -0.84550761286E+02 -0.54044881394E+03  0.54706673907E+03  0.00000000000E+00 0. -1.
         21    1    1    2  504  502  0.30049875444E+02  0.48147409339E+01  0.43853383592E+01  0.30747486677E+02  0.00000000000E+00 0. -1.
         21    1    1    2  505  501 -0.87217039187E+02  0.10664244684E+03 -0.66937694001E+02  0.15316683150E+03  0.00000000000E+00 0. -1.
         21    1    1    2  506  503  0.64114484898E+02 -0.26906426492E+02 -0.29547588912E+03  0.30354674107E+03  0.00000000000E+00 0. -1.
<scales pt_clust_3="14000.00000" pt_clust_4="30.43315" pt_clust_5="117.80520" pt_clust_6="71.60997"></scales>
<clustering>
<clus scale="   30.433">  1  4  2 -1</clus>
<clus scale="   71.610">  2  6  1 -1</clus>
<clus scale="  117.805">  1  5  2 -1</clus>
<clus scale="   30.433">  1  3  2 -1</clus>
</clustering>
</event>
<event>
 6    0  0.3446372E+002  0.7300319E+02  0.7546771E-02  0.1350168E+00
         21   -1    0    0  505  501  0.00000000000E+00  0.00000000000E+00  0.16764464331E+03  0.16764464331E+03  0.00000000000E+00 0.  1.
         21   -1    0    0  503  502 -0.00000000000E+00 -0.00000000000E+00 -0.12586847376E+03  0.12586847376E+03  0.00000000000E+00 0.  1.
         21    1    1    2  503  506 -0.80306079324E+02 -0.54949248968E+02  0.32230524602E+01  0.97359511121E+02  0.00000000000E+00 0.  1.
         21    1    1    2  504  502  0.65319490064E+02  0.85458894366E+01 -0.32964183440E+02  0.73663460402E+02  0.00000000000E+00 0.  1.
         21    1    1    2  505  504 -0.27401354229E+02  0.49627060250E+02  0.45091507600E+02  0.72435649926E+02  0.00000000000E+00 0.  1.
         21    1    1    2  506  501  0.42387943489E+02 -0.32237007178E+01  0.26425792937E+02  0.50054495621E+02  0.00000000000E+00 0.  1.
<scales pt_clust_3="73.00319" pt_clust_4="14000.00000" pt_clust_5="48.84829" pt_clust_6="42.51035"></scales>
<clustering>
<clus scale="   42.510">  1  6  2 -1</clus>
<clus scale="   48.848">  1  5  2 -1</clus>
<clus scale="   73.003">  1  3  2 -1</clus>
<clus scale="   42.510">  1  3  2 -1</clus>
</clustering>
</event>
<event>
 6    0  0.3446372E+002  0.1582711E+03  0.7546771E-02  0.1190663E+00
         21   -1    0    0  506  501  0.00000000000E+00  0.00000000000E+00  0.77807970552E+03  0.77807970552E+03  0.00000000000E+00 0.  1.
         21   -1    0    0  503  502 -0.00000000000E+00 -0.00000000000E+00 -0.39397527014E+02  0.39397527014E+02  0.00000000000E+00 0.  1.
         21    1    1    2  503  505  0.15648444574E+03 -0.17859886372E+02  0.28702170815E+03  0.32739550738E+03  0.00000000000E+00 0.  1.
         21    1    1    2  504  502 -0.62822531587E+02  0.40391178632E+02  0.20512482440E+03  0.21829867469E+03  0.00000000000E+00 0.  1.
         21    1    1    2  505  501 -0.19961655325E+02 -0.28446316312E+02  0.12296812801E+03  0.12778427564E+03  0.00000000000E+00 0.  1.
         21    1    1    2  506  504 -0.73700258828E+02  0.59150240518E+01  0.12356751795E+03  0.14399877483E+03  0.00000000000E+00 0.  1.
<scales pt_clust_3="150.37180" pt_clust_4="48.79900" pt_clust_5="34.75141" pt_clust_6="48.79900"></scales>
<clustering>
<clus scale="   34.751">  1  5  2 -1</clus>
<clus scale="   48.799">  4  6 -1 -1</clus>
<clus scale="  150.372">  2  3  1 -1</clus>
<clus scale="   34.751">  1  3  2 -1</clus>
</clustering>
</event>
<event>
 6    0  0.3446372E+002  0.1033930E+03  0.7546771E-02  0.1273318E+00
         21   -1    0    0  504  501  0.00000000000E+00  0.00000000000E+00  0.89875231533E+03  0.89875231533E+03  0.00000000000E+00 0.  1.
         21   -1    0    0  505  502 -0.00000000000E+00 -0.00000000000E+00 -0.12138274296E+03  0.12138274296E+03  0.00000000000E+00 0.  1.
         21    1    1    2  503  502 -0.54324565835E+02 -0.99950977049E+01 -0.81906428584E+02  0.98791312749E+02  0.00000000000E+00 0.  1.
         21    1    1    2  504  503 -0.28304801439E+02  0.18375445296E+02  0.17609848653E+03  0.17930280459E+03  0.00000000000E+00 0.  1.
         21    1    1    2  505  506 -0.47855107575E+02 -0.15758915238E+02  0.41535446542E+01  0.50553997504E+02  0.00000000000E+00 0. -1.
         21    1    1    2  506  501  0.13048447485E+03  0.73785676463E+01  0.67902396977E+03  0.69148694345E+03  0.00000000000E+00 0.  1.
<scales pt_clust_3="14000.00000" pt_clust_4="33.74639" pt_clust_5="51.19466" pt_clust_6="103.39304"></scales>
<clustering>
<clus scale="   33.746">  1  4  2 -1</clus>
<clus scale="   51.195">  2  5  1 -1</clus>
<clus scale="  103.393">  1  6  2 -1</clus>
<clus scale="   33.746">  1  3  2 -1</clus>
</clustering>
</event>
<event>
 6    0  0.3446372E+002  0.9731870E+02  0.7546771E-02  0.1286038E+00
         21   -1    0    0  503  501  0.00000000000E+00  0.00000000000E+00  0.88179454224E+03  0.88179454224E+03  0.00000000000E+00 0. -1.
         21   -1    0    0  506  502 -0.00000000000E+00 -0.00000000000E+00 -0.16690801088E+03  0.16690801088E+03  0.00000000000E+00 0.  1.
         21    1    1    2  503  505 -0.11522909347E+02 -0.59143908272E+02  0.65446895341E+03  0.65723693620E+03  0.00000000000E+00 0. -1.
         21    1    1    2  504  501  0.61603238261E+02  0.48941617099E+02  0.14540295640E+03  0.16532471254E+03  0.00000000000E+00 0.  1.
         21    1    1    2  505  502  0.67061227383E+02  0.51212572639E+02 -0.45691149464E+02  0.95956328367E+02  0.00000000000E+00 0.  1.
         21    1    1    2  506  504 -0.11714155630E+03 -0.41010281466E+02 -0.39294228986E+02  0.13018457600E+03  0.00000000000E+00 0.  1.
<scales pt_clust_3="60.25595" pt_clust_4="54.31346" pt_clust_5="97.31870" pt_clust_6="14000.00000"></scales>
<clustering>
<clus scale="   60.256">  1  3  2 -1</clus>
<clus scale="   54.313">  1  4  2 -1</clus>
<clus scale="   97.319">  2  5  1 -1</clus>
<clus scale="   60.256">  1  3  2 -1</clus>
</clustering>
</event>
<event>
 6    0  0.3446372E+002  0.9858020E+02  0.7546771E-02  0.1283310E+00
         21   -1    0    0  506  501  0.00000000000E+00  0.00000000000E+00  0.47208573867E+03  0.47208573867E+03  0.00000000000E+00 0.  1.
         21   -1    0    0  503  502 -0.00000000000E+00 -0.00000000000E+00 -0.74955561372E+02  0.74955561372E+02  0.00000000000E+00 0.  1.
         21    1    1    2  503  505 -0.96093656008E+02  0.18937848936E+02  0.17864938934E+01  0.97958278914E+02  0.00000000000E+00 0.  1.
         21    1    1    2  504  502  0.10127301147E+03 -0.10632478949E+02  0.21630869351E+03  0.23907890612E+03  0.00000000000E+00 0.  1.
         21    1    1    2  505  501 -0.22804674242E+02 -0.46008195268E+02  0.40638397534E+02  0.65485010142E+02  0.00000000000E+00 0.  1.
         21    1    1    2  506  504  0.17625318782E+02  0.37702825281E+02  0.13839659235E+03  0.14451910487E+03  0.00000000000E+00 0.  1.
<scales pt_clust_3="98.58020" pt_clust_4="14000.00000" pt_clust_5="44.67250" pt_clust_6="41.61917"></scales>
<clustering>
<clus scale="   41.619">  1  6  2 -1</clus>
<clus scale="   44.672">  1  5  2 -1</clus>
<clus scale="   98.580">  2  3  1 -1</clus>
<clus scale="   41.619">  1  3  2 -1</clus>
</clustering>
</event>
<event>
 6    0  0.3446372E+002  0.2208897E+03  0.7546771E-02  0.1133221E+00
         21   -1    0    0  506  501  0.00000000000E+00  0.00000000000E+00  0.14674546409E+04  0.14674546409E+04  0.00000000000E+00 0. -1.
         21   -1    0    0  505  502 -0.00000000000E+00 -0.00000000000E+00 -0.10460299296E+04  0.10460299296E+04  0.00000000000E+00 0. -1.
         21    1    1    2  503  504  0.17027987282E+03 -0.58271626916E+02 -0.10626323720E+03  0.20900405061E+03  0.00000000000E+00 0. -1.
         21    1    1    2  504  501 -0.11055281461E+03  0.19697867677E+03  0.13673724876E+04  0.13859040529E+04  0.00000000000E+00 0. -1.
         21    1    1    2  505  503  0.13950647998E+03 -0.68434226596E+02 -0.43759405692E+03  0.46436393053E+03  0.00000000000E+00 0. -1.
         21    1    1    2  506  502 -0.19923353819E+03 -0.70272823254E+02 -0.40209048220E+03  0.45421253649E+03  0.00000000000E+00 0. -1.
<scales pt_clust_3="220.88970" pt_clust_4="14000.00000" pt_clust_5="155.38758" pt_clust_6="155.09911"></scales>
<clustering>
<clus scale="  155.388">  2  5  1 -1</clus>
<clus scale="  155.099">  2  6  1 -1</clus>
<clus scale="  220.890">  2  3  1 -1</clus>
<clus scale="  220.890">  1  3  2 -1</clus>
</clustering>
</event>
<event>
 6    0  0.3446372E+002  0.1379598E+03  0.7546771E-02  0.1216101E+00
         21   -1    0    0  505  501  0.00000000000E+00  0.00000000000E+00  0.25456505748E+03  0.25456505748E+03  0.00000000000E+00 0.  1.
         21   -1    0    0  504  502 -0.00000000000E+00 -0.00000000000E+00 -0.18720136503E+03  0.18720136503E+03  0.00000000000E+00 0.  1.
         21    1    1    2  503  506  0.10471341544E+03 -0.62573085188E+02  0.32346198410E+02  0.12620050283E+03  0.00000000000E+00 0.  1.
         21    1    1    2  504  503 -0.33110258086E+02 -0.42312823281E+02 -0.50780500412E+02  0.73927825794E+02  0.00000000000E+00 0.  1.
         21    1    1    2  505  502  0.12558272116E+02 -0.29528650641E+02 -0.31049715714E+02  0.44651273813E+02  0.00000000000E+00 0.  1.
         21    1    1    2  506  501 -0.84161429467E+02  0.13441455911E+03  0.11684771017E+03  0.19698682007E+03  0.00000000000E+00 0.  1.
<scales pt_clust_3="137.95981" pt_clust_4="61.33698" pt_clust_5="32.08818" pt_clust_6="14000.00000"></scales>
<clustering>
<clus scale="   32.088">  2  5  1 -1</clus>
<clus scale="   61.337">  2  4  1 -1</clus>
<clus scale="  137.960">  2  3  1 -1</clus>
<clus scale="  137.960">  1  3  2 -1</clus>
</clustering>
</event>
<event>
 6    0  0.3446372E+002  0.1193951E+03  0.7546771E-02  0.1244098E+00
         21   -1    0    0  503  501  0.00000000000E+00  0.00000000000E+00  0.34935261440E+03  0.34935261440E+03  0.00000000000E+00 0.  1.
         21   -1    0    0  506  502 -0.00000000000E+00 -0.00000000000E+00 -0.31981494884E+03  0.31981494884E+03  0.00000000000E+00 0.  1.
         21    1    1    2  503  504  0.58924549258E+02 -0.51872358893E+02  0.25794063934E+03  0.26962236099E+03  0.00000000000E+00 0.  1.
         21    1    1    2  504  502 -0.65682353146E+02  0.91414419643E+02 -0.17279975214E+03  0.20622929466E+03  0.00000000000E+00 0.  1.
         21    1    1    2  505  501 -0.12440714602E+02 -0.64471661459E+02  0.50379150260E+02  0.82761254775E+02  0.00000000000E+00 0. -1.
         21    1    1    2  506  505  0.19198518489E+02  0.24929600709E+02 -0.10598237190E+03  0.11055465281E+03  0.00000000000E+00 0. -1.
<scales pt_clust_3="14000.00000" pt_clust_4="119.39513" pt_clust_5="63.51833" pt_clust_6="31.46535"></scales>
<clustering>
<clus scale="   31.465">  2  6  1 -1</clus>
<clus scale="   63.518">  1  5  2 -1</clus>
<clus scale="  119.395">  2  4  1 -1</clus>
<clus scale="   63.518">  1  3  2 -1</clus>
</clustering>
</event>
<event>
 6    0  0.3446372E+002  0.1649154E+03  0.7546771E-02  0.1183256E+00
         21   -1    0    0  506  501  0.00000000000E+00  0.00000000000E+00  0.75568437696E+03  0.75568437696E+03  0.00000000000E+00 0. -1.
         21   -1    0    0  505  502 -0.00000000000E+00 -0.00000000000E+00 -0.91706266962E+03  0.91706266962E+03  0.00000000000E+00 0.  1.
         21    1    1    2  503  504 -0.46384946224E+02 -0.86634573560E+02  0.30692353462E+03  0.32227188626E+03  0.00000000000E+00 0. -1.
         21    1    1    2  504  501 -0.21862561934E+02 -0.47752346872E+02  0.41151905439E+03  0.41485683117E+03  0.00000000000E+00 0. -1.
         21    1    1    2  505  503  0.12408875696E+03  0.10521256717E+03 -0.85086678596E+03  0.86628055002E+03  0.00000000000E+00 0.  1.
         21    1    1    2  506  502 -0.55841248800E+02  0.29174353267E+02 -0.28954095707E+02  0.69337779127E+02  0.00000000000E+00 0.  1.
<scales pt_clust_3="48.93899" pt_clust_4="48.93899" pt_clust_5="150.71717" pt_clust_6="63.00308"></scales>
<clustering>
<clus scale="   48.939">  3  4 -1 -1</clus>
<clus scale="   63.003">  2  6  1 -1</clus>
<clus scale="  150.717">  2  5  1 -1</clus>
<clus scale="  164.915">  1  3  2 -1</clus>
</clustering>
</event>
<event>
 6    0  0.3446372E+002  0.9210392E+02  0.7546771E-02  0.1297835E+00
         21   -1    0    0  506  501  0.00000000000E+00  0.00000000000E+00  0.10896855543E+04  0.10896855543E+04  0.00000000000E+00 0. -1.
         21   -1    0    0  505  502 -0.00000000000E+00 -0.00000000000E+00 -0.54172589966E+03  0.54172589966E+03  0.00000000000E+00 0. -1.
         21    1    1    2  503  502 -0.23359283978E+02 -0.53585242616E+02 -0.72668830989E+02  0.93261961010E+02  0.00000000000E+00 0. -1.
         21    1    1    2  504  501  0.84528112897E+02 -0.36402147135E+02  0.10480824566E+04  0.10521154661E+04  0.00000000000E+00 0. -1.
         21    1    1    2  505  504 -0.11455014004E+03 -0.95523751966E+01 -0.25723213376E+03  0.28174696644E+03  0.00000000000E+00 0. -1.
         21    1    1    2  506  503  0.53381311126E+02  0.99539764947E+02 -0.17022183722E+03  0.20428706041E+03  0.00000000000E+00 0. -1.
<scales pt_clust_3="58.45541" pt_clust_4="14000.00000" pt_clust_5="92.10392" pt_clust_6="89.18962"></scales>
<clustering>
<clus scale="   58.455">  2  3  1 -1</clus>
<clus scale="   89.190">  2  6  1 -1</clus>
<clus scale="   92.104">  2  5  1 -1</clus>
<clus scale="   92.104">  1  3  2 -1</clus>
</clustering>
</event>
<event>
 6    0  0.3446372E+002  0.1242756E+03  0.7546771E-02  0.1236206E+00
         21   -1    0    0  505  501  0.00000000000E+00  0.00000000000E+00  0.17408392150E+03  0.17408392150E+03  0.00000000000E+00 0. -1.
         21   -1    0    0  504  502 -0.00000000000E+00 -0.00000000000E+00 -0.38370304009E+03  0.38370304009E+03  0.00000000000E+00 0.  1.
         21    1    1    2  503  501 -0.44113870234E+02  0.13707986776E+02  0.72636286650E+01  0.46762193595E+02  0.00000000000E+00 0. -1.
         21    1    1    2  504  503 -0.62935082957E+02  0.66187864757E+02  0.10688831537E+03  0.14059434580E+03  0.00000000000E+00 0. -1.
         21    1    1    2  505  506  0.65853693352E+02 -0.99850900224E+02 -0.28953698726E+03  0.31327077456E+03  0.00000000000E+00 0.  1.
         21    1    1    2  506  502  0.41195259838E+02  0.19955048692E+02 -0.34234075367E+02  0.57159647635E+02  0.00000000000E+00 0.  1.
<scales pt_clust_3="44.27977" pt_clust_4="14000.00000" pt_clust_5="124.27561" pt_clust_6="45.77394"></scales>
<clustering>
<clus scale="   45.774">  2  6  1 -1</clus>
<clus scale="   44.280">  1  3  2 -1</clus>
<clus scale="  124.276">  2  5  1 -1</clus>
<clus scale="   44.280">  1  3  2 -1</clus>
</clustering>
</event>
<event>
 6    0  0.3446372E+002  0.1107791E+03  0.7546771E-02  0.1259134E+00
         21   -1    0    0  504  501  0.00000000000E+00  0.00000000000E+00  0.13027628677E+04  0.13027628677E+04  0.00000000000E+00 0. -1.
         21   -1    0    0  506  502 -0.00000000000E+00 -0.00000000000E+00 -0.48106444193E+02  0.48106444193E+02  0.00000000000E+00 0. -1.
         21    1    1    2  503  501 -0.38367669745E+02 -0.16197686471E+03  0.50736800711E+03  0.53397647646E+03  0.00000000000E+00 0. -1.
         21    1    1    2  504  505  0.42253111109E+02  0.65795077798E+02  0.56916905885E+03  0.57451521757E+03  0.00000000000E+00 0. -1.
         21    1    1    2  505  502 -0.53391532664E+02  0.18068546258E+02  0.21174044491E+02  0.60211861657E+02  0.00000000000E+00 0. -1.
         21    1    1    2  506  503  0.49506091300E+02  0.78113240651E+02  0.15694531302E+03  0.18216575616E+03  0.00000000000E+00 0. -1.
<scales pt_clust_3="110.77906" pt_clust_4="77.08781" pt_clust_5="56.36602" pt_clust_6="14000.00000"></scales>
<clustering>
<clus scale="   56.366">  2  5  1 -1</clus>
<clus scale="   77.088">  1  4  2 -1</clus>
<clus scale="  110.779">  1  3  2 -1</clus>
<clus scale="   77.088">  1  3  2 -1</clus>
</clustering>
</event>
<event>
 6    0  0.3446372E+002  0.1211693E+03  0.7546771E-02  0.1241180E+00
         21   -1    0    0  504  501  0.00000000000E+00  0.00000000000E+00  0.42559775470E+03  0.42559775470E+03  0.00000000000E+00 0. -1.
         21   -1    0    0  506  502 -0.00000000000E+00 -0.00000000000E+00 -0.29458306969E+03  0.29458306969E+03  0.00000000000E+00 0. -1.
         21    1    1    2  503  501  0.25820581580E+02  0.25228614776E+02  0.34760251162E+03  0.34947201823E+03  0.00000000000E+00 0. -1.
         21    1    1    2  504  505  0.12028937106E+03 -0.46468947966E+02 -0.13892611952E+03  0.18955042232E+03  0.00000000000E+00 0. -1.
         21    1    1    2  505  502 -0.19203049610E+02  0.25628904899E+02  0.53561707322E+00  0.32029435935E+02  0.00000000000E+00 0. -1.
         21    1    1    2  506  503 -0.12690690303E+03 -0.43885717095E+01 -0.78197324170E+02  0.14912894791E+03  0.00000000000E+00 0. -1.
<scales pt_clust_3="36.11382" pt_clust_4="14000.00000" pt_clust_5="32.02496" pt_clust_6="121.16929"></scales>
<clustering>
<clus scale="   32.025">  2  5  1 -1</clus>
<clus scale="   36.114">  1  3  2 -1</clus>
<clus scale="  121.169">  1  6  2 -1</clus>
<clus scale="   36.114">  1  3  2 -1</clus>
</clustering>
</event>
<event>
 6    0  0.3446372E+002  0.1959040E+03  0.7546771E-02  0.1153242E+00
         21   -1    0    0  502  501  0.00000000000E+00  0.00000000000E+00  0.74925904679E+03  0.74925904679E+03  0.00000000000E+00 0.  1.
         21   -1    0    0  503  502 -0.00000000000E+00 -0.00000000000E+00 -0.85378354742E+02  0.85378354742E+02  0.00000000000E+00 0.  1.
         21    1    1    2  503  506  0.10876428121E+03 -0.17494220487E+03  0.12139607228E+03  0.23910552121E+03  0.00000000000E+00 0.  1.
         21    1    1    2  504  505 -0.21478463247E+02  0.10318625606E+03  0.21515871150E+03  0.23958714272E+03  0.00000000000E+00 0.  1.
         21    1    1    2  505  501 -0.53425802978E+02  0.17995870223E+02  0.24792258232E+03  0.25425140037E+03  0.00000000000E+00 0. -1.
         21    1    1    2  506  504 -0.33860014980E+02  0.53760078581E+02  0.79403325956E+02  0.10169333723E+03  0.00000000000E+00 0.  1.
<scales pt_clust_3="190.70215" pt_clust_4="34.81794" pt_clust_5="56.37524" pt_clust_6="34.81794"></scales>
<clustering>
<clus scale="   34.818">  4  6 -1 -1</clus>
<clus scale="   56.375">  1  5  2 -1</clus>
<clus scale="  190.702">  2  3  1 -1</clus>
<clus scale="   56.375">  1  3  2 -1</clus>
</clustering>
</event>
<event>
 6    0  0.3446372E+002  0.6146192E+02  0.7546771E-02  0.1391797E+00
         21   -1    0    0  505  501  0.00000000000E+00  0.00000000000E+00  0.77045942892E+03  0.77045942892E+03  0.00000000000E+00 0.  1.
         21   -1    0    0  503  502 -0.00000000000E+00 -0.00000000000E+00 -0.19585106834E+03  0.19585106834E+03  0.00000000000E+00 0. -1.
         21    1    1    2  503  506  0.38400788966E+02  0.38473238815E+02 -0.21099856909E+02  0.58309644654E+02  0.00000000000E+00 0.  1.
         21    1    1    2  504  502  0.62421952349E+01 -0.66336432323E+02 -0.14040336543E+03  0.15541104297E+03  0.00000000000E+00 0. -1.
         21    1    1    2  505  504  0.18500970290E+02  0.60693633890E+02  0.54456709273E+03  0.54825114827E+03  0.00000000000E+00 0.  1.
         21    1    1    2  506  501 -0.63143954491E+02 -0.32830440382E+02  0.19154449019E+03  0.20433866136E+03  0.00000000000E+00 0.  1.
<scales pt_clust_3="54.35817" pt_clust_4="52.05568" pt_clust_5="61.46192" pt_clust_6="14000.00000"></scales>
<clustering>
<clus scale="   54.358">  2  3  1 -1</clus>
<clus scale="   52.056">  2  4  1 -1</clus>
<clus scale="   61.462">  1  5  2 -1</clus>
<clus scale="   61.462">  1  3  2 -1</clus>
</clustering>
</event>
<event>
 6    0  0.3446372E+002  0.1201744E+03  0.7546771E-02  0.1242810E+00
         21   -1    0    0  505  501  0.00000000000E+00  0.00000000000E+00  0.32826106017E+03  0.32826106017E+03  0.00000000000E+00 0.  1.
         21   -1    0    0  506  502 -0.00000000000E+00 -0.00000000000E+00 -0.17971696709E+03  0.17971696709E+03  0.00000000000E+00 0. -1.
         21    1    1    2  503  501 -0.53483875994E+02 -0.11024779473E+03  0.26074144524E+03  0.28809929278E+03  0.00000000000E+00 0.  1.
         21    1    1    2  504  503  0.60739227165E+02  0.85166059194E+02 -0.69799270643E+02  0.12575551494E+03  0.00000000000E+00 0. -1.
         21    1    1    2  505  502 -0.39141488305E+02  0.32600437439E+02 -0.21680411445E+02  0.55361402334E+02  0.00000000000E+00 0. -1.
         21    1    1    2  506  504  0.31886137134E+02 -0.75187018980E+01 -0.20717670076E+02  0.38761817204E+02  0.00000000000E+00 0. -1.
<scales pt_clust_3="14000.00000" pt_clust_4="120.17436" pt_clust_5="43.57308" pt_clust_6="32.76060"></scales>
<clustering>
<clus scale="   32.761">  2  6  1 -1</clus>
<clus scale="   43.573">  2  5  1 -1</clus>
<clus scale="  120.174">  2  4  1 -1</clus>
<clus scale="  120.174">  1  3  2 -1</clus>
</clustering>
</event>
<event>
 6    0  0.3446372E+002  0.2427215E+03  0.7546771E-02  0.1117993E+00
         21   -1    0    0  506  501  0.00000000000E+00  0.00000000000E+00  0.43670570992E+03  0.43670570992E+03  0.00000000000E+00 0.  1.
         21   -1    0    0  505  502 -0.00000000000E+00 -0.00000000000E+00 -0.23724766672E+03  0.23724766672E+03  0.00000000000E+00 0.  1.
         21    1    1    2  503  502  0.19088311857E+03  0.85126194028E+02  0.59491789454E+02  0.21730648145E+03  0.00000000000E+00 0.  1.
         21    1    1    2  504  503  0.78259044818E+02  0.96366629564E+01  0.51486210852E+02  0.94170978952E+02  0.00000000000E+00 0.  1.
         21    1    1    2  505  501 -0.21078751764E+03 -0.42577694764E+02 -0.33396698019E+02  0.21762255656E+03  0.00000000000E+00 0.  1.
         21    1    1    2  506  504 -0.58354645750E+02 -0.52185162220E+02  0.12187674091E+03  0.14485335969E+03  0.00000000000E+00 0.  1.
<scales pt_clust_3="35.20173" pt_clust_4="35.20173" pt_clust_5="235.85826" pt_clust_6="78.28509"></scales>
<clustering>
<clus scale="   35.202">  3  4 -1 -1</clus>
<clus scale="   78.285">  1  6  2 -1</clus>
<clus scale="  235.858">  2  5  1 -1</clus>
<clus scale="   78.285">  1  3  2 -1</clus>
</clustering>
</event>
<event>
 6    0  0.3446372E+002  0.1657859E+03  0.7546771E-02  0.1182315E+00
         21   -1    0    0  505  501  0.00000000000E+00  0.00000000000E+00  0.12094162557E+04  0.12094162557E+04  0.00000000000E+00 0. -1.
         21   -1    0    0  506  502 -0.00000000000E+00 -0.00000000000E+00 -0.15246188713E+04  0.15246188713E+04  0.00000000000E+00 0.  1.
         21    1    1    2  503  504 -0.84002086687E+02 -0.20054439324E+03 -0.28407221951E+03  0.35773094656E+03  0.00000000000E+00 0. -1.
         21    1    1    2  504  502 -0.31941937857E+01  0.49403294922E+02 -0.14528629668E+03  0.15348940168E+03  0.00000000000E+00 0.  1.
         21    1    1    2  505  503 -0.20226436217E+02  0.73169159140E+02  0.11630651938E+04  0.11655399949E+04  0.00000000000E+00 0. -1.
         21    1    1    2  506  501  0.10742271669E+03  0.77971939181E+02 -0.10489092932E+04  0.10572747839E+04  0.00000000000E+00 0.  1.
<scales pt_clust_3="14000.00000" pt_clust_4="49.50645" pt_clust_5="75.95695" pt_clust_6="165.78588"></scales>
<clustering>
<clus scale="   49.506">  2  4  1 -1</clus>
<clus scale="   75.957">  1  5  2 -1</clus>
<clus scale="  165.786">  2  6  1 -1</clus>
<clus scale="   75.957">  1  3  2 -1</clus>
</clustering>
</event>
<event>
 6    0  0.3446372E+002  0.1187724E+03  0.7546771E-02  0.1245136E+00
         21   -1    0    0  503  501  0.00000000000E+00  0.00000000000E+00  0.34369259796E+03  0.34369259796E+03  0.00000000000E+00 0.  1.
         21   -1    0    0  506  502 -0.00000000000E+00 -0.00000000000E+00 -0.66479082016E+02  0.66479082016E+02  0.00000000000E+00 0.  1.
         21    1    1    2  503  504 -0.34560984841E+02  0.22224811503E+02  0.11077014102E+03  0.11814579155E+03  0.00000000000E+00 0.  1.
         21    1    1    2  504  502 -0.38011003085E+02 -0.10233184620E+03  0.12272759786E+03  0.16425196005E+03  0.00000000000E+00 0.  1.
         21    1    1    2  505  501  0.42334002395E+01  0.37117442416E+02  0.24834963825E+02  0.44859799791E+02  0.00000000000E+00 0.  1.
         21    1    1    2  506  505  0.68338587687E+02  0.42989592281E+02  0.18880813241E+02  0.82914128593E+02  0.00000000000E+00 0.  1.
<scales pt_clust_3="41.09019" pt_clust_4="106.65644" pt_clust_5="35.55021" pt_clust_6="35.55021"></scales>
<clustering>
<clus scale="   35.550">  5  6 -1 -1</clus>
<clus scale="   41.090">  1  3  2 -1</clus>
<clus scale="  106.656">  1  4  2 -1</clus>
<clus scale="   41.090">  1  3  2 -1</clus>
</clustering>
</event>
<event>
 6    0  0.3446372E+002  0.1439317E+03  0.7546771E-02  0.1208134E+00
         21   -1    0    0  503  501  0.00000000000E+00  0.00000000000E+00  0.12980174214E+04  0.12980174214E+04  0.00000000000E+00 0.  1.
         21   -1    0    0  506  502 -0.00000000000E+00 -0.00000000000E+00 -0.71487367044E+03  0.71487367044E+03  0.00000000000E+00 0. -1.
         21    1    1    2  503  504  0.10999229306E+03  0.97254190983E+02  0.11822712221E+04  0.11913529808E+04  0.00000000000E+00 0.  1.
         21    1    1    2  504  505 -0.48389554202E+02 -0.12222577552E+03  0.67978108804E+02  0.14799227154E+03  0.00000000000E+00 0. -1.
         21    1    1    2  505  502 -0.40144291180E+02 -0.15416463578E+02 -0.42404850937E+03  0.42622338012E+03  0.00000000000E+00 0. -1.
         21    1    1    2  506  501 -0.21458447677E+02  0.40388048116E+02 -0.24305707054E+03  0.24732245944E+03  0.00000000000E+00 0. -1.
<scales pt_clust_3="14000.00000" pt_clust_4="143.93173" pt_clust_5="43.00269" pt_clust_6="61.80707"></scales>
<clustering>
<clus scale="   43.003">  2  5  1 -1</clus>
<clus scale="   61.807">  2  6  1 -1</clus>
<clus scale="  143.932">  2  4  1 -1</clus>
<clus scale="  143.932">  1  3  2 -1</clus>
</clustering>
</event>
<event>
 6    0  0.3446372E+002  0.2882067E+03  0.7546771E-02  0.1091289E+00
         21   -1    0    0  505  501  0.00000000000E+00  0.00000000000E+00  0.12836118637E+03  0.12836118637E+03  0.00000000000E+00 0.  1.
         21   -1    0    0  503  502 -0.00000000000E+00 -0.00000000000E+00 -0.87419341517E+03  0.87419341517E+03  0.00000000000E+00 0.  1.
         21    1    1    2  503  504  0.16060447524E+03  0.80054113846E+01 -0.91553769856E+02  0.18504047356E+03  0.00000000000E+00 0.  1.
         21    1    1    2  504  501  0.95148504792E+02 -0.89232122399E+02 -0.39588816849E+02  0.13631905242E+03  0.00000000000E+00 0.  1.
         21    1    1    2  505  506 -0.24741012919E+03  0.43628195399E+02 -0.48934283994E+03  0.55006509293E+03  0.00000000000E+00 0.  1.
         21    1    1    2  506  502 -0.83428508460E+01  0.37598515615E+02 -0.12534680216E+03  0.13112998264E+03  0.00000000000E+00 0.  1.
<scales pt_clust_3="105.62696" pt_clust_4="105.62696" pt_clust_5="262.67262" pt_clust_6="38.51300"></scales>
<clustering>
<clus scale="   38.513">  2  6  1 -1</clus>
<clus scale="  105.627">  3  4 -1 -1</clus>
<clus scale="  262.673">  2  5  1 -1</clus>
<clus scale="  288.207">  1  3  2 -1</clus>
</clustering>
</event>
<event>
 6    0  0.3446372E+002  0.1291470E+03  0.7546771E-02  0.1228727E+00
         21   -1    0    0  503  501  0.00000000000E+00  0.00000000000E+00  0.78217826115E+03  0.78217826115E+03  0.00000000000E+00 0. -1.
         21   -1    0    0  504  502 -0.00000000000E+00 -0.00000000000E+00 -0.76509457926E+03  0.76509457926E+03  0.00000000000E+00 0. -1.
         21    1    1    2  503  505 -0.24607168491E+02  0.76870657732E+02  0.28268647604E+03  0.29398342555E+03  0.00000000000E+00 0. -1.
         21    1    1    2  504  506 -0.11887510806E+03 -0.33932317893E+02 -0.24807042868E+03  0.27716715371E+03  0.00000000000E+00 0. -1.
         21    1    1    2  505  502  0.67944353200E+02 -0.91283514041E+02 -0.48600146745E+03  0.49914581180E+03  0.00000000000E+00 0. -1.
         21    1    1    2  506  501  0.75537923349E+02  0.48345174201E+02  0.46846910197E+03  0.47697644935E+03  0.00000000000E+00 0. -1.
<scales pt_clust_3="80.71314" pt_clust_4="129.14697" pt_clust_5="112.77855" pt_clust_6="14000.00000"></scales>
<clustering>
<clus scale="   80.713">  1  3  2 -1</clus>
<clus scale="  112.779">  2  5  1 -1</clus>
<clus scale="  129.147">  2  4  1 -1</clus>
<clus scale="   80.713">  1  3  2 -1</clus>
</clustering>
</event>
<event>
 6    0  0.3446372E+002  0.1728913E+03  0.7546771E-02  0.1174866E+00
         21   -1    0    0  506  501  0.00000000000E+00  0.00000000000E+00  0.28515771158E+03  0.28515771158E+03  0.00000000000E+00 0.  1.
         21   -1    0    0  504  502 -0.00000000000E+00 -0.00000000000E+00 -0.19735644631E+03  0.19735644631E+03  0.00000000000E+00 0.  1.
         21    1    1    2  503  501 -0.31229076708E+02  0.34905171370E+02 -0.66406860723E+02  0.81261906029E+02  0.00000000000E+00 0.  1.
         21    1    1    2  504  503 -0.40896081753E+02  0.10493929443E+03 -0.36430265308E+02  0.11837191072E+03  0.00000000000E+00 0.  1.
         21    1    1    2  505  502  0.10959305341E+03 -0.13023046475E+03  0.15180445424E+03  0.22806841875E+03  0.00000000000E+00 0.  1.
         21    1    1    2  506  505 -0.37467894948E+02 -0.96140010444E+01  0.38833937067E+02  0.54811922389E+02  0.00000000000E+00 0.  1.
<scales pt_clust_3="43.42465" pt_clust_4="43.42465" pt_clust_5="159.28501" pt_clust_6="38.68168"></scales>
<clustering>
<clus scale="   38.682">  1  6  2 -1</clus>
<clus scale="   43.425">  3  4 -1 -1</clus>
<clus scale="  159.285">  1  5  2 -1</clus>
<clus scale="   38.682">  1  3  2 -1</clus>
</clustering>
</event>
<event>
 6    0  0.3446372E+002  0.8334616E+02  0.7546771E-02  0.1319815E+00
         21   -1    0    0  503  501  0.00000000000E+00  0.00000000000E+00  0.22107323595E+04  0.22107323595E+04  0.00000000000E+00 0.  1.
         21   -1    0    0  505  502 -0.00000000000E+00 -0.00000000000E+00 -0.66763676829E+02  0.66763676829E+02  0.00000000000E+00 0.  1.
         21    1    1    2  503  504 -0.75260435155E+02  0.83446686118E+01  0.97054965026E+03  0.97349904480E+03  0.00000000000E+00 0.  1.
         21    1    1    2  504  506  0.15925308240E+03 -0.34880695616E+01  0.11862184533E+04  0.11968658780E+04  0.00000000000E+00 0.  1.
         21    1    1    2  505  501 -0.31204774631E+02  0.26609604944E+02 -0.19317264976E+02  0.45331730181E+02  0.00000000000E+00 0.  1.
         21    1    1    2  506  502 -0.52787872615E+02 -0.31466203994E+02  0.65178440251E+01  0.61799383329E+02  0.00000000000E+00 0.  1.
<scales pt_clust_3="77.18156" pt_clust_4="14000.00000" pt_clust_5="41.00987" pt_clust_6="83.34616"></scales>
<clustering>
<clus scale="   41.010">  2  5  1 -1</clus>
<clus scale="   77.182">  1  3  2 -1</clus>
<clus scale="   83.346">  2  6  1 -1</clus>
<clus scale="   77.182">  1  3  2 -1</clus>
</clustering>
</event>
<event>
 6    0  0.3446372E+002  0.1061517E+03  0.7546771E-02  0.1267867E+00
         21   -1    0    0  506  501  0.00000000000E+00  0.00000000000E+00  0.49384379058E+03  0.49384379058E+03  0.00000000000E+00 0.  1.
         21   -1    0    0  504  502 -0.00000000000E+00 -0.00000000000E+00 -0.42723462225E+03  0.42723462225E+03  0.00000000000E+00 0. -1.
         21    1    1    2  503  501  0.40322451181E+02 -0.12241603935E+03 -0.35781845230E+03  0.38032306211E+03  0.00000000000E+00 0. -1.
         21    1    1    2  504  503  0.20200740100E+02  0.29120468568E+02 -0.92443410411E+01  0.36626894920E+02  0.00000000000E+00 0. -1.
         21    1    1    2  505  502 -0.94776296192E+02  0.33457152800E+02  0.46285316200E+02  0.11065377485E+03  0.00000000000E+00 0.  1.
         21    1    1    2  506  505  0.34253104911E+02  0.59838417984E+02  0.38738664547E+03  0.39347468095E+03  0.00000000000E+00 0.  1.
<scales pt_clust_3="14000.00000" pt_clust_4="35.44110" pt_clust_5="106.15173" pt_clust_6="69.21446"></scales>
<clustering>
<clus scale="   35.441">  2  4  1 -1</clus>
<clus scale="   69.214">  1  6  2 -1</clus>
<clus scale="  106.152">  1  5  2 -1</clus>
<clus scale="   69.214">  1  3  2 -1</clus>
</clustering>
</event>
<event>
 6    0  0.3446372E+002  0.2220214E+03  0.7546771E-02  0.1132385E+00
         21   -1    0    0  506  501  0.00000000000E+00  0.00000000000E+00  0.20312539193E+03  0.20312539193E+03  0.00000000000E+00 0. -1.
         21   -1    0    0  504  502 -0.00000000000E+00 -0.00000000000E+00 -0.49769760468E+03  0.49769760468E+03  0.00000000000E+00 0. -1.
         21    1    1    2  503  502 -0.19214068285E+03 -0.75677953624E+01 -0.57781228971E+02  0.20078342550E+03  0.00000000000E+00 0. -1.
         21    1    1    2  504  505  0.19730441634E+02  0.23447660295E+02 -0.65524008696E+02  0.72335875027E+02  0.00000000000E+00 0.  1.
         21    1    1    2  505  501  0.23958474421E+03  0.76706810299E+02 -0.18532005596E+03  0.31245528888E+03  0.00000000000E+00 0. -1.
         21    1    1    2  506  503 -0.67174502996E+02 -0.92586675232E+02  0.14053080884E+02  0.11524840721E+03  0.00000000000E+00 0. -1.
<scales pt_clust_3="14000.00000" pt_clust_4="30.64446" pt_clust_5="222.02137" pt_clust_6="110.78177"></scales>
<clustering>
<clus scale="   30.644">  2  4  1 -1</clus>
<clus scale="  110.782">  1  6  2 -1</clus>
<clus scale="  222.021">  1  5  2 -1</clus>
<clus scale="  110.782">  1  3  2 -1</clus>
</clustering>
</event>
<event>
 6    0  0.3446372E+002  0.8908946E+02  0.7546771E-02  0.1305072E+00
         21   -1    0    0  505  501  0.00000000000E+00  0.00000000000E+00  0.24956924109E+03  0.24956924109E+03  0.00000000000E+00 0.  1.
         21   -1    0    0  506  502 -0.00000000000E+00 -0.00000000000E+00 -0.25860823703E+03  0.25860823703E+03  0.00000000000E+00 0.  1.
         21    1    1    2  503  502 -0.50918494742E+02  0.91279654340E+02 -0.17528582071E+03  0.20408279531E+03  0.00000000000E+00 0.  1.
         21    1    1    2  504  503  0.35216680613E+02 -0.58539802539E+02 -0.40721529564E+02  0.79532169873E+02  0.00000000000E+00 0.  1.
         21    1    1    2  505  504  0.34565286077E+02  0.12704651602E+02  0.71331271339E+02  0.80276506182E+02  0.00000000000E+00 0.  1.
         21    1    1    2  506  501 -0.18863471947E+02 -0.45444503403E+02  0.13563708298E+03  0.14428600675E+03  0.00000000000E+00 0.  1.
<scales pt_clust_3="89.08946" pt_clust_4="14000.00000" pt_clust_5="36.82618" pt_clust_6="36.33783"></scales>
<clustering>
<clus scale="   36.826">  1  5  2 -1</clus>
<clus scale="   36.338">  1  6  2 -1</clus>
<clus scale="   89.089">  2  3  1 -1</clus>
<clus scale="   36.826">  1  3  2 -1</clus>
</clustering>
</event>
<event>
 6    0  0.3446372E+002  0.1582677E+03  0.7546771E-02  0.1190666E+00
         21   -1    0    0  506  501  0.00000000000E+00  0.00000000000E+00  0.11231998541E+04  0.11231998541E+04  0.00000000000E+00 0.  1.
         21   -1    0    0  504  502 -0.00000000000E+00 -0.00000000000E+00 -0.21953997313E+03  0.21953997313E+03  0.00000000000E+00 0.  1.
         21    1    1    2  503  505  0.12634304371E+03  0.17853710788E+02  0.12428027454E+03  0.17812048260E+03  0.00000000000E+00 0.  1.
         21    1    1    2  504  501 -0.25038026560E+02  0.26801944642E+02  0.67874168416E+01  0.37300349033E+02  0.00000000000E+00 0.  1.
         21    1    1    2  505  502 -0.15083762537E+03 -0.15839177564E+02 -0.14388070150E+03  0.20905627242E+03  0.00000000000E+00 0.  1.
         21    1    1    2  506  503  0.49532608218E+02 -0.28816477866E+02  0.91647289111E+03  0.91826272319E+03  0.00000000000E+00 0.  1.
<scales pt_clust_3="158.26771" pt_clust_4="36.67761" pt_clust_5="14000.00000" pt_clust_6="57.15122"></scales>
<clustering>
<clus scale="   36.678">  2  4  1 -1</clus>
<clus scale="   57.151">  1  6  2 -1</clus>
<clus scale="  158.268">  1  3  2 -1</clus>
<clus scale="   57.151">  1  3  2 -1</clus>
</clustering>
</event>
<event>
 6    0  0.3446372E+002  0.1145528E+03  0.7546771E-02  0.1252364E+00
         21   -1    0    0  503  501  0.00000000000E+00  0.00000000000E+00  0.30474492295E+03  0.30474492295E+03  0.00000000000E+00 0.  1.
         21   -1    0    0  505  502 -0.00000000000E+00 -0.00000000000E+00 -0.17652952467E+03  0.17652952467E+03  0.00000000000E+00 0.  1.
         21    1    1    2  503  506 -0.13331731776E+03  0.15706125231E+02 -0.53845083245E+02  0.14463568914E+03  0.00000000000E+00 0.  1.
         21    1    1    2  504  501  0.94069927723E+02 -0.63689070037E+02  0.21554480368E+03  0.24364936145E+03  0.00000000000E+00 0.  1.
         21    1    1    2  505  504 -0.23307622547E+01  0.44730651072E+02 -0.20896331919E+02  0.49425907030E+02  0.00000000000E+00 0.  1.
         21    1    1    2  506  502  0.41578152290E+02  0.32522937334E+01 -0.12587990239E+02  0.43563489996E+02  0.00000000000E+00 0.  1.
<scales pt_clust_3="14000.00000" pt_clust_4="114.55280" pt_clust_5="46.11769" pt_clust_6="41.70516"></scales>
<clustering>
<clus scale="   41.705">  2  6  1 -1</clus>
<clus scale="   46.118">  2  5  1 -1</clus>
<clus scale="  114.553">  1  4  2 -1</clus>
<clus scale="  114.553">  1  3  2 -1</clus>
</clustering>
</event>
<event>
 6    0  0.3446372E+002  0.9743172E+02  0.7546771E-02  0.1285791E+00
         21   -1    0    0  504  501  0.00000000000E+00  0.00000000000E+00  0.19094344533E+04  0.19094344533E+04  0.00000000000E+00 0. -1.
         21   -1    0    0  506  502 -0.00000000000E+00 -0.00000000000E+00 -0.65167551342E+02  0.65167551342E+02  0.00000000000E+00 0.  1.
         21    1    1    2  503  502 -0.10066368367E+03  0.52592898733E+02  0.71734016338E+02  0.13433152760E+03  0.00000000000E+00 0.  1.
         21    1    1    2  504  503  0.63485606930E+02  0.22920246521E+02  0.16678276343E+04  0.16691928521E+04  0.00000000000E+00 0. -1.
         21    1    1    2  505  501  0.65877523734E+02 -0.44392769446E+02  0.10112109510E+03  0.12859254250E+03  0.00000000000E+00 0. -1.
         21    1    1    2  506  505 -0.28699446993E+02 -0.31120375808E+02  0.35841562151E+01  0.42485082369E+02  0.00000000000E+00 0. -1.
<scales pt_clust_3="14000.00000" pt_clust_4="66.93616" pt_clust_5="97.43172" pt_clust_6="42.33363"></scales>
<clustering>
<clus scale="   42.334">  2  6  1 -1</clus>
<clus scale="   66.936">  1  4  2 -1</clus>
<clus scale="   97.432">  1  5  2 -1</clus>
<clus scale="   66.936">  1  3  2 -1</clus>
</clustering>
</event>
<event>
 6    0  0.3446372E+002  0.8258471E+02  0.7546771E-02  0.1321872E+00
         21   -1    0    0  504  501  0.00000000000E+00  0.00000000000E+00  0.12791926842E+03  0.12791926842E+03  0.00000000000E+00 0. -1.
         21   -1    0    0  505  502 -0.00000000000E+00 -0.00000000000E+00 -0.54953032664E+03  0.54953032664E+03  0.00000000000E+00 0.  1.
         21    1    1    2  503  502 -0.50085655590E+02 -0.29448798680E+02 -0.15546725290E+03  0.16596948926E+03  0.00000000000E+00 0.  1.
         21    1    1    2  504  503  0.51031359172E+02  0.11235927428E+03 -0.31352752260E+02  0.12732557170E+03  0.00000000000E+00 0.  1.
         21    1    1    2  505  506  0.43463473939E+00 -0.41063809895E+02 -0.30210398738E+03  0.30488234547E+03  0.00000000000E+00 0.  1.
         21    1    1    2  506  501 -0.13803383219E+01 -0.41846665703E+02  0.67312934320E+02  0.79272188636E+02  0.00000000000E+00 0. -1.
<scales pt_clust_3="82.58471" pt_clust_4="14000.00000" pt_clust_5="41.06611" pt_clust_6="42.86656"></scales>
<clustering>
<clus scale="   41.066">  2  5  1 -1</clus>
<clus scale="   42.867">  1  6  2 -1</clus>
<clus scale="   82.585">  2  3  1 -1</clus>
<clus scale="   42.867">  1  3  2 -1</clus>
</clustering>
</event>
<event>
 6    0  0.3446372E+002  0.2256353E+03  0.7546771E-02  0.1129750E+00
         21   -1    0    0  506  501  0.00000000000E+00  0.00000000000E+00  0.17607663382E+03  0.17607663382E+03  0.00000000000E+00 0.  1.
         21   -1    0    0  505  502 -0.00000000000E+00 -0.00000000000E+00 -0.44586728214E+03  0.44586728214E+03  0.00000000000E+00 0.  1.
         21    1    1    2  503  502 -0.17916649988E+03 -0.21666156761E+02  0.32132753511E+02  0.18331004030E+03  0.00000000000E+00 0.  1.
         21    1    1    2  504  501  0.15102434424E+03 -0.42792273373E+02 -0.22714239770E+03  0.27610360383E+03  0.00000000000E+00 0.  1.
         21    1    1    2  505  504  0.59602970275E+02  0.33149722812E+02 -0.92342108159E+02  0.11479757457E+03  0.00000000000E+00 0.  1.
         21    1    1    2  506  503 -0.31460814638E+02  0.31308707322E+02  0.17561104028E+02  0.47732697247E+02  0.00000000000E+00 0. -1.
<scales pt_clust_3="39.84204" pt_clust_4="225.24072" pt_clust_5="52.22137" pt_clust_6="39.84204"></scales>
<clustering>
<clus scale="   39.842">  3  6 -1 -1</clus>
<clus scale="   52.221">  4  5 -1 -1</clus>
<clus scale="  225.241">  2  4  1 -1</clus>
<clus scale="  225.635">  1  3  2 -1</clus>
</clustering>
</event>
<event>
 6    0  0.3446372E+002  0.1180075E+03  0.7546771E-02  0.1246421E+00
         21   -1    0    0  504  501  0.00000000000E+00  0.00000000000E+00  0.13098425218E+03  0.13098425218E+03  0.00000000000E+00 0.  1.
         21   -1    0    0  503  502 -0.00000000000E+00 -0.00000000000E+00 -0.46991119568E+03  0.46991119568E+03  0.00000000000E+00 0.  1.
         21    1    1    2  503  505 -0.11168439286E+03 -0.22407303200E+02 -0.40140389481E+03  0.41725361306E+03  0.00000000000E+00 0.  1.
         21    1    1    2  504  506  0.55480294909E+02  0.13074588472E+02 -0.88378547203E+00  0.57006921190E+02  0.00000000000E+00 0.  1.
         21    1    1    2  505  501  0.43136335831E+02 -0.28202311249E+02  0.69390010229E+02  0.86435451918E+02  0.00000000000E+00 0.  1.
         21    1    1    2  506  502  0.13067762119E+02  0.37535025977E+02 -0.60292734399E+01  0.40199461689E+02  0.00000000000E+00 0. -1.
<scales pt_clust_3="108.55717" pt_clust_4="38.63872" pt_clust_5="51.53750" pt_clust_6="38.63872"></scales>
<clustering>
<clus scale="   38.639">  4  6 -1 -1</clus>
<clus scale="   51.537">  1  5  2 -1</clus>
<clus scale="  108.557">  2  3  1 -1</clus>
<clus scale="   51.537">  1  3  2 -1</clus>
</clustering>
</event>
<event>
 6    0  0.3446372E+002  0.1244812E+03  0.7546771E-02  0.1235882E+00
         21   -1    0    0  505  501  0.00000000000E+00  0.00000000000E+00  0.44608790181E+03  0.44608790181E+03  0.00000000000E+00 0. -1.
         21   -1    0    0  506  502 -0.00000000000E+00 -0.00000000000E+00 -0.92828754041E+02  0.92828754041E+02  0.00000000000E+00 0. -1.
         21    1    1    2  503  501  0.89885879022E+02  0.63919280520E+02  0.50940252781E+02  0.12149096684E+03  0.00000000000E+00 0. -1.
         21    1    1    2  504  502 -0.43291118144E+02 -0.13003283378E+03  0.19639644739E+03  0.23948741787E+03  0.00000000000E+00 0. -1.
         21    1    1    2  505  504 -0.33607989375E+02 -0.96750673683E+01  0.93784201447E+02  0.10009285848E+03  0.00000000000E+00 0. -1.
         21    1    1    2  506  503 -0.12986771504E+02  0.75788620632E+02  0.12138246145E+02  0.77845412652E+02  0.00000000000E+00 0. -1.
<scales pt_clust_3="124.48124" pt_clust_4="14000.00000" pt_clust_5="34.97290" pt_clust_6="76.52705"></scales>
<clustering>
<clus scale="   34.973">  1  5  2 -1</clus>
<clus scale="   76.527">  2  6  1 -1</clus>
<clus scale="  124.481">  2  3  1 -1</clus>
<clus scale="   34.973">  1  3  2 -1</clus>
</clustering>
</event>
<event>
 6    0  0.3446372E+002  0.2173349E+03  0.7546771E-02  0.1135886E+00
         21   -1    0    0  502  501  0.00000000000E+00  0.00000000000E+00  0.22038046366E+03  0.22038046366E+03  0.00000000000E+00 0. -1.
         21   -1    0    0  503  502 -0.00000000000E+00 -0.00000000000E+00 -0.86405043152E+03  0.86405043152E+03  0.00000000000E+00 0.  1.
         21    1    1    2  503  504  0.51804565966E+02  0.90534904180E+02 -0.27957864186E+03  0.29840324883E+03  0.00000000000E+00 0.  1.
         21    1    1    2  504  506  0.52867281795E+02  0.92199472785E+02 -0.47779746536E+03  0.48947534174E+03  0.00000000000E+00 0.  1.
         21    1    1    2  505  501 -0.42839193337E+02  0.27463936555E+02  0.27643347125E+01  0.50961807692E+02  0.00000000000E+00 0. -1.
         21    1    1    2  506  505 -0.61832654423E+02 -0.21019831352E+03  0.11094180464E+03  0.24559049692E+03  0.00000000000E+00 0. -1.
<scales pt_clust_3="52.30814" pt_clust_4="52.30814" pt_clust_5="50.88678" pt_clust_6="210.82786"></scales>
<clustering>
<clus scale="   50.887">  1  5  2 -1</clus>
<clus scale="   52.308">  3  4 -1 -1</clus>
<clus scale="  210.828">  1  6  2 -1</clus>
<clus scale="   50.887">  1  3  2 -1</clus>
</clustering>
</event>
<event>
 6    0  0.3446372E+002  0.1841152E+03  0.7546771E-02  0.1163879E+00
         21   -1    0    0  505  501  0.00000000000E+00  0.00000000000E+00  0.85044977126E+03  0.85044977126E+03  0.00000000000E+00 0. -1.
         21   -1    0    0  506  502 -0.00000000000E+00 -0.00000000000E+00 -0.81295545142E+02  0.81295545142E+02  0.00000000000E+00 0. -1.
         21    1    1    2  503  501  0.59752175620E+01 -0.46318314394E+02  0.26237874265E+03  0.26650270931E+03  0.00000000000E+00 0. -1.
         21    1    1    2  504  502 -0.11247031032E+03  0.76100231566E+02  0.19767878096E+02  0.13722822214E+03  0.00000000000E+00 0. -1.
         21    1    1    2  505  504 -0.26006593501E+02  0.35472722392E+02  0.49351188994E+02  0.66107463985E+02  0.00000000000E+00 0. -1.
         21    1    1    2  506  503  0.13250168625E+03 -0.65254639564E+02  0.43765641637E+03  0.46190692097E+03  0.00000000000E+00 0. -1.
<scales pt_clust_3="46.70214" pt_clust_4="40.01536" pt_clust_5="40.01536" pt_clust_6="170.16120"></scales>
<clustering>
<clus scale="   40.015">  4  5 -1 -1</clus>
<clus scale="   46.702">  1  3  2 -1</clus>
<clus scale="  170.161">  1  6  2 -1</clus>
<clus scale="   46.702">  1  3  2 -1</clus>
</clustering>
</event>
<event>
 6    0  0.3446372E+002  0.9690140E+02  0.7546771E-02  0.1286950E+00
         21   -1    0    0  505  501  0.00000000000E+00  0.00000000000E+00  0.14060021092E+04  0.14060021092E+04  0.00000000000E+00 0.  1.
         21   -1    0    0  506  502 -0.00000000000E+00 -0.00000000000E+00 -0.11924626457E+03  0.11924626457E+03  0.00000000000E+00 0. -1.
         21    1    1    2  503  501  0.64075996545E+02  0.13903492035E+02  0.28411569228E+03  0.29158320772E+03  0.00000000000E+00 0. -1.
         21    1    1    2  504  502  0.23344847978E+02  0.35565714961E+02 -0.14784609619E+02  0.45038724332E+02  0.00000000000E+00 0.  1.
         21    1    1    2  505  504 -0.11815061336E+03 -0.55494214712E+02  0.10961535245E+04  0.11038984213E+04  0.00000000000E+00 0.  1.
         21    1    1    2  506  503  0.30729768837E+02  0.60250077156E+01 -0.78728762478E+02  0.84728020466E+02  0.00000000000E+00 0. -1.
<scales pt_clust_3="14000.00000" pt_clust_4="62.60017" pt_clust_5="96.90140" pt_clust_6="31.31484"></scales>
<clustering>
<clus scale="   31.315">  2  6  1 -1</clus>
<clus scale="   62.600">  2  4  1 -1</clus>
<clus scale="   96.901">  2  5  1 -1</clus>
<clus scale="   96.901">  1  3  2 -1</clus>
</clustering>
</event>
<event>
 6    0  0.3446372E+002  0.1459965E+03  0.7546771E-02  0.1205481E+00
         21   -1    0    0  503  501  0.00000000000E+00  0.00000000000E+00  0.75796875617E+03  0.75796875617E+03  0.00000000000E+00 0.  1.
         21   -1    0    0  506  502 -0.00000000000E+00 -0.00000000000E+00 -0.55263659524E+02  0.55263659524E+02  0.00000000000E+00 0. -1.
         21    1    1    2  503  505  0.95308452957E+02  0.42902375933E+02  0.45125535809E+03  0.46320159031E+03  0.00000000000E+00 0.  1.
         21    1    1    2  504  501 -0.62764039171E+02 -0.27582930254E+01  0.40621991845E+02  0.74813628537E+02  0.00000000000E+00 0.  1.
         21    1    1    2  505  502  0.36319085317E+02 -0.19713024130E+02  0.19798006479E+03  0.20224684258E+03  0.00000000000E+00 0.  1.
         21    1    1    2  506  504 -0.68863499103E+02 -0.20431058778E+02  0.12847681928E+02  0.72970354271E+02  0.00000000000E+00 0. -1.
<scales pt_clust_3="36.94047" pt_clust_4="31.26390" pt_clust_5="36.94047" pt_clust_6="137.77191"></scales>
<clustering>
<clus scale="   31.264">  4  6 -1 -1</clus>
<clus scale="   36.940">  3  5 -1 -1</clus>
<clus scale="  137.772">  2  4  1 -1</clus>
<clus scale="  145.997">  1  3  2 -1</clus>
</clustering>
</event>
<event>
 6    0  0.3446372E+002  0.1122953E+03  0.7546771E-02  0.1256377E+00
         21   -1    0    0  503  501  0.00000000000E+00  0.00000000000E+00  0.52984451187E+03  0.52984451187E+03  0.00000000000E+00 0.  1.
         21   -1    0    0  506  502 -0.00000000000E+00 -0.00000000000E+00 -0.17794064196E+03  0.17794064196E+03  0.00000000000E+00 0.  1.
         21    1    1    2  503  502 -0.17700442404E+02 -0.41490569278E+02 -0.36053007407E+02  0.57745929237E+02  0.00000000000E+00 0.  1.
         21    1    1    2  504  501 -0.75972035049E+02 -0.73459787070E+02  0.46708520039E+03  0.47889108871E+03  0.00000000000E+00 0.  1.
         21    1    1    2  505  504  0.58895320815E+02  0.54146423868E+02 -0.54904506719E+02  0.97030917185E+02  0.00000000000E+00 0.  1.
         21    1    1    2  506  505  0.34777156638E+02  0.60803932481E+02 -0.24223816358E+02  0.74117218700E+02  0.00000000000E+00 0.  1.
<scales pt_clust_3="45.10846" pt_clust_4="107.55447" pt_clust_5="30.20872" pt_clust_6="30.20872"></scales>
<clustering>
<clus scale="   30.209">  5  6 -1 -1</clus>
<clus scale="   45.108">  2  3  1 -1</clus>
<clus scale="  107.554">  1  4  2 -1</clus>
<clus scale="  107.554">  1  3  2 -1</clus>
</clustering>
</event>
<event>
 6    0  0.3446372E+002  0.1557830E+03  0.7546771E-02  0.1193542E+00
         21   -1    0    0  503  501  0.00000000000E+00  0.00000000000E+00  0.10581703560E+04  0.10581703560E+04  0.00000000000E+00 0. -1.
         21   -1    0    0  505  502 -0.00000000000E+00 -0.00000000000E+00 -0.29441497211E+02  0.29441497211E+02  0.00000000000E+00 0. -1.
         21    1    1    2  503  506 -0.28137758063E+02 -0.60586386125E+02  0.22514374550E+03  0.23484494831E+03  0.00000000000E+00 0. -1.
         21    1    1    2  504  501 -0.30538852337E+01  0.49945973817E+02  0.17030245989E+03  0.17750170241E+03  0.00000000000E+00 0. -1.
         21    1    1    2  505  504  0.11486455444E+03  0.57685578903E+02  0.45470370130E+03  0.47252190199E+03  0.00000000000E+00 0. -1.
         21    1    1    2  506  502 -0.83672911146E+02 -0.47045166596E+02  0.17857895205E+03  0.20274330045E+03  0.00000000000E+00 0. -1.
<scales pt_clust_3="51.69922" pt_clust_4="50.03925" pt_clust_5="140.93642" pt_clust_6="51.69922"></scales>
<clustering>
<clus scale="   50.039">  1  4  2 -1</clus>
<clus scale="   51.699">  3  6 -1 -1</clus>
<clus scale="  140.936">  1  5  2 -1</clus>
<clus scale="   50.039">  1  3  2 -1</clus>
</clustering>
</event>
<event>
 6    0  0.3446372E+002  0.1588859E+03  0.7546771E-02  0.1189960E+00
         21   -1    0    0  504  501  0.00000000000E+00  0.00000000000E+00  0.25828613916E+02  0.25828613916E+02  0.00000000000E+00 0.  1.
         21   -1    0    0  505  502 -0.00000000000E+00 -0.00000000000E+00 -0.16460993444E+04  0.16460993444E+04  0.00000000000E+00 0.  1.
         21    1    1    2  503  501  0.71796096877E+02  0.98513329612E+02 -0.63072370946E+03  0.64239548046E+03  0.00000000000E+00 0.  1.
         21    1    1    2  504  506 -0.28925258506E+01 -0.42213209444E+02 -0.29232260772E+02  0.51428074310E+02  0.00000000000E+00 0.  1.
         21    1    1    2  505  503  0.43732834863E+02  0.10635951882E+02 -0.40733536834E+03  0.40981433189E+03  0.00000000000E+00 0.  1.
         21    1    1    2  506  502 -0.11263640589E+03 -0.66936072050E+02 -0.55297939193E+03  0.56829007168E+03  0.00000000000E+00 0.  1.
<scales pt_clust_3="39.93006" pt_clust_4="42.31219" pt_clust_5="39.93006" pt_clust_6="144.65954"></scales>
<clustering>
<clus scale="   39.930">  3  5 -1 -1</clus>
<clus scale="   42.312">  1  4  2 -1</clus>
<clus scale="  144.660">  1  6  2 -1</clus>
<clus scale="   42.312">  1  3  2 -1</clus>
</clustering>
</event>
<event>
 6    0  0.3446372E+002  0.1405449E+03  0.7546771E-02  0.1212598E+00
         21   -1    0    0  502  501  0.00000000000E+00  0.00000000000E+00  0.96963447856E+02  0.96963447856E+02  0.00000000000E+00 0.  1.
         21   -1    0    0  504  502 -0.00000000000E+00 -0.00000000000E+00 -0.19418553120E+04  0.19418553120E+04  0.00000000000E+00 0. -1.
         21    1    1    2  503  505 -0.10249275365E+03  0.16526597357E+02 -0.53251096598E+03  0.54253647053E+03  0.00000000000E+00 0. -1.
         21    1    1    2  504  503 -0.48541961734E+02 -0.68716703648E+02 -0.12855525303E+04  0.12883026102E+04  0.00000000000E+00 0. -1.
         21    1    1    2  505  506  0.13219884425E+03  0.29499814864E+01 -0.60510011916E+02  0.14541904398E+03  0.00000000000E+00 0.  1.
         21    1    1    2  506  501  0.18835871139E+02  0.49240124805E+02  0.33681643972E+02  0.62560635171E+02  0.00000000000E+00 0.  1.
<scales pt_clust_3="14000.00000" pt_clust_4="82.69530" pt_clust_5="140.54493" pt_clust_6="52.71982"></scales>
<clustering>
<clus scale="   52.720">  1  6  2 -1</clus>
<clus scale="   82.695">  2  4  1 -1</clus>
<clus scale="  140.545">  1  5  2 -1</clus>
<clus scale="   52.720">  1  3  2 -1</clus>
</clustering>
</event>
<event>
 6    0  0.3446372E+002  0.1175257E+03  0.7546771E-02  0.1247235E+00
         21   -1    0    0  504  501  0.00000000000E+00  0.00000000000E+00  0.67549585011E+02  0.67549585011E+02  0.00000000000E+00 0. -1.
         21   -1    0    0  503  502 -0.00000000000E+00 -0.00000000000E+00 -0.78928611539E+03  0.78928611539E+03  0.00000000000E+00 0. -1.
         21    1    1    2  503  505  0.60962347915E+02  0.59715558237E+02 -0.57075720230E+03  0.57710149864E+03  0.00000000000E+00 0. -1.
         21    1    1    2  504  506  0.93220752813E+01  0.28549998544E+02 -0.59379801790E+00  0.30039242676E+02  0.00000000000E+00 0. -1.
         21    1    1    2  505  501 -0.10050170822E+03 -0.10543585485E+03 -0.68956763293E+02  0.16115938709E+03  0.00000000000E+00 0. -1.
         21    1    1    2  506  502  0.30217285027E+02  0.17170298071E+02 -0.81428766766E+02  0.88535571988E+02  0.00000000000E+00 0. -1.
<scales pt_clust_3="117.52575" pt_clust_4="30.03337" pt_clust_5="14000.00000" pt_clust_6="36.27435"></scales>
<clustering>
<clus scale="   30.033">  1  4  2 -1</clus>
<clus scale="   36.274">  2  6  1 -1</clus>
<clus scale="  117.526">  2  3  1 -1</clus>
<clus scale="   30.033">  1  3  2 -1</clus>
</clustering>
</event>
<event>
 6    0  0.3446372E+002  0.1165067E+03  0.7546771E-02  0.1248974E+00
         21   -1    0    0  505  501  0.00000000000E+00  0.00000000000E+00  0.60086061793E+02  0.60086061793E+02  0.00000000000E+00 0. -1.
         21   -1    0    0  504  502 -0.00000000000E+00 -0.00000000000E+00 -0.13611741648E+04  0.13611741648E+04  0.00000000000E+00 0.  1.
         21    1    1    2  503  502 -0.68043969560E+02 -0.23913114671E+02 -0.76081067770E+03  0.76422163418E+03  0.00000000000E+00 0.  1.
         21    1    1    2  504  506 -0.32509609014E+02  0.43260664520E+02 -0.30490654418E+03  0.30967137494E+03  0.00000000000E+00 0.  1.
         21    1    1    2  505  503  0.10519120793E+03  0.59764951059E+02 -0.26339505307E+02  0.12381764471E+03  0.00000000000E+00 0. -1.
         21    1    1    2  506  501 -0.46376293556E+01 -0.79112500908E+02 -0.20903137580E+03  0.22354957275E+03  0.00000000000E+00 0. -1.
<scales pt_clust_3="14000.00000" pt_clust_4="54.11432" pt_clust_5="116.50672" pt_clust_6="71.13880"></scales>
<clustering>
<clus scale="   54.114">  2  4  1 -1</clus>
<clus scale="   71.139">  2  6  1 -1</clus>
<clus scale="  116.507">  1  5  2 -1</clus>
<clus scale="  116.507">  1  3  2 -1</clus>
</clustering>
</event>
<event>
 6    0  0.3446372E+002  0.1013542E+03  0.7546771E-02  0.1277474E+00
         21   -1    0    0  505  501  0.00000000000E+00  0.00000000000E+00  0.23612940372E+03  0.23612940372E+03  0.00000000000E+00 0. -1.
         21   -1    0    0  503  502 -0.00000000000E+00 -0.00000000000E+00 -0.19028134208E+03  0.19028134208E+03  0.00000000000E+00 0.  1.
         21    1    1    2  503  501  0.36296900690E+02  0.79528059690E+02 -0.66611573924E+01  0.87672962170E+02  0.00000000000E+00 0. -1.
         21    1    1    2  504  506  0.22796196960E+02 -0.12542667190E+03 -0.65927596169E+02  0.14351990997E+03  0.00000000000E+00 0.  1.
         21    1    1    2  505  504 -0.24532023518E+02  0.28272464459E+02  0.14398107423E+03  0.14876727517E+03  0.00000000000E+00 0. -1.
         21    1    1    2  506  502 -0.34561074133E+02  0.17626147755E+02 -0.25544259039E+02  0.46450598486E+02  0.00000000000E+00 0. -1.
<scales pt_clust_3="14000.00000" pt_clust_4="101.35418" pt_clust_5="37.43197" pt_clust_6="42.86859"></scales>
<clustering>
<clus scale="   37.432">  1  5  2 -1</clus>
<clus scale="   42.869">  2  6  1 -1</clus>
<clus scale="  101.354">  2  4  1 -1</clus>
<clus scale="   37.432">  1  3  2 -1</clus>
</clustering>
</event>
<event>
 6    0  0.3446372E+002  0.1134475E+03  0.7546771E-02  0.1254316E+00
         21   -1    0    0  503  501  0.00000000000E+00  0.00000000000E+00  0.16504614760E+03  0.16504614760E+03  0.00000000000E+00 0.  1.
         21   -1    0    0  505  502 -0.00000000000E+00 -0.00000000000E+00 -0.25244498778E+03  0.25244498778E+03  0.00000000000E+00 0. -1.
         21    1    1    2  503  502 -0.11014708174E+03 -0.17557043887E+02  0.10295652063E+03  0.15179154965E+03  0.00000000000E+00 0.  1.
         21    1    1    2  504  501  0.10678799691E+02  0.37784326302E+02  0.53911213072E+01  0.39632767578E+02  0.00000000000E+00 0. -1.
         21    1    1    2  505  506  0.55243363969E+02  0.29768078740E+01 -0.14347462836E+03  0.15377145259E+03  0.00000000000E+00 0. -1.
         21    1    1    2  506  504  0.44224918075E+02 -0.23204090289E+02 -0.52271853758E+02  0.72295365552E+02  0.00000000000E+00 0. -1.
<scales pt_clust_3="101.90142" pt_clust_4="39.26439" pt_clust_5="46.94084" pt_clust_6="46.94084"></scales>
<clustering>
<clus scale="   39.264">  1  4  2 -1</clus>
<clus scale="   46.941">  5  6 -1 -1</clus>
<clus scale="  101.901">  1  3  2 -1</clus>
<clus scale="   39.264">  1  3  2 -1</clus>
</clustering>
</event>
<event>
 6    0  0.3446372E+002  0.7194227E+02  0.7546771E-02  0.1353610E+00
         21   -1    0    0  503  501  0.00000000000E+00  0.00000000000E+00  0.11023003673E+04  0.11023003673E+04  0.00000000000E+00 0.  1.
         21   -1    0    0  505  502 -0.00000000000E+00 -0.00000000000E+00 -0.24314835120E+03  0.24314835120E+03  0.00000000000E+00 0.  1.
         21    1    1    2  503  504 -0.87850303405E+02  0.38696737997E+02  0.63719480813E+02  0.11521842550E+03  0.00000000000E+00 0.  1.
         21    1    1    2  504  502  0.40190872115E+02  0.43118192319E+01  0.69764499071E+01  0.41019127731E+02  0.00000000000E+00 0.  1.
         21    1    1    2  505  506 -0.23356646861E+02 -0.40415416624E+02 -0.19636121530E+03  0.20183326220E+03  0.00000000000E+00 0.  1.
         21    1    1    2  506  501  0.71016078151E+02 -0.25931406052E+01  0.98481730068E+03  0.98737790306E+03  0.00000000000E+00 0.  1.
<scales pt_clust_3="14000.00000" pt_clust_4="40.42150" pt_clust_5="38.54444" pt_clust_6="71.94227"></scales>
<clustering>
<clus scale="   40.422">  2  4  1 -1</clus>
<clus scale="   38.544">  2  5  1 -1</clus>
<clus scale="   71.942">  1  6  2 -1</clus>
<clus scale="   71.942">  1  3  2 -1</clus>
</clustering>
</event>
<event>
 6    0  0.3446372E+002  0.7671017E+02  0.7546771E-02  0.1338656E+00
         21   -1    0    0  506  501  0.00000000000E+00  0.00000000000E+00  0.18290633158E+02  0.18290633158E+02  0.00000000000E+00 0. -1.
         21   -1    0    0  504  502 -0.00000000000E+00 -0.00000000000E+00 -0.13661646638E+04  0.13661646638E+04  0.00000000000E+00 0. -1.
         21    1    1    2  503  501 -0.36651226101E+02 -0.10586935370E+03 -0.30511746217E+03  0.32503584133E+03  0.00000000000E+00 0. -1.
         21    1    1    2  504  503  0.34544934392E+02 -0.19980480798E+02 -0.20050729519E+03  0.20444008298E+03  0.00000000000E+00 0. -1.
         21    1    1    2  505  502 -0.30680355654E+02  0.76312277399E+02 -0.59694595322E+03  0.60258552834E+03  0.00000000000E+00 0. -1.
         21    1    1    2  506  505  0.32786647363E+02  0.49537557097E+02 -0.24530332005E+03  0.25239384429E+03  0.00000000000E+00 0. -1.
<scales pt_clust_3="76.71017" pt_clust_4="39.90704" pt_clust_5="14000.00000" pt_clust_6="60.52146"></scales>
<clustering>
<clus scale="   39.907">  2  4  1 -1</clus>
<clus scale="   60.521">  1  6  2 -1</clus>
<clus scale="   76.710">  1  3  2 -1</clus>
<clus scale="   60.521">  1  3  2 -1</clus>
</clustering>
</event>
<event>
 6    0  0.3446372E+002  0.1540813E+03  0.7546771E-02  0.1195546E+00
         21   -1    0    0  505  501  0.00000000000E+00  0.00000000000E+00  0.13417123730E+04  0.13417123730E+04  0.00000000000E+00 0. -1.
         21   -1    0    0  506  502 -0.00000000000E+00 -0.00000000000E+00 -0.73087063123E+02  0.73087063123E+02  0.00000000000E+00 0. -1.
         21    1    1    2  503  501 -0.27018341149E+02 -0.21570699595E+02  0.19489437376E+03  0.19793711820E+03  0.00000000000E+00 0.  1.
         21    1    1    2  504  502 -0.11005461243E+02  0.29959297033E+02  0.50521226258E+02  0.59758463488E+02  0.00000000000E+00 0. -1.
         21    1    1    2  505  504  0.14226987135E+03 -0.84443762478E+02  0.10143557752E+04  0.10277592636E+04  0.00000000000E+00 0. -1.
         21    1    1    2  506  503 -0.10424606896E+03  0.76055165040E+02  0.88539347171E+01  0.12934459085E+03  0.00000000000E+00 0. -1.
<scales pt_clust_3="34.35526" pt_clust_4="31.91676" pt_clust_5="14000.00000" pt_clust_6="154.08130"></scales>
<clustering>
<clus scale="   31.917">  2  4  1 -1</clus>
<clus scale="   34.355">  1  3  2 -1</clus>
<clus scale="  154.081">  2  6  1 -1</clus>
<clus scale="   34.355">  1  3  2 -1</clus>
</clustering>
</event>
<event>
 6    0  0.3446372E+002  0.1364635E+03  0.7546771E-02  0.1218168E+00
         21   -1    0    0  505  501  0.00000000000E+00  0.00000000000E+00  0.38541225831E+03  0.38541225831E+03  0.00000000000E+00 0.  1.
         21   -1    0    0  506  502 -0.00000000000E+00 -0.00000000000E+00 -0.33948986948E+03  0.33948986948E+03  0.00000000000E+00 0.  1.
         21    1    1    2  503  504  0.63029688666E+02  0.90196434881E+01  0.10378073740E+02  0.64512014668E+02  0.00000000000E+00 0.  1.
         21    1    1    2  504  501  0.35291553422E+02 -0.26959588612E+02  0.40540601578E+02  0.60131967682E+02  0.00000000000E+00 0. -1.
         21    1    1    2  505  502  0.25605871947E+02  0.84800672386E+02  0.27387928863E+03  0.28784836191E+03  0.00000000000E+00 0.  1.
         21    1    1    2  506  503 -0.12392711403E+03 -0.66860727262E+02 -0.27887557512E+03  0.31240978352E+03  0.00000000000E+00 0.  1.
<scales pt_clust_3="67.24239" pt_clust_4="44.41073" pt_clust_5="136.46348" pt_clust_6="14000.00000"></scales>
<clustering>
<clus scale="   44.411">  1  4  2 -1</clus>
<clus scale="   67.242">  1  3  2 -1</clus>
<clus scale="  136.463">  1  5  2 -1</clus>
<clus scale="   44.411">  1  3  2 -1</clus>
</clustering>
</event>
<event>
 6    0  0.3446372E+002  0.7157279E+02  0.7546771E-02  0.1354825E+00
         21   -1    0    0  504  501  0.00000000000E+00  0.00000000000E+00  0.65756853004E+03  0.65756853004E+03  0.00000000000E+00 0. -1.
         21   -1    0    0  503  502 -0.00000000000E+00 -0.00000000000E+00 -0.43801990469E+02  0.43801990469E+02  0.00000000000E+00 0. -1.
         21    1    1    2  503  506  0.17845851034E+01 -0.36220587361E+02  0.12882593493E+02  0.38484762021E+02  0.00000000000E+00 0. -1.
         21    1    1    2  504  505  0.33501219096E+02 -0.30445150883E+02  0.11774089911E+03  0.12614340338E+03  0.00000000000E+00 0.  1.
         21    1    1    2  505  502  0.51994497237E+02  0.72605366619E+02  0.67367597390E+02  0.11186313147E+03  0.00000000000E+00 0. -1.
         21    1    1    2  506  501 -0.87280301436E+02 -0.59396283751E+01  0.41577544958E+03  0.42487922363E+03  0.00000000000E+00 0. -1.
<scales pt_clust_3="36.26452" pt_clust_4="48.87212" pt_clust_5="14000.00000" pt_clust_6="71.57279"></scales>
<clustering>
<clus scale="   36.265">  2  3  1 -1</clus>
<clus scale="   48.872">  1  4  2 -1</clus>
<clus scale="   71.573">  1  6  2 -1</clus>
<clus scale="   48.872">  1  3  2 -1</clus>
</clustering>
</event>
<event>
 6    0  0.3446372E+002  0.1352429E+03  0.7546771E-02  0.1219877E+00
         21   -1    0    0  506  501  0.00000000000E+00  0.00000000000E+00  0.18711771253E+03  0.18711771253E+03  0.00000000000E+00 0.  1.
         21   -1    0    0  504  502 -0.00000000000E+00 -0.00000000000E+00 -0.77924302244E+03  0.77924302244E+03  0.00000000000E+00 0.  1.
         21    1    1    2  503  501 -0.19508465190E+02  0.66792154150E+02 -0.86728494936E+01  0.70121254898E+02  0.00000000000E+00 0.  1.
         21    1    1    2  504  503  0.34629123328E+02 -0.13301253852E+02 -0.62679554344E+02  0.72834236931E+02  0.00000000000E+00 0. -1.
         21    1    1    2  505  502  0.34732976151E+02 -0.11111703530E+03 -0.65704346034E+03  0.66727766630E+03  0.00000000000E+00 0.  1.
         21    1    1    2  506  505 -0.49853634289E+02  0.57626135002E+02  0.13627055427E+03  0.15612757684E+03  0.00000000000E+00 0.  1.
<scales pt_clust_3="68.35779" pt_clust_4="37.09582" pt_clust_5="135.24295" pt_clust_6="14000.00000"></scales>
<clustering>
<clus scale="   37.096">  2  4  1 -1</clus>
<clus scale="   68.358">  1  3  2 -1</clus>
<clus scale="  135.243">  2  5  1 -1</clus>
<clus scale="   68.358">  1  3  2 -1</clus>
</clustering>
</event>
<event>
 6    0  0.3446372E+002  0.1555886E+03  0.7546771E-02  0.1193769E+00
         21   -1    0    0  505  501  0.00000000000E+00  0.00000000000E+00  0.56578216950E+03  0.56578216950E+03  0.00000000000E+00 0.  1.
         21   -1    0    0  504  502 -0.00000000000E+00 -0.00000000000E+00 -0.62489067677E+02  0.62489067677E+02  0.00000000000E+00 0. -1.
         21    1    1    2  503  502 -0.63126183332E+02  0.33801000579E+02  0.27835664456E+03  0.28741928299E+03  0.00000000000E+00 0.  1.
         21    1    1    2  504  506  0.93432506989E+02 -0.31870844501E+02  0.34404711973E+02  0.10454218430E+03  0.00000000000E+00 0. -1.
         21    1    1    2  505  503 -0.74135812137E+02 -0.23052343691E+02  0.16266037665E+03  0.18023852896E+03  0.00000000000E+00 0.  1.
         21    1    1    2  506  501  0.43829488479E+02  0.21122187613E+02  0.27871368645E+02  0.56071240935E+02  0.00000000000E+00 0. -1.
<scales pt_clust_3="69.59509" pt_clust_4="148.04851" pt_clust_5="69.59509" pt_clust_6="38.20746"></scales>
<clustering>
<clus scale="   38.207">  4  6 -1 -1</clus>
<clus scale="   69.595">  3  5 -1 -1</clus>
<clus scale="  148.049">  2  4  1 -1</clus>
<clus scale="  155.589">  1  3  2 -1</clus>
</clustering>
</event>
<event>
 6    0  0.3446372E+002  0.9695028E+02  0.7546771E-02  0.1286843E+00
         21   -1    0    0  506  501  0.00000000000E+00  0.00000000000E+00  0.80647186934E+02  0.80647186934E+02  0.00000000000E+00 0.  1.
         21   -1    0    0  504  502 -0.00000000000E+00 -0.00000000000E+00 -0.31919585562E+03  0.31919585562E+03  0.00000000000E+00 0.  1.
         21    1    1    2  503  502  0.16513642453E+02 -0.28880379839E+02 -0.72833748835E+02  0.80072040664E+02  0.00000000000E+00 0.  1.
         21    1    1    2  504  505  0.74206175570E+02  0.48966058567E+02 -0.66219145443E+02  0.11085669401E+03  0.00000000000E+00 0.  1.
         21    1    1    2  505  501 -0.59731928206E+02  0.43667937871E+02  0.13802542758E+02  0.75268201996E+02  0.00000000000E+00 0.  1.
         21    1    1    2  506  503 -0.30987889817E+02 -0.63753616599E+02 -0.11329831717E+03  0.13364610588E+03  0.00000000000E+00 0.  1.
<scales pt_clust_3="32.42161" pt_clust_4="84.61452" pt_clust_5="73.99184" pt_clust_6="32.42161"></scales>
<clustering>
<clus scale="   32.422">  3  6 -1 -1</clus>
<clus scale="   73.992">  1  5  2 -1</clus>
<clus scale="   84.615">  1  4  2 -1</clus>
<clus scale="   73.992">  1  3  2 -1</clus>
</clustering>
</event>
<event>
 6    0  0.3446372E+002  0.1857716E+03  0.7546771E-02  0.1162331E+00
         21   -1    0    0  506  501  0.00000000000E+00  0.00000000000E+00  0.86752453019E+03  0.86752453019E+03  0.00000000000E+00 0.  1.
         21   -1    0    0  504  502 -0.00000000000E+00 -0.00000000000E+00 -0.58526032231E+03  0.58526032231E+03  0.00000000000E+00 0. -1.
         21    1    1    2  503  505 -0.10415121946E+03 -0.94781960941E+01 -0.13241520813E+03  0.16873381422E+03  0.00000000000E+00 0. -1.
         21    1    1    2  504  503 -0.52783940490E+02 -0.41426395314E+01 -0.17104330449E+03  0.17905060136E+03  0.00000000000E+00 0. -1.
         21    1    1    2  505  501  0.16677793746E+03  0.53351660398E+02  0.83460438912E+03  0.85277533174E+03  0.00000000000E+00 0.  1.
         21    1    1    2  506  502 -0.98427775103E+01 -0.39730824773E+02 -0.24888166861E+03  0.25222510517E+03  0.00000000000E+00 0. -1.
<scales pt_clust_3="47.77655" pt_clust_4="47.77655" pt_clust_5="174.52312" pt_clust_6="40.93188"></scales>
<clustering>
<clus scale="   40.932">  2  6  1 -1</clus>
<clus scale="   47.777">  3  4 -1 -1</clus>
<clus scale="  174.523">  1  5  2 -1</clus>
<clus scale="  174.523">  1  3  2 -1</clus>
</clustering>
</event>
<event>
 6    0  0.3446372E+002  0.8212576E+02  0.7546771E-02  0.1323125E+00
         21   -1    0    0  504  501  0.00000000000E+00  0.00000000000E+00  0.19812423622E+03  0.19812423622E+03  0.00000000000E+00 0. -1.
         21   -1    0    0  506  502 -0.00000000000E+00 -0.00000000000E+00 -0.21720741227E+03  0.21720741227E+03  0.00000000000E+00 0. -1.
         21    1    1    2  503  501  0.77667504523E+02 -0.36785336785E+02  0.92665565639E+02  0.12638160197E+03  0.00000000000E+00 0. -1.
         21    1    1    2  504  505 -0.26630839482E+02  0.91813934835E+02  0.69292723849E+01  0.95848917871E+02  0.00000000000E+00 0. -1.
         21    1    1    2  505  502  0.38357383419E+02 -0.46548056388E+01 -0.34261690324E+01  0.38790394591E+02  0.00000000000E+00 0. -1.
         21    1    1    2  506  503 -0.89394048460E+02 -0.50373792410E+02 -0.11525184503E+03  0.15431073406E+03  0.00000000000E+00 0. -1.
<scales pt_clust_3="82.12576" pt_clust_4="14000.00000" pt_clust_5="38.63879" pt_clust_6="82.72199"></scales>
<clustering>
<clus scale="   38.639">  2  5  1 -1</clus>
<clus scale="   82.722">  2  6  1 -1</clus>
<clus scale="   82.126">  1  3  2 -1</clus>
<clus scale="   82.126">  1  3  2 -1</clus>
</clustering>
</event>
<event>
 6    0  0.3446372E+002  0.1760304E+03  0.7546771E-02  0.1171701E+00
         21   -1    0    0  503  501  0.00000000000E+00  0.00000000000E+00  0.21248986828E+03  0.21248986828E+03  0.00000000000E+00 0. -1.
         21   -1    0    0  506  502 -0.00000000000E+00 -0.00000000000E+00 -0.16102473486E+04  0.16102473486E+04  0.00000000000E+00 0.  1.
         21    1    1    2  503  502  0.15984751297E+02  0.27320697855E+02  0.32556210244E+02  0.45407484303E+02  0.00000000000E+00 0. -1.
         21    1    1    2  504  505  0.42247289749E+02 -0.12763516480E+03 -0.19264938007E+03  0.23492414185E+03  0.00000000000E+00 0.  1.
         21    1    1    2  505  501  0.33982607821E+02 -0.65136658340E+02  0.13662436117E+03  0.15512516868E+03  0.00000000000E+00 0. -1.
         21    1    1    2  506  504 -0.92214648867E+02  0.16545112529E+03 -0.13742886716E+04  0.13872804220E+04  0.00000000000E+00 0.  1.
<scales pt_clust_3="31.65332" pt_clust_4="176.03044" pt_clust_5="63.45765" pt_clust_6="14000.00000"></scales>
<clustering>
<clus scale="   31.653">  1  3  2 -1</clus>
<clus scale="   63.458">  1  5  2 -1</clus>
<clus scale="  176.030">  1  4  2 -1</clus>
<clus scale="   31.653">  1  3  2 -1</clus>
</clustering>
</event>
<event>
 6    0  0.3446372E+002  0.2007601E+03  0.7546771E-02  0.1149099E+00
         21   -1    0    0  504  501  0.00000000000E+00  0.00000000000E+00  0.45383282907E+03  0.45383282907E+03  0.00000000000E+00 0. -1.
         21   -1    0    0  505  502 -0.00000000000E+00 -0.00000000000E+00 -0.24528209564E+03  0.24528209564E+03  0.00000000000E+00 0. -1.
         21    1    1    2  503  506 -0.14567865492E+02  0.32193486508E+02 -0.28267924973E+01  0.35449034322E+02  0.00000000000E+00 0. -1.
         21    1    1    2  504  502  0.10939098422E+03 -0.16847467341E+03  0.33176168337E+03  0.38783491019E+03  0.00000000000E+00 0. -1.
         21    1    1    2  505  503 -0.63657934453E+02  0.14016707218E+03 -0.16214080328E+03  0.22358170952E+03  0.00000000000E+00 0. -1.
         21    1    1    2  506  501 -0.31165184276E+02 -0.38858852744E+01  0.41756645840E+02  0.52249270685E+02  0.00000000000E+00 0. -1.
<scales pt_clust_3="30.50925" pt_clust_4="190.39284" pt_clust_5="30.50925" pt_clust_6="31.40651"></scales>
<clustering>
<clus scale="   30.509">  3  5 -1 -1</clus>
<clus scale="   31.407">  1  6  2 -1</clus>
<clus scale="  190.393">  1  4  2 -1</clus>
<clus scale="   31.407">  1  3  2 -1</clus>
</clustering>
</event>
<event>
 6    0  0.3446372E+002  0.1391391E+03  0.7546771E-02  0.1214492E+00
         21   -1    0    0  504  501  0.00000000000E+00  0.00000000000E+00  0.27870904746E+02  0.27870904746E+02  0.00000000000E+00 0. -1.
         21   -1    0    0  505  502 -0.00000000000E+00 -0.00000000000E+00 -0.15779667413E+04  0.15779667413E+04  0.00000000000E+00 0.  1.
         21    1    1    2  503  506  0.19910109686E+02 -0.37350911876E+02 -0.25032129840E+03  0.25387448773E+03  0.00000000000E+00 0. -1.
         21    1    1    2  504  503 -0.11519549855E+03  0.93910690612E+02 -0.24805731252E+03  0.28917408424E+03  0.00000000000E+00 0. -1.
         21    1    1    2  505  501  0.84573210077E+02 -0.10205235552E+02 -0.38195662011E+03  0.39134081609E+03  0.00000000000E+00 0.  1.
         21    1    1    2  506  502  0.10712178791E+02 -0.46354543184E+02 -0.66976060553E+03  0.67144825799E+03  0.00000000000E+00 0.  1.
<scales pt_clust_3="39.19892" pt_clust_4="132.78764" pt_clust_5="85.18670" pt_clust_6="39.19892"></scales>
<clustering>
<clus scale="   39.199">  3  6 -1 -1</clus>
<clus scale="   85.187">  2  5  1 -1</clus>
<clus scale="  132.788">  1  4  2 -1</clus>
<clus scale="  132.788">  1  3  2 -1</clus>
</clustering>
</event>
<event>
 6    0  0.3446372E+002  0.1156744E+03  0.7546771E-02  0.1250408E+00
         21   -1    0    0  506  501  0.00000000000E+00  0.00000000000E+00  0.18147868910E+04  0.18147868910E+04  0.00000000000E+00 0.  1.
         21   -1    0    0  505  502 -0.00000000000E+00 -0.00000000000E+00 -0.14015171347E+03  0.14015171347E+03  0.00000000000E+00 0. -1.
         21    1    1    2  503  501 -0.13579407300E+03 -0.67676887933E+02  0.13160970297E+04  0.13248137918E+04  0.00000000000E+00 0.  1.
         21    1    1    2  504  502  0.53909504972E+02  0.18666785893E+02 -0.59337491710E+02  0.82314163693E+02  0.00000000000E+00 0. -1.
         21    1    1    2  505  503  0.20783830615E+00  0.89301290248E+02 -0.27326190248E+02  0.93388887509E+02  0.00000000000E+00 0.  1.
         21    1    1    2  506  504  0.81676729719E+02 -0.40291188208E+02  0.44520182988E+03  0.45442176153E+03  0.00000000000E+00 0.  1.
<scales pt_clust_3="115.67439" pt_clust_4="57.04983" pt_clust_5="14000.00000" pt_clust_6="93.77861"></scales>
<clustering>
<clus scale="   57.050">  2  4  1 -1</clus>
<clus scale="   93.779">  1  6  2 -1</clus>
<clus scale="  115.674">  1  3  2 -1</clus>
<clus scale="   93.779">  1  3  2 -1</clus>
</clustering>
</event>
<event>
 6    0  0.3446372E+002  0.1122094E+03  0.7546771E-02  0.1256532E+00
         21   -1    0    0  503  501  0.00000000000E+00  0.00000000000E+00  0.90847050355E+03  0.90847050355E+03  0.00000000000E+00 0. -1.
         21   -1    0    0  504  502 -0.00000000000E+00 -0.00000000000E+00 -0.23134398353E+04  0.23134398353E+04  0.00000000000E+00 0.  1.
         21    1    1    2  503  502 -0.34468508588E+02  0.68298826607E+02 -0.66086944891E+03  0.66528282430E+03  0.00000000000E+00 0.  1.
         21    1    1    2  504  505  0.45290932781E+02  0.27633381214E+02 -0.10965696957E+03  0.12181758217E+03  0.00000000000E+00 0.  1.
         21    1    1    2  505  506 -0.12298507023E+03 -0.93491454319E+02 -0.15272188830E+04  0.15350125394E+04  0.00000000000E+00 0.  1.
         21    1    1    2  506  501  0.11216264603E+03 -0.24407535016E+01  0.89277596969E+03  0.89979739302E+03  0.00000000000E+00 0. -1.
<scales pt_clust_3="79.40967" pt_clust_4="53.05537" pt_clust_5="112.20939" pt_clust_6="14000.00000"></scales>
<clustering>
<clus scale="   53.055">  2  4  1 -1</clus>
<clus scale="   79.410">  2  3  1 -1</clus>
<clus scale="  112.209">  2  5  1 -1</clus>
<clus scale="  112.209">  1  3  2 -1</clus>
</clustering>
</event>
<event>
 6    0  0.3446372E+002  0.1517331E+03  0.7546771E-02  0.1198359E+00
         21   -1    0    0  506  501  0.00000000000E+00  0.00000000000E+00  0.19635436763E+04  0.19635436763E+04  0.00000000000E+00 0.  1.
         21   -1    0    0  504  502 -0.00000000000E+00 -0.00000000000E+00 -0.71259487357E+02  0.71259487357E+02  0.00000000000E+00 0.  1.
         21    1    1    2  503  505  0.39186167042E+02 -0.13765490853E+02  0.22943932501E+02  0.47449641353E+02  0.00000000000E+00 0.  1.
         21    1    1    2  504  503  0.94301251025E+02  0.45582795467E+02 -0.31640324300E+00  0.10474071462E+03  0.00000000000E+00 0.  1.
         21    1    1    2  505  501 -0.15530253050E+03 -0.61646610555E+02  0.17333648870E+04  0.17413997278E+04  0.00000000000E+00 0.  1.
         21    1    1    2  506  502  0.21815112432E+02  0.29829305941E+02  0.13629177268E+03  0.14121307986E+03  0.00000000000E+00 0.  1.
<scales pt_clust_3="38.83964" pt_clust_4="38.83964" pt_clust_5="138.57946" pt_clust_6="36.95520"></scales>
<clustering>
<clus scale="   36.955">  1  6  2 -1</clus>
<clus scale="   38.840">  3  4 -1 -1</clus>
<clus scale="  138.579">  1  5  2 -1</clus>
<clus scale="   36.955">  1  3  2 -1</clus>
</clustering>
</event>
<event>
 6    0  0.3446372E+002  0.1239149E+03  0.7546771E-02  0.1236775E+00
         21   -1    0    0  503  501  0.00000000000E+00  0.00000000000E+00  0.32961261000E+03  0.32961261000E+03  0.00000000000E+00 0. -1.
         21   -1    0    0  504  502 -0.00000000000E+00 -0.00000000000E+00 -0.21600875341E+03  0.21600875341E+03  0.00000000000E+00 0.  1.
         21    1    1    2  503  505  0.93739943408E+02  0.75341101528E+01 -0.27632152915E+02  0.98017731461E+02  0.00000000000E+00 0.  1.
         21    1    1    2  504  506 -0.17515952923E+03 -0.52227372091E+02  0.12254832869E+03  0.22006056426E+03  0.00000000000E+00 0. -1.
         21    1    1    2  505  502  0.31896196128E+02 -0.16533909465E+02 -0.87935666530E+02  0.94991678255E+02  0.00000000000E+00 0.  1.
         21    1    1    2  506  501  0.49523389695E+02  0.61227171403E+02  0.10662334734E+03  0.13255138944E+03  0.00000000000E+00 0.  1.
<scales pt_clust_3="123.91494" pt_clust_4="14000.00000" pt_clust_5="35.92684" pt_clust_6="79.58276"></scales>
<clustering>
<clus scale="   35.927">  2  5  1 -1</clus>
<clus scale="   79.583">  1  6  2 -1</clus>
<clus scale="  123.915">  2  3  1 -1</clus>
<clus scale="   79.583">  1  3  2 -1</clus>
</clustering>
</event>
<event>
 6    0  0.3446372E+002  0.9910898E+02  0.7546771E-02  0.1282181E+00
         21   -1    0    0  503  501  0.00000000000E+00  0.00000000000E+00  0.37454252999E+03  0.37454252999E+03  0.00000000000E+00 0. -1.
         21   -1    0    0  504  502 -0.00000000000E+00 -0.00000000000E+00 -0.55471102980E+02  0.55471102980E+02  0.00000000000E+00 0. -1.
         21    1    1    2  503  505 -0.69161467566E+02  0.88671796497E+01  0.16603452979E+03  0.18008164969E+03  0.00000000000E+00 0. -1.
         21    1    1    2  504  506  0.41226801720E+02  0.64456829329E+02  0.34051252144E+02  0.83748551031E+02  0.00000000000E+00 0. -1.
         21    1    1    2  505  502 -0.98356359489E+01 -0.77017558687E+02  0.86418392863E+02  0.11617479376E+03  0.00000000000E+00 0. -1.
         21    1    1    2  506  501  0.37770301795E+02  0.36935497076E+01  0.32567252212E+02  0.50008638492E+02  0.00000000000E+00 0. -1.
<scales pt_clust_3="69.72758" pt_clust_4="35.68881" pt_clust_5="85.17421" pt_clust_6="35.68881"></scales>
<clustering>
<clus scale="   35.689">  4  6 -1 -1</clus>
<clus scale="   69.728">  1  3  2 -1</clus>
<clus scale="   85.174">  1  5  2 -1</clus>
<clus scale="   69.728">  1  3  2 -1</clus>
</clustering>
</event>
<event>
 6    0  0.3446372E+002  0.8872233E+02  0.7546771E-02  0.1305976E+00
         21   -1    0    0  503  501  0.00000000000E+00  0.00000000000E+00  0.22599821254E+03  0.22599821254E+03  0.00000000000E+00 0. -1.
         21   -1    0    0  504  502 -0.00000000000E+00 -0.00000000000E+00 -0.70076458455E+03  0.70076458455E+03  0.00000000000E+00 0. -1.
         21    1    1    2  503  505 -0.34533737117E+02  0.28959476507E+01  0.15957562281E+03  0.16329526909E+03  0.00000000000E+00 0. -1.
         21    1    1    2  504  501 -0.36982296400E+00 -0.71369123607E+02 -0.33261528637E+02  0.78740192156E+02  0.00000000000E+00 0. -1.
         21    1    1    2  505  506  0.43664906309E+01  0.11352949483E+03 -0.39153976820E+02  0.12017090471E+03  0.00000000000E+00 0.  1.
         21    1    1    2  506  502  0.30537069450E+02 -0.45056318874E+02 -0.56192648937E+03  0.56455643114E+03  0.00000000000E+00 0. -1.
<scales pt_clust_3="34.65495" pt_clust_4="14000.00000" pt_clust_5="88.72233" pt_clust_6="53.98898"></scales>
<clustering>
<clus scale="   34.655">  1  3  2 -1</clus>
<clus scale="   53.989">  2  6  1 -1</clus>
<clus scale="   88.722">  2  5  1 -1</clus>
<clus scale="   34.655">  1  3  2 -1</clus>
</clustering>
</event>
<event>
 6    0  0.3446372E+002  0.1041595E+03  0.7546771E-02  0.1271784E+00
         21   -1    0    0  505  501  0.00000000000E+00  0.00000000000E+00  0.16883388006E+03  0.16883388006E+03  0.00000000000E+00 0.  1.
         21   -1    0    0  504  502 -0.00000000000E+00 -0.00000000000E+00 -0.66631060611E+03  0.66631060611E+03  0.00000000000E+00 0.  1.
         21    1    1    2  503  501 -0.24940639068E+02 -0.24088455987E+02  0.12428939536E+03  0.12903543307E+03  0.00000000000E+00 0.  1.
         21    1    1    2  504  506 -0.33953569255E+02  0.10549685903E+03 -0.55874359444E+03  0.56962868296E+03  0.00000000000E+00 0.  1.
         21    1    1    2  505  502  0.39525613806E+02 -0.15701198638E+02 -0.51868775569E+02  0.67075864992E+02  0.00000000000E+00 0. -1.
         21    1    1    2  506  503  0.19368594518E+02 -0.65707204404E+02 -0.11153751408E+02  0.69404505147E+02  0.00000000000E+00 0. -1.
<scales pt_clust_3="34.67404" pt_clust_4="14000.00000" pt_clust_5="40.35831" pt_clust_6="104.15952"></scales>
<clustering>
<clus scale="   34.674">  1  3  2 -1</clus>
<clus scale="   40.358">  1  5  2 -1</clus>
<clus scale="  104.160">  1  6  2 -1</clus>
<clus scale="   34.674">  1  3  2 -1</clus>
</clustering>
</event>
<event>
 6    0  0.3446372E+002  0.8471757E+02  0.7546771E-02  0.1316173E+00
         21   -1    0    0  506  501  0.00000000000E+00  0.00000000000E+00  0.37786472123E+03  0.37786472123E+03  0.00000000000E+00 0. -1.
         21   -1    0    0  503  502 -0.00000000000E+00 -0.00000000000E+00 -0.23203626442E+03  0.23203626442E+03  0.00000000000E+00 0. -1.
         21    1    1    2  503  505 -0.54734485297E+02  0.25927941969E+01  0.10518422686E+02  0.55796269394E+02  0.00000000000E+00 0. -1.
         21    1    1    2  504  502  0.25342774122E+02 -0.80399858003E+02 -0.18219659835E+03  0.20075356490E+03  0.00000000000E+00 0. -1.
         21    1    1    2  505  501 -0.95014922769E+01 -0.34659437998E+02  0.67686969127E+02  0.76636027999E+02  0.00000000000E+00 0. -1.
         21    1    1    2  506  504  0.38893203452E+02  0.11246650180E+03  0.24981966334E+03  0.27671512336E+03  0.00000000000E+00 0. -1.
<scales pt_clust_3="55.77724" pt_clust_4="84.71757" pt_clust_5="35.93821" pt_clust_6="14000.00000"></scales>
<clustering>
<clus scale="   35.938">  1  5  2 -1</clus>
<clus scale="   55.777">  1  3  2 -1</clus>
<clus scale="   84.718">  2  4  1 -1</clus>
<clus scale="   35.938">  1  3  2 -1</clus>
</clustering>
</event>
<event>
 6    0  0.3446372E+002  0.8430558E+02  0.7546771E-02  0.1317259E+00
         21   -1    0    0  504  501  0.00000000000E+00  0.00000000000E+00  0.77749494695E+02  0.77749494695E+02  0.00000000000E+00 0.  1.
         21   -1    0    0  505  502 -0.00000000000E+00 -0.00000000000E+00 -0.35131877797E+03  0.35131877797E+03  0.00000000000E+00 0.  1.
         21    1    1    2  503  502 -0.39404053064E+02  0.17669864852E+02 -0.10735266788E+03  0.11571300196E+03  0.00000000000E+00 0.  1.
         21    1    1    2  504  503 -0.21661828446E+02  0.77198125082E+02 -0.61334289853E+02  0.10094890014E+03  0.00000000000E+00 0.  1.
         21    1    1    2  505  506  0.89171041931E+02 -0.39291503925E+01 -0.56447583777E+02  0.10560891372E+03  0.00000000000E+00 0.  1.
         21    1    1    2  506  501 -0.28105160421E+02 -0.90938839541E+02 -0.48434741764E+02  0.10679745685E+03  0.00000000000E+00 0.  1.
<scales pt_clust_3="43.18453" pt_clust_4="84.30558" pt_clust_5="75.88314" pt_clust_6="14000.00000"></scales>
<clustering>
<clus scale="   43.185">  2  3  1 -1</clus>
<clus scale="   75.883">  2  5  1 -1</clus>
<clus scale="   84.306">  2  4  1 -1</clus>
<clus scale="   84.306">  1  3  2 -1</clus>
</clustering>
</event>
<event>
 6    0  0.3446372E+002  0.1600777E+03  0.7546771E-02  0.1188609E+00
         21   -1    0    0  506  501  0.00000000000E+00  0.00000000000E+00  0.29829030813E+04  0.29829030813E+04  0.00000000000E+00 0.  1.
         21   -1    0    0  503  502 -0.00000000000E+00 -0.00000000000E+00 -0.12558247777E+02  0.12558247777E+02  0.00000000000E+00 0.  1.
         21    1    1    2  503  504  0.59912211749E+02  0.30595062985E+01  0.37521999398E+03  0.37998536495E+03  0.00000000000E+00 0.  1.
         21    1    1    2  504  501  0.41250659304E+02 -0.13981999142E+03  0.13573644992E+04  0.13651701837E+04  0.00000000000E+00 0.  1.
         21    1    1    2  505  502 -0.61430941819E+02  0.10676843670E+03  0.75460708745E+03  0.76459473979E+03  0.00000000000E+00 0.  1.
         21    1    1    2  506  505 -0.39731929234E+02  0.29992048428E+02  0.48315325294E+03  0.48571104064E+03  0.00000000000E+00 0.  1.
<scales pt_clust_3="59.99028" pt_clust_4="152.80167" pt_clust_5="30.33183" pt_clust_6="30.33183"></scales>
<clustering>
<clus scale="   30.332">  5  6 -1 -1</clus>
<clus scale="   59.990">  2  3  1 -1</clus>
<clus scale="  152.802">  1  4  2 -1</clus>
<clus scale="  152.802">  1  3  2 -1</clus>
</clustering>
</event>
<event>
 6    0  0.3446372E+002  0.1047829E+03  0.7546771E-02  0.1270548E+00
         21   -1    0    0  503  501  0.00000000000E+00  0.00000000000E+00  0.22080857725E+03  0.22080857725E+03  0.00000000000E+00 0. -1.
         21   -1    0    0  506  502 -0.00000000000E+00 -0.00000000000E+00 -0.24993742782E+03  0.24993742782E+03  0.00000000000E+00 0. -1.
         21    1    1    2  503  504  0.86587295386E+02  0.83035971413E+02  0.13357279347E+03  0.17953836199E+03  0.00000000000E+00 0. -1.
         21    1    1    2  504  502  0.22309273679E+02  0.43276043442E+02 -0.43163887534E+02  0.65066433859E+02  0.00000000000E+00 0. -1.
         21    1    1    2  505  501 -0.97045830982E+01 -0.28392000956E+02  0.14002934827E+02  0.33111430581E+02  0.00000000000E+00 0.  1.
         21    1    1    2  506  505 -0.99191985968E+02 -0.97920013899E+02 -0.13354069133E+03  0.19302977864E+03  0.00000000000E+00 0. -1.
<scales pt_clust_3="104.78293" pt_clust_4="47.04064" pt_clust_5="30.00474" pt_clust_6="14000.00000"></scales>
<clustering>
<clus scale="   30.005">  1  5  2 -1</clus>
<clus scale="   47.041">  2  4  1 -1</clus>
<clus scale="  104.783">  1  3  2 -1</clus>
<clus scale="   30.005">  1  3  2 -1</clus>
</clustering>
</event>
<event>
 6    0  0.3446372E+002  0.1379087E+03  0.7546771E-02  0.1216171E+00
         21   -1    0    0  504  501  0.00000000000E+00  0.00000000000E+00  0.58854770776E+03  0.58854770776E+03  0.00000000000E+00 0. -1.
         21   -1    0    0  506  502 -0.00000000000E+00 -0.00000000000E+00 -0.26950013235E+03  0.26950013235E+03  0.00000000000E+00 0.  1.
         21    1    1    2  503  502  0.76761833762E+02  0.21599419009E+02 -0.17352666729E+03  0.19097229716E+03  0.00000000000E+00 0.  1.
         21    1    1    2  504  505 -0.10247475975E+03 -0.82556372466E+02  0.52259340216E+03  0.53890675910E+03  0.00000000000E+00 0. -1.
         21    1    1    2  505  503  0.33511922711E+02 -0.12723297067E+02 -0.39652524457E+02  0.53453287531E+02  0.00000000000E+00 0.  1.
         21    1    1    2  506  501 -0.77989967277E+01  0.73680250524E+02  0.96333649952E+01  0.74715496307E+02  0.00000000000E+00 0. -1.
<scales pt_clust_3="30.42607" pt_clust_4="130.22822" pt_clust_5="30.42607" pt_clust_6="74.09186"></scales>
<clustering>
<clus scale="   30.426">  3  5 -1 -1</clus>
<clus scale="   74.092">  2  6  1 -1</clus>
<clus scale="  130.228">  1  4  2 -1</clus>
<clus scale="  130.228">  1  3  2 -1</clus>
</clustering>
</event>
<event>
 6    0  0.3446372E+002  0.2715323E+03  0.7546771E-02  0.1100406E+00
         21   -1    0    0  504  501  0.00000000000E+00  0.00000000000E+00  0.12991533002E+04  0.12991533002E+04  0.00000000000E+00 0.  1.
         21   -1    0    0  501  502 -0.00000000000E+00 -0.00000000000E+00 -0.45472570274E+03  0.45472570274E+03  0.00000000000E+00 0.  1.
         21    1    1    2  503  502  0.16893273499E+03 -0.28502485347E+02 -0.32941701001E+03  0.37130341650E+03  0.00000000000E+00 0.  1.
         21    1    1    2  504  505  0.19468101169E+03 -0.56605569166E+01  0.83284394931E+03  0.85531385006E+03  0.00000000000E+00 0.  1.
         21    1    1    2  505  506 -0.16711838104E+03  0.90192542677E+02  0.11248253541E+03  0.22071603659E+03  0.00000000000E+00 0.  1.
         21    1    1    2  506  503 -0.19649536564E+03 -0.56029500413E+02  0.22851812280E+03  0.30654569983E+03  0.00000000000E+00 0.  1.
<scales pt_clust_3="171.32035" pt_clust_4="213.04552" pt_clust_5="162.29815" pt_clust_6="162.29815"></scales>
<clustering>
<clus scale="  162.298">  5  6 -1 -1</clus>
<clus scale="  171.320">  2  3  1 -1</clus>
<clus scale="  213.046">  1  4  2 -1</clus>
<clus scale="  213.046">  1  3  2 -1</clus>
</clustering>
</event>
<event>
 6    0  0.3446372E+002  0.1245150E+03  0.7546771E-02  0.1235829E+00
         21   -1    0    0  504  501  0.00000000000E+00  0.00000000000E+00  0.67756456769E+03  0.67756456769E+03  0.00000000000E+00 0. -1.
         21   -1    0    0  505  502 -0.00000000000E+00 -0.00000000000E+00 -0.15654186905E+03  0.15654186905E+03  0.00000000000E+00 0. -1.
         21    1    1    2  503  501  0.50182608709E+02 -0.44781346501E+02  0.16041260889E+03  0.17394214068E+03  0.00000000000E+00 0. -1.
         21    1    1    2  504  506 -0.96294979655E+02 -0.73624019230E+02  0.43647731367E+03  0.45299631860E+03  0.00000000000E+00 0. -1.
         21    1    1    2  505  503  0.11642768241E+02  0.13427012518E+03 -0.94786189364E+02  0.16476784354E+03  0.00000000000E+00 0. -1.
         21    1    1    2  506  502  0.34469602704E+02 -0.15864759454E+02  0.18918965442E+02  0.42400133921E+02  0.00000000000E+00 0.  1.
<scales pt_clust_3="68.95512" pt_clust_4="124.51496" pt_clust_5="14000.00000" pt_clust_6="37.94528"></scales>
<clustering>
<clus scale="   37.945">  2  6  1 -1</clus>
<clus scale="   68.955">  1  3  2 -1</clus>
<clus scale="  124.515">  1  4  2 -1</clus>
<clus scale="   68.955">  1  3  2 -1</clus>
</clustering>
</event>
<event>
 6    0  0.3446372E+002  0.2382206E+03  0.7546771E-02  0.1120984E+00
         21   -1    0    0  503  501  0.00000000000E+00  0.00000000000E+00  0.15982678989E+04  0.15982678989E+04  0.00000000000E+00 0.  1.
         21   -1    0    0  505  502 -0.00000000000E+00 -0.00000000000E+00 -0.21313564141E+03  0.21313564141E+03  0.00000000000E+00 0.  1.
         21    1    1    2  503  502 -0.12176633621E+02 -0.22732677309E+03  0.13464355738E+04  0.13655454904E+04  0.00000000000E+00 0.  1.
         21    1    1    2  504  501 -0.30061198332E+02  0.22578889151E+01  0.17072315276E+03  0.17336426563E+03  0.00000000000E+00 0.  1.
         21    1    1    2  505  506  0.95640098430E+01  0.16402786136E+03 -0.11683484893E+03  0.20161099055E+03  0.00000000000E+00 0.  1.
         21    1    1    2  506  504  0.32673822111E+02  0.61041022814E+02 -0.15191620119E+02  0.70882793676E+02  0.00000000000E+00 0.  1.
<scales pt_clust_3="228.83889" pt_clust_4="30.14587" pt_clust_5="42.89448" pt_clust_6="42.89448"></scales>
<clustering>
<clus scale="   30.146">  1  4  2 -1</clus>
<clus scale="   42.894">  5  6 -1 -1</clus>
<clus scale="  228.839">  1  3  2 -1</clus>
<clus scale="   30.146">  1  3  2 -1</clus>
</clustering>
</event>
<event>
 6    0  0.3446372E+002  0.8727601E+02  0.7546771E-02  0.1309586E+00
         21   -1    0    0  504  501  0.00000000000E+00  0.00000000000E+00  0.18144756850E+04  0.18144756850E+04  0.00000000000E+00 0.  1.
         21   -1    0    0  505  502 -0.00000000000E+00 -0.00000000000E+00 -0.37045756976E+03  0.37045756976E+03  0.00000000000E+00 0.  1.
         21    1    1    2  503  501 -0.58561909950E+02  0.65616168515E+02  0.16584744973E+04  0.16608048160E+04  0.00000000000E+00 0.  1.
         21    1    1    2  504  506  0.79284453982E+02 -0.35200279990E+02  0.12916010730E+03  0.15558733134E+03  0.00000000000E+00 0.  1.
         21    1    1    2  505  503 -0.49213751735E+02 -0.59044174857E+02 -0.12905512395E+03  0.15021129439E+03  0.00000000000E+00 0.  1.
         21    1    1    2  506  502  0.28491207703E+02  0.28628286332E+02 -0.21456136542E+03  0.21832981296E+03  0.00000000000E+00 0.  1.
<scales pt_clust_3="14000.00000" pt_clust_4="87.27601" pt_clust_5="40.51669" pt_clust_6="40.38970"></scales>
<clustering>
<clus scale="   40.390">  2  6  1 -1</clus>
<clus scale="   40.517">  2  5  1 -1</clus>
<clus scale="   87.276">  2  4  1 -1</clus>
<clus scale="   87.276">  1  3  2 -1</clus>
</clustering>
</event>
<event>
 6    0  0.3446372E+002  0.1031262E+03  0.7546771E-02  0.1273856E+00
         21   -1    0    0  506  501  0.00000000000E+00  0.00000000000E+00  0.13623746208E+03  0.13623746208E+03  0.00000000000E+00 0. -1.
         21   -1    0    0  505  502 -0.00000000000E+00 -0.00000000000E+00 -0.12102709401E+04  0.12102709401E+04  0.00000000000E+00 0. -1.
         21    1    1    2  503  502  0.10555429024E+02 -0.42125045472E+02 -0.34089082482E+03  0.34364588021E+03  0.00000000000E+00 0. -1.
         21    1    1    2  504  501 -0.41217924733E+02 -0.95769237810E+01 -0.25588013263E+02  0.49450795859E+02  0.00000000000E+00 0. -1.
         21    1    1    2  505  504 -0.91665917553E+02 -0.21476154890E+02 -0.78538116493E+03  0.79100407072E+03  0.00000000000E+00 0. -1.
         21    1    1    2  506  503  0.12232841326E+03  0.73178124143E+02  0.77826524972E+02  0.16240765540E+03  0.00000000000E+00 0. -1.
<scales pt_clust_3="43.42183" pt_clust_4="42.31589" pt_clust_5="14000.00000" pt_clust_6="103.12621"></scales>
<clustering>
<clus scale="   42.316">  1  4  2 -1</clus>
<clus scale="   43.422">  2  3  1 -1</clus>
<clus scale="  103.126">  1  6  2 -1</clus>
<clus scale="   42.316">  1  3  2 -1</clus>
</clustering>
</event>
<event>
 6    0  0.3446372E+002  0.1977048E+03  0.7546771E-02  0.1151690E+00
         21   -1    0    0  503  501  0.00000000000E+00  0.00000000000E+00  0.58134175916E+03  0.58134175916E+03  0.00000000000E+00 0. -1.
         21   -1    0    0  504  502 -0.00000000000E+00 -0.00000000000E+00 -0.28926642355E+03  0.28926642355E+03  0.00000000000E+00 0.  1.
         21    1    1    2  503  505 -0.17841185123E+03  0.66928587922E+02  0.24744293573E+03  0.31231111249E+03  0.00000000000E+00 0. -1.
         21    1    1    2  504  506  0.38529701192E+02 -0.57537999014E+02 -0.11528357625E+02  0.70200158362E+02  0.00000000000E+00 0.  1.
         21    1    1    2  505  502  0.13784056005E+03 -0.60303145522E+02 -0.18679718249E+03  0.23985344847E+03  0.00000000000E+00 0.  1.
         21    1    1    2  506  501  0.20415899890E+01  0.50912556615E+02  0.24295794000E+03  0.24824346340E+03  0.00000000000E+00 0. -1.
<scales pt_clust_3="197.70485" pt_clust_4="65.70239" pt_clust_5="14000.00000" pt_clust_6="50.95347"></scales>
<clustering>
<clus scale="   50.953">  1  6  2 -1</clus>
<clus scale="   65.702">  2  4  1 -1</clus>
<clus scale="  197.705">  1  3  2 -1</clus>
<clus scale="   50.953">  1  3  2 -1</clus>
</clustering>
</event>
<event>
 6    0  0.3446372E+002  0.2526077E+03  0.7546771E-02  0.1111668E+00
         21   -1    0    0  504  501  0.00000000000E+00  0.00000000000E+00  0.84342283798E+02  0.84342283798E+02  0.00000000000E+00 0.  1.
         21   -1    0    0  506  502 -0.00000000000E+00 -0.00000000000E+00 -0.97781269610E+03  0.97781269610E+03  0.00000000000E+00 0.  1.
         21    1    1    2  503  502  0.30619734904E+02 -0.73573993309E+02 -0.11028446184E+03  0.13606382025E+03  0.00000000000E+00 0. -1.
         21    1    1    2  504  503  0.90922461678E+02 -0.13247096714E+03 -0.75619040916E+02  0.17757728042E+03  0.00000000000E+00 0.  1.
         21    1    1    2  505  501 -0.54156633293E+02  0.11605854169E+03 -0.31149029819E+03  0.33679182279E+03  0.00000000000E+00 0.  1.
         21    1    1    2  506  505 -0.67385563288E+02  0.89986418753E+02 -0.39607661135E+03  0.41172205643E+03  0.00000000000E+00 0.  1.
<scales pt_clust_3="57.14353" pt_clust_4="57.14353" pt_clust_5="244.17636" pt_clust_6="45.85152"></scales>
<clustering>
<clus scale="   45.852">  5  6 -1 -1</clus>
<clus scale="   57.144">  3  4 -1 -1</clus>
<clus scale="  244.176">  2  5  1 -1</clus>
<clus scale="  252.608">  1  3  2 -1</clus>
</clustering>
</event>
<event>
 6    0  0.3446372E+002  0.1150454E+03  0.7546771E-02  0.1251502E+00
         21   -1    0    0  503  501  0.00000000000E+00  0.00000000000E+00  0.38035858397E+03  0.38035858397E+03  0.00000000000E+00 0.  1.
         21   -1    0    0  506  502 -0.00000000000E+00 -0.00000000000E+00 -0.12978523927E+03  0.12978523927E+03  0.00000000000E+00 0.  1.
         21    1    1    2  503  502  0.34540762890E+02 -0.19255022445E+02 -0.42887270770E+02  0.58336422452E+02  0.00000000000E+00 0.  1.
         21    1    1    2  504  501  0.16825763555E+02  0.10392507422E+03  0.32096475993E+03  0.33778973413E+03  0.00000000000E+00 0.  1.
         21    1    1    2  505  504  0.48025734231E+01 -0.34420164954E+02 -0.35394228114E+01  0.34933364865E+02  0.00000000000E+00 0.  1.
         21    1    1    2  506  505 -0.56169099868E+02 -0.50249886820E+02 -0.23964721644E+02  0.79084301786E+02  0.00000000000E+00 0.  1.
<scales pt_clust_3="39.54517" pt_clust_4="103.92036" pt_clust_5="33.51600" pt_clust_6="33.51600"></scales>
<clustering>
<clus scale="   33.516">  5  6 -1 -1</clus>
<clus scale="   39.545">  2  3  1 -1</clus>
<clus scale="  103.920">  1  4  2 -1</clus>
<clus scale="  103.920">  1  3  2 -1</clus>
</clustering>
</event>
<event>
 6    0  0.3446372E+002  0.9823677E+02  0.7546771E-02  0.1284048E+00
         21   -1    0    0  504  501  0.00000000000E+00  0.00000000000E+00  0.14474168793E+03  0.14474168793E+03  0.00000000000E+00 0.  1.
         21   -1    0    0  506  502 -0.00000000000E+00 -0.00000000000E+00 -0.54020123233E+03  0.54020123233E+03  0.00000000000E+00 0. -1.
         21    1    1    2  503  502  0.45661257497E+02  0.87747125500E+02 -0.47429678642E+03  0.48450175447E+03  0.00000000000E+00 0. -1.
         21    1    1    2  504  505 -0.21359276476E+02 -0.26000294030E+02  0.59416162538E+02  0.68282606511E+02  0.00000000000E+00 0.  1.
         21    1    1    2  505  503 -0.59416328673E+02 -0.70603369753E+02  0.24788403935E+02  0.95548945065E+02  0.00000000000E+00 0. -1.
         21    1    1    2  506  501  0.35114347651E+02  0.88565382823E+01 -0.53673244469E+01  0.36609614216E+02  0.00000000000E+00 0. -1.
<scales pt_clust_3="98.23677" pt_clust_4="33.64868" pt_clust_5="14000.00000" pt_clust_6="31.22612"></scales>
<clustering>
<clus scale="   33.649">  1  4  2 -1</clus>
<clus scale="   31.226">  1  6  2 -1</clus>
<clus scale="   98.237">  2  3  1 -1</clus>
<clus scale="   33.649">  1  3  2 -1</clus>
</clustering>
</event>
<event>
 6    0  0.3744545E+002  0.1084941E+03  0.7546771E-02  0.1263384E+00
         21   -1    0    0  504  501  0.00000000000E+00  0.00000000000E+00  0.25572971558E+03  0.25572971558E+03  0.00000000000E+00 0. -1.
         21   -1    0    0  505  502 -0.00000000000E+00 -0.00000000000E+00 -0.73077371173E+03  0.73077371173E+03  0.00000000000E+00 0. -1.
         21    1    1    2  503  506  0.40187437145E+01  0.45745012127E+02 -0.12798491938E+03  0.13597387993E+03  0.00000000000E+00 0. -1.
         21    1    1    2  504  503 -0.14170133747E+02  0.30339524148E+02 -0.35360001671E+02  0.48699169748E+02  0.00000000000E+00 0.  1.
         21    1    1    2  505  501 -0.56001396548E+02  0.23304617907E+02  0.23476576050E+03  0.24247520272E+03  0.00000000000E+00 0. -1.
         21    1    1    2  506  502  0.66152786580E+02 -0.99389154182E+02 -0.54646483561E+03  0.55935517491E+03  0.00000000000E+00 0. -1.
<scales pt_clust_3="33.40888" pt_clust_4="33.40888" pt_clust_5="60.65692" pt_clust_6="101.19437"></scales>
<clustering>
<clus scale="   33.409">  3  4 -1 -1</clus>
<clus scale="   60.657">  1  5  2 -1</clus>
<clus scale="  101.194">  2  6  1 -1</clus>
<clus scale="   60.657">  1  3  2 -1</clus>
</clustering>
</event>
<event>
 6    0  0.3446372E+002  0.9768612E+02  0.7546771E-02  0.1285238E+00
         21   -1    0    0  504  501  0.00000000000E+00  0.00000000000E+00  0.64866967996E+02  0.64866967996E+02  0.00000000000E+00 0. -1.
         21   -1    0    0  506  502 -0.00000000000E+00 -0.00000000000E+00 -0.83400974370E+03  0.83400974370E+03  0.00000000000E+00 0. -1.
         21    1    1    2  503  502 -0.39096868540E+02  0.57229494520E+01 -0.13174833451E+03  0.13754614109E+03  0.00000000000E+00 0. -1.
         21    1    1    2  504  503  0.29546203670E+02  0.88575362045E+02 -0.43480379716E+01  0.93474479655E+02  0.00000000000E+00 0. -1.
         21    1    1    2  505  501  0.27872411607E+02 -0.13795102850E+03 -0.29894381942E+03  0.33041604798E+03  0.00000000000E+00 0. -1.
         21    1    1    2  506  505 -0.18321746737E+02  0.43652717000E+02 -0.33410258380E+03  0.33744004298E+03  0.00000000000E+00 0. -1.
<scales pt_clust_3="39.51351" pt_clust_4="14000.00000" pt_clust_5="97.68612" pt_clust_6="59.40414"></scales>
<clustering>
<clus scale="   39.514">  2  3  1 -1</clus>
<clus scale="   59.404">  2  6  1 -1</clus>
<clus scale="   97.686">  2  5  1 -1</clus>
<clus scale="   97.686">  1  3  2 -1</clus>
</clustering>
</event>
<event>
 6    0  0.3446372E+002  0.9637400E+02  0.7546771E-02  0.1288111E+00
         21   -1    0    0  502  501  0.00000000000E+00  0.00000000000E+00  0.63753314370E+03  0.63753314370E+03  0.00000000000E+00 0. -1.
         21   -1    0    0  504  502 -0.00000000000E+00 -0.00000000000E+00 -0.21524661182E+03  0.21524661182E+03  0.00000000000E+00 0. -1.
         21    1    1    2  503  501 -0.21556667279E+02 -0.24663351968E+02  0.47620883279E+03  0.47733407930E+03  0.00000000000E+00 0. -1.
         21    1    1    2  504  505  0.61749922051E+02  0.30834453034E+02 -0.11324502615E+03  0.13262070847E+03  0.00000000000E+00 0. -1.
         21    1    1    2  505  506  0.48140042735E+02 -0.48024111651E+02 -0.58524618752E+02  0.89715717767E+02  0.00000000000E+00 0. -1.
         21    1    1    2  506  503 -0.88333297507E+02  0.41853010586E+02  0.11784734399E+03  0.15310924998E+03  0.00000000000E+00 0. -1.
<scales pt_clust_3="32.75623" pt_clust_4="67.19839" pt_clust_5="14000.00000" pt_clust_6="96.37400"></scales>
<clustering>
<clus scale="   32.756">  1  3  2 -1</clus>
<clus scale="   67.198">  2  4  1 -1</clus>
<clus scale="   96.374">  1  6  2 -1</clus>
<clus scale="   32.756">  1  3  2 -1</clus>
</clustering>
</event>
<event>
 6    0  0.3446372E+002  0.9722354E+02  0.7546771E-02  0.1286245E+00
         21   -1    0    0  506  501  0.00000000000E+00  0.00000000000E+00  0.47816836101E+03  0.47816836101E+03  0.00000000000E+00 0.  1.
         21   -1    0    0  504  502 -0.00000000000E+00 -0.00000000000E+00 -0.55850510432E+03  0.55850510432E+03  0.00000000000E+00 0.  1.
         21    1    1    2  503  501  0.42853314300E+02  0.85902923953E+02  0.43048279883E+03  0.44105686592E+03  0.00000000000E+00 0.  1.
         21    1    1    2  504  505 -0.51226496482E+02 -0.15493056665E+02 -0.12168114723E+03  0.13293039659E+03  0.00000000000E+00 0.  1.
         21    1    1    2  505  503  0.24968411067E+02  0.77186692393E+02 -0.23510837419E+03  0.24871098618E+03  0.00000000000E+00 0.  1.
         21    1    1    2  506  502 -0.16595228885E+02 -0.14759655968E+03 -0.15403002072E+03  0.21397521664E+03  0.00000000000E+00 0.  1.
<scales pt_clust_3="97.22354" pt_clust_4="53.51812" pt_clust_5="68.59854" pt_clust_6="14000.00000"></scales>
<clustering>
<clus scale="   53.518">  2  4  1 -1</clus>
<clus scale="   68.599">  2  5  1 -1</clus>
<clus scale="   97.224">  1  3  2 -1</clus>
<clus scale="   97.224">  1  3  2 -1</clus>
</clustering>
</event>
<event>
 6    0  0.3446372E+002  0.6177169E+02  0.7546771E-02  0.1390544E+00
         21   -1    0    0  503  501  0.00000000000E+00  0.00000000000E+00  0.27867667630E+03  0.27867667630E+03  0.00000000000E+00 0.  1.
         21   -1    0    0  505  502 -0.00000000000E+00 -0.00000000000E+00 -0.51028304893E+03  0.51028304893E+03  0.00000000000E+00 0. -1.
         21    1    1    2  503  506 -0.11017020766E+02  0.94699170824E+02  0.19877323228E+03  0.22045431629E+03  0.00000000000E+00 0.  1.
         21    1    1    2  504  501  0.26403947650E+02 -0.43806045098E+02  0.28972702933E+02  0.58783973615E+02  0.00000000000E+00 0. -1.
         21    1    1    2  505  504 -0.53972846077E+02 -0.93324978345E+02 -0.10408419223E+03  0.14985372457E+03  0.00000000000E+00 0. -1.
         21    1    1    2  506  502  0.38585919193E+02  0.42431852620E+02 -0.35526811560E+03  0.35986771075E+03  0.00000000000E+00 0. -1.
<scales pt_clust_3="56.99184" pt_clust_4="51.14820" pt_clust_5="61.77169" pt_clust_6="14000.00000"></scales>
<clustering>
<clus scale="   51.148">  1  4  2 -1</clus>
<clus scale="   56.992">  1  3  2 -1</clus>
<clus scale="   61.772">  1  5  2 -1</clus>
<clus scale="   51.148">  1  3  2 -1</clus>
</clustering>
</event>
<event>
 6    0  0.3446372E+002  0.1959553E+03  0.7546771E-02  0.1153197E+00
         21   -1    0    0  505  501  0.00000000000E+00  0.00000000000E+00  0.11204491752E+04  0.11204491752E+04  0.00000000000E+00 0.  1.
         21   -1    0    0  506  502 -0.00000000000E+00 -0.00000000000E+00 -0.46478786747E+03  0.46478786747E+03  0.00000000000E+00 0.  1.
         21    1    1    2  503  504 -0.44480341952E+02 -0.50366249066E+02 -0.11498128083E+03  0.13317640485E+03  0.00000000000E+00 0.  1.
         21    1    1    2  504  501  0.10093529177E+03  0.10357138747E+03  0.87322471405E+03  0.88511940813E+03  0.00000000000E+00 0.  1.
         21    1    1    2  505  502  0.61476433070E+02 -0.51535741317E+01  0.21558363539E+03  0.22423696171E+03  0.00000000000E+00 0.  1.
         21    1    1    2  506  503 -0.11793138288E+03 -0.48051564272E+02 -0.31816576087E+03  0.34270426798E+03  0.00000000000E+00 0.  1.
<scales pt_clust_3="38.31696" pt_clust_4="188.72214" pt_clust_5="61.69207" pt_clust_6="38.31696"></scales>
<clustering>
<clus scale="   38.317">  3  6 -1 -1</clus>
<clus scale="   61.692">  1  5  2 -1</clus>
<clus scale="  188.722">  1  4  2 -1</clus>
<clus scale="   61.692">  1  3  2 -1</clus>
</clustering>
</event>
<event>
 6    0  0.3446372E+002  0.1013505E+03  0.7546771E-02  0.1277481E+00
         21   -1    0    0  506  501  0.00000000000E+00  0.00000000000E+00  0.66179266132E+02  0.66179266132E+02  0.00000000000E+00 0. -1.
         21   -1    0    0  503  502 -0.00000000000E+00 -0.00000000000E+00 -0.45914077662E+03  0.45914077662E+03  0.00000000000E+00 0. -1.
         21    1    1    2  503  505 -0.22650715987E+02 -0.30049920765E+02 -0.12823202220E+03  0.13363945597E+03  0.00000000000E+00 0. -1.
         21    1    1    2  504  502 -0.77544514915E+02  0.39463490047E+02 -0.19489397359E+03  0.21343425166E+03  0.00000000000E+00 0. -1.
         21    1    1    2  505  501 -0.23596873165E+02  0.25924661306E+02 -0.18637221350E+02  0.39701971067E+02  0.00000000000E+00 0.  1.
         21    1    1    2  506  504  0.12379210407E+03 -0.35338230588E+02 -0.51198293343E+02  0.13854436406E+03  0.00000000000E+00 0. -1.
<scales pt_clust_3="37.35224" pt_clust_4="101.35049" pt_clust_5="35.05568" pt_clust_6="14000.00000"></scales>
<clustering>
<clus scale="   35.056">  1  5  2 -1</clus>
<clus scale="   37.352">  2  3  1 -1</clus>
<clus scale="  101.350">  2  4  1 -1</clus>
<clus scale="   35.056">  1  3  2 -1</clus>
</clustering>
</event>
<event>
 6    0  0.3446372E+002  0.6986641E+02  0.7546771E-02  0.1360548E+00
         21   -1    0    0  503  501  0.00000000000E+00  0.00000000000E+00  0.39844868897E+02  0.39844868897E+02  0.00000000000E+00 0.  1.
         21   -1    0    0  504  502 -0.00000000000E+00 -0.00000000000E+00 -0.60848616200E+03  0.60848616200E+03  0.00000000000E+00 0.  1.
         21    1    1    2  503  505  0.20877046677E+02  0.35554308946E+02 -0.36160192153E+02  0.54840855748E+02  0.00000000000E+00 0.  1.
         21    1    1    2  504  501 -0.96131810949E+02  0.63647005568E+02 -0.17606283415E+03  0.21045281647E+03  0.00000000000E+00 0.  1.
         21    1    1    2  505  506  0.35877918666E+02 -0.52236351830E+02 -0.92696203085E+02  0.11228734375E+03  0.00000000000E+00 0.  1.
         21    1    1    2  506  502  0.39376845606E+02 -0.46964962685E+02 -0.26372206373E+03  0.27075001493E+03  0.00000000000E+00 0.  1.
<scales pt_clust_3="41.23057" pt_clust_4="14000.00000" pt_clust_5="58.98668" pt_clust_6="69.86641"></scales>
<clustering>
<clus scale="   41.231">  1  3  2 -1</clus>
<clus scale="   58.987">  1  5  2 -1</clus>
<clus scale="   69.866">  2  6  1 -1</clus>
<clus scale="   41.231">  1  3  2 -1</clus>
</clustering>
</event>
<event>
 6    0  0.3446372E+002  0.9924157E+02  0.7546771E-02  0.1281899E+00
         21   -1    0    0  506  501  0.00000000000E+00  0.00000000000E+00  0.34927875120E+02  0.34927875120E+02  0.00000000000E+00 0. -1.
         21   -1    0    0  504  502 -0.00000000000E+00 -0.00000000000E+00 -0.12433105845E+04  0.12433105845E+04  0.00000000000E+00 0. -1.
         21    1    1    2  503  501  0.17477618890E+02  0.27043748902E+02  0.53018901581E+01  0.32633442294E+02  0.00000000000E+00 0. -1.
         21    1    1    2  504  505  0.10283333844E+03  0.89699553764E+00 -0.84458787521E+03  0.85082558674E+03  0.00000000000E+00 0. -1.
         21    1    1    2  505  503 -0.32828759975E+02 -0.31093112704E+02 -0.19169005211E+03  0.19695071773E+03  0.00000000000E+00 0. -1.
         21    1    1    2  506  502 -0.87482197356E+02  0.31523682649E+01 -0.17740667219E+03  0.19782871282E+03  0.00000000000E+00 0. -1.
<scales pt_clust_3="32.19987" pt_clust_4="14000.00000" pt_clust_5="40.07977" pt_clust_6="99.24157"></scales>
<clustering>
<clus scale="   32.200">  1  3  2 -1</clus>
<clus scale="   40.080">  1  5  2 -1</clus>
<clus scale="   99.242">  1  6  2 -1</clus>
<clus scale="   32.200">  1  3  2 -1</clus>
</clustering>
</event>
<event>
 6    0  0.3446372E+002  0.1273655E+03  0.7546771E-02  0.1231418E+00
         21   -1    0    0  506  501  0.00000000000E+00  0.00000000000E+00  0.13514273199E+03  0.13514273199E+03  0.00000000000E+00 0. -1.
         21   -1    0    0  504  502 -0.00000000000E+00 -0.00000000000E+00 -0.29515443254E+03  0.29515443254E+03  0.00000000000E+00 0.  1.
         21    1    1    2  503  501 -0.25287009674E+02 -0.23439101298E+02 -0.13727727522E+01  0.34506649112E+02  0.00000000000E+00 0. -1.
         21    1    1    2  504  503 -0.24537275826E+02  0.22898212747E+02 -0.57757868479E+02  0.66801028609E+02  0.00000000000E+00 0.  1.
         21    1    1    2  505  502  0.33111418117E+02  0.11478561149E+03 -0.15967632602E+03  0.19942074041E+03  0.00000000000E+00 0.  1.
         21    1    1    2  506  505  0.16712867384E+02 -0.11424472294E+03  0.58795266704E+02  0.12956874639E+03  0.00000000000E+00 0. -1.
<scales pt_clust_3="34.76225" pt_clust_4="33.56197" pt_clust_5="14000.00000" pt_clust_6="127.36549"></scales>
<clustering>
<clus scale="   33.562">  2  4  1 -1</clus>
<clus scale="   34.762">  1  3  2 -1</clus>
<clus scale="  127.365">  1  6  2 -1</clus>
<clus scale="   34.762">  1  3  2 -1</clus>
</clustering>
</event>
<event>
 6    0  0.3446372E+002  0.1018885E+03  0.7546771E-02  0.1276374E+00
         21   -1    0    0  503  501  0.00000000000E+00  0.00000000000E+00  0.96972532716E+03  0.96972532716E+03  0.00000000000E+00 0. -1.
         21   -1    0    0  506  502 -0.00000000000E+00 -0.00000000000E+00 -0.31020599592E+03  0.31020599592E+03  0.00000000000E+00 0.  1.
         21    1    1    2  503  504  0.47573022964E+02 -0.89628726632E+02  0.91520470261E+03  0.92081276535E+03  0.00000000000E+00 0. -1.
         21    1    1    2  504  502  0.30532185957E+02  0.14565939646E+02  0.13646984065E+02  0.36477680177E+02  0.00000000000E+00 0. -1.
         21    1    1    2  505  501 -0.10102561880E+03  0.10106020396E+03 -0.21263358942E+03  0.25618818050E+03  0.00000000000E+00 0.  1.
         21    1    1    2  506  505  0.22920409883E+02 -0.25997416976E+02 -0.56698766009E+02  0.66452697053E+02  0.00000000000E+00 0. -1.
<scales pt_clust_3="101.88846" pt_clust_4="33.82870" pt_clust_5="14000.00000" pt_clust_6="37.17759"></scales>
<clustering>
<clus scale="   33.829">  2  4  1 -1</clus>
<clus scale="   37.178">  2  6  1 -1</clus>
<clus scale="  101.888">  1  3  2 -1</clus>
<clus scale="  101.888">  1  3  2 -1</clus>
</clustering>
</event>
<event>
 6    0  0.3446372E+002  0.1586862E+03  0.7546771E-02  0.1190188E+00
         21   -1    0    0  504  501  0.00000000000E+00  0.00000000000E+00  0.34007059404E+03  0.34007059404E+03  0.00000000000E+00 0.  1.
         21   -1    0    0  501  502 -0.00000000000E+00 -0.00000000000E+00 -0.60242250731E+03  0.60242250731E+03  0.00000000000E+00 0.  1.
         21    1    1    2  503  506  0.24041169734E+02 -0.46740652436E+02 -0.32857969110E+02  0.61986390170E+02  0.00000000000E+00 0.  1.
         21    1    1    2  504  503 -0.10795875886E+03  0.75817156970E+02  0.28206055741E+03  0.31138640457E+03  0.00000000000E+00 0.  1.
         21    1    1    2  505  502 -0.32767036257E+02  0.81648654632E+02 -0.19980472860E+03  0.21831653863E+03  0.00000000000E+00 0. -1.
         21    1    1    2  506  505  0.11668462538E+03 -0.11072515917E+03 -0.31174977297E+03  0.35080376797E+03  0.00000000000E+00 0.  1.
<scales pt_clust_3="47.96872" pt_clust_4="134.68229" pt_clust_5="87.97830" pt_clust_6="47.96872"></scales>
<clustering>
<clus scale="   47.969">  3  6 -1 -1</clus>
<clus scale="   87.978">  2  5  1 -1</clus>
<clus scale="  134.682">  1  4  2 -1</clus>
<clus scale="  134.682">  1  3  2 -1</clus>
</clustering>
</event>
<event>
 6    0  0.3446372E+002  0.1424663E+03  0.7546771E-02  0.1210048E+00
         21   -1    0    0  502  501  0.00000000000E+00  0.00000000000E+00  0.73873076973E+02  0.73873076973E+02  0.00000000000E+00 0.  1.
         21   -1    0    0  506  502 -0.00000000000E+00 -0.00000000000E+00 -0.73651870867E+03  0.73651870867E+03  0.00000000000E+00 0.  1.
         21    1    1    2  503  504 -0.26061791587E+02 -0.85142273304E+02 -0.38639440476E+01  0.89125494376E+02  0.00000000000E+00 0.  1.
         21    1    1    2  504  501 -0.66965223149E+02 -0.22993540181E+02 -0.34704314286E+02  0.78850703431E+02  0.00000000000E+00 0.  1.
         21    1    1    2  505  503  0.59898071935E+02  0.44921948466E+02 -0.40928032202E+03  0.41607228034E+03  0.00000000000E+00 0.  1.
         21    1    1    2  506  505  0.33128942802E+02  0.63213865019E+02 -0.21479705134E+03  0.22634330749E+03  0.00000000000E+00 0.  1.
<scales pt_clust_3="131.98034" pt_clust_4="70.80285" pt_clust_5="52.37562" pt_clust_6="52.37562"></scales>
<clustering>
<clus scale="   52.376">  5  6 -1 -1</clus>
<clus scale="   70.803">  1  4  2 -1</clus>
<clus scale="  131.980">  1  3  2 -1</clus>
<clus scale="   70.803">  1  3  2 -1</clus>
</clustering>
</event>
<event>
 6    0  0.3446372E+002  0.8485408E+02  0.7546771E-02  0.1315815E+00
         21   -1    0    0  503  501  0.00000000000E+00  0.00000000000E+00  0.29630542148E+03  0.29630542148E+03  0.00000000000E+00 0. -1.
         21   -1    0    0  504  502 -0.00000000000E+00 -0.00000000000E+00 -0.21966796510E+03  0.21966796510E+03  0.00000000000E+00 0. -1.
         21    1    1    2  503  502 -0.75772556820E+01 -0.30344683900E+02 -0.27946685865E+02  0.41943198442E+02  0.00000000000E+00 0.  1.
         21    1    1    2  504  505  0.32732155290E+02 -0.31091457634E+02 -0.14314673829E+03  0.15009684011E+03  0.00000000000E+00 0. -1.
         21    1    1    2  505  506 -0.32116731776E+02  0.13035570018E+03  0.12735612505E+03  0.18505046776E+03  0.00000000000E+00 0. -1.
         21    1    1    2  506  501  0.69618321684E+01 -0.68919558646E+02  0.12037475549E+03  0.13888288026E+03  0.00000000000E+00 0. -1.
<scales pt_clust_3="31.27642" pt_clust_4="61.30550" pt_clust_5="14000.00000" pt_clust_6="84.85408"></scales>
<clustering>
<clus scale="   31.276">  2  3  1 -1</clus>
<clus scale="   61.306">  2  4  1 -1</clus>
<clus scale="   84.854">  1  6  2 -1</clus>
<clus scale="   84.854">  1  3  2 -1</clus>
</clustering>
</event>
<event>
 6    0  0.3446372E+002  0.3197086E+03  0.7546771E-02  0.1075783E+00
         21   -1    0    0  503  501  0.00000000000E+00  0.00000000000E+00  0.36852691923E+03  0.36852691923E+03  0.00000000000E+00 0. -1.
         21   -1    0    0  505  502 -0.00000000000E+00 -0.00000000000E+00 -0.32432860853E+03  0.32432860853E+03  0.00000000000E+00 0. -1.
         21    1    1    2  503  506 -0.43238232528E+02  0.29363243863E+01  0.51808225272E+02  0.67544496141E+02  0.00000000000E+00 0. -1.
         21    1    1    2  504  502 -0.49918133448E+02  0.58884569893E+01 -0.73820252840E+01  0.50803427739E+02  0.00000000000E+00 0.  1.
         21    1    1    2  505  501  0.27007362243E+03  0.17303316838E+03 -0.35615578454E+01  0.32076926845E+03  0.00000000000E+00 0. -1.
         21    1    1    2  506  504 -0.17691725645E+03 -0.18185794975E+03  0.33336685537E+01  0.25373833543E+03  0.00000000000E+00 0. -1.
<scales pt_clust_3="43.33782" pt_clust_4="45.47625" pt_clust_5="303.15652" pt_clust_6="45.47625"></scales>
<clustering>
<clus scale="   43.338">  1  3  2 -1</clus>
<clus scale="   45.476">  4  6 -1 -1</clus>
<clus scale="  303.157">  1  5  2 -1</clus>
<clus scale="   43.338">  1  3  2 -1</clus>
</clustering>
</event>
<event>
 6    0  0.3446372E+002  0.1265987E+03  0.7546771E-02  0.1232592E+00
         21   -1    0    0  503  501  0.00000000000E+00  0.00000000000E+00  0.12749391734E+04  0.12749391734E+04  0.00000000000E+00 0. -1.
         21   -1    0    0  506  502 -0.00000000000E+00 -0.00000000000E+00 -0.37932441921E+02  0.37932441921E+02  0.00000000000E+00 0. -1.
         21    1    1    2  503  505 -0.90178201058E+02 -0.12622909827E+01  0.22321594929E+03  0.24074688231E+03  0.00000000000E+00 0. -1.
         21    1    1    2  504  501  0.15216974617E+03  0.13068720937E+02  0.92491564979E+03  0.93744086872E+03  0.00000000000E+00 0. -1.
         21    1    1    2  505  502 -0.51740655993E+01 -0.36196015008E+02  0.48889855960E+02  0.61050310999E+02  0.00000000000E+00 0. -1.
         21    1    1    2  506  504 -0.56817479510E+02  0.24389585053E+02  0.39985276409E+02  0.73633553266E+02  0.00000000000E+00 0. -1.
<scales pt_clust_3="14000.00000" pt_clust_4="126.59870" pt_clust_5="36.56395" pt_clust_6="59.78322"></scales>
<clustering>
<clus scale="   36.564">  2  5  1 -1</clus>
<clus scale="   59.783">  2  6  1 -1</clus>
<clus scale="  126.599">  1  4  2 -1</clus>
<clus scale="  126.599">  1  3  2 -1</clus>
</clustering>
</event>
<event>
 6    0  0.3446372E+002  0.1348850E+03  0.7546771E-02  0.1220382E+00
         21   -1    0    0  502  501  0.00000000000E+00  0.00000000000E+00  0.26172598664E+03  0.26172598664E+03  0.00000000000E+00 0.  1.
         21   -1    0    0  504  502 -0.00000000000E+00 -0.00000000000E+00 -0.41639416768E+03  0.41639416768E+03  0.00000000000E+00 0. -1.
         21    1    1    2  503  506  0.45300154842E+02  0.10597577497E+03  0.20457714175E+03  0.23480795522E+03  0.00000000000E+00 0.  1.
         21    1    1    2  504  505 -0.37328383384E+02 -0.68019165526E+02 -0.29676359265E+03  0.30673872433E+03  0.00000000000E+00 0. -1.
         21    1    1    2  505  503 -0.37765135030E+02 -0.32039738947E+02 -0.85264126996E+02  0.98603862237E+02  0.00000000000E+00 0. -1.
         21    1    1    2  506  501  0.29793363572E+02 -0.59168704921E+01  0.22782396843E+02  0.37969612525E+02  0.00000000000E+00 0. -1.
<scales pt_clust_3="124.44822" pt_clust_4="41.38973" pt_clust_5="41.38973" pt_clust_6="30.37522"></scales>
<clustering>
<clus scale="   30.375">  1  6  2 -1</clus>
<clus scale="   41.390">  4  5 -1 -1</clus>
<clus scale="  124.448">  1  3  2 -1</clus>
<clus scale="   30.375">  1  3  2 -1</clus>
</clustering>
</event>
<event>
 6    0  0.3446372E+002  0.8311553E+02  0.7546771E-02  0.1320435E+00
         21   -1    0    0  503  501  0.00000000000E+00  0.00000000000E+00  0.60666569729E+03  0.60666569729E+03  0.00000000000E+00 0.  1.
         21   -1    0    0  504  502 -0.00000000000E+00 -0.00000000000E+00 -0.68062492750E+02  0.68062492750E+02  0.00000000000E+00 0. -1.
         21    1    1    2  503  505 -0.68330391839E+02  0.41903927198E+02  0.37352551183E+03  0.38202917369E+03  0.00000000000E+00 0.  1.
         21    1    1    2  504  506  0.77115375848E+02 -0.76368267307E+02 -0.15021536039E+01  0.10854100566E+03  0.00000000000E+00 0. -1.
         21    1    1    2  505  502 -0.30111847180E+02  0.96769033191E+01  0.29564092844E+02  0.43294357417E+02  0.00000000000E+00 0. -1.
         21    1    1    2  506  501  0.21326863171E+02  0.24787436789E+02  0.13701575347E+03  0.14086365327E+03  0.00000000000E+00 0. -1.
<scales pt_clust_3="14000.00000" pt_clust_4="83.11553" pt_clust_5="31.62856" pt_clust_6="32.32559"></scales>
<clustering>
<clus scale="   31.629">  2  5  1 -1</clus>
<clus scale="   32.326">  1  6  2 -1</clus>
<clus scale="   83.116">  2  4  1 -1</clus>
<clus scale="   32.326">  1  3  2 -1</clus>
</clustering>
</event>
<event>
 6    0  0.3446372E+002  0.6989658E+02  0.7546771E-02  0.1360445E+00
         21   -1    0    0  503  501  0.00000000000E+00  0.00000000000E+00  0.67068398472E+03  0.67068398472E+03  0.00000000000E+00 0.  1.
         21   -1    0    0  506  502 -0.00000000000E+00 -0.00000000000E+00 -0.19841819980E+03  0.19841819980E+03  0.00000000000E+00 0.  1.
         21    1    1    2  503  504  0.10755528635E+02  0.41373599441E+02  0.40325163753E+03  0.40551120736E+03  0.00000000000E+00 0.  1.
         21    1    1    2  504  502  0.76929399939E+02  0.48243387957E+02 -0.11621879043E+03  0.14748682756E+03  0.00000000000E+00 0.  1.
         21    1    1    2  505  501 -0.79037207643E+02 -0.37292143767E+02  0.23041562692E+03  0.24643243559E+03  0.00000000000E+00 0.  1.
         21    1    1    2  506  505 -0.86477209308E+01 -0.52324843630E+02 -0.45182689102E+02  0.69671714008E+02  0.00000000000E+00 0.  1.
<scales pt_clust_3="42.74876" pt_clust_4="69.89658" pt_clust_5="14000.00000" pt_clust_6="51.07742"></scales>
<clustering>
<clus scale="   42.749">  1  3  2 -1</clus>
<clus scale="   51.077">  2  6  1 -1</clus>
<clus scale="   69.897">  2  4  1 -1</clus>
<clus scale="   42.749">  1  3  2 -1</clus>
</clustering>
</event>
<event>
 6    0  0.3446372E+002  0.1157535E+03  0.7546771E-02  0.1250271E+00
         21   -1    0    0  506  501  0.00000000000E+00  0.00000000000E+00  0.23284478227E+03  0.23284478227E+03  0.00000000000E+00 0.  1.
         21   -1    0    0  505  502 -0.00000000000E+00 -0.00000000000E+00 -0.23555684995E+03  0.23555684995E+03  0.00000000000E+00 0.  1.
         21    1    1    2  503  504  0.42072946195E+02 -0.16038399926E+02 -0.18133248377E+02  0.48540475589E+02  0.00000000000E+00 0.  1.
         21    1    1    2  504  501 -0.11097801672E+03  0.54853407119E+02  0.18113936967E+03  0.21940029105E+03  0.00000000000E+00 0.  1.
         21    1    1    2  505  503  0.30792638074E+02  0.23982981206E+02 -0.50641872699E+02  0.63937228729E+02  0.00000000000E+00 0. -1.
         21    1    1    2  506  502  0.38112432448E+02 -0.62797988399E+02 -0.11507631627E+03  0.13652363686E+03  0.00000000000E+00 0.  1.
<scales pt_clust_3="49.20689" pt_clust_4="14000.00000" pt_clust_5="39.03037" pt_clust_6="115.75353"></scales>
<clustering>
<clus scale="   39.030">  2  5  1 -1</clus>
<clus scale="   49.207">  2  3  1 -1</clus>
<clus scale="  115.754">  2  6  1 -1</clus>
<clus scale="  115.754">  1  3  2 -1</clus>
</clustering>
</event>
<event>
 6    0  0.6938441E+002  0.1258136E+03  0.7546771E-02  0.1233803E+00
         21   -1    0    0  503  501  0.00000000000E+00  0.00000000000E+00  0.20621250024E+04  0.20621250024E+04  0.00000000000E+00 0.  1.
         21   -1    0    0  504  502 -0.00000000000E+00 -0.00000000000E+00 -0.37124105359E+03  0.37124105359E+03  0.00000000000E+00 0. -1.
         21    1    1    2  503  506 -0.21510515768E+02 -0.21315520215E+02  0.63054701953E+02  0.69949618505E+02  0.00000000000E+00 0.  1.
         21    1    1    2  504  505  0.66014842398E+01 -0.35919458777E+02 -0.20797192679E+02  0.42027495004E+02  0.00000000000E+00 0.  1.
         21    1    1    2  505  501 -0.89205548545E+02  0.82031033880E+02  0.19745895221E+04  0.19783049566E+04  0.00000000000E+00 0.  1.
         21    1    1    2  506  502  0.10411458007E+03 -0.24796054888E+02 -0.32596308262E+03  0.34308398586E+03  0.00000000000E+00 0. -1.
<scales pt_clust_3="30.28289" pt_clust_4="36.61212" pt_clust_5="14000.00000" pt_clust_6="125.81360"></scales>
<clustering>
<clus scale="   30.283">  1  3  2 -1</clus>
<clus scale="   36.612">  2  4  1 -1</clus>
<clus scale="  125.814">  2  6  1 -1</clus>
<clus scale="   30.283">  1  3  2 -1</clus>
</clustering>
</event>
<event>
 6    0  0.3446372E+002  0.1891826E+03  0.7546771E-02  0.1159201E+00
         21   -1    0    0  506  501  0.00000000000E+00  0.00000000000E+00  0.19811663661E+04  0.19811663661E+04  0.00000000000E+00 0. -1.
         21   -1    0    0  503  502 -0.00000000000E+00 -0.00000000000E+00 -0.15916881990E+03  0.15916881990E+03  0.00000000000E+00 0. -1.
         21    1    1    2  503  505  0.26751837825E+02  0.11257564992E+03  0.79910042548E+03  0.80743447275E+03  0.00000000000E+00 0. -1.
         21    1    1    2  504  502  0.11479325460E+03  0.89800912400E+02  0.36268302681E+02  0.15019016262E+03  0.00000000000E+00 0. -1.
         21    1    1    2  505  501  0.10368552353E+03 -0.28529528627E+02  0.84251321418E+03  0.84934865507E+03  0.00000000000E+00 0. -1.
         21    1    1    2  506  504 -0.24523061595E+03 -0.17384703369E+03  0.14411560382E+03  0.33336189553E+03  0.00000000000E+00 0. -1.
<scales pt_clust_3="136.23210" pt_clust_4="189.18262" pt_clust_5="107.53893" pt_clust_6="14000.00000"></scales>
<clustering>
<clus scale="  107.539">  1  5  2 -1</clus>
<clus scale="  136.232">  1  3  2 -1</clus>
<clus scale="  189.183">  2  4  1 -1</clus>
<clus scale="  107.539">  1  3  2 -1</clus>
</clustering>
</event>
<event>
 6    0  0.3446372E+002  0.8887034E+02  0.7546771E-02  0.1305611E+00
         21   -1    0    0  506  501  0.00000000000E+00  0.00000000000E+00  0.10395045086E+04  0.10395045086E+04  0.00000000000E+00 0.  1.
         21   -1    0    0  503  502 -0.00000000000E+00 -0.00000000000E+00 -0.38457173762E+02  0.38457173762E+02  0.00000000000E+00 0.  1.
         21    1    1    2  503  505 -0.32317996288E+02 -0.20930682318E+02  0.23618388119E+02  0.45170505906E+02  0.00000000000E+00 0.  1.
         21    1    1    2  504  502  0.41021530082E+02 -0.45872716640E+02  0.34624955863E+02  0.70611327921E+02  0.00000000000E+00 0.  1.
         21    1    1    2  505  501  0.47586408872E+02  0.11021016856E+03  0.63818801067E+03  0.64938023109E+03  0.00000000000E+00 0.  1.
         21    1    1    2  506  504 -0.56289942666E+02 -0.43406769600E+02  0.30461598019E+03  0.31279961746E+03  0.00000000000E+00 0.  1.
<scales pt_clust_3="38.50385" pt_clust_4="62.75512" pt_clust_5="14000.00000" pt_clust_6="88.87034"></scales>
<clustering>
<clus scale="   38.504">  2  3  1 -1</clus>
<clus scale="   62.755">  2  4  1 -1</clus>
<clus scale="   88.870">  1  6  2 -1</clus>
<clus scale="   88.870">  1  3  2 -1</clus>
</clustering>
</event>
<event>
 6    0  0.3446372E+002  0.9102948E+02  0.7546771E-02  0.1300378E+00
         21   -1    0    0  504  501  0.00000000000E+00  0.00000000000E+00  0.25757344531E+03  0.25757344531E+03  0.00000000000E+00 0.  1.
         21   -1    0    0  506  502 -0.00000000000E+00 -0.00000000000E+00 -0.79638080684E+03  0.79638080684E+03  0.00000000000E+00 0.  1.
         21    1    1    2  503  505  0.73684517788E+02  0.11292974586E+03 -0.23880648309E+03  0.27424637104E+03  0.00000000000E+00 0.  1.
         21    1    1    2  504  503  0.34582669415E+02 -0.20680630801E+02  0.47514525264E+02  0.62299916735E+02  0.00000000000E+00 0.  1.
         21    1    1    2  505  502 -0.77024217814E+02 -0.21494142464E+02 -0.52118992554E+03  0.52728897843E+03  0.00000000000E+00 0.  1.
         21    1    1    2  506  501 -0.31242969389E+02 -0.70754972592E+02  0.17367452183E+03  0.19011898595E+03  0.00000000000E+00 0.  1.
<scales pt_clust_3="91.02948" pt_clust_4="40.29453" pt_clust_5="79.55068" pt_clust_6="14000.00000"></scales>
<clustering>
<clus scale="   40.295">  1  4  2 -1</clus>
<clus scale="   79.551">  2  5  1 -1</clus>
<clus scale="   91.029">  2  3  1 -1</clus>
<clus scale="   40.295">  1  3  2 -1</clus>
</clustering>
</event>
<event>
 6    0  0.3482392E+002  0.1108970E+03  0.7546771E-02  0.1258918E+00
         21   -1    0    0  504  501  0.00000000000E+00  0.00000000000E+00  0.81448538983E+03  0.81448538983E+03  0.00000000000E+00 0.  1.
         21   -1    0    0  505  502 -0.00000000000E+00 -0.00000000000E+00 -0.10682042400E+04  0.10682042400E+04  0.00000000000E+00 0.  1.
         21    1    1    2  503  501  0.13395534177E+02 -0.14711943422E+03  0.68668725077E+03  0.70239799874E+03  0.00000000000E+00 0.  1.
         21    1    1    2  504  506  0.28129884016E+01  0.38526863367E+02  0.87753545827E+02  0.95879700197E+02  0.00000000000E+00 0. -1.
         21    1    1    2  505  503 -0.57922000113E+02  0.60784928250E+02 -0.10164266786E+04  0.10198886991E+04  0.00000000000E+00 0.  1.
         21    1    1    2  506  502  0.41713477534E+02  0.47807642605E+02 -0.11732968180E+02  0.64523231799E+02  0.00000000000E+00 0.  1.
<scales pt_clust_3="14000.00000" pt_clust_4="38.62942" pt_clust_5="110.89705" pt_clust_6="64.58092"></scales>
<clustering>
<clus scale="   38.629">  1  4  2 -1</clus>
<clus scale="   64.581">  2  6  1 -1</clus>
<clus scale="  110.897">  2  5  1 -1</clus>
<clus scale="   38.629">  1  3  2 -1</clus>
</clustering>
</event>
<event>
 6    0  0.3446372E+002  0.1288430E+03  0.7546771E-02  0.1229183E+00
         21   -1    0    0  504  501  0.00000000000E+00  0.00000000000E+00  0.69480101714E+03  0.69480101714E+03  0.00000000000E+00 0.  1.
         21   -1    0    0  503  502 -0.00000000000E+00 -0.00000000000E+00 -0.16616483524E+03  0.16616483524E+03  0.00000000000E+00 0.  1.
         21    1    1    2  503  505 -0.51134475471E+02  0.86469940743E+02 -0.89900422966E+02  0.13481050138E+03  0.00000000000E+00 0.  1.
         21    1    1    2  504  506 -0.72198736147E+02 -0.70561755488E+02  0.46482356977E+03  0.47566014112E+03  0.00000000000E+00 0.  1.
         21    1    1    2  505  501 -0.25905384135E+02 -0.35660530676E+02  0.54976653775E+02  0.70464138649E+02  0.00000000000E+00 0.  1.
         21    1    1    2  506  502  0.14923859575E+03  0.19752345421E+02  0.98736381316E+02  0.18003107123E+03  0.00000000000E+00 0.  1.
<scales pt_clust_3="99.84621" pt_clust_4="14000.00000" pt_clust_5="44.07678" pt_clust_6="128.84300"></scales>
<clustering>
<clus scale="   44.077">  1  5  2 -1</clus>
<clus scale="   99.846">  2  3  1 -1</clus>
<clus scale="  128.843">  2  6  1 -1</clus>
<clus scale="   44.077">  1  3  2 -1</clus>
</clustering>
</event>
<event>
 6    0  0.3446372E+002  0.1301183E+03  0.7546771E-02  0.1227280E+00
         21   -1    0    0  504  501  0.00000000000E+00  0.00000000000E+00  0.18528122791E+03  0.18528122791E+03  0.00000000000E+00 0. -1.
         21   -1    0    0  501  502 -0.00000000000E+00 -0.00000000000E+00 -0.16562181144E+03  0.16562181144E+03  0.00000000000E+00 0. -1.
         21    1    1    2  503  505 -0.70575212575E+02 -0.31190457041E+02 -0.32689432300E+02  0.83799189880E+02  0.00000000000E+00 0. -1.
         21    1    1    2  504  506  0.31609456964E+02 -0.10853520348E+02  0.57579583164E+02  0.66576009725E+02  0.00000000000E+00 0. -1.
         21    1    1    2  505  502 -0.56327668155E+02 -0.89587783808E+01 -0.57044033396E+02  0.80666521283E+02  0.00000000000E+00 0. -1.
         21    1    1    2  506  503  0.95293423766E+02  0.51002755770E+02  0.51813299009E+02  0.11986131846E+03  0.00000000000E+00 0. -1.
<scales pt_clust_3="30.76653" pt_clust_4="33.42090" pt_clust_5="30.76653" pt_clust_6="125.10071"></scales>
<clustering>
<clus scale="   30.767">  3  5 -1 -1</clus>
<clus scale="   33.421">  1  4  2 -1</clus>
<clus scale="  125.101">  1  6  2 -1</clus>
<clus scale="   33.421">  1  3  2 -1</clus>
</clustering>
</event>
<event>
 6    0  0.3446372E+002  0.1207844E+03  0.7546771E-02  0.1241809E+00
         21   -1    0    0  506  501  0.00000000000E+00  0.00000000000E+00  0.66593979671E+03  0.66593979671E+03  0.00000000000E+00 0. -1.
         21   -1    0    0  505  502 -0.00000000000E+00 -0.00000000000E+00 -0.36932758012E+03  0.36932758012E+03  0.00000000000E+00 0. -1.
         21    1    1    2  503  504 -0.48861840468E+02  0.91185696222E+00 -0.15203225829E+03  0.15969382736E+03  0.00000000000E+00 0. -1.
         21    1    1    2  504  501  0.84542907229E+02 -0.10585274539E+02  0.46017869991E+03  0.46799998616E+03  0.00000000000E+00 0. -1.
         21    1    1    2  505  503 -0.44394230171E+02 -0.57306227854E+02 -0.19714770379E+03  0.21005253755E+03  0.00000000000E+00 0. -1.
         21    1    1    2  506  502  0.87131634102E+01  0.66979645430E+02  0.18561347876E+03  0.19752102576E+03  0.00000000000E+00 0. -1.
<scales pt_clust_3="44.28256" pt_clust_4="108.07484" pt_clust_5="44.28256" pt_clust_6="67.54400"></scales>
<clustering>
<clus scale="   44.283">  3  5 -1 -1</clus>
<clus scale="   67.544">  1  6  2 -1</clus>
<clus scale="  108.075">  1  4  2 -1</clus>
<clus scale="   67.544">  1  3  2 -1</clus>
</clustering>
</event>
<event>
 6    0  0.3446372E+002  0.1992539E+03  0.7546771E-02  0.1150370E+00
         21   -1    0    0  503  501  0.00000000000E+00  0.00000000000E+00  0.12877397674E+03  0.12877397674E+03  0.00000000000E+00 0. -1.
         21   -1    0    0  505  502 -0.00000000000E+00 -0.00000000000E+00 -0.73816759816E+03  0.73816759816E+03  0.00000000000E+00 0. -1.
         21    1    1    2  503  504  0.98471191695E+00  0.99224833960E+02 -0.24705231682E+02  0.10225891553E+03  0.00000000000E+00 0. -1.
         21    1    1    2  504  502 -0.53309449095E+02  0.72932617715E+02  0.39815233752E+02  0.98723436571E+02  0.00000000000E+00 0. -1.
         21    1    1    2  505  506  0.52115753062E+02  0.57295030705E+01 -0.11791043539E+03  0.12904165877E+03  0.00000000000E+00 0. -1.
         21    1    1    2  506  501  0.20898411700E+00 -0.17788695474E+03 -0.50659318809E+03  0.53691756403E+03  0.00000000000E+00 0. -1.
<scales pt_clust_3="83.30759" pt_clust_4="83.30759" pt_clust_5="52.42975" pt_clust_6="178.64094"></scales>
<clustering>
<clus scale="   52.430">  2  5  1 -1</clus>
<clus scale="   83.308">  3  4 -1 -1</clus>
<clus scale="  178.641">  2  6  1 -1</clus>
<clus scale="  199.254">  1  3  2 -1</clus>
</clustering>
</event>
<event>
 6    0  0.3446372E+002  0.1350867E+03  0.7546771E-02  0.1220097E+00
         21   -1    0    0  504  501  0.00000000000E+00  0.00000000000E+00  0.10890522792E+04  0.10890522792E+04  0.00000000000E+00 0. -1.
         21   -1    0    0  505  502 -0.00000000000E+00 -0.00000000000E+00 -0.14114497665E+03  0.14114497665E+03  0.00000000000E+00 0.  1.
         21    1    1    2  503  501 -0.12298325386E+03  0.83157920150E+02  0.77462590881E+03  0.78872391812E+03  0.00000000000E+00 0. -1.
         21    1    1    2  504  506 -0.77880219862E+01 -0.41014387759E+02  0.24484735988E+03  0.24838088278E+03  0.00000000000E+00 0. -1.
         21    1    1    2  505  503  0.12696651314E+02 -0.37033264986E+02 -0.63543393958E+02  0.74635317283E+02  0.00000000000E+00 0.  1.
         21    1    1    2  506  502  0.11807462453E+03 -0.51102674051E+01 -0.80225722086E+01  0.11845713763E+03  0.00000000000E+00 0.  1.
<scales pt_clust_3="14000.00000" pt_clust_4="42.58392" pt_clust_5="39.14930" pt_clust_6="135.08672"></scales>
<clustering>
<clus scale="   39.149">  2  5  1 -1</clus>
<clus scale="   42.584">  1  4  2 -1</clus>
<clus scale="  135.087">  2  6  1 -1</clus>
<clus scale="   42.584">  1  3  2 -1</clus>
</clustering>
</event>
<event>
 6    0  0.3446372E+002  0.1260838E+03  0.7546771E-02  0.1233385E+00
         21   -1    0    0  506  501  0.00000000000E+00  0.00000000000E+00  0.12256024205E+04  0.12256024205E+04  0.00000000000E+00 0.  1.
         21   -1    0    0  505  502 -0.00000000000E+00 -0.00000000000E+00 -0.67094938720E+02  0.67094938720E+02  0.00000000000E+00 0.  1.
         21    1    1    2  503  504 -0.19497854037E+02 -0.53378974933E+02  0.19307316867E+02  0.60018778408E+02  0.00000000000E+00 0.  1.
         21    1    1    2  504  502  0.25750793808E+02 -0.56673846211E+02 -0.56315239696E+01  0.62503938183E+02  0.00000000000E+00 0.  1.
         21    1    1    2  505  501  0.31524341903E+02  0.16700672758E+03  0.71353274548E+03  0.73349438311E+03  0.00000000000E+00 0.  1.
         21    1    1    2  506  503 -0.37777281673E+02 -0.56953906434E+02  0.43129894343E+03  0.43668025954E+03  0.00000000000E+00 0.  1.
<scales pt_clust_3="49.40837" pt_clust_4="49.40837" pt_clust_5="114.99156" pt_clust_6="68.34377"></scales>
<clustering>
<clus scale="   49.408">  3  4 -1 -1</clus>
<clus scale="   68.344">  1  6  2 -1</clus>
<clus scale="  114.992">  1  5  2 -1</clus>
<clus scale="   68.344">  1  3  2 -1</clus>
</clustering>
</event>
<event>
 6    0  0.3446372E+002  0.7642036E+02  0.7546771E-02  0.1339528E+00
         21   -1    0    0  505  501  0.00000000000E+00  0.00000000000E+00  0.47227818444E+03  0.47227818444E+03  0.00000000000E+00 0.  1.
         21   -1    0    0  504  502 -0.00000000000E+00 -0.00000000000E+00 -0.56917451662E+03  0.56917451662E+03  0.00000000000E+00 0. -1.
         21    1    1    2  503  501  0.11407421710E+03  0.70486153574E+02  0.70165239026E+02  0.15134194931E+03  0.00000000000E+00 0.  1.
         21    1    1    2  504  503 -0.30877638466E+02  0.13959036217E+02 -0.92913345597E+02  0.98899813141E+02  0.00000000000E+00 0. -1.
         21    1    1    2  505  506 -0.53120378901E+02 -0.47859400251E+02  0.35364671014E+03  0.36080228996E+03  0.00000000000E+00 0.  1.
         21    1    1    2  506  502 -0.30076199736E+02 -0.36585789540E+02 -0.42779493574E+03  0.43040864865E+03  0.00000000000E+00 0. -1.
<scales pt_clust_3="14000.00000" pt_clust_4="33.88633" pt_clust_5="76.42036" pt_clust_6="62.80930"></scales>
<clustering>
<clus scale="   33.886">  2  4  1 -1</clus>
<clus scale="   62.809">  2  6  1 -1</clus>
<clus scale="   76.420">  1  5  2 -1</clus>
<clus scale="   76.420">  1  3  2 -1</clus>
</clustering>
</event>
<event>
 6    0  0.3446372E+002  0.1485301E+03  0.7546771E-02  0.1202291E+00
         21   -1    0    0  506  501  0.00000000000E+00  0.00000000000E+00  0.31704568822E+03  0.31704568822E+03  0.00000000000E+00 0. -1.
         21   -1    0    0  503  502 -0.00000000000E+00 -0.00000000000E+00 -0.15042270307E+03  0.15042270307E+03  0.00000000000E+00 0. -1.
         21    1    1    2  503  501  0.31336246388E+02  0.11573299766E+02  0.14148632819E+03  0.14537634839E+03  0.00000000000E+00 0. -1.
         21    1    1    2  504  505  0.55570196037E+02  0.95257211826E+01  0.26215598669E+02  0.62177517362E+02  0.00000000000E+00 0. -1.
         21    1    1    2  505  502 -0.14995410984E+03  0.83565099905E+01 -0.66639106304E+02  0.16430714168E+03  0.00000000000E+00 0. -1.
         21    1    1    2  506  504  0.63047667414E+02 -0.29455530939E+02  0.65560164596E+02  0.95607383873E+02  0.00000000000E+00 0. -1.
<scales pt_clust_3="33.40511" pt_clust_4="39.98616" pt_clust_5="141.61675" pt_clust_6="39.98616"></scales>
<clustering>
<clus scale="   33.405">  1  3  2 -1</clus>
<clus scale="   39.986">  4  6 -1 -1</clus>
<clus scale="  141.617">  2  5  1 -1</clus>
<clus scale="   33.405">  1  3  2 -1</clus>
</clustering>
</event>
<event>
 6    0  0.3446372E+002  0.1273265E+03  0.7546771E-02  0.1231477E+00
         21   -1    0    0  504  501  0.00000000000E+00  0.00000000000E+00  0.84915179432E+03  0.84915179432E+03  0.00000000000E+00 0.  1.
         21   -1    0    0  503  502 -0.00000000000E+00 -0.00000000000E+00 -0.62551697477E+03  0.62551697477E+03  0.00000000000E+00 0.  1.
         21    1    1    2  503  506 -0.21503013503E+02 -0.48444093090E+02 -0.31803674685E+03  0.32242298629E+03  0.00000000000E+00 0.  1.
         21    1    1    2  504  502 -0.71287088288E+02  0.44884388372E+02  0.76639843584E+03  0.77101427985E+03  0.00000000000E+00 0.  1.
         21    1    1    2  505  501  0.84917046191E+02  0.10228303173E+03  0.29242238040E+01  0.13297095321E+03  0.00000000000E+00 0.  1.
         21    1    1    2  506  505  0.78730555997E+01 -0.98723327011E+02 -0.22765109325E+03  0.24826054974E+03  0.00000000000E+00 0.  1.
<scales pt_clust_3="53.00198" pt_clust_4="84.18384" pt_clust_5="14000.00000" pt_clust_6="127.32652"></scales>
<clustering>
<clus scale="   53.002">  2  3  1 -1</clus>
<clus scale="   84.184">  1  4  2 -1</clus>
<clus scale="  127.327">  2  6  1 -1</clus>
<clus scale="   84.184">  1  3  2 -1</clus>
</clustering>
</event>
<event>
 6    0  0.3446372E+002  0.9805350E+02  0.7546771E-02  0.1284443E+00
         21   -1    0    0  503  501  0.00000000000E+00  0.00000000000E+00  0.41155135653E+02  0.41155135653E+02  0.00000000000E+00 0. -1.
         21   -1    0    0  506  502 -0.00000000000E+00 -0.00000000000E+00 -0.26616114143E+04  0.26616114143E+04  0.00000000000E+00 0.  1.
         21    1    1    2  503  505 -0.49013584338E+02 -0.29331290661E+02 -0.16554711483E+03  0.17512425100E+03  0.00000000000E+00 0. -1.
         21    1    1    2  504  501  0.89511302645E+02  0.11115245778E+01 -0.44264293693E+02  0.99864090064E+02  0.00000000000E+00 0. -1.
         21    1    1    2  505  502 -0.40121150880E+02 -0.28077031197E+02 -0.64624223869E+02  0.81082160427E+02  0.00000000000E+00 0. -1.
         21    1    1    2  506  504 -0.37656742721E+00  0.56296797280E+02 -0.23460206463E+04  0.23466960485E+04  0.00000000000E+00 0.  1.
<scales pt_clust_3="34.91769" pt_clust_4="90.51146" pt_clust_5="34.91769" pt_clust_6="56.29806"></scales>
<clustering>
<clus scale="   34.918">  3  5 -1 -1</clus>
<clus scale="   56.298">  2  6  1 -1</clus>
<clus scale="   90.511">  1  4  2 -1</clus>
<clus scale="   90.511">  1  3  2 -1</clus>
</clustering>
</event>
<event>
 6    0  0.3446372E+002  0.6708607E+02  0.7546771E-02  0.1370292E+00
         21   -1    0    0  503  501  0.00000000000E+00  0.00000000000E+00  0.46804642510E+03  0.46804642510E+03  0.00000000000E+00 0. -1.
         21   -1    0    0  505  502 -0.00000000000E+00 -0.00000000000E+00 -0.14334558650E+04  0.14334558650E+04  0.00000000000E+00 0. -1.
         21    1    1    2  503  506  0.58413562362E+02  0.18675182095E+02  0.26334007663E+03  0.27038658002E+03  0.00000000000E+00 0. -1.
         21    1    1    2  504  502  0.47296559363E+02  0.24714724926E+02 -0.12869253006E+04  0.12880312541E+04  0.00000000000E+00 0. -1.
         21    1    1    2  505  501 -0.43310681522E+02  0.33080962111E+02 -0.12424628550E+03  0.13567352229E+03  0.00000000000E+00 0. -1.
         21    1    1    2  506  504 -0.62399440202E+02 -0.76470869132E+02  0.18242206957E+03  0.20741093373E+03  0.00000000000E+00 0. -1.
<scales pt_clust_3="14000.00000" pt_clust_4="53.36462" pt_clust_5="55.09697" pt_clust_6="67.08607"></scales>
<clustering>
<clus scale="   53.365">  2  4  1 -1</clus>
<clus scale="   55.097">  2  5  1 -1</clus>
<clus scale="   67.086">  2  6  1 -1</clus>
<clus scale="   67.086">  1  3  2 -1</clus>
</clustering>
</event>
<event>
 6    0  0.3446372E+002  0.2377681E+03  0.7546771E-02  0.1121289E+00
         21   -1    0    0  504  501  0.00000000000E+00  0.00000000000E+00  0.88735795274E+03  0.88735795274E+03  0.00000000000E+00 0.  1.
         21   -1    0    0  506  502 -0.00000000000E+00 -0.00000000000E+00 -0.12406971437E+04  0.12406971437E+04  0.00000000000E+00 0.  1.
         21    1    1    2  503  501  0.74659980888E+02 -0.93597723050E+02  0.75891398683E+03  0.76830012750E+03  0.00000000000E+00 0.  1.
         21    1    1    2  504  505 -0.74057969915E+02  0.29217228822E+02  0.37408360600E+02  0.87963713034E+02  0.00000000000E+00 0. -1.
         21    1    1    2  505  502  0.27279121911E+02 -0.18870502599E+03 -0.15697577498E+03  0.24697192402E+03  0.00000000000E+00 0.  1.
         21    1    1    2  506  503 -0.27881132884E+02  0.25308552022E+03 -0.99268576338E+03  0.10248193319E+04  0.00000000000E+00 0.  1.
<scales pt_clust_3="66.82167" pt_clust_4="79.61300" pt_clust_5="14000.00000" pt_clust_6="237.76807"></scales>
<clustering>
<clus scale="   79.613">  1  4  2 -1</clus>
<clus scale="   66.822">  1  3  2 -1</clus>
<clus scale="  237.768">  2  6  1 -1</clus>
<clus scale="   79.613">  1  3  2 -1</clus>
</clustering>
</event>
<event>
 6    0  0.3446372E+002  0.1946680E+03  0.7546771E-02  0.1154317E+00
         21   -1    0    0  503  501  0.00000000000E+00  0.00000000000E+00  0.20070134242E+03  0.20070134242E+03  0.00000000000E+00 0. -1.
         21   -1    0    0  504  502 -0.00000000000E+00 -0.00000000000E+00 -0.10938237188E+04  0.10938237188E+04  0.00000000000E+00 0. -1.
         21    1    1    2  503  505 -0.34214208622E+02 -0.14561797563E+02 -0.35605993944E+02  0.51482471042E+02  0.00000000000E+00 0. -1.
         21    1    1    2  504  506  0.17446742924E+03  0.10819855304E+03 -0.69662226022E+03  0.72624264828E+03  0.00000000000E+00 0. -1.
         21    1    1    2  505  502 -0.99335978953E+02 -0.70952681757E+02 -0.32446544575E+03  0.34666950436E+03  0.00000000000E+00 0. -1.
         21    1    1    2  506  501 -0.40917241666E+02 -0.22684073717E+02  0.16357132358E+03  0.17013043750E+03  0.00000000000E+00 0. -1.
<scales pt_clust_3="33.68538" pt_clust_4="184.85257" pt_clust_5="33.68538" pt_clust_6="46.78448"></scales>
<clustering>
<clus scale="   33.685">  3  5 -1 -1</clus>
<clus scale="   46.784">  1  6  2 -1</clus>
<clus scale="  184.853">  2  4  1 -1</clus>
<clus scale="   46.784">  1  3  2 -1</clus>
</clustering>
</event>
<event>
 6    0  0.3446372E+002  0.1337096E+03  0.7546771E-02  0.1222053E+00
         21   -1    0    0  504  501  0.00000000000E+00  0.00000000000E+00  0.43568847270E+03  0.43568847270E+03  0.00000000000E+00 0.  1.
         21   -1    0    0  503  502 -0.00000000000E+00 -0.00000000000E+00 -0.21391024726E+03  0.21391024726E+03  0.00000000000E+00 0.  1.
         21    1    1    2  503  505  0.66230869704E+02 -0.20781696548E+02 -0.97866266022E+02  0.11998421996E+03  0.00000000000E+00 0.  1.
         21    1    1    2  504  506 -0.31232252655E+02  0.82382515347E+02  0.23891351397E+03  0.25464092286E+03  0.00000000000E+00 0.  1.
         21    1    1    2  505  501  0.56655208387E+02 -0.43552639323E+02 -0.68452757252E+02  0.98956682466E+02  0.00000000000E+00 0.  1.
         21    1    1    2  506  502 -0.91653825436E+02 -0.18048179476E+02  0.14918373474E+03  0.17601689467E+03  0.00000000000E+00 0.  1.
<scales pt_clust_3="31.68002" pt_clust_4="88.10410" pt_clust_5="31.68002" pt_clust_6="129.78844"></scales>
<clustering>
<clus scale="   31.680">  3  5 -1 -1</clus>
<clus scale="   88.104">  1  4  2 -1</clus>
<clus scale="  129.788">  1  6  2 -1</clus>
<clus scale="   88.104">  1  3  2 -1</clus>
</clustering>
</event>
<event>
 6    0  0.3446372E+002  0.1472975E+03  0.7546771E-02  0.1203834E+00
         21   -1    0    0  504  501  0.00000000000E+00  0.00000000000E+00  0.11302473968E+03  0.11302473968E+03  0.00000000000E+00 0.  1.
         21   -1    0    0  503  502 -0.00000000000E+00 -0.00000000000E+00 -0.35322979294E+03  0.35322979294E+03  0.00000000000E+00 0.  1.
         21    1    1    2  503  501  0.54724229679E+02 -0.31399656119E+01  0.28115634625E+02  0.61604298620E+02  0.00000000000E+00 0.  1.
         21    1    1    2  504  505  0.40347548230E+02 -0.11388355527E+03 -0.42187105642E+02  0.12797320302E+03  0.00000000000E+00 0.  1.
         21    1    1    2  505  506 -0.45285514967E+02  0.22720992743E+02 -0.52873270825E+02  0.73229803664E+02  0.00000000000E+00 0. -1.
         21    1    1    2  506  502 -0.49786262943E+02  0.94302528137E+02 -0.17326031141E+03  0.20344722731E+03  0.00000000000E+00 0.  1.
<scales pt_clust_3="54.81424" pt_clust_4="137.89817" pt_clust_5="35.68786" pt_clust_6="35.68786"></scales>
<clustering>
<clus scale="   35.688">  5  6 -1 -1</clus>
<clus scale="   54.814">  1  3  2 -1</clus>
<clus scale="  137.898">  1  4  2 -1</clus>
<clus scale="   54.814">  1  3  2 -1</clus>
</clustering>
</event>
<event>
 6    0  0.3446372E+002  0.1781231E+03  0.7546771E-02  0.1169632E+00
         21   -1    0    0  505  501  0.00000000000E+00  0.00000000000E+00  0.77313403958E+03  0.77313403958E+03  0.00000000000E+00 0. -1.
         21   -1    0    0  506  502 -0.00000000000E+00 -0.00000000000E+00 -0.38300631750E+04  0.38300631750E+04  0.00000000000E+00 0. -1.
         21    1    1    2  503  501 -0.48207309430E+02 -0.21093362670E+02  0.69122206820E+03  0.69322205836E+03  0.00000000000E+00 0. -1.
         21    1    1    2  504  503  0.25491381352E+02  0.63091754428E+02  0.12256064592E+02  0.69141818890E+02  0.00000000000E+00 0. -1.
         21    1    1    2  505  502 -0.15346499726E+03 -0.73266477802E+02 -0.15228395271E+03  0.22827589537E+03  0.00000000000E+00 0.  1.
         21    1    1    2  506  504  0.17618092533E+03  0.31268086044E+02 -0.36081233155E+04  0.36125574419E+04  0.00000000000E+00 0. -1.
<scales pt_clust_3="52.62010" pt_clust_4="52.49645" pt_clust_5="14000.00000" pt_clust_6="178.12312"></scales>
<clustering>
<clus scale="   52.620">  1  3  2 -1</clus>
<clus scale="   52.496">  1  4  2 -1</clus>
<clus scale="  178.123">  2  6  1 -1</clus>
<clus scale="   52.620">  1  3  2 -1</clus>
</clustering>
</event>
<event>
 6    0  0.3446372E+002  0.1337104E+03  0.7546771E-02  0.1222052E+00
         21   -1    0    0  506  501  0.00000000000E+00  0.00000000000E+00  0.81542016449E+02  0.81542016449E+02  0.00000000000E+00 0. -1.
         21   -1    0    0  504  502 -0.00000000000E+00 -0.00000000000E+00 -0.73325131168E+03  0.73325131168E+03  0.00000000000E+00 0.  1.
         21    1    1    2  503  501  0.36442550795E+02  0.39460323584E+02  0.14407138949E+02  0.55612429353E+02  0.00000000000E+00 0. -1.
         21    1    1    2  504  505 -0.20528437812E+02 -0.50644832302E+02 -0.29725809194E+03  0.30223945643E+03  0.00000000000E+00 0.  1.
         21    1    1    2  505  503  0.82638106306E+02  0.68453883747E+01 -0.85359528201E+01  0.83359333289E+02  0.00000000000E+00 0. -1.
         21    1    1    2  506  502 -0.98552219290E+02  0.43391203429E+01 -0.36032238942E+03  0.37358210906E+03  0.00000000000E+00 0.  1.
<scales pt_clust_3="43.74563" pt_clust_4="54.64719" pt_clust_5="43.74563" pt_clust_6="122.16464"></scales>
<clustering>
<clus scale="   43.746">  3  5 -1 -1</clus>
<clus scale="   54.647">  2  4  1 -1</clus>
<clus scale="  122.165">  2  6  1 -1</clus>
<clus scale="  133.710">  1  3  2 -1</clus>
</clustering>
</event>
<event>
 6    0  0.5635751E+002  0.9479238E+02  0.7546771E-02  0.1291644E+00
         21   -1    0    0  505  501  0.00000000000E+00  0.00000000000E+00  0.11423994600E+04  0.11423994600E+04  0.00000000000E+00 0. -1.
         21   -1    0    0  506  502 -0.00000000000E+00 -0.00000000000E+00 -0.42898414539E+03  0.42898414539E+03  0.00000000000E+00 0. -1.
         21    1    1    2  503  502  0.41662514881E+02  0.31820493223E+02 -0.21061039947E+03  0.21703697681E+03  0.00000000000E+00 0. -1.
         21    1    1    2  504  501  0.28427218474E+02 -0.90889097100E+02  0.11025589757E+04  0.11066640093E+04  0.00000000000E+00 0. -1.
         21    1    1    2  505  503 -0.10431827624E+02  0.54946747830E+02 -0.17935918981E+03  0.18787678700E+03  0.00000000000E+00 0. -1.
         21    1    1    2  506  504 -0.59657905731E+02  0.41218560470E+01  0.82592821780E+00  0.59805832248E+02  0.00000000000E+00 0.  1.
<scales pt_clust_3="52.42432" pt_clust_4="14000.00000" pt_clust_5="94.79238" pt_clust_6="54.61054"></scales>
<clustering>
<clus scale="   52.424">  2  3  1 -1</clus>
<clus scale="   54.611">  2  6  1 -1</clus>
<clus scale="   94.792">  2  5  1 -1</clus>
<clus scale="   94.792">  1  3  2 -1</clus>
</clustering>
</event>
<event>
 6    0  0.3446372E+002  0.1096068E+03  0.7546771E-02  0.1261300E+00
         21   -1    0    0  504  501  0.00000000000E+00  0.00000000000E+00  0.80697406151E+03  0.80697406151E+03  0.00000000000E+00 0. -1.
         21   -1    0    0  503  502 -0.00000000000E+00 -0.00000000000E+00 -0.20345109223E+04  0.20345109223E+04  0.00000000000E+00 0. -1.
         21    1    1    2  503  506 -0.99432394420E+02  0.10608204412E+03 -0.88172242082E+03  0.89363002889E+03  0.00000000000E+00 0. -1.
         21    1    1    2  504  505 -0.33586063563E+02  0.50389402336E+01  0.77076814695E+03  0.77151600822E+03  0.00000000000E+00 0. -1.
         21    1    1    2  505  502  0.10221998785E+03 -0.14244289989E+02 -0.10494610856E+04  0.10545237768E+04  0.00000000000E+00 0. -1.
         21    1    1    2  506  501  0.30798470128E+02 -0.96876694367E+02 -0.67121501347E+02  0.12181516990E+03  0.00000000000E+00 0. -1.
<scales pt_clust_3="14000.00000" pt_clust_4="33.96196" pt_clust_5="109.60681" pt_clust_6="93.17430"></scales>
<clustering>
<clus scale="   33.962">  1  4  2 -1</clus>
<clus scale="   93.174">  1  6  2 -1</clus>
<clus scale="  109.607">  2  5  1 -1</clus>
<clus scale="   33.962">  1  3  2 -1</clus>
</clustering>
</event>
<event>
 6    0  0.3446372E+002  0.9767437E+02  0.7546771E-02  0.1285264E+00
         21   -1    0    0  504  501  0.00000000000E+00  0.00000000000E+00  0.58407979231E+03  0.58407979231E+03  0.00000000000E+00 0. -1.
         21   -1    0    0  506  502 -0.00000000000E+00 -0.00000000000E+00 -0.56595553819E+02  0.56595553819E+02  0.00000000000E+00 0. -1.
         21    1    1    2  503  501  0.51662359554E+02 -0.53563845672E+02  0.13507415689E+03  0.15421774482E+03  0.00000000000E+00 0. -1.
         21    1    1    2  504  502 -0.94518904201E+02  0.74554974161E+02  0.38560515478E+03  0.40395990249E+03  0.00000000000E+00 0. -1.
         21    1    1    2  505  503  0.21373642058E+02 -0.45027047085E+02  0.18057569214E+01  0.49875127089E+02  0.00000000000E+00 0. -1.
         21    1    1    2  506  505  0.21482902588E+02  0.24035918596E+02  0.49991698907E+01  0.32622571726E+02  0.00000000000E+00 0. -1.
<scales pt_clust_3="97.67437" pt_clust_4="14000.00000" pt_clust_5="45.95825" pt_clust_6="32.23725"></scales>
<clustering>
<clus scale="   32.237">  2  6  1 -1</clus>
<clus scale="   45.958">  2  5  1 -1</clus>
<clus scale="   97.674">  2  3  1 -1</clus>
<clus scale="   97.674">  1  3  2 -1</clus>
</clustering>
</event>
<event>
 6    0  0.3446372E+002  0.1001947E+03  0.7546771E-02  0.1279887E+00
         21   -1    0    0  503  501  0.00000000000E+00  0.00000000000E+00  0.23501639514E+03  0.23501639514E+03  0.00000000000E+00 0.  1.
         21   -1    0    0  504  502 -0.00000000000E+00 -0.00000000000E+00 -0.11983377135E+03  0.11983377135E+03  0.00000000000E+00 0. -1.
         21    1    1    2  503  506 -0.18690605860E+02 -0.71477070669E+02  0.20861186471E+02  0.76769131035E+02  0.00000000000E+00 0.  1.
         21    1    1    2  504  505  0.40364008863E+02  0.13002567258E+03  0.41870587056E+02  0.14243972340E+03  0.00000000000E+00 0. -1.
         21    1    1    2  505  501 -0.48366306714E+02 -0.21998111910E+02  0.69318973320E+02  0.87340349294E+02  0.00000000000E+00 0.  1.
         21    1    1    2  506  502  0.26692903710E+02 -0.36550490000E+02 -0.16868123055E+02  0.48300962756E+02  0.00000000000E+00 0. -1.
<scales pt_clust_3="14000.00000" pt_clust_4="100.19472" pt_clust_5="52.38774" pt_clust_6="45.25980"></scales>
<clustering>
<clus scale="   45.260">  2  6  1 -1</clus>
<clus scale="   52.388">  1  5  2 -1</clus>
<clus scale="  100.195">  1  4  2 -1</clus>
<clus scale="   52.388">  1  3  2 -1</clus>
</clustering>
</event>
<event>
 6    0  0.3446372E+002  0.1059696E+03  0.7546771E-02  0.1268221E+00
         21   -1    0    0  504  501  0.00000000000E+00  0.00000000000E+00  0.13050216997E+03  0.13050216997E+03  0.00000000000E+00 0.  1.
         21   -1    0    0  506  502 -0.00000000000E+00 -0.00000000000E+00 -0.88836049021E+03  0.88836049021E+03  0.00000000000E+00 0.  1.
         21    1    1    2  503  502 -0.31979307366E+02 -0.62438653209E+01 -0.59902164804E+03  0.59990715680E+03  0.00000000000E+00 0.  1.
         21    1    1    2  504  503 -0.14793454178E+02  0.75884496317E+02 -0.78523235632E+02  0.11019619595E+03  0.00000000000E+00 0.  1.
         21    1    1    2  505  501  0.76399026956E+02 -0.90066536673E+02  0.81174105978E+02  0.14331094804E+03  0.00000000000E+00 0.  1.
         21    1    1    2  506  505 -0.29626265412E+02  0.20425905677E+02 -0.16148754255E+03  0.16544835939E+03  0.00000000000E+00 0.  1.
<scales pt_clust_3="32.58315" pt_clust_4="105.96962" pt_clust_5="14000.00000" pt_clust_6="50.62307"></scales>
<clustering>
<clus scale="   32.583">  2  3  1 -1</clus>
<clus scale="   50.623">  2  6  1 -1</clus>
<clus scale="  105.970">  2  4  1 -1</clus>
<clus scale="  105.970">  1  3  2 -1</clus>
</clustering>
</event>
<event>
 6    0  0.3446372E+002  0.1900081E+03  0.7546771E-02  0.1158454E+00
         21   -1    0    0  504  501  0.00000000000E+00  0.00000000000E+00  0.67856047521E+03  0.67856047521E+03  0.00000000000E+00 0. -1.
         21   -1    0    0  506  502 -0.00000000000E+00 -0.00000000000E+00 -0.28800085890E+03  0.28800085890E+03  0.00000000000E+00 0.  1.
         21    1    1    2  503  501  0.43209495552E+01  0.39103485029E+02  0.32325475751E+02  0.50918459609E+02  0.00000000000E+00 0. -1.
         21    1    1    2  504  505 -0.40781886086E+02 -0.38982494409E+02 -0.71357472402E+02  0.90965300916E+02  0.00000000000E+00 0.  1.
         21    1    1    2  505  502  0.28272494407E+02 -0.13247001402E+03 -0.16614387120E+03  0.21436283375E+03  0.00000000000E+00 0.  1.
         21    1    1    2  506  503  0.81884421241E+01  0.13234902341E+03  0.59573548416E+03  0.61031473984E+03  0.00000000000E+00 0. -1.
<scales pt_clust_3="39.34149" pt_clust_4="55.07334" pt_clust_5="55.07334" pt_clust_6="169.81501"></scales>
<clustering>
<clus scale="   39.341">  1  3  2 -1</clus>
<clus scale="   55.073">  4  5 -1 -1</clus>
<clus scale="  169.815">  1  6  2 -1</clus>
<clus scale="   39.341">  1  3  2 -1</clus>
</clustering>
</event>
<event>
 6    0  0.3446372E+002  0.8131101E+02  0.7546771E-02  0.1325372E+00
         21   -1    0    0  503  501  0.00000000000E+00  0.00000000000E+00  0.17509231339E+03  0.17509231339E+03  0.00000000000E+00 0. -1.
         21   -1    0    0  504  502 -0.00000000000E+00 -0.00000000000E+00 -0.56473787544E+03  0.56473787544E+03  0.00000000000E+00 0. -1.
         21    1    1    2  503  505 -0.20110616331E+02  0.26566304581E+02  0.10010163065E+03  0.10550138334E+03  0.00000000000E+00 0. -1.
         21    1    1    2  504  501  0.90065592508E+02  0.11694796918E+02 -0.26473340730E+03  0.27987918138E+03  0.00000000000E+00 0. -1.
         21    1    1    2  505  506  0.50592048521E+01 -0.53655215178E+02  0.47218232458E+02  0.71652209637E+02  0.00000000000E+00 0. -1.
         21    1    1    2  506  502 -0.75014181029E+02  0.15394113679E+02 -0.27223201785E+03  0.28279741447E+03  0.00000000000E+00 0. -1.
<scales pt_clust_3="33.31975" pt_clust_4="14000.00000" pt_clust_5="33.81952" pt_clust_6="81.31101"></scales>
<clustering>
<clus scale="   33.320">  1  3  2 -1</clus>
<clus scale="   33.820">  1  5  2 -1</clus>
<clus scale="   81.311">  2  6  1 -1</clus>
<clus scale="   33.320">  1  3  2 -1</clus>
</clustering>
</event>
<event>
 6    0  0.3446372E+002  0.1254168E+03  0.7546771E-02  0.1234419E+00
         21   -1    0    0  503  501  0.00000000000E+00  0.00000000000E+00  0.23337954297E+03  0.23337954297E+03  0.00000000000E+00 0.  1.
         21   -1    0    0  504  502 -0.00000000000E+00 -0.00000000000E+00 -0.38426636269E+03  0.38426636269E+03  0.00000000000E+00 0. -1.
         21    1    1    2  503  505  0.48271525911E+02 -0.20738003028E+02  0.86793873838E+02  0.10145630350E+03  0.00000000000E+00 0.  1.
         21    1    1    2  504  501 -0.57260804195E+02  0.65160941592E+02 -0.28148812827E+03  0.29455103864E+03  0.00000000000E+00 0. -1.
         21    1    1    2  505  506  0.62612101674E+01 -0.10720558402E+03  0.92820302556E+02  0.14194311735E+03  0.00000000000E+00 0.  1.
         21    1    1    2  506  502  0.27280681169E+01  0.62782645453E+02 -0.49012867840E+02  0.79695446166E+02  0.00000000000E+00 0.  1.
<scales pt_clust_3="52.53765" pt_clust_4="125.41678" pt_clust_5="14000.00000" pt_clust_6="61.03070"></scales>
<clustering>
<clus scale="   52.538">  1  3  2 -1</clus>
<clus scale="   61.031">  2  6  1 -1</clus>
<clus scale="  125.417">  2  4  1 -1</clus>
<clus scale="   52.538">  1  3  2 -1</clus>
</clustering>
</event>
<event>
 6    0  0.3446372E+002  0.1346804E+03  0.7546771E-02  0.1220672E+00
         21   -1    0    0  506  501  0.00000000000E+00  0.00000000000E+00  0.38073500112E+03  0.38073500112E+03  0.00000000000E+00 0.  1.
         21   -1    0    0  505  502 -0.00000000000E+00 -0.00000000000E+00 -0.78885909815E+03  0.78885909815E+03  0.00000000000E+00 0. -1.
         21    1    1    2  503  501 -0.42794900310E+02  0.20592951565E+02  0.81394693679E+02  0.94236772577E+02  0.00000000000E+00 0. -1.
         21    1    1    2  504  503 -0.20265586590E+02  0.50825339042E+02 -0.22038822675E+03  0.22707901616E+03  0.00000000000E+00 0. -1.
         21    1    1    2  505  504 -0.28615209011E+02  0.68454555378E+02 -0.53176565540E+03  0.53691672408E+03  0.00000000000E+00 0. -1.
         21    1    1    2  506  502  0.91675695911E+02 -0.13987284598E+03  0.26263509143E+03  0.31136158645E+03  0.00000000000E+00 0.  1.
<scales pt_clust_3="47.49182" pt_clust_4="31.40070" pt_clust_5="31.40070" pt_clust_6="129.62182"></scales>
<clustering>
<clus scale="   31.401">  4  5 -1 -1</clus>
<clus scale="   47.492">  1  3  2 -1</clus>
<clus scale="  129.622">  1  6  2 -1</clus>
<clus scale="   47.492">  1  3  2 -1</clus>
</clustering>
</event>
<event>
 6    0  0.3446372E+002  0.1019221E+03  0.7546771E-02  0.1276305E+00
         21   -1    0    0  505  501  0.00000000000E+00  0.00000000000E+00  0.34643770630E+03  0.34643770630E+03  0.00000000000E+00 0.  1.
         21   -1    0    0  504  502 -0.00000000000E+00 -0.00000000000E+00 -0.50894118342E+03  0.50894118342E+03  0.00000000000E+00 0.  1.
         21    1    1    2  503  502  0.61955776834E+01 -0.90904516977E+02 -0.25439294281E+02  0.94600074435E+02  0.00000000000E+00 0.  1.
         21    1    1    2  504  506 -0.58931252916E+02  0.99876668197E+01 -0.28740879001E+03  0.29355827127E+03  0.00000000000E+00 0.  1.
         21    1    1    2  505  503  0.10413594527E+03  0.18389995443E+02  0.28840588628E+03  0.30718144845E+03  0.00000000000E+00 0.  1.
         21    1    1    2  506  501 -0.51400270039E+02  0.62526854715E+02 -0.13806127911E+03  0.16003909557E+03  0.00000000000E+00 0.  1.
<scales pt_clust_3="88.72529" pt_clust_4="59.77162" pt_clust_5="14000.00000" pt_clust_6="101.92208"></scales>
<clustering>
<clus scale="   59.772">  2  4  1 -1</clus>
<clus scale="   88.725">  2  3  1 -1</clus>
<clus scale="  101.922">  2  6  1 -1</clus>
<clus scale="  101.922">  1  3  2 -1</clus>
</clustering>
</event>
<event>
 6    0  0.3446372E+002  0.1201490E+03  0.7546771E-02  0.1242851E+00
         21   -1    0    0  506  501  0.00000000000E+00  0.00000000000E+00  0.70041828367E+03  0.70041828367E+03  0.00000000000E+00 0. -1.
         21   -1    0    0  503  502 -0.00000000000E+00 -0.00000000000E+00 -0.46409097758E+03  0.46409097758E+03  0.00000000000E+00 0.  1.
         21    1    1    2  503  501  0.12094465502E+02 -0.30867698359E+02  0.55456412087E+00  0.33157177792E+02  0.00000000000E+00 0.  1.
         21    1    1    2  504  502  0.31443448384E+02 -0.77179190059E+02 -0.38639441153E+03  0.39527959609E+03  0.00000000000E+00 0.  1.
         21    1    1    2  505  504 -0.16851372879E+02  0.17172280644E+03  0.81167743467E+02  0.19068532612E+03  0.00000000000E+00 0.  1.
         21    1    1    2  506  505 -0.26686541006E+02 -0.63675918017E+02  0.54099941003E+03  0.54538716125E+03  0.00000000000E+00 0. -1.
<scales pt_clust_3="33.15254" pt_clust_4="120.14901" pt_clust_5="14000.00000" pt_clust_6="69.15864"></scales>
<clustering>
<clus scale="   33.153">  2  3  1 -1</clus>
<clus scale="   69.159">  1  6  2 -1</clus>
<clus scale="  120.149">  2  4  1 -1</clus>
<clus scale="   69.159">  1  3  2 -1</clus>
</clustering>
</event>
<event>
 6    0  0.3446372E+002  0.1061993E+03  0.7546771E-02  0.1267775E+00
         21   -1    0    0  504  501  0.00000000000E+00  0.00000000000E+00  0.26960950752E+03  0.26960950752E+03  0.00000000000E+00 0. -1.
         21   -1    0    0  506  502 -0.00000000000E+00 -0.00000000000E+00 -0.46806362326E+03  0.46806362326E+03  0.00000000000E+00 0. -1.
         21    1    1    2  503  505  0.40842684643E+02  0.46013603919E+01 -0.34637240106E+02  0.53749751706E+02  0.00000000000E+00 0.  1.
         21    1    1    2  504  503  0.35797489283E+02  0.99870747849E+02  0.22745732369E+03  0.25098298870E+03  0.00000000000E+00 0. -1.
         21    1    1    2  505  502  0.37831291275E+02 -0.30894068943E+02 -0.91295769201E+02  0.10354017370E+03  0.00000000000E+00 0. -1.
         21    1    1    2  506  501 -0.11447146520E+03 -0.73578039298E+02 -0.29997843012E+03  0.32940021668E+03  0.00000000000E+00 0. -1.
<scales pt_clust_3="41.02517" pt_clust_4="106.19927" pt_clust_5="94.23905" pt_clust_6="14000.00000"></scales>
<clustering>
<clus scale="   41.025">  3  5 -1 -1</clus>
<clus scale="   94.239">  2  3  1 -1</clus>
<clus scale="  106.199">  1  4  2 -1</clus>
<clus scale="  106.199">  1  3  2 -1</clus>
</clustering>
</event>
<event>
 6    0  0.3446372E+002  0.1222856E+03  0.7546771E-02  0.1239373E+00
         21   -1    0    0  503  501  0.00000000000E+00  0.00000000000E+00  0.13006589214E+04  0.13006589214E+04  0.00000000000E+00 0.  1.
         21   -1    0    0  501  502 -0.00000000000E+00 -0.00000000000E+00 -0.42516884856E+02  0.42516884856E+02  0.00000000000E+00 0.  1.
         21    1    1    2  503  506 -0.24267471688E+02 -0.60616526548E+02  0.53335609691E+03  0.53733788214E+03  0.00000000000E+00 0.  1.
         21    1    1    2  504  502 -0.65014387806E+02  0.75894240183E+01  0.74405651233E+02  0.99099298252E+02  0.00000000000E+00 0.  1.
         21    1    1    2  505  504  0.78237015264E+02  0.10857322389E+03  0.14166198765E+03  0.19487763917E+03  0.00000000000E+00 0.  1.
         21    1    1    2  506  505  0.11044844230E+02 -0.55546121358E+02  0.50871830076E+03  0.51186098671E+03  0.00000000000E+00 0.  1.
<scales pt_clust_3="32.67102" pt_clust_4="65.45586" pt_clust_5="117.14583" pt_clust_6="32.67102"></scales>
<clustering>
<clus scale="   32.671">  3  6 -1 -1</clus>
<clus scale="   65.456">  2  4  1 -1</clus>
<clus scale="  117.146">  2  5  1 -1</clus>
<clus scale="  122.286">  1  3  2 -1</clus>
</clustering>
</event>
<event>
 6    0  0.3446372E+002  0.8963354E+02  0.7546771E-02  0.1303742E+00
         21   -1    0    0  504  501  0.00000000000E+00  0.00000000000E+00  0.18662569975E+03  0.18662569975E+03  0.00000000000E+00 0.  1.
         21   -1    0    0  503  502 -0.00000000000E+00 -0.00000000000E+00 -0.52962581864E+03  0.52962581864E+03  0.00000000000E+00 0. -1.
         21    1    1    2  503  501  0.45218124875E+01  0.41863636132E+02  0.14185290775E+03  0.14797046413E+03  0.00000000000E+00 0.  1.
         21    1    1    2  504  505 -0.51877545878E+02 -0.11916447490E+03 -0.85630405697E+02  0.15564067021E+03  0.00000000000E+00 0. -1.
         21    1    1    2  505  506  0.45095483619E+02  0.38343517329E+02 -0.30440255407E+03  0.31010440643E+03  0.00000000000E+00 0. -1.
         21    1    1    2  506  502  0.22602497719E+01  0.38957321440E+02 -0.94820066877E+02  0.10253597761E+03  0.00000000000E+00 0.  1.
<scales pt_clust_3="42.38377" pt_clust_4="89.63354" pt_clust_5="14000.00000" pt_clust_6="39.02283"></scales>
<clustering>
<clus scale="   39.023">  2  6  1 -1</clus>
<clus scale="   42.384">  1  3  2 -1</clus>
<clus scale="   89.634">  1  4  2 -1</clus>
<clus scale="   42.384">  1  3  2 -1</clus>
</clustering>
</event>
<event>
 6    0  0.3446372E+002  0.9081319E+02  0.7546771E-02  0.1300894E+00
         21   -1    0    0  506  501  0.00000000000E+00  0.00000000000E+00  0.20889521978E+02  0.20889521978E+02  0.00000000000E+00 0.  1.
         21   -1    0    0  505  502 -0.00000000000E+00 -0.00000000000E+00 -0.18836522964E+04  0.18836522964E+04  0.00000000000E+00 0.  1.
         21    1    1    2  503  502 -0.38445652424E+02  0.57109360735E+02 -0.53898111038E+03  0.54336008743E+03  0.00000000000E+00 0. -1.
         21    1    1    2  504  501  0.27100049018E+02  0.13476852522E+02 -0.53320083505E+02  0.61311251135E+02  0.00000000000E+00 0.  1.
         21    1    1    2  505  504  0.57897070831E+02 -0.10722752936E+03 -0.12066908514E+04  0.12128283575E+04  0.00000000000E+00 0.  1.
         21    1    1    2  506  503 -0.46551467426E+02  0.36641316107E+02 -0.63770729176E+02  0.87042122361E+02  0.00000000000E+00 0.  1.
<scales pt_clust_3="90.81319" pt_clust_4="30.26612" pt_clust_5="14000.00000" pt_clust_6="53.72722"></scales>
<clustering>
<clus scale="   30.266">  1  4  2 -1</clus>
<clus scale="   53.727">  1  6  2 -1</clus>
<clus scale="   90.813">  2  3  1 -1</clus>
<clus scale="   30.266">  1  3  2 -1</clus>
</clustering>
</event>
<event>
 6    0  0.3446372E+002  0.1287974E+03  0.7546771E-02  0.1229251E+00
         21   -1    0    0  503  501  0.00000000000E+00  0.00000000000E+00  0.33204235247E+03  0.33204235247E+03  0.00000000000E+00 0. -1.
         21   -1    0    0  505  502 -0.00000000000E+00 -0.00000000000E+00 -0.35373004265E+03  0.35373004265E+03  0.00000000000E+00 0. -1.
         21    1    1    2  503  506  0.22927350942E+02 -0.31365232664E+02  0.10898748231E+03  0.11570528312E+03  0.00000000000E+00 0. -1.
         21    1    1    2  504  501 -0.76626576176E+02 -0.85899304525E+02  0.16366313002E+03  0.20008983688E+03  0.00000000000E+00 0. -1.
         21    1    1    2  505  504 -0.57830070082E+02 -0.43155584124E+01 -0.60610346416E+02  0.83884176951E+02  0.00000000000E+00 0. -1.
         21    1    1    2  506  502  0.11152929532E+03  0.12158009560E+03 -0.23372795610E+03  0.28609309817E+03  0.00000000000E+00 0. -1.
<scales pt_clust_3="38.85153" pt_clust_4="128.79745" pt_clust_5="56.93027" pt_clust_6="14000.00000"></scales>
<clustering>
<clus scale="   38.852">  1  3  2 -1</clus>
<clus scale="   56.930">  2  5  1 -1</clus>
<clus scale="  128.797">  1  4  2 -1</clus>
<clus scale="   38.852">  1  3  2 -1</clus>
</clustering>
</event>
<event>
 6    0  0.3446372E+002  0.2388779E+03  0.7546771E-02  0.1120543E+00
         21   -1    0    0  503  501  0.00000000000E+00  0.00000000000E+00  0.70064583560E+03  0.70064583560E+03  0.00000000000E+00 0. -1.
         21   -1    0    0  505  502 -0.00000000000E+00 -0.00000000000E+00 -0.42110901274E+03  0.42110901274E+03  0.00000000000E+00 0. -1.
         21    1    1    2  503  502 -0.20677327450E+03 -0.38675143884E+02  0.14956794650E+03  0.25811145736E+03  0.00000000000E+00 0. -1.
         21    1    1    2  504  501  0.21521984035E+02  0.33444125775E+02  0.25382194336E+03  0.25691882819E+03  0.00000000000E+00 0. -1.
         21    1    1    2  505  506  0.24435073571E+03  0.16959660219E+02 -0.31917095374E+03  0.40232450811E+03  0.00000000000E+00 0. -1.
         21    1    1    2  506  504 -0.59099445243E+02 -0.11728642110E+02  0.19531788673E+03  0.20440005468E+03  0.00000000000E+00 0. -1.
<scales pt_clust_3="238.87785" pt_clust_4="39.77066" pt_clust_5="14000.00000" pt_clust_6="49.54830"></scales>
<clustering>
<clus scale="   39.771">  1  4  2 -1</clus>
<clus scale="   49.548">  1  6  2 -1</clus>
<clus scale="  238.878">  1  3  2 -1</clus>
<clus scale="   39.771">  1  3  2 -1</clus>
</clustering>
</event>
<event>
 6    0  0.3446372E+002  0.1330823E+03  0.7546771E-02  0.1222953E+00
         21   -1    0    0  503  501  0.00000000000E+00  0.00000000000E+00  0.19006562556E+02  0.19006562556E+02  0.00000000000E+00 0. -1.
         21   -1    0    0  501  502 -0.00000000000E+00 -0.00000000000E+00 -0.25064010111E+04  0.25064010111E+04  0.00000000000E+00 0.  1.
         21    1    1    2  503  505 -0.42434889981E+02 -0.69423853097E+02 -0.12506316917E+03  0.14920183494E+03  0.00000000000E+00 0. -1.
         21    1    1    2  504  506  0.55365073298E+02  0.20519584960E+02 -0.79947559662E+03  0.80165302613E+03  0.00000000000E+00 0.  1.
         21    1    1    2  505  504 -0.48365421778E+02 -0.10492747534E+02 -0.11690947854E+03  0.12695329041E+03  0.00000000000E+00 0. -1.
         21    1    1    2  506  502  0.35435238461E+02  0.59397015671E+02 -0.14459462042E+04  0.14475994221E+04  0.00000000000E+00 0.  1.
<scales pt_clust_3="43.27952" pt_clust_4="46.98720" pt_clust_5="43.27952" pt_clust_6="131.21552"></scales>
<clustering>
<clus scale="   43.280">  3  5 -1 -1</clus>
<clus scale="   46.987">  4  6 -1 -1</clus>
<clus scale="  131.216">  2  4  1 -1</clus>
<clus scale="  133.082">  1  3  2 -1</clus>
</clustering>
</event>
<event>
 6    0  0.3446372E+002  0.4230497E+03  0.7546771E-02  0.1036078E+00
         21   -1    0    0  504  501  0.00000000000E+00  0.00000000000E+00  0.28815318527E+04  0.28815318527E+04  0.00000000000E+00 0. -1.
         21   -1    0    0  506  502 -0.00000000000E+00 -0.00000000000E+00 -0.63644771012E+02  0.63644771012E+02  0.00000000000E+00 0. -1.
         21    1    1    2  503  501 -0.80771979930E+02  0.20114938477E+02  0.60766635908E+03  0.61334095530E+03  0.00000000000E+00 0. -1.
         21    1    1    2  504  502  0.38845693989E+03  0.88964918448E+01  0.88511347122E+03  0.96664564275E+03  0.00000000000E+00 0. -1.
         21    1    1    2  505  503 -0.23224084715E+03 -0.59647627701E+02  0.10993972269E+04  0.11252412688E+04  0.00000000000E+00 0. -1.
         21    1    1    2  506  505 -0.75444112808E+02  0.30636197379E+02  0.22571002451E+03  0.23994875684E+03  0.00000000000E+00 0. -1.
<scales pt_clust_3="56.08867" pt_clust_4="388.55880" pt_clust_5="65.90428" pt_clust_6="65.90428"></scales>
<clustering>
<clus scale="   56.089">  3  5 -1 -1</clus>
<clus scale="   65.904">  3  6 -1 -1</clus>
<clus scale="  388.559">  2  4  1 -1</clus>
<clus scale="  423.050">  1  3  2 -1</clus>
</clustering>
</event>
<event>
 6    0  0.3446372E+002  0.1628954E+03  0.7546771E-02  0.1185466E+00
         21   -1    0    0  506  501  0.00000000000E+00  0.00000000000E+00  0.36531120777E+03  0.36531120777E+03  0.00000000000E+00 0. -1.
         21   -1    0    0  504  502 -0.00000000000E+00 -0.00000000000E+00 -0.50314762187E+03  0.50314762187E+03  0.00000000000E+00 0. -1.
         21    1    1    2  503  502 -0.25457906027E+02 -0.35669984254E+02 -0.44995191944E+02  0.62809394632E+02  0.00000000000E+00 0. -1.
         21    1    1    2  504  501 -0.13215874005E+03 -0.19376593932E+02 -0.41042308132E+03  0.43161150430E+03  0.00000000000E+00 0. -1.
         21    1    1    2  505  503  0.15091303910E+03  0.16297862092E+02  0.20712670752E+03  0.25679143025E+03  0.00000000000E+00 0. -1.
         21    1    1    2  506  505  0.67036069817E+01  0.38748716093E+02  0.11045515164E+03  0.11724650046E+03  0.00000000000E+00 0. -1.
<scales pt_clust_3="42.57213" pt_clust_4="14000.00000" pt_clust_5="162.89538" pt_clust_6="39.32431"></scales>
<clustering>
<clus scale="   39.324">  1  6  2 -1</clus>
<clus scale="   42.572">  2  3  1 -1</clus>
<clus scale="  162.895">  1  5  2 -1</clus>
<clus scale="   39.324">  1  3  2 -1</clus>
</clustering>
</event>
<event>
 6    0  0.3446372E+002  0.1062763E+03  0.7546771E-02  0.1267625E+00
         21   -1    0    0  504  501  0.00000000000E+00  0.00000000000E+00  0.53136909340E+03  0.53136909340E+03  0.00000000000E+00 0.  1.
         21   -1    0    0  503  502 -0.00000000000E+00 -0.00000000000E+00 -0.15273785995E+03  0.15273785995E+03  0.00000000000E+00 0. -1.
         21    1    1    2  503  506 -0.17834630920E+02 -0.24544131515E+02 -0.18581626874E+01  0.30396401439E+02  0.00000000000E+00 0.  1.
         21    1    1    2  504  505  0.13676115948E+02 -0.12682341749E+03  0.35128103469E+03  0.37372393649E+03  0.00000000000E+00 0.  1.
         21    1    1    2  505  502 -0.10238549431E+02  0.67881864667E+02 -0.10251140607E+03  0.12337489137E+03  0.00000000000E+00 0. -1.
         21    1    1    2  506  501  0.14397064403E+02  0.83485684339E+02  0.13171976752E+03  0.15661172405E+03  0.00000000000E+00 0. -1.
<scales pt_clust_3="30.33955" pt_clust_4="106.27630" pt_clust_5="53.74915" pt_clust_6="14000.00000"></scales>
<clustering>
<clus scale="   30.340">  2  3  1 -1</clus>
<clus scale="   53.749">  2  5  1 -1</clus>
<clus scale="  106.276">  1  4  2 -1</clus>
<clus scale="  106.276">  1  3  2 -1</clus>
</clustering>
</event>
<event>
 6    0  0.3446372E+002  0.1090377E+03  0.7546771E-02  0.1262362E+00
         21   -1    0    0  504  501  0.00000000000E+00  0.00000000000E+00  0.10052196079E+03  0.10052196079E+03  0.00000000000E+00 0. -1.
         21   -1    0    0  506  502 -0.00000000000E+00 -0.00000000000E+00 -0.28243117762E+03  0.28243117762E+03  0.00000000000E+00 0. -1.
         21    1    1    2  503  502  0.40509927915E+02  0.24177564906E+02 -0.32790075272E+02  0.57452571228E+02  0.00000000000E+00 0. -1.
         21    1    1    2  504  503 -0.85309209762E+02  0.93451111000E+02 -0.48440047621E+02  0.13548878046E+03  0.00000000000E+00 0. -1.
         21    1    1    2  505  501 -0.20382105396E+02 -0.48713728973E+02 -0.15775180924E+01  0.52829406339E+02  0.00000000000E+00 0. -1.
         21    1    1    2  506  505  0.65181387243E+02 -0.68914946934E+02 -0.99101575843E+02  0.13718238039E+03  0.00000000000E+00 0. -1.
<scales pt_clust_3="47.17636" pt_clust_4="109.03767" pt_clust_5="48.56316" pt_clust_6="14000.00000"></scales>
<clustering>
<clus scale="   47.176">  2  3  1 -1</clus>
<clus scale="   48.563">  1  5  2 -1</clus>
<clus scale="  109.038">  1  4  2 -1</clus>
<clus scale="   48.563">  1  3  2 -1</clus>
</clustering>
</event>
<event>
 6    0  0.3446372E+002  0.1366692E+03  0.7546771E-02  0.1217882E+00
         21   -1    0    0  505  501  0.00000000000E+00  0.00000000000E+00  0.43145820774E+03  0.43145820774E+03  0.00000000000E+00 0. -1.
         21   -1    0    0  503  502 -0.00000000000E+00 -0.00000000000E+00 -0.57086649975E+03  0.57086649975E+03  0.00000000000E+00 0. -1.
         21    1    1    2  503  504  0.11774846011E+02  0.45881910438E+02 -0.25399748707E+03  0.25837670201E+03  0.00000000000E+00 0. -1.
         21    1    1    2  504  501  0.46071322291E+02  0.64751943105E+02 -0.23885275886E+03  0.25172608384E+03  0.00000000000E+00 0. -1.
         21    1    1    2  505  506 -0.13195134818E+03  0.42258328269E+02  0.26878581232E+03  0.30239500244E+03  0.00000000000E+00 0. -1.
         21    1    1    2  506  502  0.74105179878E+02 -0.15289218181E+03  0.84656141584E+02  0.18982691920E+03  0.00000000000E+00 0. -1.
<scales pt_clust_3="31.99552" pt_clust_4="131.54272" pt_clust_5="136.66922" pt_clust_6="14000.00000"></scales>
<clustering>
<clus scale="   31.996">  3  4 -1 -1</clus>
<clus scale="  131.543">  2  3  1 -1</clus>
<clus scale="  136.669">  1  5  2 -1</clus>
<clus scale="  136.669">  1  3  2 -1</clus>
</clustering>
</event>
<event>
 6    0  0.3446372E+002  0.9831461E+02  0.7546771E-02  0.1283881E+00
         21   -1    0    0  503  501  0.00000000000E+00  0.00000000000E+00  0.27023691926E+03  0.27023691926E+03  0.00000000000E+00 0.  1.
         21   -1    0    0  504  502 -0.00000000000E+00 -0.00000000000E+00 -0.28695917176E+03  0.28695917176E+03  0.00000000000E+00 0.  1.
         21    1    1    2  503  505 -0.39431268821E+02  0.61493755244E+01  0.21201017325E+03  0.21573352392E+03  0.00000000000E+00 0.  1.
         21    1    1    2  504  506  0.99671267998E+02  0.80247998541E+02 -0.16067763377E+03  0.20540546470E+03  0.00000000000E+00 0.  1.
         21    1    1    2  505  502 -0.31167708028E+02 -0.72960894845E+02 -0.67272037817E+02  0.10402040796E+03  0.00000000000E+00 0.  1.
         21    1    1    2  506  501 -0.29072291149E+02 -0.13436479221E+02 -0.78275415981E+00  0.32036694439E+02  0.00000000000E+00 0.  1.
<scales pt_clust_3="64.05826" pt_clust_4="14000.00000" pt_clust_5="98.31461" pt_clust_6="32.02713"></scales>
<clustering>
<clus scale="   32.027">  1  6  2 -1</clus>
<clus scale="   64.058">  1  3  2 -1</clus>
<clus scale="   98.315">  2  5  1 -1</clus>
<clus scale="   32.027">  1  3  2 -1</clus>
</clustering>
</event>
<event>
 6    0  0.3446372E+002  0.7509922E+02  0.7546771E-02  0.1343564E+00
         21   -1    0    0  504  501  0.00000000000E+00  0.00000000000E+00  0.69878473171E+03  0.69878473171E+03  0.00000000000E+00 0.  1.
         21   -1    0    0  506  502 -0.00000000000E+00 -0.00000000000E+00 -0.58355524556E+03  0.58355524556E+03  0.00000000000E+00 0. -1.
         21    1    1    2  503  501  0.11004488350E+02 -0.37695633818E+02  0.52559760778E+03  0.52706252464E+03  0.00000000000E+00 0.  1.
         21    1    1    2  504  505 -0.63413770702E+02  0.76433241748E+02  0.11045086707E+03  0.14853531835E+03  0.00000000000E+00 0.  1.
         21    1    1    2  505  502 -0.50424748750E+02 -0.54880940129E+02 -0.49353739056E+03  0.49913297703E+03  0.00000000000E+00 0. -1.
         21    1    1    2  506  503  0.10283403110E+03  0.16143332199E+02 -0.27281598151E+02  0.10760915725E+03  0.00000000000E+00 0.  1.
<scales pt_clust_3="39.26907" pt_clust_4="73.19788" pt_clust_5="75.09922" pt_clust_6="14000.00000"></scales>
<clustering>
<clus scale="   39.269">  1  3  2 -1</clus>
<clus scale="   73.198">  1  4  2 -1</clus>
<clus scale="   75.099">  2  5  1 -1</clus>
<clus scale="   39.269">  1  3  2 -1</clus>
</clustering>
</event>
<event>
 6    0  0.3446372E+002  0.1131291E+03  0.7546771E-02  0.1254883E+00
         21   -1    0    0  506  501  0.00000000000E+00  0.00000000000E+00  0.22547138366E+04  0.22547138366E+04  0.00000000000E+00 0. -1.
         21   -1    0    0  504  502 -0.00000000000E+00 -0.00000000000E+00 -0.28709974031E+03  0.28709974031E+03  0.00000000000E+00 0.  1.
         21    1    1    2  503  505  0.73335472992E+02 -0.44625568281E+02 -0.15231207140E+03  0.17483849701E+03  0.00000000000E+00 0.  1.
         21    1    1    2  504  501 -0.10454370705E+03 -0.44623180643E+02  0.20831782771E+04  0.20862771506E+04  0.00000000000E+00 0. -1.
         21    1    1    2  505  502 -0.39235608261E+02 -0.98912075104E+01 -0.93874101902E+02  0.10222336303E+03  0.00000000000E+00 0.  1.
         21    1    1    2  506  503  0.70443842317E+02  0.99139956435E+02  0.13062199247E+03  0.17847456625E+03  0.00000000000E+00 0. -1.
<scales pt_clust_3="66.18057" pt_clust_4="14000.00000" pt_clust_5="40.46318" pt_clust_6="113.12907"></scales>
<clustering>
<clus scale="   40.463">  2  5  1 -1</clus>
<clus scale="   66.181">  2  3  1 -1</clus>
<clus scale="  113.129">  2  6  1 -1</clus>
<clus scale="  113.129">  1  3  2 -1</clus>
</clustering>
</event>
<event>
 6    0  0.3446372E+002  0.2357305E+03  0.7546771E-02  0.1122670E+00
         21   -1    0    0  502  501  0.00000000000E+00  0.00000000000E+00  0.15554780427E+03  0.15554780427E+03  0.00000000000E+00 0. -1.
         21   -1    0    0  504  502 -0.00000000000E+00 -0.00000000000E+00 -0.10174196333E+04  0.10174196333E+04  0.00000000000E+00 0. -1.
         21    1    1    2  503  505 -0.11081133157E+03 -0.11593938989E+02 -0.50954908108E+02  0.12251519614E+03  0.00000000000E+00 0. -1.
         21    1    1    2  504  506  0.20790354239E+03 -0.95027627202E+02 -0.80423674479E+03  0.83609262318E+03  0.00000000000E+00 0. -1.
         21    1    1    2  505  501 -0.25639820598E+02  0.47222652974E+02  0.73898486769E+02  0.91369391488E+02  0.00000000000E+00 0. -1.
         21    1    1    2  506  503 -0.71452390225E+02  0.59398913217E+02 -0.80578662894E+02  0.12299022674E+03  0.00000000000E+00 0. -1.
<scales pt_clust_3="80.50830" pt_clust_4="219.32266" pt_clust_5="53.73434" pt_clust_6="80.50830"></scales>
<clustering>
<clus scale="   53.734">  1  5  2 -1</clus>
<clus scale="   80.508">  3  6 -1 -1</clus>
<clus scale="  219.323">  2  4  1 -1</clus>
<clus scale="   53.734">  1  3  2 -1</clus>
</clustering>
</event>
<event>
 6    0  0.3446372E+002  0.6928818E+02  0.7546771E-02  0.1362530E+00
         21   -1    0    0  505  501  0.00000000000E+00  0.00000000000E+00  0.34627595543E+03  0.34627595543E+03  0.00000000000E+00 0.  1.
         21   -1    0    0  504  502 -0.00000000000E+00 -0.00000000000E+00 -0.61917772046E+03  0.61917772046E+03  0.00000000000E+00 0.  1.
         21    1    1    2  503  502 -0.75815767102E+02 -0.96274395123E+02 -0.39201882133E+03  0.41072563345E+03  0.00000000000E+00 0.  1.
         21    1    1    2  504  506  0.37996389378E+02  0.40018912455E+02 -0.20460728311E+03  0.21191833158E+03  0.00000000000E+00 0. -1.
         21    1    1    2  505  503  0.16263786766E+02  0.78817494393E+02  0.21034646820E+03  0.22521621803E+03  0.00000000000E+00 0.  1.
         21    1    1    2  506  501  0.21555590958E+02 -0.22562011725E+02  0.11337787121E+03  0.11759349282E+03  0.00000000000E+00 0.  1.
<scales pt_clust_3="69.28818" pt_clust_4="55.16182" pt_clust_5="14000.00000" pt_clust_6="31.20397"></scales>
<clustering>
<clus scale="   31.204">  1  6  2 -1</clus>
<clus scale="   55.162">  2  4  1 -1</clus>
<clus scale="   69.288">  2  3  1 -1</clus>
<clus scale="   31.204">  1  3  2 -1</clus>
</clustering>
</event>
<event>
 6    0  0.3446372E+002  0.8823582E+02  0.7546771E-02  0.1307181E+00
         21   -1    0    0  502  501  0.00000000000E+00  0.00000000000E+00  0.15347263429E+03  0.15347263429E+03  0.00000000000E+00 0. -1.
         21   -1    0    0  505  502 -0.00000000000E+00 -0.00000000000E+00 -0.13701211200E+04  0.13701211200E+04  0.00000000000E+00 0. -1.
         21    1    1    2  503  504  0.35031131073E+02 -0.11528493687E+03 -0.16230803543E+03  0.20214275940E+03  0.00000000000E+00 0. -1.
         21    1    1    2  504  501 -0.63930485854E+02  0.58824201553E+02  0.11618871946E+03  0.14507657371E+03  0.00000000000E+00 0. -1.
         21    1    1    2  505  506  0.44837640960E+02 -0.11956682988E+02 -0.51818831375E+03  0.52026195789E+03  0.00000000000E+00 0. -1.
         21    1    1    2  506  503 -0.15938286180E+02  0.68417418303E+02 -0.65234085594E+03  0.65611246325E+03  0.00000000000E+00 0. -1.
<scales pt_clust_3="88.23582" pt_clust_4="14000.00000" pt_clust_5="46.40449" pt_clust_6="62.05723"></scales>
<clustering>
<clus scale="   46.404">  2  5  1 -1</clus>
<clus scale="   62.057">  2  6  1 -1</clus>
<clus scale="   88.236">  2  3  1 -1</clus>
<clus scale="   88.236">  1  3  2 -1</clus>
</clustering>
</event>
<event>
 6    0  0.3446372E+002  0.8358002E+02  0.7546771E-02  0.1319188E+00
         21   -1    0    0  504  501  0.00000000000E+00  0.00000000000E+00  0.22703286536E+04  0.22703286536E+04  0.00000000000E+00 0. -1.
         21   -1    0    0  505  502 -0.00000000000E+00 -0.00000000000E+00 -0.75627317120E+02  0.75627317120E+02  0.00000000000E+00 0. -1.
         21    1    1    2  503  506 -0.53678851111E+02 -0.41584166053E+02  0.11733969414E+03  0.13557015063E+03  0.00000000000E+00 0. -1.
         21    1    1    2  504  502  0.10624243158E+03  0.68246041625E+02  0.13366332532E+04  0.13425846081E+04  0.00000000000E+00 0. -1.
         21    1    1    2  505  503  0.19557409249E+02 -0.40042665244E+02 -0.53819572866E+02  0.69874557028E+02  0.00000000000E+00 0. -1.
         21    1    1    2  506  501 -0.72120989713E+02  0.13380789672E+02  0.79454796198E+03  0.79792665489E+03  0.00000000000E+00 0. -1.
<scales pt_clust_3="14000.00000" pt_clust_4="83.58002" pt_clust_5="44.56352" pt_clust_6="70.23622"></scales>
<clustering>
<clus scale="   44.564">  2  5  1 -1</clus>
<clus scale="   70.236">  1  6  2 -1</clus>
<clus scale="   83.580">  1  4  2 -1</clus>
<clus scale="   70.236">  1  3  2 -1</clus>
</clustering>
</event>
<event>
 6    0  0.3446372E+002  0.1618905E+03  0.7546771E-02  0.1186579E+00
         21   -1    0    0  504  501  0.00000000000E+00  0.00000000000E+00  0.93755330489E+03  0.93755330489E+03  0.00000000000E+00 0.  1.
         21   -1    0    0  506  502 -0.00000000000E+00 -0.00000000000E+00 -0.12227514008E+03  0.12227514008E+03  0.00000000000E+00 0.  1.
         21    1    1    2  503  502 -0.75882874050E+02  0.16351761241E+03  0.69943268874E+01  0.18040271825E+03  0.00000000000E+00 0.  1.
         21    1    1    2  504  503  0.48378940802E+01 -0.70155328894E+02  0.71837127706E+03  0.72180500628E+03  0.00000000000E+00 0.  1.
         21    1    1    2  505  501  0.53198349441E+02 -0.37977744252E+02  0.70834473496E+02  0.96384106974E+02  0.00000000000E+00 0.  1.
         21    1    1    2  506  505  0.17846630529E+02 -0.55384539265E+02  0.19078087363E+02  0.61236613462E+02  0.00000000000E+00 0.  1.
<scales pt_clust_3="152.35625" pt_clust_4="70.32194" pt_clust_5="51.64547" pt_clust_6="51.64547"></scales>
<clustering>
<clus scale="   51.645">  5  6 -1 -1</clus>
<clus scale="   70.322">  1  4  2 -1</clus>
<clus scale="  152.356">  2  3  1 -1</clus>
<clus scale="   70.322">  1  3  2 -1</clus>
</clustering>
</event>
<event>
 6    0  0.3446372E+002  0.1051396E+03  0.7546771E-02  0.1269845E+00
         21   -1    0    0  505  501  0.00000000000E+00  0.00000000000E+00  0.99786411517E+03  0.99786411517E+03  0.00000000000E+00 0.  1.
         21   -1    0    0  504  502 -0.00000000000E+00 -0.00000000000E+00 -0.38938204849E+03  0.38938204849E+03  0.00000000000E+00 0. -1.
         21    1    1    2  503  501  0.20119785295E+02  0.43295507130E+02  0.49188527305E+02  0.68547924231E+02  0.00000000000E+00 0.  1.
         21    1    1    2  504  503 -0.94382063079E+02 -0.10738332797E+03  0.92617097817E+03  0.93714024232E+03  0.00000000000E+00 0.  1.
         21    1    1    2  505  506  0.23589129633E+02  0.44229978628E+02 -0.16229846372E+03  0.16986326670E+03  0.00000000000E+00 0. -1.
         21    1    1    2  506  502  0.50673148151E+02  0.19857842210E+02 -0.20457897508E+03  0.21169473041E+03  0.00000000000E+00 0. -1.
<scales pt_clust_3="47.74209" pt_clust_4="98.43279" pt_clust_5="35.46119" pt_clust_6="35.46119"></scales>
<clustering>
<clus scale="   35.461">  5  6 -1 -1</clus>
<clus scale="   47.742">  1  3  2 -1</clus>
<clus scale="   98.433">  1  4  2 -1</clus>
<clus scale="   47.742">  1  3  2 -1</clus>
</clustering>
</event>
<event>
 6    0  0.3446372E+002  0.1028958E+03  0.7546771E-02  0.1274322E+00
         21   -1    0    0  506  501  0.00000000000E+00  0.00000000000E+00  0.68733168332E+03  0.68733168332E+03  0.00000000000E+00 0. -1.
         21   -1    0    0  504  502 -0.00000000000E+00 -0.00000000000E+00 -0.10850160315E+04  0.10850160315E+04  0.00000000000E+00 0. -1.
         21    1    1    2  503  502 -0.30055142447E+02 -0.16735946251E+02 -0.38507496839E+02  0.51635557489E+02  0.00000000000E+00 0.  1.
         21    1    1    2  504  505 -0.71617388818E+02  0.38634313815E+02 -0.10251108908E+04  0.10283355479E+04  0.00000000000E+00 0. -1.
         21    1    1    2  505  501  0.37124022087E+02 -0.58016701547E+02  0.98797544935E+02  0.12043706057E+03  0.00000000000E+00 0. -1.
         21    1    1    2  506  503  0.64548509178E+02  0.36118333983E+02  0.56713649456E+03  0.57193954886E+03  0.00000000000E+00 0. -1.
<scales pt_clust_3="34.40063" pt_clust_4="14000.00000" pt_clust_5="68.85670" pt_clust_6="102.89580"></scales>
<clustering>
<clus scale="   34.401">  2  3  1 -1</clus>
<clus scale="   68.857">  1  5  2 -1</clus>
<clus scale="  102.896">  1  6  2 -1</clus>
<clus scale="   68.857">  1  3  2 -1</clus>
</clustering>
</event>
<event>
 6    0  0.3446372E+002  0.1526307E+03  0.7546771E-02  0.1197277E+00
         21   -1    0    0  504  501  0.00000000000E+00  0.00000000000E+00  0.88523123841E+03  0.88523123841E+03  0.00000000000E+00 0.  1.
         21   -1    0    0  506  502 -0.00000000000E+00 -0.00000000000E+00 -0.18473621270E+04  0.18473621270E+04  0.00000000000E+00 0.  1.
         21    1    1    2  503  501 -0.12268065815E+03  0.11731908882E+03  0.79934754990E+03  0.81717245304E+03  0.00000000000E+00 0.  1.
         21    1    1    2  504  502  0.23979133385E+02  0.30425100485E+02 -0.35413469785E+03  0.35624720321E+03  0.00000000000E+00 0.  1.
         21    1    1    2  505  503  0.93375457944E+02 -0.30303212358E+02  0.40767777989E+02  0.10629803642E+03  0.00000000000E+00 0.  1.
         21    1    1    2  506  505  0.53260668192E+01 -0.11744097695E+03 -0.14481115187E+04  0.14528756728E+04  0.00000000000E+00 0.  1.
<scales pt_clust_3="14000.00000" pt_clust_4="38.73868" pt_clust_5="152.63074" pt_clust_6="92.41410"></scales>
<clustering>
<clus scale="   38.739">  2  4  1 -1</clus>
<clus scale="   92.414">  2  6  1 -1</clus>
<clus scale="  152.631">  2  5  1 -1</clus>
<clus scale="  152.631">  1  3  2 -1</clus>
</clustering>
</event>
<event>
 6    0  0.3446372E+002  0.1012269E+03  0.7546771E-02  0.1277737E+00
         21   -1    0    0  506  501  0.00000000000E+00  0.00000000000E+00  0.20733344985E+04  0.20733344985E+04  0.00000000000E+00 0. -1.
         21   -1    0    0  505  502 -0.00000000000E+00 -0.00000000000E+00 -0.40151811605E+02  0.40151811605E+02  0.00000000000E+00 0. -1.
         21    1    1    2  503  501  0.23778895899E+02 -0.10672377525E+03  0.13932566430E+04  0.13975405086E+04  0.00000000000E+00 0. -1.
         21    1    1    2  504  502  0.25070223308E+02  0.23964766306E+02  0.80318790499E+02  0.87486766016E+02  0.00000000000E+00 0. -1.
         21    1    1    2  505  503  0.37335148851E+02  0.24636975817E+02 -0.12929058407E+02  0.46562371809E+02  0.00000000000E+00 0. -1.
         21    1    1    2  506  504 -0.86184268058E+02  0.58122033124E+02  0.57253631186E+03  0.58189666368E+03  0.00000000000E+00 0. -1.
<scales pt_clust_3="14000.00000" pt_clust_4="34.68178" pt_clust_5="72.66420" pt_clust_6="101.22685"></scales>
<clustering>
<clus scale="   34.682">  2  4  1 -1</clus>
<clus scale="   72.664">  2  5  1 -1</clus>
<clus scale="  101.227">  2  6  1 -1</clus>
<clus scale="  101.227">  1  3  2 -1</clus>
</clustering>
</event>
<event>
 6    0  0.3446372E+002  0.1184966E+03  0.7546771E-02  0.1245598E+00
         21   -1    0    0  506  501  0.00000000000E+00  0.00000000000E+00  0.70656587998E+02  0.70656587998E+02  0.00000000000E+00 0. -1.
         21   -1    0    0  504  502 -0.00000000000E+00 -0.00000000000E+00 -0.51555604366E+03  0.51555604366E+03  0.00000000000E+00 0. -1.
         21    1    1    2  503  505 -0.73269143114E+02  0.25065133649E+02 -0.11597028139E+01  0.77446582675E+02  0.00000000000E+00 0. -1.
         21    1    1    2  504  501 -0.72216620635E+01  0.33835539360E+02 -0.18302177529E+03  0.18626316425E+03  0.00000000000E+00 0. -1.
         21    1    1    2  505  502  0.11062839961E+03 -0.33002887232E+02 -0.25802645228E+03  0.28267557985E+03  0.00000000000E+00 0. -1.
         21    1    1    2  506  503 -0.30137594430E+02 -0.25897785777E+02 -0.26915252805E+01  0.39827304886E+02  0.00000000000E+00 0. -1.
<scales pt_clust_3="38.47766" pt_clust_4="34.59763" pt_clust_5="104.86548" pt_clust_6="38.47766"></scales>
<clustering>
<clus scale="   34.598">  2  4  1 -1</clus>
<clus scale="   38.478">  3  6 -1 -1</clus>
<clus scale="  104.865">  2  5  1 -1</clus>
<clus scale="  118.497">  1  3  2 -1</clus>
</clustering>
</event>
<event>
 6    0  0.3446372E+002  0.1275291E+03  0.7546771E-02  0.1231169E+00
         21   -1    0    0  504  501  0.00000000000E+00  0.00000000000E+00  0.16121609401E+03  0.16121609401E+03  0.00000000000E+00 0. -1.
         21   -1    0    0  503  502 -0.00000000000E+00 -0.00000000000E+00 -0.61148082967E+03  0.61148082967E+03  0.00000000000E+00 0. -1.
         21    1    1    2  503  505  0.34576746853E+02  0.11117676772E+02 -0.35002470003E+03  0.35190402781E+03  0.00000000000E+00 0. -1.
         21    1    1    2  504  502  0.50125234169E+02 -0.10596477829E+03  0.29080142572E+02  0.12077552745E+03  0.00000000000E+00 0. -1.
         21    1    1    2  505  506  0.50845518163E+02  0.10132606802E+02 -0.13023167414E+03  0.14017212771E+03  0.00000000000E+00 0. -1.
         21    1    1    2  506  501 -0.13554749919E+03  0.84714494718E+02  0.91149593657E+00  0.15984524070E+03  0.00000000000E+00 0. -1.
<scales pt_clust_3="36.32016" pt_clust_4="14000.00000" pt_clust_5="70.60422" pt_clust_6="127.52907"></scales>
<clustering>
<clus scale="   36.320">  2  3  1 -1</clus>
<clus scale="   70.604">  2  5  1 -1</clus>
<clus scale="  127.529">  2  6  1 -1</clus>
<clus scale="  127.529">  1  3  2 -1</clus>
</clustering>
</event>
<event>
 6    0  0.3446372E+002  0.1025978E+03  0.7546771E-02  0.1274926E+00
         21   -1    0    0  504  501  0.00000000000E+00  0.00000000000E+00  0.45892940440E+03  0.45892940440E+03  0.00000000000E+00 0. -1.
         21   -1    0    0  505  502 -0.00000000000E+00 -0.00000000000E+00 -0.12055911022E+04  0.12055911022E+04  0.00000000000E+00 0. -1.
         21    1    1    2  503  501 -0.49153365985E+02 -0.67826935135E+01  0.42043540746E+03  0.42335326876E+03  0.00000000000E+00 0. -1.
         21    1    1    2  504  502 -0.34961918742E+02  0.34230726108E+02 -0.99488161304E+02  0.11086916890E+03  0.00000000000E+00 0. -1.
         21    1    1    2  505  506  0.92157447485E+02  0.60268791818E+02 -0.10277202278E+04  0.10336025296E+04  0.00000000000E+00 0. -1.
         21    1    1    2  506  503 -0.80421627576E+01 -0.87716824412E+02 -0.39888716137E+02  0.96695539410E+02  0.00000000000E+00 0. -1.
<scales pt_clust_3="49.65887" pt_clust_4="48.92932" pt_clust_5="102.59782" pt_clust_6="14000.00000"></scales>
<clustering>
<clus scale="   48.929">  2  4  1 -1</clus>
<clus scale="   49.659">  1  3  2 -1</clus>
<clus scale="  102.598">  2  5  1 -1</clus>
<clus scale="   49.659">  1  3  2 -1</clus>
</clustering>
</event>
<event>
 6    0  0.3446372E+002  0.1062653E+03  0.7546771E-02  0.1267647E+00
         21   -1    0    0  505  501  0.00000000000E+00  0.00000000000E+00  0.11103609807E+04  0.11103609807E+04  0.00000000000E+00 0.  1.
         21   -1    0    0  504  502 -0.00000000000E+00 -0.00000000000E+00 -0.35618754627E+03  0.35618754627E+03  0.00000000000E+00 0.  1.
         21    1    1    2  503  502 -0.38017538850E+02 -0.10314328101E+02 -0.18757206846E+03  0.19166376677E+03  0.00000000000E+00 0.  1.
         21    1    1    2  504  501 -0.28114598903E+02  0.49253017101E+02 -0.14685362316E+03  0.15742387684E+03  0.00000000000E+00 0.  1.
         21    1    1    2  505  506 -0.25539836482E+02 -0.10748020485E+03  0.78978766042E+03  0.79747653648E+03  0.00000000000E+00 0.  1.
         21    1    1    2  506  503  0.91671974236E+02  0.68541515847E+02  0.29881146559E+03  0.31998434684E+03  0.00000000000E+00 0.  1.
<scales pt_clust_3="39.39186" pt_clust_4="74.39948" pt_clust_5="106.26531" pt_clust_6="14000.00000"></scales>
<clustering>
<clus scale="   39.392">  2  3  1 -1</clus>
<clus scale="   74.399">  2  4  1 -1</clus>
<clus scale="  106.265">  1  5  2 -1</clus>
<clus scale="  106.265">  1  3  2 -1</clus>
</clustering>
</event>
<event>
 6    0  0.3446372E+002  0.7991279E+02  0.7546771E-02  0.1329299E+00
         21   -1    0    0  503  501  0.00000000000E+00  0.00000000000E+00  0.26172801996E+03  0.26172801996E+03  0.00000000000E+00 0.  1.
         21   -1    0    0  504  502 -0.00000000000E+00 -0.00000000000E+00 -0.92846156902E+03  0.92846156902E+03  0.00000000000E+00 0. -1.
         21    1    1    2  503  505 -0.35824170903E+02 -0.35619196040E+02  0.60263782757E+02  0.78637280342E+02  0.00000000000E+00 0.  1.
         21    1    1    2  504  506 -0.75769491211E+01 -0.31536213779E+02 -0.23009211117E+03  0.23236678455E+03  0.00000000000E+00 0. -1.
         21    1    1    2  505  502 -0.64695255455E+02 -0.24327261780E+01 -0.66467649429E+03  0.66782200944E+03  0.00000000000E+00 0. -1.
         21    1    1    2  506  501  0.10809637548E+03  0.69588135997E+02  0.16777127364E+03  0.21136351464E+03  0.00000000000E+00 0.  1.
<scales pt_clust_3="50.88256" pt_clust_4="32.43367" pt_clust_5="79.91279" pt_clust_6="14000.00000"></scales>
<clustering>
<clus scale="   32.434">  2  4  1 -1</clus>
<clus scale="   50.883">  1  3  2 -1</clus>
<clus scale="   79.913">  2  5  1 -1</clus>
<clus scale="   50.883">  1  3  2 -1</clus>
</clustering>
</event>
<event>
 6    0  0.3446372E+002  0.1578795E+03  0.7546771E-02  0.1191112E+00
         21   -1    0    0  504  501  0.00000000000E+00  0.00000000000E+00  0.21305531409E+03  0.21305531409E+03  0.00000000000E+00 0.  1.
         21   -1    0    0  501  502 -0.00000000000E+00 -0.00000000000E+00 -0.27000812640E+03  0.27000812640E+03  0.00000000000E+00 0. -1.
         21    1    1    2  503  502 -0.54792609012E+02 -0.77065109069E+02 -0.43976663703E+02  0.10428426530E+03  0.00000000000E+00 0. -1.
         21    1    1    2  504  506 -0.68078173568E+02 -0.27688173057E+02  0.29698812188E+02  0.79267219511E+02  0.00000000000E+00 0.  1.
         21    1    1    2  505  503  0.18500143006E+03  0.67278691961E+02 -0.86200268067E+02  0.21490099518E+03  0.00000000000E+00 0. -1.
         21    1    1    2  506  505 -0.62130647477E+02  0.37474590164E+02  0.43525307273E+02  0.84610960502E+02  0.00000000000E+00 0.  1.
<scales pt_clust_3="94.55824" pt_clust_4="66.23875" pt_clust_5="143.11449" pt_clust_6="66.23875"></scales>
<clustering>
<clus scale="   66.239">  4  6 -1 -1</clus>
<clus scale="   94.558">  2  3  1 -1</clus>
<clus scale="  143.114">  2  5  1 -1</clus>
<clus scale="  157.879">  1  3  2 -1</clus>
</clustering>
</event>
<event>
 6    0  0.3446372E+002  0.7620675E+02  0.7546771E-02  0.1340174E+00
         21   -1    0    0  503  501  0.00000000000E+00  0.00000000000E+00  0.10189789213E+03  0.10189789213E+03  0.00000000000E+00 0.  1.
         21   -1    0    0  505  502 -0.00000000000E+00 -0.00000000000E+00 -0.36853392075E+03  0.36853392075E+03  0.00000000000E+00 0.  1.
         21    1    1    2  503  504 -0.23329955534E+02 -0.28417281634E+02 -0.42924921676E+00  0.36769729066E+02  0.00000000000E+00 0.  1.
         21    1    1    2  504  502  0.99100266318E+02 -0.52095576773E+02 -0.80000603493E+02  0.13760417313E+03  0.00000000000E+00 0.  1.
         21    1    1    2  505  506 -0.51550335907E+02  0.47625266110E+02 -0.22743853776E+03  0.23802077969E+03  0.00000000000E+00 0.  1.
         21    1    1    2  506  501 -0.24219974877E+02  0.32887592297E+02  0.41232361855E+02  0.58037130996E+02  0.00000000000E+00 0.  1.
<scales pt_clust_3="36.76722" pt_clust_4="14000.00000" pt_clust_5="76.20675" pt_clust_6="41.29347"></scales>
<clustering>
<clus scale="   36.767">  1  3  2 -1</clus>
<clus scale="   41.293">  1  6  2 -1</clus>
<clus scale="   76.207">  2  5  1 -1</clus>
<clus scale="   36.767">  1  3  2 -1</clus>
</clustering>
</event>
<event>
 6    0  0.3446372E+002  0.9654197E+02  0.7546771E-02  0.1287740E+00
         21   -1    0    0  505  501  0.00000000000E+00  0.00000000000E+00  0.22937870226E+03  0.22937870226E+03  0.00000000000E+00 0.  1.
         21   -1    0    0  506  502 -0.00000000000E+00 -0.00000000000E+00 -0.16520816148E+03  0.16520816148E+03  0.00000000000E+00 0.  1.
         21    1    1    2  503  501 -0.81735087373E+02  0.92110080132E+01  0.14315280446E+03  0.16510055300E+03  0.00000000000E+00 0.  1.
         21    1    1    2  504  503  0.78601275746E+02 -0.19994984941E+02 -0.58138997664E+02  0.99790295225E+02  0.00000000000E+00 0.  1.
         21    1    1    2  505  502 -0.32351238977E+02  0.55630510873E+02  0.93472288319E+01  0.65028663605E+02  0.00000000000E+00 0.  1.
         21    1    1    2  506  504  0.35485050605E+02 -0.44846533945E+02 -0.30190494846E+02  0.64667351904E+02  0.00000000000E+00 0.  1.
<scales pt_clust_3="85.41807" pt_clust_4="37.77844" pt_clust_5="64.35337" pt_clust_6="37.77844"></scales>
<clustering>
<clus scale="   37.778">  4  6 -1 -1</clus>
<clus scale="   64.353">  2  5  1 -1</clus>
<clus scale="   85.418">  1  3  2 -1</clus>
<clus scale="   85.418">  1  3  2 -1</clus>
</clustering>
</event>
<event>
 6    0  0.3446372E+002  0.1305285E+03  0.7546771E-02  0.1226674E+00
         21   -1    0    0  506  501  0.00000000000E+00  0.00000000000E+00  0.40670482370E+03  0.40670482370E+03  0.00000000000E+00 0. -1.
         21   -1    0    0  505  502 -0.00000000000E+00 -0.00000000000E+00 -0.53043789343E+03  0.53043789343E+03  0.00000000000E+00 0.  1.
         21    1    1    2  503  501 -0.48308217071E+02  0.24659599816E+01  0.64843190136E+02  0.80897491322E+02  0.00000000000E+00 0. -1.
         21    1    1    2  504  503 -0.74907118873E+02  0.22015884824E+02 -0.22599642162E+03  0.23910281937E+03  0.00000000000E+00 0.  1.
         21    1    1    2  505  504 -0.43413493408E+02  0.76823140360E+01 -0.26592428323E+03  0.26955421305E+03  0.00000000000E+00 0.  1.
         21    1    1    2  506  502  0.16662882935E+03 -0.32164158841E+02  0.30334444499E+03  0.34758819340E+03  0.00000000000E+00 0. -1.
<scales pt_clust_3="48.37112" pt_clust_4="32.44550" pt_clust_5="32.44550" pt_clust_6="123.18055"></scales>
<clustering>
<clus scale="   32.446">  4  5 -1 -1</clus>
<clus scale="   48.371">  1  3  2 -1</clus>
<clus scale="  123.181">  1  6  2 -1</clus>
<clus scale="   48.371">  1  3  2 -1</clus>
</clustering>
</event>
<event>
 6    0  0.3446372E+002  0.1205547E+03  0.7546771E-02  0.1242185E+00
         21   -1    0    0  506  501  0.00000000000E+00  0.00000000000E+00  0.85785724134E+03  0.85785724134E+03  0.00000000000E+00 0.  1.
         21   -1    0    0  503  502 -0.00000000000E+00 -0.00000000000E+00 -0.13322475007E+03  0.13322475007E+03  0.00000000000E+00 0. -1.
         21    1    1    2  503  504 -0.72442967617E+02  0.47020067849E+02 -0.98628705112E+02  0.13109726088E+03  0.00000000000E+00 0. -1.
         21    1    1    2  504  501  0.45566266069E+02 -0.97405551829E+02  0.42304241500E+03  0.43649628981E+03  0.00000000000E+00 0.  1.
         21    1    1    2  505  502 -0.20517948675E+02  0.41012941710E+02  0.42507868704E+02  0.62529724990E+02  0.00000000000E+00 0.  1.
         21    1    1    2  506  505  0.47394650223E+02  0.93725422699E+01  0.35771091267E+03  0.36095871573E+03  0.00000000000E+00 0.  1.
<scales pt_clust_3="14000.00000" pt_clust_4="120.55467" pt_clust_5="45.85900" pt_clust_6="48.15561"></scales>
<clustering>
<clus scale="   45.859">  2  5  1 -1</clus>
<clus scale="   48.156">  1  6  2 -1</clus>
<clus scale="  120.555">  1  4  2 -1</clus>
<clus scale="   48.156">  1  3  2 -1</clus>
</clustering>
</event>
<event>
 6    0  0.3446372E+002  0.7359108E+02  0.7546771E-02  0.1348290E+00
         21   -1    0    0  505  501  0.00000000000E+00  0.00000000000E+00  0.12727094291E+04  0.12727094291E+04  0.00000000000E+00 0.  1.
         21   -1    0    0  506  502 -0.00000000000E+00 -0.00000000000E+00 -0.89562567936E+02  0.89562567936E+02  0.00000000000E+00 0.  1.
         21    1    1    2  503  502  0.89092752449E+02 -0.28325724324E+01 -0.26805082926E+01  0.89178064177E+02  0.00000000000E+00 0.  1.
         21    1    1    2  504  501 -0.41417235096E+02  0.68532570194E+02  0.10953726572E+04  0.10982956609E+04  0.00000000000E+00 0.  1.
         21    1    1    2  505  503  0.12216187269E+02 -0.35500006943E+02  0.10021533612E+03  0.10701681793E+03  0.00000000000E+00 0. -1.
         21    1    1    2  506  504 -0.59891704623E+02 -0.30199990819E+02 -0.97606239251E+01  0.67781454009E+02  0.00000000000E+00 0.  1.
<scales pt_clust_3="14000.00000" pt_clust_4="46.24167" pt_clust_5="37.54312" pt_clust_6="73.59108"></scales>
<clustering>
<clus scale="   37.543">  1  5  2 -1</clus>
<clus scale="   46.242">  1  4  2 -1</clus>
<clus scale="   73.591">  2  6  1 -1</clus>
<clus scale="   37.543">  1  3  2 -1</clus>
</clustering>
</event>
<event>
 6    0  0.3446372E+002  0.1401375E+03  0.7546771E-02  0.1213144E+00
         21   -1    0    0  505  501  0.00000000000E+00  0.00000000000E+00  0.49181442045E+02  0.49181442045E+02  0.00000000000E+00 0.  1.
         21   -1    0    0  504  502 -0.00000000000E+00 -0.00000000000E+00 -0.15572287775E+04  0.15572287775E+04  0.00000000000E+00 0.  1.
         21    1    1    2  503  501 -0.95226398364E+01 -0.10438280572E+03 -0.77784198595E+03  0.78487235007E+03  0.00000000000E+00 0.  1.
         21    1    1    2  504  503  0.17135169582E+02 -0.27262554364E+02 -0.47907404979E+03  0.48015498132E+03  0.00000000000E+00 0.  1.
         21    1    1    2  505  506  0.30401061189E+02  0.15834653449E+02  0.23064758535E+02  0.41315177085E+02  0.00000000000E+00 0.  1.
         21    1    1    2  506  502 -0.38013590935E+02  0.11581070663E+03 -0.27419605828E+03  0.30006771110E+03  0.00000000000E+00 0.  1.
<scales pt_clust_3="30.69924" pt_clust_4="30.69924" pt_clust_5="34.27770" pt_clust_6="128.72744"></scales>
<clustering>
<clus scale="   30.699">  3  4 -1 -1</clus>
<clus scale="   34.278">  1  5  2 -1</clus>
<clus scale="  128.727">  1  6  2 -1</clus>
<clus scale="   34.278">  1  3  2 -1</clus>
</clustering>
</event>
<event>
 6    0  0.3446372E+002  0.8112051E+02  0.7546771E-02  0.1325901E+00
         21   -1    0    0  504  501  0.00000000000E+00  0.00000000000E+00  0.22798244470E+03  0.22798244470E+03  0.00000000000E+00 0.  1.
         21   -1    0    0  505  502 -0.00000000000E+00 -0.00000000000E+00 -0.10973800425E+03  0.10973800425E+03  0.00000000000E+00 0. -1.
         21    1    1    2  503  501 -0.32854906122E+02  0.32939312026E+01  0.38272127089E+02  0.50547507861E+02  0.00000000000E+00 0.  1.
         21    1    1    2  504  506  0.10159395578E+03  0.47013882782E+02  0.11303355393E+03  0.15908557867E+03  0.00000000000E+00 0.  1.
         21    1    1    2  505  503 -0.64162156773E+02  0.74408704477E+01 -0.84354760675E+01  0.65140664498E+02  0.00000000000E+00 0.  1.
         21    1    1    2  506  502 -0.45768928886E+01 -0.57748684433E+02 -0.24625764506E+02  0.62946697925E+02  0.00000000000E+00 0. -1.
<scales pt_clust_3="33.01961" pt_clust_4="14000.00000" pt_clust_5="81.12051" pt_clust_6="57.96049"></scales>
<clustering>
<clus scale="   33.020">  1  3  2 -1</clus>
<clus scale="   57.960">  2  6  1 -1</clus>
<clus scale="   81.121">  2  5  1 -1</clus>
<clus scale="   33.020">  1  3  2 -1</clus>
</clustering>
</event>
<event>
 6    0  0.3446372E+002  0.1040110E+03  0.7546771E-02  0.1272081E+00
         21   -1    0    0  505  501  0.00000000000E+00  0.00000000000E+00  0.12257196858E+04  0.12257196858E+04  0.00000000000E+00 0. -1.
         21   -1    0    0  503  502 -0.00000000000E+00 -0.00000000000E+00 -0.32353939738E+02  0.32353939738E+02  0.00000000000E+00 0. -1.
         21    1    1    2  503  506 -0.96144609740E+01  0.93859145457E+02  0.15995642651E+03  0.18570954587E+03  0.00000000000E+00 0. -1.
         21    1    1    2  504  502  0.54069878222E+02 -0.11269086430E+02  0.79199243156E+02  0.96556015641E+02  0.00000000000E+00 0. -1.
         21    1    1    2  505  504 -0.44292641658E+02 -0.13995802127E+03  0.68551690506E+03  0.70105885127E+03  0.00000000000E+00 0. -1.
         21    1    1    2  506  501 -0.16277559009E+00  0.57367962242E+02  0.26869317137E+03  0.27474921279E+03  0.00000000000E+00 0.  1.
<scales pt_clust_3="104.01100" pt_clust_4="55.23173" pt_clust_5="14000.00000" pt_clust_6="56.33286"></scales>
<clustering>
<clus scale="   55.232">  2  4  1 -1</clus>
<clus scale="   56.333">  1  6  2 -1</clus>
<clus scale="  104.011">  2  3  1 -1</clus>
<clus scale="   56.333">  1  3  2 -1</clus>
</clustering>
</event>
<event>
 6    0  0.3446372E+002  0.8762182E+02  0.7546771E-02  0.1308715E+00
         21   -1    0    0  505  501  0.00000000000E+00  0.00000000000E+00  0.83278341093E+03  0.83278341093E+03  0.00000000000E+00 0.  1.
         21   -1    0    0  506  502 -0.00000000000E+00 -0.00000000000E+00 -0.42553445445E+02  0.42553445445E+02  0.00000000000E+00 0.  1.
         21    1    1    2  503  501  0.12574939649E+02  0.98711405190E+02  0.11339635029E+03  0.15086683824E+03  0.00000000000E+00 0.  1.
         21    1    1    2  504  502 -0.43954444609E+02 -0.62600617161E+02  0.23475007073E+03  0.24689760262E+03  0.00000000000E+00 0.  1.
         21    1    1    2  505  504  0.42481556716E+02  0.41645444855E+02  0.35641973670E+03  0.36135032095E+03  0.00000000000E+00 0.  1.
         21    1    1    2  506  503 -0.11102051756E+02 -0.77756232884E+02  0.85663807755E+02  0.11622209456E+03  0.00000000000E+00 0.  1.
<scales pt_clust_3="87.62182" pt_clust_4="47.08833" pt_clust_5="59.48971" pt_clust_6="14000.00000"></scales>
<clustering>
<clus scale="   59.490">  1  5  2 -1</clus>
<clus scale="   47.088">  1  4  2 -1</clus>
<clus scale="   87.622">  1  3  2 -1</clus>
<clus scale="   59.490">  1  3  2 -1</clus>
</clustering>
</event>
<event>
 6    0  0.3446372E+002  0.1200616E+03  0.7546771E-02  0.1242995E+00
         21   -1    0    0  502  501  0.00000000000E+00  0.00000000000E+00  0.15658055911E+03  0.15658055911E+03  0.00000000000E+00 0.  1.
         21   -1    0    0  505  502 -0.00000000000E+00 -0.00000000000E+00 -0.23737075705E+03  0.23737075705E+03  0.00000000000E+00 0.  1.
         21    1    1    2  503  506  0.27768666989E+02  0.11696647562E+03 -0.16267701293E+02  0.12131320370E+03  0.00000000000E+00 0.  1.
         21    1    1    2  504  503  0.52057288483E+02 -0.45738195615E+02 -0.83301605117E+02  0.10835636224E+03  0.00000000000E+00 0.  1.
         21    1    1    2  505  504  0.44967679084E+01 -0.52713831336E+02 -0.34194114589E+02  0.62993701339E+02  0.00000000000E+00 0.  1.
         21    1    1    2  506  501 -0.84322723380E+02 -0.18514448670E+02  0.52973223057E+02  0.10128804889E+03  0.00000000000E+00 0.  1.
<scales pt_clust_3="108.39906" pt_clust_4="45.10223" pt_clust_5="45.10223" pt_clust_6="86.33138"></scales>
<clustering>
<clus scale="   45.102">  4  5 -1 -1</clus>
<clus scale="   86.331">  1  6  2 -1</clus>
<clus scale="  108.399">  1  3  2 -1</clus>
<clus scale="   86.331">  1  3  2 -1</clus>
</clustering>
</event>
<event>
 6    0  0.3446372E+002  0.8725584E+02  0.7546771E-02  0.1309636E+00
         21   -1    0    0  504  501  0.00000000000E+00  0.00000000000E+00  0.18678263324E+04  0.18678263324E+04  0.00000000000E+00 0.  1.
         21   -1    0    0  505  502 -0.00000000000E+00 -0.00000000000E+00 -0.69147358057E+02  0.69147358057E+02  0.00000000000E+00 0. -1.
         21    1    1    2  503  502 -0.60223356408E+02  0.74774836633E+02  0.73224611570E+03  0.73851371199E+03  0.00000000000E+00 0. -1.
         21    1    1    2  504  503  0.20875077908E+02 -0.26690639908E+02  0.96783875127E+03  0.96843172583E+03  0.00000000000E+00 0.  1.
         21    1    1    2  505  506  0.85272660846E+02 -0.20518490497E+02 -0.28408747933E+02  0.92192690053E+02  0.00000000000E+00 0. -1.
         21    1    1    2  506  501 -0.45924382346E+02 -0.27565706228E+02  0.12700285527E+03  0.13783556253E+03  0.00000000000E+00 0. -1.
<scales pt_clust_3="14000.00000" pt_clust_4="33.88450" pt_clust_5="87.25584" pt_clust_6="53.18051"></scales>
<clustering>
<clus scale="   33.884">  1  4  2 -1</clus>
<clus scale="   53.181">  1  6  2 -1</clus>
<clus scale="   87.256">  2  5  1 -1</clus>
<clus scale="   33.884">  1  3  2 -1</clus>
</clustering>
</event>
<event>
 6    0  0.3446372E+002  0.1504978E+03  0.7546771E-02  0.1199863E+00
         21   -1    0    0  503  501  0.00000000000E+00  0.00000000000E+00  0.14407498825E+03  0.14407498825E+03  0.00000000000E+00 0.  1.
         21   -1    0    0  504  502 -0.00000000000E+00 -0.00000000000E+00 -0.89028996640E+03  0.89028996640E+03  0.00000000000E+00 0.  1.
         21    1    1    2  503  505  0.51600659720E+02  0.22118302136E+03 -0.36646110496E+03  0.43113605564E+03  0.00000000000E+00 0.  1.
         21    1    1    2  504  506 -0.38542806539E+02 -0.20453032484E+02 -0.50320504887E+02  0.66603511062E+02  0.00000000000E+00 0. -1.
         21    1    1    2  505  502  0.65831705830E+02 -0.82637450288E+02 -0.37331785663E+03  0.38798064870E+03  0.00000000000E+00 0.  1.
         21    1    1    2  506  501 -0.78889559011E+02 -0.11809253859E+03  0.43884488331E+02  0.14864473925E+03  0.00000000000E+00 0.  1.
<scales pt_clust_3="150.49779" pt_clust_4="43.63341" pt_clust_5="103.85622" pt_clust_6="14000.00000"></scales>
<clustering>
<clus scale="   43.633">  2  4  1 -1</clus>
<clus scale="  103.856">  2  5  1 -1</clus>
<clus scale="  150.498">  2  3  1 -1</clus>
<clus scale="  150.498">  1  3  2 -1</clus>
</clustering>
</event>
<event>
 6    0  0.3446372E+002  0.7868399E+02  0.7546771E-02  0.1332828E+00
         21   -1    0    0  503  501  0.00000000000E+00  0.00000000000E+00  0.72922312886E+03  0.72922312886E+03  0.00000000000E+00 0. -1.
         21   -1    0    0  505  502 -0.00000000000E+00 -0.00000000000E+00 -0.62359120302E+02  0.62359120302E+02  0.00000000000E+00 0. -1.
         21    1    1    2  503  504 -0.31322546446E+02  0.41886461682E+02  0.15283730426E+03  0.16153890913E+03  0.00000000000E+00 0. -1.
         21    1    1    2  504  502  0.31736315564E+01  0.33525740986E+02  0.15963556276E+02  0.37267712231E+02  0.00000000000E+00 0. -1.
         21    1    1    2  505  506 -0.11257363449E+02  0.47210554125E+02 -0.24644927309E+02  0.54432867780E+02  0.00000000000E+00 0. -1.
         21    1    1    2  506  501  0.39406278339E+02 -0.12262275679E+03  0.52270807533E+03  0.53834276003E+03  0.00000000000E+00 0. -1.
<scales pt_clust_3="54.43527" pt_clust_4="33.67562" pt_clust_5="78.68399" pt_clust_6="14000.00000"></scales>
<clustering>
<clus scale="   33.676">  2  4  1 -1</clus>
<clus scale="   54.435">  1  3  2 -1</clus>
<clus scale="   78.684">  2  5  1 -1</clus>
<clus scale="   54.435">  1  3  2 -1</clus>
</clustering>
</event>
<event>
 6    0  0.3446372E+002  0.1669869E+03  0.7546771E-02  0.1181027E+00
         21   -1    0    0  505  501  0.00000000000E+00  0.00000000000E+00  0.12575252452E+04  0.12575252452E+04  0.00000000000E+00 0.  1.
         21   -1    0    0  506  502 -0.00000000000E+00 -0.00000000000E+00 -0.66301440295E+03  0.66301440295E+03  0.00000000000E+00 0.  1.
         21    1    1    2  503  504  0.25862197380E+03 -0.76784307447E+02 -0.17993226715E+03  0.32427885525E+03  0.00000000000E+00 0.  1.
         21    1    1    2  504  502 -0.41433107591E+02 -0.89686737849E+00 -0.37355073897E+01  0.41610825409E+02  0.00000000000E+00 0. -1.
         21    1    1    2  505  503 -0.16073827696E+03 -0.39000354460E+02  0.11495083928E+04  0.11613472204E+04  0.00000000000E+00 0.  1.
         21    1    1    2  506  501 -0.56450589248E+02  0.11668152929E+03 -0.37132977599E+03  0.39330274706E+03  0.00000000000E+00 0.  1.
<scales pt_clust_3="166.98692" pt_clust_4="41.44281" pt_clust_5="14000.00000" pt_clust_6="141.70900"></scales>
<clustering>
<clus scale="   41.443">  2  4  1 -1</clus>
<clus scale="  141.709">  2  6  1 -1</clus>
<clus scale="  166.987">  2  3  1 -1</clus>
<clus scale="  166.987">  1  3  2 -1</clus>
</clustering>
</event>
<event>
 6    0  0.3446372E+002  0.1264333E+03  0.7546771E-02  0.1232846E+00
         21   -1    0    0  504  501  0.00000000000E+00  0.00000000000E+00  0.44101018948E+03  0.44101018948E+03  0.00000000000E+00 0.  1.
         21   -1    0    0  505  502 -0.00000000000E+00 -0.00000000000E+00 -0.56607205885E+03  0.56607205885E+03  0.00000000000E+00 0. -1.
         21    1    1    2  503  501  0.34545126772E+02 -0.82952604265E+02  0.36397284661E+03  0.37490096480E+03  0.00000000000E+00 0.  1.
         21    1    1    2  504  506  0.88869456238E+01 -0.37477506934E+02  0.39896743545E+02  0.55455310602E+02  0.00000000000E+00 0.  1.
         21    1    1    2  505  503 -0.11746736412E+02  0.15206481460E+03 -0.50158650143E+03  0.52426206431E+03  0.00000000000E+00 0. -1.
         21    1    1    2  506  502 -0.31685335984E+02 -0.31634703398E+02 -0.27344958098E+02  0.52463908631E+02  0.00000000000E+00 0. -1.
<scales pt_clust_3="126.43335" pt_clust_4="38.51677" pt_clust_5="14000.00000" pt_clust_6="45.43081"></scales>
<clustering>
<clus scale="   38.517">  1  4  2 -1</clus>
<clus scale="   45.431">  2  6  1 -1</clus>
<clus scale="  126.433">  1  3  2 -1</clus>
<clus scale="   38.517">  1  3  2 -1</clus>
</clustering>
</event>
<event>
 6    0  0.3446372E+002  0.1376398E+03  0.7546771E-02  0.1216541E+00
         21   -1    0    0  502  501  0.00000000000E+00  0.00000000000E+00  0.79779425261E+02  0.79779425261E+02  0.00000000000E+00 0.  1.
         21   -1    0    0  503  502 -0.00000000000E+00 -0.00000000000E+00 -0.11035092402E+04  0.11035092402E+04  0.00000000000E+00 0.  1.
         21    1    1    2  503  505 -0.12046764678E+03 -0.64845095224E+02 -0.98385471133E+03  0.99332141490E+03  0.00000000000E+00 0.  1.
         21    1    1    2  504  501  0.52818367742E+02 -0.37503145162E+01  0.32089686787E+02  0.61916014310E+02  0.00000000000E+00 0.  1.
         21    1    1    2  505  506  0.26947779492E+02  0.54364083612E+02 -0.29253548174E+02  0.67360273807E+02  0.00000000000E+00 0.  1.
         21    1    1    2  506  504  0.40701499548E+02  0.14231326129E+02 -0.42711242185E+02  0.60690962406E+02  0.00000000000E+00 0.  1.
<scales pt_clust_3="130.41582" pt_clust_4="52.95134" pt_clust_5="37.09532" pt_clust_6="37.09532"></scales>
<clustering>
<clus scale="   37.095">  5  6 -1 -1</clus>
<clus scale="   52.951">  1  4  2 -1</clus>
<clus scale="  130.416">  2  3  1 -1</clus>
<clus scale="   52.951">  1  3  2 -1</clus>
</clustering>
</event>
<event>
 6    0  0.3446372E+002  0.7375693E+02  0.7546771E-02  0.1347764E+00
         21   -1    0    0  503  501  0.00000000000E+00  0.00000000000E+00  0.36089234003E+03  0.36089234003E+03  0.00000000000E+00 0.  1.
         21   -1    0    0  506  502 -0.00000000000E+00 -0.00000000000E+00 -0.16430179231E+03  0.16430179231E+03  0.00000000000E+00 0. -1.
         21    1    1    2  503  502 -0.36531332139E+02 -0.60907698058E+02 -0.95095445035E+02  0.11869047804E+03  0.00000000000E+00 0. -1.
         21    1    1    2  504  501  0.43687912610E+01  0.41839448535E+02  0.25426676271E+03  0.25772313131E+03  0.00000000000E+00 0.  1.
         21    1    1    2  505  504 -0.21888735390E+02 -0.50761292206E+02  0.89447874101E+01  0.55998524491E+02  0.00000000000E+00 0. -1.
         21    1    1    2  506  505  0.54051276268E+02  0.69829541729E+02  0.28474442632E+02  0.92781998510E+02  0.00000000000E+00 0.  1.
<scales pt_clust_3="73.75693" pt_clust_4="42.06692" pt_clust_5="43.02684" pt_clust_6="14000.00000"></scales>
<clustering>
<clus scale="   42.067">  1  4  2 -1</clus>
<clus scale="   43.027">  1  5  2 -1</clus>
<clus scale="   73.757">  2  3  1 -1</clus>
<clus scale="   42.067">  1  3  2 -1</clus>
</clustering>
</event>
<event>
 6    0  0.3446372E+002  0.9445917E+02  0.7546771E-02  0.1292399E+00
         21   -1    0    0  506  501  0.00000000000E+00  0.00000000000E+00  0.71478297401E+03  0.71478297401E+03  0.00000000000E+00 0. -1.
         21   -1    0    0  505  502 -0.00000000000E+00 -0.00000000000E+00 -0.23769179567E+03  0.23769179567E+03  0.00000000000E+00 0.  1.
         21    1    1    2  503  502 -0.19397282847E+02 -0.46238463999E+02 -0.55813866837E+02  0.75029579941E+02  0.00000000000E+00 0.  1.
         21    1    1    2  504  501 -0.55805927955E+02 -0.22544190834E+02  0.11038998075E+03  0.12573181772E+03  0.00000000000E+00 0. -1.
         21    1    1    2  505  504 -0.48103346577E+02 -0.23040763926E+02 -0.14985050646E+03  0.15905968389E+03  0.00000000000E+00 0.  1.
         21    1    1    2  506  503  0.12330655738E+03  0.91823418758E+02  0.57236557088E+03  0.59265368813E+03  0.00000000000E+00 0. -1.
<scales pt_clust_3="50.14230" pt_clust_4="61.77996" pt_clust_5="94.45917" pt_clust_6="14000.00000"></scales>
<clustering>
<clus scale="   50.142">  2  3  1 -1</clus>
<clus scale="   61.780">  1  4  2 -1</clus>
<clus scale="   94.459">  2  5  1 -1</clus>
<clus scale="   61.780">  1  3  2 -1</clus>
</clustering>
</event>
<event>
 6    0  0.4779732E+002  0.1003390E+03  0.7546771E-02  0.1279585E+00
         21   -1    0    0  505  501  0.00000000000E+00  0.00000000000E+00  0.29863740858E+03  0.29863740858E+03  0.00000000000E+00 0.  1.
         21   -1    0    0  504  502 -0.00000000000E+00 -0.00000000000E+00 -0.58174631206E+03  0.58174631206E+03  0.00000000000E+00 0.  1.
         21    1    1    2  503  502 -0.28184811863E+02 -0.12266258236E+02 -0.10108011529E+03  0.10565052967E+03  0.00000000000E+00 0.  1.
         21    1    1    2  504  501  0.92197443167E+02  0.43211121924E+02  0.27580555051E+03  0.29400046135E+03  0.00000000000E+00 0.  1.
         21    1    1    2  505  506 -0.14654691922E+02 -0.63662552090E+02 -0.36370788918E+03  0.36952822515E+03  0.00000000000E+00 0.  1.
         21    1    1    2  506  503 -0.49357939382E+02  0.32717688401E+02 -0.94126449519E+02  0.11120450447E+03  0.00000000000E+00 0. -1.
<scales pt_clust_3="30.73833" pt_clust_4="100.33901" pt_clust_5="14000.00000" pt_clust_6="63.04777"></scales>
<clustering>
<clus scale="   30.738">  2  3  1 -1</clus>
<clus scale="   63.048">  2  6  1 -1</clus>
<clus scale="  100.339">  1  4  2 -1</clus>
<clus scale="  100.339">  1  3  2 -1</clus>
</clustering>
</event>
<event>
 6    0  0.3446372E+002  0.3679932E+03  0.7546771E-02  0.1055463E+00
         21   -1    0    0  506  501  0.00000000000E+00  0.00000000000E+00  0.23191656547E+03  0.23191656547E+03  0.00000000000E+00 0. -1.
         21   -1    0    0  504  502 -0.00000000000E+00 -0.00000000000E+00 -0.87193938226E+03  0.87193938226E+03  0.00000000000E+00 0.  1.
         21    1    1    2  503  502  0.36888759547E+02 -0.40558765927E+02 -0.28302880599E+03  0.28828995664E+03  0.00000000000E+00 0.  1.
         21    1    1    2  504  505  0.16679544094E+02 -0.66566916799E+02 -0.79187697711E+02  0.10478574842E+03  0.00000000000E+00 0.  1.
         21    1    1    2  505  501  0.14242145326E+03 -0.21531152939E+03 -0.31246652646E+02  0.26003707109E+03  0.00000000000E+00 0. -1.
         21    1    1    2  506  503 -0.19598975690E+03  0.32243721212E+03 -0.24655966044E+03  0.45074317158E+03  0.00000000000E+00 0. -1.
<scales pt_clust_3="54.82512" pt_clust_4="67.32144" pt_clust_5="67.32144" pt_clust_6="345.38047"></scales>
<clustering>
<clus scale="   54.825">  2  3  1 -1</clus>
<clus scale="   67.321">  4  5 -1 -1</clus>
<clus scale="  345.380">  2  6  1 -1</clus>
<clus scale="  367.993">  1  3  2 -1</clus>
</clustering>
</event>
<event>
 6    0  0.3446372E+002  0.2373464E+03  0.7546771E-02  0.1121573E+00
         21   -1    0    0  504  501  0.00000000000E+00  0.00000000000E+00  0.86864619912E+03  0.86864619912E+03  0.00000000000E+00 0. -1.
         21   -1    0    0  506  502 -0.00000000000E+00 -0.00000000000E+00 -0.20471173609E+04  0.20471173609E+04  0.00000000000E+00 0. -1.
         21    1    1    2  503  505  0.23210335546E+03 -0.21524927394E+03 -0.44096357199E+03  0.54281957350E+03  0.00000000000E+00 0. -1.
         21    1    1    2  504  502 -0.30773432524E+02 -0.26025194626E+02 -0.73449206186E+02  0.83780073967E+02  0.00000000000E+00 0.  1.
         21    1    1    2  505  501 -0.97561699703E+02  0.43216515970E+02  0.80052786514E+03  0.80760808278E+03  0.00000000000E+00 0. -1.
         21    1    1    2  506  503 -0.10376822324E+03  0.19805795259E+03 -0.14645862488E+04  0.14815558298E+04  0.00000000000E+00 0. -1.
<scales pt_clust_3="14000.00000" pt_clust_4="40.30279" pt_clust_5="106.73664" pt_clust_6="237.34643"></scales>
<clustering>
<clus scale="   40.303">  2  4  1 -1</clus>
<clus scale="  106.737">  1  5  2 -1</clus>
<clus scale="  237.346">  2  6  1 -1</clus>
<clus scale="  106.737">  1  3  2 -1</clus>
</clustering>
</event>
<event>
 6    0  0.3446372E+002  0.2327877E+03  0.7546771E-02  0.1124693E+00
         21   -1    0    0  504  501  0.00000000000E+00  0.00000000000E+00  0.70255316259E+03  0.70255316259E+03  0.00000000000E+00 0. -1.
         21   -1    0    0  506  502 -0.00000000000E+00 -0.00000000000E+00 -0.30046897209E+03  0.30046897209E+03  0.00000000000E+00 0. -1.
         21    1    1    2  503  502  0.19218524020E+01  0.14600960290E+03 -0.13833410851E+03  0.20114378746E+03  0.00000000000E+00 0. -1.
         21    1    1    2  504  505 -0.42260429980E+02 -0.20376300214E+02  0.21036446035E+03  0.21553269759E+03  0.00000000000E+00 0. -1.
         21    1    1    2  505  503  0.33637749871E+02  0.82878307982E+02 -0.84000582356E+02  0.12270456384E+03  0.00000000000E+00 0. -1.
         21    1    1    2  506  501  0.67008277071E+01 -0.20851161067E+03  0.41405442101E+03  0.46364108579E+03  0.00000000000E+00 0. -1.
<scales pt_clust_3="33.12076" pt_clust_4="46.91628" pt_clust_5="33.12076" pt_clust_6="228.90879"></scales>
<clustering>
<clus scale="   33.121">  3  5 -1 -1</clus>
<clus scale="   46.916">  1  4  2 -1</clus>
<clus scale="  228.909">  1  6  2 -1</clus>
<clus scale="   46.916">  1  3  2 -1</clus>
</clustering>
</event>
<event>
 6    0  0.3446372E+002  0.2943089E+03  0.7546771E-02  0.1088121E+00
         21   -1    0    0  505  501  0.00000000000E+00  0.00000000000E+00  0.61638718139E+03  0.61638718139E+03  0.00000000000E+00 0. -1.
         21   -1    0    0  506  502 -0.00000000000E+00 -0.00000000000E+00 -0.10437372914E+04  0.10437372914E+04  0.00000000000E+00 0.  1.
         21    1    1    2  503  502  0.25462322485E+02  0.32869807647E+02 -0.19022304170E+03  0.19471404601E+03  0.00000000000E+00 0.  1.
         21    1    1    2  504  503 -0.16201817216E+01  0.25052709959E+03 -0.76741189391E+03  0.80727161942E+03  0.00000000000E+00 0.  1.
         21    1    1    2  505  504  0.38901019373E+02 -0.27483424412E+03  0.52590561902E+03  0.59466282141E+03  0.00000000000E+00 0. -1.
         21    1    1    2  506  501 -0.62743160136E+02 -0.85626631169E+01  0.43792065675E+01  0.63475985961E+02  0.00000000000E+00 0.  1.
<scales pt_clust_3="31.63010" pt_clust_4="31.63010" pt_clust_5="283.88270" pt_clust_6="63.32475"></scales>
<clustering>
<clus scale="   31.630">  3  4 -1 -1</clus>
<clus scale="   63.325">  1  6  2 -1</clus>
<clus scale="  283.883">  1  5  2 -1</clus>
<clus scale="   63.325">  1  3  2 -1</clus>
</clustering>
</event>
<event>
 6    0  0.3446372E+002  0.7876876E+02  0.7546771E-02  0.1332582E+00
         21   -1    0    0  503  501  0.00000000000E+00  0.00000000000E+00  0.55946181373E+03  0.55946181373E+03  0.00000000000E+00 0. -1.
         21   -1    0    0  506  502 -0.00000000000E+00 -0.00000000000E+00 -0.22356894938E+03  0.22356894938E+03  0.00000000000E+00 0. -1.
         21    1    1    2  503  505 -0.84922778129E+02 -0.12327007235E+01  0.36143751712E+03  0.37128220612E+03  0.00000000000E+00 0. -1.
         21    1    1    2  504  501 -0.12181450182E+01 -0.32545381378E+02  0.27975073036E+02  0.42933558410E+02  0.00000000000E+00 0. -1.
         21    1    1    2  505  502  0.16569246159E+02  0.69020080138E+02 -0.19486034917E+03  0.20738579281E+03  0.00000000000E+00 0. -1.
         21    1    1    2  506  504  0.69571676988E+02 -0.35241998036E+02  0.14134062336E+03  0.16142920578E+03  0.00000000000E+00 0. -1.
<scales pt_clust_3="14000.00000" pt_clust_4="32.56817" pt_clust_5="70.59948" pt_clust_6="78.76876"></scales>
<clustering>
<clus scale="   32.568">  1  4  2 -1</clus>
<clus scale="   70.599">  2  5  1 -1</clus>
<clus scale="   78.769">  2  6  1 -1</clus>
<clus scale="   32.568">  1  3  2 -1</clus>
</clustering>
</event>
<event>
 6    0  0.3446372E+002  0.1221480E+03  0.7546771E-02  0.1239595E+00
         21   -1    0    0  503  501  0.00000000000E+00  0.00000000000E+00  0.31846477762E+03  0.31846477762E+03  0.00000000000E+00 0.  1.
         21   -1    0    0  504  502 -0.00000000000E+00 -0.00000000000E+00 -0.68926528223E+02  0.68926528223E+02  0.00000000000E+00 0.  1.
         21    1    1    2  503  505 -0.36343698215E+02  0.38625981075E+02  0.88792401785E+02  0.10342592242E+03  0.00000000000E+00 0.  1.
         21    1    1    2  504  501 -0.21896739674E+02  0.20908119266E+02 -0.88915435197E+01  0.31554337352E+02  0.00000000000E+00 0.  1.
         21    1    1    2  505  506 -0.51152245759E+02  0.16223220359E+02  0.43797330912E+02  0.69267245651E+02  0.00000000000E+00 0.  1.
         21    1    1    2  506  502  0.10939268365E+03 -0.75757320700E+02  0.12584006021E+03  0.18314380041E+03  0.00000000000E+00 0.  1.
<scales pt_clust_3="38.64530" pt_clust_4="30.27568" pt_clust_5="38.64530" pt_clust_6="115.50413"></scales>
<clustering>
<clus scale="   30.276">  2  4  1 -1</clus>
<clus scale="   38.645">  3  5 -1 -1</clus>
<clus scale="  115.504">  2  6  1 -1</clus>
<clus scale="  122.148">  1  3  2 -1</clus>
</clustering>
</event>
<event>
 6    0  0.3446372E+002  0.9058607E+02  0.7546771E-02  0.1301439E+00
         21   -1    0    0  503  501  0.00000000000E+00  0.00000000000E+00  0.40668483489E+03  0.40668483489E+03  0.00000000000E+00 0. -1.
         21   -1    0    0  505  502 -0.00000000000E+00 -0.00000000000E+00 -0.13748332145E+03  0.13748332145E+03  0.00000000000E+00 0.  1.
         21    1    1    2  503  504 -0.63206875697E+02 -0.12386312571E+03  0.30021200337E+03  0.33085409173E+03  0.00000000000E+00 0. -1.
         21    1    1    2  504  502 -0.25202625232E+02  0.16383722218E+02  0.66247098877E+01  0.30781251654E+02  0.00000000000E+00 0.  1.
         21    1    1    2  505  506  0.62831844945E+02  0.60626438943E+02 -0.76834911253E+02  0.11630567237E+03  0.00000000000E+00 0.  1.
         21    1    1    2  506  501  0.25577655983E+02  0.46852964552E+02  0.39199711434E+02  0.66227140581E+02  0.00000000000E+00 0. -1.
<scales pt_clust_3="90.58607" pt_clust_4="30.05992" pt_clust_5="14000.00000" pt_clust_6="53.72541"></scales>
<clustering>
<clus scale="   30.060">  2  4  1 -1</clus>
<clus scale="   53.725">  1  6  2 -1</clus>
<clus scale="   90.586">  1  3  2 -1</clus>
<clus scale="   53.725">  1  3  2 -1</clus>
</clustering>
</event>
<event>
 6    0  0.3446372E+002  0.1297183E+03  0.7546771E-02  0.1227874E+00
         21   -1    0    0  505  501  0.00000000000E+00  0.00000000000E+00  0.28809879660E+03  0.28809879660E+03  0.00000000000E+00 0.  1.
         21   -1    0    0  504  502 -0.00000000000E+00 -0.00000000000E+00 -0.79263668753E+03  0.79263668753E+03  0.00000000000E+00 0.  1.
         21    1    1    2  503  501  0.35313696922E+02  0.65439847188E+02  0.22695320123E+03  0.23882459324E+03  0.00000000000E+00 0.  1.
         21    1    1    2  504  503 -0.83873543848E+02 -0.89828940660E+02 -0.50783072555E+03  0.52249024465E+03  0.00000000000E+00 0.  1.
         21    1    1    2  505  506  0.82987133555E+02  0.18669356457E+02  0.77314289330E+01  0.85411850463E+02  0.00000000000E+00 0.  1.
         21    1    1    2  506  502 -0.34427286629E+02  0.57197370146E+01 -0.23139179554E+03  0.23400879577E+03  0.00000000000E+00 0.  1.
<scales pt_clust_3="74.24101" pt_clust_4="129.71827" pt_clust_5="14000.00000" pt_clust_6="34.89919"></scales>
<clustering>
<clus scale="   34.899">  2  6  1 -1</clus>
<clus scale="   74.241">  1  3  2 -1</clus>
<clus scale="  129.718">  2  4  1 -1</clus>
<clus scale="   74.241">  1  3  2 -1</clus>
</clustering>
</event>
<event>
 6    0  0.4673944E+002  0.1446317E+03  0.7546771E-02  0.1207229E+00
         21   -1    0    0  504  501  0.00000000000E+00  0.00000000000E+00  0.79085800340E+03  0.79085800340E+03  0.00000000000E+00 0. -1.
         21   -1    0    0  506  502 -0.00000000000E+00 -0.00000000000E+00 -0.57557625727E+03  0.57557625727E+03  0.00000000000E+00 0.  1.
         21    1    1    2  503  501  0.28571243679E+02  0.16399692871E+02  0.75208691569E+03  0.75280807292E+03  0.00000000000E+00 0. -1.
         21    1    1    2  504  505  0.35890073797E+02 -0.38626388645E+00 -0.51688189829E+01  0.36262422514E+02  0.00000000000E+00 0.  1.
         21    1    1    2  505  502  0.74515317181E+02 -0.21744361508E+02 -0.12051653826E+03  0.14335126699E+03  0.00000000000E+00 0.  1.
         21    1    1    2  506  503 -0.13897663466E+03  0.57309325228E+01 -0.41111981231E+03  0.43401249826E+03  0.00000000000E+00 0.  1.
<scales pt_clust_3="32.94337" pt_clust_4="46.24811" pt_clust_5="46.24811" pt_clust_6="130.89377"></scales>
<clustering>
<clus scale="   32.943">  1  3  2 -1</clus>
<clus scale="   46.248">  4  5 -1 -1</clus>
<clus scale="  130.894">  2  6  1 -1</clus>
<clus scale="   32.943">  1  3  2 -1</clus>
</clustering>
</event>
<event>
 6    0  0.3446372E+002  0.1878171E+03  0.7546771E-02  0.1160445E+00
         21   -1    0    0  505  501  0.00000000000E+00  0.00000000000E+00  0.14736864825E+04  0.14736864825E+04  0.00000000000E+00 0. -1.
         21   -1    0    0  504  502 -0.00000000000E+00 -0.00000000000E+00 -0.25290536666E+03  0.25290536666E+03  0.00000000000E+00 0. -1.
         21    1    1    2  503  501 -0.34032216563E+02  0.24987075079E+02  0.95532149913E+02  0.10444585847E+03  0.00000000000E+00 0. -1.
         21    1    1    2  504  503 -0.43335367553E+01  0.65748365286E+02  0.50951331633E+02  0.83292648377E+02  0.00000000000E+00 0.  1.
         21    1    1    2  505  506  0.11595806915E+03 -0.19478055582E+03  0.12776537090E+04  0.12976073130E+04  0.00000000000E+00 0. -1.
         21    1    1    2  506  502 -0.77592315827E+02  0.10404511546E+03 -0.20335607469E+03  0.24124602928E+03  0.00000000000E+00 0. -1.
<scales pt_clust_3="42.22020" pt_clust_4="67.23721" pt_clust_5="187.81712" pt_clust_6="14000.00000"></scales>
<clustering>
<clus scale="   42.220">  1  3  2 -1</clus>
<clus scale="   67.237">  2  4  1 -1</clus>
<clus scale="  187.817">  1  5  2 -1</clus>
<clus scale="   42.220">  1  3  2 -1</clus>
</clustering>
</event>
<event>
 6    0  0.3446372E+002  0.2534453E+03  0.7546771E-02  0.1111147E+00
         21   -1    0    0  504  501  0.00000000000E+00  0.00000000000E+00  0.52979328274E+03  0.52979328274E+03  0.00000000000E+00 0.  1.
         21   -1    0    0  506  502 -0.00000000000E+00 -0.00000000000E+00 -0.11961446574E+03  0.11961446574E+03  0.00000000000E+00 0.  1.
         21    1    1    2  503  501  0.55819032786E+02  0.24726155514E+02  0.44713343327E+02  0.75673180581E+02  0.00000000000E+00 0.  1.
         21    1    1    2  504  502 -0.23250755590E+03  0.34065525176E+02  0.27650626304E+03  0.36287179148E+03  0.00000000000E+00 0.  1.
         21    1    1    2  505  503  0.63028251371E+02 -0.41651078644E+02  0.44079904838E+02  0.87466626971E+02  0.00000000000E+00 0.  1.
         21    1    1    2  506  505  0.11366027174E+03 -0.17140602046E+02  0.44879305798E+02  0.12339614945E+03  0.00000000000E+00 0.  1.
<scales pt_clust_3="46.37076" pt_clust_4="234.98984" pt_clust_5="35.09591" pt_clust_6="46.37076"></scales>
<clustering>
<clus scale="   35.096">  5  6 -1 -1</clus>
<clus scale="   46.371">  3  5 -1 -1</clus>
<clus scale="  234.990">  1  4  2 -1</clus>
<clus scale="  234.990">  1  3  2 -1</clus>
</clustering>
</event>
<event>
 6    0  0.3446372E+002  0.1282579E+03  0.7546771E-02  0.1230064E+00
         21   -1    0    0  503  501  0.00000000000E+00  0.00000000000E+00  0.10871698241E+04  0.10871698241E+04  0.00000000000E+00 0. -1.
         21   -1    0    0  506  502 -0.00000000000E+00 -0.00000000000E+00 -0.57108994075E+02  0.57108994075E+02  0.00000000000E+00 0. -1.
         21    1    1    2  503  502 -0.78330909265E+02 -0.10302874006E+03  0.25646166504E+03  0.28726858210E+03  0.00000000000E+00 0. -1.
         21    1    1    2  504  505 -0.11286298049E+01  0.43200036922E+02  0.43799272983E+02  0.61529613270E+02  0.00000000000E+00 0. -1.
         21    1    1    2  505  501  0.37668494382E+02 -0.96373356136E+00  0.72008746346E+03  0.72107267268E+03  0.00000000000E+00 0. -1.
         21    1    1    2  506  504  0.41791044687E+02  0.60792436702E+02  0.97124285564E+01  0.74407950145E+02  0.00000000000E+00 0. -1.
<scales pt_clust_3="115.33618" pt_clust_4="42.27539" pt_clust_5="37.68082" pt_clust_6="42.27539"></scales>
<clustering>
<clus scale="   37.681">  1  5  2 -1</clus>
<clus scale="   42.275">  4  6 -1 -1</clus>
<clus scale="  115.336">  1  3  2 -1</clus>
<clus scale="   37.681">  1  3  2 -1</clus>
</clustering>
</event>
<event>
 6    0  0.3446372E+002  0.1176371E+03  0.7546771E-02  0.1247047E+00
         21   -1    0    0  503  501  0.00000000000E+00  0.00000000000E+00  0.97699894576E+02  0.97699894576E+02  0.00000000000E+00 0.  1.
         21   -1    0    0  505  502 -0.00000000000E+00 -0.00000000000E+00 -0.81904816512E+03  0.81904816512E+03  0.00000000000E+00 0.  1.
         21    1    1    2  503  504 -0.13511002947E+03 -0.22006665063E+02  0.14011518669E+02  0.13760572672E+03  0.00000000000E+00 0.  1.
         21    1    1    2  504  506  0.35641821364E+02 -0.33542951096E+01 -0.12579466429E+02  0.37945140683E+02  0.00000000000E+00 0.  1.
         21    1    1    2  505  501  0.59836328802E+02  0.46078538952E+02 -0.65892855933E+03  0.66324238729E+03  0.00000000000E+00 0.  1.
         21    1    1    2  506  502  0.39631879302E+02 -0.20717578779E+02 -0.63851763459E+02  0.77954805011E+02  0.00000000000E+00 0.  1.
<scales pt_clust_3="111.77215" pt_clust_4="32.81887" pt_clust_5="75.52230" pt_clust_6="32.81887"></scales>
<clustering>
<clus scale="   32.819">  4  6 -1 -1</clus>
<clus scale="   75.522">  2  5  1 -1</clus>
<clus scale="  111.772">  1  3  2 -1</clus>
<clus scale="  111.772">  1  3  2 -1</clus>
</clustering>
</event>
<event>
 6    0  0.3446372E+002  0.9576847E+02  0.7546771E-02  0.1289455E+00
         21   -1    0    0  504  501  0.00000000000E+00  0.00000000000E+00  0.34060064620E+02  0.34060064620E+02  0.00000000000E+00 0. -1.
         21   -1    0    0  506  502 -0.00000000000E+00 -0.00000000000E+00 -0.15866975418E+04  0.15866975418E+04  0.00000000000E+00 0. -1.
         21    1    1    2  503  505  0.62311136382E+02 -0.25376552466E+02 -0.36935857828E+03  0.37543628818E+03  0.00000000000E+00 0. -1.
         21    1    1    2  504  502 -0.11086291206E+03  0.15561151650E+02 -0.96738041676E+02  0.14795601853E+03  0.00000000000E+00 0. -1.
         21    1    1    2  505  501 -0.11116047696E+01 -0.38537163150E+02 -0.83928527116E+02  0.92359873715E+02  0.00000000000E+00 0. -1.
         21    1    1    2  506  503  0.49663380449E+02  0.48352563965E+02 -0.10026123301E+04  0.10050054260E+04  0.00000000000E+00 0. -1.
<scales pt_clust_3="95.76847" pt_clust_4="14000.00000" pt_clust_5="38.55319" pt_clust_6="68.21267"></scales>
<clustering>
<clus scale="   38.553">  1  5  2 -1</clus>
<clus scale="   68.213">  2  6  1 -1</clus>
<clus scale="   95.768">  2  3  1 -1</clus>
<clus scale="   38.553">  1  3  2 -1</clus>
</clustering>
</event>
<event>
 6    0  0.3446372E+002  0.7619044E+02  0.7546771E-02  0.1340224E+00
         21   -1    0    0  504  501  0.00000000000E+00  0.00000000000E+00  0.41845991073E+03  0.41845991073E+03  0.00000000000E+00 0.  1.
         21   -1    0    0  503  502 -0.00000000000E+00 -0.00000000000E+00 -0.38780485606E+03  0.38780485606E+03  0.00000000000E+00 0.  1.
         21    1    1    2  503  501 -0.61762591468E+02 -0.15161678968E+02 -0.10783499160E+03  0.12519137202E+03  0.00000000000E+00 0.  1.
         21    1    1    2  504  506 -0.30750999147E+02 -0.30074825932E+02  0.20672993144E+03  0.21115724865E+03  0.00000000000E+00 0.  1.
         21    1    1    2  505  502  0.13815028792E+03  0.31481604071E+02 -0.24708463274E+03  0.28482873658E+03  0.00000000000E+00 0.  1.
         21    1    1    2  506  505 -0.45636697308E+02  0.13754900829E+02  0.17884474757E+03  0.18508740955E+03  0.00000000000E+00 0.  1.
<scales pt_clust_3="65.13661" pt_clust_4="43.01301" pt_clust_5="14000.00000" pt_clust_6="76.19044"></scales>
<clustering>
<clus scale="   43.013">  1  4  2 -1</clus>
<clus scale="   65.137">  2  3  1 -1</clus>
<clus scale="   76.190">  1  6  2 -1</clus>
<clus scale="   43.013">  1  3  2 -1</clus>
</clustering>
</event>
<event>
 6    0  0.3446372E+002  0.1397119E+03  0.7546771E-02  0.1213717E+00
         21   -1    0    0  503  501  0.00000000000E+00  0.00000000000E+00  0.60305962367E+03  0.60305962367E+03  0.00000000000E+00 0. -1.
         21   -1    0    0  504  502 -0.00000000000E+00 -0.00000000000E+00 -0.73236786233E+03  0.73236786233E+03  0.00000000000E+00 0. -1.
         21    1    1    2  503  502  0.43377047467E+02 -0.17511641620E+03  0.46441596449E+03  0.49822636978E+03  0.00000000000E+00 0. -1.
         21    1    1    2  504  505  0.34701388228E+02  0.79312155877E+02 -0.65230490386E+03  0.65802453755E+03  0.00000000000E+00 0. -1.
         21    1    1    2  505  506 -0.62557437470E+02  0.69312004103E+02 -0.19405899710E+02  0.95363388358E+02  0.00000000000E+00 0. -1.
         21    1    1    2  506  501 -0.15520998225E+02  0.26492256216E+02  0.77986600423E+02  0.83813190315E+02  0.00000000000E+00 0. -1.
<scales pt_clust_3="14000.00000" pt_clust_4="86.67034" pt_clust_5="139.71194" pt_clust_6="30.70409"></scales>
<clustering>
<clus scale="   30.704">  1  6  2 -1</clus>
<clus scale="   86.670">  2  4  1 -1</clus>
<clus scale="  139.712">  2  5  1 -1</clus>
<clus scale="   30.704">  1  3  2 -1</clus>
</clustering>
</event>
<event>
 6    0  0.3446372E+002  0.1068882E+03  0.7546771E-02  0.1266443E+00
         21   -1    0    0  504  501  0.00000000000E+00  0.00000000000E+00  0.17370140573E+04  0.17370140573E+04  0.00000000000E+00 0.  1.
         21   -1    0    0  503  502 -0.00000000000E+00 -0.00000000000E+00 -0.42520711891E+02  0.42520711891E+02  0.00000000000E+00 0.  1.
         21    1    1    2  503  506 -0.30016288708E+02  0.58936189648E+02  0.15895242209E+03  0.17216365623E+03  0.00000000000E+00 0. -1.
         21    1    1    2  504  505 -0.83697111929E+02  0.61655142853E+02  0.10292744350E+04  0.10345107180E+04  0.00000000000E+00 0.  1.
         21    1    1    2  505  502  0.14657323751E+03 -0.26458398794E+02  0.19102561615E+03  0.24222829489E+03  0.00000000000E+00 0.  1.
         21    1    1    2  506  501 -0.32859836871E+02 -0.94132933708E+02  0.31524087217E+03  0.33063210003E+03  0.00000000000E+00 0.  1.
<scales pt_clust_3="66.13964" pt_clust_4="14000.00000" pt_clust_5="106.88819" pt_clust_6="90.48100"></scales>
<clustering>
<clus scale="   66.140">  2  3  1 -1</clus>
<clus scale="   90.481">  2  6  1 -1</clus>
<clus scale="  106.888">  2  5  1 -1</clus>
<clus scale="  106.888">  1  3  2 -1</clus>
</clustering>
</event>
<event>
 6    0  0.3446372E+002  0.1283236E+03  0.7546771E-02  0.1229965E+00
         21   -1    0    0  504  501  0.00000000000E+00  0.00000000000E+00  0.75779900915E+03  0.75779900915E+03  0.00000000000E+00 0. -1.
         21   -1    0    0  503  502 -0.00000000000E+00 -0.00000000000E+00 -0.61095248170E+03  0.61095248170E+03  0.00000000000E+00 0.  1.
         21    1    1    2  503  505 -0.21165771181E+02 -0.50127478339E+02 -0.43793651833E+03  0.44130391800E+03  0.00000000000E+00 0.  1.
         21    1    1    2  504  502  0.15019075478E+02 -0.81935852313E+02 -0.15267105017E+03  0.17391810165E+03  0.00000000000E+00 0.  1.
         21    1    1    2  505  506 -0.27932484807E+02  0.10341815123E+03  0.58418958004E+03  0.59393013321E+03  0.00000000000E+00 0. -1.
         21    1    1    2  506  501  0.34079180509E+02  0.28645179423E+02  0.15326451591E+03  0.15959933798E+03  0.00000000000E+00 0.  1.
<scales pt_clust_3="54.30184" pt_clust_4="14000.00000" pt_clust_5="128.32358" pt_clust_6="44.51895"></scales>
<clustering>
<clus scale="   44.519">  1  6  2 -1</clus>
<clus scale="   54.302">  2  3  1 -1</clus>
<clus scale="  128.324">  1  5  2 -1</clus>
<clus scale="   44.519">  1  3  2 -1</clus>
</clustering>
</event>
<event>
 6    0  0.3446372E+002  0.1224530E+03  0.7546771E-02  0.1239104E+00
         21   -1    0    0  504  501  0.00000000000E+00  0.00000000000E+00  0.35237849887E+03  0.35237849887E+03  0.00000000000E+00 0.  1.
         21   -1    0    0  506  502 -0.00000000000E+00 -0.00000000000E+00 -0.31813618120E+03  0.31813618120E+03  0.00000000000E+00 0.  1.
         21    1    1    2  503  501 -0.48157937062E+02 -0.89235879223E+02  0.30633053546E+03  0.32267727840E+03  0.00000000000E+00 0.  1.
         21    1    1    2  504  502  0.29636676854E+02 -0.26607588218E+02  0.90705874586E+01  0.40848156906E+02  0.00000000000E+00 0. -1.
         21    1    1    2  505  503  0.42263925196E+01  0.65538918527E+02 -0.11098146774E+03  0.12895773888E+03  0.00000000000E+00 0.  1.
         21    1    1    2  506  505  0.14294867688E+02  0.50304548914E+02 -0.17017733751E+03  0.17803150588E+03  0.00000000000E+00 0.  1.
<scales pt_clust_3="116.47039" pt_clust_4="39.82834" pt_clust_5="33.73713" pt_clust_6="33.73713"></scales>
<clustering>
<clus scale="   33.737">  5  6 -1 -1</clus>
<clus scale="   39.828">  1  4  2 -1</clus>
<clus scale="  116.470">  1  3  2 -1</clus>
<clus scale="   39.828">  1  3  2 -1</clus>
</clustering>
</event>
<event>
 6    0  0.3446372E+002  0.1349254E+03  0.7546771E-02  0.1220325E+00
         21   -1    0    0  506  501  0.00000000000E+00  0.00000000000E+00  0.60109413136E+03  0.60109413136E+03  0.00000000000E+00 0. -1.
         21   -1    0    0  505  502 -0.00000000000E+00 -0.00000000000E+00 -0.15333403761E+03  0.15333403761E+03  0.00000000000E+00 0.  1.
         21    1    1    2  503  501 -0.27858176719E+02  0.14393825966E+02  0.75462701277E+02  0.81718293668E+02  0.00000000000E+00 0. -1.
         21    1    1    2  504  503  0.70818569184E+02  0.29328374226E+02 -0.36291503352E+02  0.84808587369E+02  0.00000000000E+00 0.  1.
         21    1    1    2  505  504  0.50781152706E+02 -0.66855610345E+01 -0.76714400669E+02  0.92241647136E+02  0.00000000000E+00 0.  1.
         21    1    1    2  506  502 -0.93741545170E+02 -0.37036639158E+02  0.48530329649E+03  0.49565964080E+03  0.00000000000E+00 0. -1.
<scales pt_clust_3="31.35698" pt_clust_4="46.88151" pt_clust_5="46.88151" pt_clust_6="122.17861"></scales>
<clustering>
<clus scale="   31.357">  1  3  2 -1</clus>
<clus scale="   46.882">  4  5 -1 -1</clus>
<clus scale="  122.179">  1  6  2 -1</clus>
<clus scale="   31.357">  1  3  2 -1</clus>
</clustering>
</event>
<event>
 6    0  0.3446372E+002  0.6435964E+02  0.7546771E-02  0.1380397E+00
         21   -1    0    0  504  501  0.00000000000E+00  0.00000000000E+00  0.12074855051E+02  0.12074855051E+02  0.00000000000E+00 0. -1.
         21   -1    0    0  503  502 -0.00000000000E+00 -0.00000000000E+00 -0.19495120000E+04  0.19495120000E+04  0.00000000000E+00 0. -1.
         21    1    1    2  503  506  0.56060654337E+02  0.40713956379E+02 -0.10802466036E+04  0.10824662340E+04  0.00000000000E+00 0. -1.
         21    1    1    2  504  505 -0.85266040294E+02 -0.49257080218E+02 -0.31485597531E+03  0.32989519968E+03  0.00000000000E+00 0. -1.
         21    1    1    2  505  502 -0.40542848805E+01 -0.32671842221E+02 -0.24632232682E+03  0.24851272642E+03  0.00000000000E+00 0. -1.
         21    1    1    2  506  501  0.33259670837E+02  0.41214966060E+02 -0.29601223926E+03  0.30071269498E+03  0.00000000000E+00 0.  1.
<scales pt_clust_3="14000.00000" pt_clust_4="64.35964" pt_clust_5="32.92243" pt_clust_6="48.15419"></scales>
<clustering>
<clus scale="   32.922">  2  5  1 -1</clus>
<clus scale="   48.154">  1  6  2 -1</clus>
<clus scale="   64.360">  1  4  2 -1</clus>
<clus scale="   48.154">  1  3  2 -1</clus>
</clustering>
</event>
<event>
 6    0  0.3446372E+002  0.8368640E+02  0.7546771E-02  0.1318904E+00
         21   -1    0    0  504  501  0.00000000000E+00  0.00000000000E+00  0.11456574507E+04  0.11456574507E+04  0.00000000000E+00 0. -1.
         21   -1    0    0  503  502 -0.00000000000E+00 -0.00000000000E+00 -0.25892321541E+03  0.25892321541E+03  0.00000000000E+00 0.  1.
         21    1    1    2  503  506  0.19942949135E+02 -0.25928318299E+02 -0.22139330987E+02  0.39498720063E+02  0.00000000000E+00 0.  1.
         21    1    1    2  504  505 -0.34641730683E+02 -0.43459205818E+02  0.34164276801E+03  0.34613369239E+03  0.00000000000E+00 0. -1.
         21    1    1    2  505  502 -0.66070641719E+02 -0.42899745583E+02 -0.21271446491E+03  0.22683289323E+03  0.00000000000E+00 0.  1.
         21    1    1    2  506  501  0.80769423267E+02  0.11228726970E+03  0.77994526314E+03  0.79211536039E+03  0.00000000000E+00 0. -1.
<scales pt_clust_3="32.71084" pt_clust_4="55.65464" pt_clust_5="83.68640" pt_clust_6="14000.00000"></scales>
<clustering>
<clus scale="   32.711">  2  3  1 -1</clus>
<clus scale="   55.655">  1  4  2 -1</clus>
<clus scale="   83.686">  2  5  1 -1</clus>
<clus scale="   55.655">  1  3  2 -1</clus>
</clustering>
</event>
<event>
 6    0  0.3446372E+002  0.1708069E+03  0.7546771E-02  0.1177009E+00
         21   -1    0    0  503  501  0.00000000000E+00  0.00000000000E+00  0.43811748646E+03  0.43811748646E+03  0.00000000000E+00 0.  1.
         21   -1    0    0  504  502 -0.00000000000E+00 -0.00000000000E+00 -0.57888478609E+03  0.57888478609E+03  0.00000000000E+00 0.  1.
         21    1    1    2  503  506 -0.45134201335E+02  0.79818196359E+02  0.21593229004E+02  0.94203546318E+02  0.00000000000E+00 0. -1.
         21    1    1    2  504  505  0.16332488605E+03  0.12198163910E+01  0.17450496373E+03  0.23901566626E+03  0.00000000000E+00 0.  1.
         21    1    1    2  505  501  0.46796320793E+02 -0.33359980694E+02  0.15366391807E+03  0.16405908590E+03  0.00000000000E+00 0.  1.
         21    1    1    2  506  502 -0.16498700550E+03 -0.47678032056E+02 -0.49052941042E+03  0.51972397406E+03  0.00000000000E+00 0.  1.
<scales pt_clust_3="81.05595" pt_clust_4="14000.00000" pt_clust_5="57.46985" pt_clust_6="170.80691"></scales>
<clustering>
<clus scale="   57.470">  1  5  2 -1</clus>
<clus scale="   81.056">  1  3  2 -1</clus>
<clus scale="  170.807">  2  6  1 -1</clus>
<clus scale="   57.470">  1  3  2 -1</clus>
</clustering>
</event>
<event>
 6    0  0.3446372E+002  0.8419153E+02  0.7546771E-02  0.1317560E+00
         21   -1    0    0  506  501  0.00000000000E+00  0.00000000000E+00  0.72379435831E+03  0.72379435831E+03  0.00000000000E+00 0. -1.
         21   -1    0    0  503  502 -0.00000000000E+00 -0.00000000000E+00 -0.20303496559E+03  0.20303496559E+03  0.00000000000E+00 0. -1.
         21    1    1    2  503  501  0.19360604439E+02  0.68532136786E+02  0.55219661254E+03  0.55676977799E+03  0.00000000000E+00 0. -1.
         21    1    1    2  504  505  0.70859195697E+01 -0.10543368444E+03 -0.96258652632E+02  0.14294124764E+03  0.00000000000E+00 0. -1.
         21    1    1    2  505  502  0.33805909078E+02  0.31178662230E+02 -0.67462346156E+02  0.81646289664E+02  0.00000000000E+00 0. -1.
         21    1    1    2  506  504 -0.60252433086E+02  0.57228854231E+01  0.13228377897E+03  0.14547200861E+03  0.00000000000E+00 0. -1.
<scales pt_clust_3="14000.00000" pt_clust_4="84.19153" pt_clust_5="45.98857" pt_clust_6="58.97383"></scales>
<clustering>
<clus scale="   45.989">  2  5  1 -1</clus>
<clus scale="   58.974">  1  6  2 -1</clus>
<clus scale="   84.192">  2  4  1 -1</clus>
<clus scale="   58.974">  1  3  2 -1</clus>
</clustering>
</event>
<event>
 6    0  0.3446372E+002  0.1160002E+03  0.7546771E-02  0.1249845E+00
         21   -1    0    0  503  501  0.00000000000E+00  0.00000000000E+00  0.10666077476E+04  0.10666077476E+04  0.00000000000E+00 0.  1.
         21   -1    0    0  504  502 -0.00000000000E+00 -0.00000000000E+00 -0.22333897534E+03  0.22333897534E+03  0.00000000000E+00 0.  1.
         21    1    1    2  503  505  0.51679457140E+02 -0.37174537365E+02  0.34136435156E+03  0.34724966960E+03  0.00000000000E+00 0. -1.
         21    1    1    2  504  506 -0.41045834987E+02  0.76678731599E+02 -0.18092854001E+03  0.20074741603E+03  0.00000000000E+00 0.  1.
         21    1    1    2  505  502  0.75577886798E-01  0.35066004501E+02 -0.16370689158E+02  0.38699222824E+02  0.00000000000E+00 0. -1.
         21    1    1    2  506  501 -0.10709200040E+02 -0.74570198735E+02  0.69920364986E+03  0.70325041450E+03  0.00000000000E+00 0.  1.
<scales pt_clust_3="63.35555" pt_clust_4="14000.00000" pt_clust_5="35.06609" pt_clust_6="116.00020"></scales>
<clustering>
<clus scale="   35.066">  2  5  1 -1</clus>
<clus scale="   63.356">  1  3  2 -1</clus>
<clus scale="  116.000">  1  6  2 -1</clus>
<clus scale="   63.356">  1  3  2 -1</clus>
</clustering>
</event>
<event>
 6    0  0.3446372E+002  0.1019703E+03  0.7546771E-02  0.1276206E+00
         21   -1    0    0  504  501  0.00000000000E+00  0.00000000000E+00  0.10449267026E+03  0.10449267026E+03  0.00000000000E+00 0.  1.
         21   -1    0    0  505  502 -0.00000000000E+00 -0.00000000000E+00 -0.25474102356E+03  0.25474102356E+03  0.00000000000E+00 0.  1.
         21    1    1    2  503  506  0.29203372652E+01  0.10627061534E+03 -0.51834580130E+02  0.11827423959E+03  0.00000000000E+00 0.  1.
         21    1    1    2  504  503 -0.74948645544E+02 -0.19151508542E+02 -0.69253973558E+01  0.77666214514E+02  0.00000000000E+00 0.  1.
         21    1    1    2  505  501  0.31469264711E+02  0.73917606684E+01 -0.19432933696E+02  0.37717259435E+02  0.00000000000E+00 0.  1.
         21    1    1    2  506  502  0.40559043568E+02 -0.94510867463E+02 -0.72055442120E+02  0.12557598028E+03  0.00000000000E+00 0.  1.
<scales pt_clust_3="14000.00000" pt_clust_4="71.31277" pt_clust_5="32.32573" pt_clust_6="101.97028"></scales>
<clustering>
<clus scale="   32.326">  2  5  1 -1</clus>
<clus scale="   71.313">  1  4  2 -1</clus>
<clus scale="  101.970">  2  6  1 -1</clus>
<clus scale="   71.313">  1  3  2 -1</clus>
</clustering>
</event>
<event>
 6    0  0.3446372E+002  0.1155752E+03  0.7546771E-02  0.1250580E+00
         21   -1    0    0  505  501  0.00000000000E+00  0.00000000000E+00  0.14802081581E+03  0.14802081581E+03  0.00000000000E+00 0.  1.
         21   -1    0    0  506  502 -0.00000000000E+00 -0.00000000000E+00 -0.11684627399E+04  0.11684627399E+04  0.00000000000E+00 0. -1.
         21    1    1    2  503  502 -0.42632076049E+02  0.69606381183E+01 -0.85869288683E+02  0.96122209349E+02  0.00000000000E+00 0. -1.
         21    1    1    2  504  501 -0.39377665298E+02 -0.47602616071E+02 -0.61483357723E+03  0.61792955688E+03  0.00000000000E+00 0. -1.
         21    1    1    2  505  503  0.11864470694E+03  0.13526043853E+01  0.11449570340E+03  0.16488681609E+03  0.00000000000E+00 0.  1.
         21    1    1    2  506  504 -0.36634965594E+02  0.39289373568E+02 -0.43423476159E+03  0.43754497341E+03  0.00000000000E+00 0. -1.
<scales pt_clust_3="43.19658" pt_clust_4="115.57524" pt_clust_5="14000.00000" pt_clust_6="68.38205"></scales>
<clustering>
<clus scale="   43.197">  2  3  1 -1</clus>
<clus scale="   68.382">  2  6  1 -1</clus>
<clus scale="  115.575">  2  4  1 -1</clus>
<clus scale="  115.575">  1  3  2 -1</clus>
</clustering>
</event>
<event>
 6    0  0.3446372E+002  0.9889428E+02  0.7546771E-02  0.1282638E+00
         21   -1    0    0  503  501  0.00000000000E+00  0.00000000000E+00  0.12936804797E+03  0.12936804797E+03  0.00000000000E+00 0. -1.
         21   -1    0    0  504  502 -0.00000000000E+00 -0.00000000000E+00 -0.43023795085E+03  0.43023795085E+03  0.00000000000E+00 0. -1.
         21    1    1    2  503  506  0.99989491977E+02 -0.58527117994E+00  0.88258121793E+02  0.13337067560E+03  0.00000000000E+00 0. -1.
         21    1    1    2  504  505  0.89496983235E+01  0.34785755807E+02 -0.11707760838E+03  0.12246351412E+03  0.00000000000E+00 0. -1.
         21    1    1    2  505  501 -0.86455192305E+02 -0.56006754739E+02 -0.22189230281E+03  0.24463738655E+03  0.00000000000E+00 0. -1.
         21    1    1    2  506  502 -0.22483997996E+02  0.21806270112E+02 -0.50158113489E+02  0.59134422554E+02  0.00000000000E+00 0. -1.
<scales pt_clust_3="98.89428" pt_clust_4="41.77738" pt_clust_5="14000.00000" pt_clust_6="31.32162"></scales>
<clustering>
<clus scale="   31.322">  2  6  1 -1</clus>
<clus scale="   41.777">  2  4  1 -1</clus>
<clus scale="   98.894">  1  3  2 -1</clus>
<clus scale="   98.894">  1  3  2 -1</clus>
</clustering>
</event>
<event>
 6    0  0.3446372E+002  0.8739615E+02  0.7546771E-02  0.1309283E+00
         21   -1    0    0  506  501  0.00000000000E+00  0.00000000000E+00  0.11253759785E+03  0.11253759785E+03  0.00000000000E+00 0. -1.
         21   -1    0    0  504  502 -0.00000000000E+00 -0.00000000000E+00 -0.93095790055E+03  0.93095790055E+03  0.00000000000E+00 0. -1.
         21    1    1    2  503  502  0.70265163664E+02  0.73089571936E+02 -0.31013543866E+03  0.32628709607E+03  0.00000000000E+00 0. -1.
         21    1    1    2  504  501  0.22885804657E+02 -0.60961333014E+02 -0.52925962351E+03  0.53325021637E+03  0.00000000000E+00 0. -1.
         21    1    1    2  505  503 -0.39137198791E+02 -0.83158916978E+02 -0.15619590203E+01  0.91921518254E+02  0.00000000000E+00 0. -1.
         21    1    1    2  506  505 -0.54013769530E+02  0.71030678056E+02  0.22536718478E+02  0.92036667712E+02  0.00000000000E+00 0. -1.
<scales pt_clust_3="87.39615" pt_clust_4="65.11562" pt_clust_5="14000.00000" pt_clust_6="83.82741"></scales>
<clustering>
<clus scale="   65.116">  2  4  1 -1</clus>
<clus scale="   83.827">  1  6  2 -1</clus>
<clus scale="   87.396">  2  3  1 -1</clus>
<clus scale="   83.827">  1  3  2 -1</clus>
</clustering>
</event>
<event>
 6    0  0.3446372E+002  0.1033789E+03  0.7546771E-02  0.1273347E+00
         21   -1    0    0  504  501  0.00000000000E+00  0.00000000000E+00  0.26928317434E+03  0.26928317434E+03  0.00000000000E+00 0.  1.
         21   -1    0    0  506  502 -0.00000000000E+00 -0.00000000000E+00 -0.32094944072E+03  0.32094944072E+03  0.00000000000E+00 0. -1.
         21    1    1    2  503  505  0.36715362732E+02  0.17350581205E+02 -0.14096626987E+02  0.42985758352E+02  0.00000000000E+00 0. -1.
         21    1    1    2  504  503 -0.61329242814E+02 -0.42952916054E+02  0.22110536068E+03  0.23343909172E+03  0.00000000000E+00 0.  1.
         21    1    1    2  505  502  0.92154661145E+02 -0.16744775530E+02 -0.10513176513E+03  0.14080325677E+03  0.00000000000E+00 0. -1.
         21    1    1    2  506  501 -0.67540781063E+02  0.42347110379E+02 -0.15354323495E+03  0.17300450822E+03  0.00000000000E+00 0. -1.
<scales pt_clust_3="35.79422" pt_clust_4="74.87476" pt_clust_5="35.79422" pt_clust_6="87.93207"></scales>
<clustering>
<clus scale="   35.794">  3  5 -1 -1</clus>
<clus scale="   74.875">  1  4  2 -1</clus>
<clus scale="   87.932">  2  6  1 -1</clus>
<clus scale="   74.875">  1  3  2 -1</clus>
</clustering>
</event>
<event>
 6    0  0.3446372E+002  0.1330522E+03  0.7546771E-02  0.1222996E+00
         21   -1    0    0  504  501  0.00000000000E+00  0.00000000000E+00  0.51704779956E+02  0.51704779956E+02  0.00000000000E+00 0.  1.
         21   -1    0    0  505  502 -0.00000000000E+00 -0.00000000000E+00 -0.13849568349E+04  0.13849568349E+04  0.00000000000E+00 0.  1.
         21    1    1    2  503  502 -0.50522976343E+02  0.28137409194E+02 -0.17658170479E+03  0.18581007347E+03  0.00000000000E+00 0. -1.
         21    1    1    2  504  506 -0.40531069170E+02 -0.41247735338E+01  0.24385148650E+02  0.47480699231E+02  0.00000000000E+00 0.  1.
         21    1    1    2  505  501  0.12646279579E+03 -0.56126431374E+02 -0.11043919725E+04  0.11130249970E+04  0.00000000000E+00 0.  1.
         21    1    1    2  506  503 -0.35408750274E+02  0.32113795714E+02 -0.76663526244E+02  0.90345845102E+02  0.00000000000E+00 0.  1.
<scales pt_clust_3="30.35180" pt_clust_4="40.74041" pt_clust_5="128.79606" pt_clust_6="30.35180"></scales>
<clustering>
<clus scale="   30.352">  3  6 -1 -1</clus>
<clus scale="   40.740">  1  4  2 -1</clus>
<clus scale="  128.796">  2  5  1 -1</clus>
<clus scale="   40.740">  1  3  2 -1</clus>
</clustering>
</event>
<event>
 6    0  0.3446372E+002  0.7916073E+02  0.7546771E-02  0.1331450E+00
         21   -1    0    0  503  501  0.00000000000E+00  0.00000000000E+00  0.27951497594E+03  0.27951497594E+03  0.00000000000E+00 0.  1.
         21   -1    0    0  504  502 -0.00000000000E+00 -0.00000000000E+00 -0.83450422833E+02  0.83450422833E+02  0.00000000000E+00 0.  1.
         21    1    1    2  503  506 -0.69819021623E+02  0.45818046745E+01  0.33754824976E+02  0.77685757534E+02  0.00000000000E+00 0.  1.
         21    1    1    2  504  505  0.43732015907E+02 -0.70736089586E+02 -0.59852233924E+01  0.83378093552E+02  0.00000000000E+00 0.  1.
         21    1    1    2  505  501  0.40544240235E+02 -0.80235502972E+00  0.43008479149E+02  0.59111830192E+02  0.00000000000E+00 0.  1.
         21    1    1    2  506  502 -0.14457234519E+02  0.66956639942E+02  0.12528647237E+03  0.14278971749E+03  0.00000000000E+00 0.  1.
<scales pt_clust_3="60.09054" pt_clust_4="79.16073" pt_clust_5="40.55218" pt_clust_6="14000.00000"></scales>
<clustering>
<clus scale="   40.552">  1  5  2 -1</clus>
<clus scale="   60.091">  1  3  2 -1</clus>
<clus scale="   79.161">  2  4  1 -1</clus>
<clus scale="   40.552">  1  3  2 -1</clus>
</clustering>
</event>
<event>
 6    0  0.3446372E+002  0.1007962E+03  0.7546771E-02  0.1278630E+00
         21   -1    0    0  504  501  0.00000000000E+00  0.00000000000E+00  0.16617757691E+03  0.16617757691E+03  0.00000000000E+00 0. -1.
         21   -1    0    0  505  502 -0.00000000000E+00 -0.00000000000E+00 -0.33694366595E+03  0.33694366595E+03  0.00000000000E+00 0. -1.
         21    1    1    2  503  501  0.36739464337E+02  0.52135104511E+01  0.39024182025E+02  0.53850308390E+02  0.00000000000E+00 0. -1.
         21    1    1    2  504  506  0.34209153833E+02 -0.84615645142E+02  0.75487792755E+02  0.11844188644E+03  0.00000000000E+00 0. -1.
         21    1    1    2  505  503 -0.93477219466E+02  0.36922303892E+02 -0.25478421947E+03  0.27389093737E+03  0.00000000000E+00 0. -1.
         21    1    1    2  506  502  0.22528601296E+02  0.42479830799E+02 -0.30493844350E+02  0.56938110649E+02  0.00000000000E+00 0. -1.
<scales pt_clust_3="37.10753" pt_clust_4="100.79623" pt_clust_5="14000.00000" pt_clust_6="50.60204"></scales>
<clustering>
<clus scale="   37.108">  1  3  2 -1</clus>
<clus scale="   50.602">  2  6  1 -1</clus>
<clus scale="  100.796">  1  4  2 -1</clus>
<clus scale="   37.108">  1  3  2 -1</clus>
</clustering>
</event>
<event>
 6    0  0.6553693E+002  0.9372984E+02  0.7546771E-02  0.1294063E+00
         21   -1    0    0  503  501  0.00000000000E+00  0.00000000000E+00  0.67294776899E+03  0.67294776899E+03  0.00000000000E+00 0.  1.
         21   -1    0    0  505  502 -0.00000000000E+00 -0.00000000000E+00 -0.67354993245E+03  0.67354993245E+03  0.00000000000E+00 0. -1.
         21    1    1    2  503  504 -0.47625452690E+02  0.64946530911E+02  0.62571716590E+03  0.63087891653E+03  0.00000000000E+00 0.  1.
         21    1    1    2  504  502  0.35561609920E+02  0.16985789747E+02 -0.15176209754E+01  0.39439172492E+02  0.00000000000E+00 0. -1.
         21    1    1    2  505  506 -0.92807756013E+02 -0.77827885349E+02 -0.49318850533E+03  0.50784383535E+03  0.00000000000E+00 0. -1.
         21    1    1    2  506  501  0.10487159878E+03 -0.41044353089E+01 -0.13161320307E+03  0.16833577707E+03  0.00000000000E+00 0. -1.
<scales pt_clust_3="80.50834" pt_clust_4="39.40996" pt_clust_5="93.72984" pt_clust_6="14000.00000"></scales>
<clustering>
<clus scale="   39.410">  2  4  1 -1</clus>
<clus scale="   80.508">  1  3  2 -1</clus>
<clus scale="   93.730">  2  5  1 -1</clus>
<clus scale="   80.508">  1  3  2 -1</clus>
</clustering>
</event>
<event>
 6    0  0.3446372E+002  0.1605339E+03  0.7546771E-02  0.1188095E+00
         21   -1    0    0  503  501  0.00000000000E+00  0.00000000000E+00  0.38308333672E+03  0.38308333672E+03  0.00000000000E+00 0. -1.
         21   -1    0    0  504  502 -0.00000000000E+00 -0.00000000000E+00 -0.31544972868E+03  0.31544972868E+03  0.00000000000E+00 0. -1.
         21    1    1    2  503  502 -0.27530873943E+02  0.35272200021E+02  0.72364377561E+01  0.45325965470E+02  0.00000000000E+00 0.  1.
         21    1    1    2  504  506 -0.21275511417E+02  0.13770291148E+03 -0.25019060114E+03  0.28637401438E+03  0.00000000000E+00 0. -1.
         21    1    1    2  505  501 -0.80825696815E+00 -0.43054767147E+02  0.26584663659E+02  0.50607416406E+02  0.00000000000E+00 0.  1.
         21    1    1    2  506  505  0.49614642328E+02 -0.12992034435E+03  0.28400310777E+03  0.31622566915E+03  0.00000000000E+00 0. -1.
<scales pt_clust_3="44.74458" pt_clust_4="141.32178" pt_clust_5="42.37574" pt_clust_6="42.37574"></scales>
<clustering>
<clus scale="   42.376">  5  6 -1 -1</clus>
<clus scale="   44.745">  1  3  2 -1</clus>
<clus scale="  141.322">  2  4  1 -1</clus>
<clus scale="   44.745">  1  3  2 -1</clus>
</clustering>
</event>
<event>
 6    0  0.4535197E+002  0.1547128E+03  0.7546771E-02  0.1194799E+00
         21   -1    0    0  503  501  0.00000000000E+00  0.00000000000E+00  0.19850606190E+04  0.19850606190E+04  0.00000000000E+00 0. -1.
         21   -1    0    0  505  502 -0.00000000000E+00 -0.00000000000E+00 -0.30206973018E+03  0.30206973018E+03  0.00000000000E+00 0. -1.
         21    1    1    2  503  506  0.14458463902E+02 -0.49612221810E+02  0.14989477651E+03  0.15855240067E+03  0.00000000000E+00 0. -1.
         21    1    1    2  504  501  0.96995236571E+01 -0.10670584535E+03  0.17728529099E+04  0.17760877395E+04  0.00000000000E+00 0. -1.
         21    1    1    2  505  504 -0.24685469791E+02  0.64308846588E+02  0.24156987417E+02  0.72996987673E+02  0.00000000000E+00 0. -1.
         21    1    1    2  506  502  0.52748223229E+00  0.92009220567E+02 -0.26391378498E+03  0.27949322140E+03  0.00000000000E+00 0. -1.
<scales pt_clust_3="51.67610" pt_clust_4="14000.00000" pt_clust_5="67.51767" pt_clust_6="154.71275"></scales>
<clustering>
<clus scale="   51.676">  1  3  2 -1</clus>
<clus scale="   67.518">  2  5  1 -1</clus>
<clus scale="  154.713">  2  6  1 -1</clus>
<clus scale="   51.676">  1  3  2 -1</clus>
</clustering>
</event>
<event>
 6    0  0.3446372E+002  0.1355301E+03  0.7546771E-02  0.1219473E+00
         21   -1    0    0  506  501  0.00000000000E+00  0.00000000000E+00  0.16549225141E+04  0.16549225141E+04  0.00000000000E+00 0.  1.
         21   -1    0    0  504  502 -0.00000000000E+00 -0.00000000000E+00 -0.40209301546E+03  0.40209301546E+03  0.00000000000E+00 0.  1.
         21    1    1    2  503  502 -0.30491866259E+02  0.43915772123E+02 -0.59780848093E+02  0.80200366258E+02  0.00000000000E+00 0.  1.
         21    1    1    2  504  505  0.69659676970E+00  0.10108957732E+03 -0.28988659493E+03  0.30700785953E+03  0.00000000000E+00 0.  1.
         21    1    1    2  505  501  0.10949065781E+02 -0.31456236112E+02  0.15370271507E+04  0.15373879922E+04  0.00000000000E+00 0.  1.
         21    1    1    2  506  503  0.18846203708E+02 -0.11354911333E+03  0.65469791019E+02  0.13241931154E+03  0.00000000000E+00 0. -1.
<scales pt_clust_3="50.68680" pt_clust_4="14000.00000" pt_clust_5="33.30731" pt_clust_6="135.53010"></scales>
<clustering>
<clus scale="   33.307">  1  5  2 -1</clus>
<clus scale="   50.687">  2  3  1 -1</clus>
<clus scale="  135.530">  1  6  2 -1</clus>
<clus scale="   33.307">  1  3  2 -1</clus>
</clustering>
</event>
<event>
 6    0  0.3446372E+002  0.2832966E+03  0.7546771E-02  0.1093902E+00
         21   -1    0    0  506  501  0.00000000000E+00  0.00000000000E+00  0.28461619234E+03  0.28461619234E+03  0.00000000000E+00 0.  1.
         21   -1    0    0  503  502 -0.00000000000E+00 -0.00000000000E+00 -0.22097278184E+04  0.22097278184E+04  0.00000000000E+00 0. -1.
         21    1    1    2  503  505 -0.14424633475E+03 -0.16528565589E+03 -0.18660652109E+04  0.18789161036E+04  0.00000000000E+00 0. -1.
         21    1    1    2  504  502 -0.70583040491E+02 -0.31865948913E+02 -0.19954869054E+03  0.21404925648E+03  0.00000000000E+00 0. -1.
         21    1    1    2  505  501  0.15847475461E+03  0.17696090911E+03  0.20471647482E+03  0.31358929552E+03  0.00000000000E+00 0.  1.
         21    1    1    2  506  504  0.56354620628E+02  0.20190695685E+02 -0.64214199422E+02  0.87789355082E+02  0.00000000000E+00 0. -1.
<scales pt_clust_3="14000.00000" pt_clust_4="75.85730" pt_clust_5="283.29662" pt_clust_6="59.86240"></scales>
<clustering>
<clus scale="   59.862">  1  6  2 -1</clus>
<clus scale="   75.857">  2  4  1 -1</clus>
<clus scale="  283.297">  1  5  2 -1</clus>
<clus scale="   59.862">  1  3  2 -1</clus>
</clustering>
</event>
<event>
 6    0  0.3446372E+002  0.2127612E+03  0.7546771E-02  0.1139398E+00
         21   -1    0    0  504  501  0.00000000000E+00  0.00000000000E+00  0.20481959216E+03  0.20481959216E+03  0.00000000000E+00 0.  1.
         21   -1    0    0  506  502 -0.00000000000E+00 -0.00000000000E+00 -0.82947348757E+03  0.82947348757E+03  0.00000000000E+00 0. -1.
         21    1    1    2  503  501  0.16819918453E+03 -0.16997781174E+03  0.49959567442E+02  0.24429363590E+03  0.00000000000E+00 0.  1.
         21    1    1    2  504  505 -0.27684411208E+02  0.12965852396E+02  0.26932748887E+02  0.40742028851E+02  0.00000000000E+00 0. -1.
         21    1    1    2  505  502  0.18706972177E+02  0.38630430749E+02 -0.40261404588E+02  0.58849313397E+02  0.00000000000E+00 0. -1.
         21    1    1    2  506  503 -0.15922174550E+03  0.11838152859E+03 -0.66128480715E+03  0.69040810158E+03  0.00000000000E+00 0. -1.
<scales pt_clust_3="212.76122" pt_clust_4="30.57025" pt_clust_5="42.93218" pt_clust_6="14000.00000"></scales>
<clustering>
<clus scale="   30.570">  1  4  2 -1</clus>
<clus scale="   42.932">  2  5  1 -1</clus>
<clus scale="  212.761">  1  3  2 -1</clus>
<clus scale="   30.570">  1  3  2 -1</clus>
</clustering>
</event>
<event>
 6    0  0.3446372E+002  0.6218542E+02  0.7546771E-02  0.1388883E+00
         21   -1    0    0  504  501  0.00000000000E+00  0.00000000000E+00  0.72939029603E+03  0.72939029603E+03  0.00000000000E+00 0. -1.
         21   -1    0    0  505  502 -0.00000000000E+00 -0.00000000000E+00 -0.82029977170E+03  0.82029977170E+03  0.00000000000E+00 0.  1.
         21    1    1    2  503  506 -0.44935760487E+02 -0.64914203529E+02 -0.51835453766E+03  0.52433243568E+03  0.00000000000E+00 0.  1.
         21    1    1    2  504  503 -0.19706526647E+02  0.11527427388E+03  0.54067577888E+03  0.55317881673E+03  0.00000000000E+00 0. -1.
         21    1    1    2  505  501  0.18495473629E+02 -0.53608039282E+02  0.17309104574E+03  0.18214393906E+03  0.00000000000E+00 0. -1.
         21    1    1    2  506  502  0.46146813505E+02  0.32479689262E+01 -0.28632176262E+03  0.29003487627E+03  0.00000000000E+00 0.  1.
<scales pt_clust_3="62.18542" pt_clust_4="14000.00000" pt_clust_5="56.81213" pt_clust_6="46.26097"></scales>
<clustering>
<clus scale="   46.261">  2  6  1 -1</clus>
<clus scale="   56.812">  1  5  2 -1</clus>
<clus scale="   62.185">  2  3  1 -1</clus>
<clus scale="   56.812">  1  3  2 -1</clus>
</clustering>
</event>
<event>
 6    0  0.3446372E+002  0.2052801E+03  0.7546771E-02  0.1145359E+00
         21   -1    0    0  505  501  0.00000000000E+00  0.00000000000E+00  0.21858812136E+04  0.21858812136E+04  0.00000000000E+00 0. -1.
         21   -1    0    0  506  502 -0.00000000000E+00 -0.00000000000E+00 -0.14984759502E+03  0.14984759502E+03  0.00000000000E+00 0.  1.
         21    1    1    2  503  501 -0.20355977279E+02  0.24669693481E+02  0.59081365721E+03  0.59167874487E+03  0.00000000000E+00 0. -1.
         21    1    1    2  504  503  0.43739765447E+01  0.10391138998E+03 -0.40397474599E+01  0.10408183414E+03  0.00000000000E+00 0.  1.
         21    1    1    2  505  502 -0.38290459049E+02 -0.20158922951E+03  0.15142995542E+04  0.15281385790E+04  0.00000000000E+00 0. -1.
         21    1    1    2  506  504  0.54272459784E+02  0.73008146046E+02 -0.65039845359E+02  0.11182965065E+03  0.00000000000E+00 0.  1.
<scales pt_clust_3="31.98374" pt_clust_4="78.60476" pt_clust_5="187.17386" pt_clust_6="78.60476"></scales>
<clustering>
<clus scale="   31.984">  1  3  2 -1</clus>
<clus scale="   78.605">  4  6 -1 -1</clus>
<clus scale="  187.174">  1  5  2 -1</clus>
<clus scale="   31.984">  1  3  2 -1</clus>
</clustering>
</event>
<event>
 6    0  0.3446372E+002  0.9691783E+02  0.7546771E-02  0.1286914E+00
         21   -1    0    0  505  501  0.00000000000E+00  0.00000000000E+00  0.12037217379E+03  0.12037217379E+03  0.00000000000E+00 0. -1.
         21   -1    0    0  503  502 -0.00000000000E+00 -0.00000000000E+00 -0.32894814420E+03  0.32894814420E+03  0.00000000000E+00 0. -1.
         21    1    1    2  503  504  0.38139346844E+02  0.25540986272E+02 -0.90945336769E+02  0.10187249893E+03  0.00000000000E+00 0.  1.
         21    1    1    2  504  506  0.41880833383E+02  0.59105426152E+02 -0.49332463682E+01  0.72607110707E+02  0.00000000000E+00 0. -1.
         21    1    1    2  505  502 -0.78647039019E+02 -0.11508649724E+03 -0.16396047741E+03  0.21520524331E+03  0.00000000000E+00 0. -1.
         21    1    1    2  506  501 -0.13731412073E+01  0.30440084820E+02  0.51263090144E+02  0.59635465050E+02  0.00000000000E+00 0. -1.
<scales pt_clust_3="47.28180" pt_clust_4="96.91783" pt_clust_5="14000.00000" pt_clust_6="30.47104"></scales>
<clustering>
<clus scale="   30.471">  1  6  2 -1</clus>
<clus scale="   47.282">  2  3  1 -1</clus>
<clus scale="   96.918">  1  4  2 -1</clus>
<clus scale="   30.471">  1  3  2 -1</clus>
</clustering>
</event>
<event>
 6    0  0.3446372E+002  0.1256979E+03  0.7546771E-02  0.1233983E+00
         21   -1    0    0  503  501  0.00000000000E+00  0.00000000000E+00  0.14265222579E+03  0.14265222579E+03  0.00000000000E+00 0. -1.
         21   -1    0    0  505  502 -0.00000000000E+00 -0.00000000000E+00 -0.38941319357E+04  0.38941319357E+04  0.00000000000E+00 0. -1.
         21    1    1    2  503  502  0.26758116607E+02 -0.68594587386E+02 -0.50397343188E+03  0.50932350649E+03  0.00000000000E+00 0.  1.
         21    1    1    2  504  506 -0.88435313713E+02  0.17754428698E+03 -0.12928945965E+04  0.13080211069E+04  0.00000000000E+00 0. -1.
         21    1    1    2  505  504 -0.42297220200E+02 -0.68313235606E+02 -0.20625751181E+04  0.20641394989E+04  0.00000000000E+00 0. -1.
         21    1    1    2  506  501  0.10397441731E+03 -0.40636463990E+02  0.10796343654E+03  0.15530004922E+03  0.00000000000E+00 0. -1.
<scales pt_clust_3="73.62890" pt_clust_4="14000.00000" pt_clust_5="125.69791" pt_clust_6="111.98257"></scales>
<clustering>
<clus scale="   73.629">  2  3  1 -1</clus>
<clus scale="  111.983">  1  6  2 -1</clus>
<clus scale="  125.698">  2  5  1 -1</clus>
<clus scale="  111.983">  1  3  2 -1</clus>
</clustering>
</event>
<event>
 6    0  0.3446372E+002  0.8370990E+02  0.7546771E-02  0.1318841E+00
         21   -1    0    0  503  501  0.00000000000E+00  0.00000000000E+00  0.58362071812E+03  0.58362071812E+03  0.00000000000E+00 0. -1.
         21   -1    0    0  505  502 -0.00000000000E+00 -0.00000000000E+00 -0.12303806896E+03  0.12303806896E+03  0.00000000000E+00 0. -1.
         21    1    1    2  503  502  0.84990109223E+02  0.57159882919E+02 -0.55596188671E+02  0.11653972317E+03  0.00000000000E+00 0. -1.
         21    1    1    2  504  501 -0.77037495275E+02 -0.30997899450E+02  0.49224857738E+03  0.49920367325E+03  0.00000000000E+00 0. -1.
         21    1    1    2  505  506 -0.40577324951E+02  0.30715357995E+01 -0.62172331419E+00  0.40698159322E+02  0.00000000000E+00 0. -1.
         21    1    1    2  506  504  0.32624711002E+02 -0.29233519268E+02  0.24551983760E+02  0.50217231339E+02  0.00000000000E+00 0. -1.
<scales pt_clust_3="14000.00000" pt_clust_4="83.70990" pt_clust_5="40.69341" pt_clust_6="39.88242"></scales>
<clustering>
<clus scale="   40.693">  2  5  1 -1</clus>
<clus scale="   39.882">  2  6  1 -1</clus>
<clus scale="   83.710">  1  4  2 -1</clus>
<clus scale="   83.710">  1  3  2 -1</clus>
</clustering>
</event>
<event>
 6    0  0.3446372E+002  0.3595487E+03  0.7546771E-02  0.1058763E+00
         21   -1    0    0  502  501  0.00000000000E+00  0.00000000000E+00  0.37939924782E+03  0.37939924782E+03  0.00000000000E+00 0.  1.
         21   -1    0    0  506  502 -0.00000000000E+00 -0.00000000000E+00 -0.69579148158E+03  0.69579148158E+03  0.00000000000E+00 0. -1.
         21    1    1    2  503  501 -0.13859035003E+02  0.34441404290E+03  0.23482160990E+03  0.41707828315E+03  0.00000000000E+00 0.  1.
         21    1    1    2  504  503  0.43939440104E+02 -0.89219331775E+02 -0.15939277537E+03  0.18787448044E+03  0.00000000000E+00 0.  1.
         21    1    1    2  505  504 -0.35435396914E+01 -0.11292206081E+03 -0.20314331195E+03  0.23244602316E+03  0.00000000000E+00 0.  1.
         21    1    1    2  506  505 -0.26536865410E+02 -0.14227265031E+03 -0.18867775634E+03  0.23779194265E+03  0.00000000000E+00 0. -1.
<scales pt_clust_3="344.69277" pt_clust_4="56.56048" pt_clust_5="35.01758" pt_clust_6="56.56048"></scales>
<clustering>
<clus scale="   35.018">  5  6 -1 -1</clus>
<clus scale="   56.560">  4  5 -1 -1</clus>
<clus scale="  344.693">  1  3  2 -1</clus>
<clus scale="  344.693">  1  3  2 -1</clus>
</clustering>
</event>
<event>
 6    0  0.3446372E+002  0.1866694E+03  0.7546771E-02  0.1161500E+00
         21   -1    0    0  506  501  0.00000000000E+00  0.00000000000E+00  0.56072850243E+03  0.56072850243E+03  0.00000000000E+00 0. -1.
         21   -1    0    0  503  502 -0.00000000000E+00 -0.00000000000E+00 -0.92392592247E+02  0.92392592247E+02  0.00000000000E+00 0. -1.
         21    1    1    2  503  504 -0.86640424749E+02  0.50725791479E+02  0.23114755307E+02  0.10302407988E+03  0.00000000000E+00 0. -1.
         21    1    1    2  504  505 -0.71056706609E+02 -0.16458843211E+02  0.30776428764E+02  0.79165255266E+02  0.00000000000E+00 0. -1.
         21    1    1    2  505  501  0.16538934951E+03 -0.70888203506E+02  0.37825517096E+03  0.41887438294E+03  0.00000000000E+00 0. -1.
         21    1    1    2  506  502 -0.76922181508E+01  0.36621255238E+02  0.36189555150E+02  0.52057376588E+02  0.00000000000E+00 0. -1.
<scales pt_clust_3="52.54168" pt_clust_4="52.54168" pt_clust_5="174.92678" pt_clust_6="37.42040"></scales>
<clustering>
<clus scale="   37.420">  2  6  1 -1</clus>
<clus scale="   52.542">  3  4 -1 -1</clus>
<clus scale="  174.927">  1  5  2 -1</clus>
<clus scale="  174.927">  1  3  2 -1</clus>
</clustering>
</event>
<event>
 6    0  0.3446372E+002  0.5135722E+03  0.7546771E-02  0.1010296E+00
         21   -1    0    0  505  501  0.00000000000E+00  0.00000000000E+00  0.57756323303E+03  0.57756323303E+03  0.00000000000E+00 0. -1.
         21   -1    0    0  506  502 -0.00000000000E+00 -0.00000000000E+00 -0.22614700583E+04  0.22614700583E+04  0.00000000000E+00 0. -1.
         21    1    1    2  503  504  0.25248916704E+03 -0.55002395527E+02 -0.98603928810E+03  0.10193377854E+04  0.00000000000E+00 0. -1.
         21    1    1    2  504  502  0.17826114850E+03 -0.18067648354E+03 -0.11170939358E+04  0.11455653147E+04  0.00000000000E+00 0. -1.
         21    1    1    2  505  503 -0.13480066014E+02 -0.28904690047E+02  0.40738714844E+02  0.51738150080E+02  0.00000000000E+00 0. -1.
         21    1    1    2  506  501 -0.41727024953E+03  0.26458356911E+03  0.37848768379E+03  0.62239204122E+03  0.00000000000E+00 0. -1.
<scales pt_clust_3="148.96100" pt_clust_4="148.96100" pt_clust_5="31.89347" pt_clust_6="491.13208"></scales>
<clustering>
<clus scale="   31.893">  1  5  2 -1</clus>
<clus scale="  148.961">  3  4 -1 -1</clus>
<clus scale="  491.132">  1  6  2 -1</clus>
<clus scale="   31.893">  1  3  2 -1</clus>
</clustering>
</event>
<event>
 6    0  0.3446372E+002  0.1716835E+03  0.7546771E-02  0.1176104E+00
         21   -1    0    0  504  501  0.00000000000E+00  0.00000000000E+00  0.36276012352E+03  0.36276012352E+03  0.00000000000E+00 0. -1.
         21   -1    0    0  506  502 -0.00000000000E+00 -0.00000000000E+00 -0.89067044320E+03  0.89067044320E+03  0.00000000000E+00 0. -1.
         21    1    1    2  503  501 -0.35520457838E+02  0.29147918428E+02  0.28026482418E+02  0.53821815191E+02  0.00000000000E+00 0. -1.
         21    1    1    2  504  502  0.42688642698E+02  0.14888210628E+03  0.28984306717E+03  0.32862928258E+03  0.00000000000E+00 0. -1.
         21    1    1    2  505  503  0.50147436127E+01 -0.12478392515E+03 -0.33912825735E+03  0.36139196250E+03  0.00000000000E+00 0. -1.
         21    1    1    2  506  505 -0.12182928472E+02 -0.53246099564E+02 -0.50665161192E+03  0.50958750645E+03  0.00000000000E+00 0. -1.
<scales pt_clust_3="45.94893" pt_clust_4="171.68346" pt_clust_5="14000.00000" pt_clust_6="54.52893"></scales>
<clustering>
<clus scale="   45.949">  1  3  2 -1</clus>
<clus scale="   54.529">  2  6  1 -1</clus>
<clus scale="  171.683">  1  4  2 -1</clus>
<clus scale="   45.949">  1  3  2 -1</clus>
</clustering>
</event>
<event>
 6    0  0.3446372E+002  0.1728083E+03  0.7546771E-02  0.1174950E+00
         21   -1    0    0  504  501  0.00000000000E+00  0.00000000000E+00  0.18549204178E+03  0.18549204178E+03  0.00000000000E+00 0. -1.
         21   -1    0    0  503  502 -0.00000000000E+00 -0.00000000000E+00 -0.41305756070E+03  0.41305756070E+03  0.00000000000E+00 0.  1.
         21    1    1    2  503  506 -0.10753210339E+02  0.77271205601E+02 -0.12415880624E+03  0.14663519330E+03  0.00000000000E+00 0.  1.
         21    1    1    2  504  505 -0.28741344281E+02 -0.10024740134E+02  0.70865777179E+02  0.77126640411E+02  0.00000000000E+00 0. -1.
         21    1    1    2  505  502 -0.18645872647E+02 -0.14445673879E+03  0.30082058776E+02  0.14872911016E+03  0.00000000000E+00 0. -1.
         21    1    1    2  506  501  0.58140427267E+02  0.77210273319E+02 -0.20435454864E+03  0.22605865862E+03  0.00000000000E+00 0.  1.
<scales pt_clust_3="63.28269" pt_clust_4="30.43945" pt_clust_5="158.09210" pt_clust_6="63.28269"></scales>
<clustering>
<clus scale="   30.439">  1  4  2 -1</clus>
<clus scale="   63.283">  3  6 -1 -1</clus>
<clus scale="  158.092">  1  5  2 -1</clus>
<clus scale="   30.439">  1  3  2 -1</clus>
</clustering>
</event>
<event>
 6    0  0.3446372E+002  0.8682626E+02  0.7546771E-02  0.1310725E+00
         21   -1    0    0  505  501  0.00000000000E+00  0.00000000000E+00  0.49714930187E+02  0.49714930187E+02  0.00000000000E+00 0.  1.
         21   -1    0    0  506  502 -0.00000000000E+00 -0.00000000000E+00 -0.78626280085E+03  0.78626280085E+03  0.00000000000E+00 0.  1.
         21    1    1    2  503  502  0.10424004035E+02 -0.50394272651E+02 -0.27011603048E+03  0.27497438517E+03  0.00000000000E+00 0.  1.
         21    1    1    2  504  501  0.69642478993E+02 -0.31547387265E+02 -0.36902478816E+02  0.84894672779E+02  0.00000000000E+00 0.  1.
         21    1    1    2  505  503 -0.13235152076E+03  0.67138976192E+02 -0.34568614848E+03  0.37619606646E+03  0.00000000000E+00 0.  1.
         21    1    1    2  506  504  0.52285037730E+02  0.14802683723E+02 -0.83843212890E+02  0.99912606629E+02  0.00000000000E+00 0.  1.
<scales pt_clust_3="51.46108" pt_clust_4="86.82626" pt_clust_5="14000.00000" pt_clust_6="54.45800"></scales>
<clustering>
<clus scale="   51.461">  2  3  1 -1</clus>
<clus scale="   54.458">  2  6  1 -1</clus>
<clus scale="   86.826">  1  4  2 -1</clus>
<clus scale="   86.826">  1  3  2 -1</clus>
</clustering>
</event>
<event>
 6    0  0.3446372E+002  0.7807022E+02  0.7546771E-02  0.1334619E+00
         21   -1    0    0  504  501  0.00000000000E+00  0.00000000000E+00  0.15459055299E+04  0.15459055299E+04  0.00000000000E+00 0. -1.
         21   -1    0    0  503  502 -0.00000000000E+00 -0.00000000000E+00 -0.15304198013E+04  0.15304198013E+04  0.00000000000E+00 0. -1.
         21    1    1    2  503  505 -0.68065546782E+00  0.59638864503E+02 -0.48534456494E+03  0.48899550526E+03  0.00000000000E+00 0. -1.
         21    1    1    2  504  502  0.54118308423E+02  0.54110701045E+01 -0.82127838991E+03  0.82307731394E+03  0.00000000000E+00 0. -1.
         21    1    1    2  505  506 -0.16195685971E+02 -0.10349326683E+03 -0.20816867508E+03  0.23303938253E+03  0.00000000000E+00 0. -1.
         21    1    1    2  506  501 -0.37241966984E+02  0.38443332227E+02  0.15302773586E+04  0.15312131295E+04  0.00000000000E+00 0. -1.
<scales pt_clust_3="14000.00000" pt_clust_4="52.47554" pt_clust_5="78.07022" pt_clust_6="53.52433"></scales>
<clustering>
<clus scale="   53.524">  1  6  2 -1</clus>
<clus scale="   52.476">  2  4  1 -1</clus>
<clus scale="   78.070">  1  5  2 -1</clus>
<clus scale="   53.524">  1  3  2 -1</clus>
</clustering>
</event>
<event>
 6    0  0.3446372E+002  0.1494039E+03  0.7546771E-02  0.1201207E+00
         21   -1    0    0  504  501  0.00000000000E+00  0.00000000000E+00  0.29084801805E+04  0.29084801805E+04  0.00000000000E+00 0.  1.
         21   -1    0    0  503  502 -0.00000000000E+00 -0.00000000000E+00 -0.11886447090E+02  0.11886447090E+02  0.00000000000E+00 0.  1.
         21    1    1    2  503  505  0.15052868599E+03  0.12030215276E+00  0.10652055555E+04  0.10757889083E+04  0.00000000000E+00 0.  1.
         21    1    1    2  504  506 -0.35825072596E+02 -0.17984521523E+02  0.23881742639E+03  0.24215829944E+03  0.00000000000E+00 0.  1.
         21    1    1    2  505  501 -0.26163087927E+02 -0.31802394167E+02  0.10259429100E+04  0.10267690850E+04  0.00000000000E+00 0.  1.
         21    1    1    2  506  502 -0.88540525466E+02  0.49666613537E+02  0.56662784160E+03  0.57565033487E+03  0.00000000000E+00 0.  1.
<scales pt_clust_3="136.83273" pt_clust_4="37.69393" pt_clust_5="41.18130" pt_clust_6="37.69393"></scales>
<clustering>
<clus scale="   37.694">  4  6 -1 -1</clus>
<clus scale="   41.181">  1  5  2 -1</clus>
<clus scale="  136.833">  1  3  2 -1</clus>
<clus scale="   41.181">  1  3  2 -1</clus>
</clustering>
</event>
<event>
 6    0  0.3446372E+002  0.1532618E+03  0.7546771E-02  0.1196521E+00
         21   -1    0    0  502  501  0.00000000000E+00  0.00000000000E+00  0.13222090146E+03  0.13222090146E+03  0.00000000000E+00 0. -1.
         21   -1    0    0  504  502 -0.00000000000E+00 -0.00000000000E+00 -0.63635486654E+03  0.63635486654E+03  0.00000000000E+00 0. -1.
         21    1    1    2  503  501  0.65945799062E+02 -0.29673720492E+01  0.67505557592E+02  0.94417445510E+02  0.00000000000E+00 0. -1.
         21    1    1    2  504  506 -0.12512874781E+03 -0.96899286156E+02 -0.51317119971E+03  0.53702081468E+03  0.00000000000E+00 0. -1.
         21    1    1    2  505  503  0.11675177800E+01  0.39935469748E+02 -0.12310840234E+02  0.41806239117E+02  0.00000000000E+00 0. -1.
         21    1    1    2  506  505  0.58015430973E+02  0.59931188457E+02 -0.46157482729E+02  0.95331268704E+02  0.00000000000E+00 0. -1.
<scales pt_clust_3="66.01253" pt_clust_4="146.89109" pt_clust_5="30.26375" pt_clust_6="30.26375"></scales>
<clustering>
<clus scale="   30.264">  5  6 -1 -1</clus>
<clus scale="   66.013">  1  3  2 -1</clus>
<clus scale="  146.891">  2  4  1 -1</clus>
<clus scale="   66.013">  1  3  2 -1</clus>
</clustering>
</event>
<event>
 6    0  0.3446372E+002  0.1631642E+03  0.7546771E-02  0.1185170E+00
         21   -1    0    0  505  501  0.00000000000E+00  0.00000000000E+00  0.10740015359E+04  0.10740015359E+04  0.00000000000E+00 0.  1.
         21   -1    0    0  506  502 -0.00000000000E+00 -0.00000000000E+00 -0.11672723940E+03  0.11672723940E+03  0.00000000000E+00 0.  1.
         21    1    1    2  503  504  0.10183831333E+03  0.39007200456E+02 -0.69103237746E+01  0.10927193750E+03  0.00000000000E+00 0.  1.
         21    1    1    2  504  501  0.59925055574E+02  0.67937666523E+01  0.32893403500E+03  0.33441705538E+03  0.00000000000E+00 0.  1.
         21    1    1    2  505  502 -0.18862273707E+03 -0.82431628244E+02  0.66272233624E+03  0.69395562194E+03  0.00000000000E+00 0.  1.
         21    1    1    2  506  503  0.26859368164E+02  0.36630661136E+02 -0.27471750957E+02  0.53084160483E+02  0.00000000000E+00 0.  1.
<scales pt_clust_3="34.71416" pt_clust_4="60.30893" pt_clust_5="154.04333" pt_clust_6="34.71416"></scales>
<clustering>
<clus scale="   34.714">  3  6 -1 -1</clus>
<clus scale="   60.309">  1  4  2 -1</clus>
<clus scale="  154.043">  1  5  2 -1</clus>
<clus scale="   60.309">  1  3  2 -1</clus>
</clustering>
</event>
<event>
 6    0  0.3446372E+002  0.3099951E+03  0.7546771E-02  0.1080348E+00
         21   -1    0    0  504  501  0.00000000000E+00  0.00000000000E+00  0.82767253492E+03  0.82767253492E+03  0.00000000000E+00 0.  1.
         21   -1    0    0  505  502 -0.00000000000E+00 -0.00000000000E+00 -0.62733253078E+03  0.62733253078E+03  0.00000000000E+00 0.  1.
         21    1    1    2  503  502 -0.32099309405E+02 -0.61889475293E+02 -0.24632953630E+02  0.73942242465E+02  0.00000000000E+00 0.  1.
         21    1    1    2  504  503  0.16127561819E+02  0.36259347806E+03  0.16922247509E+03  0.40046270070E+03  0.00000000000E+00 0.  1.
         21    1    1    2  505  506 -0.25858444404E+03 -0.10016973551E+03 -0.35302159680E+03  0.44891439988E+03  0.00000000000E+00 0.  1.
         21    1    1    2  506  501  0.27455619163E+03 -0.20053426725E+03  0.40877207948E+03  0.53168572265E+03  0.00000000000E+00 0.  1.
<scales pt_clust_3="69.71853" pt_clust_4="309.99508" pt_clust_5="315.20575" pt_clust_6="14000.00000"></scales>
<clustering>
<clus scale="   69.719">  2  3  1 -1</clus>
<clus scale="  315.206">  2  5  1 -1</clus>
<clus scale="  309.995">  2  4  1 -1</clus>
<clus scale="  309.995">  1  3  2 -1</clus>
</clustering>
</event>
<event>
 6    0  0.3446372E+002  0.1221529E+03  0.7546771E-02  0.1239587E+00
         21   -1    0    0  506  501  0.00000000000E+00  0.00000000000E+00  0.44754714016E+03  0.44754714016E+03  0.00000000000E+00 0.  1.
         21   -1    0    0  504  502 -0.00000000000E+00 -0.00000000000E+00 -0.20815528241E+03  0.20815528241E+03  0.00000000000E+00 0.  1.
         21    1    1    2  503  502  0.22436687036E+02 -0.55369554591E+02 -0.57450918235E+02  0.82884259704E+02  0.00000000000E+00 0.  1.
         21    1    1    2  504  501 -0.24164272921E+02 -0.32586809487E+02 -0.92818148652E+02  0.10129669766E+03  0.00000000000E+00 0.  1.
         21    1    1    2  505  503  0.59764885489E+02 -0.53410432160E+02  0.39269666178E+02  0.89255938082E+02  0.00000000000E+00 0. -1.
         21    1    1    2  506  505 -0.58037299604E+02  0.14136679624E+03  0.35039125845E+03  0.38226552712E+03  0.00000000000E+00 0.  1.
<scales pt_clust_3="76.28900" pt_clust_4="40.56861" pt_clust_5="14000.00000" pt_clust_6="122.15292"></scales>
<clustering>
<clus scale="   40.569">  2  4  1 -1</clus>
<clus scale="   76.289">  2  3  1 -1</clus>
<clus scale="  122.153">  1  6  2 -1</clus>
<clus scale="  122.153">  1  3  2 -1</clus>
</clustering>
</event>
<event>
 6    0  0.3446372E+002  0.7706722E+02  0.7546771E-02  0.1337586E+00
         21   -1    0    0  502  501  0.00000000000E+00  0.00000000000E+00  0.25055789362E+03  0.25055789362E+03  0.00000000000E+00 0. -1.
         21   -1    0    0  505  502 -0.00000000000E+00 -0.00000000000E+00 -0.80964302020E+03  0.80964302020E+03  0.00000000000E+00 0.  1.
         21    1    1    2  503  506  0.83072816404E+02 -0.15122386613E+02 -0.12018451533E+03  0.14688123477E+03  0.00000000000E+00 0. -1.
         21    1    1    2  504  501 -0.45827306449E+02  0.12917822065E+02  0.86861881740E+02  0.99055533125E+02  0.00000000000E+00 0. -1.
         21    1    1    2  505  503 -0.56375295276E+02  0.53649971591E+02 -0.66243059760E+03  0.66698634919E+03  0.00000000000E+00 0.  1.
         21    1    1    2  506  504  0.19129785321E+02 -0.51445407044E+02  0.13666810462E+03  0.14727779674E+03  0.00000000000E+00 0. -1.
<scales pt_clust_3="14000.00000" pt_clust_4="47.61315" pt_clust_5="77.06722" pt_clust_6="45.55759"></scales>
<clustering>
<clus scale="   47.613">  1  4  2 -1</clus>
<clus scale="   45.558">  1  6  2 -1</clus>
<clus scale="   77.067">  2  5  1 -1</clus>
<clus scale="   47.613">  1  3  2 -1</clus>
</clustering>
</event>
<event>
 6    0  0.3446372E+002  0.1045850E+03  0.7546771E-02  0.1270939E+00
         21   -1    0    0  504  501  0.00000000000E+00  0.00000000000E+00  0.17520830926E+04  0.17520830926E+04  0.00000000000E+00 0.  1.
         21   -1    0    0  505  502 -0.00000000000E+00 -0.00000000000E+00 -0.55299335741E+02  0.55299335741E+02  0.00000000000E+00 0. -1.
         21    1    1    2  503  501  0.70791399017E+02  0.81066054214E+02  0.15018124609E+04  0.15056639051E+04  0.00000000000E+00 0.  1.
         21    1    1    2  504  506 -0.50510574836E+02  0.37254702474E+02  0.62131058018E+02  0.88314774512E+02  0.00000000000E+00 0.  1.
         21    1    1    2  505  503  0.15351322127E+02 -0.78326208952E+02  0.11337339674E+02  0.80617574825E+02  0.00000000000E+00 0. -1.
         21    1    1    2  506  502 -0.35632146308E+02 -0.39994547736E+02  0.12150289821E+03  0.13278617387E+03  0.00000000000E+00 0.  1.
<scales pt_clust_3="104.58500" pt_clust_4="65.58980" pt_clust_5="14000.00000" pt_clust_6="53.56504"></scales>
<clustering>
<clus scale="   53.565">  2  6  1 -1</clus>
<clus scale="   65.590">  2  4  1 -1</clus>
<clus scale="  104.585">  1  3  2 -1</clus>
<clus scale="  104.585">  1  3  2 -1</clus>
</clustering>
</event>
<event>
 6    0  0.3446372E+002  0.9027974E+02  0.7546771E-02  0.1302176E+00
         21   -1    0    0  505  501  0.00000000000E+00  0.00000000000E+00  0.85194898291E+02  0.85194898291E+02  0.00000000000E+00 0.  1.
         21   -1    0    0  506  502 -0.00000000000E+00 -0.00000000000E+00 -0.30555469500E+03  0.30555469500E+03  0.00000000000E+00 0.  1.
         21    1    1    2  503  504  0.15886604344E+02  0.40134883984E+02 -0.21383252990E+02  0.48170910500E+02  0.00000000000E+00 0. -1.
         21    1    1    2  504  501  0.86737410721E+02  0.22900239950E+02  0.33744387590E+01  0.89772970572E+02  0.00000000000E+00 0.  1.
         21    1    1    2  505  502 -0.69775245547E+02 -0.77225179957E+02 -0.99817052063E+02  0.14420734098E+03  0.00000000000E+00 0.  1.
         21    1    1    2  506  503 -0.32848769518E+02  0.14190056024E+02 -0.10253393042E+03  0.10859837124E+03  0.00000000000E+00 0.  1.
<scales pt_clust_3="43.80055" pt_clust_4="14000.00000" pt_clust_5="90.27974" pt_clust_6="35.78267"></scales>
<clustering>
<clus scale="   35.783">  2  6  1 -1</clus>
<clus scale="   43.801">  2  3  1 -1</clus>
<clus scale="   90.280">  2  5  1 -1</clus>
<clus scale="   90.280">  1  3  2 -1</clus>
</clustering>
</event>
<event>
 6    0  0.3446372E+002  0.1986526E+03  0.7546771E-02  0.1150881E+00
         21   -1    0    0  504  501  0.00000000000E+00  0.00000000000E+00  0.63805197471E+03  0.63805197471E+03  0.00000000000E+00 0. -1.
         21   -1    0    0  503  502 -0.00000000000E+00 -0.00000000000E+00 -0.34634757877E+03  0.34634757877E+03  0.00000000000E+00 0. -1.
         21    1    1    2  503  506  0.20903346221E+02  0.46500512046E+02 -0.29643187028E+01  0.51068920970E+02  0.00000000000E+00 0. -1.
         21    1    1    2  504  502  0.19569213122E+03 -0.11048200700E+03 -0.16057668559E+03  0.27620021008E+03  0.00000000000E+00 0. -1.
         21    1    1    2  505  501 -0.41935498096E+02  0.49463233977E+02  0.47622231304E+03  0.48061719585E+03  0.00000000000E+00 0. -1.
         21    1    1    2  506  505 -0.17465997935E+03  0.14518260977E+02 -0.20976912803E+02  0.17651322658E+03  0.00000000000E+00 0. -1.
<scales pt_clust_3="50.98282" pt_clust_4="198.65258" pt_clust_5="64.99932" pt_clust_6="14000.00000"></scales>
<clustering>
<clus scale="   50.983">  2  3  1 -1</clus>
<clus scale="   64.999">  1  5  2 -1</clus>
<clus scale="  198.653">  2  4  1 -1</clus>
<clus scale="   64.999">  1  3  2 -1</clus>
</clustering>
</event>
<event>
 6    0  0.3446372E+002  0.1583220E+03  0.7546771E-02  0.1190604E+00
         21   -1    0    0  505  501  0.00000000000E+00  0.00000000000E+00  0.30516759788E+03  0.30516759788E+03  0.00000000000E+00 0. -1.
         21   -1    0    0  506  502 -0.00000000000E+00 -0.00000000000E+00 -0.30946364700E+03  0.30946364700E+03  0.00000000000E+00 0. -1.
         21    1    1    2  503  502 -0.56042803145E+00 -0.63700624224E+02 -0.17468399476E+03  0.18593703674E+03  0.00000000000E+00 0.  1.
         21    1    1    2  504  501  0.92451600541E+02 -0.82739915314E+02  0.27658783022E+02  0.12711490985E+03  0.00000000000E+00 0. -1.
         21    1    1    2  505  503 -0.72466035271E+02  0.18644277407E+03  0.15763507493E+03  0.25467832872E+03  0.00000000000E+00 0. -1.
         21    1    1    2  506  504 -0.19425137238E+02 -0.40002234530E+02 -0.14905912310E+02  0.46900969562E+02  0.00000000000E+00 0. -1.
<scales pt_clust_3="90.55146" pt_clust_4="158.32201" pt_clust_5="14000.00000" pt_clust_6="44.46926"></scales>
<clustering>
<clus scale="   44.469">  2  6  1 -1</clus>
<clus scale="   90.551">  2  3  1 -1</clus>
<clus scale="  158.322">  2  4  1 -1</clus>
<clus scale="  158.322">  1  3  2 -1</clus>
</clustering>
</event>
<event>
 6    0  0.3446372E+002  0.8944469E+02  0.7546771E-02  0.1304202E+00
         21   -1    0    0  505  501  0.00000000000E+00  0.00000000000E+00  0.49110593911E+03  0.49110593911E+03  0.00000000000E+00 0. -1.
         21   -1    0    0  503  502 -0.00000000000E+00 -0.00000000000E+00 -0.17343464133E+03  0.17343464133E+03  0.00000000000E+00 0.  1.
         21    1    1    2  503  506  0.18608565179E+02 -0.23617137222E+02  0.45416225353E+01  0.30408456124E+02  0.00000000000E+00 0.  1.
         21    1    1    2  504  501  0.30531294180E+02  0.84928184507E+02 -0.84821121882E+02  0.12385305473E+03  0.00000000000E+00 0.  1.
         21    1    1    2  505  502 -0.83006403436E+02 -0.36334643477E+02  0.44092147415E+03  0.45013555258E+03  0.00000000000E+00 0. -1.
         21    1    1    2  506  504  0.33866544076E+02 -0.24976403807E+02 -0.42970677020E+02  0.60143517010E+02  0.00000000000E+00 0.  1.
<scales pt_clust_3="30.06739" pt_clust_4="89.44469" pt_clust_5="14000.00000" pt_clust_6="51.45765"></scales>
<clustering>
<clus scale="   30.067">  2  3  1 -1</clus>
<clus scale="   51.458">  2  6  1 -1</clus>
<clus scale="   89.445">  2  4  1 -1</clus>
<clus scale="   89.445">  1  3  2 -1</clus>
</clustering>
</event>
<event>
 6    0  0.3446372E+002  0.1422756E+03  0.7546771E-02  0.1210299E+00
         21   -1    0    0  506  501  0.00000000000E+00  0.00000000000E+00  0.81564446167E+03  0.81564446167E+03  0.00000000000E+00 0.  1.
         21   -1    0    0  504  502 -0.00000000000E+00 -0.00000000000E+00 -0.46613434996E+03  0.46613434996E+03  0.00000000000E+00 0.  1.
         21    1    1    2  503  502 -0.10178115240E+02 -0.36556218196E+02 -0.31024966387E+02  0.49015300244E+02  0.00000000000E+00 0.  1.
         21    1    1    2  504  505 -0.99046908905E+02  0.12921654059E+03 -0.39908360607E+03  0.43101615882E+03  0.00000000000E+00 0.  1.
         21    1    1    2  505  501  0.58728396027E+02 -0.81910428548E+02  0.69752287611E+03  0.70476698667E+03  0.00000000000E+00 0.  1.
         21    1    1    2  506  503  0.50496628117E+02 -0.10749893845E+02  0.82095808065E+02  0.96980365903E+02  0.00000000000E+00 0. -1.
<scales pt_clust_3="37.94669" pt_clust_4="14000.00000" pt_clust_5="142.27562" pt_clust_6="51.59150"></scales>
<clustering>
<clus scale="   37.947">  2  3  1 -1</clus>
<clus scale="   51.591">  1  6  2 -1</clus>
<clus scale="  142.276">  1  5  2 -1</clus>
<clus scale="   51.591">  1  3  2 -1</clus>
</clustering>
</event>
<event>
 6    0  0.3446372E+002  0.1340468E+03  0.7546771E-02  0.1221572E+00
         21   -1    0    0  505  501  0.00000000000E+00  0.00000000000E+00  0.31063604299E+02  0.31063604299E+02  0.00000000000E+00 0. -1.
         21   -1    0    0  504  502 -0.00000000000E+00 -0.00000000000E+00 -0.96511577387E+03  0.96511577387E+03  0.00000000000E+00 0.  1.
         21    1    1    2  503  501 -0.14801274422E+03  0.10816376642E+02 -0.46006352098E+03  0.48340791242E+03  0.00000000000E+00 0.  1.
         21    1    1    2  504  503  0.40723343239E+01 -0.33557338329E+02 -0.10645623333E+03  0.11169426341E+03  0.00000000000E+00 0.  1.
         21    1    1    2  505  506  0.25389867160E+02 -0.17651268643E+02 -0.41028793246E+02  0.51376789646E+02  0.00000000000E+00 0.  1.
         21    1    1    2  506  502  0.11855054273E+03  0.40392230330E+02 -0.32650362201E+03  0.34970041269E+03  0.00000000000E+00 0. -1.
<scales pt_clust_3="134.04677" pt_clust_4="35.96143" pt_clust_5="30.92269" pt_clust_6="14000.00000"></scales>
<clustering>
<clus scale="   30.923">  1  5  2 -1</clus>
<clus scale="   35.961">  2  4  1 -1</clus>
<clus scale="  134.047">  2  3  1 -1</clus>
<clus scale="   30.923">  1  3  2 -1</clus>
</clustering>
</event>
<event>
 6    0  0.3446372E+002  0.1302442E+03  0.7546771E-02  0.1227094E+00
         21   -1    0    0  504  501  0.00000000000E+00  0.00000000000E+00  0.58306863802E+03  0.58306863802E+03  0.00000000000E+00 0. -1.
         21   -1    0    0  505  502 -0.00000000000E+00 -0.00000000000E+00 -0.13153112029E+03  0.13153112029E+03  0.00000000000E+00 0.  1.
         21    1    1    2  503  502  0.41057044447E+02 -0.60149872014E+02 -0.35014784775E+02  0.80806702413E+02  0.00000000000E+00 0.  1.
         21    1    1    2  504  506  0.24926947706E+02 -0.31093126091E+02  0.47021426182E+02  0.61637243062E+02  0.00000000000E+00 0.  1.
         21    1    1    2  505  501 -0.64585460446E+02  0.14545481783E+03  0.47921884001E+03  0.50495453494E+03  0.00000000000E+00 0. -1.
         21    1    1    2  506  503 -0.13985317072E+01 -0.54211819725E+02 -0.39687963690E+02  0.67201277894E+02  0.00000000000E+00 0.  1.
<scales pt_clust_3="35.31125" pt_clust_4="39.85141" pt_clust_5="123.64899" pt_clust_6="35.31125"></scales>
<clustering>
<clus scale="   35.311">  3  6 -1 -1</clus>
<clus scale="   39.851">  1  4  2 -1</clus>
<clus scale="  123.649">  1  5  2 -1</clus>
<clus scale="   39.851">  1  3  2 -1</clus>
</clustering>
</event>
<event>
 6    0  0.3446372E+002  0.1407476E+03  0.7546771E-02  0.1212327E+00
         21   -1    0    0  503  501  0.00000000000E+00  0.00000000000E+00  0.83006873300E+03  0.83006873300E+03  0.00000000000E+00 0.  1.
         21   -1    0    0  506  502 -0.00000000000E+00 -0.00000000000E+00 -0.17937550856E+03  0.17937550856E+03  0.00000000000E+00 0.  1.
         21    1    1    2  503  504 -0.35019270391E+02 -0.15178076627E+03  0.30914359149E+03  0.34616977117E+03  0.00000000000E+00 0.  1.
         21    1    1    2  504  505  0.47832555718E+01  0.67783184611E+02 -0.97633006405E+02  0.11895227442E+03  0.00000000000E+00 0.  1.
         21    1    1    2  505  502 -0.17218679955E+02  0.61163609215E+02 -0.31348388328E+02  0.70853309608E+02  0.00000000000E+00 0. -1.
         21    1    1    2  506  501  0.47454694774E+02  0.22833972439E+02  0.47053102768E+03  0.47346888637E+03  0.00000000000E+00 0.  1.
<scales pt_clust_3="131.15575" pt_clust_4="49.38380" pt_clust_5="49.38380" pt_clust_6="52.66249"></scales>
<clustering>
<clus scale="   49.384">  4  5 -1 -1</clus>
<clus scale="   52.662">  1  6  2 -1</clus>
<clus scale="  131.156">  1  3  2 -1</clus>
<clus scale="   52.662">  1  3  2 -1</clus>
</clustering>
</event>
<event>
 6    0  0.3446372E+002  0.2460144E+03  0.7546771E-02  0.1115850E+00
         21   -1    0    0  504  501  0.00000000000E+00  0.00000000000E+00  0.91143349241E+03  0.91143349241E+03  0.00000000000E+00 0.  1.
         21   -1    0    0  506  502 -0.00000000000E+00 -0.00000000000E+00 -0.16389892975E+03  0.16389892975E+03  0.00000000000E+00 0.  1.
         21    1    1    2  503  502  0.27410553115E+02 -0.16054942130E+03 -0.60925873372E+01  0.16298642496E+03  0.00000000000E+00 0.  1.
         21    1    1    2  504  503 -0.26302488425E+02 -0.74005224765E+02  0.12030744444E+01  0.78549612208E+02  0.00000000000E+00 0.  1.
         21    1    1    2  505  501 -0.37272092590E+02 -0.20785490024E+02  0.37054759699E+03  0.37299700685E+03  0.00000000000E+00 0.  1.
         21    1    1    2  506  505  0.36164027901E+02  0.25534013609E+03  0.38187647856E+03  0.46079937813E+03  0.00000000000E+00 0.  1.
<scales pt_clust_3="39.88321" pt_clust_4="39.88321" pt_clust_5="42.67605" pt_clust_6="239.21629"></scales>
<clustering>
<clus scale="   39.883">  3  4 -1 -1</clus>
<clus scale="   42.676">  1  5  2 -1</clus>
<clus scale="  239.216">  1  6  2 -1</clus>
<clus scale="   42.676">  1  3  2 -1</clus>
</clustering>
</event>
<event>
 6    0  0.3446372E+002  0.1190700E+03  0.7546771E-02  0.1244639E+00
         21   -1    0    0  506  501  0.00000000000E+00  0.00000000000E+00  0.35436181813E+03  0.35436181813E+03  0.00000000000E+00 0. -1.
         21   -1    0    0  503  502 -0.00000000000E+00 -0.00000000000E+00 -0.13188245709E+04  0.13188245709E+04  0.00000000000E+00 0.  1.
         21    1    1    2  503  505 -0.23973135305E+02  0.19788266952E+02 -0.78079905029E+03  0.78141758597E+03  0.00000000000E+00 0.  1.
         21    1    1    2  504  501 -0.94837406311E+02 -0.65932800622E+02  0.24954344074E+03  0.27497853852E+03  0.00000000000E+00 0. -1.
         21    1    1    2  505  504 -0.43534868169E+02  0.43962893710E+02 -0.44938684351E+03  0.45362600884E+03  0.00000000000E+00 0.  1.
         21    1    1    2  506  502  0.16234540979E+03  0.21816399589E+01  0.16179700311E+02  0.16316425569E+03  0.00000000000E+00 0. -1.
<scales pt_clust_3="31.08515" pt_clust_4="14000.00000" pt_clust_5="87.88022" pt_clust_6="119.07003"></scales>
<clustering>
<clus scale="   31.085">  2  3  1 -1</clus>
<clus scale="   87.880">  2  5  1 -1</clus>
<clus scale="  119.070">  2  6  1 -1</clus>
<clus scale="  119.070">  1  3  2 -1</clus>
</clustering>
</event>
<event>
 6    0  0.3446372E+002  0.7024238E+02  0.7546771E-02  0.1359271E+00
         21   -1    0    0  503  501  0.00000000000E+00  0.00000000000E+00  0.29054247436E+02  0.29054247436E+02  0.00000000000E+00 0. -1.
         21   -1    0    0  504  502 -0.00000000000E+00 -0.00000000000E+00 -0.67956495669E+03  0.67956495669E+03  0.00000000000E+00 0. -1.
         21    1    1    2  503  502 -0.35559945977E+02  0.65952563986E+02 -0.14214391657E+03  0.16068336402E+03  0.00000000000E+00 0. -1.
         21    1    1    2  504  505  0.59629634814E+00 -0.41067079420E+02 -0.21011374472E+03  0.21409027606E+03  0.00000000000E+00 0. -1.
         21    1    1    2  505  506 -0.46348634060E+02 -0.34433684117E+02 -0.18702425358E+03  0.19573437589E+03  0.00000000000E+00 0. -1.
         21    1    1    2  506  501  0.81312283688E+02  0.95481995507E+01 -0.11122879438E+03  0.13811118815E+03  0.00000000000E+00 0. -1.
<scales pt_clust_3="63.42641" pt_clust_4="41.07141" pt_clust_5="70.24238" pt_clust_6="14000.00000"></scales>
<clustering>
<clus scale="   41.071">  2  4  1 -1</clus>
<clus scale="   63.426">  2  3  1 -1</clus>
<clus scale="   70.242">  2  5  1 -1</clus>
<clus scale="   70.242">  1  3  2 -1</clus>
</clustering>
</event>
<event>
 6    0  0.3446372E+002  0.7121014E+02  0.7546771E-02  0.1356026E+00
         21   -1    0    0  505  501  0.00000000000E+00  0.00000000000E+00  0.94628074051E+02  0.94628074051E+02  0.00000000000E+00 0.  1.
         21   -1    0    0  504  502 -0.00000000000E+00 -0.00000000000E+00 -0.23097526553E+03  0.23097526553E+03  0.00000000000E+00 0.  1.
         21    1    1    2  503  502  0.46336554968E+02 -0.10091364776E+01 -0.60810885787E+02  0.76459522056E+02  0.00000000000E+00 0.  1.
         21    1    1    2  504  501  0.81651944241E+01 -0.43279596922E+02 -0.13837301894E+00  0.44043308877E+02  0.00000000000E+00 0.  1.
         21    1    1    2  505  506 -0.51259445192E+02  0.99439947943E+02 -0.30532215899E+00  0.11187460476E+03  0.00000000000E+00 0.  1.
         21    1    1    2  506  503 -0.32423042002E+01 -0.55151214543E+02 -0.75092610515E+02  0.93225903890E+02  0.00000000000E+00 0.  1.
<scales pt_clust_3="47.55470" pt_clust_4="44.04309" pt_clust_5="71.21014" pt_clust_6="14000.00000"></scales>
<clustering>
<clus scale="   44.043">  1  4  2 -1</clus>
<clus scale="   47.555">  2  3  1 -1</clus>
<clus scale="   71.210">  1  5  2 -1</clus>
<clus scale="   44.043">  1  3  2 -1</clus>
</clustering>
</event>
<event>
 6    0  0.3446372E+002  0.1963997E+03  0.7546771E-02  0.1152813E+00
         21   -1    0    0  506  501  0.00000000000E+00  0.00000000000E+00  0.12521594571E+04  0.12521594571E+04  0.00000000000E+00 0.  1.
         21   -1    0    0  503  502 -0.00000000000E+00 -0.00000000000E+00 -0.71389875194E+02  0.71389875194E+02  0.00000000000E+00 0. -1.
         21    1    1    2  503  505 -0.12673148070E+03 -0.14979938807E+03  0.14105493266E+03  0.24165516525E+03  0.00000000000E+00 0. -1.
         21    1    1    2  504  502  0.14374202798E+01  0.57887223319E+02  0.10214098953E+03  0.11741285510E+03  0.00000000000E+00 0. -1.
         21    1    1    2  505  501  0.50568987236E+02 -0.65938456711E+01  0.64289874728E+03  0.64491821228E+03  0.00000000000E+00 0.  1.
         21    1    1    2  506  504  0.74725073182E+02  0.98506010417E+02  0.29467491246E+03  0.31956309969E+03  0.00000000000E+00 0.  1.
<scales pt_clust_3="188.00874" pt_clust_4="38.86674" pt_clust_5="50.99707" pt_clust_6="38.86674"></scales>
<clustering>
<clus scale="   38.867">  4  6 -1 -1</clus>
<clus scale="   50.997">  1  5  2 -1</clus>
<clus scale="  188.009">  2  3  1 -1</clus>
<clus scale="   50.997">  1  3  2 -1</clus>
</clustering>
</event>
<event>
 6    0  0.3446372E+002  0.1101289E+03  0.7546771E-02  0.1260331E+00
         21   -1    0    0  506  501  0.00000000000E+00  0.00000000000E+00  0.11304936756E+03  0.11304936756E+03  0.00000000000E+00 0. -1.
         21   -1    0    0  504  502 -0.00000000000E+00 -0.00000000000E+00 -0.52832028057E+03  0.52832028057E+03  0.00000000000E+00 0. -1.
         21    1    1    2  503  505 -0.15775288353E+02 -0.46349718989E+02 -0.18303151113E+03  0.18946685789E+03  0.00000000000E+00 0. -1.
         21    1    1    2  504  501 -0.46496135255E+02 -0.34368762468E+02  0.20887419487E+02  0.61476716894E+02  0.00000000000E+00 0. -1.
         21    1    1    2  505  502 -0.46397074924E+02 -0.31661420715E+02 -0.22460043953E+03  0.23151779966E+03  0.00000000000E+00 0. -1.
         21    1    1    2  506  503  0.10866849853E+03  0.11237990217E+03 -0.28526381836E+02  0.15890827369E+03  0.00000000000E+00 0. -1.
<scales pt_clust_3="31.14895" pt_clust_4="57.81957" pt_clust_5="31.14895" pt_clust_6="104.95350"></scales>
<clustering>
<clus scale="   31.149">  3  5 -1 -1</clus>
<clus scale="   57.820">  1  4  2 -1</clus>
<clus scale="  104.953">  1  6  2 -1</clus>
<clus scale="   57.820">  1  3  2 -1</clus>
</clustering>
</event>
<event>
 6    0  0.3446372E+002  0.1202809E+03  0.7546771E-02  0.1242634E+00
         21   -1    0    0  505  501  0.00000000000E+00  0.00000000000E+00  0.37336862974E+03  0.37336862974E+03  0.00000000000E+00 0.  1.
         21   -1    0    0  503  502 -0.00000000000E+00 -0.00000000000E+00 -0.23652544666E+04  0.23652544666E+04  0.00000000000E+00 0.  1.
         21    1    1    2  503  504  0.55957328367E+02 -0.42809003691E+02 -0.53224447921E+03  0.53688734297E+03  0.00000000000E+00 0.  1.
         21    1    1    2  504  501 -0.80639547014E+02 -0.47927639155E+02  0.80124359551E+02  0.12336818119E+03  0.00000000000E+00 0.  1.
         21    1    1    2  505  506 -0.32628096777E+02  0.23460689079E+01  0.26676740889E+03  0.26876559896E+03  0.00000000000E+00 0.  1.
         21    1    1    2  506  502  0.57310315424E+02  0.88390573938E+02 -0.18065331261E+04  0.18096019732E+04  0.00000000000E+00 0.  1.
<scales pt_clust_3="69.85459" pt_clust_4="14000.00000" pt_clust_5="32.71233" pt_clust_6="120.28087"></scales>
<clustering>
<clus scale="   32.712">  1  5  2 -1</clus>
<clus scale="   69.855">  2  3  1 -1</clus>
<clus scale="  120.281">  2  6  1 -1</clus>
<clus scale="   32.712">  1  3  2 -1</clus>
</clustering>
</event>
<event>
 6    0  0.3446372E+002  0.1609944E+03  0.7546771E-02  0.1187579E+00
         21   -1    0    0  506  501  0.00000000000E+00  0.00000000000E+00  0.12375609993E+03  0.12375609993E+03  0.00000000000E+00 0. -1.
         21   -1    0    0  504  502 -0.00000000000E+00 -0.00000000000E+00 -0.35222287725E+03  0.35222287725E+03  0.00000000000E+00 0. -1.
         21    1    1    2  503  505  0.45216671834E+02 -0.67650278400E+02 -0.86411193732E+01  0.81827724662E+02  0.00000000000E+00 0. -1.
         21    1    1    2  504  503 -0.25725530906E+02 -0.51032941555E+02 -0.13540378231E+02  0.58732494471E+02  0.00000000000E+00 0. -1.
         21    1    1    2  505  501 -0.11455435858E+01 -0.35241151919E+02  0.34318011810E+02  0.49203424610E+02  0.00000000000E+00 0. -1.
         21    1    1    2  506  502 -0.18345597343E+02  0.15392437187E+03 -0.24060329153E+03  0.28621533344E+03  0.00000000000E+00 0. -1.
<scales pt_clust_3="57.90430" pt_clust_4="57.90430" pt_clust_5="35.25977" pt_clust_6="145.32598"></scales>
<clustering>
<clus scale="   35.260">  1  5  2 -1</clus>
<clus scale="   57.904">  3  4 -1 -1</clus>
<clus scale="  145.326">  2  6  1 -1</clus>
<clus scale="   35.260">  1  3  2 -1</clus>
</clustering>
</event>
<event>
 6    0  0.3446372E+002  0.1312642E+03  0.7546771E-02  0.1225592E+00
         21   -1    0    0  506  501  0.00000000000E+00  0.00000000000E+00  0.62351169492E+03  0.62351169492E+03  0.00000000000E+00 0.  1.
         21   -1    0    0  503  502 -0.00000000000E+00 -0.00000000000E+00 -0.49008931391E+02  0.49008931391E+02  0.00000000000E+00 0.  1.
         21    1    1    2  503  504  0.19102366182E+02  0.37304925404E+02  0.57901065982E+02  0.71477907741E+02  0.00000000000E+00 0.  1.
         21    1    1    2  504  501  0.96039913873E+02 -0.10760974466E+03  0.27380687777E+03  0.30947330824E+03  0.00000000000E+00 0.  1.
         21    1    1    2  505  502 -0.80995149095E+02  0.86777123288E+02  0.14970365193E+03  0.19105409366E+03  0.00000000000E+00 0.  1.
         21    1    1    2  506  505 -0.34147130960E+02 -0.16472304037E+02  0.93091167856E+02  0.10051531667E+03  0.00000000000E+00 0. -1.
<scales pt_clust_3="38.30234" pt_clust_4="14000.00000" pt_clust_5="131.26419" pt_clust_6="37.91258"></scales>
<clustering>
<clus scale="   37.913">  1  6  2 -1</clus>
<clus scale="   38.302">  2  3  1 -1</clus>
<clus scale="  131.264">  2  5  1 -1</clus>
<clus scale="   37.913">  1  3  2 -1</clus>
</clustering>
</event>
<event>
 6    0  0.3446372E+002  0.1486449E+03  0.7546771E-02  0.1202148E+00
         21   -1    0    0  504  501  0.00000000000E+00  0.00000000000E+00  0.15394485493E+04  0.15394485493E+04  0.00000000000E+00 0.  1.
         21   -1    0    0  505  502 -0.00000000000E+00 -0.00000000000E+00 -0.26383828005E+03  0.26383828005E+03  0.00000000000E+00 0.  1.
         21    1    1    2  503  502 -0.47948044006E+02  0.23117270667E+02 -0.68781572253E+02  0.86973144180E+02  0.00000000000E+00 0. -1.
         21    1    1    2  504  503  0.12390033659E+03  0.11196582013E+03  0.12742429334E+04  0.12851391720E+04  0.00000000000E+00 0.  1.
         21    1    1    2  505  506  0.59482468741E+01 -0.16521846294E+03 -0.13163367421E+03  0.21132900019E+03  0.00000000000E+00 0.  1.
         21    1    1    2  506  501 -0.81900539456E+02  0.30135372142E+02  0.20178258238E+03  0.21984551297E+03  0.00000000000E+00 0.  1.
<scales pt_clust_3="53.22991" pt_clust_4="148.64489" pt_clust_5="14000.00000" pt_clust_6="89.84224"></scales>
<clustering>
<clus scale="   53.230">  2  3  1 -1</clus>
<clus scale="   89.842">  1  6  2 -1</clus>
<clus scale="  148.645">  1  4  2 -1</clus>
<clus scale="   89.842">  1  3  2 -1</clus>
</clustering>
</event>
<event>
 6    0  0.3446372E+002  0.1191086E+03  0.7546771E-02  0.1244575E+00
         21   -1    0    0  505  501  0.00000000000E+00  0.00000000000E+00  0.11322530346E+03  0.11322530346E+03  0.00000000000E+00 0. -1.
         21   -1    0    0  506  502 -0.00000000000E+00 -0.00000000000E+00 -0.56485816967E+03  0.56485816967E+03  0.00000000000E+00 0.  1.
         21    1    1    2  503  501 -0.13048485698E+03 -0.60749548065E+02  0.14480355028E+02  0.14465989829E+03  0.00000000000E+00 0. -1.
         21    1    1    2  504  502  0.35300067311E+02  0.24464642428E+02 -0.14975192707E+03  0.15578913037E+03  0.00000000000E+00 0.  1.
         21    1    1    2  505  504  0.34587900275E+02 -0.36588889501E+02 -0.26518754104E+03  0.26992499255E+03  0.00000000000E+00 0.  1.
         21    1    1    2  506  503  0.60596889397E+02  0.72873795138E+02 -0.51173753120E+02  0.10770945191E+03  0.00000000000E+00 0. -1.
<scales pt_clust_3="14000.00000" pt_clust_4="42.94896" pt_clust_5="61.12088" pt_clust_6="119.10860"></scales>
<clustering>
<clus scale="   42.949">  2  4  1 -1</clus>
<clus scale="   61.121">  2  5  1 -1</clus>
<clus scale="  119.109">  2  6  1 -1</clus>
<clus scale="  119.109">  1  3  2 -1</clus>
</clustering>
</event>
<event>
 6    0  0.3446372E+002  0.1504651E+03  0.7546771E-02  0.1199903E+00
         21   -1    0    0  503  501  0.00000000000E+00  0.00000000000E+00  0.13870414348E+03  0.13870414348E+03  0.00000000000E+00 0. -1.
         21   -1    0    0  505  502 -0.00000000000E+00 -0.00000000000E+00 -0.47484565142E+03  0.47484565142E+03  0.00000000000E+00 0. -1.
         21    1    1    2  503  506  0.64574472672E+02 -0.55030918619E+02 -0.27921728754E+03  0.29182281985E+03  0.00000000000E+00 0. -1.
         21    1    1    2  504  501  0.31915589234E+02 -0.92779309768E+01  0.24342892320E+02  0.41197830597E+02  0.00000000000E+00 0.  1.
         21    1    1    2  505  504 -0.13869755500E+03  0.10031523294E+03  0.12446412462E+02  0.17162479689E+03  0.00000000000E+00 0. -1.
         21    1    1    2  506  502  0.42207493095E+02 -0.36006383345E+02 -0.93713525182E+02  0.10890434756E+03  0.00000000000E+00 0.  1.
<scales pt_clust_3="34.75007" pt_clust_4="33.23680" pt_clust_5="144.30891" pt_clust_6="34.75007"></scales>
<clustering>
<clus scale="   33.237">  1  4  2 -1</clus>
<clus scale="   34.750">  3  6 -1 -1</clus>
<clus scale="  144.309">  1  5  2 -1</clus>
<clus scale="   33.237">  1  3  2 -1</clus>
</clustering>
</event>
<event>
 6    0  0.3446372E+002  0.1589600E+03  0.7546771E-02  0.1189876E+00
         21   -1    0    0  505  501  0.00000000000E+00  0.00000000000E+00  0.74218765008E+03  0.74218765008E+03  0.00000000000E+00 0. -1.
         21   -1    0    0  506  502 -0.00000000000E+00 -0.00000000000E+00 -0.36368851294E+03  0.36368851294E+03  0.00000000000E+00 0.  1.
         21    1    1    2  503  502  0.34419442012E+02 -0.63714171900E+02 -0.32291278667E+02  0.79290102581E+02  0.00000000000E+00 0. -1.
         21    1    1    2  504  501 -0.17111836788E+03  0.37452358513E+02  0.63016221819E+03  0.65405549934E+03  0.00000000000E+00 0. -1.
         21    1    1    2  505  503  0.99699655089E+02 -0.36596073365E+02  0.31896124585E+02  0.11089029071E+03  0.00000000000E+00 0. -1.
         21    1    1    2  506  504  0.36999270775E+02  0.62857886752E+02 -0.25126792697E+03  0.26164027038E+03  0.00000000000E+00 0.  1.
<scales pt_clust_3="72.41681" pt_clust_4="158.95996" pt_clust_5="14000.00000" pt_clust_6="66.39352"></scales>
<clustering>
<clus scale="   72.417">  2  3  1 -1</clus>
<clus scale="   66.394">  2  6  1 -1</clus>
<clus scale="  158.960">  1  4  2 -1</clus>
<clus scale="  158.960">  1  3  2 -1</clus>
</clustering>
</event>
<event>
 6    0  0.3446372E+002  0.1732875E+03  0.7546771E-02  0.1174462E+00
         21   -1    0    0  504  501  0.00000000000E+00  0.00000000000E+00  0.10918195186E+03  0.10918195186E+03  0.00000000000E+00 0.  1.
         21   -1    0    0  506  502 -0.00000000000E+00 -0.00000000000E+00 -0.50886416880E+03  0.50886416880E+03  0.00000000000E+00 0.  1.
         21    1    1    2  503  502 -0.50109429792E+02 -0.86967732500E+01 -0.10318422249E+03  0.11503726609E+03  0.00000000000E+00 0.  1.
         21    1    1    2  504  503 -0.14458582137E+03 -0.27166887577E+02 -0.10355347701E+02  0.14747994016E+03  0.00000000000E+00 0.  1.
         21    1    1    2  505  501  0.11237725069E+03 -0.41524673439E+00 -0.10750296250E+03  0.15551754194E+03  0.00000000000E+00 0.  1.
         21    1    1    2  506  505  0.82318000471E+02  0.36278907561E+02 -0.17863968424E+03  0.20001137248E+03  0.00000000000E+00 0.  1.
<scales pt_clust_3="50.85852" pt_clust_4="157.15531" pt_clust_5="60.93535" pt_clust_6="60.93535"></scales>
<clustering>
<clus scale="   50.859">  2  3  1 -1</clus>
<clus scale="   60.935">  5  6 -1 -1</clus>
<clus scale="  157.155">  1  4  2 -1</clus>
<clus scale="  157.155">  1  3  2 -1</clus>
</clustering>
</event>
<event>
 6    0  0.3446372E+002  0.1073475E+03  0.7546771E-02  0.1265562E+00
         21   -1    0    0  502  501  0.00000000000E+00  0.00000000000E+00  0.81410969206E+02  0.81410969206E+02  0.00000000000E+00 0.  1.
         21   -1    0    0  503  502 -0.00000000000E+00 -0.00000000000E+00 -0.60561014750E+03  0.60561014750E+03  0.00000000000E+00 0.  1.
         21    1    1    2  503  504  0.39995869686E+02  0.26672596519E+00 -0.95760039044E+02  0.10377728948E+03  0.00000000000E+00 0.  1.
         21    1    1    2  504  505  0.24037711148E+02  0.99768190602E+02 -0.33826412322E+03  0.35348850119E+03  0.00000000000E+00 0.  1.
         21    1    1    2  505  506 -0.10811493127E+03 -0.37933870341E+02 -0.38529504593E+01  0.11464145023E+03  0.00000000000E+00 0.  1.
         21    1    1    2  506  501  0.44081350439E+02 -0.62101046225E+02 -0.86322065565E+02  0.11511387580E+03  0.00000000000E+00 0. -1.
<scales pt_clust_3="39.99676" pt_clust_4="14000.00000" pt_clust_5="107.34751" pt_clust_6="80.98531"></scales>
<clustering>
<clus scale="   39.997">  2  3  1 -1</clus>
<clus scale="   80.985">  1  6  2 -1</clus>
<clus scale="  107.348">  1  5  2 -1</clus>
<clus scale="   80.985">  1  3  2 -1</clus>
</clustering>
</event>
<event>
 6    0  0.3446372E+002  0.9287130E+02  0.7546771E-02  0.1296044E+00
         21   -1    0    0  504  501  0.00000000000E+00  0.00000000000E+00  0.45624239712E+02  0.45624239712E+02  0.00000000000E+00 0.  1.
         21   -1    0    0  505  502 -0.00000000000E+00 -0.00000000000E+00 -0.51421172490E+03  0.51421172490E+03  0.00000000000E+00 0. -1.
         21    1    1    2  503  506 -0.31674105960E+01  0.85670997467E+02 -0.24414416928E+03  0.25875843501E+03  0.00000000000E+00 0. -1.
         21    1    1    2  504  502  0.40387342091E+02  0.17004661670E+02 -0.20147489907E+02  0.48230874647E+02  0.00000000000E+00 0.  1.
         21    1    1    2  505  503 -0.32135412879E+02  0.20333945537E+01 -0.99649727009E+02  0.10472290842E+03  0.00000000000E+00 0. -1.
         21    1    1    2  506  501 -0.50845186160E+01 -0.10470905369E+03 -0.10464609900E+03  0.14812374654E+03  0.00000000000E+00 0.  1.
<scales pt_clust_3="14000.00000" pt_clust_4="41.44616" pt_clust_5="32.19968" pt_clust_6="92.87130"></scales>
<clustering>
<clus scale="   32.200">  2  5  1 -1</clus>
<clus scale="   41.446">  1  4  2 -1</clus>
<clus scale="   92.871">  1  6  2 -1</clus>
<clus scale="   41.446">  1  3  2 -1</clus>
</clustering>
</event>
<event>
 6    0  0.3446372E+002  0.2128697E+03  0.7546771E-02  0.1139313E+00
         21   -1    0    0  506  501  0.00000000000E+00  0.00000000000E+00  0.27996992971E+03  0.27996992971E+03  0.00000000000E+00 0. -1.
         21   -1    0    0  503  502 -0.00000000000E+00 -0.00000000000E+00 -0.76997644515E+03  0.76997644515E+03  0.00000000000E+00 0. -1.
         21    1    1    2  503  505  0.13575616459E+03  0.74199383884E+02 -0.53146702287E+03  0.55352730845E+03  0.00000000000E+00 0. -1.
         21    1    1    2  504  501  0.18523447227E+02  0.64813417082E+02 -0.49454830217E+01  0.67589606696E+02  0.00000000000E+00 0.  1.
         21    1    1    2  505  504  0.52493403439E+02 -0.52588293188E+00 -0.11896298053E+03  0.13003086055E+03  0.00000000000E+00 0.  1.
         21    1    1    2  506  502 -0.20677301526E+03 -0.13848691803E+03  0.16536897098E+03  0.29879859917E+03  0.00000000000E+00 0. -1.
<scales pt_clust_3="33.59876" pt_clust_4="67.40844" pt_clust_5="33.59876" pt_clust_6="204.90640"></scales>
<clustering>
<clus scale="   33.599">  3  5 -1 -1</clus>
<clus scale="   67.408">  1  4  2 -1</clus>
<clus scale="  204.906">  1  6  2 -1</clus>
<clus scale="   67.408">  1  3  2 -1</clus>
</clustering>
</event>
<event>
 6    0  0.3446372E+002  0.9992645E+02  0.7546771E-02  0.1280451E+00
         21   -1    0    0  503  501  0.00000000000E+00  0.00000000000E+00  0.88954660753E+02  0.88954660753E+02  0.00000000000E+00 0. -1.
         21   -1    0    0  506  502 -0.00000000000E+00 -0.00000000000E+00 -0.62463700041E+03  0.62463700041E+03  0.00000000000E+00 0. -1.
         21    1    1    2  503  502  0.61267221711E+02  0.93515803910E+02 -0.39406928110E+03  0.40962113757E+03  0.00000000000E+00 0. -1.
         21    1    1    2  504  501  0.32135923196E+02 -0.12864126755E+02  0.51504978803E+02  0.62056153267E+02  0.00000000000E+00 0. -1.
         21    1    1    2  505  504 -0.32192171157E+02 -0.19739506344E+02 -0.94017650021E+01  0.38914999417E+02  0.00000000000E+00 0. -1.
         21    1    1    2  506  505 -0.61210973750E+02 -0.60912170811E+02 -0.18371627236E+03  0.20299937091E+03  0.00000000000E+00 0. -1.
<scales pt_clust_3="99.92645" pt_clust_4="34.61507" pt_clust_5="31.01612" pt_clust_6="14000.00000"></scales>
<clustering>
<clus scale="   34.615">  1  4  2 -1</clus>
<clus scale="   31.016">  1  5  2 -1</clus>
<clus scale="   99.926">  2  3  1 -1</clus>
<clus scale="   34.615">  1  3  2 -1</clus>
</clustering>
</event>
<event>
 6    0  0.3446372E+002  0.1344465E+03  0.7546771E-02  0.1221003E+00
         21   -1    0    0  505  501  0.00000000000E+00  0.00000000000E+00  0.46999747802E+02  0.46999747802E+02  0.00000000000E+00 0. -1.
         21   -1    0    0  503  502 -0.00000000000E+00 -0.00000000000E+00 -0.21195090163E+04  0.21195090163E+04  0.00000000000E+00 0.  1.
         21    1    1    2  503  501  0.19389953696E+02  0.82814574873E+02 -0.28405804809E+02  0.89672258043E+02  0.00000000000E+00 0. -1.
         21    1    1    2  504  502  0.10574090468E+03 -0.83640851242E+02 -0.17507904261E+04  0.17559738173E+04  0.00000000000E+00 0.  1.
         21    1    1    2  505  506 -0.61202299334E+02  0.13874876998E+02 -0.11534871915E+03  0.13131473895E+03  0.00000000000E+00 0. -1.
         21    1    1    2  506  504 -0.63928559043E+02 -0.13048600629E+02 -0.17796431841E+03  0.18954794979E+03  0.00000000000E+00 0. -1.
<scales pt_clust_3="85.05424" pt_clust_4="129.66863" pt_clust_5="34.83861" pt_clust_6="34.83861"></scales>
<clustering>
<clus scale="   34.839">  5  6 -1 -1</clus>
<clus scale="   85.054">  1  3  2 -1</clus>
<clus scale="  129.669">  2  4  1 -1</clus>
<clus scale="   85.054">  1  3  2 -1</clus>
</clustering>
</event>
<event>
 6    0  0.3446372E+002  0.8287053E+02  0.7546771E-02  0.1321097E+00
         21   -1    0    0  506  501  0.00000000000E+00  0.00000000000E+00  0.90770817412E+03  0.90770817412E+03  0.00000000000E+00 0. -1.
         21   -1    0    0  505  502 -0.00000000000E+00 -0.00000000000E+00 -0.21048955251E+03  0.21048955251E+03  0.00000000000E+00 0. -1.
         21    1    1    2  503  504 -0.11480369005E+03  0.88247005564E+01  0.49555026378E+03  0.50875124228E+03  0.00000000000E+00 0. -1.
         21    1    1    2  504  502 -0.29711716077E+02 -0.28099568534E+02  0.65420345611E+01  0.41414611435E+02  0.00000000000E+00 0. -1.
         21    1    1    2  505  501  0.10914463728E+03  0.30951641522E+02 -0.16815475607E+03  0.20284619284E+03  0.00000000000E+00 0. -1.
         21    1    1    2  506  503  0.35370768843E+02 -0.11676773544E+02  0.36328107933E+03  0.36518568007E+03  0.00000000000E+00 0. -1.
<scales pt_clust_3="82.87053" pt_clust_4="40.14089" pt_clust_5="14000.00000" pt_clust_6="37.24833"></scales>
<clustering>
<clus scale="   37.248">  1  6  2 -1</clus>
<clus scale="   40.141">  2  4  1 -1</clus>
<clus scale="   82.871">  1  3  2 -1</clus>
<clus scale="   37.248">  1  3  2 -1</clus>
</clustering>
</event>
<event>
 6    0  0.3446372E+002  0.1322863E+03  0.7546771E-02  0.1224102E+00
         21   -1    0    0  504  501  0.00000000000E+00  0.00000000000E+00  0.22519310136E+04  0.22519310136E+04  0.00000000000E+00 0. -1.
         21   -1    0    0  503  502 -0.00000000000E+00 -0.00000000000E+00 -0.75061997851E+03  0.75061997851E+03  0.00000000000E+00 0.  1.
         21    1    1    2  503  501  0.14558548161E+03  0.18739200848E+02 -0.65054153912E+03  0.66689623197E+03  0.00000000000E+00 0.  1.
         21    1    1    2  504  506 -0.52344972666E+02 -0.48653042670E+02  0.14298604272E+04  0.14316451921E+04  0.00000000000E+00 0. -1.
         21    1    1    2  505  502 -0.15044444637E+02 -0.43889460725E+02 -0.81270856104E+02  0.93581900649E+02  0.00000000000E+00 0.  1.
         21    1    1    2  506  505 -0.78196064303E+02  0.73803302547E+02  0.80326300307E+03  0.81042766737E+03  0.00000000000E+00 0. -1.
<scales pt_clust_3="14000.00000" pt_clust_4="71.51912" pt_clust_5="46.39634" pt_clust_6="132.28628"></scales>
<clustering>
<clus scale="   46.396">  2  5  1 -1</clus>
<clus scale="   71.519">  1  4  2 -1</clus>
<clus scale="  132.286">  1  6  2 -1</clus>
<clus scale="   71.519">  1  3  2 -1</clus>
</clustering>
</event>
<event>
 6    0  0.3446372E+002  0.6722104E+03  0.7546771E-02  0.9765973E-01
         21   -1    0    0  506  501  0.00000000000E+00  0.00000000000E+00  0.26522098479E+03  0.26522098479E+03  0.00000000000E+00 0.  1.
         21   -1    0    0  504  502 -0.00000000000E+00 -0.00000000000E+00 -0.23517808417E+04  0.23517808417E+04  0.00000000000E+00 0.  1.
         21    1    1    2  503  501 -0.61685170949E+02 -0.83154310951E+01 -0.69022412280E+02  0.92942455887E+02  0.00000000000E+00 0.  1.
         21    1    1    2  504  505 -0.36049202836E+03 -0.20141415457E+03 -0.15276727697E+04  0.15825000017E+04  0.00000000000E+00 0.  1.
         21    1    1    2  505  503 -0.10491811837E+03 -0.10031218541E+03 -0.24100411808E+03  0.28134201790E+03  0.00000000000E+00 0.  1.
         21    1    1    2  506  502  0.52709531768E+03  0.31004177107E+03 -0.24886055681E+03  0.66021735093E+03  0.00000000000E+00 0.  1.
<scales pt_clust_3="43.51436" pt_clust_4="170.70226" pt_clust_5="170.70226" pt_clust_6="611.51891"></scales>
<clustering>
<clus scale="   43.514">  3  5 -1 -1</clus>
<clus scale="  170.702">  3  4 -1 -1</clus>
<clus scale="  611.519">  1  6  2 -1</clus>
<clus scale="  611.519">  1  3  2 -1</clus>
</clustering>
</event>
<event>
 6    0  0.3446372E+002  0.1218631E+03  0.7546771E-02  0.1240055E+00
         21   -1    0    0  504  501  0.00000000000E+00  0.00000000000E+00  0.32538428150E+02  0.32538428150E+02  0.00000000000E+00 0.  1.
         21   -1    0    0  506  502 -0.00000000000E+00 -0.00000000000E+00 -0.12697999860E+04  0.12697999860E+04  0.00000000000E+00 0.  1.
         21    1    1    2  503  502  0.27931643496E+02  0.25763343222E+02 -0.80905947816E+02  0.89385115955E+02  0.00000000000E+00 0.  1.
         21    1    1    2  504  503  0.40921980680E+02  0.55147613349E+02 -0.39614168003E+03  0.40204987056E+03  0.00000000000E+00 0.  1.
         21    1    1    2  505  501  0.27492364207E+02 -0.18663531499E+02  0.79957685812E+01  0.34177328932E+02  0.00000000000E+00 0.  1.
         21    1    1    2  506  505 -0.96345988382E+02 -0.62247425072E+02 -0.76820969862E+03  0.77672609874E+03  0.00000000000E+00 0.  1.
<scales pt_clust_3="40.21988" pt_clust_4="40.21988" pt_clust_5="33.22887" pt_clust_6="110.47218"></scales>
<clustering>
<clus scale="   33.229">  1  5  2 -1</clus>
<clus scale="   40.220">  3  4 -1 -1</clus>
<clus scale="  110.472">  2  6  1 -1</clus>
<clus scale="   33.229">  1  3  2 -1</clus>
</clustering>
</event>
<event>
 6    0  0.3446372E+002  0.2593377E+03  0.7546771E-02  0.1107542E+00
         21   -1    0    0  503  501  0.00000000000E+00  0.00000000000E+00  0.81303400842E+03  0.81303400842E+03  0.00000000000E+00 0.  1.
         21   -1    0    0  506  502 -0.00000000000E+00 -0.00000000000E+00 -0.30564246255E+03  0.30564246255E+03  0.00000000000E+00 0.  1.
         21    1    1    2  503  504 -0.36162422396E+02 -0.40162956998E+02  0.84039462837E+02  0.99917041701E+02  0.00000000000E+00 0. -1.
         21    1    1    2  504  502  0.23741679609E+02 -0.25354102262E+03 -0.99698522524E-02  0.25465018673E+03  0.00000000000E+00 0.  1.
         21    1    1    2  505  501  0.18843069338E+03  0.67056587385E+02  0.43302354637E+03  0.47698228880E+03  0.00000000000E+00 0.  1.
         21    1    1    2  506  505 -0.17600995060E+03  0.22664739223E+03 -0.96614934837E+01  0.28712695375E+03  0.00000000000E+00 0.  1.
<scales pt_clust_3="54.04428" pt_clust_4="259.33767" pt_clust_5="170.78374" pt_clust_6="14000.00000"></scales>
<clustering>
<clus scale="   54.044">  1  3  2 -1</clus>
<clus scale="  170.784">  1  5  2 -1</clus>
<clus scale="  259.338">  2  4  1 -1</clus>
<clus scale="   54.044">  1  3  2 -1</clus>
</clustering>
</event>
<event>
 6    0  0.3446372E+002  0.1063576E+03  0.7546771E-02  0.1267468E+00
         21   -1    0    0  504  501  0.00000000000E+00  0.00000000000E+00  0.57181276983E+02  0.57181276983E+02  0.00000000000E+00 0. -1.
         21   -1    0    0  503  502 -0.00000000000E+00 -0.00000000000E+00 -0.54475354322E+03  0.54475354322E+03  0.00000000000E+00 0. -1.
         21    1    1    2  503  505  0.79634475015E+02  0.33802208627E+02 -0.14519281101E+03  0.16901239981E+03  0.00000000000E+00 0. -1.
         21    1    1    2  504  506  0.31900308128E+02 -0.21565648232E+02  0.79874138480E+01  0.39325635689E+02  0.00000000000E+00 0. -1.
         21    1    1    2  505  501  0.24240737197E+02 -0.23753864190E+02 -0.29397570710E+02  0.44900741280E+02  0.00000000000E+00 0. -1.
         21    1    1    2  506  502 -0.13577552034E+03  0.11517303795E+02 -0.32096929836E+03  0.34869604343E+03  0.00000000000E+00 0. -1.
<scales pt_clust_3="14000.00000" pt_clust_4="54.56229" pt_clust_5="33.93905" pt_clust_6="106.35762"></scales>
<clustering>
<clus scale="   33.939">  1  5  2 -1</clus>
<clus scale="   54.562">  1  4  2 -1</clus>
<clus scale="  106.358">  1  6  2 -1</clus>
<clus scale="   33.939">  1  3  2 -1</clus>
</clustering>
</event>
<event>
 6    0  0.3446372E+002  0.9644284E+02  0.7546771E-02  0.1287959E+00
         21   -1    0    0  503  501  0.00000000000E+00  0.00000000000E+00  0.14732736574E+04  0.14732736574E+04  0.00000000000E+00 0.  1.
         21   -1    0    0  505  502 -0.00000000000E+00 -0.00000000000E+00 -0.12853810383E+03  0.12853810383E+03  0.00000000000E+00 0. -1.
         21    1    1    2  503  506 -0.13730568789E+02 -0.35989474442E+02  0.18982754208E+03  0.19369632553E+03  0.00000000000E+00 0.  1.
         21    1    1    2  504  502 -0.99437110900E+01 -0.32666872371E+02 -0.41733530116E+02  0.53922995806E+02  0.00000000000E+00 0.  1.
         21    1    1    2  505  501  0.40912290604E+02 -0.56483765355E+02  0.12231354068E+04  0.12251222203E+04  0.00000000000E+00 0.  1.
         21    1    1    2  506  504 -0.17238010725E+02  0.12514011217E+03 -0.26493865234E+02  0.12907021958E+03  0.00000000000E+00 0. -1.
<scales pt_clust_3="39.33624" pt_clust_4="34.14677" pt_clust_5="96.44284" pt_clust_6="14000.00000"></scales>
<clustering>
<clus scale="   34.147">  2  4  1 -1</clus>
<clus scale="   39.336">  1  3  2 -1</clus>
<clus scale="   96.443">  1  5  2 -1</clus>
<clus scale="   39.336">  1  3  2 -1</clus>
</clustering>
</event>
<event>
 6    0  0.3446372E+002  0.9887025E+02  0.7546771E-02  0.1282690E+00
         21   -1    0    0  504  501  0.00000000000E+00  0.00000000000E+00  0.16479177314E+03  0.16479177314E+03  0.00000000000E+00 0.  1.
         21   -1    0    0  505  502 -0.00000000000E+00 -0.00000000000E+00 -0.66693302923E+03  0.66693302923E+03  0.00000000000E+00 0.  1.
         21    1    1    2  503  506 -0.22467389547E+02  0.39041093378E+02 -0.12038041198E+03  0.12853184102E+03  0.00000000000E+00 0.  1.
         21    1    1    2  504  503  0.65683442709E+02 -0.60163200853E+02  0.13863734016E+03  0.16478542857E+03  0.00000000000E+00 0.  1.
         21    1    1    2  505  501 -0.49767106392E+02 -0.46748051223E+02 -0.21922356633E+03  0.22961079506E+03  0.00000000000E+00 0.  1.
         21    1    1    2  506  502  0.65510532309E+01  0.67870158698E+02 -0.30117461793E+03  0.30879673772E+03  0.00000000000E+00 0.  1.
<scales pt_clust_3="35.09387" pt_clust_4="88.94396" pt_clust_5="68.27990" pt_clust_6="35.09387"></scales>
<clustering>
<clus scale="   35.094">  3  6 -1 -1</clus>
<clus scale="   68.280">  2  5  1 -1</clus>
<clus scale="   88.944">  1  4  2 -1</clus>
<clus scale="   88.944">  1  3  2 -1</clus>
</clustering>
</event>
<event>
 6    0  0.3446372E+002  0.8402199E+02  0.7546771E-02  0.1318010E+00
         21   -1    0    0  503  501  0.00000000000E+00  0.00000000000E+00  0.12215314015E+03  0.12215314015E+03  0.00000000000E+00 0. -1.
         21   -1    0    0  505  502 -0.00000000000E+00 -0.00000000000E+00 -0.97615131385E+03  0.97615131385E+03  0.00000000000E+00 0.  1.
         21    1    1    2  503  502  0.12444723798E+03  0.23108985625E+02 -0.53117312987E+03  0.54604581690E+03  0.00000000000E+00 0.  1.
         21    1    1    2  504  506 -0.26934152247E+02 -0.54292731429E+02 -0.17334422322E+03  0.18363379037E+03  0.00000000000E+00 0.  1.
         21    1    1    2  505  504 -0.29926086036E+02 -0.18528578315E+02 -0.24152711360E+03  0.24407831826E+03  0.00000000000E+00 0. -1.
         21    1    1    2  506  501 -0.67586999699E+02  0.49712324120E+02  0.92046293001E+02  0.12454652847E+03  0.00000000000E+00 0. -1.
<scales pt_clust_3="84.02199" pt_clust_4="68.03367" pt_clust_5="35.19771" pt_clust_6="14000.00000"></scales>
<clustering>
<clus scale="   35.198">  2  5  1 -1</clus>
<clus scale="   68.034">  2  4  1 -1</clus>
<clus scale="   84.022">  2  3  1 -1</clus>
<clus scale="   84.022">  1  3  2 -1</clus>
</clustering>
</event>
<event>
 6    0  0.3446372E+002  0.2079925E+03  0.7546771E-02  0.1143166E+00
         21   -1    0    0  506  501  0.00000000000E+00  0.00000000000E+00  0.21952011157E+03  0.21952011157E+03  0.00000000000E+00 0. -1.
         21   -1    0    0  505  502 -0.00000000000E+00 -0.00000000000E+00 -0.47018605262E+03  0.47018605262E+03  0.00000000000E+00 0. -1.
         21    1    1    2  503  501 -0.11353790213E+03  0.37722864811E+02 -0.13668208757E+03  0.18164763366E+03  0.00000000000E+00 0. -1.
         21    1    1    2  504  502  0.15099909571E+03  0.12295151670E+02  0.25438814753E+02  0.15361976096E+03  0.00000000000E+00 0. -1.
         21    1    1    2  505  503 -0.91672169893E+02 -0.40357356371E+01 -0.22511579388E+03  0.24309914551E+03  0.00000000000E+00 0. -1.
         21    1    1    2  506  504  0.54210976309E+02 -0.45982280844E+02  0.85693125645E+02  0.11133962406E+03  0.00000000000E+00 0. -1.
<scales pt_clust_3="69.32489" pt_clust_4="192.34023" pt_clust_5="69.32489" pt_clust_6="71.08586"></scales>
<clustering>
<clus scale="   69.325">  3  5 -1 -1</clus>
<clus scale="   71.086">  1  6  2 -1</clus>
<clus scale="  192.340">  1  4  2 -1</clus>
<clus scale="   71.086">  1  3  2 -1</clus>
</clustering>
</event>
<event>
 6    0  0.3446372E+002  0.1572520E+03  0.7546771E-02  0.1191835E+00
         21   -1    0    0  504  501  0.00000000000E+00  0.00000000000E+00  0.88178096422E+03  0.88178096422E+03  0.00000000000E+00 0. -1.
         21   -1    0    0  506  502 -0.00000000000E+00 -0.00000000000E+00 -0.30023029913E+03  0.30023029913E+03  0.00000000000E+00 0. -1.
         21    1    1    2  503  501 -0.46965121495E+02  0.47738836348E+00  0.31058986302E+01  0.47070130051E+02  0.00000000000E+00 0. -1.
         21    1    1    2  504  502  0.16259517552E+03  0.18413400184E+01  0.82430444831E+03  0.84018950549E+03  0.00000000000E+00 0. -1.
         21    1    1    2  505  503 -0.29971031607E+02  0.32920415158E+02 -0.16644841321E+02  0.47529645616E+02  0.00000000000E+00 0. -1.
         21    1    1    2  506  505 -0.85659022420E+02 -0.35239143540E+02 -0.22921484053E+03  0.24722198219E+03  0.00000000000E+00 0. -1.
<scales pt_clust_3="40.50934" pt_clust_4="151.64745" pt_clust_5="40.50934" pt_clust_6="92.62432"></scales>
<clustering>
<clus scale="   40.509">  3  5 -1 -1</clus>
<clus scale="   92.624">  2  6  1 -1</clus>
<clus scale="  151.647">  1  4  2 -1</clus>
<clus scale="  151.647">  1  3  2 -1</clus>
</clustering>
</event>
<event>
 6    0  0.3446372E+002  0.8663629E+02  0.7546771E-02  0.1311208E+00
         21   -1    0    0  506  501  0.00000000000E+00  0.00000000000E+00  0.18495889043E+04  0.18495889043E+04  0.00000000000E+00 0. -1.
         21   -1    0    0  504  502 -0.00000000000E+00 -0.00000000000E+00 -0.42961113787E+02  0.42961113787E+02  0.00000000000E+00 0.  1.
         21    1    1    2  503  502  0.53305330857E+01 -0.32102451922E+02  0.11947269778E+02  0.34665822615E+02  0.00000000000E+00 0.  1.
         21    1    1    2  504  505 -0.10014398136E+03 -0.47849648349E+02  0.11001495855E+04  0.11057339265E+04  0.00000000000E+00 0. -1.
         21    1    1    2  505  501  0.15339326441E+02  0.39826016163E+02  0.65215555627E+03  0.65355051532E+03  0.00000000000E+00 0. -1.
         21    1    1    2  506  503  0.79474121832E+02  0.40126084108E+02  0.42375378953E+02  0.98599753592E+02  0.00000000000E+00 0.  1.
<scales pt_clust_3="32.54200" pt_clust_4="86.63629" pt_clust_5="42.06062" pt_clust_6="14000.00000"></scales>
<clustering>
<clus scale="   32.542">  2  3  1 -1</clus>
<clus scale="   42.061">  1  5  2 -1</clus>
<clus scale="   86.636">  1  4  2 -1</clus>
<clus scale="   42.061">  1  3  2 -1</clus>
</clustering>
</event>
<event>
 6    0  0.3446372E+002  0.1289318E+03  0.7546771E-02  0.1229049E+00
         21   -1    0    0  506  501  0.00000000000E+00  0.00000000000E+00  0.14183412190E+04  0.14183412190E+04  0.00000000000E+00 0.  1.
         21   -1    0    0  503  502 -0.00000000000E+00 -0.00000000000E+00 -0.20762735321E+03  0.20762735321E+03  0.00000000000E+00 0. -1.
         21    1    1    2  503  505 -0.66603600359E+02 -0.23272857605E+02 -0.27546966410E+02  0.75739691314E+02  0.00000000000E+00 0. -1.
         21    1    1    2  504  502 -0.29719321059E+02 -0.15762270637E+02 -0.13885601532E+03  0.14287295129E+03  0.00000000000E+00 0. -1.
         21    1    1    2  505  501  0.84131790100E+02  0.10362864313E+03  0.12964248331E+04  0.13032783286E+04  0.00000000000E+00 0.  1.
         21    1    1    2  506  504  0.12191131319E+02 -0.64593514892E+02  0.80692014424E+02  0.10407760105E+03  0.00000000000E+00 0.  1.
<scales pt_clust_3="128.93177" pt_clust_4="33.64056" pt_clust_5="14000.00000" pt_clust_6="67.71544"></scales>
<clustering>
<clus scale="   33.641">  2  4  1 -1</clus>
<clus scale="   67.715">  2  6  1 -1</clus>
<clus scale="  128.932">  2  3  1 -1</clus>
<clus scale="  128.932">  1  3  2 -1</clus>
</clustering>
</event>
<event>
 6    0  0.3446372E+002  0.5944883E+02  0.7546771E-02  0.1400159E+00
         21   -1    0    0  505  501  0.00000000000E+00  0.00000000000E+00  0.16794151931E+03  0.16794151931E+03  0.00000000000E+00 0. -1.
         21   -1    0    0  503  502 -0.00000000000E+00 -0.00000000000E+00 -0.11541290625E+04  0.11541290625E+04  0.00000000000E+00 0. -1.
         21    1    1    2  503  506 -0.46929716594E+01 -0.37047491496E+02 -0.96562270061E+02  0.10353169857E+03  0.00000000000E+00 0. -1.
         21    1    1    2  504  502 -0.51321466222E+02  0.32874238310E+02 -0.99623101519E+03  0.99809360486E+03  0.00000000000E+00 0. -1.
         21    1    1    2  505  504  0.10825623053E+03  0.20240345196E+02  0.11471426274E+02  0.11072793975E+03  0.00000000000E+00 0. -1.
         21    1    1    2  506  501 -0.52241792643E+02 -0.16067092010E+02  0.95134315810E+02  0.10971733860E+03  0.00000000000E+00 0. -1.
<scales pt_clust_3="37.34355" pt_clust_4="14000.00000" pt_clust_5="59.44883" pt_clust_6="54.76358"></scales>
<clustering>
<clus scale="   37.344">  2  3  1 -1</clus>
<clus scale="   54.764">  1  6  2 -1</clus>
<clus scale="   59.449">  1  5  2 -1</clus>
<clus scale="   54.764">  1  3  2 -1</clus>
</clustering>
</event>
<event>
 6    0  0.3446372E+002  0.2118570E+03  0.7546771E-02  0.1140104E+00
         21   -1    0    0  504  501  0.00000000000E+00  0.00000000000E+00  0.11079190548E+04  0.11079190548E+04  0.00000000000E+00 0. -1.
         21   -1    0    0  506  502 -0.00000000000E+00 -0.00000000000E+00 -0.39584742619E+03  0.39584742619E+03  0.00000000000E+00 0. -1.
         21    1    1    2  503  501  0.23358748665E+02  0.20516105163E+02  0.50358544534E+02  0.59182131745E+02  0.00000000000E+00 0.  1.
         21    1    1    2  504  505 -0.42230578132E+02  0.10425254805E+03  0.78055762620E+03  0.78862045581E+03  0.00000000000E+00 0. -1.
         21    1    1    2  505  502 -0.18026354076E+03 -0.30033970284E+02  0.19831303304E+03  0.26967581014E+03  0.00000000000E+00 0. -1.
         21    1    1    2  506  503  0.19913537023E+03 -0.94734682925E+02 -0.31715757515E+03  0.38628808330E+03  0.00000000000E+00 0. -1.
<scales pt_clust_3="31.08925" pt_clust_4="122.08819" pt_clust_5="14000.00000" pt_clust_6="211.85696"></scales>
<clustering>
<clus scale="   31.089">  1  3  2 -1</clus>
<clus scale="  122.088">  1  4  2 -1</clus>
<clus scale="  211.857">  2  6  1 -1</clus>
<clus scale="   31.089">  1  3  2 -1</clus>
</clustering>
</event>
<event>
 6    0  0.3446372E+002  0.8949430E+02  0.7546771E-02  0.1304081E+00
         21   -1    0    0  504  501  0.00000000000E+00  0.00000000000E+00  0.22840862202E+03  0.22840862202E+03  0.00000000000E+00 0.  1.
         21   -1    0    0  501  502 -0.00000000000E+00 -0.00000000000E+00 -0.11144074315E+03  0.11144074315E+03  0.00000000000E+00 0.  1.
         21    1    1    2  503  506  0.76274940584E+02 -0.21430938402E+02 -0.22865174963E+02  0.82461917926E+02  0.00000000000E+00 0.  1.
         21    1    1    2  504  505 -0.33086830595E+02 -0.32524430369E+02  0.51161231446E+02  0.69065537953E+02  0.00000000000E+00 0.  1.
         21    1    1    2  505  503 -0.52756551776E+02  0.83870061160E+02  0.11174753453E+03  0.14934842613E+03  0.00000000000E+00 0.  1.
         21    1    1    2  506  502  0.95684417865E+01 -0.29914692389E+02 -0.23075712147E+02  0.38973483165E+02  0.00000000000E+00 0. -1.
<scales pt_clust_3="14000.00000" pt_clust_4="48.07223" pt_clust_5="89.49430" pt_clust_6="31.40770"></scales>
<clustering>
<clus scale="   31.408">  2  6  1 -1</clus>
<clus scale="   48.072">  1  4  2 -1</clus>
<clus scale="   89.494">  1  5  2 -1</clus>
<clus scale="   48.072">  1  3  2 -1</clus>
</clustering>
</event>
<event>
 6    0  0.3446372E+002  0.1116249E+03  0.7546771E-02  0.1257590E+00
         21   -1    0    0  506  501  0.00000000000E+00  0.00000000000E+00  0.16163474825E+03  0.16163474825E+03  0.00000000000E+00 0. -1.
         21   -1    0    0  504  502 -0.00000000000E+00 -0.00000000000E+00 -0.53718031559E+03  0.53718031559E+03  0.00000000000E+00 0. -1.
         21    1    1    2  503  501 -0.23641634227E+02  0.29573626625E+02  0.82606425450E+01  0.38752606053E+02  0.00000000000E+00 0.  1.
         21    1    1    2  504  503 -0.85647189747E+02  0.49367961190E+02 -0.20108131962E+03  0.22406769915E+03  0.00000000000E+00 0. -1.
         21    1    1    2  505  502  0.14775893173E+03  0.15885011819E+02 -0.26557535702E+03  0.30432762898E+03  0.00000000000E+00 0. -1.
         21    1    1    2  506  505 -0.38470107752E+02 -0.94826599633E+02  0.82850466763E+02  0.13166712965E+03  0.00000000000E+00 0. -1.
<scales pt_clust_3="37.86194" pt_clust_4="14000.00000" pt_clust_5="111.62488" pt_clust_6="91.61671"></scales>
<clustering>
<clus scale="   37.862">  1  3  2 -1</clus>
<clus scale="   91.617">  1  6  2 -1</clus>
<clus scale="  111.625">  1  5  2 -1</clus>
<clus scale="   37.862">  1  3  2 -1</clus>
</clustering>
</event>
<event>
 6    0  0.3446372E+002  0.1199053E+03  0.7546771E-02  0.1243253E+00
         21   -1    0    0  505  501  0.00000000000E+00  0.00000000000E+00  0.76008222366E+03  0.76008222366E+03  0.00000000000E+00 0.  1.
         21   -1    0    0  504  502 -0.00000000000E+00 -0.00000000000E+00 -0.43990779103E+03  0.43990779103E+03  0.00000000000E+00 0. -1.
         21    1    1    2  503  502 -0.41471644158E+02  0.10699437296E+02 -0.23567957586E+03  0.23953963702E+03  0.00000000000E+00 0. -1.
         21    1    1    2  504  501 -0.68368506706E+01 -0.54036922854E+02  0.10607200871E+03  0.11923926614E+03  0.00000000000E+00 0. -1.
         21    1    1    2  505  506  0.10600733575E+03 -0.18698718560E+02  0.63155569304E+03  0.64066355501E+03  0.00000000000E+00 0.  1.
         21    1    1    2  506  503 -0.57698840920E+02  0.62036204118E+02 -0.18177369326E+03  0.20054755652E+03  0.00000000000E+00 0. -1.
<scales pt_clust_3="42.82961" pt_clust_4="54.30928" pt_clust_5="14000.00000" pt_clust_6="119.90532"></scales>
<clustering>
<clus scale="   42.830">  2  3  1 -1</clus>
<clus scale="   54.309">  1  4  2 -1</clus>
<clus scale="  119.905">  2  6  1 -1</clus>
<clus scale="   54.309">  1  3  2 -1</clus>
</clustering>
</event>
<event>
 6    0  0.3446372E+002  0.1186622E+03  0.7546771E-02  0.1245320E+00
         21   -1    0    0  504  501  0.00000000000E+00  0.00000000000E+00  0.13704036214E+03  0.13704036214E+03  0.00000000000E+00 0. -1.
         21   -1    0    0  505  502 -0.00000000000E+00 -0.00000000000E+00 -0.17757628677E+04  0.17757628677E+04  0.00000000000E+00 0. -1.
         21    1    1    2  503  502 -0.78653763671E+02 -0.11562281489E+02 -0.13120441779E+04  0.13144504653E+04  0.00000000000E+00 0. -1.
         21    1    1    2  504  506 -0.75364352721E+02  0.75766291395E+02  0.23176374492E+02  0.10935017562E+03  0.00000000000E+00 0. -1.
         21    1    1    2  505  501  0.23977252694E+02  0.30385295051E+02  0.46953183717E+02  0.60850441767E+02  0.00000000000E+00 0. -1.
         21    1    1    2  506  503  0.13004086370E+03 -0.94589304957E+02 -0.39680788589E+03  0.42815214719E+03  0.00000000000E+00 0.  1.
<scales pt_clust_3="79.09275" pt_clust_4="14000.00000" pt_clust_5="38.70626" pt_clust_6="118.66220"></scales>
<clustering>
<clus scale="   38.706">  1  5  2 -1</clus>
<clus scale="   79.093">  2  3  1 -1</clus>
<clus scale="  118.662">  2  6  1 -1</clus>
<clus scale="   38.706">  1  3  2 -1</clus>
</clustering>
</event>
<event>
 6    0  0.3446372E+002  0.9109000E+02  0.7546771E-02  0.1300233E+00
         21   -1    0    0  503  501  0.00000000000E+00  0.00000000000E+00  0.16816780002E+03  0.16816780002E+03  0.00000000000E+00 0.  1.
         21   -1    0    0  505  502 -0.00000000000E+00 -0.00000000000E+00 -0.13330082278E+04  0.13330082278E+04  0.00000000000E+00 0.  1.
         21    1    1    2  503  506 -0.90851846693E+02  0.11601549531E+02  0.13776246203E+03  0.16543019659E+03  0.00000000000E+00 0.  1.
         21    1    1    2  504  502 -0.21419669193E+02  0.34443026204E+02 -0.82078423888E+03  0.82178579392E+03  0.00000000000E+00 0.  1.
         21    1    1    2  505  501  0.71509719157E+02 -0.27792489390E+02 -0.45592497655E+03  0.46233499396E+03  0.00000000000E+00 0. -1.
         21    1    1    2  506  504  0.40761796729E+02 -0.18252086345E+02 -0.25893674374E+02  0.51625043352E+02  0.00000000000E+00 0. -1.
<scales pt_clust_3="14000.00000" pt_clust_4="40.56013" pt_clust_5="91.09000" pt_clust_6="42.14980"></scales>
<clustering>
<clus scale="   40.560">  2  4  1 -1</clus>
<clus scale="   42.150">  2  6  1 -1</clus>
<clus scale="   91.090">  2  5  1 -1</clus>
<clus scale="   91.090">  1  3  2 -1</clus>
</clustering>
</event>
<event>
 6    0  0.3446372E+002  0.9809855E+02  0.7546771E-02  0.1284346E+00
         21   -1    0    0  504  501  0.00000000000E+00  0.00000000000E+00  0.15222090907E+04  0.15222090907E+04  0.00000000000E+00 0. -1.
         21   -1    0    0  505  502 -0.00000000000E+00 -0.00000000000E+00 -0.10534964358E+03  0.10534964358E+03  0.00000000000E+00 0.  1.
         21    1    1    2  503  501  0.75048861360E+02  0.64573182413E+01  0.50321122338E+03  0.50881781011E+03  0.00000000000E+00 0. -1.
         21    1    1    2  504  502  0.38689255300E+02 -0.33537122021E+02  0.92476970039E+03  0.92618604815E+03  0.00000000000E+00 0. -1.
         21    1    1    2  505  506 -0.57129810236E+02 -0.35020064170E+02 -0.64497708678E+02  0.93006314499E+02  0.00000000000E+00 0.  1.
         21    1    1    2  506  503 -0.56608306424E+02  0.62099867950E+02  0.53376232020E+02  0.99548561518E+02  0.00000000000E+00 0.  1.
<scales pt_clust_3="14000.00000" pt_clust_4="51.20153" pt_clust_5="66.65005" pt_clust_6="98.09855"></scales>
<clustering>
<clus scale="   51.202">  1  4  2 -1</clus>
<clus scale="   66.650">  2  5  1 -1</clus>
<clus scale="   98.099">  2  6  1 -1</clus>
<clus scale="   51.202">  1  3  2 -1</clus>
</clustering>
</event>
<event>
 6    0  0.3446372E+002  0.1448257E+03  0.7546771E-02  0.1206979E+00
         21   -1    0    0  502  501  0.00000000000E+00  0.00000000000E+00  0.61446177185E+03  0.61446177185E+03  0.00000000000E+00 0. -1.
         21   -1    0    0  506  502 -0.00000000000E+00 -0.00000000000E+00 -0.17833800587E+03  0.17833800587E+03  0.00000000000E+00 0. -1.
         21    1    1    2  503  501  0.12082501915E+03 -0.68595598723E+02  0.55516333136E+03  0.57228521377E+03  0.00000000000E+00 0. -1.
         21    1    1    2  504  505 -0.53034507742E+02  0.25478640060E+02 -0.42601525765E+02  0.72640967148E+02  0.00000000000E+00 0. -1.
         21    1    1    2  505  503 -0.61223001327E+02  0.72672751994E+01  0.16757610021E+01  0.61675581515E+02  0.00000000000E+00 0. -1.
         21    1    1    2  506  504 -0.65675100811E+01  0.35849683464E+02 -0.78113800615E+02  0.86198015288E+02  0.00000000000E+00 0.  1.
<scales pt_clust_3="136.87784" pt_clust_4="44.70747" pt_clust_5="44.70747" pt_clust_6="36.44629"></scales>
<clustering>
<clus scale="   36.446">  2  6  1 -1</clus>
<clus scale="   44.707">  4  5 -1 -1</clus>
<clus scale="  136.878">  1  3  2 -1</clus>
<clus scale="  136.878">  1  3  2 -1</clus>
</clustering>
</event>
<event>
 6    0  0.3446372E+002  0.8235268E+02  0.7546771E-02  0.1322504E+00
         21   -1    0    0  506  501  0.00000000000E+00  0.00000000000E+00  0.34815974122E+03  0.34815974122E+03  0.00000000000E+00 0.  1.
         21   -1    0    0  501  502 -0.00000000000E+00 -0.00000000000E+00 -0.23764066244E+03  0.23764066244E+03  0.00000000000E+00 0.  1.
         21    1    1    2  503  505 -0.94699708778E+02 -0.49820100654E+02  0.46703431271E+02  0.11675310602E+03  0.00000000000E+00 0.  1.
         21    1    1    2  504  502 -0.22989963931E+02  0.21146884945E+02 -0.62370354596E+02  0.69755217130E+02  0.00000000000E+00 0.  1.
         21    1    1    2  505  504  0.89219723501E+02  0.14208219518E+02 -0.12046725909E+03  0.15058018819E+03  0.00000000000E+00 0.  1.
         21    1    1    2  506  503  0.28469949208E+02  0.14464996191E+02  0.24665326120E+03  0.24871189232E+03  0.00000000000E+00 0.  1.
<scales pt_clust_3="82.35268" pt_clust_4="31.23666" pt_clust_5="14000.00000" pt_clust_6="31.86889"></scales>
<clustering>
<clus scale="   31.237">  2  4  1 -1</clus>
<clus scale="   31.869">  1  6  2 -1</clus>
<clus scale="   82.353">  1  3  2 -1</clus>
<clus scale="   31.869">  1  3  2 -1</clus>
</clustering>
</event>
<event>
 6    0  0.3446372E+002  0.9649391E+02  0.7546771E-02  0.1287846E+00
         21   -1    0    0  505  501  0.00000000000E+00  0.00000000000E+00  0.31912010765E+03  0.31912010765E+03  0.00000000000E+00 0. -1.
         21   -1    0    0  503  502 -0.00000000000E+00 -0.00000000000E+00 -0.25326814185E+04  0.25326814185E+04  0.00000000000E+00 0.  1.
         21    1    1    2  503  501 -0.68742708800E+02  0.36941234768E+02 -0.18649583030E+04  0.18665903907E+04  0.00000000000E+00 0.  1.
         21    1    1    2  504  502  0.63653368620E+02  0.50793842536E+02 -0.62093547999E+03  0.62625285316E+03  0.00000000000E+00 0. -1.
         21    1    1    2  505  506  0.96938992596E+02 -0.37362143847E+02  0.21676936668E+03  0.24037898496E+03  0.00000000000E+00 0. -1.
         21    1    1    2  506  504 -0.91849652415E+02 -0.50372933458E+02  0.55563105421E+02  0.11857929734E+03  0.00000000000E+00 0.  1.
<scales pt_clust_3="78.03983" pt_clust_4="85.33818" pt_clust_5="96.49391" pt_clust_6="14000.00000"></scales>
<clustering>
<clus scale="   78.040">  2  3  1 -1</clus>
<clus scale="   85.338">  2  4  1 -1</clus>
<clus scale="   96.494">  1  5  2 -1</clus>
<clus scale="   96.494">  1  3  2 -1</clus>
</clustering>
</event>
<event>
 6    0  0.3446372E+002  0.1780817E+03  0.7546771E-02  0.1169673E+00
         21   -1    0    0  503  501  0.00000000000E+00  0.00000000000E+00  0.19347338494E+04  0.19347338494E+04  0.00000000000E+00 0. -1.
         21   -1    0    0  504  502 -0.00000000000E+00 -0.00000000000E+00 -0.22102632458E+03  0.22102632458E+03  0.00000000000E+00 0.  1.
         21    1    1    2  503  505  0.29059487349E+02  0.24943948819E+02  0.34977522032E+03  0.35186554127E+03  0.00000000000E+00 0. -1.
         21    1    1    2  504  506 -0.14163537482E+03  0.48062667742E+02 -0.78207763882E+02  0.16878108236E+03  0.00000000000E+00 0.  1.
         21    1    1    2  505  502  0.36077852248E+01  0.68054018704E+02 -0.78561359440E+02  0.10400121525E+03  0.00000000000E+00 0.  1.
         21    1    1    2  506  501  0.10896810225E+03 -0.14106063527E+03  0.15207014278E+04  0.15311123351E+04  0.00000000000E+00 0. -1.
<scales pt_clust_3="38.29692" pt_clust_4="178.08172" pt_clust_5="68.36233" pt_clust_6="14000.00000"></scales>
<clustering>
<clus scale="   38.297">  1  3  2 -1</clus>
<clus scale="   68.362">  2  5  1 -1</clus>
<clus scale="  178.082">  2  4  1 -1</clus>
<clus scale="   38.297">  1  3  2 -1</clus>
</clustering>
</event>
<event>
 6    0  0.3446372E+002  0.1432766E+03  0.7546771E-02  0.1208987E+00
         21   -1    0    0  503  501  0.00000000000E+00  0.00000000000E+00  0.48064397851E+03  0.48064397851E+03  0.00000000000E+00 0. -1.
         21   -1    0    0  505  502 -0.00000000000E+00 -0.00000000000E+00 -0.10191457035E+03  0.10191457035E+03  0.00000000000E+00 0. -1.
         21    1    1    2  503  502  0.11956043449E+02  0.44371590412E+02  0.55079669797E+02  0.71732524252E+02  0.00000000000E+00 0. -1.
         21    1    1    2  504  506  0.44600963376E+02 -0.81586738632E+02 -0.30201490015E+02  0.97763857605E+02  0.00000000000E+00 0. -1.
         21    1    1    2  505  504  0.11008797642E+02 -0.49976594856E+02  0.10252660929E+02  0.52191672851E+02  0.00000000000E+00 0.  1.
         21    1    1    2  506  501 -0.67565804468E+02  0.87191743076E+02  0.34359856745E+03  0.36087049415E+03  0.00000000000E+00 0. -1.
<scales pt_clust_3="45.95416" pt_clust_4="30.47411" pt_clust_5="30.47411" pt_clust_6="137.26189"></scales>
<clustering>
<clus scale="   30.474">  4  5 -1 -1</clus>
<clus scale="   45.954">  1  3  2 -1</clus>
<clus scale="  137.262">  1  6  2 -1</clus>
<clus scale="   45.954">  1  3  2 -1</clus>
</clustering>
</event>
<event>
 6    0  0.3446372E+002  0.7628125E+02  0.7546771E-02  0.1339949E+00
         21   -1    0    0  505  501  0.00000000000E+00  0.00000000000E+00  0.47563897773E+03  0.47563897773E+03  0.00000000000E+00 0.  1.
         21   -1    0    0  506  502 -0.00000000000E+00 -0.00000000000E+00 -0.12002880341E+04  0.12002880341E+04  0.00000000000E+00 0.  1.
         21    1    1    2  503  504  0.49934120482E+02  0.59381052457E+02 -0.75998275743E+02  0.10860600211E+03  0.00000000000E+00 0.  1.
         21    1    1    2  504  502 -0.75519593126E+02 -0.16971410572E+02 -0.10980809769E+04  0.11008056456E+04  0.00000000000E+00 0.  1.
         21    1    1    2  505  503 -0.15032011774E+02  0.34693549132E+02  0.14627868774E+03  0.15108626085E+03  0.00000000000E+00 0.  1.
         21    1    1    2  506  501  0.40617484417E+02 -0.77103191018E+02  0.30315150846E+03  0.31542910327E+03  0.00000000000E+00 0.  1.
<scales pt_clust_3="14000.00000" pt_clust_4="76.28125" pt_clust_5="37.81010" pt_clust_6="51.55511"></scales>
<clustering>
<clus scale="   37.810">  1  5  2 -1</clus>
<clus scale="   51.555">  1  6  2 -1</clus>
<clus scale="   76.281">  2  4  1 -1</clus>
<clus scale="   37.810">  1  3  2 -1</clus>
</clustering>
</event>
<event>
 6    0  0.3446372E+002  0.1884747E+03  0.7546771E-02  0.1159844E+00
         21   -1    0    0  504  501  0.00000000000E+00  0.00000000000E+00  0.18832849215E+03  0.18832849215E+03  0.00000000000E+00 0.  1.
         21   -1    0    0  505  502 -0.00000000000E+00 -0.00000000000E+00 -0.16228428386E+04  0.16228428386E+04  0.00000000000E+00 0. -1.
         21    1    1    2  503  506 -0.45995180797E+02 -0.28361326730E+02 -0.29484698603E+03  0.29975767994E+03  0.00000000000E+00 0.  1.
         21    1    1    2  504  502  0.35553483848E+02 -0.19836435981E+02 -0.25888000291E+03  0.26206180628E+03  0.00000000000E+00 0. -1.
         21    1    1    2  505  503 -0.53004436381E+02 -0.11977943065E+03 -0.10161051358E+04  0.10245126789E+04  0.00000000000E+00 0. -1.
         21    1    1    2  506  501  0.63446133330E+02  0.16797719336E+03  0.13531777821E+03  0.22483916568E+03  0.00000000000E+00 0.  1.
<scales pt_clust_3="37.17506" pt_clust_4="40.71283" pt_clust_5="37.17506" pt_clust_6="179.36781"></scales>
<clustering>
<clus scale="   37.175">  3  5 -1 -1</clus>
<clus scale="   40.713">  2  4  1 -1</clus>
<clus scale="  179.368">  1  6  2 -1</clus>
<clus scale="  179.368">  1  3  2 -1</clus>
</clustering>
</event>
<event>
 6    0  0.3446372E+002  0.1545059E+03  0.7546771E-02  0.1195043E+00
         21   -1    0    0  506  501  0.00000000000E+00  0.00000000000E+00  0.25217358564E+03  0.25217358564E+03  0.00000000000E+00 0.  1.
         21   -1    0    0  503  502 -0.00000000000E+00 -0.00000000000E+00 -0.38847510258E+03  0.38847510258E+03  0.00000000000E+00 0. -1.
         21    1    1    2  503  504 -0.44915120371E+02  0.16559350428E+02 -0.11340798617E+03  0.12309732512E+03  0.00000000000E+00 0. -1.
         21    1    1    2  504  505 -0.69495635512E+02 -0.16320294356E+03  0.15584969044E+03  0.23612278618E+03  0.00000000000E+00 0.  1.
         21    1    1    2  505  501  0.23091964476E+02  0.19592027266E+02  0.13840328753E+02  0.33296261889E+02  0.00000000000E+00 0. -1.
         21    1    1    2  506  502  0.91318791408E+02  0.12705156587E+03 -0.19258354996E+03  0.24813231504E+03  0.00000000000E+00 0. -1.
<scales pt_clust_3="47.55820" pt_clust_4="14000.00000" pt_clust_5="30.28343" pt_clust_6="154.50587"></scales>
<clustering>
<clus scale="   30.283">  1  5  2 -1</clus>
<clus scale="   47.558">  2  3  1 -1</clus>
<clus scale="  154.506">  2  6  1 -1</clus>
<clus scale="   30.283">  1  3  2 -1</clus>
</clustering>
</event>
<event>
 6    0  0.3446372E+002  0.1242468E+03  0.7546771E-02  0.1236251E+00
         21   -1    0    0  506  501  0.00000000000E+00  0.00000000000E+00  0.63972821649E+03  0.63972821649E+03  0.00000000000E+00 0. -1.
         21   -1    0    0  505  502 -0.00000000000E+00 -0.00000000000E+00 -0.53456521169E+03  0.53456521169E+03  0.00000000000E+00 0. -1.
         21    1    1    2  503  501  0.25328725064E+02  0.56921392217E+02  0.30856985875E+03  0.31479667554E+03  0.00000000000E+00 0.  1.
         21    1    1    2  504  503 -0.19742734244E+02  0.57822917549E+02  0.27577566547E+03  0.28246324188E+03  0.00000000000E+00 0. -1.
         21    1    1    2  505  504  0.64462300209E+02  0.53750423809E+02 -0.25015921099E+02  0.87580206190E+02  0.00000000000E+00 0. -1.
         21    1    1    2  506  502 -0.70048291029E+02 -0.16849473358E+03 -0.45416659832E+03  0.48945330456E+03  0.00000000000E+00 0. -1.
<scales pt_clust_3="44.97190" pt_clust_4="44.97190" pt_clust_5="83.93150" pt_clust_6="115.65036"></scales>
<clustering>
<clus scale="   44.972">  3  4 -1 -1</clus>
<clus scale="   83.931">  2  5  1 -1</clus>
<clus scale="  115.650">  2  6  1 -1</clus>
<clus scale="  124.247">  1  3  2 -1</clus>
</clustering>
</event>
<event>
 6    0  0.3446372E+002  0.1389422E+03  0.7546771E-02  0.1214759E+00
         21   -1    0    0  504  501  0.00000000000E+00  0.00000000000E+00  0.13570660120E+03  0.13570660120E+03  0.00000000000E+00 0.  1.
         21   -1    0    0  503  502 -0.00000000000E+00 -0.00000000000E+00 -0.57052103962E+03  0.57052103962E+03  0.00000000000E+00 0.  1.
         21    1    1    2  503  505 -0.21078134705E+02 -0.45367484268E+02 -0.13496527042E+03  0.14393790540E+03  0.00000000000E+00 0. -1.
         21    1    1    2  504  506 -0.87690550713E+02  0.51844181220E+02 -0.47332634677E+00  0.10187087831E+03  0.00000000000E+00 0.  1.
         21    1    1    2  505  501  0.17582602164E+02  0.10201293224E+03  0.24949471963E+02  0.10648127720E+03  0.00000000000E+00 0.  1.
         21    1    1    2  506  502  0.91186083254E+02 -0.10848962919E+03 -0.32432531361E+03  0.35393757990E+03  0.00000000000E+00 0.  1.
<scales pt_clust_3="50.02496" pt_clust_4="138.94217" pt_clust_5="98.95820" pt_clust_6="14000.00000"></scales>
<clustering>
<clus scale="   50.025">  2  3  1 -1</clus>
<clus scale="   98.958">  1  5  2 -1</clus>
<clus scale="  138.942">  1  4  2 -1</clus>
<clus scale="   98.958">  1  3  2 -1</clus>
</clustering>
</event>
<event>
 6    0  0.3446372E+002  0.1213510E+03  0.7546771E-02  0.1240885E+00
         21   -1    0    0  506  501  0.00000000000E+00  0.00000000000E+00  0.11073117599E+04  0.11073117599E+04  0.00000000000E+00 0.  1.
         21   -1    0    0  501  502 -0.00000000000E+00 -0.00000000000E+00 -0.14637369064E+03  0.14637369064E+03  0.00000000000E+00 0.  1.
         21    1    1    2  503  505  0.43693596897E+02  0.59007123805E+02  0.42765401042E+03  0.43391119333E+03  0.00000000000E+00 0. -1.
         21    1    1    2  504  503 -0.50040576718E+01  0.53922205702E+02  0.57958937259E+03  0.58211380819E+03  0.00000000000E+00 0.  1.
         21    1    1    2  505  502  0.12441495572E+02 -0.10509455403E+03 -0.11197034172E+03  0.15406821062E+03  0.00000000000E+00 0.  1.
         21    1    1    2  506  504 -0.51131034797E+02 -0.78347754775E+01  0.65665028011E+02  0.83592238455E+02  0.00000000000E+00 0.  1.
<scales pt_clust_3="50.93600" pt_clust_4="50.93600" pt_clust_5="105.86974" pt_clust_6="51.72781"></scales>
<clustering>
<clus scale="   50.936">  3  4 -1 -1</clus>
<clus scale="   51.728">  1  6  2 -1</clus>
<clus scale="  105.870">  2  5  1 -1</clus>
<clus scale="   51.728">  1  3  2 -1</clus>
</clustering>
</event>
<event>
 6    0  0.3446372E+002  0.1218028E+03  0.7546771E-02  0.1240152E+00
         21   -1    0    0  506  501  0.00000000000E+00  0.00000000000E+00  0.31689242861E+03  0.31689242861E+03  0.00000000000E+00 0.  1.
         21   -1    0    0  504  502 -0.00000000000E+00 -0.00000000000E+00 -0.14699026721E+04  0.14699026721E+04  0.00000000000E+00 0.  1.
         21    1    1    2  503  502 -0.32088065131E+02  0.25217823630E+01 -0.86350367357E+03  0.86410334890E+03  0.00000000000E+00 0.  1.
         21    1    1    2  504  505  0.18554575548E+03  0.39788925137E+02  0.60296911972E+01  0.18985979858E+03  0.00000000000E+00 0.  1.
         21    1    1    2  505  501 -0.11095048199E+03 -0.10104885145E+02  0.20294069109E+03  0.23151035022E+03  0.00000000000E+00 0.  1.
         21    1    1    2  506  503 -0.42507208367E+02 -0.32205822356E+02 -0.49847695225E+03  0.50132160305E+03  0.00000000000E+00 0.  1.
<scales pt_clust_3="32.18701" pt_clust_4="121.80280" pt_clust_5="14000.00000" pt_clust_6="75.26502"></scales>
<clustering>
<clus scale="   32.187">  2  3  1 -1</clus>
<clus scale="   75.265">  2  6  1 -1</clus>
<clus scale="  121.803">  2  4  1 -1</clus>
<clus scale="  121.803">  1  3  2 -1</clus>
</clustering>
</event>
<event>
 6    0  0.3446372E+002  0.7707668E+02  0.7546771E-02  0.1337558E+00
         21   -1    0    0  505  501  0.00000000000E+00  0.00000000000E+00  0.77619741591E+03  0.77619741591E+03  0.00000000000E+00 0.  1.
         21   -1    0    0  504  502 -0.00000000000E+00 -0.00000000000E+00 -0.50351617730E+02  0.50351617730E+02  0.00000000000E+00 0.  1.
         21    1    1    2  503  501 -0.75007631539E+02  0.15798393062E+02  0.55574078885E+03  0.56100228021E+03  0.00000000000E+00 0.  1.
         21    1    1    2  504  503  0.50393651166E+01 -0.71618280612E+02  0.38943576057E+02  0.81677263879E+02  0.00000000000E+00 0.  1.
         21    1    1    2  505  506  0.84131582642E+02  0.20432481589E+02  0.11093071341E+03  0.14071685286E+03  0.00000000000E+00 0.  1.
         21    1    1    2  506  502 -0.14163316220E+02  0.35387405961E+02  0.20230719867E+02  0.43152636690E+02  0.00000000000E+00 0.  1.
<scales pt_clust_3="77.07668" pt_clust_4="52.24816" pt_clust_5="14000.00000" pt_clust_6="38.11651"></scales>
<clustering>
<clus scale="   38.117">  2  6  1 -1</clus>
<clus scale="   52.248">  2  4  1 -1</clus>
<clus scale="   77.077">  1  3  2 -1</clus>
<clus scale="   77.077">  1  3  2 -1</clus>
</clustering>
</event>
<event>
 6    0  0.3446372E+002  0.1002357E+03  0.7546771E-02  0.1279801E+00
         21   -1    0    0  504  501  0.00000000000E+00  0.00000000000E+00  0.23208354835E+03  0.23208354835E+03  0.00000000000E+00 0. -1.
         21   -1    0    0  501  502 -0.00000000000E+00 -0.00000000000E+00 -0.17554352369E+03  0.17554352369E+03  0.00000000000E+00 0. -1.
         21    1    1    2  503  505  0.61602146033E+02  0.51012000964E+02 -0.21269972898E+02  0.82761466790E+02  0.00000000000E+00 0. -1.
         21    1    1    2  504  503 -0.44774509909E+02 -0.46195579384E+02  0.14170422172E+03  0.15562414577E+03  0.00000000000E+00 0. -1.
         21    1    1    2  505  506  0.60028333639E+02  0.20265967902E+02  0.42618503966E+01  0.63500186325E+02  0.00000000000E+00 0. -1.
         21    1    1    2  506  502 -0.76855969763E+02 -0.25082389482E+02 -0.68156074555E+02  0.10574127316E+03  0.00000000000E+00 0. -1.
<scales pt_clust_3="31.19755" pt_clust_4="64.33342" pt_clust_5="31.19755" pt_clust_6="93.90699"></scales>
<clustering>
<clus scale="   31.198">  3  5 -1 -1</clus>
<clus scale="   64.333">  1  4  2 -1</clus>
<clus scale="   93.907">  2  6  1 -1</clus>
<clus scale="   64.333">  1  3  2 -1</clus>
</clustering>
</event>
<event>
 6    0  0.3446372E+002  0.7431508E+02  0.7546771E-02  0.1346005E+00
         21   -1    0    0  504  501  0.00000000000E+00  0.00000000000E+00  0.16202733342E+03  0.16202733342E+03  0.00000000000E+00 0.  1.
         21   -1    0    0  503  502 -0.00000000000E+00 -0.00000000000E+00 -0.54347589027E+03  0.54347589027E+03  0.00000000000E+00 0.  1.
         21    1    1    2  503  506 -0.28376346421E+02 -0.26378660750E+02 -0.14421975498E+03  0.14933314604E+03  0.00000000000E+00 0.  1.
         21    1    1    2  504  505  0.57633773721E+02 -0.42610743147E+02  0.11987220707E+03  0.13966629276E+03  0.00000000000E+00 0.  1.
         21    1    1    2  505  502  0.50333931931E+02 -0.47821171469E+02 -0.15541310519E+03  0.17021634002E+03  0.00000000000E+00 0.  1.
         21    1    1    2  506  501 -0.79591359231E+02  0.11681057537E+03 -0.20168790376E+03  0.24628744488E+03  0.00000000000E+00 0.  1.
<scales pt_clust_3="38.74340" pt_clust_4="74.31508" pt_clust_5="70.25860" pt_clust_6="14000.00000"></scales>
<clustering>
<clus scale="   38.743">  2  3  1 -1</clus>
<clus scale="   70.259">  2  5  1 -1</clus>
<clus scale="   74.315">  1  4  2 -1</clus>
<clus scale="   74.315">  1  3  2 -1</clus>
</clustering>
</event>
<event>
 6    0  0.3446372E+002  0.1239206E+03  0.7546771E-02  0.1236766E+00
         21   -1    0    0  502  501  0.00000000000E+00  0.00000000000E+00  0.11559762317E+03  0.11559762317E+03  0.00000000000E+00 0. -1.
         21   -1    0    0  504  502 -0.00000000000E+00 -0.00000000000E+00 -0.61067178022E+03  0.61067178022E+03  0.00000000000E+00 0. -1.
         21    1    1    2  503  505  0.43129947543E+02 -0.38503620481E+01 -0.21737730572E+03  0.22164816874E+03  0.00000000000E+00 0. -1.
         21    1    1    2  504  503  0.22138899891E+02 -0.77790147672E+02 -0.13692101874E+03  0.15902453690E+03  0.00000000000E+00 0. -1.
         21    1    1    2  505  506  0.45618288811E+02  0.44104512121E+02 -0.20323416258E+03  0.21290927904E+03  0.00000000000E+00 0. -1.
         21    1    1    2  506  501 -0.11088713625E+03  0.37535997599E+02  0.62458329983E+02  0.13268741871E+03  0.00000000000E+00 0. -1.
<scales pt_clust_3="40.71805" pt_clust_4="80.87916" pt_clust_5="40.71805" pt_clust_6="113.69600"></scales>
<clustering>
<clus scale="   40.718">  3  5 -1 -1</clus>
<clus scale="   80.879">  2  4  1 -1</clus>
<clus scale="  113.696">  1  6  2 -1</clus>
<clus scale="  113.696">  1  3  2 -1</clus>
</clustering>
</event>
<event>
 6    0  0.3446372E+002  0.1232742E+03  0.7546771E-02  0.1237791E+00
         21   -1    0    0  506  501  0.00000000000E+00  0.00000000000E+00  0.12810526077E+03  0.12810526077E+03  0.00000000000E+00 0.  1.
         21   -1    0    0  504  502 -0.00000000000E+00 -0.00000000000E+00 -0.10973604824E+04  0.10973604824E+04  0.00000000000E+00 0.  1.
         21    1    1    2  503  505  0.38275990054E+02  0.20250349940E+02 -0.86389866455E+02  0.96635071860E+02  0.00000000000E+00 0.  1.
         21    1    1    2  504  503 -0.55310612618E+02 -0.12599302150E+03 -0.90928260796E+03  0.91963490934E+03  0.00000000000E+00 0.  1.
         21    1    1    2  505  501  0.28034672955E+02  0.25060620767E+02  0.95356968426E+02  0.10250331228E+03  0.00000000000E+00 0.  1.
         21    1    1    2  506  502 -0.11000050390E+02  0.80682050797E+02 -0.68939715681E+02  0.10669244972E+03  0.00000000000E+00 0.  1.
<scales pt_clust_3="49.73677" pt_clust_4="14000.00000" pt_clust_5="37.60289" pt_clust_6="123.27417"></scales>
<clustering>
<clus scale="   37.603">  1  5  2 -1</clus>
<clus scale="   49.737">  1  3  2 -1</clus>
<clus scale="  123.274">  1  6  2 -1</clus>
<clus scale="   37.603">  1  3  2 -1</clus>
</clustering>
</event>
<event>
 6    0  0.3446372E+002  0.1149548E+03  0.7546771E-02  0.1251660E+00
         21   -1    0    0  506  501  0.00000000000E+00  0.00000000000E+00  0.28066689418E+03  0.28066689418E+03  0.00000000000E+00 0.  1.
         21   -1    0    0  505  502 -0.00000000000E+00 -0.00000000000E+00 -0.89100709466E+03  0.89100709466E+03  0.00000000000E+00 0. -1.
         21    1    1    2  503  502 -0.15938429717E+03 -0.55067789398E+01  0.81517903202E+02  0.17910568763E+03  0.00000000000E+00 0.  1.
         21    1    1    2  504  501  0.19658174087E+02  0.64777348019E+02 -0.10604967414E+03  0.12581367974E+03  0.00000000000E+00 0.  1.
         21    1    1    2  505  504  0.58731851025E+02  0.11623066842E+02 -0.70420354213E+03  0.70674405180E+03  0.00000000000E+00 0. -1.
         21    1    1    2  506  503  0.80994272062E+02 -0.70893635922E+02  0.11839511259E+03  0.16001056967E+03  0.00000000000E+00 0.  1.
<scales pt_clust_3="14000.00000" pt_clust_4="91.46531" pt_clust_5="59.87091" pt_clust_6="114.95483"></scales>
<clustering>
<clus scale="   59.871">  2  5  1 -1</clus>
<clus scale="   91.465">  2  4  1 -1</clus>
<clus scale="  114.955">  1  6  2 -1</clus>
<clus scale="  114.955">  1  3  2 -1</clus>
</clustering>
</event>
<event>
 6    0  0.3446372E+002  0.1969358E+03  0.7546771E-02  0.1152350E+00
         21   -1    0    0  504  501  0.00000000000E+00  0.00000000000E+00  0.85825614548E+03  0.85825614548E+03  0.00000000000E+00 0.  1.
         21   -1    0    0  503  502 -0.00000000000E+00 -0.00000000000E+00 -0.62661500044E+03  0.62661500044E+03  0.00000000000E+00 0. -1.
         21    1    1    2  503  506 -0.26111929669E+02  0.21594680801E+03 -0.39329568021E+03  0.44944003920E+03  0.00000000000E+00 0. -1.
         21    1    1    2  504  502 -0.66664059670E+02 -0.16366648004E+03 -0.11253964704E+03  0.20951368857E+03  0.00000000000E+00 0.  1.
         21    1    1    2  505  501  0.23661822984E+02 -0.28776475271E+02  0.75078846926E+03  0.75171224081E+03  0.00000000000E+00 0.  1.
         21    1    1    2  506  505  0.69114166356E+02 -0.23503852700E+02 -0.13311996968E+02  0.74205177354E+02  0.00000000000E+00 0.  1.
<scales pt_clust_3="196.93581" pt_clust_4="14000.00000" pt_clust_5="37.25543" pt_clust_6="82.20150"></scales>
<clustering>
<clus scale="   37.255">  1  5  2 -1</clus>
<clus scale="   82.202">  1  6  2 -1</clus>
<clus scale="  196.936">  2  3  1 -1</clus>
<clus scale="   37.255">  1  3  2 -1</clus>
</clustering>
</event>
<event>
 6    0  0.3446372E+002  0.3697222E+03  0.7546771E-02  0.1054799E+00
         21   -1    0    0  503  501  0.00000000000E+00  0.00000000000E+00  0.80584345078E+03  0.80584345078E+03  0.00000000000E+00 0. -1.
         21   -1    0    0  506  502 -0.00000000000E+00 -0.00000000000E+00 -0.53842777342E+03  0.53842777342E+03  0.00000000000E+00 0. -1.
         21    1    1    2  503  504  0.46343470562E+02  0.26759967720E+03 -0.10444033217E+03  0.29097265762E+03  0.00000000000E+00 0. -1.
         21    1    1    2  504  502  0.71610634920E+02  0.54622413944E+02 -0.28439444038E+02  0.94448362166E+02  0.00000000000E+00 0.  1.
         21    1    1    2  505  501 -0.46564178225E+02  0.31859119774E+02  0.56076976108E+03  0.56360087930E+03  0.00000000000E+00 0. -1.
         21    1    1    2  506  505 -0.71389927256E+02 -0.35408121091E+03 -0.16047430750E+03  0.39524932512E+03  0.00000000000E+00 0. -1.
<scales pt_clust_3="64.13798" pt_clust_4="64.13798" pt_clust_5="56.42009" pt_clust_6="351.48604"></scales>
<clustering>
<clus scale="   56.420">  1  5  2 -1</clus>
<clus scale="   64.138">  3  4 -1 -1</clus>
<clus scale="  351.486">  2  6  1 -1</clus>
<clus scale="   56.420">  1  3  2 -1</clus>
</clustering>
</event>
<event>
 6    0  0.3446372E+002  0.7942507E+02  0.7546771E-02  0.1330691E+00
         21   -1    0    0  503  501  0.00000000000E+00  0.00000000000E+00  0.20347512081E+03  0.20347512081E+03  0.00000000000E+00 0.  1.
         21   -1    0    0  504  502 -0.00000000000E+00 -0.00000000000E+00 -0.43254703761E+03  0.43254703761E+03  0.00000000000E+00 0. -1.
         21    1    1    2  503  502  0.21058561211E+02  0.29531348228E+02 -0.28794067109E+01  0.36384811549E+02  0.00000000000E+00 0.  1.
         21    1    1    2  504  505  0.33319167549E+02 -0.35206393663E+02 -0.37323049266E+03  0.37636505913E+03  0.00000000000E+00 0. -1.
         21    1    1    2  505  506 -0.97258539931E+02  0.47099687805E+02  0.10141046498E+03  0.14819475898E+03  0.00000000000E+00 0.  1.
         21    1    1    2  506  501  0.42880811171E+02 -0.41424642370E+02  0.45627517595E+02  0.75077528755E+02  0.00000000000E+00 0.  1.
<scales pt_clust_3="36.27070" pt_clust_4="48.41565" pt_clust_5="79.42507" pt_clust_6="14000.00000"></scales>
<clustering>
<clus scale="   36.271">  1  3  2 -1</clus>
<clus scale="   48.416">  2  4  1 -1</clus>
<clus scale="   79.425">  2  5  1 -1</clus>
<clus scale="   36.271">  1  3  2 -1</clus>
</clustering>
</event>
<event>
 6    0  0.3446372E+002  0.7280657E+02  0.7546771E-02  0.1350801E+00
         21   -1    0    0  503  501  0.00000000000E+00  0.00000000000E+00  0.67849146616E+02  0.67849146616E+02  0.00000000000E+00 0. -1.
         21   -1    0    0  505  502 -0.00000000000E+00 -0.00000000000E+00 -0.55150471261E+03  0.55150471261E+03  0.00000000000E+00 0. -1.
         21    1    1    2  503  502 -0.28976201625E+01 -0.83162050534E+02 -0.10636607314E+02  0.83889571860E+02  0.00000000000E+00 0. -1.
         21    1    1    2  504  506  0.74464489854E+02  0.12361681767E+02 -0.11008072230E+03  0.13347485473E+03  0.00000000000E+00 0. -1.
         21    1    1    2  505  504 -0.27878538837E+02  0.66861070184E+02 -0.34828859408E+03  0.35574226682E+03  0.00000000000E+00 0. -1.
         21    1    1    2  506  501 -0.43688330854E+02  0.39392985830E+01 -0.14649642303E+02  0.46247165813E+02  0.00000000000E+00 0.  1.
<scales pt_clust_3="14000.00000" pt_clust_4="65.98987" pt_clust_5="72.80657" pt_clust_6="43.86557"></scales>
<clustering>
<clus scale="   43.866">  1  6  2 -1</clus>
<clus scale="   65.990">  1  4  2 -1</clus>
<clus scale="   72.807">  2  5  1 -1</clus>
<clus scale="   43.866">  1  3  2 -1</clus>
</clustering>
</event>
<event>
 6    0  0.3446372E+002  0.3569675E+03  0.7546771E-02  0.1059791E+00
         21   -1    0    0  505  501  0.00000000000E+00  0.00000000000E+00  0.48921227886E+03  0.48921227886E+03  0.00000000000E+00 0.  1.
         21   -1    0    0  504  502 -0.00000000000E+00 -0.00000000000E+00 -0.66217603614E+03  0.66217603614E+03  0.00000000000E+00 0. -1.
         21    1    1    2  503  502  0.92637498501E+02  0.17100094176E+03 -0.32678111902E+03  0.38027480584E+03  0.00000000000E+00 0. -1.
         21    1    1    2  504  501 -0.19653272537E+03 -0.27443356544E+03  0.16833801767E+03  0.37719568154E+03  0.00000000000E+00 0.  1.
         21    1    1    2  505  506  0.18295445297E+02 -0.31480905260E+02  0.15602644460E+03  0.16021866973E+03  0.00000000000E+00 0.  1.
         21    1    1    2  506  503  0.85599781576E+02  0.13491352894E+03 -0.17054710053E+03  0.23369915789E+03  0.00000000000E+00 0. -1.
<scales pt_clust_3="59.21297" pt_clust_4="350.92633" pt_clust_5="36.41113" pt_clust_6="59.21297"></scales>
<clustering>
<clus scale="   36.411">  1  5  2 -1</clus>
<clus scale="   59.213">  3  6 -1 -1</clus>
<clus scale="  350.926">  1  4  2 -1</clus>
<clus scale="   36.411">  1  3  2 -1</clus>
</clustering>
</event>
<event>
 6    0  0.3446372E+002  0.1106069E+03  0.7546771E-02  0.1259450E+00
         21   -1    0    0  505  501  0.00000000000E+00  0.00000000000E+00  0.22394005371E+03  0.22394005371E+03  0.00000000000E+00 0. -1.
         21   -1    0    0  503  502 -0.00000000000E+00 -0.00000000000E+00 -0.47760638335E+03  0.47760638335E+03  0.00000000000E+00 0. -1.
         21    1    1    2  503  506 -0.10966222553E+02 -0.70242395960E+02 -0.34314738721E+03  0.35043456105E+03  0.00000000000E+00 0. -1.
         21    1    1    2  504  501 -0.49628836997E+02  0.49396519300E+02  0.16214007023E+03  0.17661381587E+03  0.00000000000E+00 0. -1.
         21    1    1    2  505  502  0.55939047097E+02  0.58874850641E+02  0.11505796060E+02  0.82023218487E+02  0.00000000000E+00 0. -1.
         21    1    1    2  506  504  0.46560124528E+01 -0.38028973981E+02 -0.84164808717E+02  0.92474841661E+02  0.00000000000E+00 0. -1.
<scales pt_clust_3="31.23632" pt_clust_4="70.02169" pt_clust_5="102.09489" pt_clust_6="31.23632"></scales>
<clustering>
<clus scale="   31.236">  3  6 -1 -1</clus>
<clus scale="   70.022">  1  4  2 -1</clus>
<clus scale="  102.095">  1  5  2 -1</clus>
<clus scale="   70.022">  1  3  2 -1</clus>
</clustering>
</event>
<event>
 6    0  0.3446372E+002  0.8563282E+02  0.7546771E-02  0.1313786E+00
         21   -1    0    0  505  501  0.00000000000E+00  0.00000000000E+00  0.31623842533E+03  0.31623842533E+03  0.00000000000E+00 0. -1.
         21   -1    0    0  503  502 -0.00000000000E+00 -0.00000000000E+00 -0.52716959162E+03  0.52716959162E+03  0.00000000000E+00 0.  1.
         21    1    1    2  503  506  0.19288092729E+02 -0.34608121366E+02 -0.44479772133E+03  0.44655880406E+03  0.00000000000E+00 0.  1.
         21    1    1    2  504  502 -0.29945700846E+02  0.80809028314E+02 -0.30536948800E+02  0.91429477185E+02  0.00000000000E+00 0.  1.
         21    1    1    2  505  504  0.22154152787E+01 -0.86034882766E+02  0.24621529600E+03  0.26082346731E+03  0.00000000000E+00 0. -1.
         21    1    1    2  506  501  0.84421928387E+01  0.39833975818E+02  0.18188207843E+02  0.44596268386E+02  0.00000000000E+00 0.  1.
<scales pt_clust_3="39.62010" pt_clust_4="85.63282" pt_clust_5="14000.00000" pt_clust_6="36.12830"></scales>
<clustering>
<clus scale="   39.620">  2  3  1 -1</clus>
<clus scale="   36.128">  2  6  1 -1</clus>
<clus scale="   85.633">  2  4  1 -1</clus>
<clus scale="   85.633">  1  3  2 -1</clus>
</clustering>
</event>
<event>
 6    0  0.3446372E+002  0.1571971E+03  0.7546771E-02  0.1191898E+00
         21   -1    0    0  503  501  0.00000000000E+00  0.00000000000E+00  0.87277888868E+03  0.87277888868E+03  0.00000000000E+00 0.  1.
         21   -1    0    0  506  502 -0.00000000000E+00 -0.00000000000E+00 -0.18127828460E+03  0.18127828460E+03  0.00000000000E+00 0. -1.
         21    1    1    2  503  505  0.38055962287E+02  0.10227522748E+03  0.23286113037E+02  0.11158280101E+03  0.00000000000E+00 0.  1.
         21    1    1    2  504  502 -0.74594081257E+02 -0.32841540832E+02 -0.93066628553E+00  0.81508955965E+02  0.00000000000E+00 0. -1.
         21    1    1    2  505  504 -0.56101879525E+02 -0.83939289421E+02 -0.65508389039E+02  0.12035187672E+03  0.00000000000E+00 0. -1.
         21    1    1    2  506  501  0.92639998495E+02  0.14505602778E+02  0.73465354636E+03  0.74061353959E+03  0.00000000000E+00 0.  1.
<scales pt_clust_3="138.18995" pt_clust_4="67.32312" pt_clust_5="67.32312" pt_clust_6="93.76877"></scales>
<clustering>
<clus scale="   67.323">  4  5 -1 -1</clus>
<clus scale="   93.769">  1  6  2 -1</clus>
<clus scale="  138.190">  1  3  2 -1</clus>
<clus scale="   93.769">  1  3  2 -1</clus>
</clustering>
</event>
<event>
 6    0  0.3446372E+002  0.1160534E+03  0.7546771E-02  0.1249753E+00
         21   -1    0    0  506  501  0.00000000000E+00  0.00000000000E+00  0.41671766443E+03  0.41671766443E+03  0.00000000000E+00 0. -1.
         21   -1    0    0  505  502 -0.00000000000E+00 -0.00000000000E+00 -0.13547255680E+03  0.13547255680E+03  0.00000000000E+00 0.  1.
         21    1    1    2  503  502  0.12348730206E+03  0.57631000296E+02  0.52346776416E+02  0.14598161174E+03  0.00000000000E+00 0.  1.
         21    1    1    2  504  501 -0.20773776317E+02  0.37970476884E+02  0.45149110713E+02  0.62543977292E+02  0.00000000000E+00 0.  1.
         21    1    1    2  505  504 -0.41625647875E+02  0.10419099705E+02 -0.58333270802E+02  0.72415624572E+02  0.00000000000E+00 0.  1.
         21    1    1    2  506  503 -0.61087877871E+02 -0.10602057689E+03  0.24208249130E+03  0.27124900763E+03  0.00000000000E+00 0. -1.
<scales pt_clust_3="14000.00000" pt_clust_4="47.05748" pt_clust_5="42.90981" pt_clust_6="116.05340"></scales>
<clustering>
<clus scale="   42.910">  2  5  1 -1</clus>
<clus scale="   47.057">  1  4  2 -1</clus>
<clus scale="  116.053">  1  6  2 -1</clus>
<clus scale="   47.057">  1  3  2 -1</clus>
</clustering>
</event>
<event>
 6    0  0.3446372E+002  0.2307770E+03  0.7546771E-02  0.1126094E+00
         21   -1    0    0  505  501  0.00000000000E+00  0.00000000000E+00  0.97597775130E+02  0.97597775130E+02  0.00000000000E+00 0. -1.
         21   -1    0    0  504  502 -0.00000000000E+00 -0.00000000000E+00 -0.80891934722E+03  0.80891934722E+03  0.00000000000E+00 0. -1.
         21    1    1    2  503  506 -0.91014525130E+02  0.24194798185E+02 -0.13917726815E+03  0.16804566050E+03  0.00000000000E+00 0. -1.
         21    1    1    2  504  503 -0.12240027668E+03  0.69484615728E+01 -0.38896144299E+03  0.40782485577E+03  0.00000000000E+00 0. -1.
         21    1    1    2  505  502 -0.10145356141E+02 -0.49863382170E+02 -0.31746706579E+02  0.59976149520E+02  0.00000000000E+00 0. -1.
         21    1    1    2  506  501  0.22356015795E+03  0.18720122412E+02 -0.15143615438E+03  0.27067045657E+03  0.00000000000E+00 0. -1.
<scales pt_clust_3="68.59698" pt_clust_4="68.59698" pt_clust_5="50.88502" pt_clust_6="216.97340"></scales>
<clustering>
<clus scale="   50.885">  1  5  2 -1</clus>
<clus scale="   68.597">  3  4 -1 -1</clus>
<clus scale="  216.973">  1  6  2 -1</clus>
<clus scale="   50.885">  1  3  2 -1</clus>
</clustering>
</event>
<event>
 6    0  0.3446372E+002  0.1317309E+03  0.7546771E-02  0.1224910E+00
         21   -1    0    0  506  501  0.00000000000E+00  0.00000000000E+00  0.14023861301E+03  0.14023861301E+03  0.00000000000E+00 0. -1.
         21   -1    0    0  504  502 -0.00000000000E+00 -0.00000000000E+00 -0.47595638740E+03  0.47595638740E+03  0.00000000000E+00 0. -1.
         21    1    1    2  503  505 -0.75124875485E+02  0.61311189805E+01  0.54968972099E+01  0.75574819984E+02  0.00000000000E+00 0.  1.
         21    1    1    2  504  503 -0.12355907035E+03  0.11148759973E+02 -0.17073424338E+03  0.21104814753E+03  0.00000000000E+00 0. -1.
         21    1    1    2  505  501  0.58491336664E+02 -0.22110397312E+02  0.41739257392E+02  0.75181591774E+02  0.00000000000E+00 0. -1.
         21    1    1    2  506  502  0.14019260917E+03  0.48305183581E+01 -0.21221968561E+03  0.25439044112E+03  0.00000000000E+00 0. -1.
<scales pt_clust_3="46.38387" pt_clust_4="131.73094" pt_clust_5="62.53084" pt_clust_6="14000.00000"></scales>
<clustering>
<clus scale="   62.531">  1  5  2 -1</clus>
<clus scale="   46.384">  1  3  2 -1</clus>
<clus scale="  131.731">  2  4  1 -1</clus>
<clus scale="   62.531">  1  3  2 -1</clus>
</clustering>
</event>
<event>
 6    0  0.3446372E+002  0.1461037E+03  0.7546771E-02  0.1205344E+00
         21   -1    0    0  503  501  0.00000000000E+00  0.00000000000E+00  0.20741147097E+03  0.20741147097E+03  0.00000000000E+00 0.  1.
         21   -1    0    0  506  502 -0.00000000000E+00 -0.00000000000E+00 -0.35750744932E+03  0.35750744932E+03  0.00000000000E+00 0.  1.
         21    1    1    2  503  502  0.39332050048E+02 -0.10398431137E+01 -0.13219337493E+02  0.41507135753E+02  0.00000000000E+00 0.  1.
         21    1    1    2  504  501 -0.13735192903E+03  0.37018600879E+02  0.15488525714E+03  0.21029829315E+03  0.00000000000E+00 0.  1.
         21    1    1    2  505  504  0.25184049338E+02 -0.31385124046E+02 -0.11694540729E+03  0.12367493941E+03  0.00000000000E+00 0. -1.
         21    1    1    2  506  505  0.72835829648E+02 -0.45936337188E+01 -0.17481649072E+03  0.18943855198E+03  0.00000000000E+00 0.  1.
<scales pt_clust_3="39.34579" pt_clust_4="139.04538" pt_clust_5="33.31300" pt_clust_6="33.31300"></scales>
<clustering>
<clus scale="   33.313">  5  6 -1 -1</clus>
<clus scale="   39.346">  2  3  1 -1</clus>
<clus scale="  139.045">  1  4  2 -1</clus>
<clus scale="  139.045">  1  3  2 -1</clus>
</clustering>
</event>
<event>
 6    0  0.3446372E+002  0.2286242E+03  0.7546771E-02  0.1127612E+00
         21   -1    0    0  505  501  0.00000000000E+00  0.00000000000E+00  0.24848388886E+03  0.24848388886E+03  0.00000000000E+00 0.  1.
         21   -1    0    0  503  502 -0.00000000000E+00 -0.00000000000E+00 -0.50992073845E+03  0.50992073845E+03  0.00000000000E+00 0. -1.
         21    1    1    2  503  506  0.33358790954E+02  0.28505784308E+02 -0.72022959015E+02  0.84336796822E+02  0.00000000000E+00 0. -1.
         21    1    1    2  504  502 -0.18201356801E+03  0.69169621268E+02 -0.26665846525E+03  0.33018193854E+03  0.00000000000E+00 0. -1.
         21    1    1    2  505  504 -0.13180870386E+02  0.40803099686E+02 -0.72004119257E+02  0.83804662627E+02  0.00000000000E+00 0. -1.
         21    1    1    2  506  501  0.16183564745E+03 -0.13847850526E+03  0.14924869394E+03  0.26008122932E+03  0.00000000000E+00 0.  1.
<scales pt_clust_3="43.87925" pt_clust_4="37.82726" pt_clust_5="37.82726" pt_clust_6="213.94236"></scales>
<clustering>
<clus scale="   37.827">  4  5 -1 -1</clus>
<clus scale="   43.879">  2  3  1 -1</clus>
<clus scale="  213.942">  1  6  2 -1</clus>
<clus scale="  213.942">  1  3  2 -1</clus>
</clustering>
</event>
<event>
 6    0  0.4927761E+002  0.9929763E+02  0.7546771E-02  0.1281780E+00
         21   -1    0    0  504  501  0.00000000000E+00  0.00000000000E+00  0.13845366290E+03  0.13845366290E+03  0.00000000000E+00 0.  1.
         21   -1    0    0  506  502 -0.00000000000E+00 -0.00000000000E+00 -0.13915192331E+04  0.13915192331E+04  0.00000000000E+00 0.  1.
         21    1    1    2  503  501 -0.49595592533E+02  0.49196809985E+02 -0.95566625973E+02  0.11837664006E+03  0.00000000000E+00 0.  1.
         21    1    1    2  504  505  0.12263581497E+03  0.23160862098E+02  0.92087948354E+02  0.15510047994E+03  0.00000000000E+00 0.  1.
         21    1    1    2  505  502 -0.48062079996E+02 -0.49694737137E+02 -0.11335623197E+04  0.11356685533E+04  0.00000000000E+00 0.  1.
         21    1    1    2  506  503 -0.24978142439E+02 -0.22662934945E+02 -0.11602457288E+03  0.12082722265E+03  0.00000000000E+00 0.  1.
<scales pt_clust_3="70.06351" pt_clust_4="99.29763" pt_clust_5="14000.00000" pt_clust_6="33.72708"></scales>
<clustering>
<clus scale="   33.727">  2  6  1 -1</clus>
<clus scale="   70.064">  1  3  2 -1</clus>
<clus scale="   99.298">  1  4  2 -1</clus>
<clus scale="   70.064">  1  3  2 -1</clus>
</clustering>
</event>
<event>
 6    0  0.3446372E+002  0.1246848E+03  0.7546771E-02  0.1235563E+00
         21   -1    0    0  505  501  0.00000000000E+00  0.00000000000E+00  0.12993859372E+04  0.12993859372E+04  0.00000000000E+00 0.  1.
         21   -1    0    0  503  502 -0.00000000000E+00 -0.00000000000E+00 -0.48835608524E+03  0.48835608524E+03  0.00000000000E+00 0. -1.
         21    1    1    2  503  506  0.97659204248E+02  0.74398823604E+02 -0.24798195346E+03  0.27670842844E+03  0.00000000000E+00 0. -1.
         21    1    1    2  504  502 -0.29034155483E+02  0.12889885975E+02 -0.30994991267E+02  0.44382663605E+02  0.00000000000E+00 0.  1.
         21    1    1    2  505  504  0.33452336622E+02  0.23518768062E+01  0.12535758656E+04  0.12540243383E+04  0.00000000000E+00 0.  1.
         21    1    1    2  506  501 -0.10207738539E+03 -0.89640586385E+02 -0.16356906897E+03  0.21262659207E+03  0.00000000000E+00 0. -1.
<scales pt_clust_3="14000.00000" pt_clust_4="31.76683" pt_clust_5="33.52095" pt_clust_6="124.68481"></scales>
<clustering>
<clus scale="   31.767">  2  4  1 -1</clus>
<clus scale="   33.521">  1  5  2 -1</clus>
<clus scale="  124.685">  1  6  2 -1</clus>
<clus scale="   33.521">  1  3  2 -1</clus>
</clustering>
</event>
<event>
 6    0  0.3446372E+002  0.1138883E+03  0.7546771E-02  0.1253534E+00
         21   -1    0    0  505  501  0.00000000000E+00  0.00000000000E+00  0.12055687560E+04  0.12055687560E+04  0.00000000000E+00 0.  1.
         21   -1    0    0  504  502 -0.00000000000E+00 -0.00000000000E+00 -0.63539036915E+03  0.63539036915E+03  0.00000000000E+00 0.  1.
         21    1    1    2  503  506 -0.93849420537E+02 -0.40084594357E+02  0.60081143137E+03  0.60941682329E+03  0.00000000000E+00 0.  1.
         21    1    1    2  504  501  0.74314634535E+02 -0.48509253142E+02 -0.78667716184E+02  0.11859351633E+03  0.00000000000E+00 0.  1.
         21    1    1    2  505  503  0.51156697494E+02 -0.39700178973E+02  0.57043411054E+03  0.57409771501E+03  0.00000000000E+00 0.  1.
         21    1    1    2  506  502 -0.31621911492E+02  0.12829402647E+03 -0.52239943885E+03  0.53885107055E+03  0.00000000000E+00 0.  1.
<scales pt_clust_3="90.05020" pt_clust_4="113.88832" pt_clust_5="64.75424" pt_clust_6="14000.00000"></scales>
<clustering>
<clus scale="   64.754">  1  5  2 -1</clus>
<clus scale="   90.050">  1  3  2 -1</clus>
<clus scale="  113.888">  1  4  2 -1</clus>
<clus scale="   64.754">  1  3  2 -1</clus>
</clustering>
</event>
<event>
 6    0  0.3446372E+002  0.8840600E+02  0.7546771E-02  0.1306758E+00
         21   -1    0    0  506  501  0.00000000000E+00  0.00000000000E+00  0.60896577062E+02  0.60896577062E+02  0.00000000000E+00 0.  1.
         21   -1    0    0  505  502 -0.00000000000E+00 -0.00000000000E+00 -0.16545302062E+04  0.16545302062E+04  0.00000000000E+00 0. -1.
         21    1    1    2  503  501  0.18577961152E+02  0.84185854530E+02  0.15739060336E+02  0.87636275387E+02  0.00000000000E+00 0.  1.
         21    1    1    2  504  502 -0.58923741538E+01  0.30539453552E+02 -0.29937237053E+03  0.30098371141E+03  0.00000000000E+00 0. -1.
         21    1    1    2  505  503  0.54722672990E+02 -0.43892468852E+01 -0.75290130261E+03  0.75490013108E+03  0.00000000000E+00 0. -1.
         21    1    1    2  506  504 -0.67408259989E+02 -0.11033606120E+03 -0.55709901630E+03  0.57190666535E+03  0.00000000000E+00 0. -1.
<scales pt_clust_3="88.40600" pt_clust_4="31.10271" pt_clust_5="52.96579" pt_clust_6="14000.00000"></scales>
<clustering>
<clus scale="   31.103">  2  4  1 -1</clus>
<clus scale="   52.966">  2  5  1 -1</clus>
<clus scale="   88.406">  1  3  2 -1</clus>
<clus scale="   88.406">  1  3  2 -1</clus>
</clustering>
</event>
<event>
 6    0  0.3446372E+002  0.7717834E+02  0.7546771E-02  0.1337255E+00
         21   -1    0    0  503  501  0.00000000000E+00  0.00000000000E+00  0.89976606797E+03  0.89976606797E+03  0.00000000000E+00 0. -1.
         21   -1    0    0  501  502 -0.00000000000E+00 -0.00000000000E+00 -0.51918903867E+03  0.51918903867E+03  0.00000000000E+00 0. -1.
         21    1    1    2  503  506 -0.32842748758E+02  0.57259601814E+02  0.84008008325E+03  0.84266948113E+03  0.00000000000E+00 0. -1.
         21    1    1    2  504  505  0.59906826847E+02  0.69026971438E+00 -0.78102727352E+02  0.98434447197E+02  0.00000000000E+00 0. -1.
         21    1    1    2  505  502  0.29226624746E+02  0.33940419267E+02 -0.36631046367E+03  0.36903862054E+03  0.00000000000E+00 0. -1.
         21    1    1    2  506  504 -0.56290702834E+02 -0.91890290795E+02 -0.15089862932E+02  0.10881255778E+03  0.00000000000E+00 0.  1.
<scales pt_clust_3="66.13821" pt_clust_4="14000.00000" pt_clust_5="44.79004" pt_clust_6="77.17834"></scales>
<clustering>
<clus scale="   44.790">  2  5  1 -1</clus>
<clus scale="   66.138">  1  3  2 -1</clus>
<clus scale="   77.178">  1  6  2 -1</clus>
<clus scale="   66.138">  1  3  2 -1</clus>
</clustering>
</event>
<event>
 6    0  0.3446372E+002  0.1028868E+03  0.7546771E-02  0.1274340E+00
         21   -1    0    0  506  501  0.00000000000E+00  0.00000000000E+00  0.97347778235E+03  0.97347778235E+03  0.00000000000E+00 0. -1.
         21   -1    0    0  505  502 -0.00000000000E+00 -0.00000000000E+00 -0.24368878921E+04  0.24368878921E+04  0.00000000000E+00 0. -1.
         21    1    1    2  503  502  0.12574679548E+02  0.29330934306E+02 -0.13191517587E+04  0.13195377178E+04  0.00000000000E+00 0. -1.
         21    1    1    2  504  501 -0.11620275196E+03 -0.65363527074E+02  0.23460991824E+03  0.26984677869E+03  0.00000000000E+00 0.  1.
         21    1    1    2  505  504  0.55329883422E+02  0.48296647084E+02 -0.10978353779E+04  0.11002892706E+04  0.00000000000E+00 0. -1.
         21    1    1    2  506  503  0.48298188988E+02 -0.12264054316E+02  0.71896710857E+03  0.72069190733E+03  0.00000000000E+00 0. -1.
<scales pt_clust_3="31.91279" pt_clust_4="14000.00000" pt_clust_5="102.88681" pt_clust_6="49.83478"></scales>
<clustering>
<clus scale="   31.913">  2  3  1 -1</clus>
<clus scale="   49.835">  1  6  2 -1</clus>
<clus scale="  102.887">  2  5  1 -1</clus>
<clus scale="   49.835">  1  3  2 -1</clus>
</clustering>
</event>
<event>
 6    0  0.3446372E+002  0.6986838E+02  0.7546771E-02  0.1360541E+00
         21   -1    0    0  506  501  0.00000000000E+00  0.00000000000E+00  0.10801659878E+03  0.10801659878E+03  0.00000000000E+00 0. -1.
         21   -1    0    0  503  502 -0.00000000000E+00 -0.00000000000E+00 -0.41230723702E+03  0.41230723702E+03  0.00000000000E+00 0. -1.
         21    1    1    2  503  504  0.88755250598E+02  0.20145652447E+02  0.95961631428E+01  0.91517365392E+02  0.00000000000E+00 0. -1.
         21    1    1    2  504  501 -0.56521204846E+02 -0.20586616914E+02  0.27903090386E+02  0.66310163975E+02  0.00000000000E+00 0. -1.
         21    1    1    2  505  502  0.31024499811E+02 -0.20373482266E+02 -0.22511100368E+03  0.22815030648E+03  0.00000000000E+00 0.  1.
         21    1    1    2  506  505 -0.63258545563E+02  0.20814446733E+02 -0.11667888808E+03  0.13434599996E+03  0.00000000000E+00 0. -1.
<scales pt_clust_3="69.86838" pt_clust_4="14000.00000" pt_clust_5="37.11601" pt_clust_6="42.86923"></scales>
<clustering>
<clus scale="   37.116">  2  5  1 -1</clus>
<clus scale="   42.869">  2  6  1 -1</clus>
<clus scale="   69.868">  2  3  1 -1</clus>
<clus scale="   69.868">  1  3  2 -1</clus>
</clustering>
</event>
<event>
 6    0  0.3446372E+002  0.2021072E+03  0.7546771E-02  0.1147973E+00
         21   -1    0    0  504  501  0.00000000000E+00  0.00000000000E+00  0.26645165397E+03  0.26645165397E+03  0.00000000000E+00 0. -1.
         21   -1    0    0  505  502 -0.00000000000E+00 -0.00000000000E+00 -0.64441987417E+03  0.64441987417E+03  0.00000000000E+00 0. -1.
         21    1    1    2  503  502  0.16536216121E+03 -0.11996130601E+03 -0.35117360118E+03  0.40627362389E+03  0.00000000000E+00 0. -1.
         21    1    1    2  504  503  0.15343457163E+02  0.63242367972E+02  0.19668117199E+03  0.20716781168E+03  0.00000000000E+00 0. -1.
         21    1    1    2  505  506 -0.58263063524E+02  0.97407539592E+01 -0.10606910504E+03  0.12140890372E+03  0.00000000000E+00 0.  1.
         21    1    1    2  506  501 -0.12244255485E+03  0.46978184074E+02 -0.11740668596E+03  0.17602118885E+03  0.00000000000E+00 0.  1.
<scales pt_clust_3="195.43705" pt_clust_4="65.07702" pt_clust_5="34.55995" pt_clust_6="34.55995"></scales>
<clustering>
<clus scale="   34.560">  5  6 -1 -1</clus>
<clus scale="   65.077">  1  4  2 -1</clus>
<clus scale="  195.437">  2  3  1 -1</clus>
<clus scale="   65.077">  1  3  2 -1</clus>
</clustering>
</event>
<event>
 6    0  0.3446372E+002  0.9428019E+02  0.7546771E-02  0.1292806E+00
         21   -1    0    0  504  501  0.00000000000E+00  0.00000000000E+00  0.11848361509E+04  0.11848361509E+04  0.00000000000E+00 0.  1.
         21   -1    0    0  505  502 -0.00000000000E+00 -0.00000000000E+00 -0.34307414745E+03  0.34307414745E+03  0.00000000000E+00 0.  1.
         21    1    1    2  503  501 -0.10097576772E+03  0.44431602437E+02  0.56914064445E+02  0.12413494147E+03  0.00000000000E+00 0.  1.
         21    1    1    2  504  502  0.15606635553E+02 -0.30512607473E+02  0.10649530986E+04  0.10655044292E+04  0.00000000000E+00 0.  1.
         21    1    1    2  505  506 -0.28727698236E+02 -0.48543471786E+02 -0.15728361936E+03  0.16709244812E+03  0.00000000000E+00 0.  1.
         21    1    1    2  506  503  0.11409683040E+03  0.34624476823E+02 -0.12282154030E+03  0.17117847956E+03  0.00000000000E+00 0.  1.
<scales pt_clust_3="94.28019" pt_clust_4="34.27224" pt_clust_5="57.17015" pt_clust_6="14000.00000"></scales>
<clustering>
<clus scale="   34.272">  1  4  2 -1</clus>
<clus scale="   57.170">  2  5  1 -1</clus>
<clus scale="   94.280">  1  3  2 -1</clus>
<clus scale="   34.272">  1  3  2 -1</clus>
</clustering>
</event>
<event>
 6    0  0.3446372E+002  0.1229743E+03  0.7546771E-02  0.1238269E+00
         21   -1    0    0  504  501  0.00000000000E+00  0.00000000000E+00  0.92625835813E+02  0.92625835813E+02  0.00000000000E+00 0.  1.
         21   -1    0    0  506  502 -0.00000000000E+00 -0.00000000000E+00 -0.62668894571E+03  0.62668894571E+03  0.00000000000E+00 0.  1.
         21    1    1    2  503  505 -0.42135671719E+02  0.13065971696E+02 -0.44156356246E+02  0.62417291230E+02  0.00000000000E+00 0.  1.
         21    1    1    2  504  502  0.29784893885E+02 -0.14149406305E+03 -0.44481291791E+03  0.46772453615E+03  0.00000000000E+00 0.  1.
         21    1    1    2  505  501 -0.69052804065E+01  0.38195922567E+02  0.45541528683E+02  0.59838467837E+02  0.00000000000E+00 0.  1.
         21    1    1    2  506  503  0.19256058241E+02  0.90232168787E+02 -0.90635364428E+02  0.12933448631E+03  0.00000000000E+00 0.  1.
<scales pt_clust_3="48.84804" pt_clust_4="122.97433" pt_clust_5="38.81509" pt_clust_6="14000.00000"></scales>
<clustering>
<clus scale="   38.815">  1  5  2 -1</clus>
<clus scale="   48.848">  1  3  2 -1</clus>
<clus scale="  122.974">  2  4  1 -1</clus>
<clus scale="   38.815">  1  3  2 -1</clus>
</clustering>
</event>
<event>
 6    0  0.3446372E+002  0.8536527E+02  0.7546771E-02  0.1314480E+00
         21   -1    0    0  502  501  0.00000000000E+00  0.00000000000E+00  0.16447410104E+04  0.16447410104E+04  0.00000000000E+00 0. -1.
         21   -1    0    0  503  502 -0.00000000000E+00 -0.00000000000E+00 -0.79164969299E+02  0.79164969299E+02  0.00000000000E+00 0.  1.
         21    1    1    2  503  506  0.39883250909E+02  0.51178912301E+01 -0.44712651971E+02  0.60133915222E+02  0.00000000000E+00 0.  1.
         21    1    1    2  504  501 -0.24224551127E+01  0.97915113782E+02  0.13209746059E+04  0.13246007501E+04  0.00000000000E+00 0. -1.
         21    1    1    2  505  504  0.20870740966E+00 -0.61648268380E+02  0.27442312539E+03  0.28126251848E+03  0.00000000000E+00 0.  1.
         21    1    1    2  506  505 -0.37669503206E+02 -0.41384736632E+02  0.14890961798E+02  0.57908795888E+02  0.00000000000E+00 0. -1.
<scales pt_clust_3="40.21028" pt_clust_4="85.36527" pt_clust_5="14000.00000" pt_clust_6="37.68529"></scales>
<clustering>
<clus scale="   40.210">  2  3  1 -1</clus>
<clus scale="   37.685">  2  6  1 -1</clus>
<clus scale="   85.365">  1  4  2 -1</clus>
<clus scale="   85.365">  1  3  2 -1</clus>
</clustering>
</event>
<event>
 6    0  0.3446372E+002  0.1525130E+03  0.7546771E-02  0.1197419E+00
         21   -1    0    0  503  501  0.00000000000E+00  0.00000000000E+00  0.34992803276E+03  0.34992803276E+03  0.00000000000E+00 0. -1.
         21   -1    0    0  506  502 -0.00000000000E+00 -0.00000000000E+00 -0.15223482130E+04  0.15223482130E+04  0.00000000000E+00 0. -1.
         21    1    1    2  503  502  0.11039975736E+03 -0.63881372256E+02 -0.12400885642E+04  0.12466308930E+04  0.00000000000E+00 0. -1.
         21    1    1    2  504  501  0.43023827376E+02 -0.18102558213E+02  0.29484995228E+03  0.29852176922E+03  0.00000000000E+00 0. -1.
         21    1    1    2  505  504 -0.15143271289E+03  0.11947835986E+03 -0.16197172200E+03  0.25187652478E+03  0.00000000000E+00 0.  1.
         21    1    1    2  506  505 -0.19908718462E+01 -0.37494429389E+02 -0.65209846272E+02  0.75247058791E+02  0.00000000000E+00 0.  1.
<scales pt_clust_3="14000.00000" pt_clust_4="46.69319" pt_clust_5="152.51300" pt_clust_6="37.54725"></scales>
<clustering>
<clus scale="   37.547">  2  6  1 -1</clus>
<clus scale="   46.693">  1  4  2 -1</clus>
<clus scale="  152.513">  1  5  2 -1</clus>
<clus scale="   46.693">  1  3  2 -1</clus>
</clustering>
</event>
<event>
 6    0  0.3446372E+002  0.7909955E+02  0.7546771E-02  0.1331626E+00
         21   -1    0    0  503  501  0.00000000000E+00  0.00000000000E+00  0.15272414305E+04  0.15272414305E+04  0.00000000000E+00 0.  1.
         21   -1    0    0  506  502 -0.00000000000E+00 -0.00000000000E+00 -0.84081930876E+03  0.84081930876E+03  0.00000000000E+00 0. -1.
         21    1    1    2  503  502  0.10214259466E+03 -0.40341120489E+02 -0.62828225302E+03  0.63780804723E+03  0.00000000000E+00 0. -1.
         21    1    1    2  504  501  0.63276449096E+01  0.49749723294E+02  0.11525771479E+04  0.11536676974E+04  0.00000000000E+00 0.  1.
         21    1    1    2  505  504 -0.79258281823E+02 -0.19393828710E+02  0.36365984677E+03  0.37270159643E+03  0.00000000000E+00 0.  1.
         21    1    1    2  506  505 -0.29211957745E+02  0.99852259051E+01 -0.20153261988E+03  0.20388339826E+03  0.00000000000E+00 0.  1.
<scales pt_clust_3="14000.00000" pt_clust_4="50.15584" pt_clust_5="79.09955" pt_clust_6="30.87140"></scales>
<clustering>
<clus scale="   30.871">  2  6  1 -1</clus>
<clus scale="   50.156">  1  4  2 -1</clus>
<clus scale="   79.100">  1  5  2 -1</clus>
<clus scale="   50.156">  1  3  2 -1</clus>
</clustering>
</event>
<event>
 6    0  0.3446372E+002  0.1308863E+03  0.7546771E-02  0.1226147E+00
         21   -1    0    0  504  501  0.00000000000E+00  0.00000000000E+00  0.21294091000E+04  0.21294091000E+04  0.00000000000E+00 0.  1.
         21   -1    0    0  503  502 -0.00000000000E+00 -0.00000000000E+00 -0.32718849507E+02  0.32718849507E+02  0.00000000000E+00 0.  1.
         21    1    1    2  503  506  0.17997772363E+02 -0.50547086216E+02  0.12224783931E+03  0.13350453907E+03  0.00000000000E+00 0.  1.
         21    1    1    2  504  505 -0.17818860553E+03  0.58704786232E+02  0.15031261135E+04  0.15147889438E+04  0.00000000000E+00 0.  1.
         21    1    1    2  505  502  0.10758448237E+03  0.23241230805E+02  0.14622065778E+03  0.18301654685E+03  0.00000000000E+00 0.  1.
         21    1    1    2  506  501  0.52606350791E+02 -0.31398930821E+02  0.32509563994E+03  0.33081791987E+03  0.00000000000E+00 0.  1.
<scales pt_clust_3="53.65564" pt_clust_4="130.88625" pt_clust_5="14000.00000" pt_clust_6="65.73180"></scales>
<clustering>
<clus scale="   53.656">  2  3  1 -1</clus>
<clus scale="   65.732">  1  6  2 -1</clus>
<clus scale="  130.886">  1  4  2 -1</clus>
<clus scale="   65.732">  1  3  2 -1</clus>
</clustering>
</event>
<event>
 6    0  0.3446372E+002  0.1485732E+03  0.7546771E-02  0.1202237E+00
         21   -1    0    0  504  501  0.00000000000E+00  0.00000000000E+00  0.26081554266E+03  0.26081554266E+03  0.00000000000E+00 0. -1.
         21   -1    0    0  505  502 -0.00000000000E+00 -0.00000000000E+00 -0.13843035219E+03  0.13843035219E+03  0.00000000000E+00 0. -1.
         21    1    1    2  503  506 -0.51827937013E+02  0.71602263059E+02 -0.24078812401E+02  0.91612271758E+02  0.00000000000E+00 0. -1.
         21    1    1    2  504  503  0.31119339122E+02  0.39345333570E+02  0.67768714809E+02  0.84315284783E+02  0.00000000000E+00 0. -1.
         21    1    1    2  505  501  0.17119792310E+02 -0.15898306909E+03  0.69143121906E+02  0.17421100669E+03  0.00000000000E+00 0. -1.
         21    1    1    2  506  502  0.35888055802E+01  0.48035472459E+02  0.95521661579E+01  0.49107331614E+02  0.00000000000E+00 0.  1.
<scales pt_clust_3="40.10045" pt_clust_4="50.16442" pt_clust_5="138.28675" pt_clust_6="40.10045"></scales>
<clustering>
<clus scale="   40.100">  3  6 -1 -1</clus>
<clus scale="   50.164">  1  4  2 -1</clus>
<clus scale="  138.287">  1  5  2 -1</clus>
<clus scale="   50.164">  1  3  2 -1</clus>
</clustering>
</event>
<event>
 6    0  0.3446372E+002  0.1171283E+03  0.7546771E-02  0.1247911E+00
         21   -1    0    0  504  501  0.00000000000E+00  0.00000000000E+00  0.59863966956E+02  0.59863966956E+02  0.00000000000E+00 0.  1.
         21   -1    0    0  506  502 -0.00000000000E+00 -0.00000000000E+00 -0.18137809873E+04  0.18137809873E+04  0.00000000000E+00 0. -1.
         21    1    1    2  503  502  0.89854919633E+02 -0.80561309287E+01 -0.14143602183E+04  0.14172345024E+04  0.00000000000E+00 0. -1.
         21    1    1    2  504  505 -0.30071554858E+02  0.34895697069E+02  0.23943719031E+02  0.51916372818E+02  0.00000000000E+00 0.  1.
         21    1    1    2  505  503 -0.95415440740E+02 -0.49052794196E+02 -0.13636434953E+03  0.17350941984E+03  0.00000000000E+00 0.  1.
         21    1    1    2  506  501  0.35632075965E+02  0.22213228055E+02 -0.22713617153E+03  0.23098465914E+03  0.00000000000E+00 0.  1.
<scales pt_clust_3="14000.00000" pt_clust_4="46.00994" pt_clust_5="117.12825" pt_clust_6="41.98895"></scales>
<clustering>
<clus scale="   41.989">  2  6  1 -1</clus>
<clus scale="   46.010">  1  4  2 -1</clus>
<clus scale="  117.128">  1  5  2 -1</clus>
<clus scale="   46.010">  1  3  2 -1</clus>
</clustering>
</event>
<event>
 6    0  0.3446372E+002  0.2066421E+03  0.7546771E-02  0.1144253E+00
         21   -1    0    0  506  501  0.00000000000E+00  0.00000000000E+00  0.13090068464E+03  0.13090068464E+03  0.00000000000E+00 0.  1.
         21   -1    0    0  504  502 -0.00000000000E+00 -0.00000000000E+00 -0.18622716528E+04  0.18622716528E+04  0.00000000000E+00 0.  1.
         21    1    1    2  503  501 -0.37959952995E+02 -0.29617630706E+02  0.60003716748E+02  0.76932490559E+02  0.00000000000E+00 0.  1.
         21    1    1    2  504  503  0.45274308364E+02  0.22072107237E+03 -0.22638708449E+03  0.31940361114E+03  0.00000000000E+00 0.  1.
         21    1    1    2  505  502  0.59399761992E+02  0.38618053535E+02 -0.52088025915E+03  0.52567664030E+03  0.00000000000E+00 0.  1.
         21    1    1    2  506  505 -0.66714117361E+02 -0.22972149520E+03 -0.10441073413E+04  0.10711595955E+04  0.00000000000E+00 0.  1.
<scales pt_clust_3="48.14730" pt_clust_4="206.64208" pt_clust_5="69.00732" pt_clust_6="14000.00000"></scales>
<clustering>
<clus scale="   48.147">  1  3  2 -1</clus>
<clus scale="   69.007">  2  5  1 -1</clus>
<clus scale="  206.642">  1  4  2 -1</clus>
<clus scale="   48.147">  1  3  2 -1</clus>
</clustering>
</event>
<event>
 6    0  0.3446372E+002  0.7806012E+02  0.7546771E-02  0.1334648E+00
         21   -1    0    0  504  501  0.00000000000E+00  0.00000000000E+00  0.87615754940E+02  0.87615754940E+02  0.00000000000E+00 0.  1.
         21   -1    0    0  505  502 -0.00000000000E+00 -0.00000000000E+00 -0.12910795951E+04  0.12910795951E+04  0.00000000000E+00 0.  1.
         21    1    1    2  503  501  0.10220642385E+02  0.10472257593E+03 -0.36370196528E+02  0.11132866044E+03  0.00000000000E+00 0. -1.
         21    1    1    2  504  502  0.41640051770E+02 -0.43085091965E+02  0.28426812805E+02  0.66319701049E+02  0.00000000000E+00 0.  1.
         21    1    1    2  505  506  0.12483803310E+02 -0.47289372631E+02 -0.47033745424E+03  0.47287360993E+03  0.00000000000E+00 0. -1.
         21    1    1    2  506  503 -0.64344497466E+02 -0.14348111334E+02 -0.72518300220E+03  0.72817337862E+03  0.00000000000E+00 0.  1.
<scales pt_clust_3="78.06012" pt_clust_4="60.90770" pt_clust_5="48.90941" pt_clust_6="14000.00000"></scales>
<clustering>
<clus scale="   48.909">  2  5  1 -1</clus>
<clus scale="   60.908">  1  4  2 -1</clus>
<clus scale="   78.060">  1  3  2 -1</clus>
<clus scale="   60.908">  1  3  2 -1</clus>
</clustering>
</event>
<event>
 6    0  0.3446372E+002  0.7174647E+02  0.7546771E-02  0.1354253E+00
         21   -1    0    0  505  501  0.00000000000E+00  0.00000000000E+00  0.18898735181E+03  0.18898735181E+03  0.00000000000E+00 0. -1.
         21   -1    0    0  503  502 -0.00000000000E+00 -0.00000000000E+00 -0.23370665170E+03  0.23370665170E+03  0.00000000000E+00 0. -1.
         21    1    1    2  503  506  0.93867241738E+02  0.36494719360E+02 -0.47364720742E+02  0.11129393687E+03  0.00000000000E+00 0. -1.
         21    1    1    2  504  502 -0.40554279508E+02 -0.75502232665E+01 -0.11755260510E+03  0.12458037736E+03  0.00000000000E+00 0. -1.
         21    1    1    2  505  504 -0.57094267465E+02  0.41825576410E+02  0.47154666135E+02  0.85045262994E+02  0.00000000000E+00 0. -1.
         21    1    1    2  506  501  0.37813052359E+01 -0.70770072503E+02  0.73043359820E+02  0.10177442628E+03  0.00000000000E+00 0. -1.
<scales pt_clust_3="66.87730" pt_clust_4="41.25113" pt_clust_5="14000.00000" pt_clust_6="71.74647"></scales>
<clustering>
<clus scale="   41.251">  2  4  1 -1</clus>
<clus scale="   71.746">  1  6  2 -1</clus>
<clus scale="   66.877">  2  3  1 -1</clus>
<clus scale="   71.746">  1  3  2 -1</clus>
</clustering>
</event>
<event>
 6    0  0.3446372E+002  0.1739397E+03  0.7546771E-02  0.1173801E+00
         21   -1    0    0  506  501  0.00000000000E+00  0.00000000000E+00  0.30724141936E+03  0.30724141936E+03  0.00000000000E+00 0. -1.
         21   -1    0    0  503  502 -0.00000000000E+00 -0.00000000000E+00 -0.37597854804E+03  0.37597854804E+03  0.00000000000E+00 0. -1.
         21    1    1    2  503  501 -0.38567326944E+02  0.19746798256E+02 -0.86940569741E+02  0.97139268146E+02  0.00000000000E+00 0. -1.
         21    1    1    2  504  505 -0.65644838641E+02 -0.21877029154E+03 -0.41610263089E+02  0.23216610282E+03  0.00000000000E+00 0. -1.
         21    1    1    2  505  502  0.15058638449E+02  0.14363150819E+03 -0.90611120796E+02  0.17049090284E+03  0.00000000000E+00 0. -1.
         21    1    1    2  506  504  0.89153527137E+02  0.55391985094E+02  0.15042482495E+03  0.18342369360E+03  0.00000000000E+00 0. -1.
<scales pt_clust_3="43.32868" pt_clust_4="173.93972" pt_clust_5="14000.00000" pt_clust_6="103.68451"></scales>
<clustering>
<clus scale="   43.329">  2  3  1 -1</clus>
<clus scale="  103.685">  1  6  2 -1</clus>
<clus scale="  173.940">  1  4  2 -1</clus>
<clus scale="  103.685">  1  3  2 -1</clus>
</clustering>
</event>
<event>
 6    0  0.3446372E+002  0.1126584E+03  0.7546771E-02  0.1255725E+00
         21   -1    0    0  504  501  0.00000000000E+00  0.00000000000E+00  0.46261253288E+03  0.46261253288E+03  0.00000000000E+00 0.  1.
         21   -1    0    0  506  502 -0.00000000000E+00 -0.00000000000E+00 -0.10732153888E+03  0.10732153888E+03  0.00000000000E+00 0.  1.
         21    1    1    2  503  502 -0.31935729705E+02  0.34253170411E+02 -0.11351512696E+01  0.46845053991E+02  0.00000000000E+00 0.  1.
         21    1    1    2  504  505 -0.95198854167E+02  0.39606805215E+02  0.26362379604E+03  0.28307070970E+03  0.00000000000E+00 0.  1.
         21    1    1    2  505  503 -0.97957018164E+01  0.41151274811E+02  0.22098079761E+02  0.47725342552E+02  0.00000000000E+00 0.  1.
         21    1    1    2  506  501  0.13693028569E+03 -0.11501125044E+03  0.70704269477E+02  0.19229296552E+03  0.00000000000E+00 0.  1.
<scales pt_clust_3="92.21776" pt_clust_4="112.65845" pt_clust_5="31.18673" pt_clust_6="14000.00000"></scales>
<clustering>
<clus scale="   31.187">  3  5 -1 -1</clus>
<clus scale="   92.218">  2  3  1 -1</clus>
<clus scale="  112.658">  1  4  2 -1</clus>
<clus scale="  112.658">  1  3  2 -1</clus>
</clustering>
</event>
<event>
 6    0  0.3446372E+002  0.1547041E+03  0.7546771E-02  0.1194809E+00
         21   -1    0    0  505  501  0.00000000000E+00  0.00000000000E+00  0.69148676576E+03  0.69148676576E+03  0.00000000000E+00 0. -1.
         21   -1    0    0  506  502 -0.00000000000E+00 -0.00000000000E+00 -0.33586656130E+03  0.33586656130E+03  0.00000000000E+00 0. -1.
         21    1    1    2  503  501 -0.39309502377E+02  0.22991800257E+02  0.23821377745E+03  0.24252765538E+03  0.00000000000E+00 0. -1.
         21    1    1    2  504  503 -0.19519967041E+02 -0.77569918798E+02 -0.12668984671E+03  0.14982803034E+03  0.00000000000E+00 0.  1.
         21    1    1    2  505  502  0.29727852946E+02  0.12121877021E+03  0.42345119079E+03  0.44146194227E+03  0.00000000000E+00 0. -1.
         21    1    1    2  506  504  0.29101616472E+02 -0.66640651673E+02 -0.17935491707E+03  0.19353569907E+03  0.00000000000E+00 0. -1.
<scales pt_clust_3="45.53965" pt_clust_4="55.04953" pt_clust_5="143.48030" pt_clust_6="55.04953"></scales>
<clustering>
<clus scale="   45.540">  1  3  2 -1</clus>
<clus scale="   55.050">  4  6 -1 -1</clus>
<clus scale="  143.480">  1  5  2 -1</clus>
<clus scale="   45.540">  1  3  2 -1</clus>
</clustering>
</event>
<event>
 6    0  0.3446372E+002  0.1103340E+03  0.7546771E-02  0.1259953E+00
         21   -1    0    0  505  501  0.00000000000E+00  0.00000000000E+00  0.31044768410E+03  0.31044768410E+03  0.00000000000E+00 0.  1.
         21   -1    0    0  506  502 -0.00000000000E+00 -0.00000000000E+00 -0.97562353237E+03  0.97562353237E+03  0.00000000000E+00 0. -1.
         21    1    1    2  503  504  0.55102998641E+01 -0.57080017562E+02  0.22286837441E+02  0.61523937883E+02  0.00000000000E+00 0. -1.
         21    1    1    2  504  502  0.72980913436E+02  0.91240971636E+02 -0.85467914320E+03  0.86262828985E+03  0.00000000000E+00 0. -1.
         21    1    1    2  505  503 -0.33525517138E+02 -0.14703755052E+02  0.25702296534E+03  0.25961695905E+03  0.00000000000E+00 0.  1.
         21    1    1    2  506  501 -0.44965696162E+02 -0.19457199022E+02 -0.89806507851E+02  0.10230202968E+03  0.00000000000E+00 0. -1.
<scales pt_clust_3="110.33403" pt_clust_4="14000.00000" pt_clust_5="36.60821" pt_clust_6="53.38248"></scales>
<clustering>
<clus scale="   36.608">  1  5  2 -1</clus>
<clus scale="   53.382">  1  6  2 -1</clus>
<clus scale="  110.334">  1  3  2 -1</clus>
<clus scale="   36.608">  1  3  2 -1</clus>
</clustering>
</event>
<event>
 6    0  0.3446372E+002  0.1631221E+03  0.7546771E-02  0.1185216E+00
         21   -1    0    0  506  501  0.00000000000E+00  0.00000000000E+00  0.82092076854E+03  0.82092076854E+03  0.00000000000E+00 0.  1.
         21   -1    0    0  503  502 -0.00000000000E+00 -0.00000000000E+00 -0.17520751519E+04  0.17520751519E+04  0.00000000000E+00 0. -1.
         21    1    1    2  503  504  0.12939116822E+03 -0.72518458932E+02 -0.66829190070E+03  0.68455464781E+03  0.00000000000E+00 0. -1.
         21    1    1    2  504  501  0.41200730013E+02  0.58852187454E+02  0.80389239488E+03  0.80709606780E+03  0.00000000000E+00 0.  1.
         21    1    1    2  505  502 -0.10191898137E+03  0.30220139336E+02 -0.62385227876E+03  0.63284468972E+03  0.00000000000E+00 0. -1.
         21    1    1    2  506  505 -0.68672916870E+02 -0.16553867858E+02 -0.44290259879E+03  0.44850051512E+03  0.00000000000E+00 0. -1.
<scales pt_clust_3="156.70262" pt_clust_4="71.84066" pt_clust_5="36.93650" pt_clust_6="36.93650"></scales>
<clustering>
<clus scale="   36.936">  5  6 -1 -1</clus>
<clus scale="   71.841">  1  4  2 -1</clus>
<clus scale="  156.703">  1  3  2 -1</clus>
<clus scale="   71.841">  1  3  2 -1</clus>
</clustering>
</event>
<event>
 6    0  0.3446372E+002  0.9669896E+02  0.7546771E-02  0.1287395E+00
         21   -1    0    0  505  501  0.00000000000E+00  0.00000000000E+00  0.59615689444E+03  0.59615689444E+03  0.00000000000E+00 0.  1.
         21   -1    0    0  506  502 -0.00000000000E+00 -0.00000000000E+00 -0.51193431349E+03  0.51193431349E+03  0.00000000000E+00 0.  1.
         21    1    1    2  503  501  0.23325236793E+02 -0.96951977506E+02  0.54341148381E+03  0.55248510691E+03  0.00000000000E+00 0.  1.
         21    1    1    2  504  503  0.50425166205E+02  0.13214171475E+02 -0.19451039620E+03  0.20137429316E+03  0.00000000000E+00 0.  1.
         21    1    1    2  505  502 -0.81672544745E+02  0.43673905257E+02 -0.65012297547E+01  0.92844388920E+02  0.00000000000E+00 0.  1.
         21    1    1    2  506  504  0.79221417476E+01  0.40063900775E+02 -0.25817727691E+03  0.26138741895E+03  0.00000000000E+00 0.  1.
<scales pt_clust_3="14000.00000" pt_clust_4="72.13532" pt_clust_5="96.69896" pt_clust_6="40.83964"></scales>
<clustering>
<clus scale="   40.840">  2  6  1 -1</clus>
<clus scale="   72.135">  2  4  1 -1</clus>
<clus scale="   96.699">  2  5  1 -1</clus>
<clus scale="   96.699">  1  3  2 -1</clus>
</clustering>
</event>
<event>
 6    0  0.3446372E+002  0.4620931E+03  0.7546771E-02  0.1024176E+00
         21   -1    0    0  506  501  0.00000000000E+00  0.00000000000E+00  0.47009945045E+03  0.47009945045E+03  0.00000000000E+00 0.  1.
         21   -1    0    0  504  502 -0.00000000000E+00 -0.00000000000E+00 -0.91265290700E+03  0.91265290700E+03  0.00000000000E+00 0. -1.
         21    1    1    2  503  505  0.28075849253E+03  0.24652736372E+03 -0.13208598482E+03  0.39629254292E+03  0.00000000000E+00 0.  1.
         21    1    1    2  504  501 -0.28077959035E+03 -0.32998555336E+03 -0.55228693441E+03  0.70196047018E+03  0.00000000000E+00 0. -1.
         21    1    1    2  505  502  0.30598006128E+02  0.60240207312E+02  0.38866655782E+02  0.77947017183E+02  0.00000000000E+00 0. -1.
         21    1    1    2  506  503 -0.30576908310E+02  0.23217982330E+02  0.20295280690E+03  0.20655232715E+03  0.00000000000E+00 0.  1.
<scales pt_clust_3="68.76024" pt_clust_4="434.01148" pt_clust_5="68.76024" pt_clust_6="38.39299"></scales>
<clustering>
<clus scale="   38.393">  1  6  2 -1</clus>
<clus scale="   68.760">  3  5 -1 -1</clus>
<clus scale="  434.011">  2  4  1 -1</clus>
<clus scale="   38.393">  1  3  2 -1</clus>
</clustering>
</event>
<event>
 6    0  0.3446372E+002  0.1056008E+03  0.7546771E-02  0.1268940E+00
         21   -1    0    0  503  501  0.00000000000E+00  0.00000000000E+00  0.12889909683E+03  0.12889909683E+03  0.00000000000E+00 0.  1.
         21   -1    0    0  505  502 -0.00000000000E+00 -0.00000000000E+00 -0.69694371676E+03  0.69694371676E+03  0.00000000000E+00 0. -1.
         21    1    1    2  503  504  0.87681428521E+02  0.48861796684E+02  0.59819499305E+02  0.11684982062E+03  0.00000000000E+00 0.  1.
         21    1    1    2  504  506 -0.12028644488E+03 -0.43158015814E+02 -0.78243769144E+02  0.14984502181E+03  0.00000000000E+00 0. -1.
         21    1    1    2  505  501  0.52730346231E+02  0.25182457756E+02 -0.43066689508E+03  0.43461318447E+03  0.00000000000E+00 0. -1.
         21    1    1    2  506  502 -0.20125329873E+02 -0.30886238626E+02 -0.11895345501E+03  0.12453478670E+03  0.00000000000E+00 0. -1.
<scales pt_clust_3="105.60077" pt_clust_4="14000.00000" pt_clust_5="37.64355" pt_clust_6="36.86446"></scales>
<clustering>
<clus scale="   36.864">  2  6  1 -1</clus>
<clus scale="   37.644">  2  5  1 -1</clus>
<clus scale="  105.601">  1  3  2 -1</clus>
<clus scale="  105.601">  1  3  2 -1</clus>
</clustering>
</event>
<event>
 6    0  0.3446372E+002  0.1145763E+03  0.7546771E-02  0.1252323E+00
         21   -1    0    0  503  501  0.00000000000E+00  0.00000000000E+00  0.10865793855E+02  0.10865793855E+02  0.00000000000E+00 0. -1.
         21   -1    0    0  501  502 -0.00000000000E+00 -0.00000000000E+00 -0.23148883790E+04  0.23148883790E+04  0.00000000000E+00 0.  1.
         21    1    1    2  503  504  0.41710044586E+02 -0.27977494256E+02 -0.23296196205E+03  0.23831438011E+03  0.00000000000E+00 0. -1.
         21    1    1    2  504  506 -0.52320660992E+02 -0.78666226939E+02 -0.35907949681E+03  0.37130029876E+03  0.00000000000E+00 0. -1.
         21    1    1    2  505  502 -0.13846575686E+02  0.59438855503E+02 -0.11598852853E+04  0.11614898107E+04  0.00000000000E+00 0.  1.
         21    1    1    2  506  505  0.24457192092E+02  0.47204865691E+02 -0.55209584094E+03  0.55464968329E+03  0.00000000000E+00 0.  1.
<scales pt_clust_3="50.22418" pt_clust_4="101.77329" pt_clust_5="49.12142" pt_clust_6="49.12142"></scales>
<clustering>
<clus scale="   49.121">  5  6 -1 -1</clus>
<clus scale="   50.224">  1  3  2 -1</clus>
<clus scale="  101.773">  1  4  2 -1</clus>
<clus scale="   50.224">  1  3  2 -1</clus>
</clustering>
</event>
<event>
 6    0  0.3446372E+002  0.1254406E+03  0.7546771E-02  0.1234382E+00
         21   -1    0    0  506  501  0.00000000000E+00  0.00000000000E+00  0.11759990348E+03  0.11759990348E+03  0.00000000000E+00 0. -1.
         21   -1    0    0  504  502 -0.00000000000E+00 -0.00000000000E+00 -0.55978695888E+03  0.55978695888E+03  0.00000000000E+00 0.  1.
         21    1    1    2  503  502  0.25903769015E+02  0.10874388145E+03 -0.24744034576E+03  0.27151972620E+03  0.00000000000E+00 0. -1.
         21    1    1    2  504  505 -0.89208967398E+02 -0.13056920649E+03 -0.24316247500E+03  0.29005955732E+03  0.00000000000E+00 0.  1.
         21    1    1    2  505  501  0.33282432034E+02  0.24527992043E+02  0.68198290741E+02  0.79751799577E+02  0.00000000000E+00 0. -1.
         21    1    1    2  506  503  0.30022766349E+02 -0.27026670036E+01 -0.19782525377E+02  0.36055779266E+02  0.00000000000E+00 0. -1.
<scales pt_clust_3="125.44063" pt_clust_4="14000.00000" pt_clust_5="58.18327" pt_clust_6="30.14417"></scales>
<clustering>
<clus scale="   30.144">  1  6  2 -1</clus>
<clus scale="   58.183">  1  5  2 -1</clus>
<clus scale="  125.441">  2  3  1 -1</clus>
<clus scale="   30.144">  1  3  2 -1</clus>
</clustering>
</event>
<event>
 6    0  0.3983175E+002  0.1553540E+03  0.7546771E-02  0.1194044E+00
         21   -1    0    0  504  501  0.00000000000E+00  0.00000000000E+00  0.18476542902E+03  0.18476542902E+03  0.00000000000E+00 0.  1.
         21   -1    0    0  503  502 -0.00000000000E+00 -0.00000000000E+00 -0.26196636646E+04  0.26196636646E+04  0.00000000000E+00 0. -1.
         21    1    1    2  503  501 -0.13223259811E+02  0.43313040444E+02 -0.76346609994E+02  0.88767555616E+02  0.00000000000E+00 0. -1.
         21    1    1    2  504  505 -0.13143844992E+03 -0.88121890286E+02  0.14060162716E+03  0.21168455594E+03  0.00000000000E+00 0.  1.
         21    1    1    2  505  506  0.81629034861E+02  0.12217203630E+02 -0.15338088283E+04  0.15360280210E+04  0.00000000000E+00 0. -1.
         21    1    1    2  506  502  0.63032674871E+02  0.32591646212E+02 -0.96534442443E+03  0.96794896110E+03  0.00000000000E+00 0. -1.
<scales pt_clust_3="45.28658" pt_clust_4="151.44627" pt_clust_5="32.10491" pt_clust_6="32.10491"></scales>
<clustering>
<clus scale="   32.105">  5  6 -1 -1</clus>
<clus scale="   45.287">  1  3  2 -1</clus>
<clus scale="  151.446">  1  4  2 -1</clus>
<clus scale="   45.287">  1  3  2 -1</clus>
</clustering>
</event>
<event>
 6    0  0.3446372E+002  0.1560803E+03  0.7546771E-02  0.1193194E+00
         21   -1    0    0  504  501  0.00000000000E+00  0.00000000000E+00  0.80943857458E+02  0.80943857458E+02  0.00000000000E+00 0. -1.
         21   -1    0    0  503  502 -0.00000000000E+00 -0.00000000000E+00 -0.12264910941E+04  0.12264910941E+04  0.00000000000E+00 0. -1.
         21    1    1    2  503  505  0.71909408969E+02 -0.52075480181E+02 -0.49115096895E+03  0.49911130325E+03  0.00000000000E+00 0. -1.
         21    1    1    2  504  502 -0.52194493990E+01 -0.34364432340E+02  0.96956773168E+01  0.36085495988E+02  0.00000000000E+00 0. -1.
         21    1    1    2  505  506  0.59493049966E+02  0.90938991841E+01 -0.61257813852E+03  0.61552749556E+03  0.00000000000E+00 0. -1.
         21    1    1    2  506  501 -0.12618300954E+03  0.77346013336E+02 -0.51513806450E+02  0.15671065672E+03  0.00000000000E+00 0. -1.
<scales pt_clust_3="58.23529" pt_clust_4="34.75855" pt_clust_5="58.23529" pt_clust_6="138.82858"></scales>
<clustering>
<clus scale="   34.759">  1  4  2 -1</clus>
<clus scale="   58.235">  3  5 -1 -1</clus>
<clus scale="  138.829">  1  6  2 -1</clus>
<clus scale="   34.759">  1  3  2 -1</clus>
</clustering>
</event>
<event>
 6    0  0.3446372E+002  0.9236373E+02  0.7546771E-02  0.1297226E+00
         21   -1    0    0  504  501  0.00000000000E+00  0.00000000000E+00  0.53289193303E+02  0.53289193303E+02  0.00000000000E+00 0.  1.
         21   -1    0    0  505  502 -0.00000000000E+00 -0.00000000000E+00 -0.10093019408E+04  0.10093019408E+04  0.00000000000E+00 0. -1.
         21    1    1    2  503  501  0.56196315561E+02  0.50353522701E+02 -0.78100094137E+02  0.10859616860E+03  0.00000000000E+00 0.  1.
         21    1    1    2  504  502 -0.80339719634E+02  0.50001239351E+02 -0.34472198657E+02  0.10071209941E+03  0.00000000000E+00 0.  1.
         21    1    1    2  505  506 -0.93470677915E+01 -0.40408834642E+02 -0.12793880569E+03  0.13449379017E+03  0.00000000000E+00 0. -1.
         21    1    1    2  506  503  0.33490471864E+02 -0.59945927410E+02 -0.71550164905E+03  0.71878907596E+03  0.00000000000E+00 0. -1.
<scales pt_clust_3="71.89329" pt_clust_4="92.36373" pt_clust_5="41.47580" pt_clust_6="14000.00000"></scales>
<clustering>
<clus scale="   41.476">  2  5  1 -1</clus>
<clus scale="   71.893">  1  3  2 -1</clus>
<clus scale="   92.364">  1  4  2 -1</clus>
<clus scale="   71.893">  1  3  2 -1</clus>
</clustering>
</event>
<event>
 6    0  0.3446372E+002  0.1320765E+03  0.7546771E-02  0.1224407E+00
         21   -1    0    0  505  501  0.00000000000E+00  0.00000000000E+00  0.27288882093E+03  0.27288882093E+03  0.00000000000E+00 0.  1.
         21   -1    0    0  504  502 -0.00000000000E+00 -0.00000000000E+00 -0.16755102083E+03  0.16755102083E+03  0.00000000000E+00 0.  1.
         21    1    1    2  503  506  0.19997500929E+02 -0.64230535808E+02 -0.33790778447E+02  0.75281328904E+02  0.00000000000E+00 0.  1.
         21    1    1    2  504  501 -0.78548167502E+02  0.11026416702E+03  0.15192559863E+03  0.20349296957E+03  0.00000000000E+00 0.  1.
         21    1    1    2  505  503  0.37462731146E+02  0.10323193521E+02  0.57331540760E+02  0.69259873774E+02  0.00000000000E+00 0.  1.
         21    1    1    2  506  502  0.21087935427E+02 -0.56356824732E+02 -0.70128560838E+02  0.92405669521E+02  0.00000000000E+00 0.  1.
<scales pt_clust_3="31.23009" pt_clust_4="127.88204" pt_clust_5="38.85903" pt_clust_6="31.23009"></scales>
<clustering>
<clus scale="   31.230">  3  6 -1 -1</clus>
<clus scale="   38.859">  1  5  2 -1</clus>
<clus scale="  127.882">  1  4  2 -1</clus>
<clus scale="   38.859">  1  3  2 -1</clus>
</clustering>
</event>
<event>
 6    0  0.3446372E+002  0.1053022E+03  0.7546771E-02  0.1269525E+00
         21   -1    0    0  503  501  0.00000000000E+00  0.00000000000E+00  0.88345404020E+02  0.88345404020E+02  0.00000000000E+00 0.  1.
         21   -1    0    0  506  502 -0.00000000000E+00 -0.00000000000E+00 -0.70095341042E+03  0.70095341042E+03  0.00000000000E+00 0. -1.
         21    1    1    2  503  504 -0.12165782367E+03 -0.44030981181E+02  0.28854070769E+01  0.12941282370E+03  0.00000000000E+00 0.  1.
         21    1    1    2  504  505  0.60119413948E+02  0.23633524099E+02 -0.30239040047E+03  0.30921326248E+03  0.00000000000E+00 0. -1.
         21    1    1    2  505  502  0.32823344730E+02 -0.94638643682E+01 -0.30688569735E+03  0.30878110034E+03  0.00000000000E+00 0. -1.
         21    1    1    2  506  501  0.28715064989E+02  0.29861321450E+02 -0.62173156506E+01  0.41891627922E+02  0.00000000000E+00 0.  1.
<scales pt_clust_3="96.06256" pt_clust_4="31.36689" pt_clust_5="31.36689" pt_clust_6="41.42769"></scales>
<clustering>
<clus scale="   31.367">  4  5 -1 -1</clus>
<clus scale="   41.428">  1  6  2 -1</clus>
<clus scale="   96.063">  1  3  2 -1</clus>
<clus scale="   41.428">  1  3  2 -1</clus>
</clustering>
</event>
<event>
 6    0  0.3446372E+002  0.1118064E+03  0.7546771E-02  0.1257261E+00
         21   -1    0    0  506  501  0.00000000000E+00  0.00000000000E+00  0.16065491835E+03  0.16065491835E+03  0.00000000000E+00 0.  1.
         21   -1    0    0  503  502 -0.00000000000E+00 -0.00000000000E+00 -0.54595372899E+03  0.54595372899E+03  0.00000000000E+00 0. -1.
         21    1    1    2  503  504  0.19668365491E+02  0.41710247536E+02 -0.10100165867E+03  0.11103118663E+03  0.00000000000E+00 0. -1.
         21    1    1    2  504  501 -0.11507779442E+03  0.17402683123E+02  0.10197179098E+03  0.15473848359E+03  0.00000000000E+00 0.  1.
         21    1    1    2  505  502 -0.65055071954E+00 -0.78507898079E+02 -0.30056995667E+03  0.31065448995E+03  0.00000000000E+00 0. -1.
         21    1    1    2  506  505  0.96059979645E+02  0.19394967419E+02 -0.85698986286E+02  0.13018448717E+03  0.00000000000E+00 0. -1.
<scales pt_clust_3="46.11496" pt_clust_4="111.80639" pt_clust_5="51.21366" pt_clust_6="14000.00000"></scales>
<clustering>
<clus scale="   46.115">  2  3  1 -1</clus>
<clus scale="   51.214">  2  5  1 -1</clus>
<clus scale="  111.806">  1  4  2 -1</clus>
<clus scale="  111.806">  1  3  2 -1</clus>
</clustering>
</event>
<event>
 6    0  0.3446372E+002  0.1210297E+03  0.7546771E-02  0.1241408E+00
         21   -1    0    0  505  501  0.00000000000E+00  0.00000000000E+00  0.39395793796E+03  0.39395793796E+03  0.00000000000E+00 0. -1.
         21   -1    0    0  504  502 -0.00000000000E+00 -0.00000000000E+00 -0.10863157941E+04  0.10863157941E+04  0.00000000000E+00 0. -1.
         21    1    1    2  503  501 -0.83782229349E+01  0.46099586799E+02  0.53546803557E+02  0.71152137661E+02  0.00000000000E+00 0. -1.
         21    1    1    2  504  503  0.83917876187E+02  0.81506524843E+02 -0.22893328396E+03  0.25709136905E+03  0.00000000000E+00 0. -1.
         21    1    1    2  505  506 -0.47467911757E+02 -0.32275702587E+01  0.31083821052E+03  0.31445828496E+03  0.00000000000E+00 0. -1.
         21    1    1    2  506  502 -0.28071741495E+02 -0.12437854138E+03 -0.82780958629E+03  0.83757194042E+03  0.00000000000E+00 0. -1.
<scales pt_clust_3="46.85474" pt_clust_4="121.02972" pt_clust_5="68.44317" pt_clust_6="14000.00000"></scales>
<clustering>
<clus scale="   46.855">  1  3  2 -1</clus>
<clus scale="   68.443">  1  5  2 -1</clus>
<clus scale="  121.030">  1  4  2 -1</clus>
<clus scale="   46.855">  1  3  2 -1</clus>
</clustering>
</event>
<event>
 6    0  0.3446372E+002  0.1082304E+03  0.7546771E-02  0.1263882E+00
         21   -1    0    0  503  501  0.00000000000E+00  0.00000000000E+00  0.10967721941E+04  0.10967721941E+04  0.00000000000E+00 0. -1.
         21   -1    0    0  504  502 -0.00000000000E+00 -0.00000000000E+00 -0.28178899647E+04  0.28178899647E+04  0.00000000000E+00 0.  1.
         21    1    1    2  503  505 -0.11118811803E+03 -0.41305321132E+01  0.10457284737E+04  0.10516310663E+04  0.00000000000E+00 0. -1.
         21    1    1    2  504  501 -0.13950608571E+01 -0.55121063503E+02 -0.57852082589E+03  0.58114251593E+03  0.00000000000E+00 0.  1.
         21    1    1    2  505  506  0.75767664518E+02  0.80166875753E+01  0.15005833157E+02  0.77654241964E+02  0.00000000000E+00 0. -1.
         21    1    1    2  506  502  0.36815514366E+02  0.51234908041E+02 -0.22033312516E+04  0.22042343346E+04  0.00000000000E+00 0.  1.
<scales pt_clust_3="108.23038" pt_clust_4="55.13871" pt_clust_5="14000.00000" pt_clust_6="35.57213"></scales>
<clustering>
<clus scale="   55.139">  2  4  1 -1</clus>
<clus scale="   35.572">  2  6  1 -1</clus>
<clus scale="  108.230">  1  3  2 -1</clus>
<clus scale="  108.230">  1  3  2 -1</clus>
</clustering>
</event>
<event>
 6    0  0.3446372E+002  0.1254709E+03  0.7546771E-02  0.1234335E+00
         21   -1    0    0  503  501  0.00000000000E+00  0.00000000000E+00  0.36408007823E+04  0.36408007823E+04  0.00000000000E+00 0.  1.
         21   -1    0    0  504  502 -0.00000000000E+00 -0.00000000000E+00 -0.21807563991E+02  0.21807563991E+02  0.00000000000E+00 0. -1.
         21    1    1    2  503  506  0.64233190473E+02 -0.10789500999E+03  0.27758622990E+04  0.27787009085E+04  0.00000000000E+00 0.  1.
         21    1    1    2  504  501  0.22789547081E+01  0.43224941191E+02  0.48040058909E+02  0.64664027368E+02  0.00000000000E+00 0. -1.
         21    1    1    2  505  502  0.29581558072E+02 -0.22336981107E+02  0.46279076766E+02  0.59293863504E+02  0.00000000000E+00 0. -1.
         21    1    1    2  506  505 -0.96093703253E+02  0.87007049908E+02  0.74881178360E+03  0.75994954688E+03  0.00000000000E+00 0. -1.
<scales pt_clust_3="14000.00000" pt_clust_4="36.10123" pt_clust_5="37.06763" pt_clust_6="125.47087"></scales>
<clustering>
<clus scale="   37.068">  2  5  1 -1</clus>
<clus scale="   36.101">  2  4  1 -1</clus>
<clus scale="  125.471">  2  6  1 -1</clus>
<clus scale="  125.471">  1  3  2 -1</clus>
</clustering>
</event>
<event>
 6    0  0.3446372E+002  0.1460082E+03  0.7546771E-02  0.1205466E+00
         21   -1    0    0  503  501  0.00000000000E+00  0.00000000000E+00  0.16604833942E+04  0.16604833942E+04  0.00000000000E+00 0.  1.
         21   -1    0    0  506  502 -0.00000000000E+00 -0.00000000000E+00 -0.24520401553E+03  0.24520401553E+03  0.00000000000E+00 0. -1.
         21    1    1    2  503  505 -0.52021410604E+02 -0.13775400219E+03  0.16033082114E+04  0.16100557795E+04  0.00000000000E+00 0.  1.
         21    1    1    2  504  502  0.32107303892E+02  0.44632015555E+01 -0.95536686826E+02  0.10088636013E+03  0.00000000000E+00 0. -1.
         21    1    1    2  505  504 -0.20902890677E+02  0.11564837237E+03 -0.93636342522E+02  0.15026390622E+03  0.00000000000E+00 0. -1.
         21    1    1    2  506  501  0.40816997389E+02  0.17642428264E+02  0.11441966337E+01  0.44481363927E+02  0.00000000000E+00 0. -1.
<scales pt_clust_3="146.00820" pt_clust_4="32.41603" pt_clust_5="14000.00000" pt_clust_6="49.08878"></scales>
<clustering>
<clus scale="   32.416">  2  4  1 -1</clus>
<clus scale="   49.089">  2  6  1 -1</clus>
<clus scale="  146.008">  1  3  2 -1</clus>
<clus scale="  146.008">  1  3  2 -1</clus>
</clustering>
</event>
<event>
 6    0  0.3446372E+002  0.1491707E+03  0.7546771E-02  0.1201496E+00
         21   -1    0    0  504  501  0.00000000000E+00  0.00000000000E+00  0.33314875148E+02  0.33314875148E+02  0.00000000000E+00 0.  1.
         21   -1    0    0  503  502 -0.00000000000E+00 -0.00000000000E+00 -0.14526819906E+04  0.14526819906E+04  0.00000000000E+00 0.  1.
         21    1    1    2  503  501 -0.13888538775E+02 -0.13167131289E+03 -0.17929318008E+03  0.22288174122E+03  0.00000000000E+00 0.  1.
         21    1    1    2  504  505  0.59359771188E+02  0.66944882030E+02 -0.35584892032E+03  0.36692458865E+03  0.00000000000E+00 0.  1.
         21    1    1    2  505  506  0.20069534307E+02  0.74941455457E+02 -0.55020520988E+03  0.55564807292E+03  0.00000000000E+00 0.  1.
         21    1    1    2  506  502 -0.65540766720E+02 -0.10215024598E+02 -0.33401980518E+03  0.34054246297E+03  0.00000000000E+00 0.  1.
<scales pt_clust_3="135.96475" pt_clust_4="57.14108" pt_clust_5="57.14108" pt_clust_6="66.33203"></scales>
<clustering>
<clus scale="   57.141">  4  5 -1 -1</clus>
<clus scale="   66.332">  2  6  1 -1</clus>
<clus scale="  135.965">  1  3  2 -1</clus>
<clus scale="  135.965">  1  3  2 -1</clus>
</clustering>
</event>
<event>
 6    0  0.3446372E+002  0.1393974E+03  0.7546771E-02  0.1214142E+00
         21   -1    0    0  505  501  0.00000000000E+00  0.00000000000E+00  0.11244660933E+04  0.11244660933E+04  0.00000000000E+00 0.  1.
         21   -1    0    0  506  502 -0.00000000000E+00 -0.00000000000E+00 -0.49998907033E+02  0.49998907033E+02  0.00000000000E+00 0.  1.
         21    1    1    2  503  504 -0.14363312449E+03 -0.23265447185E+02  0.27351757675E+03  0.30981223390E+03  0.00000000000E+00 0.  1.
         21    1    1    2  504  502  0.13633572176E+03  0.47480814903E+01  0.13253667639E+03  0.19019974736E+03  0.00000000000E+00 0.  1.
         21    1    1    2  505  503 -0.27756354766E+02  0.29038062690E+02  0.16931131066E+03  0.17401133363E+03  0.00000000000E+00 0.  1.
         21    1    1    2  506  501  0.35053757492E+02 -0.10520696996E+02  0.49910162242E+03  0.50044168540E+03  0.00000000000E+00 0.  1.
<scales pt_clust_3="14000.00000" pt_clust_4="139.39736" pt_clust_5="31.81418" pt_clust_6="36.59851"></scales>
<clustering>
<clus scale="   36.599">  1  6  2 -1</clus>
<clus scale="   31.814">  1  5  2 -1</clus>
<clus scale="  139.397">  2  4  1 -1</clus>
<clus scale="   36.599">  1  3  2 -1</clus>
</clustering>
</event>
<event>
 6    0  0.3446372E+002  0.1138330E+03  0.7546771E-02  0.1253632E+00
         21   -1    0    0  504  501  0.00000000000E+00  0.00000000000E+00  0.56816053199E+02  0.56816053199E+02  0.00000000000E+00 0. -1.
         21   -1    0    0  503  502 -0.00000000000E+00 -0.00000000000E+00 -0.67458466203E+03  0.67458466203E+03  0.00000000000E+00 0. -1.
         21    1    1    2  503  505 -0.21290930427E+02  0.27792303140E+02 -0.22643276007E+03  0.22912335251E+03  0.00000000000E+00 0. -1.
         21    1    1    2  504  506 -0.78387250676E+02  0.65595291300E+02 -0.72303784767E+02  0.12520040176E+03  0.00000000000E+00 0. -1.
         21    1    1    2  505  501  0.12337489271E+03 -0.59627288511E+02 -0.15035089633E+03  0.20342607924E+03  0.00000000000E+00 0. -1.
         21    1    1    2  506  502 -0.23696711611E+02 -0.33760305929E+02 -0.16868116766E+03  0.17365088172E+03  0.00000000000E+00 0. -1.
<scales pt_clust_3="35.01022" pt_clust_4="14000.00000" pt_clust_5="113.83300" pt_clust_6="39.35535"></scales>
<clustering>
<clus scale="   35.010">  2  3  1 -1</clus>
<clus scale="   39.355">  2  6  1 -1</clus>
<clus scale="  113.833">  2  5  1 -1</clus>
<clus scale="  113.833">  1  3  2 -1</clus>
</clustering>
</event>
<event>
 6    0  0.3446372E+002  0.6726388E+02  0.7546771E-02  0.1369652E+00
         21   -1    0    0  506  501  0.00000000000E+00  0.00000000000E+00  0.27872947683E+03  0.27872947683E+03  0.00000000000E+00 0.  1.
         21   -1    0    0  504  502 -0.00000000000E+00 -0.00000000000E+00 -0.15212321342E+03  0.15212321342E+03  0.00000000000E+00 0. -1.
         21    1    1    2  503  502 -0.17315959316E+02 -0.43716710928E+02  0.79994432294E+01  0.47696796050E+02  0.00000000000E+00 0. -1.
         21    1    1    2  504  505 -0.38517318414E+02  0.69809235489E+02 -0.94745742528E+02  0.12382919246E+03  0.00000000000E+00 0. -1.
         21    1    1    2  505  501 -0.35650900308E+02  0.27444824967E+01  0.14569923600E+02  0.38610899376E+02  0.00000000000E+00 0. -1.
         21    1    1    2  506  503  0.91484178037E+02 -0.28837007057E+02  0.19878263910E+03  0.22071580237E+03  0.00000000000E+00 0.  1.
<scales pt_clust_3="48.33685" pt_clust_4="67.26388" pt_clust_5="35.75638" pt_clust_6="14000.00000"></scales>
<clustering>
<clus scale="   35.756">  1  5  2 -1</clus>
<clus scale="   48.337">  2  3  1 -1</clus>
<clus scale="   67.264">  2  4  1 -1</clus>
<clus scale="   35.756">  1  3  2 -1</clus>
</clustering>
</event>
<event>
 6    0  0.3446372E+002  0.8659950E+02  0.7546771E-02  0.1311302E+00
         21   -1    0    0  506  501  0.00000000000E+00  0.00000000000E+00  0.16964231720E+04  0.16964231720E+04  0.00000000000E+00 0.  1.
         21   -1    0    0  504  502 -0.00000000000E+00 -0.00000000000E+00 -0.33516286392E+03  0.33516286392E+03  0.00000000000E+00 0. -1.
         21    1    1    2  503  502 -0.58144578140E+02  0.26959443859E+02 -0.11258119146E+03  0.12954585385E+03  0.00000000000E+00 0. -1.
         21    1    1    2  504  505 -0.28598836521E+02 -0.34649268684E+02 -0.20865763818E+03  0.21343962903E+03  0.00000000000E+00 0. -1.
         21    1    1    2  505  501  0.10693237264E+03 -0.19282127386E+02  0.13654312781E+04  0.13697477534E+04  0.00000000000E+00 0.  1.
         21    1    1    2  506  503 -0.20188957976E+02  0.26971952210E+02  0.31706785969E+03  0.31885279971E+03  0.00000000000E+00 0.  1.
<scales pt_clust_3="86.59950" pt_clust_4="44.91358" pt_clust_5="14000.00000" pt_clust_6="33.69095"></scales>
<clustering>
<clus scale="   33.691">  1  6  2 -1</clus>
<clus scale="   44.914">  2  4  1 -1</clus>
<clus scale="   86.599">  2  3  1 -1</clus>
<clus scale="   33.691">  1  3  2 -1</clus>
</clustering>
</event>
<event>
 6    0  0.3446372E+002  0.8823474E+02  0.7546771E-02  0.1307184E+00
         21   -1    0    0  503  501  0.00000000000E+00  0.00000000000E+00  0.73742853408E+01  0.73742853408E+01  0.00000000000E+00 0. -1.
         21   -1    0    0  504  502 -0.00000000000E+00 -0.00000000000E+00 -0.37596135974E+04  0.37596135974E+04  0.00000000000E+00 0.  1.
         21    1    1    2  503  505  0.24108580917E+02 -0.56420804332E+02 -0.88665308865E+03  0.88877344158E+03  0.00000000000E+00 0. -1.
         21    1    1    2  504  506 -0.75910985541E+02  0.10457519431E+03 -0.15261998938E+04  0.15316607211E+04  0.00000000000E+00 0.  1.
         21    1    1    2  505  502  0.31554782691E+02 -0.15959817570E+02 -0.12341385744E+04  0.12346450668E+04  0.00000000000E+00 0. -1.
         21    1    1    2  506  501  0.20247621933E+02 -0.32194572404E+02 -0.10524775524E+03  0.11190865324E+03  0.00000000000E+00 0. -1.
<scales pt_clust_3="88.23474" pt_clust_4="14000.00000" pt_clust_5="35.36128" pt_clust_6="39.34333"></scales>
<clustering>
<clus scale="   35.361">  2  5  1 -1</clus>
<clus scale="   39.343">  1  6  2 -1</clus>
<clus scale="   88.235">  2  3  1 -1</clus>
<clus scale="   39.343">  1  3  2 -1</clus>
</clustering>
</event>
<event>
 6    0  0.3446372E+002  0.1233236E+03  0.7546771E-02  0.1237713E+00
         21   -1    0    0  504  501  0.00000000000E+00  0.00000000000E+00  0.23170899831E+03  0.23170899831E+03  0.00000000000E+00 0.  1.
         21   -1    0    0  506  502 -0.00000000000E+00 -0.00000000000E+00 -0.81685102776E+03  0.81685102776E+03  0.00000000000E+00 0. -1.
         21    1    1    2  503  505  0.26637923932E+02 -0.14001418681E+03 -0.26075955865E+03  0.29716846893E+03  0.00000000000E+00 0. -1.
         21    1    1    2  504  503 -0.16051111011E+02  0.28073788511E+02  0.19847559443E+03  0.20109285753E+03  0.00000000000E+00 0.  1.
         21    1    1    2  505  502 -0.42243725429E+02  0.10645369527E+03 -0.49403258542E+03  0.50713421993E+03  0.00000000000E+00 0. -1.
         21    1    1    2  506  501  0.31656912508E+02  0.54867030295E+01 -0.28825479814E+02  0.43164479682E+02  0.00000000000E+00 0.  1.
<scales pt_clust_3="123.32362" pt_clust_4="32.32015" pt_clust_5="14000.00000" pt_clust_6="32.12887"></scales>
<clustering>
<clus scale="   32.129">  2  6  1 -1</clus>
<clus scale="   32.320">  1  4  2 -1</clus>
<clus scale="  123.324">  1  3  2 -1</clus>
<clus scale="   32.320">  1  3  2 -1</clus>
</clustering>
</event>
<event>
 6    0  0.3446372E+002  0.8747415E+02  0.7546771E-02  0.1309086E+00
         21   -1    0    0  505  501  0.00000000000E+00  0.00000000000E+00  0.22967110329E+03  0.22967110329E+03  0.00000000000E+00 0. -1.
         21   -1    0    0  503  502 -0.00000000000E+00 -0.00000000000E+00 -0.15592599592E+03  0.15592599592E+03  0.00000000000E+00 0. -1.
         21    1    1    2  503  506  0.38387475209E+01  0.55813865983E+02 -0.21551584797E+02  0.59953268683E+02  0.00000000000E+00 0. -1.
         21    1    1    2  504  502  0.65550722812E+02 -0.48604758782E+01 -0.50662496189E+02  0.82989216210E+02  0.00000000000E+00 0. -1.
         21    1    1    2  505  504 -0.11815745627E+03 -0.64248433206E+02  0.70563250547E+02  0.15188225034E+03  0.00000000000E+00 0. -1.
         21    1    1    2  506  501  0.48767985934E+02  0.13295043101E+02  0.75395937812E+02  0.90772363975E+02  0.00000000000E+00 0. -1.
<scales pt_clust_3="58.45683" pt_clust_4="87.47415" pt_clust_5="14000.00000" pt_clust_6="50.54775"></scales>
<clustering>
<clus scale="   50.548">  1  6  2 -1</clus>
<clus scale="   58.457">  2  3  1 -1</clus>
<clus scale="   87.474">  2  4  1 -1</clus>
<clus scale="   50.548">  1  3  2 -1</clus>
</clustering>
</event>
<event>
 6    0  0.3446372E+002  0.1680254E+03  0.7546771E-02  0.1179923E+00
         21   -1    0    0  504  501  0.00000000000E+00  0.00000000000E+00  0.17462268918E+03  0.17462268918E+03  0.00000000000E+00 0. -1.
         21   -1    0    0  505  502 -0.00000000000E+00 -0.00000000000E+00 -0.50153414132E+03  0.50153414132E+03  0.00000000000E+00 0. -1.
         21    1    1    2  503  501  0.32323866381E+02  0.43875840479E+02  0.82584690276E+02  0.98945200912E+02  0.00000000000E+00 0. -1.
         21    1    1    2  504  502  0.48558781976E+02 -0.16150604695E+03 -0.39203705732E+03  0.42677302261E+03  0.00000000000E+00 0. -1.
         21    1    1    2  505  506 -0.35870607657E+02  0.71125103998E+02 -0.28851804633E+02  0.84722532675E+02  0.00000000000E+00 0. -1.
         21    1    1    2  506  503 -0.45012040700E+02  0.46505102474E+02  0.11392719534E+02  0.65716074308E+02  0.00000000000E+00 0. -1.
<scales pt_clust_3="54.49699" pt_clust_4="162.12477" pt_clust_5="39.78420" pt_clust_6="39.78420"></scales>
<clustering>
<clus scale="   39.784">  5  6 -1 -1</clus>
<clus scale="   54.497">  1  3  2 -1</clus>
<clus scale="  162.125">  2  4  1 -1</clus>
<clus scale="   54.497">  1  3  2 -1</clus>
</clustering>
</event>
<event>
 6    0  0.3446372E+002  0.1425187E+03  0.7546771E-02  0.1209979E+00
         21   -1    0    0  505  501  0.00000000000E+00  0.00000000000E+00  0.96925882398E+03  0.96925882398E+03  0.00000000000E+00 0. -1.
         21   -1    0    0  506  502 -0.00000000000E+00 -0.00000000000E+00 -0.46611348051E+03  0.46611348051E+03  0.00000000000E+00 0. -1.
         21    1    1    2  503  501 -0.40159864527E+01 -0.12241807393E+03  0.49721742889E+03  0.51208152141E+03  0.00000000000E+00 0. -1.
         21    1    1    2  504  503 -0.11318587248E+03  0.20198013742E+03  0.40257603546E+03  0.46440766786E+03  0.00000000000E+00 0. -1.
         21    1    1    2  505  502  0.86238102932E+02  0.48467934216E+02 -0.17685244268E+03  0.20263992086E+03  0.00000000000E+00 0. -1.
         21    1    1    2  506  504  0.30963756002E+02 -0.12802999770E+03 -0.21979567821E+03  0.25624319436E+03  0.00000000000E+00 0. -1.
<scales pt_clust_3="121.12656" pt_clust_4="142.51872" pt_clust_5="98.92498" pt_clust_6="14000.00000"></scales>
<clustering>
<clus scale="   98.925">  2  5  1 -1</clus>
<clus scale="  121.127">  1  3  2 -1</clus>
<clus scale="  142.519">  1  4  2 -1</clus>
<clus scale="  121.127">  1  3  2 -1</clus>
</clustering>
</event>
<event>
 6    0  0.3446372E+002  0.1918007E+03  0.7546771E-02  0.1156847E+00
         21   -1    0    0  506  501  0.00000000000E+00  0.00000000000E+00  0.27406639728E+03  0.27406639728E+03  0.00000000000E+00 0.  1.
         21   -1    0    0  504  502 -0.00000000000E+00 -0.00000000000E+00 -0.11333264865E+04  0.11333264865E+04  0.00000000000E+00 0.  1.
         21    1    1    2  503  505  0.71899504571E+02  0.17586859822E+03 -0.19973309658E+03  0.27566757602E+03  0.00000000000E+00 0.  1.
         21    1    1    2  504  503 -0.42570192883E+01 -0.19507875020E+03 -0.87434351817E+03  0.89585178950E+03  0.00000000000E+00 0.  1.
         21    1    1    2  505  501 -0.34322643383E+02  0.23153177474E+02  0.18915469907E+03  0.19363267714E+03  0.00000000000E+00 0.  1.
         21    1    1    2  506  502 -0.33319841900E+02 -0.39430254963E+01  0.25661826515E+02  0.42240841071E+02  0.00000000000E+00 0.  1.
<scales pt_clust_3="191.80071" pt_clust_4="14000.00000" pt_clust_5="64.08572" pt_clust_6="33.55234"></scales>
<clustering>
<clus scale="   33.552">  1  6  2 -1</clus>
<clus scale="   64.086">  1  5  2 -1</clus>
<clus scale="  191.801">  1  3  2 -1</clus>
<clus scale="   33.552">  1  3  2 -1</clus>
</clustering>
</event>
<event>
 6    0  0.3446372E+002  0.8285569E+02  0.7546771E-02  0.1321137E+00
         21   -1    0    0  503  501  0.00000000000E+00  0.00000000000E+00  0.35287762616E+03  0.35287762616E+03  0.00000000000E+00 0.  1.
         21   -1    0    0  504  502 -0.00000000000E+00 -0.00000000000E+00 -0.10109343015E+03  0.10109343015E+03  0.00000000000E+00 0.  1.
         21    1    1    2  503  505  0.12899673626E+00 -0.57822591682E+02  0.37056286622E+02  0.68677777535E+02  0.00000000000E+00 0.  1.
         21    1    1    2  504  506 -0.50904422384E+02  0.97506418970E+02  0.13533741929E+03  0.17439890774E+03  0.00000000000E+00 0.  1.
         21    1    1    2  505  502  0.38739727296E+02 -0.68408828422E+02 -0.39507426802E+02  0.87985061514E+02  0.00000000000E+00 0.  1.
         21    1    1    2  506  501  0.12035698352E+02  0.28725001134E+02  0.11889791689E+03  0.12290930952E+03  0.00000000000E+00 0.  1.
<scales pt_clust_3="51.35651" pt_clust_4="82.85569" pt_clust_5="14000.00000" pt_clust_6="31.14456"></scales>
<clustering>
<clus scale="   31.145">  1  6  2 -1</clus>
<clus scale="   51.357">  1  3  2 -1</clus>
<clus scale="   82.856">  1  4  2 -1</clus>
<clus scale="   31.145">  1  3  2 -1</clus>
</clustering>
</event>
<event>
 6    0  0.3446372E+002  0.9608762E+02  0.7546771E-02  0.1288745E+00
         21   -1    0    0  505  501  0.00000000000E+00  0.00000000000E+00  0.19693152794E+03  0.19693152794E+03  0.00000000000E+00 0. -1.
         21   -1    0    0  506  502 -0.00000000000E+00 -0.00000000000E+00 -0.22205861670E+03  0.22205861670E+03  0.00000000000E+00 0. -1.
         21    1    1    2  503  501 -0.11081966053E+02  0.49985966080E+02 -0.46099475275E+02  0.68895343799E+02  0.00000000000E+00 0. -1.
         21    1    1    2  504  502 -0.51448378573E+02 -0.44510324287E+02 -0.40575916636E+02  0.79211802383E+02  0.00000000000E+00 0. -1.
         21    1    1    2  505  504  0.81323590250E+02 -0.42826687763E+02  0.14836194626E+03  0.17452483667E+03  0.00000000000E+00 0. -1.
         21    1    1    2  506  503 -0.18793245623E+02  0.37351045969E+02 -0.86813643107E+02  0.96358161800E+02  0.00000000000E+00 0. -1.
<scales pt_clust_3="30.27756" pt_clust_4="68.03017" pt_clust_5="90.05714" pt_clust_6="30.27756"></scales>
<clustering>
<clus scale="   30.278">  3  6 -1 -1</clus>
<clus scale="   68.030">  2  4  1 -1</clus>
<clus scale="   90.057">  1  5  2 -1</clus>
<clus scale="   90.057">  1  3  2 -1</clus>
</clustering>
</event>
<event>
 6    0  0.3446372E+002  0.2221586E+03  0.7546771E-02  0.1132284E+00
         21   -1    0    0  503  501  0.00000000000E+00  0.00000000000E+00  0.10582632674E+04  0.10582632674E+04  0.00000000000E+00 0.  1.
         21   -1    0    0  506  502 -0.00000000000E+00 -0.00000000000E+00 -0.22230445371E+03  0.22230445371E+03  0.00000000000E+00 0.  1.
         21    1    1    2  503  504  0.69956171262E+02 -0.18588247761E+03  0.23187753277E+03  0.30530861695E+03  0.00000000000E+00 0.  1.
         21    1    1    2  504  505  0.83052250661E+02  0.39662969333E+02 -0.62571909210E+01  0.92249552380E+02  0.00000000000E+00 0.  1.
         21    1    1    2  505  502  0.11907193785E+03  0.29779547448E+02 -0.69852274304E+02  0.14122424741E+03  0.00000000000E+00 0.  1.
         21    1    1    2  506  501 -0.27208035977E+03  0.11643996083E+03  0.68019074619E+03  0.74178530442E+03  0.00000000000E+00 0.  1.
<scales pt_clust_3="198.61058" pt_clust_4="47.75200" pt_clust_5="47.75200" pt_clust_6="215.20576"></scales>
<clustering>
<clus scale="   47.752">  4  5 -1 -1</clus>
<clus scale="  198.611">  1  3  2 -1</clus>
<clus scale="  215.206">  1  6  2 -1</clus>
<clus scale="  198.611">  1  3  2 -1</clus>
</clustering>
</event>
<event>
 6    0  0.3446372E+002  0.6967949E+02  0.7546771E-02  0.1361186E+00
         21   -1    0    0  505  501  0.00000000000E+00  0.00000000000E+00  0.53761372782E+03  0.53761372782E+03  0.00000000000E+00 0. -1.
         21   -1    0    0  504  502 -0.00000000000E+00 -0.00000000000E+00 -0.35946321838E+03  0.35946321838E+03  0.00000000000E+00 0.  1.
         21    1    1    2  503  501 -0.36215741267E+02  0.22312163914E+01  0.15675745367E+02  0.39525779372E+02  0.00000000000E+00 0. -1.
         21    1    1    2  504  503  0.67245205092E+02 -0.17805815985E+02 -0.34295127986E+02  0.77557207881E+02  0.00000000000E+00 0.  1.
         21    1    1    2  505  506  0.20092830101E+02 -0.70090158816E+02  0.47699799393E+03  0.48253853566E+03  0.00000000000E+00 0. -1.
         21    1    1    2  506  502 -0.51122293926E+02  0.85664758409E+02 -0.28022810187E+03  0.29745542329E+03  0.00000000000E+00 0.  1.
<scales pt_clust_3="36.28441" pt_clust_4="68.05428" pt_clust_5="14000.00000" pt_clust_6="69.67949"></scales>
<clustering>
<clus scale="   36.284">  1  3  2 -1</clus>
<clus scale="   68.054">  2  4  1 -1</clus>
<clus scale="   69.679">  2  6  1 -1</clus>
<clus scale="   36.284">  1  3  2 -1</clus>
</clustering>
</event>
<event>
 6    0  0.3446372E+002  0.9659695E+02  0.7546771E-02  0.1287619E+00
         21   -1    0    0  505  501  0.00000000000E+00  0.00000000000E+00  0.26060289277E+04  0.26060289277E+04  0.00000000000E+00 0. -1.
         21   -1    0    0  506  502 -0.00000000000E+00 -0.00000000000E+00 -0.11017832966E+03  0.11017832966E+03  0.00000000000E+00 0. -1.
         21    1    1    2  503  501 -0.60836968124E+02  0.78167152134E+01  0.46843282316E+03  0.47243152683E+03  0.00000000000E+00 0. -1.
         21    1    1    2  504  503 -0.21743845911E+02  0.61632952751E+02 -0.37996473608E+02  0.75598595929E+02  0.00000000000E+00 0. -1.
         21    1    1    2  505  502  0.48992108074E+02 -0.10600146480E+03  0.21027954596E+04  0.21060354418E+04  0.00000000000E+00 0. -1.
         21    1    1    2  506  504  0.33588705961E+02  0.36551796831E+02 -0.37381211212E+02  0.62141692698E+02  0.00000000000E+00 0. -1.
<scales pt_clust_3="60.40365" pt_clust_4="96.59695" pt_clust_5="14000.00000" pt_clust_6="49.64106"></scales>
<clustering>
<clus scale="   49.641">  2  6  1 -1</clus>
<clus scale="   60.404">  1  3  2 -1</clus>
<clus scale="   96.597">  2  4  1 -1</clus>
<clus scale="   60.404">  1  3  2 -1</clus>
</clustering>
</event>
<event>
 6    0  0.3446372E+002  0.1022616E+03  0.7546771E-02  0.1275611E+00
         21   -1    0    0  506  501  0.00000000000E+00  0.00000000000E+00  0.12969368028E+04  0.12969368028E+04  0.00000000000E+00 0.  1.
         21   -1    0    0  504  502 -0.00000000000E+00 -0.00000000000E+00 -0.42188057150E+02  0.42188057150E+02  0.00000000000E+00 0.  1.
         21    1    1    2  503  502  0.42926947129E+02 -0.17213432016E+02  0.78420308218E+02  0.91042681049E+02  0.00000000000E+00 0.  1.
         21    1    1    2  504  505  0.56580957023E+01 -0.76702371867E+02  0.17652390488E+02  0.78910549275E+02  0.00000000000E+00 0.  1.
         21    1    1    2  505  501 -0.24026156148E+02  0.11222397153E+03  0.68858804340E+03  0.69808664898E+03  0.00000000000E+00 0.  1.
         21    1    1    2  506  503 -0.24558886683E+02 -0.18308167645E+02  0.47008800357E+03  0.47108498067E+03  0.00000000000E+00 0.  1.
<scales pt_clust_3="44.69141" pt_clust_4="14000.00000" pt_clust_5="102.26159" pt_clust_6="30.63214"></scales>
<clustering>
<clus scale="   30.632">  1  6  2 -1</clus>
<clus scale="   44.691">  2  3  1 -1</clus>
<clus scale="  102.262">  1  5  2 -1</clus>
<clus scale="   30.632">  1  3  2 -1</clus>
</clustering>
</event>
<event>
 6    0  0.3446372E+002  0.9543323E+02  0.7546771E-02  0.1290203E+00
         21   -1    0    0  503  501  0.00000000000E+00  0.00000000000E+00  0.38929171281E+03  0.38929171281E+03  0.00000000000E+00 0.  1.
         21   -1    0    0  504  502 -0.00000000000E+00 -0.00000000000E+00 -0.25991677520E+03  0.25991677520E+03  0.00000000000E+00 0. -1.
         21    1    1    2  503  506  0.27503283080E+02 -0.95214090386E+02  0.33420396975E+03  0.34858922385E+03  0.00000000000E+00 0.  1.
         21    1    1    2  504  505  0.16563523423E+02  0.45265071161E+02 -0.16004067542E+03  0.16714154111E+03  0.00000000000E+00 0. -1.
         21    1    1    2  505  501 -0.48961875001E+02 -0.15870590484E+02  0.36652791284E+01  0.51600146482E+02  0.00000000000E+00 0. -1.
         21    1    1    2  506  502  0.48950684987E+01  0.65819609709E+02 -0.48453635852E+02  0.81877576571E+02  0.00000000000E+00 0. -1.
<scales pt_clust_3="95.43323" pt_clust_4="48.20038" pt_clust_5="45.07673" pt_clust_6="14000.00000"></scales>
<clustering>
<clus scale="   48.200">  2  4  1 -1</clus>
<clus scale="   45.077">  2  5  1 -1</clus>
<clus scale="   95.433">  1  3  2 -1</clus>
<clus scale="   95.433">  1  3  2 -1</clus>
</clustering>
</event>
<event>
 6    0  0.3446372E+002  0.1044104E+03  0.7546771E-02  0.1271286E+00
         21   -1    0    0  506  501  0.00000000000E+00  0.00000000000E+00  0.33507931425E+03  0.33507931425E+03  0.00000000000E+00 0. -1.
         21   -1    0    0  505  502 -0.00000000000E+00 -0.00000000000E+00 -0.60542531963E+03  0.60542531963E+03  0.00000000000E+00 0.  1.
         21    1    1    2  503  501 -0.30345739608E+02  0.50801393124E+02  0.43342349556E+02  0.73349878805E+02  0.00000000000E+00 0. -1.
         21    1    1    2  504  502  0.44648363936E+02  0.11143673379E+03 -0.19997819060E+03  0.23324428987E+03  0.00000000000E+00 0.  1.
         21    1    1    2  505  503  0.26756965641E+02 -0.38440989776E+02 -0.35582763158E+03  0.35889684911E+03  0.00000000000E+00 0.  1.
         21    1    1    2  506  504 -0.41059589969E+02 -0.12379713714E+03  0.24211746725E+03  0.27501361610E+03  0.00000000000E+00 0. -1.
<scales pt_clust_3="56.34907" pt_clust_4="104.41038" pt_clust_5="46.83636" pt_clust_6="14000.00000"></scales>
<clustering>
<clus scale="   46.836">  2  5  1 -1</clus>
<clus scale="   56.349">  1  3  2 -1</clus>
<clus scale="  104.410">  2  4  1 -1</clus>
<clus scale="   56.349">  1  3  2 -1</clus>
</clustering>
</event>
<event>
 6    0  0.3446372E+002  0.1309820E+03  0.7546771E-02  0.1226006E+00
         21   -1    0    0  505  501  0.00000000000E+00  0.00000000000E+00  0.96710862921E+02  0.96710862921E+02  0.00000000000E+00 0.  1.
         21   -1    0    0  503  502 -0.00000000000E+00 -0.00000000000E+00 -0.84186804791E+03  0.84186804791E+03  0.00000000000E+00 0. -1.
         21    1    1    2  503  504  0.23057424518E+02 -0.70752354074E+02 -0.53377668974E+03  0.53893886011E+03  0.00000000000E+00 0. -1.
         21    1    1    2  504  501  0.43485412622E+02 -0.26905177937E+02 -0.18089302240E+03  0.18798179503E+03  0.00000000000E+00 0. -1.
         21    1    1    2  505  506 -0.55071023003E+02 -0.18656548279E+02  0.44126932974E+02  0.72993633845E+02  0.00000000000E+00 0.  1.
         21    1    1    2  506  502 -0.11471814138E+02  0.11631408029E+03 -0.74614405825E+02  0.13866462184E+03  0.00000000000E+00 0.  1.
<scales pt_clust_3="50.39568" pt_clust_4="50.39568" pt_clust_5="58.14537" pt_clust_6="116.01894"></scales>
<clustering>
<clus scale="   50.396">  3  4 -1 -1</clus>
<clus scale="   58.145">  1  5  2 -1</clus>
<clus scale="  116.019">  1  6  2 -1</clus>
<clus scale="   58.145">  1  3  2 -1</clus>
</clustering>
</event>
<event>
 6    0  0.3446372E+002  0.1148590E+03  0.7546771E-02  0.1251827E+00
         21   -1    0    0  504  501  0.00000000000E+00  0.00000000000E+00  0.25246963442E+03  0.25246963442E+03  0.00000000000E+00 0. -1.
         21   -1    0    0  503  502 -0.00000000000E+00 -0.00000000000E+00 -0.51155060905E+03  0.51155060905E+03  0.00000000000E+00 0. -1.
         21    1    1    2  503  505 -0.40905403010E+02  0.24119589582E+01 -0.95582813218E+02  0.10399588321E+03  0.00000000000E+00 0.  1.
         21    1    1    2  504  502  0.35166872244E+02 -0.59228851167E+02  0.19781113749E+03  0.20946124183E+03  0.00000000000E+00 0. -1.
         21    1    1    2  505  506 -0.70150919006E+02  0.25061395671E+02 -0.36068285182E+03  0.36829518675E+03  0.00000000000E+00 0. -1.
         21    1    1    2  506  501  0.75889449772E+02  0.31755496538E+02 -0.62644709537E+00  0.82267931681E+02  0.00000000000E+00 0. -1.
<scales pt_clust_3="31.39808" pt_clust_4="68.88226" pt_clust_5="31.39808" pt_clust_6="106.77262"></scales>
<clustering>
<clus scale="   31.398">  3  5 -1 -1</clus>
<clus scale="   68.882">  1  4  2 -1</clus>
<clus scale="  106.773">  1  6  2 -1</clus>
<clus scale="   68.882">  1  3  2 -1</clus>
</clustering>
</event>
<event>
 6    0  0.3446372E+002  0.1253382E+03  0.7546771E-02  0.1234542E+00
         21   -1    0    0  503  501  0.00000000000E+00  0.00000000000E+00  0.93765110974E+03  0.93765110974E+03  0.00000000000E+00 0.  1.
         21   -1    0    0  504  502 -0.00000000000E+00 -0.00000000000E+00 -0.45908487036E+02  0.45908487036E+02  0.00000000000E+00 0.  1.
         21    1    1    2  503  506 -0.25491276366E+02  0.20509154854E+02  0.38151391929E+03  0.38291422174E+03  0.00000000000E+00 0.  1.
         21    1    1    2  504  505  0.12841000645E+03  0.24309867351E+02  0.12766983875E+03  0.18270108684E+03  0.00000000000E+00 0.  1.
         21    1    1    2  505  501 -0.97327584757E+02 -0.80870022779E+02  0.24654595605E+03  0.27712366875E+03  0.00000000000E+00 0.  1.
         21    1    1    2  506  502 -0.55911453268E+01  0.36051000574E+02  0.13601290862E+03  0.14082061944E+03  0.00000000000E+00 0.  1.
<scales pt_clust_3="32.71744" pt_clust_4="125.33823" pt_clust_5="14000.00000" pt_clust_6="42.85974"></scales>
<clustering>
<clus scale="   32.717">  1  3  2 -1</clus>
<clus scale="   42.860">  1  6  2 -1</clus>
<clus scale="  125.338">  2  4  1 -1</clus>
<clus scale="   32.717">  1  3  2 -1</clus>
</clustering>
</event>
<event>
 6    0  0.3446372E+002  0.1051063E+03  0.7546771E-02  0.1269910E+00
         21   -1    0    0  506  501  0.00000000000E+00  0.00000000000E+00  0.64440786258E+02  0.64440786258E+02  0.00000000000E+00 0.  1.
         21   -1    0    0  503  502 -0.00000000000E+00 -0.00000000000E+00 -0.11261298740E+04  0.11261298740E+04  0.00000000000E+00 0.  1.
         21    1    1    2  503  505 -0.22732613275E+02  0.30957904284E+02 -0.29910209796E+03  0.30155800196E+03  0.00000000000E+00 0.  1.
         21    1    1    2  504  501 -0.34051239529E+02  0.23375226621E+02  0.17032771446E+02  0.44676654264E+02  0.00000000000E+00 0.  1.
         21    1    1    2  505  504  0.16182496897E+02  0.81701430082E+02 -0.42188533585E+02  0.93364175407E+02  0.00000000000E+00 0.  1.
         21    1    1    2  506  502  0.40601355907E+02 -0.13603456099E+03 -0.73743122765E+03  0.75097182863E+03  0.00000000000E+00 0.  1.
<scales pt_clust_3="38.40786" pt_clust_4="41.90988" pt_clust_5="14000.00000" pt_clust_6="105.10630"></scales>
<clustering>
<clus scale="   38.408">  2  3  1 -1</clus>
<clus scale="   41.910">  1  4  2 -1</clus>
<clus scale="  105.106">  2  6  1 -1</clus>
<clus scale="   41.910">  1  3  2 -1</clus>
</clustering>
</event>
<event>
 6    0  0.3446372E+002  0.6665664E+02  0.7546771E-02  0.1371846E+00
         21   -1    0    0  503  501  0.00000000000E+00  0.00000000000E+00  0.11048533525E+04  0.11048533525E+04  0.00000000000E+00 0.  1.
         21   -1    0    0  504  502 -0.00000000000E+00 -0.00000000000E+00 -0.50692476128E+03  0.50692476128E+03  0.00000000000E+00 0. -1.
         21    1    1    2  503  502  0.27039205866E+02  0.52789795258E+02  0.61770881522E+03  0.62054980585E+03  0.00000000000E+00 0.  1.
         21    1    1    2  504  506 -0.10290505917E+02  0.64728779663E+02 -0.39232701455E+03  0.39776399507E+03  0.00000000000E+00 0. -1.
         21    1    1    2  505  501  0.31935240581E+02 -0.37228122811E+02  0.46151374826E+03  0.46411284463E+03  0.00000000000E+00 0. -1.
         21    1    1    2  506  505 -0.48683940529E+02 -0.80290452111E+02 -0.88966957719E+02  0.12935146822E+03  0.00000000000E+00 0. -1.
<scales pt_clust_3="60.25071" pt_clust_4="14000.00000" pt_clust_5="49.04888" pt_clust_6="66.65664"></scales>
<clustering>
<clus scale="   49.049">  1  5  2 -1</clus>
<clus scale="   60.251">  1  3  2 -1</clus>
<clus scale="   66.657">  1  6  2 -1</clus>
<clus scale="   49.049">  1  3  2 -1</clus>
</clustering>
</event>
<event>
 6    0  0.3446372E+002  0.7196635E+02  0.7546771E-02  0.1353531E+00
         21   -1    0    0  505  501  0.00000000000E+00  0.00000000000E+00  0.15900430633E+04  0.15900430633E+04  0.00000000000E+00 0.  1.
         21   -1    0    0  504  502 -0.00000000000E+00 -0.00000000000E+00 -0.37004473538E+02  0.37004473538E+02  0.00000000000E+00 0.  1.
         21    1    1    2  503  501 -0.72866569771E+02  0.40674048638E+01  0.11193334637E+04  0.11217100712E+04  0.00000000000E+00 0.  1.
         21    1    1    2  504  503 -0.36179080798E+02  0.67412021038E+02  0.27500698143E+03  0.28545077737E+03  0.00000000000E+00 0.  1.
         21    1    1    2  505  506  0.48051538745E+02 -0.60181764492E+02  0.41984441996E+02  0.87712533442E+02  0.00000000000E+00 0.  1.
         21    1    1    2  506  502  0.60994111825E+02 -0.11297661410E+02  0.11671370259E+03  0.13217415482E+03  0.00000000000E+00 0.  1.
<scales pt_clust_3="71.96635" pt_clust_4="70.11974" pt_clust_5="14000.00000" pt_clust_6="62.03160"></scales>
<clustering>
<clus scale="   62.032">  2  6  1 -1</clus>
<clus scale="   70.120">  2  4  1 -1</clus>
<clus scale="   71.966">  1  3  2 -1</clus>
<clus scale="   71.966">  1  3  2 -1</clus>
</clustering>
</event>
<event>
 6    0  0.3446372E+002  0.1758574E+03  0.7546771E-02  0.1171874E+00
         21   -1    0    0  505  501  0.00000000000E+00  0.00000000000E+00  0.21865413825E+03  0.21865413825E+03  0.00000000000E+00 0.  1.
         21   -1    0    0  504  502 -0.00000000000E+00 -0.00000000000E+00 -0.72794757649E+03  0.72794757649E+03  0.00000000000E+00 0.  1.
         21    1    1    2  503  501  0.15120136352E+03 -0.77753639185E+02  0.16107666145E+03  0.23420753959E+03  0.00000000000E+00 0.  1.
         21    1    1    2  504  503 -0.29973995738E+02  0.52403535522E+02 -0.52859225977E+02  0.80241315583E+02  0.00000000000E+00 0. -1.
         21    1    1    2  505  506 -0.46568012918E+02  0.98146977310E+01 -0.37306030245E+03  0.37608363083E+03  0.00000000000E+00 0.  1.
         21    1    1    2  506  502 -0.74659354867E+02  0.15535405933E+02 -0.24445057127E+03  0.25606922873E+03  0.00000000000E+00 0.  1.
<scales pt_clust_3="167.23330" pt_clust_4="60.37028" pt_clust_5="42.97148" pt_clust_6="42.97148"></scales>
<clustering>
<clus scale="   42.971">  5  6 -1 -1</clus>
<clus scale="   60.370">  2  4  1 -1</clus>
<clus scale="  167.233">  1  3  2 -1</clus>
<clus scale="  167.233">  1  3  2 -1</clus>
</clustering>
</event>
<event>
 6    0  0.3446372E+002  0.1628251E+03  0.7546771E-02  0.1185544E+00
         21   -1    0    0  506  501  0.00000000000E+00  0.00000000000E+00  0.30995898823E+02  0.30995898823E+02  0.00000000000E+00 0. -1.
         21   -1    0    0  503  502 -0.00000000000E+00 -0.00000000000E+00 -0.20138669048E+04  0.20138669048E+04  0.00000000000E+00 0. -1.
         21    1    1    2  503  501  0.37601961227E+02 -0.35522308600E+02 -0.20765382677E+02  0.55739958863E+02  0.00000000000E+00 0. -1.
         21    1    1    2  504  505  0.91213955738E+00 -0.72268915629E+02 -0.19952792686E+03  0.21221456538E+03  0.00000000000E+00 0. -1.
         21    1    1    2  505  502 -0.79055078208E+02  0.14558734542E+03 -0.14523513167E+04  0.14617693825E+04  0.00000000000E+00 0. -1.
         21    1    1    2  506  504  0.40540977424E+02 -0.37796121193E+02 -0.31022637982E+03  0.31513889694E+03  0.00000000000E+00 0. -1.
<scales pt_clust_3="51.72757" pt_clust_4="56.15404" pt_clust_5="148.63533" pt_clust_6="56.15404"></scales>
<clustering>
<clus scale="   51.728">  1  3  2 -1</clus>
<clus scale="   56.154">  4  6 -1 -1</clus>
<clus scale="  148.635">  2  5  1 -1</clus>
<clus scale="   51.728">  1  3  2 -1</clus>
</clustering>
</event>
<event>
 6    0  0.3446372E+002  0.1228153E+03  0.7546771E-02  0.1238524E+00
         21   -1    0    0  503  501  0.00000000000E+00  0.00000000000E+00  0.11773174396E+04  0.11773174396E+04  0.00000000000E+00 0.  1.
         21   -1    0    0  504  502 -0.00000000000E+00 -0.00000000000E+00 -0.38419376308E+03  0.38419376308E+03  0.00000000000E+00 0. -1.
         21    1    1    2  503  505  0.18789184542E+00  0.34654128068E+02  0.62376120332E+03  0.62472312480E+03  0.00000000000E+00 0.  1.
         21    1    1    2  504  506 -0.55107028823E+02 -0.15077909070E+03 -0.33748105783E+03  0.37371725035E+03  0.00000000000E+00 0. -1.
         21    1    1    2  505  502 -0.97673144681E+01  0.44873212928E+02 -0.12530216318E+01  0.45941002749E+02  0.00000000000E+00 0.  1.
         21    1    1    2  506  501  0.64686451446E+02  0.71251749705E+02  0.50809655264E+03  0.51712982475E+03  0.00000000000E+00 0.  1.
<scales pt_clust_3="34.65464" pt_clust_4="122.81535" pt_clust_5="47.29126" pt_clust_6="14000.00000"></scales>
<clustering>
<clus scale="   34.655">  1  3  2 -1</clus>
<clus scale="   47.291">  2  5  1 -1</clus>
<clus scale="  122.815">  2  4  1 -1</clus>
<clus scale="   34.655">  1  3  2 -1</clus>
</clustering>
</event>
<event>
 6    0  0.3446372E+002  0.1206732E+03  0.7546771E-02  0.1241991E+00
         21   -1    0    0  506  501  0.00000000000E+00  0.00000000000E+00  0.25790923224E+03  0.25790923224E+03  0.00000000000E+00 0. -1.
         21   -1    0    0  505  502 -0.00000000000E+00 -0.00000000000E+00 -0.10719302517E+03  0.10719302517E+03  0.00000000000E+00 0. -1.
         21    1    1    2  503  501 -0.12631948427E+02 -0.10599695238E+03  0.15241196094E+03  0.18607612924E+03  0.00000000000E+00 0. -1.
         21    1    1    2  504  503  0.31443842978E+02  0.64679705710E+02  0.22076591136E+02  0.75230017069E+02  0.00000000000E+00 0. -1.
         21    1    1    2  505  504  0.49589392347E+01  0.66300500192E+02 -0.13863058539E+02  0.67915622622E+02  0.00000000000E+00 0.  1.
         21    1    1    2  506  502 -0.23770833785E+02 -0.24983253520E+02 -0.99092864682E+01  0.35880488481E+02  0.00000000000E+00 0.  1.
<scales pt_clust_3="112.33777" pt_clust_4="41.46802" pt_clust_5="41.46802" pt_clust_6="34.48500"></scales>
<clustering>
<clus scale="   34.485">  2  6  1 -1</clus>
<clus scale="   41.468">  4  5 -1 -1</clus>
<clus scale="  112.338">  1  3  2 -1</clus>
<clus scale="  112.338">  1  3  2 -1</clus>
</clustering>
</event>
<event>
 6    0  0.3446372E+002  0.2073583E+03  0.7546771E-02  0.1143675E+00
         21   -1    0    0  506  501  0.00000000000E+00  0.00000000000E+00  0.16499856777E+04  0.16499856777E+04  0.00000000000E+00 0.  1.
         21   -1    0    0  504  502 -0.00000000000E+00 -0.00000000000E+00 -0.24929903732E+03  0.24929903732E+03  0.00000000000E+00 0. -1.
         21    1    1    2  503  505  0.24547281230E+02 -0.83926893695E+02 -0.47674046120E+02  0.99594714591E+02  0.00000000000E+00 0. -1.
         21    1    1    2  504  503  0.88471237412E+02 -0.68850394586E+02 -0.14905895419E+03  0.18651034424E+03  0.00000000000E+00 0. -1.
         21    1    1    2  505  501  0.20585938825E+02  0.32251091701E+02  0.15846735898E+03  0.16302091172E+03  0.00000000000E+00 0. -1.
         21    1    1    2  506  502 -0.13360445747E+03  0.12052619658E+03  0.14389522817E+04  0.14501587445E+04  0.00000000000E+00 0.  1.
<scales pt_clust_3="73.92225" pt_clust_4="73.92225" pt_clust_5="38.26113" pt_clust_6="189.62947"></scales>
<clustering>
<clus scale="   38.261">  1  5  2 -1</clus>
<clus scale="   73.922">  3  4 -1 -1</clus>
<clus scale="  189.629">  1  6  2 -1</clus>
<clus scale="   38.261">  1  3  2 -1</clus>
</clustering>
</event>
<event>
 6    0  0.3446372E+002  0.8962411E+02  0.7546771E-02  0.1303765E+00
         21   -1    0    0  506  501  0.00000000000E+00  0.00000000000E+00  0.36824579575E+03  0.36824579575E+03  0.00000000000E+00 0. -1.
         21   -1    0    0  503  502 -0.00000000000E+00 -0.00000000000E+00 -0.14629430916E+03  0.14629430916E+03  0.00000000000E+00 0. -1.
         21    1    1    2  503  504  0.55343048341E+01 -0.89339340280E+02  0.23182608293E+03  0.24850649686E+03  0.00000000000E+00 0. -1.
         21    1    1    2  504  501 -0.49544938149E+02 -0.12152778448E+02  0.17137140284E+02  0.53815169769E+02  0.00000000000E+00 0. -1.
         21    1    1    2  505  502  0.12736592241E+02  0.88849796838E+02 -0.98444755819E+02  0.13322115871E+03  0.00000000000E+00 0. -1.
         21    1    1    2  506  505  0.31274041074E+02  0.12642321890E+02  0.71433019195E+02  0.78997279568E+02  0.00000000000E+00 0. -1.
<scales pt_clust_3="14000.00000" pt_clust_4="46.97542" pt_clust_5="89.62411" pt_clust_6="33.73268"></scales>
<clustering>
<clus scale="   33.733">  1  6  2 -1</clus>
<clus scale="   46.975">  1  4  2 -1</clus>
<clus scale="   89.624">  2  5  1 -1</clus>
<clus scale="   33.733">  1  3  2 -1</clus>
</clustering>
</event>
<event>
 6    0  0.3446372E+002  0.6260683E+02  0.7546771E-02  0.1387207E+00
         21   -1    0    0  506  501  0.00000000000E+00  0.00000000000E+00  0.12254462993E+03  0.12254462993E+03  0.00000000000E+00 0. -1.
         21   -1    0    0  505  502 -0.00000000000E+00 -0.00000000000E+00 -0.39253124105E+03  0.39253124105E+03  0.00000000000E+00 0. -1.
         21    1    1    2  503  504  0.48786915617E+02  0.59963889574E+02 -0.28712874608E+02  0.82463691140E+02  0.00000000000E+00 0. -1.
         21    1    1    2  504  501 -0.63148500194E+02 -0.61822725887E+01  0.62883420448E+02  0.89332402511E+02  0.00000000000E+00 0. -1.
         21    1    1    2  505  503  0.65807939210E+02 -0.67865005036E+02 -0.24995689487E+03  0.26723546371E+03  0.00000000000E+00 0. -1.
         21    1    1    2  506  502 -0.51446354633E+02  0.14083388051E+02 -0.54200262090E+02  0.76044313625E+02  0.00000000000E+00 0. -1.
<scales pt_clust_3="14000.00000" pt_clust_4="62.60683" pt_clust_5="62.07536" pt_clust_6="53.33919"></scales>
<clustering>
<clus scale="   53.339">  2  6  1 -1</clus>
<clus scale="   62.075">  2  5  1 -1</clus>
<clus scale="   62.607">  1  4  2 -1</clus>
<clus scale="   62.607">  1  3  2 -1</clus>
</clustering>
</event>
<event>
 6    0  0.3446372E+002  0.1955581E+03  0.7546771E-02  0.1153542E+00
         21   -1    0    0  505  501  0.00000000000E+00  0.00000000000E+00  0.12283547562E+04  0.12283547562E+04  0.00000000000E+00 0. -1.
         21   -1    0    0  504  502 -0.00000000000E+00 -0.00000000000E+00 -0.13571249271E+04  0.13571249271E+04  0.00000000000E+00 0. -1.
         21    1    1    2  503  502  0.66889249039E+00 -0.55041494821E+02 -0.22762120833E+03  0.23418246743E+03  0.00000000000E+00 0. -1.
         21    1    1    2  504  501  0.18668038628E+03 -0.71971253980E+02 -0.42982417076E+03  0.47410784194E+03  0.00000000000E+00 0. -1.
         21    1    1    2  505  506 -0.32171114741E+02 -0.12466233613E+02  0.11865338167E+04  0.11870353347E+04  0.00000000000E+00 0. -1.
         21    1    1    2  506  503 -0.15517816403E+03  0.13947898241E+03 -0.65785860846E+03  0.69015403922E+03  0.00000000000E+00 0. -1.
<scales pt_clust_3="56.05650" pt_clust_4="195.55811" pt_clust_5="34.50199" pt_clust_6="14000.00000"></scales>
<clustering>
<clus scale="   34.502">  1  5  2 -1</clus>
<clus scale="   56.057">  2  3  1 -1</clus>
<clus scale="  195.558">  1  4  2 -1</clus>
<clus scale="   34.502">  1  3  2 -1</clus>
</clustering>
</event>
<event>
 6    0  0.3446372E+002  0.8955121E+02  0.7546771E-02  0.1303942E+00
         21   -1    0    0  504  501  0.00000000000E+00  0.00000000000E+00  0.40822779403E+02  0.40822779403E+02  0.00000000000E+00 0.  1.
         21   -1    0    0  503  502 -0.00000000000E+00 -0.00000000000E+00 -0.58227249905E+03  0.58227249905E+03  0.00000000000E+00 0.  1.
         21    1    1    2  503  506 -0.41529362966E+02  0.78815050544E+02 -0.29708944111E+03  0.31015904984E+03  0.00000000000E+00 0.  1.
         21    1    1    2  504  505 -0.11520033781E+02 -0.56051968034E+02 -0.35215476125E+02  0.67191249859E+02  0.00000000000E+00 0.  1.
         21    1    1    2  505  502 -0.35135838066E+02  0.57531761769E+01 -0.70416013604E+02  0.78905266774E+02  0.00000000000E+00 0.  1.
         21    1    1    2  506  501  0.88185234813E+02 -0.28516258686E+02 -0.13872878880E+03  0.16683971197E+03  0.00000000000E+00 0.  1.
<scales pt_clust_3="89.55121" pt_clust_4="57.48072" pt_clust_5="35.60374" pt_clust_6="14000.00000"></scales>
<clustering>
<clus scale="   35.604">  2  5  1 -1</clus>
<clus scale="   57.481">  1  4  2 -1</clus>
<clus scale="   89.551">  2  3  1 -1</clus>
<clus scale="   57.481">  1  3  2 -1</clus>
</clustering>
</event>
<event>
 6    0  0.3446372E+002  0.1368897E+03  0.7546771E-02  0.1217576E+00
         21   -1    0    0  504  501  0.00000000000E+00  0.00000000000E+00  0.42424302861E+03  0.42424302861E+03  0.00000000000E+00 0. -1.
         21   -1    0    0  505  502 -0.00000000000E+00 -0.00000000000E+00 -0.40611718314E+03  0.40611718314E+03  0.00000000000E+00 0.  1.
         21    1    1    2  503  501 -0.19653266103E+03  0.95342640457E+02  0.20123613370E+03  0.29700385089E+03  0.00000000000E+00 0. -1.
         21    1    1    2  504  506  0.71039668335E+02 -0.41795961358E+02  0.14783020308E+03  0.16925515001E+03  0.00000000000E+00 0. -1.
         21    1    1    2  505  503  0.21239890987E+02 -0.34111924062E+02 -0.14039310702E+03  0.14603075304E+03  0.00000000000E+00 0.  1.
         21    1    1    2  506  502  0.10425310170E+03 -0.19434755038E+02 -0.19054738428E+03  0.21807045782E+03  0.00000000000E+00 0. -1.
<scales pt_clust_3="14000.00000" pt_clust_4="83.87710" pt_clust_5="40.18403" pt_clust_6="136.88974"></scales>
<clustering>
<clus scale="   40.184">  2  5  1 -1</clus>
<clus scale="   83.877">  1  4  2 -1</clus>
<clus scale="  136.890">  2  6  1 -1</clus>
<clus scale="   83.877">  1  3  2 -1</clus>
</clustering>
</event>
<event>
 6    0  0.3446372E+002  0.2528596E+03  0.7546771E-02  0.1111511E+00
         21   -1    0    0  504  501  0.00000000000E+00  0.00000000000E+00  0.68974946081E+03  0.68974946081E+03  0.00000000000E+00 0.  1.
         21   -1    0    0  503  502 -0.00000000000E+00 -0.00000000000E+00 -0.87499355992E+03  0.87499355992E+03  0.00000000000E+00 0. -1.
         21    1    1    2  503  501 -0.45308429779E+02  0.11878817051E+03  0.32586075495E+02  0.13124532593E+03  0.00000000000E+00 0.  1.
         21    1    1    2  504  505  0.25738132774E+03  0.24809782837E+01  0.55951331689E+03  0.61587860403E+03  0.00000000000E+00 0.  1.
         21    1    1    2  505  506 -0.14372411865E+03 -0.44514924018E+02 -0.47834613165E+03  0.50145111666E+03  0.00000000000E+00 0. -1.
         21    1    1    2  506  502 -0.68348779312E+02 -0.76754224772E+02 -0.29899735985E+03  0.31616797411E+03  0.00000000000E+00 0. -1.
<scales pt_clust_3="127.13569" pt_clust_4="243.68224" pt_clust_5="55.79191" pt_clust_6="55.79191"></scales>
<clustering>
<clus scale="   55.792">  5  6 -1 -1</clus>
<clus scale="  127.136">  1  3  2 -1</clus>
<clus scale="  243.682">  1  4  2 -1</clus>
<clus scale="  127.136">  1  3  2 -1</clus>
</clustering>
</event>
<event>
 6    0  0.3446372E+002  0.8508561E+02  0.7546771E-02  0.1315209E+00
         21   -1    0    0  504  501  0.00000000000E+00  0.00000000000E+00  0.14119850889E+04  0.14119850889E+04  0.00000000000E+00 0.  1.
         21   -1    0    0  506  502 -0.00000000000E+00 -0.00000000000E+00 -0.11504912991E+03  0.11504912991E+03  0.00000000000E+00 0.  1.
         21    1    1    2  503  505  0.10844775752E+03 -0.77996210132E+01  0.82167267128E+02  0.13628356462E+03  0.00000000000E+00 0.  1.
         21    1    1    2  504  502  0.12386340319E+02 -0.46673567440E+02  0.46180367831E+02  0.66816687264E+02  0.00000000000E+00 0.  1.
         21    1    1    2  505  501 -0.41816761449E+02  0.48276252423E+02  0.12249904072E+04  0.12266542854E+04  0.00000000000E+00 0.  1.
         21    1    1    2  506  503 -0.79017336389E+02  0.61969360297E+01 -0.56402083134E+02  0.97279681579E+02  0.00000000000E+00 0.  1.
<scales pt_clust_3="14000.00000" pt_clust_4="48.28916" pt_clust_5="63.52448" pt_clust_6="85.08561"></scales>
<clustering>
<clus scale="   48.289">  2  4  1 -1</clus>
<clus scale="   63.524">  1  5  2 -1</clus>
<clus scale="   85.086">  2  6  1 -1</clus>
<clus scale="   63.524">  1  3  2 -1</clus>
</clustering>
</event>
<event>
 6    0  0.3446372E+002  0.2294657E+03  0.7546771E-02  0.1127016E+00
         21   -1    0    0  503  501  0.00000000000E+00  0.00000000000E+00  0.31424990279E+03  0.31424990279E+03  0.00000000000E+00 0.  1.
         21   -1    0    0  504  502 -0.00000000000E+00 -0.00000000000E+00 -0.10980988752E+04  0.10980988752E+04  0.00000000000E+00 0.  1.
         21    1    1    2  503  502 -0.39517308970E+02 -0.45483296774E+02 -0.18873694171E+03  0.19812112749E+03  0.00000000000E+00 0.  1.
         21    1    1    2  504  505  0.67947925741E+02 -0.14628968778E+02 -0.24714886929E+03  0.25673622832E+03  0.00000000000E+00 0. -1.
         21    1    1    2  505  506  0.16475666243E+03  0.12389755967E+03 -0.59951510839E+03  0.63396666182E+03  0.00000000000E+00 0.  1.
         21    1    1    2  506  501 -0.19318727920E+03 -0.63785294119E+02  0.25155194693E+03  0.32352476041E+03  0.00000000000E+00 0.  1.
<scales pt_clust_3="60.25237" pt_clust_4="59.27487" pt_clust_5="59.27487" pt_clust_6="205.50863"></scales>
<clustering>
<clus scale="   59.275">  4  5 -1 -1</clus>
<clus scale="   60.252">  2  3  1 -1</clus>
<clus scale="  205.509">  1  6  2 -1</clus>
<clus scale="  205.509">  1  3  2 -1</clus>
</clustering>
</event>
<event>
 6    0  0.3446372E+002  0.9296964E+02  0.7546771E-02  0.1295816E+00
         21   -1    0    0  506  501  0.00000000000E+00  0.00000000000E+00  0.11923023651E+04  0.11923023651E+04  0.00000000000E+00 0. -1.
         21   -1    0    0  505  502 -0.00000000000E+00 -0.00000000000E+00 -0.18094096338E+02  0.18094096338E+02  0.00000000000E+00 0. -1.
         21    1    1    2  503  504 -0.28220307879E+02  0.21145746737E+02  0.19602851754E+03  0.19917506890E+03  0.00000000000E+00 0. -1.
         21    1    1    2  504  501 -0.21310888152E+02 -0.24237603975E+02  0.37816200534E+03  0.37953671453E+03  0.00000000000E+00 0. -1.
         21    1    1    2  505  503 -0.14891050628E+02  0.87752214746E+02  0.22809087604E+03  0.24484207627E+03  0.00000000000E+00 0. -1.
         21    1    1    2  506  502  0.64422246658E+02 -0.84660357508E+02  0.37192686981E+03  0.38684260169E+03  0.00000000000E+00 0. -1.
<scales pt_clust_3="36.71747" pt_clust_4="32.27407" pt_clust_5="92.96964" pt_clust_6="14000.00000"></scales>
<clustering>
<clus scale="   32.274">  1  4  2 -1</clus>
<clus scale="   36.717">  1  3  2 -1</clus>
<clus scale="   92.970">  2  5  1 -1</clus>
<clus scale="   32.274">  1  3  2 -1</clus>
</clustering>
</event>
<event>
 6    0  0.3446372E+002  0.9481971E+02  0.7546771E-02  0.1291583E+00
         21   -1    0    0  503  501  0.00000000000E+00  0.00000000000E+00  0.29607807252E+03  0.29607807252E+03  0.00000000000E+00 0. -1.
         21   -1    0    0  506  502 -0.00000000000E+00 -0.00000000000E+00 -0.31757324551E+04  0.31757324551E+04  0.00000000000E+00 0. -1.
         21    1    1    2  503  504 -0.84735931743E+02  0.42528591581E+02  0.27638275073E+03  0.29219220409E+03  0.00000000000E+00 0. -1.
         21    1    1    2  504  505  0.51392184197E+02  0.60241821081E+02 -0.14531109198E+03  0.16548579110E+03  0.00000000000E+00 0.  1.
         21    1    1    2  505  502 -0.29557202329E+02 -0.10072062420E+02 -0.64177330683E+03  0.64253252992E+03  0.00000000000E+00 0. -1.
         21    1    1    2  506  501  0.62900949875E+02 -0.92698350242E+02 -0.23689527345E+04  0.23716000025E+04  0.00000000000E+00 0. -1.
<scales pt_clust_3="14000.00000" pt_clust_4="77.54438" pt_clust_5="31.22619" pt_clust_6="94.81971"></scales>
<clustering>
<clus scale="   31.226">  2  5  1 -1</clus>
<clus scale="   77.544">  2  4  1 -1</clus>
<clus scale="   94.820">  2  6  1 -1</clus>
<clus scale="   94.820">  1  3  2 -1</clus>
</clustering>
</event>
<event>
 6    0  0.3446372E+002  0.1073873E+03  0.7546771E-02  0.1265486E+00
         21   -1    0    0  505  501  0.00000000000E+00  0.00000000000E+00  0.12945643376E+03  0.12945643376E+03  0.00000000000E+00 0.  1.
         21   -1    0    0  504  502 -0.00000000000E+00 -0.00000000000E+00 -0.21095726806E+03  0.21095726806E+03  0.00000000000E+00 0.  1.
         21    1    1    2  503  502 -0.39771408513E+02  0.44011939982E+02 -0.68418360055E+02  0.90553231796E+02  0.00000000000E+00 0.  1.
         21    1    1    2  504  506  0.92851417627E+02  0.47568651460E+01 -0.41902905957E+02  0.10197973842E+03  0.00000000000E+00 0.  1.
         21    1    1    2  505  503 -0.54814486967E+02  0.13338594797E+02 -0.28626081576E+02  0.63261351859E+02  0.00000000000E+00 0.  1.
         21    1    1    2  506  501  0.17344778528E+01 -0.62107399925E+02  0.57446513291E+02  0.84619379744E+02  0.00000000000E+00 0.  1.
<scales pt_clust_3="43.67475" pt_clust_4="97.60278" pt_clust_5="43.67475" pt_clust_6="62.13161"></scales>
<clustering>
<clus scale="   43.675">  3  5 -1 -1</clus>
<clus scale="   62.132">  1  6  2 -1</clus>
<clus scale="   97.603">  1  4  2 -1</clus>
<clus scale="   62.132">  1  3  2 -1</clus>
</clustering>
</event>
<event>
 6    0  0.3446372E+002  0.1649456E+03  0.7546771E-02  0.1183224E+00
         21   -1    0    0  506  501  0.00000000000E+00  0.00000000000E+00  0.90410227234E+03  0.90410227234E+03  0.00000000000E+00 0.  1.
         21   -1    0    0  503  502 -0.00000000000E+00 -0.00000000000E+00 -0.23613297632E+03  0.23613297632E+03  0.00000000000E+00 0.  1.
         21    1    1    2  503  505 -0.86152426939E+02  0.71876157556E+02 -0.16832806353E+03  0.20229374599E+03  0.00000000000E+00 0.  1.
         21    1    1    2  504  502 -0.47150271872E+02  0.29465047824E+02 -0.22246977326E+01  0.55644285069E+02  0.00000000000E+00 0.  1.
         21    1    1    2  505  501  0.12769112341E+03 -0.16605724555E+03  0.64526565911E+03  0.67841565624E+03  0.00000000000E+00 0.  1.
         21    1    1    2  506  504  0.56115754051E+01  0.64716040166E+02  0.19325639817E+03  0.20388156137E+03  0.00000000000E+00 0.  1.
<scales pt_clust_3="14000.00000" pt_clust_4="55.59979" pt_clust_5="164.94565" pt_clust_6="65.61939"></scales>
<clustering>
<clus scale="   55.600">  2  4  1 -1</clus>
<clus scale="   65.619">  1  6  2 -1</clus>
<clus scale="  164.946">  1  5  2 -1</clus>
<clus scale="   65.619">  1  3  2 -1</clus>
</clustering>
</event>
<event>
 6    0  0.3446372E+002  0.1335498E+03  0.7546771E-02  0.1222282E+00
         21   -1    0    0  504  501  0.00000000000E+00  0.00000000000E+00  0.34398407195E+03  0.34398407195E+03  0.00000000000E+00 0. -1.
         21   -1    0    0  505  502 -0.00000000000E+00 -0.00000000000E+00 -0.13301621989E+03  0.13301621989E+03  0.00000000000E+00 0. -1.
         21    1    1    2  503  501 -0.23262299224E+01  0.33607808479E+02  0.17915818105E+03  0.18229797030E+03  0.00000000000E+00 0. -1.
         21    1    1    2  504  502  0.70520187309E+02 -0.11264446830E+03 -0.62256411166E+02  0.14675739773E+03  0.00000000000E+00 0. -1.
         21    1    1    2  505  506 -0.50041557078E+02  0.25229711338E+02  0.35342187514E+02  0.66255309126E+02  0.00000000000E+00 0. -1.
         21    1    1    2  506  503 -0.18152400308E+02  0.53806948488E+02  0.58723894662E+02  0.81689614681E+02  0.00000000000E+00 0. -1.
<scales pt_clust_3="33.68822" pt_clust_4="125.27365" pt_clust_5="43.30028" pt_clust_6="43.30028"></scales>
<clustering>
<clus scale="   33.688">  1  3  2 -1</clus>
<clus scale="   43.300">  5  6 -1 -1</clus>
<clus scale="  125.274">  2  4  1 -1</clus>
<clus scale="   33.688">  1  3  2 -1</clus>
</clustering>
</event>
<event>
 6    0  0.3446372E+002  0.6768759E+02  0.7546771E-02  0.1368138E+00
         21   -1    0    0  504  501  0.00000000000E+00  0.00000000000E+00  0.20605036612E+03  0.20605036612E+03  0.00000000000E+00 0. -1.
         21   -1    0    0  503  502 -0.00000000000E+00 -0.00000000000E+00 -0.24977839123E+03  0.24977839123E+03  0.00000000000E+00 0. -1.
         21    1    1    2  503  501 -0.29190623120E+02  0.31666539137E+02  0.22395740999E+01  0.43126301386E+02  0.00000000000E+00 0.  1.
         21    1    1    2  504  506  0.34913305652E+01 -0.69355583134E+02  0.15284951665E+03  0.16788496371E+03  0.00000000000E+00 0. -1.
         21    1    1    2  505  502 -0.57745986991E+01  0.83913370801E+02 -0.14236498924E+03  0.16535594924E+03  0.00000000000E+00 0. -1.
         21    1    1    2  506  505  0.31473891254E+02 -0.46224326804E+02 -0.56452126612E+02  0.79461543014E+02  0.00000000000E+00 0. -1.
<scales pt_clust_3="43.06811" pt_clust_4="47.13077" pt_clust_5="14000.00000" pt_clust_6="67.68759"></scales>
<clustering>
<clus scale="   43.068">  1  3  2 -1</clus>
<clus scale="   47.131">  1  4  2 -1</clus>
<clus scale="   67.688">  1  6  2 -1</clus>
<clus scale="   43.068">  1  3  2 -1</clus>
</clustering>
</event>
<event>
 6    0  0.3446372E+002  0.1464897E+03  0.7546771E-02  0.1204854E+00
         21   -1    0    0  505  501  0.00000000000E+00  0.00000000000E+00  0.12209318075E+04  0.12209318075E+04  0.00000000000E+00 0.  1.
         21   -1    0    0  504  502 -0.00000000000E+00 -0.00000000000E+00 -0.52730891173E+02  0.52730891173E+02  0.00000000000E+00 0. -1.
         21    1    1    2  503  506  0.90230241830E+00  0.62880299492E+02  0.30675950714E+02  0.69969708918E+02  0.00000000000E+00 0. -1.
         21    1    1    2  504  501  0.86848970642E+02 -0.11538353087E+03  0.55126519594E+03  0.56986789623E+03  0.00000000000E+00 0.  1.
         21    1    1    2  505  503 -0.30986285712E+02 -0.70146688048E+01  0.53703202799E+03  0.53797096071E+03  0.00000000000E+00 0.  1.
         21    1    1    2  506  502 -0.56764987348E+02  0.59517900179E+02  0.49227741721E+02  0.95854132855E+02  0.00000000000E+00 0. -1.
<scales pt_clust_3="47.27817" pt_clust_4="135.82433" pt_clust_5="31.77036" pt_clust_6="47.27817"></scales>
<clustering>
<clus scale="   31.770">  1  5  2 -1</clus>
<clus scale="   47.278">  3  6 -1 -1</clus>
<clus scale="  135.824">  1  4  2 -1</clus>
<clus scale="   31.770">  1  3  2 -1</clus>
</clustering>
</event>
<event>
 6    0  0.3446372E+002  0.9017179E+02  0.7546771E-02  0.1302436E+00
         21   -1    0    0  505  501  0.00000000000E+00  0.00000000000E+00  0.12065017043E+04  0.12065017043E+04  0.00000000000E+00 0. -1.
         21   -1    0    0  503  502 -0.00000000000E+00 -0.00000000000E+00 -0.20750053570E+03  0.20750053570E+03  0.00000000000E+00 0.  1.
         21    1    1    2  503  506 -0.50992334281E+02 -0.29822867373E+02 -0.89919229001E+02  0.10758758905E+03  0.00000000000E+00 0.  1.
         21    1    1    2  504  501 -0.21410929768E+02  0.31293860978E+02  0.11092152541E+04  0.11098631508E+04  0.00000000000E+00 0. -1.
         21    1    1    2  505  502  0.90164089324E+02  0.72491361319E+02  0.65796380874E+01  0.11587860936E+03  0.00000000000E+00 0. -1.
         21    1    1    2  506  504 -0.17760825275E+02 -0.73962354924E+02 -0.26874494514E+02  0.80672890835E+02  0.00000000000E+00 0.  1.
<scales pt_clust_3="59.41752" pt_clust_4="37.91746" pt_clust_5="14000.00000" pt_clust_6="90.17179"></scales>
<clustering>
<clus scale="   37.917">  1  4  2 -1</clus>
<clus scale="   59.418">  2  3  1 -1</clus>
<clus scale="   90.172">  1  6  2 -1</clus>
<clus scale="   37.917">  1  3  2 -1</clus>
</clustering>
</event>
<event>
 6    0  0.3446372E+002  0.6300796E+02  0.7546771E-02  0.1385625E+00
         21   -1    0    0  504  501  0.00000000000E+00  0.00000000000E+00  0.11541787533E+04  0.11541787533E+04  0.00000000000E+00 0.  1.
         21   -1    0    0  506  502 -0.00000000000E+00 -0.00000000000E+00 -0.39519648730E+03  0.39519648730E+03  0.00000000000E+00 0.  1.
         21    1    1    2  503  505 -0.31136252175E+02 -0.92350919910E+02  0.30665243922E+03  0.32176680545E+03  0.00000000000E+00 0.  1.
         21    1    1    2  504  503  0.38002352706E+02  0.42987146981E+02  0.82170325356E+03  0.82370401876E+03  0.00000000000E+00 0.  1.
         21    1    1    2  505  502  0.57604968489E+02  0.32249722839E+02 -0.30186689619E+03  0.30900161818E+03  0.00000000000E+00 0.  1.
         21    1    1    2  506  501 -0.64471069020E+02  0.17114050090E+02 -0.67506530539E+02  0.94902798254E+02  0.00000000000E+00 0. -1.
<scales pt_clust_3="51.83370" pt_clust_4="57.37659" pt_clust_5="63.00796" pt_clust_6="14000.00000"></scales>
<clustering>
<clus scale="   57.377">  1  4  2 -1</clus>
<clus scale="   51.834">  1  3  2 -1</clus>
<clus scale="   63.008">  2  5  1 -1</clus>
<clus scale="   57.377">  1  3  2 -1</clus>
</clustering>
</event>
<event>
 6    0  0.3446372E+002  0.1252761E+03  0.7546771E-02  0.1234638E+00
         21   -1    0    0  503  501  0.00000000000E+00  0.00000000000E+00  0.98829598211E+02  0.98829598211E+02  0.00000000000E+00 0.  1.
         21   -1    0    0  506  502 -0.00000000000E+00 -0.00000000000E+00 -0.40816724580E+03  0.40816724580E+03  0.00000000000E+00 0. -1.
         21    1    1    2  503  502  0.11765357697E+03 -0.25775262977E+02  0.36369582604E+02  0.12581524111E+03  0.00000000000E+00 0.  1.
         21    1    1    2  504  505 -0.59276188993E+02  0.12816036734E+02 -0.13128665958E+03  0.14461709568E+03  0.00000000000E+00 0.  1.
         21    1    1    2  505  501 -0.34829277570E+02  0.40355136684E+02 -0.71711982872E+02  0.89354485731E+02  0.00000000000E+00 0.  1.
         21    1    1    2  506  504 -0.23548110411E+02 -0.27395910441E+02 -0.14270858774E+03  0.14721002149E+03  0.00000000000E+00 0. -1.
<scales pt_clust_3="117.65572" pt_clust_4="36.94341" pt_clust_5="36.94341" pt_clust_6="36.12547"></scales>
<clustering>
<clus scale="   36.125">  2  6  1 -1</clus>
<clus scale="   36.943">  4  5 -1 -1</clus>
<clus scale="  117.656">  1  3  2 -1</clus>
<clus scale="  117.656">  1  3  2 -1</clus>
</clustering>
</event>
<event>
 6    0  0.3446372E+002  0.9023981E+02  0.7546771E-02  0.1302272E+00
         21   -1    0    0  506  501  0.00000000000E+00  0.00000000000E+00  0.76231158895E+03  0.76231158895E+03  0.00000000000E+00 0.  1.
         21   -1    0    0  504  502 -0.00000000000E+00 -0.00000000000E+00 -0.43486185040E+02  0.43486185040E+02  0.00000000000E+00 0.  1.
         21    1    1    2  503  502 -0.33592446104E+02  0.10592283295E+02 -0.16326885273E+01  0.35260666081E+02  0.00000000000E+00 0.  1.
         21    1    1    2  504  501  0.10547042571E+03 -0.92892890223E+02  0.42784456479E+03  0.45033773034E+03  0.00000000000E+00 0.  1.
         21    1    1    2  505  503 -0.38316553679E+02  0.48944560514E+02  0.74564194946E+02  0.97074957934E+02  0.00000000000E+00 0.  1.
         21    1    1    2  506  505 -0.33561425931E+02  0.33356046414E+02  0.21804933271E+03  0.22312441963E+03  0.00000000000E+00 0.  1.
<scales pt_clust_3="35.22285" pt_clust_4="90.23981" pt_clust_5="14000.00000" pt_clust_6="50.51589"></scales>
<clustering>
<clus scale="   35.223">  2  3  1 -1</clus>
<clus scale="   50.516">  1  6  2 -1</clus>
<clus scale="   90.240">  1  4  2 -1</clus>
<clus scale="   50.516">  1  3  2 -1</clus>
</clustering>
</event>
<event>
 6    0  0.3446372E+002  0.1517210E+03  0.7546771E-02  0.1198374E+00
         21   -1    0    0  506  501  0.00000000000E+00  0.00000000000E+00  0.16048316048E+03  0.16048316048E+03  0.00000000000E+00 0. -1.
         21   -1    0    0  504  502 -0.00000000000E+00 -0.00000000000E+00 -0.20573070932E+03  0.20573070932E+03  0.00000000000E+00 0. -1.
         21    1    1    2  503  501  0.30599114646E+01 -0.55499453213E+02 -0.37320567695E+02  0.66950557415E+02  0.00000000000E+00 0. -1.
         21    1    1    2  504  505 -0.36519938577E+02 -0.99234381615E+01 -0.48331072259E+02  0.61384632313E+02  0.00000000000E+00 0. -1.
         21    1    1    2  505  503 -0.36381481845E+02 -0.69683319159E+02 -0.60783002404E+01  0.78843661280E+02  0.00000000000E+00 0. -1.
         21    1    1    2  506  502  0.69841508957E+02  0.13510621053E+03  0.46482391354E+02  0.15903501880E+03  0.00000000000E+00 0. -1.
<scales pt_clust_3="42.36511" pt_clust_4="37.84416" pt_clust_5="42.36511" pt_clust_6="142.92593"></scales>
<clustering>
<clus scale="   37.844">  2  4  1 -1</clus>
<clus scale="   42.365">  3  5 -1 -1</clus>
<clus scale="  142.926">  1  6  2 -1</clus>
<clus scale="  142.926">  1  3  2 -1</clus>
</clustering>
</event>
<event>
 6    0  0.3446372E+002  0.1048023E+03  0.7546771E-02  0.1270510E+00
         21   -1    0    0  503  501  0.00000000000E+00  0.00000000000E+00  0.11157648710E+04  0.11157648710E+04  0.00000000000E+00 0. -1.
         21   -1    0    0  505  502 -0.00000000000E+00 -0.00000000000E+00 -0.13005767026E+03  0.13005767026E+03  0.00000000000E+00 0. -1.
         21    1    1    2  503  506  0.65822353324E+02 -0.81792501793E+02  0.10018613128E+04  0.10073473511E+04  0.00000000000E+00 0. -1.
         21    1    1    2  504  501 -0.91337317310E+00  0.12730144430E+03  0.24217990917E+02  0.12958781986E+03  0.00000000000E+00 0. -1.
         21    1    1    2  505  504 -0.31934394748E+02 -0.49071671273E+02 -0.46983270859E+02  0.75068383692E+02  0.00000000000E+00 0.  1.
         21    1    1    2  506  502 -0.32974585403E+02  0.35627287673E+01  0.66111678705E+01  0.33818986669E+02  0.00000000000E+00 0.  1.
<scales pt_clust_3="14000.00000" pt_clust_4="104.80235" pt_clust_5="68.19327" pt_clust_6="33.16649"></scales>
<clustering>
<clus scale="   33.166">  2  6  1 -1</clus>
<clus scale="   68.193">  2  5  1 -1</clus>
<clus scale="  104.802">  2  4  1 -1</clus>
<clus scale="  104.802">  1  3  2 -1</clus>
</clustering>
</event>
<event>
 6    0  0.3446372E+002  0.1883448E+03  0.7546771E-02  0.1159963E+00
         21   -1    0    0  506  501  0.00000000000E+00  0.00000000000E+00  0.60937139370E+03  0.60937139370E+03  0.00000000000E+00 0.  1.
         21   -1    0    0  504  502 -0.00000000000E+00 -0.00000000000E+00 -0.10902751298E+04  0.10902751298E+04  0.00000000000E+00 0.  1.
         21    1    1    2  503  502  0.97282158829E+01 -0.14816465115E+03 -0.92059772740E+03  0.93249534997E+03  0.00000000000E+00 0.  1.
         21    1    1    2  504  505 -0.53398042136E+02 -0.35863521392E+02 -0.10452407270E+03  0.12273070049E+03  0.00000000000E+00 0. -1.
         21    1    1    2  505  501 -0.35884476196E+02 -0.40654638492E+02  0.44976627310E+01  0.54412537459E+02  0.00000000000E+00 0.  1.
         21    1    1    2  506  503  0.79554302449E+02  0.22468281103E+03  0.53972040122E+03  0.59000793563E+03  0.00000000000E+00 0.  1.
<scales pt_clust_3="188.34479" pt_clust_4="65.14753" pt_clust_5="54.22633" pt_clust_6="14000.00000"></scales>
<clustering>
<clus scale="   54.226">  1  5  2 -1</clus>
<clus scale="   65.148">  2  4  1 -1</clus>
<clus scale="  188.345">  2  3  1 -1</clus>
<clus scale="   54.226">  1  3  2 -1</clus>
</clustering>
</event>
<event>
 6    0  0.3446372E+002  0.9710135E+02  0.7546771E-02  0.1286512E+00
         21   -1    0    0  504  501  0.00000000000E+00  0.00000000000E+00  0.70799800548E+02  0.70799800548E+02  0.00000000000E+00 0. -1.
         21   -1    0    0  505  502 -0.00000000000E+00 -0.00000000000E+00 -0.52653599156E+03  0.52653599156E+03  0.00000000000E+00 0. -1.
         21    1    1    2  503  501 -0.52587758399E+02  0.88749716975E+02 -0.16947763913E+02  0.10454286823E+03  0.00000000000E+00 0. -1.
         21    1    1    2  504  502  0.10396671187E+03 -0.19678974881E+02 -0.17964592375E+03  0.20849219925E+03  0.00000000000E+00 0. -1.
         21    1    1    2  505  506  0.17247816077E+02 -0.29883978252E+02 -0.11311864232E+03  0.11826396981E+03  0.00000000000E+00 0. -1.
         21    1    1    2  506  503 -0.68626769544E+02 -0.39186763842E+02 -0.14602386103E+03  0.16603675481E+03  0.00000000000E+00 0. -1.
<scales pt_clust_3="14000.00000" pt_clust_4="97.10135" pt_clust_5="34.50419" pt_clust_6="80.04608"></scales>
<clustering>
<clus scale="   34.504">  2  5  1 -1</clus>
<clus scale="   80.046">  2  6  1 -1</clus>
<clus scale="   97.101">  2  4  1 -1</clus>
<clus scale="   97.101">  1  3  2 -1</clus>
</clustering>
</event>
<event>
 6    0  0.3446372E+002  0.1139560E+03  0.7546771E-02  0.1253414E+00
         21   -1    0    0  504  501  0.00000000000E+00  0.00000000000E+00  0.38437739375E+03  0.38437739375E+03  0.00000000000E+00 0.  1.
         21   -1    0    0  503  502 -0.00000000000E+00 -0.00000000000E+00 -0.22018139536E+03  0.22018139536E+03  0.00000000000E+00 0. -1.
         21    1    1    2  503  501 -0.42574418570E+02 -0.10659912856E+02  0.88442907078E+01  0.44770931828E+02  0.00000000000E+00 0. -1.
         21    1    1    2  504  505  0.11273394733E+03  0.24759574616E+02  0.30812091528E+03  0.32902960026E+03  0.00000000000E+00 0.  1.
         21    1    1    2  505  506 -0.96501422483E+02  0.22218867041E+02 -0.15707696575E+03  0.18568622933E+03  0.00000000000E+00 0. -1.
         21    1    1    2  506  502  0.26341893721E+02 -0.36318528801E+02  0.43077581580E+01  0.45072027682E+02  0.00000000000E+00 0.  1.
<scales pt_clust_3="43.88866" pt_clust_4="14000.00000" pt_clust_5="113.95603" pt_clust_6="43.41045"></scales>
<clustering>
<clus scale="   43.889">  2  3  1 -1</clus>
<clus scale="   43.410">  2  6  1 -1</clus>
<clus scale="  113.956">  2  5  1 -1</clus>
<clus scale="  113.956">  1  3  2 -1</clus>
</clustering>
</event>
<event>
 6    0  0.3446372E+002  0.2006290E+03  0.7546771E-02  0.1149209E+00
         21   -1    0    0  506  501  0.00000000000E+00  0.00000000000E+00  0.92036233600E+02  0.92036233600E+02  0.00000000000E+00 0.  1.
         21   -1    0    0  503  502 -0.00000000000E+00 -0.00000000000E+00 -0.39216988956E+03  0.39216988956E+03  0.00000000000E+00 0. -1.
         21    1    1    2  503  501  0.17393697902E+02  0.17849054916E+03 -0.14078297010E+03  0.22799399452E+03  0.00000000000E+00 0. -1.
         21    1    1    2  504  505 -0.21241654902E+02 -0.78565336573E+02 -0.89924891645E+02  0.12128563868E+03  0.00000000000E+00 0.  1.
         21    1    1    2  505  502 -0.16097231923E+02 -0.56554751829E+02 -0.11586174615E+02  0.59931629981E+02  0.00000000000E+00 0.  1.
         21    1    1    2  506  504  0.19945188922E+02 -0.43370460758E+02 -0.57839619599E+02  0.74994859976E+02  0.00000000000E+00 0.  1.
<scales pt_clust_3="179.33604" pt_clust_4="50.67880" pt_clust_5="50.67880" pt_clust_6="32.68779"></scales>
<clustering>
<clus scale="   32.688">  4  6 -1 -1</clus>
<clus scale="   50.679">  4  5 -1 -1</clus>
<clus scale="  179.336">  1  3  2 -1</clus>
<clus scale="  179.336">  1  3  2 -1</clus>
</clustering>
</event>
<event>
 6    0  0.3446372E+002  0.1424566E+03  0.7546771E-02  0.1210061E+00
         21   -1    0    0  506  501  0.00000000000E+00  0.00000000000E+00  0.31373719153E+04  0.31373719153E+04  0.00000000000E+00 0. -1.
         21   -1    0    0  505  502 -0.00000000000E+00 -0.00000000000E+00 -0.92012727109E+03  0.92012727109E+03  0.00000000000E+00 0.  1.
         21    1    1    2  503  501 -0.34558415895E+02 -0.29585510763E+02  0.31121020935E+04  0.31124345820E+04  0.00000000000E+00 0. -1.
         21    1    1    2  504  503 -0.29733910972E+02  0.57501633117E+02 -0.88122404673E+02  0.10934395950E+03  0.00000000000E+00 0. -1.
         21    1    1    2  505  504 -0.58324228102E+02  0.37189009543E+02 -0.16100066170E+03  0.17523113617E+03  0.00000000000E+00 0.  1.
         21    1    1    2  506  502  0.12261655497E+03 -0.65105131897E+02 -0.64573438298E+03  0.66048950871E+03  0.00000000000E+00 0.  1.
<scales pt_clust_3="45.49271" pt_clust_4="45.37610" pt_clust_5="45.37610" pt_clust_6="134.51302"></scales>
<clustering>
<clus scale="   45.376">  4  5 -1 -1</clus>
<clus scale="   45.493">  1  3  2 -1</clus>
<clus scale="  134.513">  2  6  1 -1</clus>
<clus scale="   45.493">  1  3  2 -1</clus>
</clustering>
</event>
<event>
 6    0  0.3446372E+002  0.8256235E+02  0.7546771E-02  0.1321933E+00
         21   -1    0    0  503  501  0.00000000000E+00  0.00000000000E+00  0.35262277771E+03  0.35262277771E+03  0.00000000000E+00 0.  1.
         21   -1    0    0  506  502 -0.00000000000E+00 -0.00000000000E+00 -0.21586429560E+03  0.21586429560E+03  0.00000000000E+00 0. -1.
         21    1    1    2  503  505 -0.52890555054E+02 -0.19138802691E+02  0.17062562681E+03  0.17965747718E+03  0.00000000000E+00 0.  1.
         21    1    1    2  504  501 -0.79207325632E+01 -0.60561804972E+02  0.12130460969E+03  0.13581339609E+03  0.00000000000E+00 0.  1.
         21    1    1    2  505  502 -0.37556413767E+02  0.81526993313E+02 -0.31821362957E+02  0.95235151043E+02  0.00000000000E+00 0. -1.
         21    1    1    2  506  504  0.98367701384E+02 -0.18263856494E+01 -0.12335039142E+03  0.15778104900E+03  0.00000000000E+00 0.  1.
<scales pt_clust_3="56.24682" pt_clust_4="87.61563" pt_clust_5="82.56235" pt_clust_6="14000.00000"></scales>
<clustering>
<clus scale="   56.247">  1  3  2 -1</clus>
<clus scale="   87.616">  1  4  2 -1</clus>
<clus scale="   82.562">  1  5  2 -1</clus>
<clus scale="   56.247">  1  3  2 -1</clus>
</clustering>
</event>
<event>
 6    0  0.3446372E+002  0.7859123E+02  0.7546771E-02  0.1333098E+00
         21   -1    0    0  503  501  0.00000000000E+00  0.00000000000E+00  0.57208863986E+03  0.57208863986E+03  0.00000000000E+00 0.  1.
         21   -1    0    0  504  502 -0.00000000000E+00 -0.00000000000E+00 -0.33759071840E+03  0.33759071840E+03  0.00000000000E+00 0. -1.
         21    1    1    2  503  505  0.51123081897E+02  0.26401508314E+02  0.20596910111E+03  0.21385480999E+03  0.00000000000E+00 0.  1.
         21    1    1    2  504  501  0.29503034011E+02 -0.25345718265E+02 -0.42675408745E+02  0.57741016287E+02  0.00000000000E+00 0.  1.
         21    1    1    2  505  506 -0.11346695441E+03  0.22822073761E+02  0.34365615532E+03  0.36262259979E+03  0.00000000000E+00 0.  1.
         21    1    1    2  506  502  0.32840838497E+02 -0.23877863810E+02 -0.27245192623E+03  0.27546093218E+03  0.00000000000E+00 0. -1.
<scales pt_clust_3="57.74010" pt_clust_4="38.89517" pt_clust_5="14000.00000" pt_clust_6="78.59123"></scales>
<clustering>
<clus scale="   38.895">  2  4  1 -1</clus>
<clus scale="   57.740">  1  3  2 -1</clus>
<clus scale="   78.591">  2  6  1 -1</clus>
<clus scale="   57.740">  1  3  2 -1</clus>
</clustering>
</event>
<event>
 6    0  0.3446372E+002  0.1315408E+03  0.7546771E-02  0.1225187E+00
         21   -1    0    0  503  501  0.00000000000E+00  0.00000000000E+00  0.10258257753E+03  0.10258257753E+03  0.00000000000E+00 0. -1.
         21   -1    0    0  504  502 -0.00000000000E+00 -0.00000000000E+00 -0.27397059569E+04  0.27397059569E+04  0.00000000000E+00 0.  1.
         21    1    1    2  503  502 -0.71348249712E+02  0.58376594132E+01 -0.21749238272E+04  0.21761016302E+04  0.00000000000E+00 0.  1.
         21    1    1    2  504  505 -0.30302198576E+02  0.15260870609E+02 -0.25108271080E+03  0.25336464843E+03  0.00000000000E+00 0.  1.
         21    1    1    2  505  506 -0.34221635415E+01 -0.11645375068E+03 -0.24112308813E+03  0.26779382159E+03  0.00000000000E+00 0. -1.
         21    1    1    2  506  501  0.10507261183E+03  0.95355220660E+02  0.30006246793E+02  0.14502843414E+03  0.00000000000E+00 0. -1.
<scales pt_clust_3="99.71301" pt_clust_4="33.92812" pt_clust_5="14000.00000" pt_clust_6="131.54082"></scales>
<clustering>
<clus scale="   33.928">  2  4  1 -1</clus>
<clus scale="   99.713">  2  3  1 -1</clus>
<clus scale="  131.541">  1  6  2 -1</clus>
<clus scale="  131.541">  1  3  2 -1</clus>
</clustering>
</event>
<event>
 6    0  0.3446372E+002  0.1975042E+03  0.7546771E-02  0.1151862E+00
         21   -1    0    0  505  501  0.00000000000E+00  0.00000000000E+00  0.25774568044E+04  0.25774568044E+04  0.00000000000E+00 0.  1.
         21   -1    0    0  506  502 -0.00000000000E+00 -0.00000000000E+00 -0.45107025243E+03  0.45107025243E+03  0.00000000000E+00 0. -1.
         21    1    1    2  503  502 -0.85966987110E+02  0.13341122904E+03 -0.38445867944E+03  0.41592950737E+03  0.00000000000E+00 0. -1.
         21    1    1    2  504  501  0.99737976965E+02 -0.13037346434E+03  0.24651087347E+04  0.24705679465E+04  0.00000000000E+00 0.  1.
         21    1    1    2  505  503  0.24808603411E+02 -0.24373885013E+02  0.79319494194E+02  0.86609094402E+02  0.00000000000E+00 0. -1.
         21    1    1    2  506  504 -0.38579593266E+02  0.21336120313E+02 -0.33582997517E+02  0.55420508558E+02  0.00000000000E+00 0.  1.
<scales pt_clust_3="14000.00000" pt_clust_4="197.50425" pt_clust_5="34.77863" pt_clust_6="43.93981"></scales>
<clustering>
<clus scale="   34.779">  1  5  2 -1</clus>
<clus scale="   43.940">  2  6  1 -1</clus>
<clus scale="  197.504">  1  4  2 -1</clus>
<clus scale="   34.779">  1  3  2 -1</clus>
</clustering>
</event>
<event>
 6    0  0.3446372E+002  0.8166918E+02  0.7546771E-02  0.1324380E+00
         21   -1    0    0  506  501  0.00000000000E+00  0.00000000000E+00  0.29132615610E+04  0.29132615610E+04  0.00000000000E+00 0.  1.
         21   -1    0    0  503  502 -0.00000000000E+00 -0.00000000000E+00 -0.39630697284E+02  0.39630697284E+02  0.00000000000E+00 0.  1.
         21    1    1    2  503  505  0.14011475624E+02 -0.64730773268E+02  0.41815622585E+02  0.78325862582E+02  0.00000000000E+00 0.  1.
         21    1    1    2  504  502 -0.69570548407E+02 -0.78596379878E+00  0.49988935242E+02  0.85671305531E+02  0.00000000000E+00 0.  1.
         21    1    1    2  505  501 -0.63393320290E+02  0.44042499288E+02  0.10019058181E+04  0.10048749789E+04  0.00000000000E+00 0. -1.
         21    1    1    2  506  504  0.11895239307E+03  0.21474237779E+02  0.17799204878E+04  0.17840201113E+04  0.00000000000E+00 0.  1.
<scales pt_clust_3="66.22986" pt_clust_4="14000.00000" pt_clust_5="73.89337" pt_clust_6="81.66918"></scales>
<clustering>
<clus scale="   66.230">  2  3  1 -1</clus>
<clus scale="   73.893">  1  5  2 -1</clus>
<clus scale="   81.669">  1  6  2 -1</clus>
<clus scale="   73.893">  1  3  2 -1</clus>
</clustering>
</event>
<event>
 6    0  0.3446372E+002  0.1020170E+03  0.7546771E-02  0.1276111E+00
         21   -1    0    0  506  501  0.00000000000E+00  0.00000000000E+00  0.14947417644E+03  0.14947417644E+03  0.00000000000E+00 0. -1.
         21   -1    0    0  505  502 -0.00000000000E+00 -0.00000000000E+00 -0.14429763020E+04  0.14429763020E+04  0.00000000000E+00 0. -1.
         21    1    1    2  503  504  0.37431088355E+02 -0.20400379626E+02  0.26862490127E+01  0.42713906379E+02  0.00000000000E+00 0. -1.
         21    1    1    2  504  502 -0.74554291207E+02 -0.54078844508E+02 -0.43271771736E+03  0.44241099295E+03  0.00000000000E+00 0. -1.
         21    1    1    2  505  501  0.31219611548E+02  0.11523926578E+03 -0.97818374911E+03  0.98544314881E+03  0.00000000000E+00 0. -1.
         21    1    1    2  506  503  0.59035913035E+01 -0.40760041646E+02  0.11471309185E+03  0.12188243034E+03  0.00000000000E+00 0. -1.
<scales pt_clust_3="65.18597" pt_clust_4="102.01700" pt_clust_5="14000.00000" pt_clust_6="41.18535"></scales>
<clustering>
<clus scale="   41.185">  1  6  2 -1</clus>
<clus scale="   65.186">  1  3  2 -1</clus>
<clus scale="  102.017">  1  4  2 -1</clus>
<clus scale="   41.185">  1  3  2 -1</clus>
</clustering>
</event>
<event>
 6    0  0.3446372E+002  0.1144385E+03  0.7546771E-02  0.1252564E+00
         21   -1    0    0  506  501  0.00000000000E+00  0.00000000000E+00  0.17719173639E+03  0.17719173639E+03  0.00000000000E+00 0. -1.
         21   -1    0    0  503  502 -0.00000000000E+00 -0.00000000000E+00 -0.30141180916E+03  0.30141180916E+03  0.00000000000E+00 0.  1.
         21    1    1    2  503  504  0.18709030567E+02 -0.39778921789E+02 -0.28789356884E+02  0.52547288353E+02  0.00000000000E+00 0.  1.
         21    1    1    2  504  501 -0.16466866818E+03  0.33553121128E+02 -0.12377466982E+03  0.20871452059E+03  0.00000000000E+00 0.  1.
         21    1    1    2  505  502  0.80616805039E+02  0.10565111115E+02 -0.64460338012E+02  0.10375849847E+03  0.00000000000E+00 0.  1.
         21    1    1    2  506  505  0.65342832570E+02 -0.43393104537E+01  0.92804291948E+02  0.11358323814E+03  0.00000000000E+00 0. -1.
<scales pt_clust_3="43.95896" pt_clust_4="14000.00000" pt_clust_5="114.43855" pt_clust_6="66.35331"></scales>
<clustering>
<clus scale="   43.959">  2  3  1 -1</clus>
<clus scale="   66.353">  1  6  2 -1</clus>
<clus scale="  114.439">  2  5  1 -1</clus>
<clus scale="   66.353">  1  3  2 -1</clus>
</clustering>
</event>
<event>
 6    0  0.3446372E+002  0.8593962E+02  0.7546771E-02  0.1312993E+00
         21   -1    0    0  503  501  0.00000000000E+00  0.00000000000E+00  0.23080971333E+04  0.23080971333E+04  0.00000000000E+00 0.  1.
         21   -1    0    0  506  502 -0.00000000000E+00 -0.00000000000E+00 -0.59092461652E+03  0.59092461652E+03  0.00000000000E+00 0.  1.
         21    1    1    2  503  504 -0.25842712552E+02  0.82795264581E+02  0.75384681590E+03  0.75882008637E+03  0.00000000000E+00 0.  1.
         21    1    1    2  504  502 -0.69200707425E+02 -0.90160816845E+02 -0.56871335612E+03  0.57995912980E+03  0.00000000000E+00 0.  1.
         21    1    1    2  505  501  0.93041170929E+02 -0.36167213149E+02  0.15063533576E+04  0.15096573004E+04  0.00000000000E+00 0.  1.
         21    1    1    2  506  505  0.20022490488E+01  0.43532765412E+02  0.25685699394E+02  0.50585233211E+02  0.00000000000E+00 0.  1.
<scales pt_clust_3="14000.00000" pt_clust_4="81.98094" pt_clust_5="85.93962" pt_clust_6="43.57879"></scales>
<clustering>
<clus scale="   43.579">  2  6  1 -1</clus>
<clus scale="   81.981">  2  4  1 -1</clus>
<clus scale="   85.940">  1  5  2 -1</clus>
<clus scale="   85.940">  1  3  2 -1</clus>
</clustering>
</event>
<event>
 6    0  0.3446372E+002  0.1251799E+03  0.7546771E-02  0.1234788E+00
         21   -1    0    0  503  501  0.00000000000E+00  0.00000000000E+00  0.16294902200E+03  0.16294902200E+03  0.00000000000E+00 0. -1.
         21   -1    0    0  504  502 -0.00000000000E+00 -0.00000000000E+00 -0.22333045385E+04  0.22333045385E+04  0.00000000000E+00 0. -1.
         21    1    1    2  503  506  0.11388899837E+03 -0.14350347152E+02  0.85671663853E+02  0.14323501807E+03  0.00000000000E+00 0. -1.
         21    1    1    2  504  505  0.35425601747E+01 -0.29858014708E+02 -0.38425919631E+03  0.38543375660E+03  0.00000000000E+00 0. -1.
         21    1    1    2  505  501 -0.22274099744E+03  0.53174487365E+02 -0.23836384094E+03  0.33054258231E+03  0.00000000000E+00 0. -1.
         21    1    1    2  506  502  0.10530943889E+03 -0.89661255057E+01 -0.15334041431E+04  0.15370422035E+04  0.00000000000E+00 0. -1.
<scales pt_clust_3="14000.00000" pt_clust_4="30.06744" pt_clust_5="125.17986" pt_clust_6="113.39518"></scales>
<clustering>
<clus scale="   30.067">  2  4  1 -1</clus>
<clus scale="  113.395">  2  6  1 -1</clus>
<clus scale="  125.180">  2  5  1 -1</clus>
<clus scale="  125.180">  1  3  2 -1</clus>
</clustering>
</event>
<event>
 6    0  0.3446372E+002  0.1074652E+03  0.7546771E-02  0.1265337E+00
         21   -1    0    0  505  501  0.00000000000E+00  0.00000000000E+00  0.37840935869E+03  0.37840935869E+03  0.00000000000E+00 0. -1.
         21   -1    0    0  503  502 -0.00000000000E+00 -0.00000000000E+00 -0.23678277019E+03  0.23678277019E+03  0.00000000000E+00 0. -1.
         21    1    1    2  503  506 -0.86216504429E+01 -0.45759479976E+02 -0.71582283322E+02  0.85394883627E+02  0.00000000000E+00 0. -1.
         21    1    1    2  504  502  0.33095378085E+02  0.22977936477E+02 -0.96730544873E+02  0.10478591473E+03  0.00000000000E+00 0. -1.
         21    1    1    2  505  504  0.84142468822E+02  0.65171951092E+02  0.28711066412E+03  0.30620233787E+03  0.00000000000E+00 0. -1.
         21    1    1    2  506  501 -0.10861619646E+03 -0.42390407593E+02  0.22828752574E+02  0.11880899265E+03  0.00000000000E+00 0. -1.
<scales pt_clust_3="34.14714" pt_clust_4="40.29007" pt_clust_5="107.46518" pt_clust_6="14000.00000"></scales>
<clustering>
<clus scale="   40.290">  2  4  1 -1</clus>
<clus scale="   34.147">  2  3  1 -1</clus>
<clus scale="  107.465">  1  5  2 -1</clus>
<clus scale="  107.465">  1  3  2 -1</clus>
</clustering>
</event>
<event>
 6    0  0.3446372E+002  0.1293116E+03  0.7546771E-02  0.1228481E+00
         21   -1    0    0  503  501  0.00000000000E+00  0.00000000000E+00  0.14139125428E+03  0.14139125428E+03  0.00000000000E+00 0. -1.
         21   -1    0    0  506  502 -0.00000000000E+00 -0.00000000000E+00 -0.58492797095E+03  0.58492797095E+03  0.00000000000E+00 0. -1.
         21    1    1    2  503  504  0.29049101969E+02  0.21066092680E+02  0.10687998206E+03  0.11274289845E+03  0.00000000000E+00 0. -1.
         21    1    1    2  504  502  0.96436235921E+02 -0.28643179646E+02 -0.96604711483E+02  0.13947347282E+03  0.00000000000E+00 0. -1.
         21    1    1    2  505  501 -0.40382747404E+02 -0.16114347996E+02 -0.21785976500E+03  0.22215606160E+03  0.00000000000E+00 0.  1.
         21    1    1    2  506  505 -0.85102590486E+02  0.23691434962E+02 -0.23595222225E+03  0.25194679237E+03  0.00000000000E+00 0. -1.
<scales pt_clust_3="35.88357" pt_clust_4="117.03537" pt_clust_5="38.70887" pt_clust_6="38.70887"></scales>
<clustering>
<clus scale="   35.884">  1  3  2 -1</clus>
<clus scale="   38.709">  5  6 -1 -1</clus>
<clus scale="  117.035">  1  4  2 -1</clus>
<clus scale="   35.884">  1  3  2 -1</clus>
</clustering>
</event>
<event>
 6    0  0.3446372E+002  0.8013329E+02  0.7546771E-02  0.1328674E+00
         21   -1    0    0  506  501  0.00000000000E+00  0.00000000000E+00  0.60587759522E+03  0.60587759522E+03  0.00000000000E+00 0. -1.
         21   -1    0    0  504  502 -0.00000000000E+00 -0.00000000000E+00 -0.62325894982E+03  0.62325894982E+03  0.00000000000E+00 0. -1.
         21    1    1    2  503  502  0.65286540826E+02 -0.65018176480E+02 -0.32029332425E+03  0.33328292672E+03  0.00000000000E+00 0. -1.
         21    1    1    2  504  505 -0.45436429716E+02 -0.12726777733E+02 -0.27136316421E+03  0.27543494133E+03  0.00000000000E+00 0. -1.
         21    1    1    2  505  501  0.38287358946E+02  0.18399723771E+02  0.24065878194E+01  0.42547189741E+02  0.00000000000E+00 0.  1.
         21    1    1    2  506  503 -0.58137470056E+02  0.59345230441E+02  0.57186854605E+03  0.57787148724E+03  0.00000000000E+00 0. -1.
<scales pt_clust_3="80.13329" pt_clust_4="47.03920" pt_clust_5="42.47907" pt_clust_6="14000.00000"></scales>
<clustering>
<clus scale="   42.479">  1  5  2 -1</clus>
<clus scale="   47.039">  2  4  1 -1</clus>
<clus scale="   80.133">  2  3  1 -1</clus>
<clus scale="   42.479">  1  3  2 -1</clus>
</clustering>
</event>
<event>
 6    0  0.3446372E+002  0.8712424E+02  0.7546771E-02  0.1309969E+00
         21   -1    0    0  506  501  0.00000000000E+00  0.00000000000E+00  0.18911712952E+03  0.18911712952E+03  0.00000000000E+00 0. -1.
         21   -1    0    0  505  502 -0.00000000000E+00 -0.00000000000E+00 -0.10182891356E+04  0.10182891356E+04  0.00000000000E+00 0. -1.
         21    1    1    2  503  501 -0.11195353781E+03 -0.62486703204E+02 -0.17256944698E+03  0.21498464302E+03  0.00000000000E+00 0. -1.
         21    1    1    2  504  502  0.73716462716E+02  0.26523100572E+02 -0.70864898790E+03  0.71296632444E+03  0.00000000000E+00 0. -1.
         21    1    1    2  505  503 -0.45721160810E+01 -0.38282671520E+02 -0.98747951408E+02  0.10600766525E+03  0.00000000000E+00 0. -1.
         21    1    1    2  506  504  0.42809191171E+02  0.74246274153E+02  0.15079438022E+03  0.17344763239E+03  0.00000000000E+00 0. -1.
<scales pt_clust_3="14000.00000" pt_clust_4="70.24053" pt_clust_5="38.55473" pt_clust_6="87.12424"></scales>
<clustering>
<clus scale="   38.555">  2  5  1 -1</clus>
<clus scale="   70.241">  2  4  1 -1</clus>
<clus scale="   87.124">  1  6  2 -1</clus>
<clus scale="   87.124">  1  3  2 -1</clus>
</clustering>
</event>
<event>
 6    0  0.3446372E+002  0.1020451E+03  0.7546771E-02  0.1276053E+00
         21   -1    0    0  503  501  0.00000000000E+00  0.00000000000E+00  0.23797304147E+03  0.23797304147E+03  0.00000000000E+00 0.  1.
         21   -1    0    0  506  502 -0.00000000000E+00 -0.00000000000E+00 -0.11485151237E+04  0.11485151237E+04  0.00000000000E+00 0. -1.
         21    1    1    2  503  505 -0.44829372921E+02 -0.10421101309E+02  0.21103265264E+03  0.21599317699E+03  0.00000000000E+00 0.  1.
         21    1    1    2  504  502 -0.77827189692E+02  0.35971567269E+02 -0.47424049637E+03  0.48192849418E+03  0.00000000000E+00 0. -1.
         21    1    1    2  505  504 -0.47631192391E+02 -0.34420077333E+02 -0.10846828627E+03  0.12336466811E+03  0.00000000000E+00 0. -1.
         21    1    1    2  506  501  0.17028775500E+03  0.88696113736E+01 -0.53886595218E+03  0.56520182583E+03  0.00000000000E+00 0. -1.
<scales pt_clust_3="46.02469" pt_clust_4="102.04511" pt_clust_5="71.89387" pt_clust_6="14000.00000"></scales>
<clustering>
<clus scale="   46.025">  1  3  2 -1</clus>
<clus scale="   71.894">  1  5  2 -1</clus>
<clus scale="  102.045">  2  4  1 -1</clus>
<clus scale="   46.025">  1  3  2 -1</clus>
</clustering>
</event>
<event>
 6    0  0.3446372E+002  0.1181087E+03  0.7546771E-02  0.1246250E+00
         21   -1    0    0  505  501  0.00000000000E+00  0.00000000000E+00  0.11899535664E+03  0.11899535664E+03  0.00000000000E+00 0. -1.
         21   -1    0    0  504  502 -0.00000000000E+00 -0.00000000000E+00 -0.17226612313E+03  0.17226612313E+03  0.00000000000E+00 0.  1.
         21    1    1    2  503  502  0.36563639352E+02  0.15657268973E+02 -0.44337380531E+02  0.59563857386E+02  0.00000000000E+00 0.  1.
         21    1    1    2  504  501 -0.16413816352E+02 -0.11405403102E+03  0.18837811691E+02  0.11675871919E+03  0.00000000000E+00 0. -1.
         21    1    1    2  505  506  0.66685940154E+01  0.64769205161E+02 -0.27308463078E+01  0.65168839217E+02  0.00000000000E+00 0.  1.
         21    1    1    2  506  503 -0.26818417015E+02  0.33627556882E+02 -0.25040351341E+02  0.49770063978E+02  0.00000000000E+00 0.  1.
<scales pt_clust_3="39.77499" pt_clust_4="107.69350" pt_clust_5="39.41521" pt_clust_6="39.41521"></scales>
<clustering>
<clus scale="   39.415">  5  6 -1 -1</clus>
<clus scale="   39.775">  2  3  1 -1</clus>
<clus scale="  107.693">  1  4  2 -1</clus>
<clus scale="  107.693">  1  3  2 -1</clus>
</clustering>
</event>
<event>
 6    0  0.3446372E+002  0.8265252E+02  0.7546771E-02  0.1321688E+00
         21   -1    0    0  506  501  0.00000000000E+00  0.00000000000E+00  0.26281615582E+03  0.26281615582E+03  0.00000000000E+00 0.  1.
         21   -1    0    0  503  502 -0.00000000000E+00 -0.00000000000E+00 -0.10906374772E+04  0.10906374772E+04  0.00000000000E+00 0.  1.
         21    1    1    2  503  505 -0.51722406746E+02  0.66035531758E+02 -0.98571289855E+03  0.98927540007E+03  0.00000000000E+00 0.  1.
         21    1    1    2  504  501  0.38746330943E+02  0.43359963026E+02  0.21596170248E+03  0.22365335118E+03  0.00000000000E+00 0.  1.
         21    1    1    2  505  504  0.35687889579E+02 -0.83892447799E+02 -0.28976078610E+02  0.95661807383E+02  0.00000000000E+00 0.  1.
         21    1    1    2  506  502 -0.22711813776E+02 -0.25503046985E+02 -0.29094046733E+02  0.44863074413E+02  0.00000000000E+00 0. -1.
<scales pt_clust_3="14000.00000" pt_clust_4="58.02485" pt_clust_5="82.65252" pt_clust_6="34.15014"></scales>
<clustering>
<clus scale="   34.150">  2  6  1 -1</clus>
<clus scale="   58.025">  1  4  2 -1</clus>
<clus scale="   82.653">  1  5  2 -1</clus>
<clus scale="   58.025">  1  3  2 -1</clus>
</clustering>
</event>
<event>
 6    0  0.3446372E+002  0.1872801E+03  0.7546771E-02  0.1160938E+00
         21   -1    0    0  504  501  0.00000000000E+00  0.00000000000E+00  0.51781526109E+03  0.51781526109E+03  0.00000000000E+00 0.  1.
         21   -1    0    0  505  502 -0.00000000000E+00 -0.00000000000E+00 -0.78182751759E+03  0.78182751759E+03  0.00000000000E+00 0.  1.
         21    1    1    2  503  506  0.12996321605E+03 -0.10028196572E+03 -0.46891433957E+03  0.49681743934E+03  0.00000000000E+00 0.  1.
         21    1    1    2  504  503 -0.14201377426E+03  0.16592567466E+03  0.43076255782E+03  0.48296544681E+03  0.00000000000E+00 0.  1.
         21    1    1    2  505  501  0.36779494450E+02 -0.10214060682E+02  0.35147044830E+02  0.51888081559E+02  0.00000000000E+00 0. -1.
         21    1    1    2  506  502 -0.24728936243E+02 -0.55429648255E+02 -0.26100751959E+03  0.26797181097E+03  0.00000000000E+00 0.  1.
<scales pt_clust_3="187.28009" pt_clust_4="14000.00000" pt_clust_5="38.17143" pt_clust_6="60.65479"></scales>
<clustering>
<clus scale="   38.171">  1  5  2 -1</clus>
<clus scale="   60.655">  2  6  1 -1</clus>
<clus scale="  187.280">  2  3  1 -1</clus>
<clus scale="   38.171">  1  3  2 -1</clus>
</clustering>
</event>
<event>
 6    0  0.3446372E+002  0.1166251E+03  0.7546771E-02  0.1248771E+00
         21   -1    0    0  503  501  0.00000000000E+00  0.00000000000E+00  0.58527426946E+02  0.58527426946E+02  0.00000000000E+00 0. -1.
         21   -1    0    0  504  502 -0.00000000000E+00 -0.00000000000E+00 -0.15157552419E+04  0.15157552419E+04  0.00000000000E+00 0.  1.
         21    1    1    2  503  505 -0.54839591436E+02  0.56384534174E+02  0.12825906957E+02  0.79693791302E+02  0.00000000000E+00 0. -1.
         21    1    1    2  504  501 -0.32751858987E+02  0.33583206195E+02 -0.54367337420E+02  0.71807544058E+02  0.00000000000E+00 0. -1.
         21    1    1    2  505  506  0.78829834201E+02 -0.51483404962E+02 -0.74359068254E+03  0.74952770923E+03  0.00000000000E+00 0.  1.
         21    1    1    2  506  502  0.87616162223E+01 -0.38484335407E+02 -0.67209570195E+03  0.67325362425E+03  0.00000000000E+00 0.  1.
<scales pt_clust_3="116.62507" pt_clust_4="44.41699" pt_clust_5="14000.00000" pt_clust_6="39.46910"></scales>
<clustering>
<clus scale="   39.469">  2  6  1 -1</clus>
<clus scale="   44.417">  1  4  2 -1</clus>
<clus scale="  116.625">  1  3  2 -1</clus>
<clus scale="   44.417">  1  3  2 -1</clus>
</clustering>
</event>
<event>
 6    0  0.3446372E+002  0.1221352E+03  0.7546771E-02  0.1239616E+00
         21   -1    0    0  504  501  0.00000000000E+00  0.00000000000E+00  0.22078441596E+03  0.22078441596E+03  0.00000000000E+00 0. -1.
         21   -1    0    0  503  502 -0.00000000000E+00 -0.00000000000E+00 -0.13055840511E+04  0.13055840511E+04  0.00000000000E+00 0.  1.
         21    1    1    2  503  506  0.59559982658E+02 -0.17147243702E+02 -0.18015057487E+03  0.19051417041E+03  0.00000000000E+00 0. -1.
         21    1    1    2  504  505  0.81655875375E+01 -0.50904891255E+02  0.46936836068E+02  0.69721240333E+02  0.00000000000E+00 0. -1.
         21    1    1    2  505  502  0.64080421828E+02  0.26787087618E+02 -0.10772015799E+04  0.10794383226E+04  0.00000000000E+00 0.  1.
         21    1    1    2  506  501 -0.13180599202E+03  0.41265047338E+02  0.12561568353E+03  0.18669473376E+03  0.00000000000E+00 0. -1.
<scales pt_clust_3="62.69636" pt_clust_4="51.55565" pt_clust_5="14000.00000" pt_clust_6="122.13516"></scales>
<clustering>
<clus scale="   51.556">  1  4  2 -1</clus>
<clus scale="   62.696">  2  3  1 -1</clus>
<clus scale="  122.135">  1  6  2 -1</clus>
<clus scale="   51.556">  1  3  2 -1</clus>
</clustering>
</event>
<event>
 6    0  0.3446372E+002  0.1769091E+03  0.7546771E-02  0.1170828E+00
         21   -1    0    0  504  501  0.00000000000E+00  0.00000000000E+00  0.10251614582E+04  0.10251614582E+04  0.00000000000E+00 0. -1.
         21   -1    0    0  506  502 -0.00000000000E+00 -0.00000000000E+00 -0.15720222979E+03  0.15720222979E+03  0.00000000000E+00 0.  1.
         21    1    1    2  503  502  0.58099384497E+02 -0.25653109996E+02  0.32377713800E+02  0.71287704987E+02  0.00000000000E+00 0.  1.
         21    1    1    2  504  503  0.84321456755E+02  0.54664189935E+02  0.36522192809E+02  0.10692124344E+03  0.00000000000E+00 0.  1.
         21    1    1    2  505  501 -0.70469226870E+02 -0.15477338678E+03  0.83722494494E+03  0.85432214159E+03  0.00000000000E+00 0. -1.
         21    1    1    2  506  505 -0.71951614382E+02  0.12576230684E+03 -0.38165623108E+02  0.14983259799E+03  0.00000000000E+00 0.  1.
<scales pt_clust_3="60.99133" pt_clust_4="60.99133" pt_clust_5="159.40810" pt_clust_6="144.89028"></scales>
<clustering>
<clus scale="   60.991">  3  4 -1 -1</clus>
<clus scale="  144.890">  2  6  1 -1</clus>
<clus scale="  159.408">  1  5  2 -1</clus>
<clus scale="  159.408">  1  3  2 -1</clus>
</clustering>
</event>
<event>
 6    0  0.3446372E+002  0.7252150E+02  0.7546771E-02  0.1351723E+00
         21   -1    0    0  504  501  0.00000000000E+00  0.00000000000E+00  0.21870969191E+02  0.21870969191E+02  0.00000000000E+00 0. -1.
         21   -1    0    0  506  502 -0.00000000000E+00 -0.00000000000E+00 -0.20093209551E+04  0.20093209551E+04  0.00000000000E+00 0. -1.
         21    1    1    2  503  501 -0.16813168012E+02 -0.59462240670E+02 -0.29623763417E+03  0.30261390679E+03  0.00000000000E+00 0. -1.
         21    1    1    2  504  505  0.22660042014E+01  0.30497564462E+02 -0.13298372640E+03  0.13645478263E+03  0.00000000000E+00 0. -1.
         21    1    1    2  505  502  0.34401890444E+02  0.96972780823E+02 -0.14877447336E+03  0.18088961886E+03  0.00000000000E+00 0. -1.
         21    1    1    2  506  503 -0.19854726633E+02 -0.68008104614E+02 -0.14094541520E+04  0.14112336160E+04  0.00000000000E+00 0. -1.
<scales pt_clust_3="57.05749" pt_clust_4="30.58163" pt_clust_5="72.52150" pt_clust_6="14000.00000"></scales>
<clustering>
<clus scale="   30.582">  1  4  2 -1</clus>
<clus scale="   57.057">  1  3  2 -1</clus>
<clus scale="   72.521">  1  5  2 -1</clus>
<clus scale="   30.582">  1  3  2 -1</clus>
</clustering>
</event>
<event>
 6    0  0.3446372E+002  0.1836587E+03  0.7546771E-02  0.1164308E+00
         21   -1    0    0  506  501  0.00000000000E+00  0.00000000000E+00  0.87648793668E+03  0.87648793668E+03  0.00000000000E+00 0. -1.
         21   -1    0    0  503  502 -0.00000000000E+00 -0.00000000000E+00 -0.16097731607E+03  0.16097731607E+03  0.00000000000E+00 0. -1.
         21    1    1    2  503  504  0.95040509711E+02  0.25745570214E+02  0.58776033155E+03  0.59595112234E+03  0.00000000000E+00 0. -1.
         21    1    1    2  504  501  0.58566892691E+02  0.47526955777E+02  0.22514752871E+03  0.23744536662E+03  0.00000000000E+00 0. -1.
         21    1    1    2  505  502 -0.60439781267E+02 -0.28077305388E+02 -0.77287769217E+01  0.67089762484E+02  0.00000000000E+00 0. -1.
         21    1    1    2  506  505 -0.93167621135E+02 -0.45195220603E+02 -0.89668462730E+02  0.13697900132E+03  0.00000000000E+00 0. -1.
<scales pt_clust_3="60.42411" pt_clust_4="60.42411" pt_clust_5="45.33673" pt_clust_6="179.32607"></scales>
<clustering>
<clus scale="   45.337">  5  6 -1 -1</clus>
<clus scale="   60.424">  3  4 -1 -1</clus>
<clus scale="  179.326">  2  5  1 -1</clus>
<clus scale="  183.659">  1  3  2 -1</clus>
</clustering>
</event>
<event>
 6    0  0.3446372E+002  0.5653445E+03  0.7546771E-02  0.9980034E-01
         21   -1    0    0  506  501  0.00000000000E+00  0.00000000000E+00  0.13792883323E+04  0.13792883323E+04  0.00000000000E+00 0.  1.
         21   -1    0    0  505  502 -0.00000000000E+00 -0.00000000000E+00 -0.12999595505E+04  0.12999595505E+04  0.00000000000E+00 0.  1.
         21    1    1    2  503  501  0.83292093190E+02 -0.33408468500E+02  0.13771219552E+02  0.90792868901E+02  0.00000000000E+00 0.  1.
         21    1    1    2  504  502 -0.71181501298E+03  0.41141036533E+03 -0.17485971869E+03  0.84054447986E+03  0.00000000000E+00 0.  1.
         21    1    1    2  505  503  0.28249143815E+03 -0.42669176937E+03 -0.62901636116E+03  0.81088153345E+03  0.00000000000E+00 0.  1.
         21    1    1    2  506  504  0.34603148163E+03  0.48689872540E+02  0.86943364209E+03  0.93702900060E+03  0.00000000000E+00 0.  1.
<scales pt_clust_3="89.74240" pt_clust_4="565.34455" pt_clust_5="14000.00000" pt_clust_6="403.55974"></scales>
<clustering>
<clus scale="   89.742">  1  3  2 -1</clus>
<clus scale="  403.560">  1  6  2 -1</clus>
<clus scale="  565.345">  1  4  2 -1</clus>
<clus scale="   89.742">  1  3  2 -1</clus>
</clustering>
</event>
<event>
 6    0  0.3446372E+002  0.1204272E+03  0.7546771E-02  0.1242394E+00
         21   -1    0    0  504  501  0.00000000000E+00  0.00000000000E+00  0.10773486224E+03  0.10773486224E+03  0.00000000000E+00 0.  1.
         21   -1    0    0  503  502 -0.00000000000E+00 -0.00000000000E+00 -0.48585413255E+03  0.48585413255E+03  0.00000000000E+00 0.  1.
         21    1    1    2  503  501  0.78116049697E+02  0.79140302350E+02  0.51527905607E+02  0.12255786279E+03  0.00000000000E+00 0.  1.
         21    1    1    2  504  505  0.20669077086E+02 -0.21779332210E+02 -0.62244290345E+01  0.30664206755E+02  0.00000000000E+00 0.  1.
         21    1    1    2  505  506 -0.42122762313E+02 -0.25003614280E+02 -0.11299961827E+03  0.12316014600E+03  0.00000000000E+00 0.  1.
         21    1    1    2  506  502 -0.56662364470E+02 -0.32357355860E+02 -0.31042312861E+03  0.31720677925E+03  0.00000000000E+00 0.  1.
<scales pt_clust_3="113.64543" pt_clust_4="30.02582" pt_clust_5="34.46991" pt_clust_6="34.46991"></scales>
<clustering>
<clus scale="   30.026">  1  4  2 -1</clus>
<clus scale="   34.470">  5  6 -1 -1</clus>
<clus scale="  113.645">  1  3  2 -1</clus>
<clus scale="   30.026">  1  3  2 -1</clus>
</clustering>
</event>
<event>
 6    0  0.3446372E+002  0.8388245E+02  0.7546771E-02  0.1318381E+00
         21   -1    0    0  505  501  0.00000000000E+00  0.00000000000E+00  0.40688302801E+03  0.40688302801E+03  0.00000000000E+00 0. -1.
         21   -1    0    0  506  502 -0.00000000000E+00 -0.00000000000E+00 -0.47667851189E+03  0.47667851189E+03  0.00000000000E+00 0. -1.
         21    1    1    2  503  504  0.18128192744E+02  0.75552945131E+02 -0.13688803266E+02  0.78893993593E+02  0.00000000000E+00 0. -1.
         21    1    1    2  504  501  0.65191226755E+02 -0.27920962896E+02  0.35760256595E+03  0.36456696421E+03  0.00000000000E+00 0. -1.
         21    1    1    2  505  502 -0.38100475789E+02 -0.78346182433E+02 -0.31966251091E+03  0.33132143221E+03  0.00000000000E+00 0. -1.
         21    1    1    2  506  503 -0.45218943711E+02  0.30714200197E+02 -0.94046735655E+02  0.10877914989E+03  0.00000000000E+00 0. -1.
<scales pt_clust_3="14000.00000" pt_clust_4="70.42095" pt_clust_5="83.88245" pt_clust_6="54.66365"></scales>
<clustering>
<clus scale="   54.664">  2  6  1 -1</clus>
<clus scale="   70.421">  1  4  2 -1</clus>
<clus scale="   83.882">  2  5  1 -1</clus>
<clus scale="   70.421">  1  3  2 -1</clus>
</clustering>
</event>
<event>
 6    0  0.3446372E+002  0.6106576E+02  0.7546771E-02  0.1393413E+00
         21   -1    0    0  506  501  0.00000000000E+00  0.00000000000E+00  0.15093392763E+04  0.15093392763E+04  0.00000000000E+00 0. -1.
         21   -1    0    0  505  502 -0.00000000000E+00 -0.00000000000E+00 -0.26270873431E+02  0.26270873431E+02  0.00000000000E+00 0.  1.
         21    1    1    2  503  502  0.25672937503E+02  0.37372932230E+02  0.20252210078E+02  0.49658713199E+02  0.00000000000E+00 0.  1.
         21    1    1    2  504  501 -0.71736041635E+02  0.32181821149E+01  0.94061291726E+03  0.94334992260E+03  0.00000000000E+00 0. -1.
         21    1    1    2  505  504  0.35902693376E+02  0.43615914916E+02  0.28859324900E+03  0.29407042488E+03  0.00000000000E+00 0.  1.
         21    1    1    2  506  503  0.10160410756E+02 -0.84207029261E+02  0.23361002657E+03  0.24853108908E+03  0.00000000000E+00 0. -1.
<scales pt_clust_3="45.34133" pt_clust_4="14000.00000" pt_clust_5="61.06576" pt_clust_6="65.77443"></scales>
<clustering>
<clus scale="   45.341">  2  3  1 -1</clus>
<clus scale="   65.774">  2  6  1 -1</clus>
<clus scale="   61.066">  2  5  1 -1</clus>
<clus scale="   61.066">  1  3  2 -1</clus>
</clustering>
</event>
<event>
 6    0  0.3446372E+002  0.1133030E+03  0.7546771E-02  0.1254573E+00
         21   -1    0    0  506  501  0.00000000000E+00  0.00000000000E+00  0.26068078843E+02  0.26068078843E+02  0.00000000000E+00 0.  1.
         21   -1    0    0  504  502 -0.00000000000E+00 -0.00000000000E+00 -0.11856698467E+04  0.11856698467E+04  0.00000000000E+00 0.  1.
         21    1    1    2  503  505 -0.28802454923E+02  0.31430782953E+02 -0.19978680707E+03  0.20428471261E+03  0.00000000000E+00 0. -1.
         21    1    1    2  504  501 -0.44120894747E+02 -0.94587019474E+02 -0.16511844859E+03  0.19533934492E+03  0.00000000000E+00 0.  1.
         21    1    1    2  505  502  0.73332176182E+02 -0.26236236015E+02 -0.36482541152E+03  0.37304628269E+03  0.00000000000E+00 0. -1.
         21    1    1    2  506  503 -0.40882651157E+00  0.89392472536E+02 -0.42987110070E+03  0.43906758535E+03  0.00000000000E+00 0.  1.
<scales pt_clust_3="30.74085" pt_clust_4="104.19226" pt_clust_5="77.88420" pt_clust_6="30.74085"></scales>
<clustering>
<clus scale="   30.741">  3  6 -1 -1</clus>
<clus scale="   77.884">  2  5  1 -1</clus>
<clus scale="  104.192">  1  4  2 -1</clus>
<clus scale="  104.192">  1  3  2 -1</clus>
</clustering>
</event>
<event>
 6    0  0.3446372E+002  0.2739691E+03  0.7546771E-02  0.1099029E+00
         21   -1    0    0  506  501  0.00000000000E+00  0.00000000000E+00  0.64125558480E+03  0.64125558480E+03  0.00000000000E+00 0.  1.
         21   -1    0    0  503  502 -0.00000000000E+00 -0.00000000000E+00 -0.87336713557E+03  0.87336713557E+03  0.00000000000E+00 0. -1.
         21    1    1    2  503  505 -0.38740966866E+02  0.38897208516E+01 -0.58128964308E+02  0.69964054582E+02  0.00000000000E+00 0. -1.
         21    1    1    2  504  502  0.29188793271E+03 -0.96262187793E+02 -0.72757659164E+03  0.78983078616E+03  0.00000000000E+00 0. -1.
         21    1    1    2  505  501 -0.28765205298E+03  0.11006880431E+03  0.46074658042E+03  0.55420777388E+03  0.00000000000E+00 0.  1.
         21    1    1    2  506  504  0.34505087142E+02 -0.17696337365E+02  0.92847424764E+02  0.10062010575E+03  0.00000000000E+00 0.  1.
<scales pt_clust_3="38.54374" pt_clust_4="14000.00000" pt_clust_5="273.96913" pt_clust_6="38.77836"></scales>
<clustering>
<clus scale="   38.778">  1  6  2 -1</clus>
<clus scale="   38.544">  2  3  1 -1</clus>
<clus scale="  273.969">  1  5  2 -1</clus>
<clus scale="   38.778">  1  3  2 -1</clus>
</clustering>
</event>
<event>
 6    0  0.3446372E+002  0.8815518E+02  0.7546771E-02  0.1307382E+00
         21   -1    0    0  506  501  0.00000000000E+00  0.00000000000E+00  0.14314469179E+04  0.14314469179E+04  0.00000000000E+00 0. -1.
         21   -1    0    0  504  502 -0.00000000000E+00 -0.00000000000E+00 -0.63649485944E+02  0.63649485944E+02  0.00000000000E+00 0. -1.
         21    1    1    2  503  502  0.43323800827E+02 -0.10553222015E+01  0.35459962357E+02  0.55995306530E+02  0.00000000000E+00 0. -1.
         21    1    1    2  504  505 -0.12472217876E+03 -0.49024227317E+00  0.33469969477E+02  0.12913597899E+03  0.00000000000E+00 0. -1.
         21    1    1    2  505  501 -0.16229935081E+02 -0.37961156807E+02  0.74687127455E+03  0.74801147115E+03  0.00000000000E+00 0. -1.
         21    1    1    2  506  503  0.97628313018E+02  0.39506721282E+02  0.55199622555E+03  0.56195364715E+03  0.00000000000E+00 0. -1.
<scales pt_clust_3="42.39134" pt_clust_4="88.15518" pt_clust_5="41.28511" pt_clust_6="14000.00000"></scales>
<clustering>
<clus scale="   41.285">  1  5  2 -1</clus>
<clus scale="   42.391">  2  3  1 -1</clus>
<clus scale="   88.155">  2  4  1 -1</clus>
<clus scale="   41.285">  1  3  2 -1</clus>
</clustering>
</event>
<event>
 6    0  0.3446372E+002  0.1058058E+03  0.7546771E-02  0.1268540E+00
         21   -1    0    0  502  501  0.00000000000E+00  0.00000000000E+00  0.11963260215E+03  0.11963260215E+03  0.00000000000E+00 0.  1.
         21   -1    0    0  505  502 -0.00000000000E+00 -0.00000000000E+00 -0.51357166115E+03  0.51357166115E+03  0.00000000000E+00 0.  1.
         21    1    1    2  503  504  0.16990528206E+02  0.26027535020E+02 -0.23274351886E+03  0.23480982986E+03  0.00000000000E+00 0.  1.
         21    1    1    2  504  506 -0.46617421824E+01  0.66764449381E+02 -0.70586294891E+02  0.97271005792E+02  0.00000000000E+00 0.  1.
         21    1    1    2  505  503 -0.11024752458E+02  0.29901399048E+02 -0.15796754389E+03  0.16115019005E+03  0.00000000000E+00 0.  1.
         21    1    1    2  506  501 -0.13040335647E+01 -0.12269338345E+03  0.67358298637E+02  0.13997323759E+03  0.00000000000E+00 0.  1.
<scales pt_clust_3="30.68761" pt_clust_4="105.80580" pt_clust_5="64.25887" pt_clust_6="14000.00000"></scales>
<clustering>
<clus scale="   30.688">  3  5 -1 -1</clus>
<clus scale="   64.259">  2  3  1 -1</clus>
<clus scale="  105.806">  2  4  1 -1</clus>
<clus scale="  105.806">  1  3  2 -1</clus>
</clustering>
</event>
<event>
 6    0  0.3446372E+002  0.1026768E+03  0.7546771E-02  0.1274766E+00
         21   -1    0    0  506  501  0.00000000000E+00  0.00000000000E+00  0.48362366458E+03  0.48362366458E+03  0.00000000000E+00 0.  1.
         21   -1    0    0  504  502 -0.00000000000E+00 -0.00000000000E+00 -0.11324099325E+03  0.11324099325E+03  0.00000000000E+00 0.  1.
         21    1    1    2  503  501  0.98919424765E+01  0.78188636066E+02  0.28599824215E+03  0.29665857117E+03  0.00000000000E+00 0.  1.
         21    1    1    2  504  503 -0.75116312915E+02 -0.53439509957E+02 -0.49846900285E+02  0.10479959522E+03  0.00000000000E+00 0.  1.
         21    1    1    2  505  502  0.16262112715E+02 -0.43076091567E+02 -0.53523146557E+01  0.46353567789E+02  0.00000000000E+00 0. -1.
         21    1    1    2  506  505  0.48962257724E+02  0.18326965457E+02  0.13958364411E+03  0.14905292365E+03  0.00000000000E+00 0.  1.
<scales pt_clust_3="102.67684" pt_clust_4="14000.00000" pt_clust_5="46.04352" pt_clust_6="52.34632"></scales>
<clustering>
<clus scale="   46.044">  2  5  1 -1</clus>
<clus scale="   52.346">  1  6  2 -1</clus>
<clus scale="  102.677">  1  3  2 -1</clus>
<clus scale="   52.346">  1  3  2 -1</clus>
</clustering>
</event>
<event>
 6    0  0.3446372E+002  0.1101964E+03  0.7546771E-02  0.1260207E+00
         21   -1    0    0  503  501  0.00000000000E+00  0.00000000000E+00  0.59864681890E+02  0.59864681890E+02  0.00000000000E+00 0. -1.
         21   -1    0    0  505  502 -0.00000000000E+00 -0.00000000000E+00 -0.23275504966E+04  0.23275504966E+04  0.00000000000E+00 0.  1.
         21    1    1    2  503  504  0.45256986402E+02  0.38169384093E+02  0.27027285992E+02  0.65081263728E+02  0.00000000000E+00 0. -1.
         21    1    1    2  504  502  0.40742396820E+02 -0.11455982522E+03 -0.33526512976E+03  0.35663230881E+03  0.00000000000E+00 0. -1.
         21    1    1    2  505  506 -0.47900386939E+02 -0.13402737491E+02 -0.37953771341E+03  0.38278317145E+03  0.00000000000E+00 0. -1.
         21    1    1    2  506  501 -0.38098996283E+02  0.89793178623E+02 -0.15799102575E+04  0.15829184345E+04  0.00000000000E+00 0.  1.
<scales pt_clust_3="58.76179" pt_clust_4="14000.00000" pt_clust_5="49.74013" pt_clust_6="110.19639"></scales>
<clustering>
<clus scale="   49.740">  2  5  1 -1</clus>
<clus scale="   58.762">  1  3  2 -1</clus>
<clus scale="  110.196">  2  6  1 -1</clus>
<clus scale="   58.762">  1  3  2 -1</clus>
</clustering>
</event>
<event>
 6    0  0.3446372E+002  0.1216532E+03  0.7546771E-02  0.1240394E+00
         21   -1    0    0  504  501  0.00000000000E+00  0.00000000000E+00  0.56014127728E+03  0.56014127728E+03  0.00000000000E+00 0.  1.
         21   -1    0    0  505  502 -0.00000000000E+00 -0.00000000000E+00 -0.13676002583E+03  0.13676002583E+03  0.00000000000E+00 0.  1.
         21    1    1    2  503  502 -0.57006680551E+02 -0.11493534214E+03 -0.81219007385E+02  0.15184341165E+03  0.00000000000E+00 0.  1.
         21    1    1    2  504  503  0.22007759231E+02  0.54496623033E+02  0.33255788356E+03  0.33771136982E+03  0.00000000000E+00 0.  1.
         21    1    1    2  505  506  0.55320814167E+02  0.24884418389E+02  0.49981232212E+02  0.78598666224E+02  0.00000000000E+00 0. -1.
         21    1    1    2  506  501 -0.20321892847E+02  0.35554300720E+02  0.12206114306E+03  0.12874785542E+03  0.00000000000E+00 0.  1.
<scales pt_clust_3="14000.00000" pt_clust_4="121.65323" pt_clust_5="60.37777" pt_clust_6="40.95226"></scales>
<clustering>
<clus scale="   40.952">  1  6  2 -1</clus>
<clus scale="   60.378">  1  5  2 -1</clus>
<clus scale="  121.653">  1  4  2 -1</clus>
<clus scale="   40.952">  1  3  2 -1</clus>
</clustering>
</event>
<event>
 6    0  0.3446372E+002  0.9688636E+02  0.7546771E-02  0.1286983E+00
         21   -1    0    0  504  501  0.00000000000E+00  0.00000000000E+00  0.19704125931E+04  0.19704125931E+04  0.00000000000E+00 0. -1.
         21   -1    0    0  506  502 -0.00000000000E+00 -0.00000000000E+00 -0.36993631726E+03  0.36993631726E+03  0.00000000000E+00 0.  1.
         21    1    1    2  503  505  0.49106879380E+02 -0.48164463272E+02  0.17953870729E+04  0.17967042168E+04  0.00000000000E+00 0. -1.
         21    1    1    2  504  502 -0.20404523472E+01 -0.34767393818E+02 -0.13241413852E+03  0.13691763655E+03  0.00000000000E+00 0.  1.
         21    1    1    2  505  501  0.31619194505E+02 -0.54995611668E+01  0.15544025638E+03  0.15871890857E+03  0.00000000000E+00 0.  1.
         21    1    1    2  506  503 -0.78685621538E+02  0.88431418257E+02 -0.21793691497E+03  0.24800814841E+03  0.00000000000E+00 0.  1.
<scales pt_clust_3="14000.00000" pt_clust_4="34.83176" pt_clust_5="32.09390" pt_clust_6="96.88636"></scales>
<clustering>
<clus scale="   32.094">  1  5  2 -1</clus>
<clus scale="   34.832">  2  4  1 -1</clus>
<clus scale="   96.886">  2  6  1 -1</clus>
<clus scale="   32.094">  1  3  2 -1</clus>
</clustering>
</event>
<event>
 6    0  0.3446372E+002  0.1293992E+03  0.7546771E-02  0.1228350E+00
         21   -1    0    0  506  501  0.00000000000E+00  0.00000000000E+00  0.21601140416E+03  0.21601140416E+03  0.00000000000E+00 0. -1.
         21   -1    0    0  505  502 -0.00000000000E+00 -0.00000000000E+00 -0.46084776257E+03  0.46084776257E+03  0.00000000000E+00 0. -1.
         21    1    1    2  503  502  0.10720339138E+01  0.37925078354E+02 -0.78722837752E+02  0.87388477550E+02  0.00000000000E+00 0. -1.
         21    1    1    2  504  501  0.10915794740E+03  0.94968595051E+02  0.14888023279E+03  0.20760494995E+03  0.00000000000E+00 0. -1.
         21    1    1    2  505  504 -0.11045723253E+03 -0.99588084107E+02 -0.31523710317E+03  0.34855848566E+03  0.00000000000E+00 0. -1.
         21    1    1    2  506  503  0.22725121953E+00 -0.33305589297E+02  0.24334971484E+00  0.33307253574E+02  0.00000000000E+00 0. -1.
<scales pt_clust_3="37.21636" pt_clust_4="14000.00000" pt_clust_5="129.39922" pt_clust_6="33.30636"></scales>
<clustering>
<clus scale="   33.306">  1  6  2 -1</clus>
<clus scale="   37.216">  2  3  1 -1</clus>
<clus scale="  129.399">  2  5  1 -1</clus>
<clus scale="   33.306">  1  3  2 -1</clus>
</clustering>
</event>
<event>
 6    0  0.3446372E+002  0.1197460E+03  0.7546771E-02  0.1243517E+00
         21   -1    0    0  504  501  0.00000000000E+00  0.00000000000E+00  0.22398462961E+03  0.22398462961E+03  0.00000000000E+00 0. -1.
         21   -1    0    0  506  502 -0.00000000000E+00 -0.00000000000E+00 -0.34471586125E+03  0.34471586125E+03  0.00000000000E+00 0. -1.
         21    1    1    2  503  501 -0.10587550878E+03 -0.37432028785E+02  0.13115473601E+03  0.17266251740E+03  0.00000000000E+00 0. -1.
         21    1    1    2  504  505 -0.62331941637E+02 -0.18173583058E+02 -0.33475553024E+02  0.73049043250E+02  0.00000000000E+00 0. -1.
         21    1    1    2  505  502  0.84944940812E+01 -0.34096594843E+02 -0.97151413857E+02  0.10331084853E+03  0.00000000000E+00 0. -1.
         21    1    1    2  506  503  0.15971295634E+03  0.89702206685E+02 -0.12125900076E+03  0.21967808168E+03  0.00000000000E+00 0. -1.
<scales pt_clust_3="119.74598" pt_clust_4="65.67681" pt_clust_5="35.13878" pt_clust_6="14000.00000"></scales>
<clustering>
<clus scale="   35.139">  2  5  1 -1</clus>
<clus scale="   65.677">  2  4  1 -1</clus>
<clus scale="  119.746">  1  3  2 -1</clus>
<clus scale="  119.746">  1  3  2 -1</clus>
</clustering>
</event>
<event>
 6    0  0.3446372E+002  0.1094542E+03  0.7546771E-02  0.1261584E+00
         21   -1    0    0  506  501  0.00000000000E+00  0.00000000000E+00  0.30408949264E+03  0.30408949264E+03  0.00000000000E+00 0. -1.
         21   -1    0    0  503  502 -0.00000000000E+00 -0.00000000000E+00 -0.47528592065E+03  0.47528592065E+03  0.00000000000E+00 0.  1.
         21    1    1    2  503  505 -0.67776231073E+02 -0.37319244980E+02 -0.37551696883E+03  0.38340492618E+03  0.00000000000E+00 0.  1.
         21    1    1    2  504  502 -0.17311635762E+02 -0.37251049303E+02 -0.67202690239E+02  0.78762522702E+02  0.00000000000E+00 0.  1.
         21    1    1    2  505  501  0.95720090728E+02  0.19373825803E+02  0.22104650338E+03  0.24165934195E+03  0.00000000000E+00 0. -1.
         21    1    1    2  506  504 -0.10632223893E+02  0.55196468481E+02  0.50476727671E+02  0.75548622450E+02  0.00000000000E+00 0. -1.
<scales pt_clust_3="109.45416" pt_clust_4="41.07716" pt_clust_5="14000.00000" pt_clust_6="55.17847"></scales>
<clustering>
<clus scale="   41.077">  2  4  1 -1</clus>
<clus scale="   55.178">  1  6  2 -1</clus>
<clus scale="  109.454">  2  3  1 -1</clus>
<clus scale="   55.178">  1  3  2 -1</clus>
</clustering>
</event>
<event>
 6    0  0.3446372E+002  0.1575705E+03  0.7546771E-02  0.1191467E+00
         21   -1    0    0  503  501  0.00000000000E+00  0.00000000000E+00  0.95639936553E+03  0.95639936553E+03  0.00000000000E+00 0. -1.
         21   -1    0    0  506  502 -0.00000000000E+00 -0.00000000000E+00 -0.65452259789E+02  0.65452259789E+02  0.00000000000E+00 0. -1.
         21    1    1    2  503  504  0.98510581165E+01  0.37386746967E+02  0.20578173391E+03  0.20938226813E+03  0.00000000000E+00 0. -1.
         21    1    1    2  504  502 -0.10541880310E+03  0.10041481320E+03  0.92943861656E+02  0.17272758951E+03  0.00000000000E+00 0. -1.
         21    1    1    2  505  501 -0.27049726345E+02  0.22149776712E+02  0.14581460035E+03  0.14994731735E+03  0.00000000000E+00 0. -1.
         21    1    1    2  506  505  0.12261747133E+03 -0.15995133688E+03  0.44640690983E+03  0.48979445034E+03  0.00000000000E+00 0. -1.
<scales pt_clust_3="43.17149" pt_clust_4="14000.00000" pt_clust_5="34.96141" pt_clust_6="157.57049"></scales>
<clustering>
<clus scale="   34.961">  1  5  2 -1</clus>
<clus scale="   43.171">  1  3  2 -1</clus>
<clus scale="  157.570">  1  6  2 -1</clus>
<clus scale="   34.961">  1  3  2 -1</clus>
</clustering>
</event>
<event>
 6    0  0.3446372E+002  0.7132837E+02  0.7546771E-02  0.1355633E+00
         21   -1    0    0  504  501  0.00000000000E+00  0.00000000000E+00  0.13148853927E+03  0.13148853927E+03  0.00000000000E+00 0.  1.
         21   -1    0    0  505  502 -0.00000000000E+00 -0.00000000000E+00 -0.16344932001E+04  0.16344932001E+04  0.00000000000E+00 0. -1.
         21    1    1    2  503  502  0.14410092942E+01  0.44879422710E+02 -0.77551845883E+03  0.77681730096E+03  0.00000000000E+00 0. -1.
         21    1    1    2  504  503  0.16560076179E+02 -0.69619204808E+02  0.10656488601E+03  0.12836333095E+03  0.00000000000E+00 0.  1.
         21    1    1    2  505  506 -0.40540378886E+02 -0.50243198083E+02 -0.71746219416E+03  0.72036095210E+03  0.00000000000E+00 0. -1.
         21    1    1    2  506  501  0.22539293413E+02  0.74982980180E+02 -0.11658889382E+03  0.14044015532E+03  0.00000000000E+00 0. -1.
<scales pt_clust_3="44.90255" pt_clust_4="71.32837" pt_clust_5="41.31858" pt_clust_6="14000.00000"></scales>
<clustering>
<clus scale="   44.903">  2  3  1 -1</clus>
<clus scale="   41.319">  2  5  1 -1</clus>
<clus scale="   71.328">  1  4  2 -1</clus>
<clus scale="   71.328">  1  3  2 -1</clus>
</clustering>
</event>
<event>
 6    0  0.3446372E+002  0.1345240E+03  0.7546771E-02  0.1220893E+00
         21   -1    0    0  506  501  0.00000000000E+00  0.00000000000E+00  0.28553550445E+03  0.28553550445E+03  0.00000000000E+00 0. -1.
         21   -1    0    0  504  502 -0.00000000000E+00 -0.00000000000E+00 -0.99157321227E+03  0.99157321227E+03  0.00000000000E+00 0.  1.
         21    1    1    2  503  502  0.46105594388E+02  0.10887636374E+02 -0.11057358832E+03  0.12029457549E+03  0.00000000000E+00 0. -1.
         21    1    1    2  504  505 -0.62208628445E+02 -0.86136640162E+02  0.10000156258E+03  0.14591006391E+03  0.00000000000E+00 0. -1.
         21    1    1    2  505  501 -0.44089104708E+02 -0.28991880847E+01  0.15170578047E+03  0.15800917148E+03  0.00000000000E+00 0. -1.
         21    1    1    2  506  503  0.60192138766E+02  0.78148191873E+02 -0.84717146254E+03  0.85289490584E+03  0.00000000000E+00 0.  1.
<scales pt_clust_3="45.75374" pt_clust_4="134.52404" pt_clust_5="44.18432" pt_clust_6="14000.00000"></scales>
<clustering>
<clus scale="   44.184">  1  5  2 -1</clus>
<clus scale="   45.754">  2  3  1 -1</clus>
<clus scale="  134.524">  1  4  2 -1</clus>
<clus scale="   44.184">  1  3  2 -1</clus>
</clustering>
</event>
<event>
 6    0  0.3446372E+002  0.1572758E+03  0.7546771E-02  0.1191807E+00
         21   -1    0    0  503  501  0.00000000000E+00  0.00000000000E+00  0.90947482273E+03  0.90947482273E+03  0.00000000000E+00 0.  1.
         21   -1    0    0  505  502 -0.00000000000E+00 -0.00000000000E+00 -0.93367253794E+03  0.93367253794E+03  0.00000000000E+00 0.  1.
         21    1    1    2  503  502  0.57953636564E+02 -0.12389693369E+03 -0.76848259371E+03  0.78056042111E+03  0.00000000000E+00 0.  1.
         21    1    1    2  504  501 -0.15115518507E+02  0.35504688348E+02  0.41897503119E+03  0.42074830785E+03  0.00000000000E+00 0.  1.
         21    1    1    2  505  506  0.43187895720E+02  0.19319884764E+01 -0.14742010348E+03  0.15362816742E+03  0.00000000000E+00 0.  1.
         21    1    1    2  506  504 -0.86026013776E+02  0.86460256865E+02  0.47272995079E+03  0.48821046428E+03  0.00000000000E+00 0.  1.
<scales pt_clust_3="157.27576" pt_clust_4="38.58836" pt_clust_5="43.14602" pt_clust_6="14000.00000"></scales>
<clustering>
<clus scale="   38.588">  1  4  2 -1</clus>
<clus scale="   43.146">  2  5  1 -1</clus>
<clus scale="  157.276">  2  3  1 -1</clus>
<clus scale="   38.588">  1  3  2 -1</clus>
</clustering>
</event>
<event>
 6    0  0.3446372E+002  0.1331590E+03  0.7546771E-02  0.1222842E+00
         21   -1    0    0  503  501  0.00000000000E+00  0.00000000000E+00  0.28187882288E+03  0.28187882288E+03  0.00000000000E+00 0. -1.
         21   -1    0    0  504  502 -0.00000000000E+00 -0.00000000000E+00 -0.28098081502E+04  0.28098081502E+04  0.00000000000E+00 0.  1.
         21    1    1    2  503  506 -0.17211995135E+02  0.29988947065E+02  0.10611280263E+02  0.36168895358E+02  0.00000000000E+00 0.  1.
         21    1    1    2  504  505  0.16775279820E+02 -0.28525239840E+02 -0.26637030132E+03  0.26841802612E+03  0.00000000000E+00 0.  1.
         21    1    1    2  505  501  0.68291779129E+02  0.93455448197E+02  0.24303449834E+03  0.26919036996E+03  0.00000000000E+00 0. -1.
         21    1    1    2  506  502 -0.67855063814E+02 -0.94919155421E+02 -0.25152048046E+04  0.25179096816E+04  0.00000000000E+00 0.  1.
<scales pt_clust_3="34.41098" pt_clust_4="33.09228" pt_clust_5="133.15901" pt_clust_6="14000.00000"></scales>
<clustering>
<clus scale="   33.092">  2  4  1 -1</clus>
<clus scale="   34.411">  1  3  2 -1</clus>
<clus scale="  133.159">  1  5  2 -1</clus>
<clus scale="   34.411">  1  3  2 -1</clus>
</clustering>
</event>
<event>
 6    0  0.3446372E+002  0.6079191E+03  0.7546771E-02  0.9889111E-01
         21   -1    0    0  506  501  0.00000000000E+00  0.00000000000E+00  0.24775036363E+03  0.24775036363E+03  0.00000000000E+00 0.  1.
         21   -1    0    0  504  502 -0.00000000000E+00 -0.00000000000E+00 -0.26795207030E+04  0.26795207030E+04  0.00000000000E+00 0.  1.
         21    1    1    2  503  501 -0.54752489389E+02  0.17411097560E+02  0.10566973883E+03  0.12027915496E+03  0.00000000000E+00 0.  1.
         21    1    1    2  504  505 -0.17094219989E+03  0.10192256213E+03 -0.31006158680E+03  0.36843945497E+03  0.00000000000E+00 0. -1.
         21    1    1    2  505  503 -0.36465399764E+03  0.67535670239E+02 -0.92049288365E+03  0.99239143165E+03  0.00000000000E+00 0.  1.
         21    1    1    2  506  502  0.59034868692E+03 -0.18686932993E+03 -0.13068856078E+04  0.14461610251E+04  0.00000000000E+00 0.  1.
<scales pt_clust_3="57.45417" pt_clust_4="109.73637" pt_clust_5="109.73637" pt_clust_6="589.53252"></scales>
<clustering>
<clus scale="   57.454">  1  3  2 -1</clus>
<clus scale="  109.736">  4  5 -1 -1</clus>
<clus scale="  589.533">  1  6  2 -1</clus>
<clus scale="   57.454">  1  3  2 -1</clus>
</clustering>
</event>
<event>
 6    0  0.3446372E+002  0.2178118E+03  0.7546771E-02  0.1135525E+00
         21   -1    0    0  504  501  0.00000000000E+00  0.00000000000E+00  0.58090438398E+02  0.58090438398E+02  0.00000000000E+00 0.  1.
         21   -1    0    0  506  502 -0.00000000000E+00 -0.00000000000E+00 -0.15881386036E+04  0.15881386036E+04  0.00000000000E+00 0.  1.
         21    1    1    2  503  501  0.49672746081E+02  0.32949774974E+02 -0.13384494451E+03  0.14651804853E+03  0.00000000000E+00 0.  1.
         21    1    1    2  504  502 -0.53726728781E+02 -0.67227781908E+02 -0.14182130667E+03  0.16588977989E+03  0.00000000000E+00 0.  1.
         21    1    1    2  505  503  0.61998097239E+02 -0.18782112006E+03 -0.36329948887E+03  0.41365088639E+03  0.00000000000E+00 0.  1.
         21    1    1    2  506  505 -0.57944114539E+02  0.22209912699E+03 -0.89108242520E+03  0.92017032723E+03  0.00000000000E+00 0.  1.
<scales pt_clust_3="59.60763" pt_clust_4="72.98604" pt_clust_5="14000.00000" pt_clust_6="217.81184"></scales>
<clustering>
<clus scale="   59.608">  1  3  2 -1</clus>
<clus scale="   72.986">  1  4  2 -1</clus>
<clus scale="  217.812">  2  6  1 -1</clus>
<clus scale="   59.608">  1  3  2 -1</clus>
</clustering>
</event>
<event>
 6    0  0.3446372E+002  0.1384952E+03  0.7546771E-02  0.1215368E+00
         21   -1    0    0  503  501  0.00000000000E+00  0.00000000000E+00  0.65765119839E+03  0.65765119839E+03  0.00000000000E+00 0.  1.
         21   -1    0    0  506  502 -0.00000000000E+00 -0.00000000000E+00 -0.11341067112E+03  0.11341067112E+03  0.00000000000E+00 0.  1.
         21    1    1    2  503  504 -0.23572845330E+02 -0.25182543652E+02  0.13322620540E+03  0.13761926227E+03  0.00000000000E+00 0.  1.
         21    1    1    2  504  505  0.53110221535E+02 -0.44937956875E+02 -0.36591489029E+02  0.78606950513E+02  0.00000000000E+00 0.  1.
         21    1    1    2  505  502  0.23816444011E+02 -0.62768793279E+02 -0.16505614040E+02  0.69134504481E+02  0.00000000000E+00 0.  1.
         21    1    1    2  506  501 -0.53353820216E+02  0.13288929381E+03  0.46411142494E+03  0.48570115225E+03  0.00000000000E+00 0.  1.
<scales pt_clust_3="34.49405" pt_clust_4="38.15173" pt_clust_5="38.15173" pt_clust_6="133.00806"></scales>
<clustering>
<clus scale="   34.494">  1  3  2 -1</clus>
<clus scale="   38.152">  4  5 -1 -1</clus>
<clus scale="  133.008">  1  6  2 -1</clus>
<clus scale="   34.494">  1  3  2 -1</clus>
</clustering>
</event>
<event>
 6    0  0.3446372E+002  0.1093448E+03  0.7546771E-02  0.1261788E+00
         21   -1    0    0  503  501  0.00000000000E+00  0.00000000000E+00  0.77627345658E+03  0.77627345658E+03  0.00000000000E+00 0.  1.
         21   -1    0    0  504  502 -0.00000000000E+00 -0.00000000000E+00 -0.43192898172E+03  0.43192898172E+03  0.00000000000E+00 0. -1.
         21    1    1    2  503  505 -0.41644698645E+02  0.28607537500E+02  0.53137955783E+03  0.53377608283E+03  0.00000000000E+00 0.  1.
         21    1    1    2  504  506  0.12430254730E+03 -0.68355755521E+02 -0.14093143864E+03  0.19996325406E+03  0.00000000000E+00 0. -1.
         21    1    1    2  505  502 -0.17638276493E+02  0.31499606556E+02 -0.25396273326E+03  0.25651589404E+03  0.00000000000E+00 0. -1.
         21    1    1    2  506  501 -0.65019572164E+02  0.82486114640E+01  0.20785908892E+03  0.21794720738E+03  0.00000000000E+00 0.  1.
<scales pt_clust_3="50.74364" pt_clust_4="14000.00000" pt_clust_5="36.10172" pt_clust_6="109.34477"></scales>
<clustering>
<clus scale="   36.102">  2  5  1 -1</clus>
<clus scale="   50.744">  1  3  2 -1</clus>
<clus scale="  109.345">  1  6  2 -1</clus>
<clus scale="   50.744">  1  3  2 -1</clus>
</clustering>
</event>
<event>
 6    0  0.3446372E+002  0.1463173E+03  0.7546771E-02  0.1205073E+00
         21   -1    0    0  505  501  0.00000000000E+00  0.00000000000E+00  0.86607293746E+03  0.86607293746E+03  0.00000000000E+00 0.  1.
         21   -1    0    0  506  502 -0.00000000000E+00 -0.00000000000E+00 -0.27767339953E+03  0.27767339953E+03  0.00000000000E+00 0.  1.
         21    1    1    2  503  501 -0.12486175236E+03 -0.18189976487E+02  0.77320231233E+03  0.78343037230E+03  0.00000000000E+00 0.  1.
         21    1    1    2  504  503  0.39269365507E+02  0.19118361483E+02 -0.90617913596E+02  0.10059423978E+03  0.00000000000E+00 0.  1.
         21    1    1    2  505  502 -0.93770956404E+01  0.36065983541E+02  0.62522689613E+02  0.72785793998E+02  0.00000000000E+00 0.  1.
         21    1    1    2  506  504  0.94969482497E+02 -0.36994368536E+02 -0.15670755042E+03  0.18693593092E+03  0.00000000000E+00 0.  1.
<scales pt_clust_3="135.07276" pt_clust_4="36.82269" pt_clust_5="37.26507" pt_clust_6="36.82269"></scales>
<clustering>
<clus scale="   36.823">  4  6 -1 -1</clus>
<clus scale="   37.265">  1  5  2 -1</clus>
<clus scale="  135.073">  1  3  2 -1</clus>
<clus scale="   37.265">  1  3  2 -1</clus>
</clustering>
</event>
<event>
 6    0  0.3446372E+002  0.9909134E+02  0.7546771E-02  0.1282218E+00
         21   -1    0    0  506  501  0.00000000000E+00  0.00000000000E+00  0.18765260911E+04  0.18765260911E+04  0.00000000000E+00 0. -1.
         21   -1    0    0  504  502 -0.00000000000E+00 -0.00000000000E+00 -0.26661437848E+03  0.26661437848E+03  0.00000000000E+00 0.  1.
         21    1    1    2  503  501  0.66689984160E+02  0.32966404351E+02  0.11656292408E+03  0.13827961915E+03  0.00000000000E+00 0.  1.
         21    1    1    2  504  503 -0.47917679594E+02  0.83779598622E+02  0.65886500661E+02  0.11685955730E+03  0.00000000000E+00 0.  1.
         21    1    1    2  505  502  0.10451119267E+03 -0.46840205407E+01 -0.21394881294E+03  0.23815672151E+03  0.00000000000E+00 0.  1.
         21    1    1    2  506  505 -0.12328349723E+03 -0.11206198243E+03  0.16414111008E+04  0.16498445716E+04  0.00000000000E+00 0. -1.
<scales pt_clust_3="74.39313" pt_clust_4="96.35826" pt_clust_5="14000.00000" pt_clust_6="99.09134"></scales>
<clustering>
<clus scale="   74.393">  1  3  2 -1</clus>
<clus scale="   96.358">  2  4  1 -1</clus>
<clus scale="   99.091">  1  6  2 -1</clus>
<clus scale="   74.393">  1  3  2 -1</clus>
</clustering>
</event>
<event>
 6    0  0.3446372E+002  0.1479961E+03  0.7546771E-02  0.1202957E+00
         21   -1    0    0  503  501  0.00000000000E+00  0.00000000000E+00  0.30801298608E+04  0.30801298608E+04  0.00000000000E+00 0.  1.
         21   -1    0    0  505  502 -0.00000000000E+00 -0.00000000000E+00 -0.13600215210E+03  0.13600215210E+03  0.00000000000E+00 0. -1.
         21    1    1    2  503  506 -0.11038823108E+01  0.62088849894E+02  0.39454016026E+02  0.73572163336E+02  0.00000000000E+00 0. -1.
         21    1    1    2  504  501  0.83568616819E+01  0.77551000003E+02  0.29143982668E+04  0.29154418623E+04  0.00000000000E+00 0.  1.
         21    1    1    2  505  504  0.17167676724E+02 -0.17925289952E+03 -0.29927405453E+01  0.18009799446E+03  0.00000000000E+00 0. -1.
         21    1    1    2  506  502 -0.24420656095E+02  0.39613049625E+02 -0.67318335712E+01  0.47019992853E+02  0.00000000000E+00 0. -1.
<scales pt_clust_3="43.08341" pt_clust_4="77.99997" pt_clust_5="139.37677" pt_clust_6="43.08341"></scales>
<clustering>
<clus scale="   43.083">  3  6 -1 -1</clus>
<clus scale="   78.000">  1  4  2 -1</clus>
<clus scale="  139.377">  1  5  2 -1</clus>
<clus scale="   78.000">  1  3  2 -1</clus>
</clustering>
</event>
<event>
 6    0  0.3446372E+002  0.9075073E+02  0.7546771E-02  0.1301044E+00
         21   -1    0    0  503  501  0.00000000000E+00  0.00000000000E+00  0.44276835818E+03  0.44276835818E+03  0.00000000000E+00 0. -1.
         21   -1    0    0  506  502 -0.00000000000E+00 -0.00000000000E+00 -0.10417347690E+03  0.10417347690E+03  0.00000000000E+00 0.  1.
         21    1    1    2  503  504  0.56408529221E+02  0.60153793181E+01  0.52052628842E+02  0.76990798973E+02  0.00000000000E+00 0.  1.
         21    1    1    2  504  502  0.10994606946E+02  0.38570137725E+02  0.10060461047E+02  0.41349120698E+02  0.00000000000E+00 0.  1.
         21    1    1    2  505  501 -0.12354559769E+03 -0.71936168315E+02  0.32134241052E+03  0.35170907270E+03  0.00000000000E+00 0. -1.
         21    1    1    2  506  505  0.56142461524E+02  0.27350651272E+02 -0.44860619135E+02  0.76892842711E+02  0.00000000000E+00 0.  1.
<scales pt_clust_3="59.07688" pt_clust_4="40.10657" pt_clust_5="90.75073" pt_clust_6="14000.00000"></scales>
<clustering>
<clus scale="   40.107">  2  4  1 -1</clus>
<clus scale="   59.077">  1  3  2 -1</clus>
<clus scale="   90.751">  1  5  2 -1</clus>
<clus scale="   59.077">  1  3  2 -1</clus>
</clustering>
</event>
<event>
 6    0  0.3446372E+002  0.1121869E+03  0.7546771E-02  0.1256573E+00
         21   -1    0    0  506  501  0.00000000000E+00  0.00000000000E+00  0.25632551006E+03  0.25632551006E+03  0.00000000000E+00 0. -1.
         21   -1    0    0  503  502 -0.00000000000E+00 -0.00000000000E+00 -0.32685851751E+03  0.32685851751E+03  0.00000000000E+00 0. -1.
         21    1    1    2  503  501 -0.48336126754E+02 -0.33553789908E+01 -0.26736189760E+02  0.55339529819E+02  0.00000000000E+00 0. -1.
         21    1    1    2  504  505  0.17609882852E+02  0.84495089042E+02  0.91189065398E+02  0.12555864643E+03  0.00000000000E+00 0. -1.
         21    1    1    2  505  502  0.62715772932E+02 -0.11553100597E+03 -0.24756489772E+03  0.28030173046E+03  0.00000000000E+00 0. -1.
         21    1    1    2  506  504 -0.31989529030E+02  0.34391295918E+02  0.11257901464E+03  0.12198412085E+03  0.00000000000E+00 0. -1.
<scales pt_clust_3="51.62680" pt_clust_4="112.18686" pt_clust_5="14000.00000" pt_clust_6="46.96905"></scales>
<clustering>
<clus scale="   46.969">  1  6  2 -1</clus>
<clus scale="   51.627">  2  3  1 -1</clus>
<clus scale="  112.187">  1  4  2 -1</clus>
<clus scale="   46.969">  1  3  2 -1</clus>
</clustering>
</event>
<event>
 6    0  0.3446372E+002  0.2936322E+03  0.7546771E-02  0.1088468E+00
         21   -1    0    0  505  501  0.00000000000E+00  0.00000000000E+00  0.62837274709E+03  0.62837274709E+03  0.00000000000E+00 0. -1.
         21   -1    0    0  506  502 -0.00000000000E+00 -0.00000000000E+00 -0.75218946931E+03  0.75218946931E+03  0.00000000000E+00 0.  1.
         21    1    1    2  503  501 -0.13577009316E+03  0.16144153635E+03 -0.33076704630E+03  0.39230565479E+03  0.00000000000E+00 0.  1.
         21    1    1    2  504  502  0.20675664822E+03 -0.13189215080E+03  0.16013627588E+02  0.24576469904E+03  0.00000000000E+00 0. -1.
         21    1    1    2  505  504 -0.54611618635E+02 -0.11139545117E+03  0.45183988313E+03  0.46856232821E+03  0.00000000000E+00 0. -1.
         21    1    1    2  506  503 -0.16374936428E+02  0.81846065614E+02 -0.26090318663E+03  0.27392953436E+03  0.00000000000E+00 0.  1.
<scales pt_clust_3="67.33569" pt_clust_4="273.42494" pt_clust_5="124.06198" pt_clust_6="67.33569"></scales>
<clustering>
<clus scale="   67.336">  3  6 -1 -1</clus>
<clus scale="  124.062">  1  5  2 -1</clus>
<clus scale="  273.425">  1  4  2 -1</clus>
<clus scale="  124.062">  1  3  2 -1</clus>
</clustering>
</event>
<event>
 6    0  0.3446372E+002  0.1424386E+03  0.7546771E-02  0.1210085E+00
         21   -1    0    0  506  501  0.00000000000E+00  0.00000000000E+00  0.10160893780E+03  0.10160893780E+03  0.00000000000E+00 0. -1.
         21   -1    0    0  504  502 -0.00000000000E+00 -0.00000000000E+00 -0.13169064858E+04  0.13169064858E+04  0.00000000000E+00 0. -1.
         21    1    1    2  503  502 -0.11521389911E+03 -0.14368548881E+02 -0.73753831081E+03  0.74662136164E+03  0.00000000000E+00 0. -1.
         21    1    1    2  504  501 -0.45184052868E+02  0.88925657910E+02 -0.42634426810E+03  0.43785706139E+03  0.00000000000E+00 0. -1.
         21    1    1    2  505  503  0.11055361401E+03 -0.39659209051E+02 -0.10149645343E+03  0.15523042386E+03  0.00000000000E+00 0. -1.
         21    1    1    2  506  505  0.49844337967E+02 -0.34897899978E+02  0.50081484369E+02  0.78806576672E+02  0.00000000000E+00 0. -1.
<scales pt_clust_3="14000.00000" pt_clust_4="91.53791" pt_clust_5="142.43857" pt_clust_6="60.84670"></scales>
<clustering>
<clus scale="   60.847">  1  6  2 -1</clus>
<clus scale="   91.538">  2  4  1 -1</clus>
<clus scale="  142.439">  1  5  2 -1</clus>
<clus scale="   60.847">  1  3  2 -1</clus>
</clustering>
</event>
<event>
 6    0  0.3446372E+002  0.1404379E+03  0.7546771E-02  0.1212741E+00
         21   -1    0    0  505  501  0.00000000000E+00  0.00000000000E+00  0.72654826894E+02  0.72654826894E+02  0.00000000000E+00 0.  1.
         21   -1    0    0  506  502 -0.00000000000E+00 -0.00000000000E+00 -0.39630447113E+03  0.39630447113E+03  0.00000000000E+00 0.  1.
         21    1    1    2  503  501  0.45940128454E+02  0.10080663625E+01 -0.95442900555E+02  0.10592855548E+03  0.00000000000E+00 0.  1.
         21    1    1    2  504  502 -0.64195598132E+02 -0.58699009901E+02 -0.28259024422E+02  0.91461582340E+02  0.00000000000E+00 0.  1.
         21    1    1    2  505  504 -0.51865349090E+02 -0.25074165928E+01 -0.69833594541E+00  0.51930619554E+02  0.00000000000E+00 0.  1.
         21    1    1    2  506  503  0.70120818768E+02  0.60198360131E+02 -0.19924938331E+03  0.21963854065E+03  0.00000000000E+00 0.  1.
<scales pt_clust_3="31.01021" pt_clust_4="38.68063" pt_clust_5="38.68063" pt_clust_6="138.38494"></scales>
<clustering>
<clus scale="   31.010">  3  6 -1 -1</clus>
<clus scale="   38.681">  4  5 -1 -1</clus>
<clus scale="  138.385">  2  3  1 -1</clus>
<clus scale="  140.438">  1  3  2 -1</clus>
</clustering>
</event>
<event>
 6    0  0.3446372E+002  0.9975909E+02  0.7546771E-02  0.1280803E+00
         21   -1    0    0  504  501  0.00000000000E+00  0.00000000000E+00  0.37988152782E+03  0.37988152782E+03  0.00000000000E+00 0.  1.
         21   -1    0    0  505  502 -0.00000000000E+00 -0.00000000000E+00 -0.15333632947E+03  0.15333632947E+03  0.00000000000E+00 0.  1.
         21    1    1    2  503  502 -0.81337472769E+02  0.48466571058E+02 -0.65119689169E+02  0.11491460701E+03  0.00000000000E+00 0.  1.
         21    1    1    2  504  503  0.53018547614E+02 -0.69403353918E+02  0.19416666491E+03  0.21290487474E+03  0.00000000000E+00 0.  1.
         21    1    1    2  505  506  0.43842458052E+02  0.53481873974E+02 -0.28160060503E+02  0.74669009498E+02  0.00000000000E+00 0.  1.
         21    1    1    2  506  501 -0.15523532897E+02 -0.32545091114E+02  0.12565828312E+03  0.13072936605E+03  0.00000000000E+00 0.  1.
<scales pt_clust_3="99.75909" pt_clust_4="14000.00000" pt_clust_5="65.92548" pt_clust_6="36.05777"></scales>
<clustering>
<clus scale="   36.058">  1  6  2 -1</clus>
<clus scale="   65.925">  2  5  1 -1</clus>
<clus scale="   99.759">  2  3  1 -1</clus>
<clus scale="   36.058">  1  3  2 -1</clus>
</clustering>
</event>
<event>
 6    0  0.3446372E+002  0.9383825E+02  0.7546771E-02  0.1293814E+00
         21   -1    0    0  504  501  0.00000000000E+00  0.00000000000E+00  0.14131693680E+03  0.14131693680E+03  0.00000000000E+00 0. -1.
         21   -1    0    0  503  502 -0.00000000000E+00 -0.00000000000E+00 -0.27910514584E+03  0.27910514584E+03  0.00000000000E+00 0.  1.
         21    1    1    2  503  505 -0.97069542458E+00  0.39694927169E+02 -0.29486956025E+02  0.49458164829E+02  0.00000000000E+00 0.  1.
         21    1    1    2  504  502  0.57706737912E+02  0.48515209518E+02 -0.17283910116E+03  0.18856603099E+03  0.00000000000E+00 0.  1.
         21    1    1    2  505  506 -0.44082951281E+02  0.92958868777E+01 -0.23150842147E+02  0.50652557671E+02  0.00000000000E+00 0.  1.
         21    1    1    2  506  501 -0.12653091207E+02 -0.97506023565E+02  0.87688690283E+02  0.13174532915E+03  0.00000000000E+00 0. -1.
<scales pt_clust_3="39.70679" pt_clust_4="14000.00000" pt_clust_5="46.83944" pt_clust_6="93.83825"></scales>
<clustering>
<clus scale="   39.707">  2  3  1 -1</clus>
<clus scale="   46.839">  2  5  1 -1</clus>
<clus scale="   93.838">  1  6  2 -1</clus>
<clus scale="   93.838">  1  3  2 -1</clus>
</clustering>
</event>
<event>
 6    0  0.3446372E+002  0.7187133E+02  0.7546771E-02  0.1353843E+00
         21   -1    0    0  504  501  0.00000000000E+00  0.00000000000E+00  0.72048951302E+02  0.72048951302E+02  0.00000000000E+00 0.  1.
         21   -1    0    0  501  502 -0.00000000000E+00 -0.00000000000E+00 -0.56550514932E+03  0.56550514932E+03  0.00000000000E+00 0.  1.
         21    1    1    2  503  505  0.67455013122E+02  0.16435155725E+02 -0.10623819225E+02  0.70236448330E+02  0.00000000000E+00 0.  1.
         21    1    1    2  504  503 -0.28741411727E+02 -0.29668063203E+02  0.17365629213E+02  0.44808791551E+02  0.00000000000E+00 0.  1.
         21    1    1    2  505  506 -0.94110156291E+02  0.52319817833E+01 -0.33955783206E+03  0.35239695865E+03  0.00000000000E+00 0.  1.
         21    1    1    2  506  502  0.55396554896E+02  0.80009256944E+01 -0.16064017595E+03  0.17011190210E+03  0.00000000000E+00 0.  1.
<scales pt_clust_3="46.82539" pt_clust_4="41.30693" pt_clust_5="71.87133" pt_clust_6="14000.00000"></scales>
<clustering>
<clus scale="   41.307">  1  4  2 -1</clus>
<clus scale="   46.825">  1  3  2 -1</clus>
<clus scale="   71.871">  1  5  2 -1</clus>
<clus scale="   41.307">  1  3  2 -1</clus>
</clustering>
</event>
<event>
 6    0  0.3446372E+002  0.1158286E+03  0.7546771E-02  0.1250142E+00
         21   -1    0    0  503  501  0.00000000000E+00  0.00000000000E+00  0.11172388243E+04  0.11172388243E+04  0.00000000000E+00 0. -1.
         21   -1    0    0  504  502 -0.00000000000E+00 -0.00000000000E+00 -0.79231075459E+02  0.79231075459E+02  0.00000000000E+00 0. -1.
         21    1    1    2  503  505  0.31131780601E+02  0.78009159485E+02  0.41194203178E+03  0.42041747617E+03  0.00000000000E+00 0. -1.
         21    1    1    2  504  506 -0.22151733944E+01 -0.40256029033E+02 -0.11782599987E+02  0.42003387115E+02  0.00000000000E+00 0. -1.
         21    1    1    2  505  502 -0.14170705910E+03 -0.47311217013E+02  0.59426101112E+03  0.61275230819E+03  0.00000000000E+00 0. -1.
         21    1    1    2  506  501  0.11279045189E+03  0.95580865609E+01  0.43587305953E+02  0.12129672830E+03  0.00000000000E+00 0. -1.
<scales pt_clust_3="80.90470" pt_clust_4="40.31693" pt_clust_5="14000.00000" pt_clust_6="115.82862"></scales>
<clustering>
<clus scale="   40.317">  2  4  1 -1</clus>
<clus scale="   80.905">  1  3  2 -1</clus>
<clus scale="  115.829">  2  6  1 -1</clus>
<clus scale="   80.905">  1  3  2 -1</clus>
</clustering>
</event>
<event>
 6    0  0.3446372E+002  0.1835526E+03  0.7546771E-02  0.1164408E+00
         21   -1    0    0  503  501  0.00000000000E+00  0.00000000000E+00  0.55367593077E+03  0.55367593077E+03  0.00000000000E+00 0. -1.
         21   -1    0    0  506  502 -0.00000000000E+00 -0.00000000000E+00 -0.42212973633E+03  0.42212973633E+03  0.00000000000E+00 0.  1.
         21    1    1    2  503  504 -0.72970057035E+00 -0.35239689363E+02  0.12763698921E+03  0.13241438435E+03  0.00000000000E+00 0.  1.
         21    1    1    2  504  505  0.18603393162E+03  0.37021521120E+02  0.36683562136E+03  0.41297407890E+03  0.00000000000E+00 0. -1.
         21    1    1    2  505  502 -0.15568929716E+03  0.20311212885E+02 -0.36071359921E+03  0.39340310532E+03  0.00000000000E+00 0.  1.
         21    1    1    2  506  501 -0.29614933888E+02 -0.22093044643E+02 -0.22128169209E+01  0.37014098524E+02  0.00000000000E+00 0.  1.
<scales pt_clust_3="35.24724" pt_clust_4="183.55263" pt_clust_5="14000.00000" pt_clust_6="37.85463"></scales>
<clustering>
<clus scale="   35.247">  1  3  2 -1</clus>
<clus scale="   37.855">  2  6  1 -1</clus>
<clus scale="  183.553">  1  4  2 -1</clus>
<clus scale="   35.247">  1  3  2 -1</clus>
</clustering>
</event>
<event>
 6    0  0.3446372E+002  0.1099337E+03  0.7546771E-02  0.1260693E+00
         21   -1    0    0  505  501  0.00000000000E+00  0.00000000000E+00  0.68147879049E+03  0.68147879049E+03  0.00000000000E+00 0. -1.
         21   -1    0    0  506  502 -0.00000000000E+00 -0.00000000000E+00 -0.44739690243E+03  0.44739690243E+03  0.00000000000E+00 0.  1.
         21    1    1    2  503  502  0.30888331270E+02 -0.14284191255E+02  0.14047204905E+01  0.34060246154E+02  0.00000000000E+00 0.  1.
         21    1    1    2  504  503 -0.27434615189E+02 -0.97542503792E+02 -0.40893546263E+03  0.42130204219E+03  0.00000000000E+00 0.  1.
         21    1    1    2  505  504  0.51917713917E+02  0.15624841622E+02  0.44031554565E+03  0.44364103106E+03  0.00000000000E+00 0. -1.
         21    1    1    2  506  501 -0.55371429997E+02  0.96201853425E+02  0.20129708455E+03  0.22987237352E+03  0.00000000000E+00 0. -1.
<scales pt_clust_3="34.03127" pt_clust_4="109.93371" pt_clust_5="54.31622" pt_clust_6="14000.00000"></scales>
<clustering>
<clus scale="   34.031">  2  3  1 -1</clus>
<clus scale="   54.316">  1  5  2 -1</clus>
<clus scale="  109.934">  2  4  1 -1</clus>
<clus scale="   54.316">  1  3  2 -1</clus>
</clustering>
</event>
<event>
 6    0  0.3446372E+002  0.1602390E+03  0.7546771E-02  0.1188427E+00
         21   -1    0    0  504  501  0.00000000000E+00  0.00000000000E+00  0.25740783404E+03  0.25740783404E+03  0.00000000000E+00 0. -1.
         21   -1    0    0  506  502 -0.00000000000E+00 -0.00000000000E+00 -0.32493597468E+03  0.32493597468E+03  0.00000000000E+00 0.  1.
         21    1    1    2  503  501  0.22512734777E+02 -0.49149444972E+02  0.42584605154E+02  0.68818164494E+02  0.00000000000E+00 0. -1.
         21    1    1    2  504  505  0.30327660259E+02  0.26348793230E+01  0.11152090069E+03  0.11560112827E+03  0.00000000000E+00 0. -1.
         21    1    1    2  505  502 -0.12791164917E+03  0.15267929107E+03 -0.15104466114E+03  0.24997368976E+03  0.00000000000E+00 0.  1.
         21    1    1    2  506  503  0.75071254132E+02 -0.10616472542E+03 -0.70588985341E+02  0.14795082620E+03  0.00000000000E+00 0.  1.
<scales pt_clust_3="59.07553" pt_clust_4="30.44190" pt_clust_5="14000.00000" pt_clust_6="160.23904"></scales>
<clustering>
<clus scale="   30.442">  1  4  2 -1</clus>
<clus scale="   59.076">  1  3  2 -1</clus>
<clus scale="  160.239">  2  6  1 -1</clus>
<clus scale="   30.442">  1  3  2 -1</clus>
</clustering>
</event>
<event>
 6    0  0.3446372E+002  0.1522247E+03  0.7546771E-02  0.1197766E+00
         21   -1    0    0  504  501  0.00000000000E+00  0.00000000000E+00  0.11766760043E+03  0.11766760043E+03  0.00000000000E+00 0.  1.
         21   -1    0    0  506  502 -0.00000000000E+00 -0.00000000000E+00 -0.31363096525E+03  0.31363096525E+03  0.00000000000E+00 0.  1.
         21    1    1    2  503  505  0.44694183798E+02  0.15340857373E+02 -0.18048073158E+02  0.50583049681E+02  0.00000000000E+00 0.  1.
         21    1    1    2  504  502 -0.11953577620E+01  0.36230998616E+02 -0.57318269464E+02  0.67819600082E+02  0.00000000000E+00 0.  1.
         21    1    1    2  505  501 -0.12649973113E+03 -0.64589262616E+02  0.25555802017E+02  0.14431581285E+03  0.00000000000E+00 0.  1.
         21    1    1    2  506  503  0.83000905098E+02  0.13017406627E+02 -0.14615282422E+03  0.16858010306E+03  0.00000000000E+00 0.  1.
<scales pt_clust_3="46.48843" pt_clust_4="36.25071" pt_clust_5="138.60750" pt_clust_6="46.48843"></scales>
<clustering>
<clus scale="   36.251">  2  4  1 -1</clus>
<clus scale="   46.488">  3  6 -1 -1</clus>
<clus scale="  138.608">  1  5  2 -1</clus>
<clus scale="  138.608">  1  3  2 -1</clus>
</clustering>
</event>
<event>
 6    0  0.3446372E+002  0.6248695E+02  0.7546771E-02  0.1387682E+00
         21   -1    0    0  505  501  0.00000000000E+00  0.00000000000E+00  0.25353387228E+03  0.25353387228E+03  0.00000000000E+00 0. -1.
         21   -1    0    0  506  502 -0.00000000000E+00 -0.00000000000E+00 -0.13608482597E+03  0.13608482597E+03  0.00000000000E+00 0. -1.
         21    1    1    2  503  502  0.17716136279E+02  0.65221452370E+02 -0.52011420105E+02  0.85281223931E+02  0.00000000000E+00 0. -1.
         21    1    1    2  504  501  0.23402685719E+02 -0.42289525301E+02  0.14089189051E+03  0.14895171855E+03  0.00000000000E+00 0. -1.
         21    1    1    2  505  503 -0.79856727091E+02  0.20578793738E+02  0.46192880590E+02  0.94521774373E+02  0.00000000000E+00 0. -1.
         21    1    1    2  506  504  0.38737905093E+02 -0.43510720807E+02 -0.17624304682E+02  0.60863981398E+02  0.00000000000E+00 0. -1.
<scales pt_clust_3="62.48695" pt_clust_4="48.33311" pt_clust_5="59.60249" pt_clust_6="14000.00000"></scales>
<clustering>
<clus scale="   48.333">  1  4  2 -1</clus>
<clus scale="   62.487">  2  3  1 -1</clus>
<clus scale="   59.602">  1  5  2 -1</clus>
<clus scale="   48.333">  1  3  2 -1</clus>
</clustering>
</event>
<event>
 6    0  0.3446372E+002  0.1263802E+03  0.7546771E-02  0.1232928E+00
         21   -1    0    0  503  501  0.00000000000E+00  0.00000000000E+00  0.32588853848E+04  0.32588853848E+04  0.00000000000E+00 0. -1.
         21   -1    0    0  506  502 -0.00000000000E+00 -0.00000000000E+00 -0.71949182029E+02  0.71949182029E+02  0.00000000000E+00 0.  1.
         21    1    1    2  503  505  0.27767662871E+02 -0.16215666947E+02  0.88770382956E+03  0.88828603500E+03  0.00000000000E+00 0. -1.
         21    1    1    2  504  502  0.55033572746E+02  0.44509665562E+02 -0.27103044800E+02  0.75791684867E+02  0.00000000000E+00 0.  1.
         21    1    1    2  505  504  0.41127807339E+02  0.26320163117E+02  0.14469421718E+02  0.50927514056E+02  0.00000000000E+00 0. -1.
         21    1    1    2  506  501 -0.12392904296E+03 -0.54614161732E+02  0.23118659963E+04  0.23158293329E+04  0.00000000000E+00 0. -1.
<scales pt_clust_3="32.15573" pt_clust_4="33.61922" pt_clust_5="33.61922" pt_clust_6="119.74011"></scales>
<clustering>
<clus scale="   32.156">  1  3  2 -1</clus>
<clus scale="   33.619">  4  5 -1 -1</clus>
<clus scale="  119.740">  1  6  2 -1</clus>
<clus scale="   32.156">  1  3  2 -1</clus>
</clustering>
</event>
<event>
 6    0  0.3446372E+002  0.1060869E+03  0.7546771E-02  0.1267993E+00
         21   -1    0    0  504  501  0.00000000000E+00  0.00000000000E+00  0.53604352423E+03  0.53604352423E+03  0.00000000000E+00 0.  1.
         21   -1    0    0  503  502 -0.00000000000E+00 -0.00000000000E+00 -0.14651835549E+03  0.14651835549E+03  0.00000000000E+00 0. -1.
         21    1    1    2  503  506  0.42115342705E+02  0.32167344966E+02  0.23170520641E+02  0.57838682558E+02  0.00000000000E+00 0.  1.
         21    1    1    2  504  505 -0.47416829831E+02  0.46963138968E+02  0.83029105815E+02  0.10652569918E+03  0.00000000000E+00 0. -1.
         21    1    1    2  505  502  0.75280995853E+02 -0.22335166606E+02 -0.98448543319E+02  0.12592935990E+03  0.00000000000E+00 0. -1.
         21    1    1    2  506  501 -0.69979508727E+02 -0.56795317328E+02  0.38177408561E+03  0.39226813808E+03  0.00000000000E+00 0.  1.
<scales pt_clust_3="52.99472" pt_clust_4="66.24703" pt_clust_5="106.08690" pt_clust_6="14000.00000"></scales>
<clustering>
<clus scale="   52.995">  2  3  1 -1</clus>
<clus scale="   66.247">  1  4  2 -1</clus>
<clus scale="  106.087">  2  5  1 -1</clus>
<clus scale="   66.247">  1  3  2 -1</clus>
</clustering>
</event>
<event>
 6    0  0.3446372E+002  0.9732380E+02  0.7546771E-02  0.1286026E+00
         21   -1    0    0  504  501  0.00000000000E+00  0.00000000000E+00  0.26872972155E+03  0.26872972155E+03  0.00000000000E+00 0.  1.
         21   -1    0    0  505  502 -0.00000000000E+00 -0.00000000000E+00 -0.17644446489E+03  0.17644446489E+03  0.00000000000E+00 0.  1.
         21    1    1    2  503  501  0.14063405999E+02  0.10723627834E+03  0.67106780705E+02  0.12728204428E+03  0.00000000000E+00 0.  1.
         21    1    1    2  504  502  0.43923753402E+02 -0.93336156091E+01  0.13166871627E+03  0.13911528793E+03  0.00000000000E+00 0.  1.
         21    1    1    2  505  506 -0.63278754550E+02 -0.21596006452E+02 -0.54918181746E+02  0.86525111721E+02  0.00000000000E+00 0.  1.
         21    1    1    2  506  503  0.52915951483E+01 -0.76306656276E+02 -0.51572058566E+02  0.92251742509E+02  0.00000000000E+00 0.  1.
<scales pt_clust_3="97.32380" pt_clust_4="44.90448" pt_clust_5="62.35258" pt_clust_6="14000.00000"></scales>
<clustering>
<clus scale="   44.904">  1  4  2 -1</clus>
<clus scale="   62.353">  2  5  1 -1</clus>
<clus scale="   97.324">  1  3  2 -1</clus>
<clus scale="   44.904">  1  3  2 -1</clus>
</clustering>
</event>
<event>
 6    0  0.3446372E+002  0.2006852E+03  0.7546771E-02  0.1149162E+00
         21   -1    0    0  505  501  0.00000000000E+00  0.00000000000E+00  0.51627304493E+03  0.51627304493E+03  0.00000000000E+00 0. -1.
         21   -1    0    0  503  502 -0.00000000000E+00 -0.00000000000E+00 -0.41651370444E+03  0.41651370444E+03  0.00000000000E+00 0.  1.
         21    1    1    2  503  506  0.78023566870E+02  0.59618916695E+02 -0.13193434660E+03  0.16446508453E+03  0.00000000000E+00 0.  1.
         21    1    1    2  504  502 -0.14127053876E+03 -0.85823548761E+02 -0.15097886753E+02  0.16598491747E+03  0.00000000000E+00 0. -1.
         21    1    1    2  505  504 -0.50146085850E+02 -0.31188836293E+01  0.40354446577E+03  0.40666016920E+03  0.00000000000E+00 0. -1.
         21    1    1    2  506  501  0.11339305774E+03  0.29323515695E+02 -0.15675289193E+03  0.19567657817E+03  0.00000000000E+00 0.  1.
<scales pt_clust_3="38.96138" pt_clust_4="196.12221" pt_clust_5="50.24298" pt_clust_6="38.96138"></scales>
<clustering>
<clus scale="   38.961">  3  6 -1 -1</clus>
<clus scale="   50.243">  1  5  2 -1</clus>
<clus scale="  196.122">  1  4  2 -1</clus>
<clus scale="   50.243">  1  3  2 -1</clus>
</clustering>
</event>
<event>
 6    0  0.3446372E+002  0.8498850E+02  0.7546771E-02  0.1315463E+00
         21   -1    0    0  505  501  0.00000000000E+00  0.00000000000E+00  0.24717465252E+04  0.24717465252E+04  0.00000000000E+00 0.  1.
         21   -1    0    0  504  502 -0.00000000000E+00 -0.00000000000E+00 -0.86124089627E+02  0.86124089627E+02  0.00000000000E+00 0.  1.
         21    1    1    2  503  501 -0.11308310027E+03 -0.19572431032E+02  0.21841851864E+04  0.21871981611E+04  0.00000000000E+00 0.  1.
         21    1    1    2  504  503  0.29726552880E+02  0.26969750052E+02  0.10813837996E+02  0.41568912136E+02  0.00000000000E+00 0.  1.
         21    1    1    2  505  506  0.56217280214E+02 -0.48748003823E+02  0.24473260394E+03  0.25579444463E+03  0.00000000000E+00 0. -1.
         21    1    1    2  506  502  0.27139267173E+02  0.41350684804E+02 -0.54109192736E+02  0.73309096946E+02  0.00000000000E+00 0.  1.
<scales pt_clust_3="84.98850" pt_clust_4="40.13771" pt_clust_5="74.84870" pt_clust_6="14000.00000"></scales>
<clustering>
<clus scale="   40.138">  2  4  1 -1</clus>
<clus scale="   74.849">  1  5  2 -1</clus>
<clus scale="   84.988">  1  3  2 -1</clus>
<clus scale="   74.849">  1  3  2 -1</clus>
</clustering>
</event>
<event>
 6    0  0.3446372E+002  0.1228622E+03  0.7546771E-02  0.1238449E+00
         21   -1    0    0  503  501  0.00000000000E+00  0.00000000000E+00  0.86756691009E+03  0.86756691009E+03  0.00000000000E+00 0. -1.
         21   -1    0    0  506  502 -0.00000000000E+00 -0.00000000000E+00 -0.16543541321E+03  0.16543541321E+03  0.00000000000E+00 0. -1.
         21    1    1    2  503  505  0.29794767138E+02  0.10988469287E+03  0.58372533832E+03  0.59472484770E+03  0.00000000000E+00 0. -1.
         21    1    1    2  504  501 -0.27159378733E+02  0.13178178016E+02  0.20197624141E+03  0.20421973049E+03  0.00000000000E+00 0. -1.
         21    1    1    2  505  502 -0.49565294180E+02 -0.14231521142E+03 -0.99857904319E+02  0.18078146709E+03  0.00000000000E+00 0. -1.
         21    1    1    2  506  504  0.46929905776E+02  0.19252340528E+02  0.16287821473E+02  0.53276278026E+02  0.00000000000E+00 0. -1.
<scales pt_clust_3="122.86224" pt_clust_4="30.18768" pt_clust_5="14000.00000" pt_clust_6="49.68590"></scales>
<clustering>
<clus scale="   30.188">  1  4  2 -1</clus>
<clus scale="   49.686">  2  6  1 -1</clus>
<clus scale="  122.862">  1  3  2 -1</clus>
<clus scale="   30.188">  1  3  2 -1</clus>
</clustering>
</event>
<event>
 6    0  0.3446372E+002  0.1307672E+03  0.7546771E-02  0.1226322E+00
         21   -1    0    0  504  501  0.00000000000E+00  0.00000000000E+00  0.57964533552E+03  0.57964533552E+03  0.00000000000E+00 0.  1.
         21   -1    0    0  505  502 -0.00000000000E+00 -0.00000000000E+00 -0.55355997190E+03  0.55355997190E+03  0.00000000000E+00 0.  1.
         21    1    1    2  503  501  0.72663439472E+02  0.43430658053E+02  0.70936734890E+02  0.11044554247E+03  0.00000000000E+00 0.  1.
         21    1    1    2  504  506 -0.49160812701E+01  0.33712075506E+02  0.46936713377E+03  0.47060193174E+03  0.00000000000E+00 0.  1.
         21    1    1    2  505  503 -0.75167092522E+02 -0.11374004505E+03 -0.48759696402E+03  0.50629802386E+03  0.00000000000E+00 0.  1.
         21    1    1    2  506  502  0.74197343197E+01  0.36597311493E+02 -0.26621541027E+02  0.45859809338E+02  0.00000000000E+00 0.  1.
<scales pt_clust_3="14000.00000" pt_clust_4="34.06863" pt_clust_5="130.76716" pt_clust_6="40.16706"></scales>
<clustering>
<clus scale="   34.069">  1  4  2 -1</clus>
<clus scale="   40.167">  1  6  2 -1</clus>
<clus scale="  130.767">  2  5  1 -1</clus>
<clus scale="   34.069">  1  3  2 -1</clus>
</clustering>
</event>
<event>
 6    0  0.3446372E+002  0.1042554E+03  0.7546771E-02  0.1271594E+00
         21   -1    0    0  504  501  0.00000000000E+00  0.00000000000E+00  0.13869374059E+04  0.13869374059E+04  0.00000000000E+00 0. -1.
         21   -1    0    0  506  502 -0.00000000000E+00 -0.00000000000E+00 -0.75883452048E+03  0.75883452048E+03  0.00000000000E+00 0. -1.
         21    1    1    2  503  501  0.47813548481E+02  0.61049529349E+02 -0.34805147327E+03  0.35658520510E+03  0.00000000000E+00 0.  1.
         21    1    1    2  504  505  0.18255385376E+02 -0.42260206534E+02  0.34307670897E+03  0.34615142985E+03  0.00000000000E+00 0. -1.
         21    1    1    2  505  502 -0.10100797954E+03 -0.21876341233E+02  0.10347178530E+04  0.10398664441E+04  0.00000000000E+00 0. -1.
         21    1    1    2  506  503  0.34939045687E+02  0.30870184179E+01 -0.40164020326E+03  0.40316884735E+03  0.00000000000E+00 0. -1.
<scales pt_clust_3="14000.00000" pt_clust_4="46.08236" pt_clust_5="104.25536" pt_clust_6="35.07516"></scales>
<clustering>
<clus scale="   35.075">  2  6  1 -1</clus>
<clus scale="   46.082">  1  4  2 -1</clus>
<clus scale="  104.255">  1  5  2 -1</clus>
<clus scale="   46.082">  1  3  2 -1</clus>
</clustering>
</event>
<event>
 6    0  0.3446372E+002  0.1476335E+03  0.7546771E-02  0.1203411E+00
         21   -1    0    0  505  501  0.00000000000E+00  0.00000000000E+00  0.10996670403E+03  0.10996670403E+03  0.00000000000E+00 0. -1.
         21   -1    0    0  503  502 -0.00000000000E+00 -0.00000000000E+00 -0.41139677251E+03  0.41139677251E+03  0.00000000000E+00 0.  1.
         21    1    1    2  503  504 -0.60938961654E+02 -0.65084364129E+02  0.35910922659E+01  0.89232434939E+02  0.00000000000E+00 0. -1.
         21    1    1    2  504  501 -0.12321376674E+02 -0.49332553283E+02  0.34806519409E+02  0.61619890700E+02  0.00000000000E+00 0. -1.
         21    1    1    2  505  506  0.31833265786E+02  0.18183537165E+02 -0.47679725850E+02  0.60144443563E+02  0.00000000000E+00 0. -1.
         21    1    1    2  506  502  0.41427072542E+02  0.96233380246E+02 -0.29214795431E+03  0.31036670733E+03  0.00000000000E+00 0.  1.
<scales pt_clust_3="145.88368" pt_clust_4="40.12950" pt_clust_5="34.17269" pt_clust_6="34.17269"></scales>
<clustering>
<clus scale="   34.173">  5  6 -1 -1</clus>
<clus scale="   40.130">  3  4 -1 -1</clus>
<clus scale="  145.884">  1  3  2 -1</clus>
<clus scale="  145.884">  1  3  2 -1</clus>
</clustering>
</event>
<event>
 6    0  0.3446372E+002  0.2957465E+03  0.7546771E-02  0.1087386E+00
         21   -1    0    0  505  501  0.00000000000E+00  0.00000000000E+00  0.18693695849E+03  0.18693695849E+03  0.00000000000E+00 0.  1.
         21   -1    0    0  503  502 -0.00000000000E+00 -0.00000000000E+00 -0.74016824631E+03  0.74016824631E+03  0.00000000000E+00 0.  1.
         21    1    1    2  503  501  0.20121639096E+03 -0.18276288233E+03 -0.17815474724E+03  0.32500680164E+03  0.00000000000E+00 0.  1.
         21    1    1    2  504  506 -0.65825817886E+02  0.10347151222E+03 -0.72299852195E+02  0.14236102265E+03  0.00000000000E+00 0.  1.
         21    1    1    2  505  504 -0.76495960819E+02  0.19785548537E+03 -0.16574645511E+03  0.26920310640E+03  0.00000000000E+00 0.  1.
         21    1    1    2  506  502 -0.58894612258E+02 -0.11856411526E+03 -0.13703023328E+03  0.19053427412E+03  0.00000000000E+00 0.  1.
<scales pt_clust_3="292.91718" pt_clust_4="31.03028" pt_clust_5="31.03028" pt_clust_6="132.38589"></scales>
<clustering>
<clus scale="   31.030">  4  5 -1 -1</clus>
<clus scale="  132.386">  2  6  1 -1</clus>
<clus scale="  292.917">  1  3  2 -1</clus>
<clus scale="  292.917">  1  3  2 -1</clus>
</clustering>
</event>
<event>
 6    0  0.3446372E+002  0.1306194E+03  0.7546771E-02  0.1226540E+00
         21   -1    0    0  505  501  0.00000000000E+00  0.00000000000E+00  0.12295948004E+04  0.12295948004E+04  0.00000000000E+00 0.  1.
         21   -1    0    0  506  502 -0.00000000000E+00 -0.00000000000E+00 -0.38283555893E+02  0.38283555893E+02  0.00000000000E+00 0.  1.
         21    1    1    2  503  502 -0.44845697921E+02  0.92970575204E+02  0.13436126004E+03  0.16943321007E+03  0.00000000000E+00 0.  1.
         21    1    1    2  504  501 -0.37707071996E+02 -0.58712955865E+02  0.13406078958E+03  0.15113348327E+03  0.00000000000E+00 0.  1.
         21    1    1    2  505  503  0.13449538706E+03 -0.21827956497E+02  0.82142465008E+03  0.83264874022E+03  0.00000000000E+00 0.  1.
         21    1    1    2  506  504 -0.51942617143E+02 -0.12429662842E+02  0.10146454476E+03  0.11466292268E+03  0.00000000000E+00 0.  1.
<scales pt_clust_3="103.22143" pt_clust_4="39.87373" pt_clust_5="122.41003" pt_clust_6="39.87373"></scales>
<clustering>
<clus scale="   39.874">  4  6 -1 -1</clus>
<clus scale="  103.221">  2  3  1 -1</clus>
<clus scale="  122.410">  1  5  2 -1</clus>
<clus scale="  122.410">  1  3  2 -1</clus>
</clustering>
</event>
<event>
 6    0  0.3446372E+002  0.6210185E+02  0.7546771E-02  0.1389217E+00
         21   -1    0    0  503  501  0.00000000000E+00  0.00000000000E+00  0.50808624376E+03  0.50808624376E+03  0.00000000000E+00 0. -1.
         21   -1    0    0  505  502 -0.00000000000E+00 -0.00000000000E+00 -0.52996211070E+02  0.52996211070E+02  0.00000000000E+00 0. -1.
         21    1    1    2  503  504  0.35504711633E+02  0.21657866556E+02  0.75417716605E+02  0.86124791494E+02  0.00000000000E+00 0. -1.
         21    1    1    2  504  502 -0.27741741930E+02  0.92206054807E+02  0.80334994315E+02  0.12540044697E+03  0.00000000000E+00 0. -1.
         21    1    1    2  505  506  0.11008462196E+02 -0.48016825034E+02  0.75425059757E+01  0.49836644376E+02  0.00000000000E+00 0. -1.
         21    1    1    2  506  501 -0.18771431899E+02 -0.65847096328E+02  0.29179481580E+03  0.29972057200E+03  0.00000000000E+00 0. -1.
<scales pt_clust_3="41.58903" pt_clust_4="62.10185" pt_clust_5="48.45038" pt_clust_6="14000.00000"></scales>
<clustering>
<clus scale="   41.589">  1  3  2 -1</clus>
<clus scale="   48.450">  2  5  1 -1</clus>
<clus scale="   62.102">  2  4  1 -1</clus>
<clus scale="   41.589">  1  3  2 -1</clus>
</clustering>
</event>
<event>
 6    0  0.3446372E+002  0.7684662E+02  0.7546771E-02  0.1338246E+00
         21   -1    0    0  506  501  0.00000000000E+00  0.00000000000E+00  0.14718213265E+03  0.14718213265E+03  0.00000000000E+00 0. -1.
         21   -1    0    0  505  502 -0.00000000000E+00 -0.00000000000E+00 -0.35189460543E+03  0.35189460543E+03  0.00000000000E+00 0.  1.
         21    1    1    2  503  502 -0.10076388098E+02  0.34097218375E+02 -0.51837593702E+02  0.62859287451E+02  0.00000000000E+00 0. -1.
         21    1    1    2  504  501  0.55286612566E+02 -0.20408279603E+02 -0.12416611545E+01  0.58946154479E+02  0.00000000000E+00 0.  1.
         21    1    1    2  505  504  0.67702556520E+02  0.15877129135E+02 -0.22761412569E+03  0.23799981009E+03  0.00000000000E+00 0.  1.
         21    1    1    2  506  503 -0.11291278099E+03 -0.29566067906E+02  0.75980907774E+02  0.13927148605E+03  0.00000000000E+00 0. -1.
<scales pt_clust_3="35.55494" pt_clust_4="56.83550" pt_clust_5="14000.00000" pt_clust_6="76.84662"></scales>
<clustering>
<clus scale="   35.555">  2  3  1 -1</clus>
<clus scale="   56.835">  1  4  2 -1</clus>
<clus scale="   76.847">  1  6  2 -1</clus>
<clus scale="   56.835">  1  3  2 -1</clus>
</clustering>
</event>
<event>
 6    0  0.3446372E+002  0.1929303E+03  0.7546771E-02  0.1155845E+00
         21   -1    0    0  503  501  0.00000000000E+00  0.00000000000E+00  0.22125041772E+04  0.22125041772E+04  0.00000000000E+00 0. -1.
         21   -1    0    0  504  502 -0.00000000000E+00 -0.00000000000E+00 -0.88197576541E+03  0.88197576541E+03  0.00000000000E+00 0. -1.
         21    1    1    2  503  506  0.34894771521E+02  0.62564090737E+02  0.77443177621E+02  0.10549576432E+03  0.00000000000E+00 0.  1.
         21    1    1    2  504  505 -0.12082139500E+03 -0.99109156378E+02 -0.20774165991E+03  0.25995582630E+03  0.00000000000E+00 0. -1.
         21    1    1    2  505  501 -0.14894870857E+03  0.45640134449E+01  0.20700020596E+04  0.20753590231E+04  0.00000000000E+00 0. -1.
         21    1    1    2  506  502  0.23487533205E+03  0.31981052196E+02 -0.60917516550E+03  0.65366932891E+03  0.00000000000E+00 0. -1.
<scales pt_clust_3="71.63735" pt_clust_4="14000.00000" pt_clust_5="132.31448" pt_clust_6="192.93034"></scales>
<clustering>
<clus scale="   71.637">  1  3  2 -1</clus>
<clus scale="  132.314">  1  5  2 -1</clus>
<clus scale="  192.930">  2  6  1 -1</clus>
<clus scale="   71.637">  1  3  2 -1</clus>
</clustering>
</event>
<event>
 6    0  0.3446372E+002  0.1158918E+03  0.7546771E-02  0.1250032E+00
         21   -1    0    0  503  501  0.00000000000E+00  0.00000000000E+00  0.41358079811E+02  0.41358079811E+02  0.00000000000E+00 0.  1.
         21   -1    0    0  504  502 -0.00000000000E+00 -0.00000000000E+00 -0.12869945780E+04  0.12869945780E+04  0.00000000000E+00 0. -1.
         21    1    1    2  503  502  0.38881954760E+02 -0.61370020895E+02 -0.10483850311E+03  0.12755076481E+03  0.00000000000E+00 0.  1.
         21    1    1    2  504  505  0.61518495415E+01  0.80900742084E+02 -0.94740202735E+03  0.95086980010E+03  0.00000000000E+00 0. -1.
         21    1    1    2  505  506 -0.17634973993E+01  0.36560443308E+02 -0.17211355716E+03  0.17596264518E+03  0.00000000000E+00 0. -1.
         21    1    1    2  506  501 -0.43270306902E+02 -0.56091164497E+02 -0.21282410548E+02  0.73969447699E+02  0.00000000000E+00 0.  1.
<scales pt_clust_3="103.97640" pt_clust_4="34.37892" pt_clust_5="34.37892" pt_clust_6="70.84164"></scales>
<clustering>
<clus scale="   34.379">  4  5 -1 -1</clus>
<clus scale="   70.842">  1  6  2 -1</clus>
<clus scale="  103.976">  1  3  2 -1</clus>
<clus scale="   70.842">  1  3  2 -1</clus>
</clustering>
</event>
<event>
 6    0  0.3446372E+002  0.1421207E+03  0.7546771E-02  0.1210504E+00
         21   -1    0    0  505  501  0.00000000000E+00  0.00000000000E+00  0.22380356751E+03  0.22380356751E+03  0.00000000000E+00 0.  1.
         21   -1    0    0  503  502 -0.00000000000E+00 -0.00000000000E+00 -0.20285960912E+03  0.20285960912E+03  0.00000000000E+00 0.  1.
         21    1    1    2  503  506  0.30477361957E+02 -0.59896328540E+01 -0.50152033084E+02  0.58991285086E+02  0.00000000000E+00 0.  1.
         21    1    1    2  504  502  0.56896826065E+01  0.29591458624E+02 -0.46821444393E+02  0.55680109255E+02  0.00000000000E+00 0.  1.
         21    1    1    2  505  504 -0.11927421607E+03 -0.10862257675E+03  0.10480685785E+03  0.19237900158E+03  0.00000000000E+00 0.  1.
         21    1    1    2  506  501  0.83107171503E+02  0.85020750978E+02  0.13110578014E+02  0.11961278070E+03  0.00000000000E+00 0.  1.
<scales pt_clust_3="32.85775" pt_clust_4="30.13348" pt_clust_5="14000.00000" pt_clust_6="142.12072"></scales>
<clustering>
<clus scale="   30.133">  2  4  1 -1</clus>
<clus scale="   32.858">  2  3  1 -1</clus>
<clus scale="  142.121">  2  6  1 -1</clus>
<clus scale="  142.121">  1  3  2 -1</clus>
</clustering>
</event>
<event>
 6    0  0.3446372E+002  0.1212783E+03  0.7546771E-02  0.1241003E+00
         21   -1    0    0  505  501  0.00000000000E+00  0.00000000000E+00  0.44152623024E+03  0.44152623024E+03  0.00000000000E+00 0. -1.
         21   -1    0    0  503  502 -0.00000000000E+00 -0.00000000000E+00 -0.10376995384E+03  0.10376995384E+03  0.00000000000E+00 0. -1.
         21    1    1    2  503  504  0.58966776634E+02  0.79025854160E+02  0.58752832493E+02  0.11477831545E+03  0.00000000000E+00 0. -1.
         21    1    1    2  504  506 -0.50969065107E+01 -0.79427438408E+02  0.14135026166E+03  0.16221773300E+03  0.00000000000E+00 0. -1.
         21    1    1    2  505  502 -0.51633741382E+02  0.41759476861E+02 -0.45514805710E+02  0.80507730657E+02  0.00000000000E+00 0. -1.
         21    1    1    2  506  501 -0.22361287419E+01 -0.41357892613E+02  0.18316798796E+03  0.18779240497E+03  0.00000000000E+00 0. -1.
<scales pt_clust_3="110.25553" pt_clust_4="36.44318" pt_clust_5="66.40706" pt_clust_6="36.44318"></scales>
<clustering>
<clus scale="   36.443">  4  6 -1 -1</clus>
<clus scale="   66.407">  2  5  1 -1</clus>
<clus scale="  110.256">  2  3  1 -1</clus>
<clus scale="  121.278">  1  3  2 -1</clus>
</clustering>
</event>
<event>
 6    0  0.3446372E+002  0.7510241E+02  0.7546771E-02  0.1343554E+00
         21   -1    0    0  506  501  0.00000000000E+00  0.00000000000E+00  0.93180689734E+03  0.93180689734E+03  0.00000000000E+00 0.  1.
         21   -1    0    0  503  502 -0.00000000000E+00 -0.00000000000E+00 -0.21203572920E+04  0.21203572920E+04  0.00000000000E+00 0. -1.
         21    1    1    2  503  504  0.47239158744E+02  0.58367355984E+02 -0.19418451775E+04  0.19432964210E+04  0.00000000000E+00 0. -1.
         21    1    1    2  504  505 -0.81878136812E+02 -0.29526991855E+02 -0.16365237486E+03  0.18535903628E+03  0.00000000000E+00 0. -1.
         21    1    1    2  505  501 -0.23200446339E+02 -0.32680360303E+02  0.18611623085E+03  0.19038255709E+03  0.00000000000E+00 0.  1.
         21    1    1    2  506  502  0.57839424408E+02  0.38399961743E+01  0.73083092693E+03  0.73312617491E+03  0.00000000000E+00 0.  1.
<scales pt_clust_3="75.10241" pt_clust_4="14000.00000" pt_clust_5="40.07826" pt_clust_6="45.02988"></scales>
<clustering>
<clus scale="   40.078">  1  5  2 -1</clus>
<clus scale="   45.030">  1  6  2 -1</clus>
<clus scale="   75.102">  2  3  1 -1</clus>
<clus scale="   40.078">  1  3  2 -1</clus>
</clustering>
</event>
<event>
 6    0  0.3446372E+002  0.1096641E+03  0.7546771E-02  0.1261193E+00
         21   -1    0    0  504  501  0.00000000000E+00  0.00000000000E+00  0.32751845414E+03  0.32751845414E+03  0.00000000000E+00 0. -1.
         21   -1    0    0  505  502 -0.00000000000E+00 -0.00000000000E+00 -0.60896558289E+03  0.60896558289E+03  0.00000000000E+00 0.  1.
         21    1    1    2  503  506 -0.55073578639E+02  0.28143479202E+02 -0.29285666607E+03  0.29931618959E+03  0.00000000000E+00 0.  1.
         21    1    1    2  504  503  0.83676577141E+02 -0.73486338154E+02  0.29582246308E+03  0.31609008387E+03  0.00000000000E+00 0. -1.
         21    1    1    2  505  501  0.82578632503E+01  0.89906116411E+02 -0.15599009116E+03  0.18023376657E+03  0.00000000000E+00 0.  1.
         21    1    1    2  506  502 -0.36860861752E+02 -0.44563257459E+02 -0.12842283460E+03  0.14084399700E+03  0.00000000000E+00 0.  1.
<scales pt_clust_3="14000.00000" pt_clust_4="109.66408" pt_clust_5="74.26777" pt_clust_6="57.83258"></scales>
<clustering>
<clus scale="   57.833">  2  6  1 -1</clus>
<clus scale="   74.268">  2  5  1 -1</clus>
<clus scale="  109.664">  1  4  2 -1</clus>
<clus scale="  109.664">  1  3  2 -1</clus>
</clustering>
</event>
<event>
 6    0  0.3446372E+002  0.1132253E+03  0.7546771E-02  0.1254711E+00
         21   -1    0    0  503  501  0.00000000000E+00  0.00000000000E+00  0.68711288470E+03  0.68711288470E+03  0.00000000000E+00 0. -1.
         21   -1    0    0  505  502 -0.00000000000E+00 -0.00000000000E+00 -0.58105332213E+03  0.58105332213E+03  0.00000000000E+00 0. -1.
         21    1    1    2  503  506  0.11250751505E+03  0.30574997462E+01  0.62960967088E+03  0.63959020233E+03  0.00000000000E+00 0. -1.
         21    1    1    2  504  502  0.17473757428E+02 -0.34763877160E+02 -0.78752123996E+02  0.87839378343E+02  0.00000000000E+00 0. -1.
         21    1    1    2  505  501 -0.42608118879E+01  0.82204448509E+02 -0.38314071314E+03  0.39188331419E+03  0.00000000000E+00 0. -1.
         21    1    1    2  506  504 -0.12572046059E+03 -0.50498071095E+02 -0.61657271170E+02  0.14885331197E+03  0.00000000000E+00 0. -1.
<scales pt_clust_3="14000.00000" pt_clust_4="38.90835" pt_clust_5="55.92613" pt_clust_6="113.22530"></scales>
<clustering>
<clus scale="   38.908">  2  4  1 -1</clus>
<clus scale="   55.926">  2  5  1 -1</clus>
<clus scale="  113.225">  2  6  1 -1</clus>
<clus scale="  113.225">  1  3  2 -1</clus>
</clustering>
</event>
<event>
 6    0  0.3446372E+002  0.5496637E+02  0.7546771E-02  0.1420258E+00
         21   -1    0    0  504  501  0.00000000000E+00  0.00000000000E+00  0.20028301742E+03  0.20028301742E+03  0.00000000000E+00 0. -1.
         21   -1    0    0  503  502 -0.00000000000E+00 -0.00000000000E+00 -0.86767527868E+03  0.86767527868E+03  0.00000000000E+00 0. -1.
         21    1    1    2  503  501 -0.79491676598E+02 -0.47860983623E+02 -0.17544473455E+02  0.94432033497E+02  0.00000000000E+00 0. -1.
         21    1    1    2  504  505  0.44844268166E+02  0.13650492795E+02  0.15336889754E+03  0.16037257581E+03  0.00000000000E+00 0. -1.
         21    1    1    2  505  506  0.74283282866E+02  0.39043336845E+02 -0.61875345786E+03  0.62441831322E+03  0.00000000000E+00 0. -1.
         21    1    1    2  506  502 -0.39635874434E+02 -0.48328460175E+01 -0.18446322749E+03  0.18873537357E+03  0.00000000000E+00 0. -1.
<scales pt_clust_3="54.96637" pt_clust_4="46.67366" pt_clust_5="14000.00000" pt_clust_6="39.92942"></scales>
<clustering>
<clus scale="   39.929">  2  6  1 -1</clus>
<clus scale="   46.674">  1  4  2 -1</clus>
<clus scale="   54.966">  1  3  2 -1</clus>
<clus scale="   46.674">  1  3  2 -1</clus>
</clustering>
</event>
<event>
 6    0  0.3446372E+002  0.1180049E+03  0.7546771E-02  0.1246425E+00
         21   -1    0    0  504  501  0.00000000000E+00  0.00000000000E+00  0.26328355856E+03  0.26328355856E+03  0.00000000000E+00 0. -1.
         21   -1    0    0  506  502 -0.00000000000E+00 -0.00000000000E+00 -0.64143563364E+03  0.64143563364E+03  0.00000000000E+00 0. -1.
         21    1    1    2  503  505  0.65824799213E+02  0.68474215419E+02 -0.23375346815E+03  0.25231390418E+03  0.00000000000E+00 0. -1.
         21    1    1    2  504  503 -0.13228085011E+03 -0.72923012851E+02 -0.14739232643E+03  0.21104617267E+03  0.00000000000E+00 0. -1.
         21    1    1    2  505  502  0.31931820154E+02 -0.12880418419E+01 -0.21662485850E+03  0.21896947164E+03  0.00000000000E+00 0.  1.
         21    1    1    2  506  501  0.34524230742E+02  0.57368392737E+01  0.21961857799E+03  0.22238964372E+03  0.00000000000E+00 0. -1.
<scales pt_clust_3="118.00493" pt_clust_4="14000.00000" pt_clust_5="31.95779" pt_clust_6="35.09996"></scales>
<clustering>
<clus scale="   31.958">  2  5  1 -1</clus>
<clus scale="   35.100">  1  6  2 -1</clus>
<clus scale="  118.005">  2  3  1 -1</clus>
<clus scale="   35.100">  1  3  2 -1</clus>
</clustering>
</event>
<event>
 6    0  0.3446372E+002  0.1625526E+03  0.7546771E-02  0.1185845E+00
         21   -1    0    0  503  501  0.00000000000E+00  0.00000000000E+00  0.93357787926E+03  0.93357787926E+03  0.00000000000E+00 0.  1.
         21   -1    0    0  506  502 -0.00000000000E+00 -0.00000000000E+00 -0.18535715370E+03  0.18535715370E+03  0.00000000000E+00 0.  1.
         21    1    1    2  503  505  0.31441128359E+02  0.26415459865E+02  0.41422333795E+03  0.41625388260E+03  0.00000000000E+00 0.  1.
         21    1    1    2  504  501  0.58511524755E+02 -0.37098493330E+02  0.82679625360E+02  0.10786944510E+03  0.00000000000E+00 0. -1.
         21    1    1    2  505  502  0.21578053753E+02 -0.11689300085E+03  0.36954380219E+03  0.38819094244E+03  0.00000000000E+00 0.  1.
         21    1    1    2  506  504 -0.11153070687E+03  0.12757603432E+03 -0.11822603995E+03  0.20662076282E+03  0.00000000000E+00 0.  1.
<scales pt_clust_3="41.06484" pt_clust_4="71.92291" pt_clust_5="162.55263" pt_clust_6="14000.00000"></scales>
<clustering>
<clus scale="   41.065">  1  3  2 -1</clus>
<clus scale="   71.923">  1  4  2 -1</clus>
<clus scale="  162.553">  1  5  2 -1</clus>
<clus scale="   41.065">  1  3  2 -1</clus>
</clustering>
</event>
<event>
 6    0  0.3446372E+002  0.1108696E+03  0.7546771E-02  0.1258968E+00
         21   -1    0    0  504  501  0.00000000000E+00  0.00000000000E+00  0.19885505196E+03  0.19885505196E+03  0.00000000000E+00 0.  1.
         21   -1    0    0  505  502 -0.00000000000E+00 -0.00000000000E+00 -0.38975866218E+03  0.38975866218E+03  0.00000000000E+00 0.  1.
         21    1    1    2  503  502 -0.71988241780E+02  0.20383167271E+02 -0.17755687355E+03  0.19267647445E+03  0.00000000000E+00 0.  1.
         21    1    1    2  504  503  0.12227276008E+03 -0.13559396909E+03  0.66018485830E+01  0.18270176988E+03  0.00000000000E+00 0.  1.
         21    1    1    2  505  506  0.34757261481E+01  0.67294482820E+02 -0.90226405959E+02  0.11261186626E+03  0.00000000000E+00 0.  1.
         21    1    1    2  506  501 -0.53760244451E+02  0.47916318999E+02  0.70277820699E+02  0.10062360355E+03  0.00000000000E+00 0. -1.
<scales pt_clust_3="14000.00000" pt_clust_4="110.86956" pt_clust_5="67.38418" pt_clust_6="74.28595"></scales>
<clustering>
<clus scale="   67.384">  2  5  1 -1</clus>
<clus scale="   74.286">  1  6  2 -1</clus>
<clus scale="  110.870">  1  4  2 -1</clus>
<clus scale="   74.286">  1  3  2 -1</clus>
</clustering>
</event>
<event>
 6    0  0.3446372E+002  0.1993693E+03  0.7546771E-02  0.1150272E+00
         21   -1    0    0  506  501  0.00000000000E+00  0.00000000000E+00  0.19854078693E+04  0.19854078693E+04  0.00000000000E+00 0.  1.
         21   -1    0    0  504  502 -0.00000000000E+00 -0.00000000000E+00 -0.39048064692E+03  0.39048064692E+03  0.00000000000E+00 0.  1.
         21    1    1    2  503  502  0.65190714382E+02 -0.18592814054E+03 -0.13542147691E+03  0.23907755874E+03  0.00000000000E+00 0.  1.
         21    1    1    2  504  505 -0.19227109194E+03  0.12454202645E+03 -0.11609292114E+03  0.25681988920E+03  0.00000000000E+00 0.  1.
         21    1    1    2  505  501  0.64760483233E+02  0.21885017677E+02  0.17781180305E+04  0.17794315397E+04  0.00000000000E+00 0.  1.
         21    1    1    2  506  503  0.62319894330E+02  0.39501096406E+02  0.68323590019E+02  0.10055952864E+03  0.00000000000E+00 0.  1.
<scales pt_clust_3="14000.00000" pt_clust_4="199.36930" pt_clust_5="68.35842" pt_clust_6="101.14133"></scales>
<clustering>
<clus scale="   68.358">  1  5  2 -1</clus>
<clus scale="  101.141">  1  6  2 -1</clus>
<clus scale="  199.369">  1  4  2 -1</clus>
<clus scale="   68.358">  1  3  2 -1</clus>
</clustering>
</event>
<event>
 6    0  0.3446372E+002  0.1772459E+03  0.7546771E-02  0.1170495E+00
         21   -1    0    0  503  501  0.00000000000E+00  0.00000000000E+00  0.19057784549E+03  0.19057784549E+03  0.00000000000E+00 0.  1.
         21   -1    0    0  504  502 -0.00000000000E+00 -0.00000000000E+00 -0.36545752767E+03  0.36545752767E+03  0.00000000000E+00 0.  1.
         21    1    1    2  503  502 -0.81951973665E+02 -0.16131588404E+03  0.68391672219E+02  0.19343309247E+03  0.00000000000E+00 0.  1.
         21    1    1    2  504  506  0.71907410006E+02  0.90937403183E+02 -0.20844881269E+03  0.23851875068E+03  0.00000000000E+00 0.  1.
         21    1    1    2  505  501 -0.34126234618E+02  0.39250504886E+02  0.11083698835E+02  0.53179417098E+02  0.00000000000E+00 0.  1.
         21    1    1    2  506  505  0.44170798277E+02  0.31127975976E+02 -0.45906240544E+02  0.70904112925E+02  0.00000000000E+00 0.  1.
<scales pt_clust_3="169.54114" pt_clust_4="35.29025" pt_clust_5="52.01156" pt_clust_6="35.29025"></scales>
<clustering>
<clus scale="   35.290">  4  6 -1 -1</clus>
<clus scale="   52.012">  1  5  2 -1</clus>
<clus scale="  169.541">  1  3  2 -1</clus>
<clus scale="   52.012">  1  3  2 -1</clus>
</clustering>
</event>
<event>
 6    0  0.3446372E+002  0.1393439E+03  0.7546771E-02  0.1214215E+00
         21   -1    0    0  505  501  0.00000000000E+00  0.00000000000E+00  0.22286739684E+03  0.22286739684E+03  0.00000000000E+00 0. -1.
         21   -1    0    0  503  502 -0.00000000000E+00 -0.00000000000E+00 -0.23134436652E+03  0.23134436652E+03  0.00000000000E+00 0. -1.
         21    1    1    2  503  506  0.25409907120E+02  0.10373937768E+03 -0.30630306957E+02  0.11111137460E+03  0.00000000000E+00 0. -1.
         21    1    1    2  504  502  0.43880980415E+02 -0.69555687016E+02 -0.71097792560E+02  0.10871260343E+03  0.00000000000E+00 0. -1.
         21    1    1    2  505  504 -0.60148708264E+02 -0.10923070763E+03  0.98057730780E+02  0.15863332929E+03  0.00000000000E+00 0. -1.
         21    1    1    2  506  501 -0.91421792712E+01  0.75047016959E+02 -0.48066009380E+01  0.75754456033E+02  0.00000000000E+00 0. -1.
<scales pt_clust_3="31.85812" pt_clust_4="82.24071" pt_clust_5="134.10025" pt_clust_6="31.85812"></scales>
<clustering>
<clus scale="   31.858">  3  6 -1 -1</clus>
<clus scale="   82.241">  2  4  1 -1</clus>
<clus scale="  134.100">  1  5  2 -1</clus>
<clus scale="  134.100">  1  3  2 -1</clus>
</clustering>
</event>
<event>
 6    0  0.3446372E+002  0.1252026E+03  0.7546771E-02  0.1234753E+00
         21   -1    0    0  503  501  0.00000000000E+00  0.00000000000E+00  0.55596244899E+03  0.55596244899E+03  0.00000000000E+00 0. -1.
         21   -1    0    0  505  502 -0.00000000000E+00 -0.00000000000E+00 -0.10084397768E+04  0.10084397768E+04  0.00000000000E+00 0.  1.
         21    1    1    2  503  506  0.38045275190E+02 -0.40952225768E+02  0.15163082723E+03  0.16160580288E+03  0.00000000000E+00 0. -1.
         21    1    1    2  504  502 -0.59931147104E+02 -0.32450155834E+02 -0.47184543223E+03  0.47674192906E+03  0.00000000000E+00 0.  1.
         21    1    1    2  505  501  0.38042279156E+02  0.12671786048E+03  0.38433056574E+03  0.40646600710E+03  0.00000000000E+00 0. -1.
         21    1    1    2  506  504 -0.16156407242E+02 -0.53315478875E+02 -0.51659328853E+03  0.51958848673E+03  0.00000000000E+00 0.  1.
<scales pt_clust_3="55.89748" pt_clust_4="45.36950" pt_clust_5="114.70644" pt_clust_6="45.36950"></scales>
<clustering>
<clus scale="   45.369">  4  6 -1 -1</clus>
<clus scale="   55.897">  1  3  2 -1</clus>
<clus scale="  114.706">  1  5  2 -1</clus>
<clus scale="   55.897">  1  3  2 -1</clus>
</clustering>
</event>
<event>
 6    0  0.3446372E+002  0.1150435E+03  0.7546771E-02  0.1251505E+00
         21   -1    0    0  503  501  0.00000000000E+00  0.00000000000E+00  0.24266345032E+04  0.24266345032E+04  0.00000000000E+00 0.  1.
         21   -1    0    0  504  502 -0.00000000000E+00 -0.00000000000E+00 -0.10850470285E+03  0.10850470285E+03  0.00000000000E+00 0. -1.
         21    1    1    2  503  505  0.76620861401E+02 -0.18001942997E+02  0.30162411642E+02  0.84288774043E+02  0.00000000000E+00 0. -1.
         21    1    1    2  504  501 -0.88611148998E+02  0.77229890950E+02  0.23036740112E+04  0.23066708351E+04  0.00000000000E+00 0.  1.
         21    1    1    2  505  506  0.60567614362E+02 -0.33158512100E+02 -0.44336100352E+02  0.82058592655E+02  0.00000000000E+00 0. -1.
         21    1    1    2  506  502 -0.48577326765E+02 -0.26069435853E+02  0.28629477837E+02  0.62121004198E+02  0.00000000000E+00 0. -1.
<scales pt_clust_3="115.04355" pt_clust_4="14000.00000" pt_clust_5="57.85823" pt_clust_6="55.13050"></scales>
<clustering>
<clus scale="   55.131">  2  6  1 -1</clus>
<clus scale="   57.858">  2  5  1 -1</clus>
<clus scale="  115.044">  2  3  1 -1</clus>
<clus scale="  115.044">  1  3  2 -1</clus>
</clustering>
</event>
<event>
 6    0  0.3446372E+002  0.8244782E+02  0.7546771E-02  0.1322245E+00
         21   -1    0    0  506  501  0.00000000000E+00  0.00000000000E+00  0.34695184532E+03  0.34695184532E+03  0.00000000000E+00 0.  1.
         21   -1    0    0  505  502 -0.00000000000E+00 -0.00000000000E+00 -0.61512284368E+02  0.61512284368E+02  0.00000000000E+00 0.  1.
         21    1    1    2  503  502 -0.36849561020E+02  0.39015116485E+02  0.32384353152E+02  0.62680266358E+02  0.00000000000E+00 0.  1.
         21    1    1    2  504  501  0.89832409410E+01  0.32393008512E+02  0.10819190959E+03  0.11329384325E+03  0.00000000000E+00 0.  1.
         21    1    1    2  505  504  0.47006243747E+02  0.44281270743E+02  0.51701476032E+02  0.82725210872E+02  0.00000000000E+00 0.  1.
         21    1    1    2  506  503 -0.19139923668E+02 -0.11568939574E+03  0.93161822179E+02  0.14976480921E+03  0.00000000000E+00 0.  1.
<scales pt_clust_3="57.45639" pt_clust_4="33.61556" pt_clust_5="82.44782" pt_clust_6="14000.00000"></scales>
<clustering>
<clus scale="   33.616">  1  4  2 -1</clus>
<clus scale="   57.456">  2  3  1 -1</clus>
<clus scale="   82.448">  2  5  1 -1</clus>
<clus scale="   33.616">  1  3  2 -1</clus>
</clustering>
</event>
<event>
 6    0  0.3446372E+002  0.1348322E+03  0.7546771E-02  0.1220457E+00
         21   -1    0    0  504  501  0.00000000000E+00  0.00000000000E+00  0.54510530385E+02  0.54510530385E+02  0.00000000000E+00 0.  1.
         21   -1    0    0  506  502 -0.00000000000E+00 -0.00000000000E+00 -0.74801960328E+03  0.74801960328E+03  0.00000000000E+00 0. -1.
         21    1    1    2  503  505 -0.12780598172E+02 -0.49873479487E+02 -0.73735202106E+02  0.89931016204E+02  0.00000000000E+00 0. -1.
         21    1    1    2  504  503 -0.25728710769E+02 -0.63514910786E+02 -0.14686317398E+02  0.70084223394E+02  0.00000000000E+00 0.  1.
         21    1    1    2  505  502 -0.24316231608E+02 -0.40900012631E+02 -0.17304356389E+03  0.17946633432E+03  0.00000000000E+00 0. -1.
         21    1    1    2  506  501  0.62825540548E+02  0.15428840290E+03 -0.43204398950E+03  0.46304855974E+03  0.00000000000E+00 0. -1.
<scales pt_clust_3="43.62438" pt_clust_4="68.52817" pt_clust_5="43.62438" pt_clust_6="126.96672"></scales>
<clustering>
<clus scale="   43.624">  3  5 -1 -1</clus>
<clus scale="   68.528">  1  4  2 -1</clus>
<clus scale="  126.967">  1  6  2 -1</clus>
<clus scale="   68.528">  1  3  2 -1</clus>
</clustering>
</event>
<event>
 6    0  0.3446372E+002  0.1313041E+03  0.7546771E-02  0.1225533E+00
         21   -1    0    0  505  501  0.00000000000E+00  0.00000000000E+00  0.13167178141E+03  0.13167178141E+03  0.00000000000E+00 0.  1.
         21   -1    0    0  501  502 -0.00000000000E+00 -0.00000000000E+00 -0.76469505733E+03  0.76469505733E+03  0.00000000000E+00 0. -1.
         21    1    1    2  503  504  0.51556420692E+02  0.48538158311E+02 -0.26223321999E+03  0.27162525471E+03  0.00000000000E+00 0. -1.
         21    1    1    2  504  502  0.41550503927E+02  0.29590271472E+02 -0.45668115275E+03  0.45952116797E+03  0.00000000000E+00 0. -1.
         21    1    1    2  505  506 -0.24422807982E+01 -0.42231778754E+02  0.36698908118E+02  0.56002658234E+02  0.00000000000E+00 0.  1.
         21    1    1    2  506  503 -0.90664643820E+02 -0.35896651029E+02  0.49192188699E+02  0.10921775782E+03  0.00000000000E+00 0.  1.
<scales pt_clust_3="46.56495" pt_clust_4="46.56495" pt_clust_5="42.30234" pt_clust_6="119.48436"></scales>
<clustering>
<clus scale="   42.302">  1  5  2 -1</clus>
<clus scale="   46.565">  3  4 -1 -1</clus>
<clus scale="  119.484">  1  6  2 -1</clus>
<clus scale="   42.302">  1  3  2 -1</clus>
</clustering>
</event>
<event>
 6    0  0.3446372E+002  0.1181229E+03  0.7546771E-02  0.1246226E+00
         21   -1    0    0  504  501  0.00000000000E+00  0.00000000000E+00  0.11228459682E+04  0.11228459682E+04  0.00000000000E+00 0. -1.
         21   -1    0    0  506  502 -0.00000000000E+00 -0.00000000000E+00 -0.52702836083E+03  0.52702836083E+03  0.00000000000E+00 0.  1.
         21    1    1    2  503  502  0.58910419873E+02  0.10455593402E+03 -0.49537380827E+03  0.50970343419E+03  0.00000000000E+00 0.  1.
         21    1    1    2  504  505 -0.34043158524E+02 -0.11216496214E+02  0.84419289532E+03  0.84495348448E+03  0.00000000000E+00 0. -1.
         21    1    1    2  505  503 -0.25972453846E+02 -0.32755343341E+02  0.94599461881E+00  0.41813583702E+02  0.00000000000E+00 0. -1.
         21    1    1    2  506  501  0.11051924973E+01 -0.60584094464E+02  0.24605252567E+03  0.25340382661E+03  0.00000000000E+00 0. -1.
<scales pt_clust_3="14000.00000" pt_clust_4="35.84336" pt_clust_5="44.12917" pt_clust_6="118.12290"></scales>
<clustering>
<clus scale="   35.843">  1  4  2 -1</clus>
<clus scale="   44.129">  1  5  2 -1</clus>
<clus scale="  118.123">  1  6  2 -1</clus>
<clus scale="   35.843">  1  3  2 -1</clus>
</clustering>
</event>
<event>
 6    0  0.3446372E+002  0.1253081E+03  0.7546771E-02  0.1234589E+00
         21   -1    0    0  503  501  0.00000000000E+00  0.00000000000E+00  0.48970480037E+03  0.48970480037E+03  0.00000000000E+00 0. -1.
         21   -1    0    0  505  502 -0.00000000000E+00 -0.00000000000E+00 -0.48691748009E+03  0.48691748009E+03  0.00000000000E+00 0. -1.
         21    1    1    2  503  506 -0.51011427069E+02 -0.16703316172E+02 -0.31697285114E+03  0.32148554372E+03  0.00000000000E+00 0. -1.
         21    1    1    2  504  501  0.45777667940E+02  0.11093566739E+03  0.22265657116E+03  0.25293925331E+03  0.00000000000E+00 0. -1.
         21    1    1    2  505  504  0.19468942828E+02 -0.14195796572E+03  0.22398289662E+03  0.26589366624E+03  0.00000000000E+00 0.  1.
         21    1    1    2  506  502 -0.14235183698E+02  0.47725614502E+02 -0.12687929637E+03  0.13630381719E+03  0.00000000000E+00 0. -1.
<scales pt_clust_3="68.96071" pt_clust_4="125.30806" pt_clust_5="14000.00000" pt_clust_6="49.80336"></scales>
<clustering>
<clus scale="   49.803">  2  6  1 -1</clus>
<clus scale="   68.961">  2  3  1 -1</clus>
<clus scale="  125.308">  1  4  2 -1</clus>
<clus scale="  125.308">  1  3  2 -1</clus>
</clustering>
</event>
<event>
 6    0  0.4187730E+002  0.6623908E+02  0.7546771E-02  0.1373370E+00
         21   -1    0    0  504  501  0.00000000000E+00  0.00000000000E+00  0.11501334176E+04  0.11501334176E+04  0.00000000000E+00 0. -1.
         21   -1    0    0  506  502 -0.00000000000E+00 -0.00000000000E+00 -0.48925222557E+03  0.48925222557E+03  0.00000000000E+00 0.  1.
         21    1    1    2  503  501  0.67995201614E+02  0.55672540514E+01  0.10677599583E+04  0.10699372272E+04  0.00000000000E+00 0. -1.
         21    1    1    2  504  505 -0.17688691173E+02 -0.48626991899E+02  0.50690224783E+02  0.72435992608E+02  0.00000000000E+00 0.  1.
         21    1    1    2  505  502 -0.21624469195E+02  0.94573457829E+02 -0.40980816470E+03  0.42113476281E+03  0.00000000000E+00 0.  1.
         21    1    1    2  506  503 -0.28682041246E+02 -0.51513719982E+02 -0.47760826305E+02  0.75877660518E+02  0.00000000000E+00 0.  1.
<scales pt_clust_3="66.23908" pt_clust_4="51.74432" pt_clust_5="14000.00000" pt_clust_6="59.62025"></scales>
<clustering>
<clus scale="   51.744">  1  4  2 -1</clus>
<clus scale="   59.620">  2  6  1 -1</clus>
<clus scale="   66.239">  1  3  2 -1</clus>
<clus scale="   51.744">  1  3  2 -1</clus>
</clustering>
</event>
<event>
 6    0  0.3446372E+002  0.6181771E+02  0.7546771E-02  0.1390358E+00
         21   -1    0    0  506  501  0.00000000000E+00  0.00000000000E+00  0.13154502139E+03  0.13154502139E+03  0.00000000000E+00 0.  1.
         21   -1    0    0  504  502 -0.00000000000E+00 -0.00000000000E+00 -0.54200793864E+03  0.54200793864E+03  0.00000000000E+00 0.  1.
         21    1    1    2  503  502 -0.68766645049E+02 -0.65720705700E+01 -0.33651188435E+03  0.34352917182E+03  0.00000000000E+00 0.  1.
         21    1    1    2  504  505  0.30273989059E+02 -0.38227448250E+02 -0.12938979790E+03  0.13827354055E+03  0.00000000000E+00 0.  1.
         21    1    1    2  505  501  0.25871156891E+02 -0.51784143362E+02  0.72591835981E+02  0.92846588056E+02  0.00000000000E+00 0.  1.
         21    1    1    2  506  503  0.12621499099E+02  0.96583662182E+02 -0.17153070985E+02  0.98903659610E+02  0.00000000000E+00 0.  1.
<scales pt_clust_3="58.07086" pt_clust_4="48.76323" pt_clust_5="61.81771" pt_clust_6="14000.00000"></scales>
<clustering>
<clus scale="   48.763">  2  4  1 -1</clus>
<clus scale="   58.071">  2  3  1 -1</clus>
<clus scale="   61.818">  1  5  2 -1</clus>
<clus scale="   61.818">  1  3  2 -1</clus>
</clustering>
</event>
<event>
 6    0  0.3446372E+002  0.7606273E+02  0.7546771E-02  0.1340611E+00
         21   -1    0    0  503  501  0.00000000000E+00  0.00000000000E+00  0.52030197154E+03  0.52030197154E+03  0.00000000000E+00 0.  1.
         21   -1    0    0  505  502 -0.00000000000E+00 -0.00000000000E+00 -0.90086164983E+02  0.90086164983E+02  0.00000000000E+00 0.  1.
         21    1    1    2  503  504 -0.47957154047E+02 -0.19824236127E+02  0.27373671765E+03  0.27861205923E+03  0.00000000000E+00 0.  1.
         21    1    1    2  504  506 -0.32451124802E+02 -0.47405687446E+02  0.48168129341E+02  0.74970283362E+02  0.00000000000E+00 0.  1.
         21    1    1    2  505  501 -0.58142348594E+02  0.38142772392E+02 -0.12551169754E+02  0.70660707950E+02  0.00000000000E+00 0.  1.
         21    1    1    2  506  502  0.13855062744E+03  0.29087151181E+02  0.12086212932E+03  0.18614508597E+03  0.00000000000E+00 0.  1.
<scales pt_clust_3="51.89305" pt_clust_4="68.77984" pt_clust_5="14000.00000" pt_clust_6="76.06273"></scales>
<clustering>
<clus scale="   51.893">  1  3  2 -1</clus>
<clus scale="   68.780">  1  4  2 -1</clus>
<clus scale="   76.063">  1  6  2 -1</clus>
<clus scale="   51.893">  1  3  2 -1</clus>
</clustering>
</event>
<event>
 6    0  0.3446372E+002  0.2031090E+03  0.7546771E-02  0.1147142E+00
         21   -1    0    0  506  501  0.00000000000E+00  0.00000000000E+00  0.11368492724E+04  0.11368492724E+04  0.00000000000E+00 0.  1.
         21   -1    0    0  503  502 -0.00000000000E+00 -0.00000000000E+00 -0.11993464189E+04  0.11993464189E+04  0.00000000000E+00 0. -1.
         21    1    1    2  503  501  0.21078958165E+03 -0.16819453350E+03 -0.10266703246E+04  0.10614959276E+04  0.00000000000E+00 0. -1.
         21    1    1    2  504  502 -0.19490718287E+02  0.72004608835E+02 -0.82767503669E+02  0.11142267030E+03  0.00000000000E+00 0. -1.
         21    1    1    2  505  504 -0.99595741650E+02  0.11338347809E+03  0.45676406228E+02  0.15767516908E+03  0.00000000000E+00 0. -1.
         21    1    1    2  506  505 -0.91703121716E+02 -0.17193553427E+02  0.10012642756E+04  0.10056019244E+04  0.00000000000E+00 0.  1.
<scales pt_clust_3="203.10897" pt_clust_4="74.59592" pt_clust_5="14000.00000" pt_clust_6="93.31272"></scales>
<clustering>
<clus scale="   74.596">  2  4  1 -1</clus>
<clus scale="   93.313">  1  6  2 -1</clus>
<clus scale="  203.109">  2  3  1 -1</clus>
<clus scale="   93.313">  1  3  2 -1</clus>
</clustering>
</event>
<event>
 6    0  0.3446372E+002  0.9322154E+02  0.7546771E-02  0.1295233E+00
         21   -1    0    0  503  501  0.00000000000E+00  0.00000000000E+00  0.98508493180E+03  0.98508493180E+03  0.00000000000E+00 0.  1.
         21   -1    0    0  506  502 -0.00000000000E+00 -0.00000000000E+00 -0.23498415124E+03  0.23498415124E+03  0.00000000000E+00 0. -1.
         21    1    1    2  503  505 -0.13316472606E+03  0.35847361539E+02  0.79997556223E+03  0.81177507831E+03  0.00000000000E+00 0.  1.
         21    1    1    2  504  501  0.40143828291E+02 -0.39897620498E+02  0.15505651326E+03  0.16506322842E+03  0.00000000000E+00 0.  1.
         21    1    1    2  505  502  0.74943404523E+02 -0.23503670793E+02 -0.19267841462E+03  0.20807188152E+03  0.00000000000E+00 0. -1.
         21    1    1    2  506  504  0.18077493242E+02  0.27553929753E+02 -0.12252880315E+02  0.35158894789E+02  0.00000000000E+00 0. -1.
<scales pt_clust_3="14000.00000" pt_clust_4="56.44696" pt_clust_5="93.22154" pt_clust_6="32.95474"></scales>
<clustering>
<clus scale="   32.955">  2  6  1 -1</clus>
<clus scale="   56.447">  1  4  2 -1</clus>
<clus scale="   93.222">  2  5  1 -1</clus>
<clus scale="   56.447">  1  3  2 -1</clus>
</clustering>
</event>
<event>
 6    0  0.3446372E+002  0.2041757E+03  0.7546771E-02  0.1146263E+00
         21   -1    0    0  504  501  0.00000000000E+00  0.00000000000E+00  0.57456463523E+03  0.57456463523E+03  0.00000000000E+00 0. -1.
         21   -1    0    0  506  502 -0.00000000000E+00 -0.00000000000E+00 -0.44763217229E+03  0.44763217229E+03  0.00000000000E+00 0. -1.
         21    1    1    2  503  501 -0.39704399198E+02 -0.26643069136E+01  0.20880411516E+03  0.21256221760E+03  0.00000000000E+00 0. -1.
         21    1    1    2  504  502  0.23810001437E+03 -0.56712946807E+02 -0.30862118993E+03  0.39389721254E+03  0.00000000000E+00 0. -1.
         21    1    1    2  505  503 -0.14677330803E+03  0.14127377512E+02  0.28811891085E+03  0.32365798852E+03  0.00000000000E+00 0. -1.
         21    1    1    2  506  505 -0.51622307143E+02  0.45249876208E+02 -0.61369373139E+02  0.92079388850E+02  0.00000000000E+00 0. -1.
<scales pt_clust_3="39.20141" pt_clust_4="189.71933" pt_clust_5="39.20141" pt_clust_6="68.64702"></scales>
<clustering>
<clus scale="   39.201">  3  5 -1 -1</clus>
<clus scale="   68.647">  2  6  1 -1</clus>
<clus scale="  189.719">  2  4  1 -1</clus>
<clus scale="  204.176">  1  3  2 -1</clus>
</clustering>
</event>
<event>
 6    0  0.3446372E+002  0.7999193E+02  0.7546771E-02  0.1329074E+00
         21   -1    0    0  505  501  0.00000000000E+00  0.00000000000E+00  0.10773773298E+04  0.10773773298E+04  0.00000000000E+00 0. -1.
         21   -1    0    0  506  502 -0.00000000000E+00 -0.00000000000E+00 -0.50249365284E+02  0.50249365284E+02  0.00000000000E+00 0.  1.
         21    1    1    2  503  501 -0.26223181272E+02 -0.19612839786E+02  0.68543523277E+03  0.68621700434E+03  0.00000000000E+00 0. -1.
         21    1    1    2  504  503  0.17511768971E+02  0.11176189769E+03  0.15751857908E+03  0.19393165442E+03  0.00000000000E+00 0. -1.
         21    1    1    2  505  502 -0.19542805026E+02 -0.23253433008E+02  0.16871321272E+03  0.17142576096E+03  0.00000000000E+00 0. -1.
         21    1    1    2  506  504  0.28254217326E+02 -0.68895624897E+02  0.15460939960E+02  0.76052275384E+02  0.00000000000E+00 0.  1.
<scales pt_clust_3="55.35082" pt_clust_4="79.99193" pt_clust_5="30.37505" pt_clust_6="14000.00000"></scales>
<clustering>
<clus scale="   30.375">  1  5  2 -1</clus>
<clus scale="   55.351">  1  3  2 -1</clus>
<clus scale="   79.992">  1  4  2 -1</clus>
<clus scale="   30.375">  1  3  2 -1</clus>
</clustering>
</event>
<event>
 6    0  0.3446372E+002  0.8719025E+02  0.7546771E-02  0.1309802E+00
         21   -1    0    0  505  501  0.00000000000E+00  0.00000000000E+00  0.55356016950E+02  0.55356016950E+02  0.00000000000E+00 0.  1.
         21   -1    0    0  503  502 -0.00000000000E+00 -0.00000000000E+00 -0.65633423966E+03  0.65633423966E+03  0.00000000000E+00 0.  1.
         21    1    1    2  503  504 -0.12619417642E+02 -0.71192843776E+02 -0.21321624242E+03  0.22514181473E+03  0.00000000000E+00 0.  1.
         21    1    1    2  504  506 -0.34044224850E+02  0.10987415517E+03 -0.37285914817E+03  0.39019903074E+03  0.00000000000E+00 0.  1.
         21    1    1    2  505  502  0.76133271365E+01 -0.35303037151E+02 -0.36708974165E+02  0.51495785909E+02  0.00000000000E+00 0.  1.
         21    1    1    2  506  501  0.39050315355E+02 -0.33782742421E+01  0.21806142039E+02  0.44853625236E+02  0.00000000000E+00 0.  1.
<scales pt_clust_3="87.19025" pt_clust_4="14000.00000" pt_clust_5="36.11464" pt_clust_6="52.39401"></scales>
<clustering>
<clus scale="   36.115">  1  5  2 -1</clus>
<clus scale="   52.394">  1  6  2 -1</clus>
<clus scale="   87.190">  2  3  1 -1</clus>
<clus scale="   36.115">  1  3  2 -1</clus>
</clustering>
</event>
<event>
 6    0  0.3446372E+002  0.8546846E+02  0.7546771E-02  0.1314212E+00
         21   -1    0    0  504  501  0.00000000000E+00  0.00000000000E+00  0.17651648861E+03  0.17651648861E+03  0.00000000000E+00 0. -1.
         21   -1    0    0  505  502 -0.00000000000E+00 -0.00000000000E+00 -0.23263849180E+03  0.23263849180E+03  0.00000000000E+00 0. -1.
         21    1    1    2  503  501 -0.71147596025E+02  0.23049940339E+02 -0.50719137819E+02  0.90364324326E+02  0.00000000000E+00 0. -1.
         21    1    1    2  504  506  0.96955221116E+01 -0.10002186245E+03  0.95567159431E+02  0.13867753271E+03  0.00000000000E+00 0. -1.
         21    1    1    2  505  503  0.68605445452E+02  0.94652824659E+01 -0.15507507940E+02  0.70970286179E+02  0.00000000000E+00 0. -1.
         21    1    1    2  506  502 -0.71533715379E+01  0.67506639649E+02 -0.85462516867E+02  0.10914283719E+03  0.00000000000E+00 0. -1.
<scales pt_clust_3="85.46846" pt_clust_4="14000.00000" pt_clust_5="73.22159" pt_clust_6="67.88459"></scales>
<clustering>
<clus scale="   67.885">  2  6  1 -1</clus>
<clus scale="   73.222">  2  5  1 -1</clus>
<clus scale="   85.468">  2  3  1 -1</clus>
<clus scale="   85.468">  1  3  2 -1</clus>
</clustering>
</event>
<event>
 6    0  0.3446372E+002  0.2140126E+03  0.7546771E-02  0.1138427E+00
         21   -1    0    0  504  501  0.00000000000E+00  0.00000000000E+00  0.17052571482E+03  0.17052571482E+03  0.00000000000E+00 0.  1.
         21   -1    0    0  505  502 -0.00000000000E+00 -0.00000000000E+00 -0.26152456438E+04  0.26152456438E+04  0.00000000000E+00 0.  1.
         21    1    1    2  503  502 -0.15490826329E+02  0.60423273016E+02 -0.15700694949E+03  0.16894413221E+03  0.00000000000E+00 0. -1.
         21    1    1    2  504  503 -0.19555215162E+03  0.48122781739E+01  0.98404867058E+02  0.21896876463E+03  0.00000000000E+00 0.  1.
         21    1    1    2  505  506  0.10956064042E+03 -0.75405002500E+02 -0.11936387148E+04  0.12010257407E+04  0.00000000000E+00 0.  1.
         21    1    1    2  506  501  0.10148233753E+03  0.10169451310E+02 -0.11924791318E+04  0.11968327211E+04  0.00000000000E+00 0.  1.
<scales pt_clust_3="62.37738" pt_clust_4="196.03413" pt_clust_5="81.96990" pt_clust_6="81.96990"></scales>
<clustering>
<clus scale="   62.377">  2  3  1 -1</clus>
<clus scale="   81.970">  5  6 -1 -1</clus>
<clus scale="  196.034">  1  4  2 -1</clus>
<clus scale="  196.034">  1  3  2 -1</clus>
</clustering>
</event>
<event>
 6    0  0.3446372E+002  0.1437762E+03  0.7546771E-02  0.1208336E+00
         21   -1    0    0  503  501  0.00000000000E+00  0.00000000000E+00  0.11202556582E+04  0.11202556582E+04  0.00000000000E+00 0. -1.
         21   -1    0    0  505  502 -0.00000000000E+00 -0.00000000000E+00 -0.72623634305E+03  0.72623634305E+03  0.00000000000E+00 0. -1.
         21    1    1    2  503  502 -0.10368574219E+03 -0.48602597931E+02 -0.67203756632E+03  0.68172387093E+03  0.00000000000E+00 0. -1.
         21    1    1    2  504  506  0.98325587252E+02  0.70742734724E+02  0.94671554680E+03  0.95443322563E+03  0.00000000000E+00 0. -1.
         21    1    1    2  505  504 -0.32858311051E+02  0.12799953820E+01 -0.35940145512E+02  0.48713458641E+02  0.00000000000E+00 0. -1.
         21    1    1    2  506  501  0.38218465988E+02 -0.23420132174E+02  0.15528148017E+03  0.16162144603E+03  0.00000000000E+00 0.  1.
<scales pt_clust_3="143.77616" pt_clust_4="14000.00000" pt_clust_5="32.88323" pt_clust_6="44.69069"></scales>
<clustering>
<clus scale="   32.883">  2  5  1 -1</clus>
<clus scale="   44.691">  1  6  2 -1</clus>
<clus scale="  143.776">  2  3  1 -1</clus>
<clus scale="   44.691">  1  3  2 -1</clus>
</clustering>
</event>
<event>
 6    0  0.3446372E+002  0.1321344E+03  0.7546771E-02  0.1224323E+00
         21   -1    0    0  506  501  0.00000000000E+00  0.00000000000E+00  0.43044403434E+03  0.43044403434E+03  0.00000000000E+00 0.  1.
         21   -1    0    0  503  502 -0.00000000000E+00 -0.00000000000E+00 -0.16333152877E+03  0.16333152877E+03  0.00000000000E+00 0.  1.
         21    1    1    2  503  501 -0.76812280163E+02  0.11055685952E+03 -0.80165345021E+02  0.15668257118E+03  0.00000000000E+00 0.  1.
         21    1    1    2  504  502  0.43130930216E+02 -0.34343721651E+02 -0.87050281968E+01  0.55817075112E+02  0.00000000000E+00 0. -1.
         21    1    1    2  505  504  0.12665258515E+02 -0.43956500260E+02  0.33991819157E+02  0.56991459518E+02  0.00000000000E+00 0. -1.
         21    1    1    2  506  505  0.21016091432E+02 -0.32256637606E+02  0.32199105963E+03  0.32428445731E+03  0.00000000000E+00 0.  1.
<scales pt_clust_3="120.90199" pt_clust_4="52.60216" pt_clust_5="52.60216" pt_clust_6="38.49892"></scales>
<clustering>
<clus scale="   38.499">  1  6  2 -1</clus>
<clus scale="   52.602">  4  5 -1 -1</clus>
<clus scale="  120.902">  2  3  1 -1</clus>
<clus scale="   38.499">  1  3  2 -1</clus>
</clustering>
</event>
<event>
 6    0  0.3446372E+002  0.1470593E+03  0.7546771E-02  0.1204134E+00
         21   -1    0    0  503  501  0.00000000000E+00  0.00000000000E+00  0.37359419194E+03  0.37359419194E+03  0.00000000000E+00 0. -1.
         21   -1    0    0  504  502 -0.00000000000E+00 -0.00000000000E+00 -0.29720180172E+03  0.29720180172E+03  0.00000000000E+00 0.  1.
         21    1    1    2  503  502  0.87134037958E+02  0.85607949300E+02  0.27214062103E+03  0.29829780282E+03  0.00000000000E+00 0. -1.
         21    1    1    2  504  505 -0.51612245266E+02  0.36928624457E+01 -0.59267574174E+02  0.78677229508E+02  0.00000000000E+00 0.  1.
         21    1    1    2  505  506 -0.64707860948E+01 -0.14695880869E+03 -0.16688061489E+03  0.22245876505E+03  0.00000000000E+00 0.  1.
         21    1    1    2  506  501 -0.29051006597E+02  0.57657996944E+02  0.30399958253E+02  0.71362196278E+02  0.00000000000E+00 0. -1.
<scales pt_clust_3="14000.00000" pt_clust_4="51.74419" pt_clust_5="147.05925" pt_clust_6="67.06184"></scales>
<clustering>
<clus scale="   51.744">  2  4  1 -1</clus>
<clus scale="   67.062">  1  6  2 -1</clus>
<clus scale="  147.059">  2  5  1 -1</clus>
<clus scale="   67.062">  1  3  2 -1</clus>
</clustering>
</event>
<event>
 6    0  0.3446372E+002  0.8710434E+02  0.7546771E-02  0.1310019E+00
         21   -1    0    0  504  501  0.00000000000E+00  0.00000000000E+00  0.25658861421E+02  0.25658861421E+02  0.00000000000E+00 0. -1.
         21   -1    0    0  505  502 -0.00000000000E+00 -0.00000000000E+00 -0.98554397788E+03  0.98554397788E+03  0.00000000000E+00 0. -1.
         21    1    1    2  503  502 -0.10579687435E+03  0.14289018790E+02 -0.19801133751E+03  0.22495698358E+03  0.00000000000E+00 0. -1.
         21    1    1    2  504  503  0.69670433687E+01  0.37155187469E+02 -0.64522390284E+02  0.74780923350E+02  0.00000000000E+00 0. -1.
         21    1    1    2  505  506  0.82446823224E+02 -0.69487460786E+00 -0.51193425904E+03  0.51853124023E+03  0.00000000000E+00 0. -1.
         21    1    1    2  506  501  0.16383007754E+02 -0.50749331651E+02 -0.18541712963E+03  0.19293369214E+03  0.00000000000E+00 0. -1.
<scales pt_clust_3="14000.00000" pt_clust_4="37.80275" pt_clust_5="87.10434" pt_clust_6="47.36243"></scales>
<clustering>
<clus scale="   37.803">  1  4  2 -1</clus>
<clus scale="   47.362">  1  6  2 -1</clus>
<clus scale="   87.104">  2  5  1 -1</clus>
<clus scale="   37.803">  1  3  2 -1</clus>
</clustering>
</event>
<event>
 6    0  0.3446372E+002  0.2364628E+03  0.7546771E-02  0.1122172E+00
         21   -1    0    0  502  501  0.00000000000E+00  0.00000000000E+00  0.36652800744E+03  0.36652800744E+03  0.00000000000E+00 0. -1.
         21   -1    0    0  503  502 -0.00000000000E+00 -0.00000000000E+00 -0.14746268217E+03  0.14746268217E+03  0.00000000000E+00 0. -1.
         21    1    1    2  503  505  0.47037875047E+02  0.20539972082E+03  0.33399883539E+02  0.21334750812E+03  0.00000000000E+00 0. -1.
         21    1    1    2  504  506 -0.19966046638E+02 -0.10552856913E+03  0.78166975450E+02  0.13283447584E+03  0.00000000000E+00 0. -1.
         21    1    1    2  505  504 -0.30540452582E+02 -0.19118966828E+02  0.36540323600E+01  0.36216102620E+02  0.00000000000E+00 0. -1.
         21    1    1    2  506  501  0.34686241723E+01 -0.80752184865E+02  0.10384443393E+03  0.13159260303E+03  0.00000000000E+00 0. -1.
<scales pt_clust_3="210.71689" pt_clust_4="55.52650" pt_clust_5="35.68380" pt_clust_6="55.52650"></scales>
<clustering>
<clus scale="   35.684">  4  5 -1 -1</clus>
<clus scale="   55.526">  4  6 -1 -1</clus>
<clus scale="  210.717">  2  3  1 -1</clus>
<clus scale="  236.463">  1  3  2 -1</clus>
</clustering>
</event>
<event>
 6    0  0.3446372E+002  0.1123176E+03  0.7546771E-02  0.1256337E+00
         21   -1    0    0  503  501  0.00000000000E+00  0.00000000000E+00  0.21672753633E+03  0.21672753633E+03  0.00000000000E+00 0.  1.
         21   -1    0    0  506  502 -0.00000000000E+00 -0.00000000000E+00 -0.21614484442E+04  0.21614484442E+04  0.00000000000E+00 0. -1.
         21    1    1    2  503  504 -0.32294911975E+02 -0.18073347795E+03 -0.53080339831E+03  0.56165808019E+03  0.00000000000E+00 0. -1.
         21    1    1    2  504  505  0.17951978967E+02  0.47330893057E+02 -0.52090877770E+03  0.52336262923E+03  0.00000000000E+00 0. -1.
         21    1    1    2  505  502  0.16184467263E+02  0.42355838212E+02 -0.10822202943E+04  0.10831697556E+04  0.00000000000E+00 0. -1.
         21    1    1    2  506  501 -0.18415342555E+01  0.91046746678E+02  0.18921156250E+03  0.20998551548E+03  0.00000000000E+00 0.  1.
<scales pt_clust_3="104.40679" pt_clust_4="39.18804" pt_clust_5="39.18804" pt_clust_6="91.06537"></scales>
<clustering>
<clus scale="   39.188">  4  5 -1 -1</clus>
<clus scale="   91.065">  1  6  2 -1</clus>
<clus scale="  104.407">  1  3  2 -1</clus>
<clus scale="   91.065">  1  3  2 -1</clus>
</clustering>
</event>
<event>
 6    0  0.3446372E+002  0.7991349E+02  0.7546771E-02  0.1329297E+00
         21   -1    0    0  503  501  0.00000000000E+00  0.00000000000E+00  0.50625234691E+03  0.50625234691E+03  0.00000000000E+00 0.  1.
         21   -1    0    0  504  502 -0.00000000000E+00 -0.00000000000E+00 -0.41922969759E+02  0.41922969759E+02  0.00000000000E+00 0.  1.
         21    1    1    2  503  502  0.11320680930E+03  0.18723743061E+02  0.23756842454E+03  0.26382781613E+03  0.00000000000E+00 0.  1.
         21    1    1    2  504  505 -0.35720056783E+02 -0.14411984961E+02  0.10953913031E+02  0.40045174214E+02  0.00000000000E+00 0.  1.
         21    1    1    2  505  506 -0.52793200999E+02  0.35476902349E+02  0.91228539426E+02  0.11121321449E+03  0.00000000000E+00 0.  1.
         21    1    1    2  506  501 -0.24693551519E+02 -0.39788660449E+02  0.12457850016E+03  0.13308911183E+03  0.00000000000E+00 0.  1.
<scales pt_clust_3="14000.00000" pt_clust_4="38.51789" pt_clust_5="79.91349" pt_clust_6="51.78040"></scales>
<clustering>
<clus scale="   38.518">  2  4  1 -1</clus>
<clus scale="   51.780">  1  6  2 -1</clus>
<clus scale="   79.913">  2  5  1 -1</clus>
<clus scale="   51.780">  1  3  2 -1</clus>
</clustering>
</event>
<event>
 6    0  0.3446372E+002  0.1155482E+03  0.7546771E-02  0.1250627E+00
         21   -1    0    0  503  501  0.00000000000E+00  0.00000000000E+00  0.28609418406E+03  0.28609418406E+03  0.00000000000E+00 0.  1.
         21   -1    0    0  505  502 -0.00000000000E+00 -0.00000000000E+00 -0.61252579089E+02  0.61252579089E+02  0.00000000000E+00 0.  1.
         21    1    1    2  503  502  0.41989834959E+00 -0.34168895916E+02  0.17650932476E+02  0.38460956567E+02  0.00000000000E+00 0.  1.
         21    1    1    2  504  501  0.50752142076E+02 -0.61281543850E+01  0.68585513150E+02  0.85541257972E+02  0.00000000000E+00 0.  1.
         21    1    1    2  505  506 -0.11062187882E+03  0.21694999804E+02  0.93057178777E+02  0.14617630318E+03  0.00000000000E+00 0.  1.
         21    1    1    2  506  504  0.59449838396E+02  0.18602050498E+02  0.45547980565E+02  0.77168245423E+02  0.00000000000E+00 0.  1.
<scales pt_clust_3="34.17148" pt_clust_4="30.69199" pt_clust_5="110.46957" pt_clust_6="30.69199"></scales>
<clustering>
<clus scale="   30.692">  4  6 -1 -1</clus>
<clus scale="   34.171">  2  3  1 -1</clus>
<clus scale="  110.470">  2  5  1 -1</clus>
<clus scale="  115.548">  1  3  2 -1</clus>
</clustering>
</event>
<event>
 6    0  0.3446372E+002  0.1662363E+03  0.7546771E-02  0.1181831E+00
         21   -1    0    0  503  501  0.00000000000E+00  0.00000000000E+00  0.29969665983E+03  0.29969665983E+03  0.00000000000E+00 0.  1.
         21   -1    0    0  506  502 -0.00000000000E+00 -0.00000000000E+00 -0.89859256031E+03  0.89859256031E+03  0.00000000000E+00 0.  1.
         21    1    1    2  503  502 -0.20284867224E+03 -0.10319119867E+03  0.18413015035E+03  0.29274548601E+03  0.00000000000E+00 0.  1.
         21    1    1    2  504  501  0.34887225240E+02  0.30504965382E+02  0.29877153586E+02  0.55139057883E+02  0.00000000000E+00 0.  1.
         21    1    1    2  505  504  0.76344934392E+02  0.61059663427E+02 -0.13746115860E+03  0.16867839704E+03  0.00000000000E+00 0.  1.
         21    1    1    2  506  505  0.91616512610E+02  0.11626569856E+02 -0.67544204582E+03  0.68172627922E+03  0.00000000000E+00 0.  1.
<scales pt_clust_3="14000.00000" pt_clust_4="46.34298" pt_clust_5="166.23633" pt_clust_6="92.82159"></scales>
<clustering>
<clus scale="   46.343">  1  4  2 -1</clus>
<clus scale="   92.822">  2  6  1 -1</clus>
<clus scale="  166.236">  2  5  1 -1</clus>
<clus scale="   46.343">  1  3  2 -1</clus>
</clustering>
</event>
<event>
 6    0  0.3446372E+002  0.1235328E+03  0.7546771E-02  0.1237380E+00
         21   -1    0    0  506  501  0.00000000000E+00  0.00000000000E+00  0.83364360286E+02  0.83364360286E+02  0.00000000000E+00 0.  1.
         21   -1    0    0  503  502 -0.00000000000E+00 -0.00000000000E+00 -0.62614194773E+03  0.62614194773E+03  0.00000000000E+00 0.  1.
         21    1    1    2  503  505  0.31576848120E+02 -0.53087700349E+02 -0.24467963603E+03  0.25235595011E+03  0.00000000000E+00 0.  1.
         21    1    1    2  504  501 -0.10436608586E+03  0.31966036679E+02 -0.11108579210E+02  0.10971557734E+03  0.00000000000E+00 0.  1.
         21    1    1    2  505  504 -0.19455286833E+02 -0.61776379153E+02 -0.14562802156E+03  0.15938114653E+03  0.00000000000E+00 0.  1.
         21    1    1    2  506  502  0.92244524576E+02  0.82898042823E+02 -0.14136135065E+03  0.18805363404E+03  0.00000000000E+00 0.  1.
<scales pt_clust_3="60.56888" pt_clust_4="109.15176" pt_clust_5="60.56888" pt_clust_6="106.83478"></scales>
<clustering>
<clus scale="   60.569">  3  5 -1 -1</clus>
<clus scale="  109.152">  1  4  2 -1</clus>
<clus scale="  106.835">  1  6  2 -1</clus>
<clus scale="  109.152">  1  3  2 -1</clus>
</clustering>
</event>
<event>
 6    0  0.3446372E+002  0.2699382E+03  0.7546771E-02  0.1101315E+00
         21   -1    0    0  506  501  0.00000000000E+00  0.00000000000E+00  0.69285443363E+03  0.69285443363E+03  0.00000000000E+00 0. -1.
         21   -1    0    0  503  502 -0.00000000000E+00 -0.00000000000E+00 -0.11906489099E+04  0.11906489099E+04  0.00000000000E+00 0.  1.
         21    1    1    2  503  505  0.44439693940E+02 -0.36594737416E+02 -0.80162822223E+02  0.98692143916E+02  0.00000000000E+00 0.  1.
         21    1    1    2  504  502  0.19878837960E+03 -0.94523584558E+02 -0.10292632615E+04  0.10525371202E+04  0.00000000000E+00 0.  1.
         21    1    1    2  505  501 -0.13286710768E+03  0.17733770186E+03  0.55946015828E+03  0.60174579144E+03  0.00000000000E+00 0. -1.
         21    1    1    2  506  504 -0.11036096585E+03 -0.46219379889E+02  0.52171449156E+02  0.13052828800E+03  0.00000000000E+00 0. -1.
<scales pt_clust_3="57.56788" pt_clust_4="269.93821" pt_clust_5="14000.00000" pt_clust_6="118.70698"></scales>
<clustering>
<clus scale="   57.568">  2  3  1 -1</clus>
<clus scale="  118.707">  1  6  2 -1</clus>
<clus scale="  269.938">  2  4  1 -1</clus>
<clus scale="  118.707">  1  3  2 -1</clus>
</clustering>
</event>
<event>
 6    0  0.3446372E+002  0.1233085E+03  0.7546771E-02  0.1237737E+00
         21   -1    0    0  503  501  0.00000000000E+00  0.00000000000E+00  0.34808591237E+02  0.34808591237E+02  0.00000000000E+00 0. -1.
         21   -1    0    0  504  502 -0.00000000000E+00 -0.00000000000E+00 -0.75304751146E+03  0.75304751146E+03  0.00000000000E+00 0. -1.
         21    1    1    2  503  506 -0.32208920577E+02  0.20115694653E+02 -0.21692427510E+02  0.43733478564E+02  0.00000000000E+00 0. -1.
         21    1    1    2  504  501  0.13717892399E+03 -0.32449905240E+02 -0.29311394840E+03  0.32524888975E+03  0.00000000000E+00 0. -1.
         21    1    1    2  505  502 -0.58241292726E+02 -0.88421803700E+01 -0.25855162263E+03  0.26517762707E+03  0.00000000000E+00 0. -1.
         21    1    1    2  506  505 -0.46728710684E+02  0.21176390958E+02 -0.14488092168E+03  0.15369610732E+03  0.00000000000E+00 0. -1.
<scales pt_clust_3="37.97441" pt_clust_4="116.95481" pt_clust_5="36.46182" pt_clust_6="36.46182"></scales>
<clustering>
<clus scale="   36.462">  5  6 -1 -1</clus>
<clus scale="   37.974">  1  3  2 -1</clus>
<clus scale="  116.955">  1  4  2 -1</clus>
<clus scale="   37.974">  1  3  2 -1</clus>
</clustering>
</event>
<event>
 6    0  0.3446372E+002  0.2152350E+03  0.7546771E-02  0.1137486E+00
         21   -1    0    0  502  501  0.00000000000E+00  0.00000000000E+00  0.39233574828E+03  0.39233574828E+03  0.00000000000E+00 0.  1.
         21   -1    0    0  503  502 -0.00000000000E+00 -0.00000000000E+00 -0.71540439745E+03  0.71540439745E+03  0.00000000000E+00 0.  1.
         21    1    1    2  503  504 -0.27910406227E+02 -0.70335131644E+02 -0.18228256281E+03  0.19736502787E+03  0.00000000000E+00 0.  1.
         21    1    1    2  504  505 -0.17174350650E+03 -0.23750425133E+02 -0.46836820765E+03  0.49942836589E+03  0.00000000000E+00 0.  1.
         21    1    1    2  505  506  0.17473268348E+03  0.12004975588E+03  0.27505272079E+03  0.34727144106E+03  0.00000000000E+00 0.  1.
         21    1    1    2  506  501  0.24921229241E+02 -0.25964199107E+02  0.52529400512E+02  0.63675310916E+02  0.00000000000E+00 0. -1.
<scales pt_clust_3="76.01119" pt_clust_4="215.23500" pt_clust_5="14000.00000" pt_clust_6="35.98899"></scales>
<clustering>
<clus scale="   35.989">  1  6  2 -1</clus>
<clus scale="   76.011">  2  3  1 -1</clus>
<clus scale="  215.235">  2  4  1 -1</clus>
<clus scale="   35.989">  1  3  2 -1</clus>
</clustering>
</event>
<event>
 6    0  0.3446372E+002  0.1346908E+03  0.7546771E-02  0.1220657E+00
         21   -1    0    0  506  501  0.00000000000E+00  0.00000000000E+00  0.50594646092E+02  0.50594646092E+02  0.00000000000E+00 0.  1.
         21   -1    0    0  504  502 -0.00000000000E+00 -0.00000000000E+00 -0.12613279717E+04  0.12613279717E+04  0.00000000000E+00 0. -1.
         21    1    1    2  503  502 -0.82761319570E+01 -0.38798497014E+02 -0.31843783622E+03  0.32089947533E+03  0.00000000000E+00 0. -1.
         21    1    1    2  504  505 -0.78044301357E+02  0.10634630496E+03 -0.10030294661E+03  0.16571400258E+03  0.00000000000E+00 0.  1.
         21    1    1    2  505  501  0.33883894821E+02  0.11465422107E+02 -0.93912056575E+01  0.36983360800E+02  0.00000000000E+00 0. -1.
         21    1    1    2  506  503  0.52436538493E+02 -0.79013230058E+02 -0.78260133711E+03  0.78832577907E+03  0.00000000000E+00 0. -1.
<scales pt_clust_3="30.77314" pt_clust_4="126.00777" pt_clust_5="35.77114" pt_clust_6="30.77314"></scales>
<clustering>
<clus scale="   30.773">  3  6 -1 -1</clus>
<clus scale="   35.771">  1  5  2 -1</clus>
<clus scale="  126.008">  1  4  2 -1</clus>
<clus scale="   35.771">  1  3  2 -1</clus>
</clustering>
</event>
<event>
 6    0  0.3446372E+002  0.1346039E+03  0.7546771E-02  0.1220780E+00
         21   -1    0    0  503  501  0.00000000000E+00  0.00000000000E+00  0.27887855666E+04  0.27887855666E+04  0.00000000000E+00 0.  1.
         21   -1    0    0  504  502 -0.00000000000E+00 -0.00000000000E+00 -0.17417027009E+02  0.17417027009E+02  0.00000000000E+00 0.  1.
         21    1    1    2  503  505  0.30619566396E+02  0.10651711326E+02  0.13203304520E+04  0.13207284048E+04  0.00000000000E+00 0.  1.
         21    1    1    2  504  501 -0.15117646456E+03 -0.12363014829E+02  0.11260916462E+04  0.11362612214E+04  0.00000000000E+00 0.  1.
         21    1    1    2  505  506  0.50425493317E+02 -0.21283297070E+01  0.81725132187E+02  0.96053409073E+02  0.00000000000E+00 0.  1.
         21    1    1    2  506  502  0.70131404845E+02  0.38396332099E+01  0.24322130920E+03  0.25315955834E+03  0.00000000000E+00 0.  1.
<scales pt_clust_3="32.41939" pt_clust_4="127.65418" pt_clust_5="35.52821" pt_clust_6="35.52821"></scales>
<clustering>
<clus scale="   32.419">  1  3  2 -1</clus>
<clus scale="   35.528">  5  6 -1 -1</clus>
<clus scale="  127.654">  1  4  2 -1</clus>
<clus scale="   32.419">  1  3  2 -1</clus>
</clustering>
</event>
<event>
 6    0  0.3446372E+002  0.1510095E+03  0.7546771E-02  0.1199238E+00
         21   -1    0    0  506  501  0.00000000000E+00  0.00000000000E+00  0.29770321279E+03  0.29770321279E+03  0.00000000000E+00 0.  1.
         21   -1    0    0  503  502 -0.00000000000E+00 -0.00000000000E+00 -0.24379396477E+03  0.24379396477E+03  0.00000000000E+00 0.  1.
         21    1    1    2  503  501  0.85563645441E+02 -0.14981728569E+03  0.20081070612E+03  0.26474760850E+03  0.00000000000E+00 0.  1.
         21    1    1    2  504  502 -0.64156606575E+02  0.49867492556E+02 -0.14573476171E+03  0.16685759722E+03  0.00000000000E+00 0.  1.
         21    1    1    2  505  504  0.71945194839E+01  0.58959732865E+02  0.46163774897E+01  0.59576187787E+02  0.00000000000E+00 0.  1.
         21    1    1    2  506  505 -0.28601558350E+02  0.40990060265E+02 -0.57830738876E+01  0.50315784045E+02  0.00000000000E+00 0.  1.
<scales pt_clust_3="145.52390" pt_clust_4="81.25784" pt_clust_5="36.99768" pt_clust_6="36.99768"></scales>
<clustering>
<clus scale="   36.998">  5  6 -1 -1</clus>
<clus scale="   81.258">  2  4  1 -1</clus>
<clus scale="  145.524">  1  3  2 -1</clus>
<clus scale="  145.524">  1  3  2 -1</clus>
</clustering>
</event>
<event>
 6    0  0.3446372E+002  0.1917433E+03  0.7546771E-02  0.1156898E+00
         21   -1    0    0  503  501  0.00000000000E+00  0.00000000000E+00  0.31481196728E+04  0.31481196728E+04  0.00000000000E+00 0. -1.
         21   -1    0    0  506  502 -0.00000000000E+00 -0.00000000000E+00 -0.66479663924E+02  0.66479663924E+02  0.00000000000E+00 0. -1.
         21    1    1    2  503  505 -0.69981693072E+01  0.60541041798E+02  0.16877397201E+04  0.16888397067E+04  0.00000000000E+00 0. -1.
         21    1    1    2  504  502  0.61849211335E+01  0.98263637886E+02  0.50012077173E+02  0.11043189595E+03  0.00000000000E+00 0. -1.
         21    1    1    2  505  504 -0.38245389069E+02  0.77962344907E+02  0.51734489910E+02  0.10108063343E+03  0.00000000000E+00 0. -1.
         21    1    1    2  506  501  0.39058637243E+02 -0.23676702459E+03  0.12921537218E+04  0.13142471007E+04  0.00000000000E+00 0. -1.
<scales pt_clust_3="60.94417" pt_clust_4="45.05625" pt_clust_5="45.05625" pt_clust_6="185.64421"></scales>
<clustering>
<clus scale="   45.056">  4  5 -1 -1</clus>
<clus scale="   60.944">  1  3  2 -1</clus>
<clus scale="  185.644">  1  6  2 -1</clus>
<clus scale="   60.944">  1  3  2 -1</clus>
</clustering>
</event>
<event>
 6    0  0.3446372E+002  0.1093410E+03  0.7546771E-02  0.1261795E+00
         21   -1    0    0  503  501  0.00000000000E+00  0.00000000000E+00  0.16668925745E+03  0.16668925745E+03  0.00000000000E+00 0. -1.
         21   -1    0    0  504  502 -0.00000000000E+00 -0.00000000000E+00 -0.11248188186E+04  0.11248188186E+04  0.00000000000E+00 0.  1.
         21    1    1    2  503  506 -0.84339227323E+02  0.41705887389E+01  0.10976671696E+03  0.13848910148E+03  0.00000000000E+00 0. -1.
         21    1    1    2  504  505  0.89687991052E+02  0.80411450539E+02 -0.38764943625E+03  0.40593351986E+03  0.00000000000E+00 0.  1.
         21    1    1    2  505  501 -0.19668784700E+02  0.37516101730E+02  0.11984952776E+02  0.44022245214E+02  0.00000000000E+00 0. -1.
         21    1    1    2  506  502  0.14320020971E+02 -0.12209814101E+03 -0.69223179460E+03  0.70306320946E+03  0.00000000000E+00 0.  1.
<scales pt_clust_3="108.70794" pt_clust_4="14000.00000" pt_clust_5="42.35940" pt_clust_6="109.34103"></scales>
<clustering>
<clus scale="   42.359">  1  5  2 -1</clus>
<clus scale="  108.708">  1  3  2 -1</clus>
<clus scale="  109.341">  2  6  1 -1</clus>
<clus scale="   42.359">  1  3  2 -1</clus>
</clustering>
</event>
<event>
 6    0  0.3446372E+002  0.1615084E+03  0.7546771E-02  0.1187004E+00
         21   -1    0    0  505  501  0.00000000000E+00  0.00000000000E+00  0.15583801265E+04  0.15583801265E+04  0.00000000000E+00 0. -1.
         21   -1    0    0  503  502 -0.00000000000E+00 -0.00000000000E+00 -0.42184024489E+03  0.42184024489E+03  0.00000000000E+00 0.  1.
         21    1    1    2  503  501  0.75378275778E+02  0.22358153807E+02  0.73674383183E+02  0.10774825399E+03  0.00000000000E+00 0.  1.
         21    1    1    2  504  502 -0.10134708125E+03 -0.11513610657E+03 -0.38812645655E+03  0.41733643525E+03  0.00000000000E+00 0.  1.
         21    1    1    2  505  506 -0.13319208232E+02  0.48358917518E+02  0.61378225797E+03  0.61582842286E+03  0.00000000000E+00 0. -1.
         21    1    1    2  506  504  0.39288013703E+02  0.44419035247E+02  0.83720969706E+03  0.83930725933E+03  0.00000000000E+00 0. -1.
<scales pt_clust_3="78.62424" pt_clust_4="152.72489" pt_clust_5="48.31774" pt_clust_6="48.31774"></scales>
<clustering>
<clus scale="   48.318">  5  6 -1 -1</clus>
<clus scale="   78.624">  1  3  2 -1</clus>
<clus scale="  152.725">  2  4  1 -1</clus>
<clus scale="   78.624">  1  3  2 -1</clus>
</clustering>
</event>
<event>
 6    0  0.3446372E+002  0.1304811E+03  0.7546771E-02  0.1226744E+00
         21   -1    0    0  505  501  0.00000000000E+00  0.00000000000E+00  0.18749333792E+03  0.18749333792E+03  0.00000000000E+00 0. -1.
         21   -1    0    0  501  502 -0.00000000000E+00 -0.00000000000E+00 -0.63757436249E+03  0.63757436249E+03  0.00000000000E+00 0. -1.
         21    1    1    2  503  502  0.39199781142E+02 -0.23055700872E+02 -0.40945427207E+03  0.41197207321E+03  0.00000000000E+00 0. -1.
         21    1    1    2  504  506 -0.90120943816E+02 -0.83842780880E+02  0.86140009222E+02  0.15023813633E+03  0.00000000000E+00 0. -1.
         21    1    1    2  505  504 -0.32005234786E+02  0.20728456478E+02  0.41540838635E+02  0.56388343088E+02  0.00000000000E+00 0. -1.
         21    1    1    2  506  503  0.82926397460E+02  0.86170025274E+02 -0.16830760034E+03  0.20646914778E+03  0.00000000000E+00 0.  1.
<scales pt_clust_3="45.13114" pt_clust_4="14000.00000" pt_clust_5="38.13140" pt_clust_6="130.48105"></scales>
<clustering>
<clus scale="   38.131">  1  5  2 -1</clus>
<clus scale="   45.131">  2  3  1 -1</clus>
<clus scale="  130.481">  2  6  1 -1</clus>
<clus scale="   38.131">  1  3  2 -1</clus>
</clustering>
</event>
<event>
 6    0  0.3446372E+002  0.7114271E+02  0.7546771E-02  0.1356250E+00
         21   -1    0    0  505  501  0.00000000000E+00  0.00000000000E+00  0.16653233205E+02  0.16653233205E+02  0.00000000000E+00 0. -1.
         21   -1    0    0  506  502 -0.00000000000E+00 -0.00000000000E+00 -0.17344796142E+04  0.17344796142E+04  0.00000000000E+00 0.  1.
         21    1    1    2  503  501  0.33776695329E+01  0.51101284577E+02 -0.10106903030E+03  0.11330356933E+03  0.00000000000E+00 0.  1.
         21    1    1    2  504  502 -0.15622369472E+02 -0.57816517953E+02 -0.49357677301E+03  0.49719698212E+03  0.00000000000E+00 0.  1.
         21    1    1    2  505  504  0.72138670912E+02 -0.26064491224E+02 -0.18916296075E+03  0.20412244185E+03  0.00000000000E+00 0. -1.
         21    1    1    2  506  503 -0.59893970973E+02  0.32779724600E+02 -0.93401761695E+03  0.93650985413E+03  0.00000000000E+00 0.  1.
<scales pt_clust_3="51.21279" pt_clust_4="51.29240" pt_clust_5="14000.00000" pt_clust_6="71.14271"></scales>
<clustering>
<clus scale="   51.213">  1  3  2 -1</clus>
<clus scale="   51.292">  2  4  1 -1</clus>
<clus scale="   71.143">  2  6  1 -1</clus>
<clus scale="   51.213">  1  3  2 -1</clus>
</clustering>
</event>
<event>
 6    0  0.3446372E+002  0.8807071E+02  0.7546771E-02  0.1307592E+00
         21   -1    0    0  505  501  0.00000000000E+00  0.00000000000E+00  0.52653162172E+02  0.52653162172E+02  0.00000000000E+00 0.  1.
         21   -1    0    0  506  502 -0.00000000000E+00 -0.00000000000E+00 -0.13441554374E+04  0.13441554374E+04  0.00000000000E+00 0.  1.
         21    1    1    2  503  504  0.48251176804E+01  0.81021977062E+02 -0.34687213997E+03  0.35624166519E+03  0.00000000000E+00 0.  1.
         21    1    1    2  504  501  0.26233634769E+02  0.25097976689E+02  0.34049316079E+02  0.49774169531E+02  0.00000000000E+00 0.  1.
         21    1    1    2  505  502  0.54473591715E+01 -0.97592732970E+02 -0.43609867516E+03  0.44691841507E+03  0.00000000000E+00 0.  1.
         21    1    1    2  506  503 -0.36506111621E+02 -0.85272207818E+01 -0.54258077616E+03  0.54387434977E+03  0.00000000000E+00 0.  1.
<scales pt_clust_3="14000.00000" pt_clust_4="36.30581" pt_clust_5="88.07071" pt_clust_6="35.62418"></scales>
<clustering>
<clus scale="   36.306">  1  4  2 -1</clus>
<clus scale="   35.624">  2  6  1 -1</clus>
<clus scale="   88.071">  1  5  2 -1</clus>
<clus scale="   36.306">  1  3  2 -1</clus>
</clustering>
</event>
<event>
 6    0  0.3446372E+002  0.9618393E+02  0.7546771E-02  0.1288532E+00
         21   -1    0    0  506  501  0.00000000000E+00  0.00000000000E+00  0.37312286852E+02  0.37312286852E+02  0.00000000000E+00 0.  1.
         21   -1    0    0  505  502 -0.00000000000E+00 -0.00000000000E+00 -0.18006837162E+04  0.18006837162E+04  0.00000000000E+00 0. -1.
         21    1    1    2  503  501  0.11598674769E+03 -0.39556426000E+02 -0.37199142682E+03  0.39165706697E+03  0.00000000000E+00 0. -1.
         21    1    1    2  504  503 -0.61609905534E+02 -0.64629041346E+01 -0.11104062380E+04  0.11121328891E+04  0.00000000000E+00 0. -1.
         21    1    1    2  505  504 -0.39970255860E+02  0.15015550479E+02 -0.29439741406E+03  0.29747760506E+03  0.00000000000E+00 0. -1.
         21    1    1    2  506  502 -0.14406586298E+02  0.31003779656E+02  0.13423649519E+02  0.36728441951E+02  0.00000000000E+00 0.  1.
<scales pt_clust_3="14000.00000" pt_clust_4="96.18393" pt_clust_5="45.86660" pt_clust_6="34.18748"></scales>
<clustering>
<clus scale="   34.187">  1  6  2 -1</clus>
<clus scale="   45.867">  2  5  1 -1</clus>
<clus scale="   96.184">  2  4  1 -1</clus>
<clus scale="   34.187">  1  3  2 -1</clus>
</clustering>
</event>
<event>
 6    0  0.3446372E+002  0.7805957E+02  0.7546771E-02  0.1334650E+00
         21   -1    0    0  503  501  0.00000000000E+00  0.00000000000E+00  0.30334376172E+03  0.30334376172E+03  0.00000000000E+00 0. -1.
         21   -1    0    0  506  502 -0.00000000000E+00 -0.00000000000E+00 -0.19181522377E+03  0.19181522377E+03  0.00000000000E+00 0.  1.
         21    1    1    2  503  505 -0.35398084011E+02 -0.27936493209E+02  0.15547016748E+03  0.16187787057E+03  0.00000000000E+00 0. -1.
         21    1    1    2  504  501  0.33899344412E+02  0.98438535382E+02  0.82877310602E+02  0.13307125690E+03  0.00000000000E+00 0. -1.
         21    1    1    2  505  502 -0.54692058552E+02  0.69074363987E+01 -0.25072557967E+02  0.60560441785E+02  0.00000000000E+00 0.  1.
         21    1    1    2  506  504  0.56190798151E+02 -0.77409478572E+02 -0.10174638217E+03  0.13964941624E+03  0.00000000000E+00 0.  1.
<scales pt_clust_3="45.09404" pt_clust_4="78.05957" pt_clust_5="59.13622" pt_clust_6="14000.00000"></scales>
<clustering>
<clus scale="   45.094">  1  3  2 -1</clus>
<clus scale="   59.136">  2  5  1 -1</clus>
<clus scale="   78.060">  1  4  2 -1</clus>
<clus scale="   45.094">  1  3  2 -1</clus>
</clustering>
</event>
<event>
 6    0  0.3446372E+002  0.1279439E+03  0.7546771E-02  0.1230539E+00
         21   -1    0    0  503  501  0.00000000000E+00  0.00000000000E+00  0.84879147413E+03  0.84879147413E+03  0.00000000000E+00 0.  1.
         21   -1    0    0  505  502 -0.00000000000E+00 -0.00000000000E+00 -0.15049191408E+03  0.15049191408E+03  0.00000000000E+00 0.  1.
         21    1    1    2  503  504 -0.34962039633E+02  0.20578069664E+01  0.58713357845E+03  0.58817719926E+03  0.00000000000E+00 0.  1.
         21    1    1    2  504  502  0.14006100954E+03  0.37106075189E+02  0.20789340290E+03  0.25340405320E+03  0.00000000000E+00 0.  1.
         21    1    1    2  505  506 -0.62216894780E+02 -0.38462409451E+02 -0.87113478642E+02  0.11374997625E+03  0.00000000000E+00 0.  1.
         21    1    1    2  506  501 -0.42882075127E+02 -0.70147270463E+00 -0.96139426624E+01  0.43952159499E+02  0.00000000000E+00 0.  1.
<scales pt_clust_3="35.02255" pt_clust_4="115.91154" pt_clust_5="42.15267" pt_clust_6="42.15267"></scales>
<clustering>
<clus scale="   35.023">  1  3  2 -1</clus>
<clus scale="   42.153">  5  6 -1 -1</clus>
<clus scale="  115.912">  1  4  2 -1</clus>
<clus scale="   35.023">  1  3  2 -1</clus>
</clustering>
</event>
<event>
 6    0  0.3446372E+002  0.9007220E+02  0.7546771E-02  0.1302677E+00
         21   -1    0    0  506  501  0.00000000000E+00  0.00000000000E+00  0.22898209656E+03  0.22898209656E+03  0.00000000000E+00 0. -1.
         21   -1    0    0  504  502 -0.00000000000E+00 -0.00000000000E+00 -0.73592938212E+03  0.73592938212E+03  0.00000000000E+00 0. -1.
         21    1    1    2  503  501  0.12098155095E+03 -0.14254275706E+01  0.89012430018E+02  0.15020579287E+03  0.00000000000E+00 0. -1.
         21    1    1    2  504  503  0.43754884956E+00  0.36470493102E+02 -0.16368778327E+03  0.16770205338E+03  0.00000000000E+00 0. -1.
         21    1    1    2  505  502 -0.88319345988E+02 -0.44751591662E+02 -0.53217831145E+03  0.54131023176E+03  0.00000000000E+00 0. -1.
         21    1    1    2  506  505 -0.33099753812E+02  0.97065261308E+01  0.99906379140E+02  0.10569340067E+03  0.00000000000E+00 0. -1.
<scales pt_clust_3="14000.00000" pt_clust_4="36.62500" pt_clust_5="90.07220" pt_clust_6="34.49363"></scales>
<clustering>
<clus scale="   34.494">  1  6  2 -1</clus>
<clus scale="   36.625">  2  4  1 -1</clus>
<clus scale="   90.072">  2  5  1 -1</clus>
<clus scale="   34.494">  1  3  2 -1</clus>
</clustering>
</event>
<event>
 6    0  0.3446372E+002  0.1102499E+03  0.7546771E-02  0.1260108E+00
         21   -1    0    0  506  501  0.00000000000E+00  0.00000000000E+00  0.89117209772E+03  0.89117209772E+03  0.00000000000E+00 0.  1.
         21   -1    0    0  505  502 -0.00000000000E+00 -0.00000000000E+00 -0.14378133275E+03  0.14378133275E+03  0.00000000000E+00 0. -1.
         21    1    1    2  503  504  0.36715974571E+02  0.16439754742E+03  0.29019895389E+03  0.33554440724E+03  0.00000000000E+00 0.  1.
         21    1    1    2  504  501 -0.78731723601E+02 -0.66196697283E+02  0.50797265576E+03  0.51828265071E+03  0.00000000000E+00 0.  1.
         21    1    1    2  505  503  0.40073595152E+02 -0.11478072864E+02  0.38428796395E+02  0.56695780949E+02  0.00000000000E+00 0.  1.
         21    1    1    2  506  502  0.19421538776E+01 -0.86722777276E+02 -0.89209641076E+02  0.12443059158E+03  0.00000000000E+00 0. -1.
<scales pt_clust_3="110.24986" pt_clust_4="14000.00000" pt_clust_5="41.68500" pt_clust_6="101.59281"></scales>
<clustering>
<clus scale="   41.685">  2  5  1 -1</clus>
<clus scale="  101.593">  2  6  1 -1</clus>
<clus scale="  110.250">  2  3  1 -1</clus>
<clus scale="  110.250">  1  3  2 -1</clus>
</clustering>
</event>
<event>
 6    0  0.3446372E+002  0.1066693E+03  0.7546771E-02  0.1266865E+00
         21   -1    0    0  506  501  0.00000000000E+00  0.00000000000E+00  0.14510810831E+04  0.14510810831E+04  0.00000000000E+00 0. -1.
         21   -1    0    0  505  502 -0.00000000000E+00 -0.00000000000E+00 -0.27679765970E+02  0.27679765970E+02  0.00000000000E+00 0. -1.
         21    1    1    2  503  501  0.35309879238E+02  0.50654802736E+02  0.74935124896E+03  0.75189094351E+03  0.00000000000E+00 0. -1.
         21    1    1    2  504  502  0.36616452312E+02 -0.14837370761E+02  0.60765770397E+02  0.72480280097E+02  0.00000000000E+00 0. -1.
         21    1    1    2  505  503 -0.13926480156E+03 -0.63568479108E+02  0.36947675734E+03  0.39993588324E+03  0.00000000000E+00 0. -1.
         21    1    1    2  506  504  0.67338470005E+02  0.27751047134E+02  0.24380754041E+03  0.25445374221E+03  0.00000000000E+00 0. -1.
<scales pt_clust_3="62.29753" pt_clust_4="39.50838" pt_clust_5="14000.00000" pt_clust_6="106.66933"></scales>
<clustering>
<clus scale="   39.508">  2  4  1 -1</clus>
<clus scale="   62.298">  1  3  2 -1</clus>
<clus scale="  106.669">  1  6  2 -1</clus>
<clus scale="   62.298">  1  3  2 -1</clus>
</clustering>
</event>
<event>
 6    0  0.3446372E+002  0.4379919E+03  0.7546771E-02  0.1031365E+00
         21   -1    0    0  503  501  0.00000000000E+00  0.00000000000E+00  0.56936928621E+03  0.56936928621E+03  0.00000000000E+00 0.  1.
         21   -1    0    0  501  502 -0.00000000000E+00 -0.00000000000E+00 -0.29256838733E+04  0.29256838733E+04  0.00000000000E+00 0. -1.
         21    1    1    2  503  506 -0.26540138848E+03 -0.35913407000E+03  0.42176281661E+03  0.61424673440E+03  0.00000000000E+00 0.  1.
         21    1    1    2  504  505 -0.11764656035E+03  0.26421713403E+03 -0.80626252610E+03  0.85656912627E+03  0.00000000000E+00 0. -1.
         21    1    1    2  505  502  0.50062858241E+02 -0.50022144839E+02 -0.63639569610E+03  0.64031866033E+03  0.00000000000E+00 0. -1.
         21    1    1    2  506  504  0.33298509059E+03  0.14493908081E+03 -0.13354191815E+04  0.13839186385E+04  0.00000000000E+00 0. -1.
<scales pt_clust_3="14000.00000" pt_clust_4="265.37376" pt_clust_5="70.77079" pt_clust_6="437.99191"></scales>
<clustering>
<clus scale="   70.771">  2  5  1 -1</clus>
<clus scale="  265.374">  2  4  1 -1</clus>
<clus scale="  437.992">  2  6  1 -1</clus>
<clus scale="  437.992">  1  3  2 -1</clus>
</clustering>
</event>
<event>
 6    0  0.3446372E+002  0.8822826E+02  0.7546771E-02  0.1307200E+00
         21   -1    0    0  506  501  0.00000000000E+00  0.00000000000E+00  0.10787634178E+03  0.10787634178E+03  0.00000000000E+00 0.  1.
         21   -1    0    0  505  502 -0.00000000000E+00 -0.00000000000E+00 -0.73666594957E+03  0.73666594957E+03  0.00000000000E+00 0.  1.
         21    1    1    2  503  502 -0.22974121864E+02 -0.13158080556E+03 -0.60122729775E+03  0.61588601399E+03  0.00000000000E+00 0.  1.
         21    1    1    2  504  503  0.22326490555E+02  0.55633426249E+02  0.11490262327E+01  0.59957239413E+02  0.00000000000E+00 0.  1.
         21    1    1    2  505  501  0.31786192083E+02  0.35909707301E+02 -0.82086028264E+02  0.95068318181E+02  0.00000000000E+00 0.  1.
         21    1    1    2  506  504 -0.31138560774E+02  0.40037672009E+02  0.53374691992E+02  0.73630719759E+02  0.00000000000E+00 0.  1.
<scales pt_clust_3="14000.00000" pt_clust_4="88.22826" pt_clust_5="47.95695" pt_clust_6="50.86441"></scales>
<clustering>
<clus scale="   47.957">  2  5  1 -1</clus>
<clus scale="   50.864">  1  6  2 -1</clus>
<clus scale="   88.228">  1  4  2 -1</clus>
<clus scale="   50.864">  1  3  2 -1</clus>
</clustering>
</event>
<event>
 6    0  0.3446372E+002  0.1100745E+03  0.7546771E-02  0.1260432E+00
         21   -1    0    0  505  501  0.00000000000E+00  0.00000000000E+00  0.60699000302E+02  0.60699000302E+02  0.00000000000E+00 0. -1.
         21   -1    0    0  503  502 -0.00000000000E+00 -0.00000000000E+00 -0.17226734767E+04  0.17226734767E+04  0.00000000000E+00 0. -1.
         21    1    1    2  503  506 -0.83282342826E+02  0.11145430790E+02 -0.13998268845E+04  0.14023464179E+04  0.00000000000E+00 0. -1.
         21    1    1    2  504  502 -0.24484235077E+02  0.23394794146E+02 -0.22096281432E+03  0.22354274641E+03  0.00000000000E+00 0. -1.
         21    1    1    2  505  504  0.20388077022E+01 -0.44967315895E+02 -0.19481814575E+02  0.49048520210E+02  0.00000000000E+00 0. -1.
         21    1    1    2  506  501  0.10572777020E+03  0.10427090958E+02 -0.21702963015E+02  0.10843479248E+03  0.00000000000E+00 0. -1.
<scales pt_clust_3="14000.00000" pt_clust_4="33.86435" pt_clust_5="44.45768" pt_clust_6="110.07453"></scales>
<clustering>
<clus scale="   33.864">  2  4  1 -1</clus>
<clus scale="   44.458">  1  5  2 -1</clus>
<clus scale="  110.075">  1  6  2 -1</clus>
<clus scale="   44.458">  1  3  2 -1</clus>
</clustering>
</event>
<event>
 6    0  0.3446372E+002  0.1540159E+03  0.7546771E-02  0.1195623E+00
         21   -1    0    0  503  501  0.00000000000E+00  0.00000000000E+00  0.23939342668E+03  0.23939342668E+03  0.00000000000E+00 0.  1.
         21   -1    0    0  506  502 -0.00000000000E+00 -0.00000000000E+00 -0.15642842540E+03  0.15642842540E+03  0.00000000000E+00 0.  1.
         21    1    1    2  503  502 -0.14639492457E+03  0.68162215911E+02  0.79700485215E+02  0.18008256152E+03  0.00000000000E+00 0.  1.
         21    1    1    2  504  501  0.38525453947E+02  0.24335777050E+02  0.41293892824E+02  0.61494928498E+02  0.00000000000E+00 0.  1.
         21    1    1    2  505  504  0.34121807026E+02 -0.55319856940E+02 -0.46428237111E+01  0.65162413235E+02  0.00000000000E+00 0.  1.
         21    1    1    2  506  505  0.73747663600E+02 -0.37178136021E+02 -0.33386553047E+02  0.89081948838E+02  0.00000000000E+00 0.  1.
<scales pt_clust_3="146.85878" pt_clust_4="45.56798" pt_clust_5="41.16672" pt_clust_6="41.16672"></scales>
<clustering>
<clus scale="   41.167">  5  6 -1 -1</clus>
<clus scale="   45.568">  1  4  2 -1</clus>
<clus scale="  146.859">  1  3  2 -1</clus>
<clus scale="   45.568">  1  3  2 -1</clus>
</clustering>
</event>
<event>
 6    0  0.3446372E+002  0.1011164E+03  0.7546771E-02  0.1277966E+00
         21   -1    0    0  504  501  0.00000000000E+00  0.00000000000E+00  0.10639366694E+03  0.10639366694E+03  0.00000000000E+00 0. -1.
         21   -1    0    0  505  502 -0.00000000000E+00 -0.00000000000E+00 -0.79021522071E+03  0.79021522071E+03  0.00000000000E+00 0. -1.
         21    1    1    2  503  502 -0.46686990293E+02  0.52832190875E+02 -0.59904700864E+03  0.60318175869E+03  0.00000000000E+00 0. -1.
         21    1    1    2  504  503  0.35910580070E+02  0.31636046008E+02 -0.27164678174E+01  0.47935251802E+02  0.00000000000E+00 0. -1.
         21    1    1    2  505  506 -0.12274306429E+02  0.32913461097E+02 -0.11595451208E+03  0.12115858777E+03  0.00000000000E+00 0. -1.
         21    1    1    2  506  501  0.23050716653E+02 -0.11738169798E+03  0.33896434773E+02  0.12433328938E+03  0.00000000000E+00 0. -1.
<scales pt_clust_3="14000.00000" pt_clust_4="48.34715" pt_clust_5="35.12769" pt_clust_6="101.11637"></scales>
<clustering>
<clus scale="   35.128">  2  5  1 -1</clus>
<clus scale="   48.347">  1  4  2 -1</clus>
<clus scale="  101.116">  1  6  2 -1</clus>
<clus scale="   48.347">  1  3  2 -1</clus>
</clustering>
</event>
<event>
 6    0  0.3446372E+002  0.2019813E+03  0.7546771E-02  0.1148078E+00
         21   -1    0    0  504  501  0.00000000000E+00  0.00000000000E+00  0.43599431074E+03  0.43599431074E+03  0.00000000000E+00 0.  1.
         21   -1    0    0  505  502 -0.00000000000E+00 -0.00000000000E+00 -0.26803805064E+04  0.26803805064E+04  0.00000000000E+00 0.  1.
         21    1    1    2  503  502  0.37813880340E+02  0.53551914885E+02 -0.16242453401E+04  0.16255677844E+04  0.00000000000E+00 0.  1.
         21    1    1    2  504  506 -0.98162212402E+02  0.17748510002E+03  0.38642271959E+03  0.43641642829E+03  0.00000000000E+00 0.  1.
         21    1    1    2  505  501  0.69144367058E+02 -0.31533474076E+02 -0.97326103551E+02  0.12348147195E+03  0.00000000000E+00 0.  1.
         21    1    1    2  506  503 -0.87960349963E+01 -0.19950354083E+03 -0.90923747166E+03  0.93090913247E+03  0.00000000000E+00 0.  1.
<scales pt_clust_3="65.55682" pt_clust_4="14000.00000" pt_clust_5="77.56310" pt_clust_6="201.98130"></scales>
<clustering>
<clus scale="   65.557">  2  3  1 -1</clus>
<clus scale="   77.563">  2  5  1 -1</clus>
<clus scale="  201.981">  2  6  1 -1</clus>
<clus scale="  201.981">  1  3  2 -1</clus>
</clustering>
</event>
<event>
 6    0  0.3446372E+002  0.1392508E+03  0.7546771E-02  0.1214341E+00
         21   -1    0    0  504  501  0.00000000000E+00  0.00000000000E+00  0.10900934042E+04  0.10900934042E+04  0.00000000000E+00 0. -1.
         21   -1    0    0  503  502 -0.00000000000E+00 -0.00000000000E+00 -0.12901537170E+03  0.12901537170E+03  0.00000000000E+00 0. -1.
         21    1    1    2  503  501  0.12839760412E+03 -0.14544543062E+03  0.79433726221E+03  0.81768698423E+03  0.00000000000E+00 0. -1.
         21    1    1    2  504  505 -0.62206919028E+02  0.17702786375E+02  0.20393540129E+03  0.21394564104E+03  0.00000000000E+00 0. -1.
         21    1    1    2  505  506 -0.69363226077E+01  0.10879401215E+03  0.98809544183E+01  0.10946178744E+03  0.00000000000E+00 0. -1.
         21    1    1    2  506  502 -0.59254362485E+02  0.18948632101E+02 -0.47075585377E+02  0.78014363233E+02  0.00000000000E+00 0. -1.
<scales pt_clust_3="139.25079" pt_clust_4="69.35888" pt_clust_5="14000.00000" pt_clust_6="62.21037"></scales>
<clustering>
<clus scale="   62.210">  2  6  1 -1</clus>
<clus scale="   69.359">  1  4  2 -1</clus>
<clus scale="  139.251">  1  3  2 -1</clus>
<clus scale="   69.359">  1  3  2 -1</clus>
</clustering>
</event>
<event>
 6    0  0.3446372E+002  0.9686613E+02  0.7546771E-02  0.1287028E+00
         21   -1    0    0  503  501  0.00000000000E+00  0.00000000000E+00  0.15500981134E+03  0.15500981134E+03  0.00000000000E+00 0.  1.
         21   -1    0    0  505  502 -0.00000000000E+00 -0.00000000000E+00 -0.19262644938E+03  0.19262644938E+03  0.00000000000E+00 0.  1.
         21    1    1    2  503  506  0.26639224627E+02  0.26688509118E+02  0.30728545286E+01  0.37833414367E+02  0.00000000000E+00 0.  1.
         21    1    1    2  504  501 -0.51436864824E+02 -0.17808824583E+02  0.74729636592E+02  0.92452278940E+02  0.00000000000E+00 0.  1.
         21    1    1    2  505  504 -0.68530168511E+02  0.10432505074E+02 -0.98668416478E+02  0.12058473190E+03  0.00000000000E+00 0.  1.
         21    1    1    2  506  502  0.93327808708E+02 -0.19312189610E+02 -0.16750712685E+02  0.96765835506E+02  0.00000000000E+00 0.  1.
<scales pt_clust_3="37.12457" pt_clust_4="54.43258" pt_clust_5="76.80932" pt_clust_6="37.12457"></scales>
<clustering>
<clus scale="   37.125">  3  6 -1 -1</clus>
<clus scale="   54.433">  1  4  2 -1</clus>
<clus scale="   76.809">  2  5  1 -1</clus>
<clus scale="   54.433">  1  3  2 -1</clus>
</clustering>
</event>
<event>
 6    0  0.3446372E+002  0.1329066E+03  0.7546771E-02  0.1223205E+00
         21   -1    0    0  505  501  0.00000000000E+00  0.00000000000E+00  0.13194218476E+03  0.13194218476E+03  0.00000000000E+00 0.  1.
         21   -1    0    0  501  502 -0.00000000000E+00 -0.00000000000E+00 -0.12919199222E+03  0.12919199222E+03  0.00000000000E+00 0.  1.
         21    1    1    2  503  502 -0.39209346810E+02 -0.35770646480E+02 -0.23773496474E+01  0.53127806450E+02  0.00000000000E+00 0.  1.
         21    1    1    2  504  503 -0.73172634799E+02 -0.69485506669E+01 -0.10250126741E+02  0.74213084682E+02  0.00000000000E+00 0.  1.
         21    1    1    2  505  506  0.59071840433E+02  0.45581785148E+02  0.26648540534E+02  0.79229578959E+02  0.00000000000E+00 0.  1.
         21    1    1    2  506  504  0.53310141176E+02 -0.28625880016E+01 -0.11270871602E+02  0.54563706884E+02  0.00000000000E+00 0.  1.
<scales pt_clust_3="34.00734" pt_clust_4="126.71326" pt_clust_5="47.92140" pt_clust_6="47.92140"></scales>
<clustering>
<clus scale="   34.007">  3  4 -1 -1</clus>
<clus scale="   47.921">  5  6 -1 -1</clus>
<clus scale="  126.713">  2  3  1 -1</clus>
<clus scale="  132.907">  1  3  2 -1</clus>
</clustering>
</event>
<event>
 6    0  0.3446372E+002  0.1283992E+03  0.7546771E-02  0.1229851E+00
         21   -1    0    0  503  501  0.00000000000E+00  0.00000000000E+00  0.23713465862E+04  0.23713465862E+04  0.00000000000E+00 0.  1.
         21   -1    0    0  506  502 -0.00000000000E+00 -0.00000000000E+00 -0.10930821767E+02  0.10930821767E+02  0.00000000000E+00 0. -1.
         21    1    1    2  503  505  0.51719632840E+02  0.98055622665E+01  0.34850703058E+03  0.35246023866E+03  0.00000000000E+00 0. -1.
         21    1    1    2  504  501  0.13293416445E+02  0.39115486286E+02  0.46247228581E+03  0.46431385003E+03  0.00000000000E+00 0.  1.
         21    1    1    2  505  502  0.64945349768E+02 -0.11522598341E+02  0.23352779320E+03  0.24266416902E+03  0.00000000000E+00 0. -1.
         21    1    1    2  506  504 -0.12995839905E+03 -0.37398450211E+02  0.13159086548E+04  0.13228391502E+04  0.00000000000E+00 0.  1.
<scales pt_clust_3="37.84756" pt_clust_4="41.31266" pt_clust_5="37.84756" pt_clust_6="121.20850"></scales>
<clustering>
<clus scale="   37.848">  3  5 -1 -1</clus>
<clus scale="   41.313">  1  4  2 -1</clus>
<clus scale="  121.209">  1  6  2 -1</clus>
<clus scale="   41.313">  1  3  2 -1</clus>
</clustering>
</event>
<event>
 6    0  0.3446372E+002  0.3901882E+03  0.7546771E-02  0.1047231E+00
         21   -1    0    0  504  501  0.00000000000E+00  0.00000000000E+00  0.13567990926E+04  0.13567990926E+04  0.00000000000E+00 0.  1.
         21   -1    0    0  505  502 -0.00000000000E+00 -0.00000000000E+00 -0.17134495857E+03  0.17134495857E+03  0.00000000000E+00 0.  1.
         21    1    1    2  503  506 -0.95083243743E+02  0.23611035785E+02  0.89740520240E+02  0.13285956956E+03  0.00000000000E+00 0.  1.
         21    1    1    2  504  502  0.36481159901E+03 -0.17376455812E+03  0.42488072674E+03  0.58634909089E+03  0.00000000000E+00 0.  1.
         21    1    1    2  505  503 -0.23825754682E+03  0.14386040978E+03  0.21427160989E+03  0.35124748956E+03  0.00000000000E+00 0.  1.
         21    1    1    2  506  501 -0.31470808447E+02  0.62931125547E+01  0.45656127714E+03  0.45768790112E+03  0.00000000000E+00 0. -1.
<scales pt_clust_3="31.24568" pt_clust_4="386.61782" pt_clust_5="31.24568" pt_clust_6="32.09385"></scales>
<clustering>
<clus scale="   31.246">  3  5 -1 -1</clus>
<clus scale="   32.094">  1  6  2 -1</clus>
<clus scale="  386.618">  1  4  2 -1</clus>
<clus scale="   32.094">  1  3  2 -1</clus>
</clustering>
</event>
<event>
 6    0  0.3446372E+002  0.1439482E+03  0.7546771E-02  0.1208113E+00
         21   -1    0    0  504  501  0.00000000000E+00  0.00000000000E+00  0.65799790033E+03  0.65799790033E+03  0.00000000000E+00 0.  1.
         21   -1    0    0  503  502 -0.00000000000E+00 -0.00000000000E+00 -0.14704372606E+03  0.14704372606E+03  0.00000000000E+00 0.  1.
         21    1    1    2  503  501 -0.10089278299E+03  0.41231350613E+02  0.46834899628E+03  0.48086397271E+03  0.00000000000E+00 0.  1.
         21    1    1    2  504  505 -0.19496246247E+02 -0.99424790415E+02  0.11972020698E+03  0.15683851736E+03  0.00000000000E+00 0.  1.
         21    1    1    2  505  506  0.49486668178E+02 -0.78329780890E+00 -0.40115837911E+01  0.49655177850E+02  0.00000000000E+00 0. -1.
         21    1    1    2  506  502  0.70902361060E+02  0.58976737611E+02 -0.73103445196E+02  0.11768395848E+03  0.00000000000E+00 0.  1.
<scales pt_clust_3="128.62905" pt_clust_4="101.31827" pt_clust_5="47.33805" pt_clust_6="47.33805"></scales>
<clustering>
<clus scale="   47.338">  5  6 -1 -1</clus>
<clus scale="  101.318">  1  4  2 -1</clus>
<clus scale="  128.629">  1  3  2 -1</clus>
<clus scale="  101.318">  1  3  2 -1</clus>
</clustering>
</event>
<event>
 6    0  0.3446372E+002  0.7850136E+02  0.7546771E-02  0.1333359E+00
         21   -1    0    0  503  501  0.00000000000E+00  0.00000000000E+00  0.17091733005E+04  0.17091733005E+04  0.00000000000E+00 0. -1.
         21   -1    0    0  504  502 -0.00000000000E+00 -0.00000000000E+00 -0.17462528545E+03  0.17462528545E+03  0.00000000000E+00 0.  1.
         21    1    1    2  503  505  0.63202243146E+02 -0.79148044975E+02  0.72689027652E+03  0.73391308113E+03  0.00000000000E+00 0.  1.
         21    1    1    2  504  506  0.26235301771E+02 -0.17929351130E+02 -0.46537678040E+02  0.56351647432E+02  0.00000000000E+00 0.  1.
         21    1    1    2  505  502 -0.10239254581E+03  0.31760553073E+02 -0.94255497114E+02  0.14274825710E+03  0.00000000000E+00 0.  1.
         21    1    1    2  506  501  0.12955000893E+02  0.65316843033E+02  0.94845091369E+03  0.95078560028E+03  0.00000000000E+00 0. -1.
<scales pt_clust_3="78.50136" pt_clust_4="31.77661" pt_clust_5="14000.00000" pt_clust_6="66.47149"></scales>
<clustering>
<clus scale="   31.777">  2  4  1 -1</clus>
<clus scale="   66.471">  1  6  2 -1</clus>
<clus scale="   78.501">  1  3  2 -1</clus>
<clus scale="   66.471">  1  3  2 -1</clus>
</clustering>
</event>
<event>
 6    0  0.3446372E+002  0.1864579E+03  0.7546771E-02  0.1161695E+00
         21   -1    0    0  506  501  0.00000000000E+00  0.00000000000E+00  0.37159350377E+03  0.37159350377E+03  0.00000000000E+00 0. -1.
         21   -1    0    0  505  502 -0.00000000000E+00 -0.00000000000E+00 -0.14847914113E+04  0.14847914113E+04  0.00000000000E+00 0.  1.
         21    1    1    2  503  501  0.34862634843E+02 -0.23159512253E+02  0.47548373792E+02  0.63345198447E+02  0.00000000000E+00 0. -1.
         21    1    1    2  504  503  0.17659123730E+02  0.85922492835E+02 -0.74542134704E+03  0.75056479004E+03  0.00000000000E+00 0.  1.
         21    1    1    2  505  504 -0.92315716810E+01  0.98017401229E+02 -0.70312249752E+03  0.70998160496E+03  0.00000000000E+00 0.  1.
         21    1    1    2  506  502 -0.43290186892E+02 -0.16078038181E+03  0.28779756329E+03  0.33249332158E+03  0.00000000000E+00 0. -1.
<scales pt_clust_3="41.85411" pt_clust_4="30.02189" pt_clust_5="30.02189" pt_clust_6="183.72524"></scales>
<clustering>
<clus scale="   30.022">  4  5 -1 -1</clus>
<clus scale="   41.854">  1  3  2 -1</clus>
<clus scale="  183.725">  1  6  2 -1</clus>
<clus scale="   41.854">  1  3  2 -1</clus>
</clustering>
</event>
<event>
 6    0  0.3446372E+002  0.1342441E+03  0.7546771E-02  0.1221291E+00
         21   -1    0    0  505  501  0.00000000000E+00  0.00000000000E+00  0.30319850182E+03  0.30319850182E+03  0.00000000000E+00 0. -1.
         21   -1    0    0  503  502 -0.00000000000E+00 -0.00000000000E+00 -0.12744001980E+03  0.12744001980E+03  0.00000000000E+00 0.  1.
         21    1    1    2  503  501 -0.26199151145E+02 -0.30928046233E+02 -0.46961802658E+02  0.62035074542E+02  0.00000000000E+00 0.  1.
         21    1    1    2  504  506  0.27461887162E+02  0.91431519955E+02  0.11189197398E+03  0.14708396217E+03  0.00000000000E+00 0. -1.
         21    1    1    2  505  504  0.60165039460E+01  0.38882470153E+02  0.11523818277E+03  0.12176979745E+03  0.00000000000E+00 0. -1.
         21    1    1    2  506  502 -0.72792399634E+01 -0.99385943875E+02 -0.44098720626E+01  0.99749687448E+02  0.00000000000E+00 0.  1.
<scales pt_clust_3="40.53319" pt_clust_4="32.68227" pt_clust_5="32.68227" pt_clust_6="124.21672"></scales>
<clustering>
<clus scale="   32.682">  4  5 -1 -1</clus>
<clus scale="   40.533">  2  3  1 -1</clus>
<clus scale="  124.217">  2  6  1 -1</clus>
<clus scale="  134.244">  1  3  2 -1</clus>
</clustering>
</event>
<event>
 6    0  0.3446372E+002  0.9042318E+02  0.7546771E-02  0.1301830E+00
         21   -1    0    0  506  501  0.00000000000E+00  0.00000000000E+00  0.13138330215E+04  0.13138330215E+04  0.00000000000E+00 0. -1.
         21   -1    0    0  504  502 -0.00000000000E+00 -0.00000000000E+00 -0.75000478899E+02  0.75000478899E+02  0.00000000000E+00 0.  1.
         21    1    1    2  503  505 -0.44492609548E+02 -0.35971068050E+01  0.20495306804E+03  0.20975769731E+03  0.00000000000E+00 0. -1.
         21    1    1    2  504  503 -0.57788390471E+02 -0.45380317125E+02  0.20565830200E+02  0.76300882219E+02  0.00000000000E+00 0.  1.
         21    1    1    2  505  501  0.19777898029E+02 -0.36697951396E+02  0.97773920614E+03  0.97862753901E+03  0.00000000000E+00 0. -1.
         21    1    1    2  506  502  0.82503101990E+02  0.85675375325E+02  0.35574438263E+02  0.12414738190E+03  0.00000000000E+00 0.  1.
<scales pt_clust_3="41.61307" pt_clust_4="14000.00000" pt_clust_5="41.68819" pt_clust_6="90.42318"></scales>
<clustering>
<clus scale="   41.688">  1  5  2 -1</clus>
<clus scale="   41.613">  1  3  2 -1</clus>
<clus scale="   90.423">  1  6  2 -1</clus>
<clus scale="   41.688">  1  3  2 -1</clus>
</clustering>
</event>
<event>
 6    0  0.3446372E+002  0.7868854E+02  0.7546771E-02  0.1332815E+00
         21   -1    0    0  506  501  0.00000000000E+00  0.00000000000E+00  0.59111551138E+03  0.59111551138E+03  0.00000000000E+00 0.  1.
         21   -1    0    0  503  502 -0.00000000000E+00 -0.00000000000E+00 -0.25069561139E+04  0.25069561139E+04  0.00000000000E+00 0.  1.
         21    1    1    2  503  504 -0.50181126166E+02 -0.47026203849E+02 -0.68119286528E+03  0.68465562802E+03  0.00000000000E+00 0.  1.
         21    1    1    2  504  501 -0.86455656794E+02  0.73106824213E+02 -0.13152535130E+04  0.13201177947E+04  0.00000000000E+00 0.  1.
         21    1    1    2  505  502  0.78913467715E+02  0.27295615651E+02 -0.50023733044E+03  0.50715852826E+03  0.00000000000E+00 0.  1.
         21    1    1    2  506  505  0.57723315246E+02 -0.53376236015E+02  0.58084310625E+03  0.58613967429E+03  0.00000000000E+00 0.  1.
<scales pt_clust_3="68.77215" pt_clust_4="78.68854" pt_clust_5="66.61134" pt_clust_6="14000.00000"></scales>
<clustering>
<clus scale="   68.772">  2  3  1 -1</clus>
<clus scale="   66.611">  2  5  1 -1</clus>
<clus scale="   78.689">  2  4  1 -1</clus>
<clus scale="   78.689">  1  3  2 -1</clus>
</clustering>
</event>
<event>
 6    0  0.3446372E+002  0.7598271E+02  0.7546771E-02  0.1340855E+00
         21   -1    0    0  503  501  0.00000000000E+00  0.00000000000E+00  0.25227641576E+04  0.25227641576E+04  0.00000000000E+00 0. -1.
         21   -1    0    0  505  502 -0.00000000000E+00 -0.00000000000E+00 -0.35290636676E+03  0.35290636676E+03  0.00000000000E+00 0.  1.
         21    1    1    2  503  506  0.58877857510E+02 -0.12208643952E+03  0.23117521976E+04  0.23157223331E+04  0.00000000000E+00 0. -1.
         21    1    1    2  504  501 -0.20718467010E+02  0.55589504508E+02  0.19661539801E+03  0.20537054954E+03  0.00000000000E+00 0. -1.
         21    1    1    2  505  504 -0.48171557863E+02  0.12616865378E+02 -0.13783343433E+03  0.14655285701E+03  0.00000000000E+00 0.  1.
         21    1    1    2  506  502  0.10012167363E+02  0.53880069629E+02 -0.20067637045E+03  0.20802478471E+03  0.00000000000E+00 0.  1.
<scales pt_clust_3="75.98271" pt_clust_4="59.92603" pt_clust_5="49.79643" pt_clust_6="14000.00000"></scales>
<clustering>
<clus scale="   49.796">  2  5  1 -1</clus>
<clus scale="   59.926">  1  4  2 -1</clus>
<clus scale="   75.983">  1  3  2 -1</clus>
<clus scale="   59.926">  1  3  2 -1</clus>
</clustering>
</event>
<event>
 6    0  0.3446372E+002  0.8598831E+02  0.7546771E-02  0.1312868E+00
         21   -1    0    0  506  501  0.00000000000E+00  0.00000000000E+00  0.41473277315E+02  0.41473277315E+02  0.00000000000E+00 0. -1.
         21   -1    0    0  504  502 -0.00000000000E+00 -0.00000000000E+00 -0.12822983031E+04  0.12822983031E+04  0.00000000000E+00 0. -1.
         21    1    1    2  503  505 -0.48626635628E+02 -0.78531822392E+02 -0.71969776086E+03  0.72560089843E+03  0.00000000000E+00 0. -1.
         21    1    1    2  504  501  0.97594497759E+00  0.54523437464E+02 -0.56408864131E+02  0.78458381668E+02  0.00000000000E+00 0. -1.
         21    1    1    2  505  502 -0.24519592674E+02  0.24860570064E+02 -0.44295217397E+03  0.44432632917E+03  0.00000000000E+00 0. -1.
         21    1    1    2  506  503  0.72170283325E+02 -0.85218513585E+00 -0.21766226821E+02  0.75385971140E+02  0.00000000000E+00 0. -1.
<scales pt_clust_3="14000.00000" pt_clust_4="56.53116" pt_clust_5="34.91788" pt_clust_6="85.98831"></scales>
<clustering>
<clus scale="   34.918">  2  5  1 -1</clus>
<clus scale="   56.531">  1  4  2 -1</clus>
<clus scale="   85.988">  1  6  2 -1</clus>
<clus scale="   56.531">  1  3  2 -1</clus>
</clustering>
</event>
<event>
 6    0  0.3446372E+002  0.1067593E+03  0.7546771E-02  0.1266692E+00
         21   -1    0    0  504  501  0.00000000000E+00  0.00000000000E+00  0.84728669170E+02  0.84728669170E+02  0.00000000000E+00 0. -1.
         21   -1    0    0  503  502 -0.00000000000E+00 -0.00000000000E+00 -0.20508123236E+04  0.20508123236E+04  0.00000000000E+00 0. -1.
         21    1    1    2  503  506  0.28197597523E+02  0.41754817564E+02 -0.20945702942E+03  0.21543169792E+03  0.00000000000E+00 0. -1.
         21    1    1    2  504  505  0.65668598731E+02 -0.12146147189E+03 -0.41144944289E+02  0.14407692547E+03  0.00000000000E+00 0. -1.
         21    1    1    2  505  502 -0.12681584497E+02  0.67018703258E+02 -0.16880160632E+04  0.16893935477E+04  0.00000000000E+00 0. -1.
         21    1    1    2  506  501 -0.81184611757E+02  0.12687951068E+02 -0.27465617536E+02  0.86638821755E+02  0.00000000000E+00 0. -1.
<scales pt_clust_3="50.38422" pt_clust_4="14000.00000" pt_clust_5="106.75928" pt_clust_6="81.51788"></scales>
<clustering>
<clus scale="   50.384">  2  3  1 -1</clus>
<clus scale="   81.518">  1  6  2 -1</clus>
<clus scale="  106.759">  2  5  1 -1</clus>
<clus scale="   81.518">  1  3  2 -1</clus>
</clustering>
</event>
<event>
 6    0  0.3446372E+002  0.1496250E+03  0.7546771E-02  0.1200935E+00
         21   -1    0    0  505  501  0.00000000000E+00  0.00000000000E+00  0.35210507805E+03  0.35210507805E+03  0.00000000000E+00 0.  1.
         21   -1    0    0  501  502 -0.00000000000E+00 -0.00000000000E+00 -0.50139106463E+03  0.50139106463E+03  0.00000000000E+00 0.  1.
         21    1    1    2  503  502  0.87581159280E+02  0.28639189994E+02 -0.23609999875E+03  0.25344402158E+03  0.00000000000E+00 0.  1.
         21    1    1    2  504  506 -0.47036662068E+02 -0.22011882232E+02  0.73513924979E+02  0.90007042523E+02  0.00000000000E+00 0.  1.
         21    1    1    2  505  504 -0.92041944741E+02 -0.16905135949E+01  0.25070323296E+03  0.26707056828E+03  0.00000000000E+00 0.  1.
         21    1    1    2  506  503  0.51497447528E+02 -0.49367941669E+01 -0.23740314576E+03  0.24297451030E+03  0.00000000000E+00 0.  1.
<scales pt_clust_3="149.08431" pt_clust_4="37.42633" pt_clust_5="37.42633" pt_clust_6="36.10207"></scales>
<clustering>
<clus scale="   36.102">  3  6 -1 -1</clus>
<clus scale="   37.426">  4  5 -1 -1</clus>
<clus scale="  149.084">  2  3  1 -1</clus>
<clus scale="  149.625">  1  3  2 -1</clus>
</clustering>
</event>
<event>
 6    0  0.3446372E+002  0.1148756E+03  0.7546771E-02  0.1251798E+00
         21   -1    0    0  503  501  0.00000000000E+00  0.00000000000E+00  0.50131386836E+03  0.50131386836E+03  0.00000000000E+00 0.  1.
         21   -1    0    0  506  502 -0.00000000000E+00 -0.00000000000E+00 -0.22675248554E+03  0.22675248554E+03  0.00000000000E+00 0.  1.
         21    1    1    2  503  505  0.23650726887E+02  0.58834712208E+02  0.33874679886E+03  0.34463063413E+03  0.00000000000E+00 0.  1.
         21    1    1    2  504  502  0.13801562279E+02 -0.70796830829E+02 -0.54285811700E+02  0.90275266428E+02  0.00000000000E+00 0.  1.
         21    1    1    2  505  504  0.58734931686E+01  0.77840655947E+02  0.11884501590E+03  0.14218932254E+03  0.00000000000E+00 0.  1.
         21    1    1    2  506  501 -0.43325782335E+02 -0.65878537326E+02 -0.12874462024E+03  0.15097113081E+03  0.00000000000E+00 0.  1.
<scales pt_clust_3="63.41041" pt_clust_4="66.24385" pt_clust_5="114.87564" pt_clust_6="14000.00000"></scales>
<clustering>
<clus scale="   63.410">  1  3  2 -1</clus>
<clus scale="   66.244">  2  4  1 -1</clus>
<clus scale="  114.876">  1  5  2 -1</clus>
<clus scale="   63.410">  1  3  2 -1</clus>
</clustering>
</event>
<event>
 6    0  0.3446372E+002  0.1146796E+03  0.7546771E-02  0.1252141E+00
         21   -1    0    0  504  501  0.00000000000E+00  0.00000000000E+00  0.30317578013E+03  0.30317578013E+03  0.00000000000E+00 0. -1.
         21   -1    0    0  503  502 -0.00000000000E+00 -0.00000000000E+00 -0.12344819751E+03  0.12344819751E+03  0.00000000000E+00 0.  1.
         21    1    1    2  503  501  0.10290116630E+03 -0.66980784147E+02  0.22258789698E+03  0.25420552188E+03  0.00000000000E+00 0. -1.
         21    1    1    2  504  505 -0.27918387794E+02  0.37509119833E+02  0.25454260485E+02  0.53238048654E+02  0.00000000000E+00 0. -1.
         21    1    1    2  505  506 -0.17980628090E+02  0.31588062520E+02 -0.10204193059E+02  0.37752274584E+02  0.00000000000E+00 0.  1.
         21    1    1    2  506  502 -0.57002150414E+02 -0.21163982072E+01 -0.58110381788E+02  0.81428132515E+02  0.00000000000E+00 0.  1.
<scales pt_clust_3="109.48000" pt_clust_4="30.09998" pt_clust_5="30.09998" pt_clust_6="57.04143"></scales>
<clustering>
<clus scale="   30.100">  4  5 -1 -1</clus>
<clus scale="   57.041">  2  6  1 -1</clus>
<clus scale="  109.480">  1  3  2 -1</clus>
<clus scale="  109.480">  1  3  2 -1</clus>
</clustering>
</event>
<event>
 6    0  0.3446372E+002  0.1582682E+03  0.7546771E-02  0.1190666E+00
         21   -1    0    0  506  501  0.00000000000E+00  0.00000000000E+00  0.36060050373E+03  0.36060050373E+03  0.00000000000E+00 0. -1.
         21   -1    0    0  505  502 -0.00000000000E+00 -0.00000000000E+00 -0.37846716221E+03  0.37846716221E+03  0.00000000000E+00 0.  1.
         21    1    1    2  503  504 -0.16401123864E+03  0.60503329148E+02 -0.12788955270E+01  0.17481983530E+03  0.00000000000E+00 0. -1.
         21    1    1    2  504  502  0.15885765550E+03  0.58805125514E+02 -0.23471730099E+03  0.28945812975E+03  0.00000000000E+00 0.  1.
         21    1    1    2  505  501 -0.51015833762E+01 -0.39026324849E+02 -0.28438236352E+01  0.39460961938E+02  0.00000000000E+00 0. -1.
         21    1    1    2  506  503  0.10255166521E+02 -0.80282129812E+02  0.22097336167E+03  0.23532873895E+03  0.00000000000E+00 0. -1.
<scales pt_clust_3="158.26817" pt_clust_4="14000.00000" pt_clust_5="39.35836" pt_clust_6="81.69937"></scales>
<clustering>
<clus scale="   39.358">  2  5  1 -1</clus>
<clus scale="   81.699">  1  6  2 -1</clus>
<clus scale="  158.268">  1  3  2 -1</clus>
<clus scale="   81.699">  1  3  2 -1</clus>
</clustering>
</event>
<event>
 6    0  0.3446372E+002  0.1560486E+03  0.7546771E-02  0.1193232E+00
         21   -1    0    0  503  501  0.00000000000E+00  0.00000000000E+00  0.21507832710E+03  0.21507832710E+03  0.00000000000E+00 0. -1.
         21   -1    0    0  504  502 -0.00000000000E+00 -0.00000000000E+00 -0.16422290585E+03  0.16422290585E+03  0.00000000000E+00 0. -1.
         21    1    1    2  503  505  0.30398229216E+02  0.11036221586E+02  0.47835127461E+02  0.57741232629E+02  0.00000000000E+00 0. -1.
         21    1    1    2  504  501 -0.71038062646E+02 -0.11299873865E+03 -0.96476643905E+02  0.16469020645E+03  0.00000000000E+00 0. -1.
         21    1    1    2  505  506  0.34583533512E+02  0.47186702734E+02  0.23619624048E+02  0.63091143159E+02  0.00000000000E+00 0. -1.
         21    1    1    2  506  502  0.60562999177E+01  0.54775814331E+02  0.75877313643E+02  0.93778650715E+02  0.00000000000E+00 0. -1.
<scales pt_clust_3="32.25555" pt_clust_4="133.47330" pt_clust_5="44.83349" pt_clust_6="44.83349"></scales>
<clustering>
<clus scale="   32.256">  3  5 -1 -1</clus>
<clus scale="   44.833">  3  6 -1 -1</clus>
<clus scale="  133.473">  2  4  1 -1</clus>
<clus scale="  156.049">  1  3  2 -1</clus>
</clustering>
</event>
<event>
 6    0  0.3446372E+002  0.1193842E+03  0.7546771E-02  0.1244116E+00
         21   -1    0    0  504  501  0.00000000000E+00  0.00000000000E+00  0.38626797497E+03  0.38626797497E+03  0.00000000000E+00 0.  1.
         21   -1    0    0  506  502 -0.00000000000E+00 -0.00000000000E+00 -0.15455136341E+03  0.15455136341E+03  0.00000000000E+00 0.  1.
         21    1    1    2  503  501  0.12038187503E+03 -0.13302385364E+02  0.29836336650E+03  0.32200845914E+03  0.00000000000E+00 0.  1.
         21    1    1    2  504  505 -0.10849624807E+03 -0.34286042336E+02 -0.65086975234E+02  0.13108502161E+03  0.00000000000E+00 0.  1.
         21    1    1    2  505  502 -0.42522544336E+02  0.26905683619E+02 -0.51724009781E+01  0.50584941630E+02  0.00000000000E+00 0.  1.
         21    1    1    2  506  503  0.30636917377E+02  0.20682744081E+02  0.36126212757E+01  0.37140916004E+02  0.00000000000E+00 0. -1.
<scales pt_clust_3="14000.00000" pt_clust_4="119.38418" pt_clust_5="47.81245" pt_clust_6="36.96480"></scales>
<clustering>
<clus scale="   36.965">  2  6  1 -1</clus>
<clus scale="   47.812">  2  5  1 -1</clus>
<clus scale="  119.384">  2  4  1 -1</clus>
<clus scale="  119.384">  1  3  2 -1</clus>
</clustering>
</event>
<event>
 6    0  0.3446372E+002  0.1810650E+03  0.7546771E-02  0.1166776E+00
         21   -1    0    0  503  501  0.00000000000E+00  0.00000000000E+00  0.28693225751E+03  0.28693225751E+03  0.00000000000E+00 0. -1.
         21   -1    0    0  506  502 -0.00000000000E+00 -0.00000000000E+00 -0.71978339233E+03  0.71978339233E+03  0.00000000000E+00 0. -1.
         21    1    1    2  503  502 -0.10549756204E+03 -0.22555213744E+03 -0.28655883013E+03  0.37963069611E+03  0.00000000000E+00 0. -1.
         21    1    1    2  504  505  0.16371466221E+02  0.80863761528E+02 -0.13980373712E+03  0.16233316897E+03  0.00000000000E+00 0. -1.
         21    1    1    2  505  501  0.81148895324E+02  0.75782176609E+02  0.20993229439E+03  0.23748610429E+03  0.00000000000E+00 0. -1.
         21    1    1    2  506  504  0.79772004964E+01  0.68906199304E+02 -0.21642086196E+03  0.22726568047E+03  0.00000000000E+00 0. -1.
<scales pt_clust_3="175.83272" pt_clust_4="39.62368" pt_clust_5="111.03189" pt_clust_6="39.62368"></scales>
<clustering>
<clus scale="   39.624">  4  6 -1 -1</clus>
<clus scale="  111.032">  1  5  2 -1</clus>
<clus scale="  175.833">  1  3  2 -1</clus>
<clus scale="  111.032">  1  3  2 -1</clus>
</clustering>
</event>
<event>
 6    0  0.3446372E+002  0.9044024E+02  0.7546771E-02  0.1301789E+00
         21   -1    0    0  504  501  0.00000000000E+00  0.00000000000E+00  0.57979359318E+03  0.57979359318E+03  0.00000000000E+00 0. -1.
         21   -1    0    0  506  502 -0.00000000000E+00 -0.00000000000E+00 -0.69752997303E+02  0.69752997303E+02  0.00000000000E+00 0.  1.
         21    1    1    2  503  502  0.29999250931E+02 -0.15352456127E+02  0.29300672208E+02  0.44656268960E+02  0.00000000000E+00 0.  1.
         21    1    1    2  504  505 -0.24829508820E+02 -0.30432725303E+02  0.10980422123E+03  0.11661741842E+03  0.00000000000E+00 0. -1.
         21    1    1    2  505  503 -0.35667371342E+02 -0.72089157131E+02 -0.16544058998E+02  0.82114029510E+02  0.00000000000E+00 0.  1.
         21    1    1    2  506  501  0.30497629232E+02  0.11787433856E+03  0.38747976143E+03  0.40615887359E+03  0.00000000000E+00 0. -1.
<scales pt_clust_3="33.69945" pt_clust_4="38.93073" pt_clust_5="90.44024" pt_clust_6="14000.00000"></scales>
<clustering>
<clus scale="   33.699">  2  3  1 -1</clus>
<clus scale="   38.931">  1  4  2 -1</clus>
<clus scale="   90.440">  2  5  1 -1</clus>
<clus scale="   38.931">  1  3  2 -1</clus>
</clustering>
</event>
<event>
 6    0  0.3446372E+002  0.2561746E+03  0.7546771E-02  0.1109464E+00
         21   -1    0    0  502  501  0.00000000000E+00  0.00000000000E+00  0.29587327758E+02  0.29587327758E+02  0.00000000000E+00 0. -1.
         21   -1    0    0  505  502 -0.00000000000E+00 -0.00000000000E+00 -0.34478563138E+04  0.34478563138E+04  0.00000000000E+00 0.  1.
         21    1    1    2  503  506  0.96758382040E+02 -0.11894104439E+03 -0.42249476286E+03  0.44945631732E+03  0.00000000000E+00 0. -1.
         21    1    1    2  504  503 -0.88633821894E+02  0.23631044001E+02 -0.94421567962E+03  0.94866096698E+03  0.00000000000E+00 0.  1.
         21    1    1    2  505  504 -0.48992407569E+02  0.15641460060E+03 -0.19322466108E+04  0.19391861046E+04  0.00000000000E+00 0.  1.
         21    1    1    2  506  501  0.40867847423E+02 -0.61104600206E+02 -0.11931193276E+03  0.14014025267E+03  0.00000000000E+00 0. -1.
<scales pt_clust_3="232.52875" pt_clust_4="89.35874" pt_clust_5="89.35874" pt_clust_6="36.06036"></scales>
<clustering>
<clus scale="   36.060">  3  6 -1 -1</clus>
<clus scale="   89.359">  4  5 -1 -1</clus>
<clus scale="  232.529">  1  3  2 -1</clus>
<clus scale="  232.529">  1  3  2 -1</clus>
</clustering>
</event>
<event>
 6    0  0.3446372E+002  0.9630236E+02  0.7546771E-02  0.1288269E+00
         21   -1    0    0  504  501  0.00000000000E+00  0.00000000000E+00  0.30356470356E+04  0.30356470356E+04  0.00000000000E+00 0. -1.
         21   -1    0    0  505  502 -0.00000000000E+00 -0.00000000000E+00 -0.39153642854E+03  0.39153642854E+03  0.00000000000E+00 0. -1.
         21    1    1    2  503  502 -0.48440523462E+02 -0.11092570643E+02 -0.22150380264E+03  0.22700983244E+03  0.00000000000E+00 0. -1.
         21    1    1    2  504  503  0.13194645996E+03  0.35597458092E+01  0.28302234499E+04  0.28332997223E+04  0.00000000000E+00 0. -1.
         21    1    1    2  505  506 -0.44890015679E+02  0.38610143924E+02 -0.15721323848E+03  0.16799362808E+03  0.00000000000E+00 0. -1.
         21    1    1    2  506  501 -0.38615920817E+02 -0.31077319090E+02  0.19260419831E+03  0.19888028135E+03  0.00000000000E+00 0.  1.
<scales pt_clust_3="49.73758" pt_clust_4="96.30236" pt_clust_5="14000.00000" pt_clust_6="49.56802"></scales>
<clustering>
<clus scale="   49.568">  1  6  2 -1</clus>
<clus scale="   49.738">  2  3  1 -1</clus>
<clus scale="   96.302">  1  4  2 -1</clus>
<clus scale="   49.568">  1  3  2 -1</clus>
</clustering>
</event>
<event>
 6    0  0.3446372E+002  0.1430620E+03  0.7546771E-02  0.1209267E+00
         21   -1    0    0  505  501  0.00000000000E+00  0.00000000000E+00  0.21491061952E+03  0.21491061952E+03  0.00000000000E+00 0. -1.
         21   -1    0    0  503  502 -0.00000000000E+00 -0.00000000000E+00 -0.14888621438E+03  0.14888621438E+03  0.00000000000E+00 0.  1.
         21    1    1    2  503  504 -0.42764682706E+02 -0.62279580751E+02  0.32655261493E+02  0.82303890362E+02  0.00000000000E+00 0. -1.
         21    1    1    2  504  501 -0.49531911979E+02 -0.21597680819E+02 -0.85680588495E+01  0.54710892458E+02  0.00000000000E+00 0. -1.
         21    1    1    2  505  506  0.10014294233E+02 -0.30321418771E+02  0.75592431026E+02  0.82060283656E+02  0.00000000000E+00 0. -1.
         21    1    1    2  506  502  0.82282300452E+02  0.11419868034E+03 -0.33655228536E+02  0.14472176743E+03  0.00000000000E+00 0.  1.
<scales pt_clust_3="41.39314" pt_clust_4="41.39314" pt_clust_5="31.93234" pt_clust_6="133.52133"></scales>
<clustering>
<clus scale="   31.932">  1  5  2 -1</clus>
<clus scale="   41.393">  3  4 -1 -1</clus>
<clus scale="  133.521">  2  6  1 -1</clus>
<clus scale="   31.932">  1  3  2 -1</clus>
</clustering>
</event>
<event>
 6    0  0.3446372E+002  0.9608634E+02  0.7546771E-02  0.1288748E+00
         21   -1    0    0  503  501  0.00000000000E+00  0.00000000000E+00  0.61348075568E+03  0.61348075568E+03  0.00000000000E+00 0. -1.
         21   -1    0    0  505  502 -0.00000000000E+00 -0.00000000000E+00 -0.41482967458E+03  0.41482967458E+03  0.00000000000E+00 0.  1.
         21    1    1    2  503  502 -0.75677384831E+02  0.29778156062E+02 -0.48363832344E+02  0.94619582710E+02  0.00000000000E+00 0.  1.
         21    1    1    2  504  501  0.19048820446E+02 -0.40277042098E+02  0.74009772830E+02  0.86386018284E+02  0.00000000000E+00 0.  1.
         21    1    1    2  505  506  0.37651084150E+02  0.68216049635E+02 -0.33079844799E+03  0.33985091843E+03  0.00000000000E+00 0.  1.
         21    1    1    2  506  504  0.18977480235E+02 -0.57717163599E+02  0.50380358860E+03  0.50745391083E+03  0.00000000000E+00 0. -1.
<scales pt_clust_3="96.08634" pt_clust_4="44.55444" pt_clust_5="77.69628" pt_clust_6="14000.00000"></scales>
<clustering>
<clus scale="   44.554">  1  4  2 -1</clus>
<clus scale="   77.696">  2  5  1 -1</clus>
<clus scale="   96.086">  2  3  1 -1</clus>
<clus scale="   44.554">  1  3  2 -1</clus>
</clustering>
</event>
<event>
 6    0  0.3446372E+002  0.1411057E+03  0.7546771E-02  0.1211849E+00
         21   -1    0    0  505  501  0.00000000000E+00  0.00000000000E+00  0.22702469716E+03  0.22702469716E+03  0.00000000000E+00 0.  1.
         21   -1    0    0  506  502 -0.00000000000E+00 -0.00000000000E+00 -0.36597644274E+03  0.36597644274E+03  0.00000000000E+00 0. -1.
         21    1    1    2  503  504 -0.28537939511E+02 -0.26169119726E+02 -0.75941319463E+02  0.85242717111E+02  0.00000000000E+00 0. -1.
         21    1    1    2  504  502 -0.48857926443E+01 -0.10492188699E+03 -0.14819172370E+03  0.18164046992E+03  0.00000000000E+00 0. -1.
         21    1    1    2  505  503 -0.55337876062E+02  0.31197880429E+02  0.16057584837E+03  0.17268523779E+03  0.00000000000E+00 0.  1.
         21    1    1    2  506  501  0.88761608217E+02  0.99893126283E+02 -0.75394550786E+02  0.15343271509E+03  0.00000000000E+00 0. -1.
<scales pt_clust_3="31.48445" pt_clust_4="31.48445" pt_clust_5="63.52628" pt_clust_6="131.23188"></scales>
<clustering>
<clus scale="   31.484">  3  4 -1 -1</clus>
<clus scale="   63.526">  1  5  2 -1</clus>
<clus scale="  131.232">  1  6  2 -1</clus>
<clus scale="   63.526">  1  3  2 -1</clus>
</clustering>
</event>
<event>
 6    0  0.3446372E+002  0.2646747E+03  0.7546771E-02  0.1104367E+00
         21   -1    0    0  505  501  0.00000000000E+00  0.00000000000E+00  0.55180352321E+03  0.55180352321E+03  0.00000000000E+00 0. -1.
         21   -1    0    0  503  502 -0.00000000000E+00 -0.00000000000E+00 -0.61595402150E+03  0.61595402150E+03  0.00000000000E+00 0.  1.
         21    1    1    2  503  501  0.23657551624E+03 -0.24739219480E+02  0.37100187958E+03  0.44070670351E+03  0.00000000000E+00 0. -1.
         21    1    1    2  504  506 -0.79087361882E+02  0.52418406081E+02 -0.94010053118E+02  0.13356792352E+03  0.00000000000E+00 0. -1.
         21    1    1    2  505  504 -0.35741937766E+02 -0.11175231604E+03  0.83365801427E+02  0.14393027167E+03  0.00000000000E+00 0. -1.
         21    1    1    2  506  502 -0.12174621659E+03  0.84073129441E+02 -0.42450812618E+03  0.44955264602E+03  0.00000000000E+00 0.  1.
<scales pt_clust_3="240.51669" pt_clust_4="88.46795" pt_clust_5="117.32888" pt_clust_6="88.46795"></scales>
<clustering>
<clus scale="   88.468">  4  6 -1 -1</clus>
<clus scale="  117.329">  1  5  2 -1</clus>
<clus scale="  240.517">  1  3  2 -1</clus>
<clus scale="  117.329">  1  3  2 -1</clus>
</clustering>
</event>
<event>
 6    0  0.3446372E+002  0.1070357E+03  0.7546771E-02  0.1266160E+00
         21   -1    0    0  506  501  0.00000000000E+00  0.00000000000E+00  0.13056136224E+03  0.13056136224E+03  0.00000000000E+00 0.  1.
         21   -1    0    0  505  502 -0.00000000000E+00 -0.00000000000E+00 -0.19321122487E+04  0.19321122487E+04  0.00000000000E+00 0. -1.
         21    1    1    2  503  502  0.11782302327E+03  0.52205600342E+02 -0.13760589534E+03  0.18852870325E+03  0.00000000000E+00 0.  1.
         21    1    1    2  504  501 -0.38767314299E+02 -0.41018579495E+02 -0.10827457887E+04  0.10842157864E+04  0.00000000000E+00 0. -1.
         21    1    1    2  505  504 -0.47347112602E+02 -0.68114110403E+01 -0.68225256241E+03  0.68392741085E+03  0.00000000000E+00 0. -1.
         21    1    1    2  506  503 -0.31708596368E+02 -0.43756098072E+01  0.10105336001E+03  0.10600171043E+03  0.00000000000E+00 0.  1.
<scales pt_clust_3="100.24401" pt_clust_4="34.68940" pt_clust_5="34.68940" pt_clust_6="32.00908"></scales>
<clustering>
<clus scale="   32.009">  1  6  2 -1</clus>
<clus scale="   34.689">  4  5 -1 -1</clus>
<clus scale="  100.244">  1  3  2 -1</clus>
<clus scale="   32.009">  1  3  2 -1</clus>
</clustering>
</event>
<event>
 6    0  0.3446372E+002  0.9894684E+02  0.7546771E-02  0.1282526E+00
         21   -1    0    0  505  501  0.00000000000E+00  0.00000000000E+00  0.18001061322E+03  0.18001061322E+03  0.00000000000E+00 0.  1.
         21   -1    0    0  504  502 -0.00000000000E+00 -0.00000000000E+00 -0.97105319398E+03  0.97105319398E+03  0.00000000000E+00 0. -1.
         21    1    1    2  503  502  0.30564758198E+02  0.15064163679E+02 -0.54731319984E+03  0.54837293168E+03  0.00000000000E+00 0. -1.
         21    1    1    2  504  501 -0.11303235879E+03 -0.37300174536E+02 -0.29325818244E+02  0.12258719660E+03  0.00000000000E+00 0.  1.
         21    1    1    2  505  506  0.26409036086E+02 -0.18805518143E+02  0.12732310213E+03  0.13138590882E+03  0.00000000000E+00 0.  1.
         21    1    1    2  506  503  0.56058564504E+02  0.41041529001E+02 -0.34172666480E+03  0.34871777012E+03  0.00000000000E+00 0. -1.
<scales pt_clust_3="34.23753" pt_clust_4="98.94684" pt_clust_5="32.42044" pt_clust_6="14000.00000"></scales>
<clustering>
<clus scale="   32.420">  1  5  2 -1</clus>
<clus scale="   34.238">  2  3  1 -1</clus>
<clus scale="   98.947">  1  4  2 -1</clus>
<clus scale="   32.420">  1  3  2 -1</clus>
</clustering>
</event>
<event>
 6    0  0.3446372E+002  0.9675557E+02  0.7546771E-02  0.1287270E+00
         21   -1    0    0  506  501  0.00000000000E+00  0.00000000000E+00  0.62579992690E+03  0.62579992690E+03  0.00000000000E+00 0. -1.
         21   -1    0    0  505  502 -0.00000000000E+00 -0.00000000000E+00 -0.10686839984E+03  0.10686839984E+03  0.00000000000E+00 0.  1.
         21    1    1    2  503  501  0.20079971462E+02  0.53887822318E+02  0.25082347168E+03  0.25733153051E+03  0.00000000000E+00 0. -1.
         21    1    1    2  504  502  0.11379556098E+01 -0.61936888661E+02 -0.14051810518E+00  0.61947500880E+02  0.00000000000E+00 0.  1.
         21    1    1    2  505  503  0.79946910059E+02  0.85470993720E+02  0.67197032684E+00  0.11703525426E+03  0.00000000000E+00 0.  1.
         21    1    1    2  506  504 -0.10116483713E+03 -0.77421927377E+02  0.26757660316E+03  0.29635404108E+03  0.00000000000E+00 0. -1.
<scales pt_clust_3="57.50741" pt_clust_4="57.52542" pt_clust_5="14000.00000" pt_clust_6="96.75557"></scales>
<clustering>
<clus scale="   57.507">  1  3  2 -1</clus>
<clus scale="   57.525">  2  4  1 -1</clus>
<clus scale="   96.756">  1  6  2 -1</clus>
<clus scale="   57.507">  1  3  2 -1</clus>
</clustering>
</event>
<event>
 6    0  0.3446372E+002  0.1291765E+03  0.7546771E-02  0.1228683E+00
         21   -1    0    0  504  501  0.00000000000E+00  0.00000000000E+00  0.40396374560E+03  0.40396374560E+03  0.00000000000E+00 0. -1.
         21   -1    0    0  503  502 -0.00000000000E+00 -0.00000000000E+00 -0.34706453418E+03  0.34706453418E+03  0.00000000000E+00 0. -1.
         21    1    1    2  503  505 -0.54565504479E+02 -0.61890019632E+02  0.93149545887E+02  0.12443715968E+03  0.00000000000E+00 0. -1.
         21    1    1    2  504  506  0.67997345583E+02  0.13054537008E+02 -0.13662987514E+03  0.15317239543E+03  0.00000000000E+00 0. -1.
         21    1    1    2  505  501 -0.59984478661E+02  0.53847821307E+01  0.27814557123E+03  0.28459109676E+03  0.00000000000E+00 0. -1.
         21    1    1    2  506  502  0.46552637556E+02  0.43450700493E+02 -0.17776603057E+03  0.18882762790E+03  0.00000000000E+00 0. -1.
<scales pt_clust_3="121.99127" pt_clust_4="40.74048" pt_clust_5="60.22569" pt_clust_6="40.74048"></scales>
<clustering>
<clus scale="   40.740">  4  6 -1 -1</clus>
<clus scale="   60.226">  1  5  2 -1</clus>
<clus scale="  121.991">  1  3  2 -1</clus>
<clus scale="   60.226">  1  3  2 -1</clus>
</clustering>
</event>
<event>
 6    0  0.3446372E+002  0.1464994E+03  0.7546771E-02  0.1204842E+00
         21   -1    0    0  505  501  0.00000000000E+00  0.00000000000E+00  0.15285310926E+04  0.15285310926E+04  0.00000000000E+00 0. -1.
         21   -1    0    0  504  502 -0.00000000000E+00 -0.00000000000E+00 -0.10586211450E+03  0.10586211450E+03  0.00000000000E+00 0. -1.
         21    1    1    2  503  501  0.15720250597E+03 -0.65372327892E+02  0.13191052925E+04  0.13300469698E+04  0.00000000000E+00 0. -1.
         21    1    1    2  504  503 -0.38218347399E+02  0.24764982652E+02 -0.24340246931E+01  0.45605601848E+02  0.00000000000E+00 0. -1.
         21    1    1    2  505  506 -0.92563595776E+02  0.16832985598E+02  0.16495492483E+03  0.18989864637E+03  0.00000000000E+00 0.  1.
         21    1    1    2  506  502 -0.26420562796E+02  0.23774359642E+02 -0.58957214544E+02  0.68841989088E+02  0.00000000000E+00 0. -1.
<scales pt_clust_3="146.49944" pt_clust_4="65.71062" pt_clust_5="14000.00000" pt_clust_6="35.54246"></scales>
<clustering>
<clus scale="   35.542">  2  6  1 -1</clus>
<clus scale="   65.711">  2  4  1 -1</clus>
<clus scale="  146.499">  1  3  2 -1</clus>
<clus scale="  146.499">  1  3  2 -1</clus>
</clustering>
</event>
<event>
 6    0  0.3446372E+002  0.1283408E+03  0.7546771E-02  0.1229939E+00
         21   -1    0    0  504  501  0.00000000000E+00  0.00000000000E+00  0.84287372458E+03  0.84287372458E+03  0.00000000000E+00 0. -1.
         21   -1    0    0  505  502 -0.00000000000E+00 -0.00000000000E+00 -0.40393320731E+03  0.40393320731E+03  0.00000000000E+00 0. -1.
         21    1    1    2  503  501 -0.27405367578E+02  0.15126789572E+02  0.74523711323E+03  0.74589424778E+03  0.00000000000E+00 0. -1.
         21    1    1    2  504  502 -0.12203647450E+03 -0.24388505954E+02  0.27430710919E+01  0.12447981671E+03  0.00000000000E+00 0. -1.
         21    1    1    2  505  506  0.12895331438E+03 -0.19376613516E+02 -0.31481157499E+03  0.34075025779E+03  0.00000000000E+00 0. -1.
         21    1    1    2  506  503  0.20488527695E+02  0.28638329898E+02  0.57719079370E+01  0.35682609598E+02  0.00000000000E+00 0. -1.
<scales pt_clust_3="31.30294" pt_clust_4="128.34085" pt_clust_5="14000.00000" pt_clust_6="35.06764"></scales>
<clustering>
<clus scale="   31.303">  1  3  2 -1</clus>
<clus scale="   35.068">  1  6  2 -1</clus>
<clus scale="  128.341">  1  4  2 -1</clus>
<clus scale="   31.303">  1  3  2 -1</clus>
</clustering>
</event>
<event>
 6    0  0.3446372E+002  0.8588034E+02  0.7546771E-02  0.1313146E+00
         21   -1    0    0  504  501  0.00000000000E+00  0.00000000000E+00  0.82244521872E+03  0.82244521872E+03  0.00000000000E+00 0.  1.
         21   -1    0    0  505  502 -0.00000000000E+00 -0.00000000000E+00 -0.15880499343E+03  0.15880499343E+03  0.00000000000E+00 0.  1.
         21    1    1    2  503  502  0.16104282699E+02  0.34860496372E+02  0.12470171357E+02  0.40374587332E+02  0.00000000000E+00 0.  1.
         21    1    1    2  504  503  0.11921749692E+03 -0.53720719383E+02  0.58685621262E+03  0.60124782041E+03  0.00000000000E+00 0.  1.
         21    1    1    2  505  506 -0.86922164150E+02  0.87555722619E+01 -0.12020582260E+03  0.14859866235E+03  0.00000000000E+00 0.  1.
         21    1    1    2  506  501 -0.48399615471E+02  0.10104650749E+02  0.18451966391E+03  0.19102914206E+03  0.00000000000E+00 0.  1.
<scales pt_clust_3="38.40055" pt_clust_4="85.88034" pt_clust_5="14000.00000" pt_clust_6="49.25621"></scales>
<clustering>
<clus scale="   38.401">  2  3  1 -1</clus>
<clus scale="   49.256">  1  6  2 -1</clus>
<clus scale="   85.880">  1  4  2 -1</clus>
<clus scale="   49.256">  1  3  2 -1</clus>
</clustering>
</event>
<event>
 6    0  0.3446372E+002  0.1409906E+03  0.7546771E-02  0.1212002E+00
         21   -1    0    0  503  501  0.00000000000E+00  0.00000000000E+00  0.36729381714E+03  0.36729381714E+03  0.00000000000E+00 0. -1.
         21   -1    0    0  504  502 -0.00000000000E+00 -0.00000000000E+00 -0.11731982810E+03  0.11731982810E+03  0.00000000000E+00 0. -1.
         21    1    1    2  503  502  0.87814136228E+02  0.63201470518E+02  0.71440416469E+02  0.12965138450E+03  0.00000000000E+00 0. -1.
         21    1    1    2  504  505  0.39329303185E+01 -0.71350582144E+02 -0.25297354016E+02  0.75804548896E+02  0.00000000000E+00 0. -1.
         21    1    1    2  505  506 -0.15822131570E+02 -0.70802995991E+02  0.42268834321E+02  0.83964626145E+02  0.00000000000E+00 0. -1.
         21    1    1    2  506  501 -0.75924934977E+02  0.78952107618E+02  0.16156209227E+03  0.19519308570E+03  0.00000000000E+00 0. -1.
<scales pt_clust_3="108.19311" pt_clust_4="69.39510" pt_clust_5="69.39510" pt_clust_6="122.43028"></scales>
<clustering>
<clus scale="   69.395">  4  5 -1 -1</clus>
<clus scale="  108.193">  1  3  2 -1</clus>
<clus scale="  122.430">  1  6  2 -1</clus>
<clus scale="  108.193">  1  3  2 -1</clus>
</clustering>
</event>
<event>
 6    0  0.3446372E+002  0.1260585E+03  0.7546771E-02  0.1233424E+00
         21   -1    0    0  504  501  0.00000000000E+00  0.00000000000E+00  0.48082415919E+03  0.48082415919E+03  0.00000000000E+00 0.  1.
         21   -1    0    0  503  502 -0.00000000000E+00 -0.00000000000E+00 -0.36142315868E+03  0.36142315868E+03  0.00000000000E+00 0. -1.
         21    1    1    2  503  506 -0.10533080321E+03 -0.79753697749E+02 -0.26112431098E+03  0.29264506863E+03  0.00000000000E+00 0. -1.
         21    1    1    2  504  505 -0.24424779359E+01  0.33550272366E+02  0.38807083659E+03  0.38952607190E+03  0.00000000000E+00 0.  1.
         21    1    1    2  505  502  0.70213450926E+02  0.76103519024E+02  0.18915137570E+02  0.10525899832E+03  0.00000000000E+00 0.  1.
         21    1    1    2  506  501  0.37559830223E+02 -0.29900093640E+02 -0.26460662670E+02  0.54817179013E+02  0.00000000000E+00 0.  1.
<scales pt_clust_3="126.05845" pt_clust_4="33.63906" pt_clust_5="14000.00000" pt_clust_6="44.65691"></scales>
<clustering>
<clus scale="   33.639">  1  4  2 -1</clus>
<clus scale="   44.657">  1  6  2 -1</clus>
<clus scale="  126.058">  2  3  1 -1</clus>
<clus scale="   33.639">  1  3  2 -1</clus>
</clustering>
</event>
<event>
 6    0  0.3446372E+002  0.1016380E+03  0.7546771E-02  0.1276889E+00
         21   -1    0    0  506  501  0.00000000000E+00  0.00000000000E+00  0.31072768946E+04  0.31072768946E+04  0.00000000000E+00 0.  1.
         21   -1    0    0  503  502 -0.00000000000E+00 -0.00000000000E+00 -0.20081728816E+03  0.20081728816E+03  0.00000000000E+00 0.  1.
         21    1    1    2  503  501 -0.22970495209E+02  0.10596632439E+03 -0.16601624282E+03  0.19828741371E+03  0.00000000000E+00 0.  1.
         21    1    1    2  504  502 -0.31037196450E+02 -0.19446849561E+02  0.23644013082E+01  0.36702560058E+02  0.00000000000E+00 0.  1.
         21    1    1    2  505  504  0.22614038240E+02 -0.87428571645E+02  0.15236282428E+04  0.15263021234E+04  0.00000000000E+00 0.  1.
         21    1    1    2  506  505  0.31393653420E+02  0.90909681892E+00  0.15464832052E+04  0.15468020856E+04  0.00000000000E+00 0.  1.
<scales pt_clust_3="101.63798" pt_clust_4="36.28785" pt_clust_5="14000.00000" pt_clust_6="31.40681"></scales>
<clustering>
<clus scale="   31.407">  1  6  2 -1</clus>
<clus scale="   36.288">  2  4  1 -1</clus>
<clus scale="  101.638">  2  3  1 -1</clus>
<clus scale="   31.407">  1  3  2 -1</clus>
</clustering>
</event>
<event>
 6    0  0.3446372E+002  0.9804404E+02  0.7546771E-02  0.1284464E+00
         21   -1    0    0  505  501  0.00000000000E+00  0.00000000000E+00  0.17101651028E+04  0.17101651028E+04  0.00000000000E+00 0. -1.
         21   -1    0    0  506  502 -0.00000000000E+00 -0.00000000000E+00 -0.82307184238E+03  0.82307184238E+03  0.00000000000E+00 0.  1.
         21    1    1    2  503  504  0.56070414167E+02  0.93645999301E+01 -0.46712315026E+02  0.73577356923E+02  0.00000000000E+00 0.  1.
         21    1    1    2  504  501  0.76598586852E+02  0.41918293670E+02  0.11681192899E+04  0.11713783174E+04  0.00000000000E+00 0. -1.
         21    1    1    2  505  502 -0.26276157971E+02 -0.21762903979E+02  0.52242107269E+03  0.52353398902E+03  0.00000000000E+00 0. -1.
         21    1    1    2  506  503 -0.10639284305E+03 -0.29519989621E+02 -0.75673478724E+03  0.76474728182E+03  0.00000000000E+00 0.  1.
<scales pt_clust_3="14000.00000" pt_clust_4="54.68611" pt_clust_5="34.11833" pt_clust_6="98.04404"></scales>
<clustering>
<clus scale="   34.118">  1  5  2 -1</clus>
<clus scale="   54.686">  1  4  2 -1</clus>
<clus scale="   98.044">  2  6  1 -1</clus>
<clus scale="   34.118">  1  3  2 -1</clus>
</clustering>
</event>
<event>
 6    0  0.3446372E+002  0.1145607E+03  0.7546771E-02  0.1252350E+00
         21   -1    0    0  504  501  0.00000000000E+00  0.00000000000E+00  0.41827979342E+03  0.41827979342E+03  0.00000000000E+00 0.  1.
         21   -1    0    0  503  502 -0.00000000000E+00 -0.00000000000E+00 -0.29755129099E+03  0.29755129099E+03  0.00000000000E+00 0.  1.
         21    1    1    2  503  505  0.11841199037E+03  0.92932677038E+01 -0.25885825376E+03  0.28480758386E+03  0.00000000000E+00 0.  1.
         21    1    1    2  504  502 -0.34206384046E+02 -0.10355071872E+02  0.63088212720E+00  0.35744960976E+02  0.00000000000E+00 0.  1.
         21    1    1    2  505  506 -0.61783765276E+02 -0.23517131734E+02  0.15004696665E+03  0.16396457343E+03  0.00000000000E+00 0.  1.
         21    1    1    2  506  501 -0.22421841047E+02  0.24578935902E+02  0.22890890741E+03  0.23131396615E+03  0.00000000000E+00 0.  1.
<scales pt_clust_3="14000.00000" pt_clust_4="37.23856" pt_clust_5="114.56067" pt_clust_6="33.26955"></scales>
<clustering>
<clus scale="   33.270">  1  6  2 -1</clus>
<clus scale="   37.239">  1  4  2 -1</clus>
<clus scale="  114.561">  1  5  2 -1</clus>
<clus scale="   33.270">  1  3  2 -1</clus>
</clustering>
</event>
<event>
 6    0  0.3446372E+002  0.8271755E+02  0.7546771E-02  0.1321512E+00
         21   -1    0    0  506  501  0.00000000000E+00  0.00000000000E+00  0.14642934807E+03  0.14642934807E+03  0.00000000000E+00 0. -1.
         21   -1    0    0  503  502 -0.00000000000E+00 -0.00000000000E+00 -0.81825578206E+03  0.81825578206E+03  0.00000000000E+00 0.  1.
         21    1    1    2  503  504  0.15717140905E+01 -0.62802768486E+02 -0.33096419873E+03  0.33687380257E+03  0.00000000000E+00 0.  1.
         21    1    1    2  504  501 -0.47244353949E+02  0.60128661098E+02  0.10261386744E+03  0.12797300753E+03  0.00000000000E+00 0. -1.
         21    1    1    2  505  502  0.82244027094E+02  0.43790216521E+02 -0.43413819969E+03  0.44402436812E+03  0.00000000000E+00 0.  1.
         21    1    1    2  506  505 -0.36571387236E+02 -0.41116109134E+02 -0.93379030090E+01  0.55813951905E+02  0.00000000000E+00 0. -1.
<scales pt_clust_3="63.79274" pt_clust_4="82.71755" pt_clust_5="14000.00000" pt_clust_6="55.02727"></scales>
<clustering>
<clus scale="   55.027">  1  6  2 -1</clus>
<clus scale="   63.793">  2  3  1 -1</clus>
<clus scale="   82.718">  1  4  2 -1</clus>
<clus scale="   55.027">  1  3  2 -1</clus>
</clustering>
</event>
<event>
 6    0  0.3446372E+002  0.6961742E+02  0.7546771E-02  0.1361399E+00
         21   -1    0    0  505  501  0.00000000000E+00  0.00000000000E+00  0.97129466284E+03  0.97129466284E+03  0.00000000000E+00 0.  1.
         21   -1    0    0  503  502 -0.00000000000E+00 -0.00000000000E+00 -0.23235687561E+04  0.23235687561E+04  0.00000000000E+00 0.  1.
         21    1    1    2  503  506  0.99098142440E+02  0.42885067196E+02 -0.13549511130E+04  0.13592468832E+04  0.00000000000E+00 0.  1.
         21    1    1    2  504  502 -0.48539244524E+02 -0.26703861863E+02 -0.95607197483E+03  0.95767571524E+03  0.00000000000E+00 0.  1.
         21    1    1    2  505  504 -0.85507499634E+02 -0.30435333153E+02  0.91769846670E+03  0.92217586055E+03  0.00000000000E+00 0.  1.
         21    1    1    2  506  501  0.34948601718E+02  0.14254127820E+02  0.41050527863E+02  0.55764959964E+02  0.00000000000E+00 0.  1.
<scales pt_clust_3="14000.00000" pt_clust_4="69.61742" pt_clust_5="53.20543" pt_clust_6="37.74367"></scales>
<clustering>
<clus scale="   37.744">  1  6  2 -1</clus>
<clus scale="   53.205">  1  5  2 -1</clus>
<clus scale="   69.617">  2  4  1 -1</clus>
<clus scale="   37.744">  1  3  2 -1</clus>
</clustering>
</event>
<event>
 6    0  0.3446372E+002  0.1132325E+03  0.7546771E-02  0.1254698E+00
         21   -1    0    0  506  501  0.00000000000E+00  0.00000000000E+00  0.18680291581E+03  0.18680291581E+03  0.00000000000E+00 0.  1.
         21   -1    0    0  505  502 -0.00000000000E+00 -0.00000000000E+00 -0.45666037566E+03  0.45666037566E+03  0.00000000000E+00 0.  1.
         21    1    1    2  503  502 -0.43483859182E+02 -0.47835120599E+02 -0.19627879242E+03  0.20665045155E+03  0.00000000000E+00 0.  1.
         21    1    1    2  504  503 -0.40582701171E+02 -0.15460124511E+01 -0.10376068955E+03  0.11142543016E+03  0.00000000000E+00 0. -1.
         21    1    1    2  505  501  0.11224950748E+03  0.73327415624E+02 -0.11433819793E+03  0.17621034396E+03  0.00000000000E+00 0.  1.
         21    1    1    2  506  504 -0.28182947127E+02 -0.23946282573E+02  0.14452022006E+03  0.14917706581E+03  0.00000000000E+00 0.  1.
<scales pt_clust_3="32.12649" pt_clust_4="32.12649" pt_clust_5="105.72942" pt_clust_6="36.98247"></scales>
<clustering>
<clus scale="   32.126">  3  4 -1 -1</clus>
<clus scale="   36.982">  1  6  2 -1</clus>
<clus scale="  105.729">  1  5  2 -1</clus>
<clus scale="   36.982">  1  3  2 -1</clus>
</clustering>
</event>
<event>
 6    0  0.3446372E+002  0.9048174E+02  0.7546771E-02  0.1301689E+00
         21   -1    0    0  503  501  0.00000000000E+00  0.00000000000E+00  0.42202166167E+03  0.42202166167E+03  0.00000000000E+00 0. -1.
         21   -1    0    0  506  502 -0.00000000000E+00 -0.00000000000E+00 -0.11046451483E+03  0.11046451483E+03  0.00000000000E+00 0. -1.
         21    1    1    2  503  504  0.92303215338E+01 -0.49956075969E+02  0.13807308197E+03  0.14712234476E+03  0.00000000000E+00 0. -1.
         21    1    1    2  504  502  0.34748197563E+02  0.92219436822E+02 -0.11731175511E+02  0.99244557737E+02  0.00000000000E+00 0. -1.
         21    1    1    2  505  501  0.57752744662E+02 -0.14708257952E+02  0.16935570437E+03  0.17953569832E+03  0.00000000000E+00 0. -1.
         21    1    1    2  506  505 -0.10173126376E+03 -0.27555102901E+02  0.15859536010E+02  0.10658357568E+03  0.00000000000E+00 0. -1.
<scales pt_clust_3="50.80166" pt_clust_4="90.48174" pt_clust_5="78.36224" pt_clust_6="14000.00000"></scales>
<clustering>
<clus scale="   50.802">  1  3  2 -1</clus>
<clus scale="   78.362">  1  5  2 -1</clus>
<clus scale="   90.482">  2  4  1 -1</clus>
<clus scale="   50.802">  1  3  2 -1</clus>
</clustering>
</event>
<event>
 6    0  0.3446372E+002  0.1173666E+03  0.7546771E-02  0.1247506E+00
         21   -1    0    0  503  501  0.00000000000E+00  0.00000000000E+00  0.13059922386E+04  0.13059922386E+04  0.00000000000E+00 0.  1.
         21   -1    0    0  504  502 -0.00000000000E+00 -0.00000000000E+00 -0.73410753682E+03  0.73410753682E+03  0.00000000000E+00 0. -1.
         21    1    1    2  503  505  0.33229622835E+02  0.18498428254E+03  0.98374932236E+02  0.21213443830E+03  0.00000000000E+00 0.  1.
         21    1    1    2  504  506 -0.43714180934E+02 -0.42185073536E+02 -0.56569613458E+03  0.56894870307E+03  0.00000000000E+00 0. -1.
         21    1    1    2  505  502 -0.18745613251E+02 -0.57364419383E+02 -0.99696900478E+02  0.11653989271E+03  0.00000000000E+00 0.  1.
         21    1    1    2  506  501  0.29230171349E+02 -0.85434789616E+02  0.11389028046E+04  0.11424767413E+04  0.00000000000E+00 0.  1.
<scales pt_clust_3="14000.00000" pt_clust_4="117.36663" pt_clust_5="60.34960" pt_clust_6="90.43444"></scales>
<clustering>
<clus scale="   60.350">  2  5  1 -1</clus>
<clus scale="   90.434">  1  6  2 -1</clus>
<clus scale="  117.367">  2  4  1 -1</clus>
<clus scale="   90.434">  1  3  2 -1</clus>
</clustering>
</event>
<event>
 6    0  0.3446372E+002  0.7758280E+02  0.7546771E-02  0.1336054E+00
         21   -1    0    0  503  501  0.00000000000E+00  0.00000000000E+00  0.39112065861E+03  0.39112065861E+03  0.00000000000E+00 0. -1.
         21   -1    0    0  506  502 -0.00000000000E+00 -0.00000000000E+00 -0.16191530796E+03  0.16191530796E+03  0.00000000000E+00 0. -1.
         21    1    1    2  503  505  0.40679005705E+02 -0.40743979642E+01  0.11547561454E+03  0.12249897868E+03  0.00000000000E+00 0. -1.
         21    1    1    2  504  501 -0.62652731993E+02  0.15243419569E+02  0.19675858051E+03  0.20705474076E+03  0.00000000000E+00 0. -1.
         21    1    1    2  505  502  0.68047297305E+02  0.50204149494E+02  0.27501201205E+02  0.88922479524E+02  0.00000000000E+00 0. -1.
         21    1    1    2  506  504 -0.46073571018E+02 -0.61373171099E+02 -0.11053004561E+03  0.13455976761E+03  0.00000000000E+00 0. -1.
<scales pt_clust_3="40.88254" pt_clust_4="34.69478" pt_clust_5="77.58280" pt_clust_6="14000.00000"></scales>
<clustering>
<clus scale="   40.883">  1  3  2 -1</clus>
<clus scale="   34.695">  1  4  2 -1</clus>
<clus scale="   77.583">  1  5  2 -1</clus>
<clus scale="   40.883">  1  3  2 -1</clus>
</clustering>
</event>
<event>
 6    0  0.3446372E+002  0.1182938E+03  0.7546771E-02  0.1245939E+00
         21   -1    0    0  504  501  0.00000000000E+00  0.00000000000E+00  0.32413134546E+03  0.32413134546E+03  0.00000000000E+00 0. -1.
         21   -1    0    0  505  502 -0.00000000000E+00 -0.00000000000E+00 -0.12772743055E+03  0.12772743055E+03  0.00000000000E+00 0. -1.
         21    1    1    2  503  501 -0.48283468775E+02  0.37897237552E+01  0.56207593508E+02  0.74195343055E+02  0.00000000000E+00 0.  1.
         21    1    1    2  504  502  0.53890641892E+02  0.10945296252E+03  0.20812715023E+03  0.24124896466E+03  0.00000000000E+00 0. -1.
         21    1    1    2  505  506  0.10806658141E+02 -0.59027134235E+02 -0.46243119574E+02  0.75758910658E+02  0.00000000000E+00 0. -1.
         21    1    1    2  506  503 -0.16413831257E+02 -0.54215552039E+02 -0.21687709255E+02  0.60655557636E+02  0.00000000000E+00 0. -1.
<scales pt_clust_3="48.43197" pt_clust_4="113.37754" pt_clust_5="32.78937" pt_clust_6="32.78937"></scales>
<clustering>
<clus scale="   32.789">  5  6 -1 -1</clus>
<clus scale="   48.432">  1  3  2 -1</clus>
<clus scale="  113.378">  1  4  2 -1</clus>
<clus scale="   48.432">  1  3  2 -1</clus>
</clustering>
</event>
<event>
 6    0  0.3446372E+002  0.1619215E+03  0.7546771E-02  0.1186544E+00
         21   -1    0    0  506  501  0.00000000000E+00  0.00000000000E+00  0.17756117748E+04  0.17756117748E+04  0.00000000000E+00 0.  1.
         21   -1    0    0  504  502 -0.00000000000E+00 -0.00000000000E+00 -0.36526694966E+02  0.36526694966E+02  0.00000000000E+00 0.  1.
         21    1    1    2  503  505  0.39274543123E+02 -0.97271834449E+02  0.15024455055E+03  0.18324225627E+03  0.00000000000E+00 0.  1.
         21    1    1    2  504  503 -0.54861626437E+00  0.33786661003E+02  0.40907784565E+02  0.53059271381E+02  0.00000000000E+00 0.  1.
         21    1    1    2  505  501  0.60079119221E+02 -0.50842890311E+02  0.14669329024E+03  0.16647348577E+03  0.00000000000E+00 0.  1.
         21    1    1    2  506  502 -0.98805046079E+02  0.11432806376E+03  0.14012394545E+04  0.14093634564E+04  0.00000000000E+00 0.  1.
<scales pt_clust_3="43.53873" pt_clust_4="33.79111" pt_clust_5="43.53873" pt_clust_6="154.59194"></scales>
<clustering>
<clus scale="   33.791">  2  4  1 -1</clus>
<clus scale="   43.539">  3  5 -1 -1</clus>
<clus scale="  154.592">  1  6  2 -1</clus>
<clus scale="  154.592">  1  3  2 -1</clus>
</clustering>
</event>
<event>
 6    0  0.3446372E+002  0.2067275E+03  0.7546771E-02  0.1144184E+00
         21   -1    0    0  506  501  0.00000000000E+00  0.00000000000E+00  0.39888717895E+03  0.39888717895E+03  0.00000000000E+00 0. -1.
         21   -1    0    0  504  502 -0.00000000000E+00 -0.00000000000E+00 -0.65474392819E+03  0.65474392819E+03  0.00000000000E+00 0. -1.
         21    1    1    2  503  501  0.13350809449E+03 -0.13558602677E+01  0.24212498892E+03  0.27649730543E+03  0.00000000000E+00 0. -1.
         21    1    1    2  504  503 -0.10505142212E+02  0.16994842905E+03  0.58336901640E+02  0.17998894589E+03  0.00000000000E+00 0. -1.
         21    1    1    2  505  502 -0.50340069097E+02 -0.70477361529E+02 -0.31512327490E+03  0.32680859755E+03  0.00000000000E+00 0. -1.
         21    1    1    2  506  505 -0.72662883183E+02 -0.98115207257E+02 -0.24119536489E+03  0.27033625827E+03  0.00000000000E+00 0. -1.
<scales pt_clust_3="133.51498" pt_clust_4="197.98461" pt_clust_5="50.10028" pt_clust_6="50.10028"></scales>
<clustering>
<clus scale="   50.100">  5  6 -1 -1</clus>
<clus scale="  133.515">  1  3  2 -1</clus>
<clus scale="  197.985">  1  4  2 -1</clus>
<clus scale="  133.515">  1  3  2 -1</clus>
</clustering>
</event>
<event>
 6    0  0.3446372E+002  0.1431246E+03  0.7546771E-02  0.1209185E+00
         21   -1    0    0  503  501  0.00000000000E+00  0.00000000000E+00  0.80057971628E+03  0.80057971628E+03  0.00000000000E+00 0.  1.
         21   -1    0    0  506  502 -0.00000000000E+00 -0.00000000000E+00 -0.43835341763E+03  0.43835341763E+03  0.00000000000E+00 0. -1.
         21    1    1    2  503  504  0.48940108911E+01 -0.35936654551E+02  0.64232606835E+03  0.64334918400E+03  0.00000000000E+00 0.  1.
         21    1    1    2  504  505  0.42007886885E+02 -0.31612655537E+02  0.18732226906E+02  0.55811458281E+02  0.00000000000E+00 0.  1.
         21    1    1    2  505  502 -0.14853199066E+03  0.92329783551E+00 -0.37016956514E+03  0.39885851086E+03  0.00000000000E+00 0. -1.
         21    1    1    2  506  501  0.10163009289E+03  0.66626012252E+02  0.71337568542E+02  0.14091398076E+03  0.00000000000E+00 0.  1.
<scales pt_clust_3="36.26837" pt_clust_4="58.91923" pt_clust_5="143.12455" pt_clust_6="14000.00000"></scales>
<clustering>
<clus scale="   36.268">  1  3  2 -1</clus>
<clus scale="   58.919">  1  4  2 -1</clus>
<clus scale="  143.125">  2  5  1 -1</clus>
<clus scale="   36.268">  1  3  2 -1</clus>
</clustering>
</event>
<event>
 6    0  0.3446372E+002  0.1123353E+03  0.7546771E-02  0.1256305E+00
         21   -1    0    0  505  501  0.00000000000E+00  0.00000000000E+00  0.39644843366E+03  0.39644843366E+03  0.00000000000E+00 0.  1.
         21   -1    0    0  506  502 -0.00000000000E+00 -0.00000000000E+00 -0.12188441429E+03  0.12188441429E+03  0.00000000000E+00 0.  1.
         21    1    1    2  503  501  0.22292566314E+02  0.33631875017E+02  0.62382010687E+01  0.40828625774E+02  0.00000000000E+00 0.  1.
         21    1    1    2  504  502 -0.64855965332E+02  0.82409132483E+02 -0.35810085886E+02  0.11081481673E+03  0.00000000000E+00 0.  1.
         21    1    1    2  505  504  0.10824104801E+02 -0.11498236289E+03  0.31307563917E+03  0.33369815831E+03  0.00000000000E+00 0.  1.
         21    1    1    2  506  503  0.31739294217E+02 -0.10586446082E+01 -0.89397349889E+01  0.32991247134E+02  0.00000000000E+00 0.  1.
<scales pt_clust_3="43.45105" pt_clust_4="112.33526" pt_clust_5="14000.00000" pt_clust_6="31.75694"></scales>
<clustering>
<clus scale="   31.757">  2  6  1 -1</clus>
<clus scale="   43.451">  2  3  1 -1</clus>
<clus scale="  112.335">  2  4  1 -1</clus>
<clus scale="  112.335">  1  3  2 -1</clus>
</clustering>
</event>
<event>
 6    0  0.3446372E+002  0.1039756E+03  0.7546771E-02  0.1272151E+00
         21   -1    0    0  504  501  0.00000000000E+00  0.00000000000E+00  0.43510159706E+04  0.43510159706E+04  0.00000000000E+00 0.  1.
         21   -1    0    0  505  502 -0.00000000000E+00 -0.00000000000E+00 -0.15413780890E+02  0.15413780890E+02  0.00000000000E+00 0. -1.
         21    1    1    2  503  502 -0.44507881099E+01  0.38332164056E+02  0.22829034188E+02  0.44836693879E+02  0.00000000000E+00 0. -1.
         21    1    1    2  504  503  0.28350134397E+02  0.87131614400E+02  0.13399563449E+04  0.13430854978E+04  0.00000000000E+00 0.  1.
         21    1    1    2  505  506 -0.31764780390E+02 -0.89646993587E+01  0.16525814801E+03  0.16852187571E+03  0.00000000000E+00 0.  1.
         21    1    1    2  506  501  0.78654341033E+01 -0.11649907910E+03  0.28075586627E+04  0.28099856841E+04  0.00000000000E+00 0.  1.
<scales pt_clust_3="43.13515" pt_clust_4="14000.00000" pt_clust_5="33.00556" pt_clust_6="103.97561"></scales>
<clustering>
<clus scale="   33.006">  2  5  1 -1</clus>
<clus scale="   43.135">  2  3  1 -1</clus>
<clus scale="  103.976">  1  6  2 -1</clus>
<clus scale="  103.976">  1  3  2 -1</clus>
</clustering>
</event>
<event>
 6    0  0.3446372E+002  0.8862297E+02  0.7546771E-02  0.1306221E+00
         21   -1    0    0  505  501  0.00000000000E+00  0.00000000000E+00  0.37707131283E+03  0.37707131283E+03  0.00000000000E+00 0. -1.
         21   -1    0    0  506  502 -0.00000000000E+00 -0.00000000000E+00 -0.33548016598E+03  0.33548016598E+03  0.00000000000E+00 0. -1.
         21    1    1    2  503  502  0.58530244249E+02  0.17036387351E+02 -0.19647473441E+03  0.20571424172E+03  0.00000000000E+00 0. -1.
         21    1    1    2  504  503  0.23569922984E+02 -0.74823166829E+02 -0.56188165443E+02  0.96494339210E+02  0.00000000000E+00 0.  1.
         21    1    1    2  505  504 -0.22159643813E+02 -0.22927548130E+02  0.30731177998E+03  0.30896157106E+03  0.00000000000E+00 0. -1.
         21    1    1    2  506  501 -0.59940523421E+02  0.80714327608E+02 -0.13057733276E+02  0.10138132682E+03  0.00000000000E+00 0.  1.
<scales pt_clust_3="59.11344" pt_clust_4="88.62297" pt_clust_5="31.88608" pt_clust_6="14000.00000"></scales>
<clustering>
<clus scale="   31.886">  1  5  2 -1</clus>
<clus scale="   59.113">  2  3  1 -1</clus>
<clus scale="   88.623">  2  4  1 -1</clus>
<clus scale="   31.886">  1  3  2 -1</clus>
</clustering>
</event>
<event>
 6    0  0.3446372E+002  0.1123402E+03  0.7546771E-02  0.1256297E+00
         21   -1    0    0  504  501  0.00000000000E+00  0.00000000000E+00  0.11253939068E+04  0.11253939068E+04  0.00000000000E+00 0.  1.
         21   -1    0    0  506  502 -0.00000000000E+00 -0.00000000000E+00 -0.37157980353E+02  0.37157980353E+02  0.00000000000E+00 0.  1.
         21    1    1    2  503  501  0.56421883313E+02 -0.15195525332E+02  0.17691384072E+03  0.18631382113E+03  0.00000000000E+00 0.  1.
         21    1    1    2  504  505  0.70339566114E+02  0.86144954560E+02  0.67314093117E+03  0.68226631235E+03  0.00000000000E+00 0.  1.
         21    1    1    2  505  502 -0.81870165593E+02 -0.82851900650E+02  0.20857656774E+03  0.23889609889E+03  0.00000000000E+00 0.  1.
         21    1    1    2  506  503 -0.44891283835E+02  0.11902471422E+02  0.29604586857E+02  0.55075654815E+02  0.00000000000E+00 0.  1.
<scales pt_clust_3="49.49474" pt_clust_4="112.34018" pt_clust_5="14000.00000" pt_clust_6="46.44240"></scales>
<clustering>
<clus scale="   46.442">  2  6  1 -1</clus>
<clus scale="   49.495">  2  3  1 -1</clus>
<clus scale="  112.340">  1  4  2 -1</clus>
<clus scale="  112.340">  1  3  2 -1</clus>
</clustering>
</event>
<event>
 6    0  0.3446372E+002  0.8935361E+02  0.7546771E-02  0.1304425E+00
         21   -1    0    0  503  501  0.00000000000E+00  0.00000000000E+00  0.79019484832E+03  0.79019484832E+03  0.00000000000E+00 0.  1.
         21   -1    0    0  504  502 -0.00000000000E+00 -0.00000000000E+00 -0.55595301932E+02  0.55595301932E+02  0.00000000000E+00 0. -1.
         21    1    1    2  503  506 -0.61206989296E+02  0.89944882846E+00  0.92601902138E+02  0.11100548106E+03  0.00000000000E+00 0. -1.
         21    1    1    2  504  505 -0.35656449083E+02 -0.42607992941E+01 -0.12133046824E+02  0.37904453525E+02  0.00000000000E+00 0. -1.
         21    1    1    2  505  501  0.89880618754E+02  0.59277937616E+02  0.62352839216E+03  0.63275592083E+03  0.00000000000E+00 0.  1.
         21    1    1    2  506  502  0.69828196248E+01 -0.55916587151E+02  0.30602298909E+02  0.64124294827E+02  0.00000000000E+00 0.  1.
<scales pt_clust_3="89.35361" pt_clust_4="35.91012" pt_clust_5="14000.00000" pt_clust_6="59.59147"></scales>
<clustering>
<clus scale="   35.910">  2  4  1 -1</clus>
<clus scale="   59.591">  2  6  1 -1</clus>
<clus scale="   89.354">  2  3  1 -1</clus>
<clus scale="   89.354">  1  3  2 -1</clus>
</clustering>
</event>
<event>
 6    0  0.3446372E+002  0.3221529E+03  0.7546771E-02  0.1074663E+00
         21   -1    0    0  502  501  0.00000000000E+00  0.00000000000E+00  0.12354245148E+04  0.12354245148E+04  0.00000000000E+00 0. -1.
         21   -1    0    0  506  502 -0.00000000000E+00 -0.00000000000E+00 -0.12625863238E+04  0.12625863238E+04  0.00000000000E+00 0.  1.
         21    1    1    2  503  501 -0.27464806779E+01  0.35761391428E+02  0.11360095060E+04  0.11365755664E+04  0.00000000000E+00 0. -1.
         21    1    1    2  504  503 -0.12175957430E+03 -0.30550257961E+03 -0.30822776603E+03  0.45073448485E+03  0.00000000000E+00 0.  1.
         21    1    1    2  505  504  0.38913771174E+02  0.19881408995E+03 -0.54760800916E+03  0.58388000107E+03  0.00000000000E+00 0.  1.
         21    1    1    2  506  505  0.85592283801E+02  0.70927098223E+02 -0.30733553984E+03  0.32682078630E+03  0.00000000000E+00 0.  1.
<scales pt_clust_3="35.86670" pt_clust_4="305.93642" pt_clust_5="74.29939" pt_clust_6="74.29939"></scales>
<clustering>
<clus scale="   35.867">  1  3  2 -1</clus>
<clus scale="   74.299">  5  6 -1 -1</clus>
<clus scale="  305.936">  1  4  2 -1</clus>
<clus scale="   35.867">  1  3  2 -1</clus>
</clustering>
</event>
<event>
 6    0  0.3446372E+002  0.1216358E+03  0.7546771E-02  0.1240423E+00
         21   -1    0    0  503  501  0.00000000000E+00  0.00000000000E+00  0.45998495792E+03  0.45998495792E+03  0.00000000000E+00 0.  1.
         21   -1    0    0  504  502 -0.00000000000E+00 -0.00000000000E+00 -0.13029272224E+03  0.13029272224E+03  0.00000000000E+00 0. -1.
         21    1    1    2  503  505 -0.76995502156E+02  0.48134613153E+02 -0.54456200453E+02  0.10588071639E+03  0.00000000000E+00 0. -1.
         21    1    1    2  504  506  0.39183750520E+02 -0.56782406793E+02  0.96925445829E+02  0.11897121532E+03  0.00000000000E+00 0.  1.
         21    1    1    2  505  502 -0.16492532253E+02  0.43967473781E+02 -0.20296334671E+02  0.51157439066E+02  0.00000000000E+00 0. -1.
         21    1    1    2  506  501  0.54304283889E+02 -0.35319680140E+02  0.30751932497E+03  0.31426830938E+03  0.00000000000E+00 0.  1.
<scales pt_clust_3="30.93296" pt_clust_4="113.77621" pt_clust_5="30.93296" pt_clust_6="64.77990"></scales>
<clustering>
<clus scale="   30.933">  3  5 -1 -1</clus>
<clus scale="   64.780">  1  6  2 -1</clus>
<clus scale="  113.776">  1  4  2 -1</clus>
<clus scale="   64.780">  1  3  2 -1</clus>
</clustering>
</event>
<event>
 6    0  0.3446372E+002  0.9281604E+02  0.7546771E-02  0.1296172E+00
         21   -1    0    0  506  501  0.00000000000E+00  0.00000000000E+00  0.17263797784E+04  0.17263797784E+04  0.00000000000E+00 0.  1.
         21   -1    0    0  504  502 -0.00000000000E+00 -0.00000000000E+00 -0.39614628183E+02  0.39614628183E+02  0.00000000000E+00 0. -1.
         21    1    1    2  503  501  0.68436023219E+02  0.44091746717E+02  0.56862319350E+03  0.57442136763E+03  0.00000000000E+00 0.  1.
         21    1    1    2  504  505 -0.33397163055E+02 -0.46191505744E+02  0.78901152657E+01  0.57543719222E+02  0.00000000000E+00 0. -1.
         21    1    1    2  505  503 -0.30513693003E+02 -0.68304020838E+02  0.12095650478E+03  0.14222166070E+03  0.00000000000E+00 0.  1.
         21    1    1    2  506  502 -0.45251671603E+01  0.70403779866E+02  0.98929533662E+03  0.99180765898E+03  0.00000000000E+00 0.  1.
<scales pt_clust_3="14000.00000" pt_clust_4="57.00023" pt_clust_5="92.81604" pt_clust_6="66.88642"></scales>
<clustering>
<clus scale="   57.000">  2  4  1 -1</clus>
<clus scale="   66.886">  1  6  2 -1</clus>
<clus scale="   92.816">  2  5  1 -1</clus>
<clus scale="   66.886">  1  3  2 -1</clus>
</clustering>
</event>
<event>
 6    0  0.3446372E+002  0.9379595E+02  0.7546771E-02  0.1293911E+00
         21   -1    0    0  504  501  0.00000000000E+00  0.00000000000E+00  0.89933224593E+02  0.89933224593E+02  0.00000000000E+00 0.  1.
         21   -1    0    0  503  502 -0.00000000000E+00 -0.00000000000E+00 -0.12559147196E+04  0.12559147196E+04  0.00000000000E+00 0.  1.
         21    1    1    2  503  505  0.57566658737E+02 -0.56493775521E+02 -0.75140149644E+03  0.75571798690E+03  0.00000000000E+00 0.  1.
         21    1    1    2  504  506 -0.34347236540E+02 -0.44440465326E+02  0.26129269508E+02  0.61946963940E+02  0.00000000000E+00 0.  1.
         21    1    1    2  505  501 -0.57618852260E+02  0.75961131245E+02 -0.10544445681E+02  0.95922942671E+02  0.00000000000E+00 0.  1.
         21    1    1    2  506  502  0.34399430063E+02  0.24973109602E+02 -0.43016482242E+03  0.43226005071E+03  0.00000000000E+00 0.  1.
<scales pt_clust_3="93.79595" pt_clust_4="55.28132" pt_clust_5="14000.00000" pt_clust_6="42.50855"></scales>
<clustering>
<clus scale="   42.509">  2  6  1 -1</clus>
<clus scale="   55.281">  1  4  2 -1</clus>
<clus scale="   93.796">  2  3  1 -1</clus>
<clus scale="   55.281">  1  3  2 -1</clus>
</clustering>
</event>
<event>
 6    0  0.3446372E+002  0.1096230E+03  0.7546771E-02  0.1261270E+00
         21   -1    0    0  504  501  0.00000000000E+00  0.00000000000E+00  0.11665294110E+03  0.11665294110E+03  0.00000000000E+00 0.  1.
         21   -1    0    0  505  502 -0.00000000000E+00 -0.00000000000E+00 -0.39993549641E+03  0.39993549641E+03  0.00000000000E+00 0. -1.
         21    1    1    2  503  502 -0.30209745376E+02 -0.95231896066E+01 -0.55806378698E+02  0.64169087256E+02  0.00000000000E+00 0.  1.
         21    1    1    2  504  503 -0.42912742811E+02  0.11485259977E+03 -0.80053819062E+02  0.14642826611E+03  0.00000000000E+00 0. -1.
         21    1    1    2  505  506  0.95572298328E+02 -0.67077350272E+02 -0.20342446086E+03  0.23455265166E+03  0.00000000000E+00 0. -1.
         21    1    1    2  506  501 -0.22449810141E+02 -0.38252059888E+02  0.56002103305E+02  0.71438432483E+02  0.00000000000E+00 0.  1.
<scales pt_clust_3="31.67522" pt_clust_4="14000.00000" pt_clust_5="109.62303" pt_clust_6="44.88951"></scales>
<clustering>
<clus scale="   31.675">  2  3  1 -1</clus>
<clus scale="   44.890">  1  6  2 -1</clus>
<clus scale="  109.623">  2  5  1 -1</clus>
<clus scale="   44.890">  1  3  2 -1</clus>
</clustering>
</event>
<event>
 6    0  0.3446372E+002  0.1200706E+03  0.7546771E-02  0.1242981E+00
         21   -1    0    0  504  501  0.00000000000E+00  0.00000000000E+00  0.22069392145E+03  0.22069392145E+03  0.00000000000E+00 0.  1.
         21   -1    0    0  503  502 -0.00000000000E+00 -0.00000000000E+00 -0.53856643596E+03  0.53856643596E+03  0.00000000000E+00 0. -1.
         21    1    1    2  503  505  0.16882821570E+02  0.33419728090E+02 -0.23123037564E+02  0.44006621728E+02  0.00000000000E+00 0. -1.
         21    1    1    2  504  502 -0.26654153881E+02  0.38429811195E+02  0.16857632157E+03  0.17494362092E+03  0.00000000000E+00 0.  1.
         21    1    1    2  505  506  0.48998676831E+02  0.73191435441E+02 -0.32274089351E+03  0.33454378024E+03  0.00000000000E+00 0. -1.
         21    1    1    2  506  501 -0.39227344519E+02 -0.14504097473E+03 -0.14058490500E+03  0.20576633452E+03  0.00000000000E+00 0.  1.
<scales pt_clust_3="37.44206" pt_clust_4="46.88144" pt_clust_5="120.07060" pt_clust_6="14000.00000"></scales>
<clustering>
<clus scale="   37.442">  2  3  1 -1</clus>
<clus scale="   46.881">  1  4  2 -1</clus>
<clus scale="  120.071">  2  5  1 -1</clus>
<clus scale="   46.881">  1  3  2 -1</clus>
</clustering>
</event>
<event>
 6    0  0.3446372E+002  0.8687212E+02  0.7546771E-02  0.1310608E+00
         21   -1    0    0  504  501  0.00000000000E+00  0.00000000000E+00  0.28920137822E+03  0.28920137822E+03  0.00000000000E+00 0. -1.
         21   -1    0    0  505  502 -0.00000000000E+00 -0.00000000000E+00 -0.29827712777E+03  0.29827712777E+03  0.00000000000E+00 0.  1.
         21    1    1    2  503  506  0.96150778334E+01 -0.48328060987E+02 -0.33171141364E+02  0.59400133164E+02  0.00000000000E+00 0.  1.
         21    1    1    2  504  502  0.54097155060E+02 -0.63103957993E+02  0.21093088925E+03  0.22671667724E+03  0.00000000000E+00 0. -1.
         21    1    1    2  505  503 -0.24798375102E+02 -0.22348868101E+02 -0.15485556749E+03  0.15841299851E+03  0.00000000000E+00 0. -1.
         21    1    1    2  506  501 -0.38913857792E+02  0.13378088708E+03 -0.31979929945E+02  0.14294869708E+03  0.00000000000E+00 0.  1.
<scales pt_clust_3="55.65169" pt_clust_4="86.87212" pt_clust_5="33.38310" pt_clust_6="14000.00000"></scales>
<clustering>
<clus scale="   33.383">  2  5  1 -1</clus>
<clus scale="   55.652">  2  3  1 -1</clus>
<clus scale="   86.872">  1  4  2 -1</clus>
<clus scale="   86.872">  1  3  2 -1</clus>
</clustering>
</event>
<event>
 6    0  0.3446372E+002  0.8672546E+02  0.7546771E-02  0.1310981E+00
         21   -1    0    0  505  501  0.00000000000E+00  0.00000000000E+00  0.48914984527E+03  0.48914984527E+03  0.00000000000E+00 0.  1.
         21   -1    0    0  503  502 -0.00000000000E+00 -0.00000000000E+00 -0.12848630283E+03  0.12848630283E+03  0.00000000000E+00 0.  1.
         21    1    1    2  503  504  0.13954090770E+03 -0.71417959966E+02  0.16489148082E+03  0.22751129725E+03  0.00000000000E+00 0.  1.
         21    1    1    2  504  501 -0.73829003535E+02  0.15739072522E+02  0.26204048649E+03  0.27269700535E+03  0.00000000000E+00 0.  1.
         21    1    1    2  505  506 -0.29891314444E+02  0.40369985450E+02 -0.59535507753E+02  0.77895462563E+02  0.00000000000E+00 0.  1.
         21    1    1    2  506  502 -0.35820589721E+02  0.15308901993E+02 -0.67329171220E+01  0.39532382943E+02  0.00000000000E+00 0.  1.
<scales pt_clust_3="14000.00000" pt_clust_4="86.72546" pt_clust_5="73.29189" pt_clust_6="38.95481"></scales>
<clustering>
<clus scale="   38.955">  2  6  1 -1</clus>
<clus scale="   73.292">  2  5  1 -1</clus>
<clus scale="   86.725">  1  4  2 -1</clus>
<clus scale="   86.725">  1  3  2 -1</clus>
</clustering>
</event>
<event>
 6    0  0.3446372E+002  0.1563946E+03  0.7546771E-02  0.1192828E+00
         21   -1    0    0  504  501  0.00000000000E+00  0.00000000000E+00  0.17580383452E+04  0.17580383452E+04  0.00000000000E+00 0. -1.
         21   -1    0    0  505  502 -0.00000000000E+00 -0.00000000000E+00 -0.82719707585E+03  0.82719707585E+03  0.00000000000E+00 0.  1.
         21    1    1    2  503  501  0.78021680794E+02  0.47631030791E+02  0.12065028591E+04  0.12099608452E+04  0.00000000000E+00 0. -1.
         21    1    1    2  504  502 -0.42800762165E+02 -0.47647626828E+02 -0.71223905391E+03  0.71511304805E+03  0.00000000000E+00 0.  1.
         21    1    1    2  505  506 -0.52170391007E+02 -0.60758614840E+02 -0.95342134022E+02  0.12451297721E+03  0.00000000000E+00 0.  1.
         21    1    1    2  506  503  0.16949472377E+02  0.60775210876E+02  0.53191959817E+03  0.53564855063E+03  0.00000000000E+00 0. -1.
<scales pt_clust_3="54.27646" pt_clust_4="64.04843" pt_clust_5="142.09571" pt_clust_6="54.27646"></scales>
<clustering>
<clus scale="   54.276">  3  6 -1 -1</clus>
<clus scale="   64.048">  2  4  1 -1</clus>
<clus scale="  142.096">  2  5  1 -1</clus>
<clus scale="  156.395">  1  3  2 -1</clus>
</clustering>
</event>
<event>
 6    0  0.3446372E+002  0.1054096E+03  0.7546771E-02  0.1269315E+00
         21   -1    0    0  505  501  0.00000000000E+00  0.00000000000E+00  0.64183343599E+03  0.64183343599E+03  0.00000000000E+00 0. -1.
         21   -1    0    0  504  502 -0.00000000000E+00 -0.00000000000E+00 -0.50324470096E+02  0.50324470096E+02  0.00000000000E+00 0.  1.
         21    1    1    2  503  502 -0.40543554472E+02 -0.40724377256E+02  0.69833146414E+01  0.57888007354E+02  0.00000000000E+00 0.  1.
         21    1    1    2  504  501  0.30176339524E+01  0.65660584893E+02  0.33604908608E+03  0.34241700714E+03  0.00000000000E+00 0. -1.
         21    1    1    2  505  506  0.77626012916E+02  0.14586106431E+02  0.20805320106E+03  0.22254142728E+03  0.00000000000E+00 0. -1.
         21    1    1    2  506  503 -0.40100092397E+02 -0.39522314068E+02  0.40423364106E+02  0.69311464312E+02  0.00000000000E+00 0.  1.
<scales pt_clust_3="31.13476" pt_clust_4="65.72989" pt_clust_5="100.60712" pt_clust_6="31.13476"></scales>
<clustering>
<clus scale="   31.135">  3  6 -1 -1</clus>
<clus scale="   65.730">  1  4  2 -1</clus>
<clus scale="  100.607">  1  5  2 -1</clus>
<clus scale="   65.730">  1  3  2 -1</clus>
</clustering>
</event>
<event>
 6    0  0.3446372E+002  0.1727888E+03  0.7546771E-02  0.1174970E+00
         21   -1    0    0  504  501  0.00000000000E+00  0.00000000000E+00  0.24505889771E+03  0.24505889771E+03  0.00000000000E+00 0.  1.
         21   -1    0    0  505  502 -0.00000000000E+00 -0.00000000000E+00 -0.16897476603E+04  0.16897476603E+04  0.00000000000E+00 0. -1.
         21    1    1    2  503  506  0.32213805023E+02  0.21890717445E+03  0.15336260057E+03  0.26921769540E+03  0.00000000000E+00 0.  1.
         21    1    1    2  504  503 -0.16665908837E+02 -0.47870344414E+02  0.38584981928E+01  0.50835129585E+02  0.00000000000E+00 0.  1.
         21    1    1    2  505  501 -0.50036554354E+02 -0.15843206501E+03 -0.13487177950E+04  0.13589128252E+04  0.00000000000E+00 0. -1.
         21    1    1    2  506  502  0.34488658167E+02 -0.12604765026E+02 -0.25319206633E+03  0.25584090779E+03  0.00000000000E+00 0.  1.
<scales pt_clust_3="172.78876" pt_clust_4="50.70128" pt_clust_5="14000.00000" pt_clust_6="36.71985"></scales>
<clustering>
<clus scale="   36.720">  2  6  1 -1</clus>
<clus scale="   50.701">  1  4  2 -1</clus>
<clus scale="  172.789">  1  3  2 -1</clus>
<clus scale="   50.701">  1  3  2 -1</clus>
</clustering>
</event>
<event>
 6    0  0.3446372E+002  0.2498074E+03  0.7546771E-02  0.1113427E+00
         21   -1    0    0  506  501  0.00000000000E+00  0.00000000000E+00  0.86320922120E+03  0.86320922120E+03  0.00000000000E+00 0. -1.
         21   -1    0    0  504  502 -0.00000000000E+00 -0.00000000000E+00 -0.79243255274E+03  0.79243255274E+03  0.00000000000E+00 0.  1.
         21    1    1    2  503  501 -0.36449338975E+02 -0.43956389406E+02  0.38021251264E+03  0.38447662250E+03  0.00000000000E+00 0. -1.
         21    1    1    2  504  503 -0.18566325809E+03 -0.99480762211E+02  0.41668941282E+03  0.46690184644E+03  0.00000000000E+00 0. -1.
         21    1    1    2  505  502  0.42025590233E+02  0.70508636519E+02 -0.49752204833E+03  0.50424776314E+03  0.00000000000E+00 0.  1.
         21    1    1    2  506  505  0.18008700683E+03  0.72928515098E+02 -0.22860320867E+03  0.30001554186E+03  0.00000000000E+00 0.  1.
<scales pt_clust_3="57.10270" pt_clust_4="249.80737" pt_clust_5="81.68845" pt_clust_6="14000.00000"></scales>
<clustering>
<clus scale="   57.103">  1  3  2 -1</clus>
<clus scale="   81.688">  2  5  1 -1</clus>
<clus scale="  249.807">  1  4  2 -1</clus>
<clus scale="   57.103">  1  3  2 -1</clus>
</clustering>
</event>
<event>
 6    0  0.3446372E+002  0.1186439E+03  0.7546771E-02  0.1245351E+00
         21   -1    0    0  504  501  0.00000000000E+00  0.00000000000E+00  0.32215479064E+03  0.32215479064E+03  0.00000000000E+00 0.  1.
         21   -1    0    0  503  502 -0.00000000000E+00 -0.00000000000E+00 -0.20700774759E+03  0.20700774759E+03  0.00000000000E+00 0.  1.
         21    1    1    2  503  505  0.27804071772E+02 -0.43413284358E+02 -0.94168699038E+02  0.10735699113E+03  0.00000000000E+00 0.  1.
         21    1    1    2  504  502 -0.63215002403E+02  0.76217756803E+02  0.26291899409E+03  0.28094782511E+03  0.00000000000E+00 0.  1.
         21    1    1    2  505  506  0.64255135013E+02 -0.14292122007E+02 -0.75515688077E+02  0.10017787317E+03  0.00000000000E+00 0.  1.
         21    1    1    2  506  501 -0.28844204382E+02 -0.18512350438E+02  0.21912436072E+02  0.40679848817E+02  0.00000000000E+00 0.  1.
<scales pt_clust_3="44.35654" pt_clust_4="107.71837" pt_clust_5="44.35654" pt_clust_6="34.27383"></scales>
<clustering>
<clus scale="   34.274">  1  6  2 -1</clus>
<clus scale="   44.357">  3  5 -1 -1</clus>
<clus scale="  107.718">  1  4  2 -1</clus>
<clus scale="   34.274">  1  3  2 -1</clus>
</clustering>
</event>
<event>
 6    0  0.3446372E+002  0.1320657E+03  0.7546771E-02  0.1224422E+00
         21   -1    0    0  506  501  0.00000000000E+00  0.00000000000E+00  0.51458242729E+02  0.51458242729E+02  0.00000000000E+00 0. -1.
         21   -1    0    0  501  502 -0.00000000000E+00 -0.00000000000E+00 -0.18918981051E+04  0.18918981051E+04  0.00000000000E+00 0. -1.
         21    1    1    2  503  504 -0.62404097580E+02 -0.16109484723E+03 -0.55037434438E+03  0.57685157550E+03  0.00000000000E+00 0. -1.
         21    1    1    2  504  502  0.11975801648E+03  0.53370584250E+02 -0.11134257751E+04  0.11211187977E+04  0.00000000000E+00 0. -1.
         21    1    1    2  505  503 -0.43441347718E+02  0.56950046111E+02 -0.17888506969E+03  0.19269231069E+03  0.00000000000E+00 0.  1.
         21    1    1    2  506  505 -0.13912571184E+02  0.50774216871E+02  0.22453267678E+01  0.52693664023E+02  0.00000000000E+00 0. -1.
<scales pt_clust_3="132.06570" pt_clust_4="14000.00000" pt_clust_5="85.86144" pt_clust_6="52.64580"></scales>
<clustering>
<clus scale="   52.646">  1  6  2 -1</clus>
<clus scale="   85.861">  1  5  2 -1</clus>
<clus scale="  132.066">  1  3  2 -1</clus>
<clus scale="   52.646">  1  3  2 -1</clus>
</clustering>
</event>
<event>
 6    0  0.3446372E+002  0.9357856E+02  0.7546771E-02  0.1294410E+00
         21   -1    0    0  503  501  0.00000000000E+00  0.00000000000E+00  0.32120373867E+02  0.32120373867E+02  0.00000000000E+00 0. -1.
         21   -1    0    0  506  502 -0.00000000000E+00 -0.00000000000E+00 -0.14661000025E+04  0.14661000025E+04  0.00000000000E+00 0. -1.
         21    1    1    2  503  502 -0.15274011926E+03  0.36537866559E+02 -0.38413279499E+03  0.41499706494E+03  0.00000000000E+00 0. -1.
         21    1    1    2  504  505  0.48541261088E+02 -0.51688699683E+01 -0.78229351033E+03  0.78381509780E+03  0.00000000000E+00 0. -1.
         21    1    1    2  505  501  0.72727202719E+02 -0.26416688853E+02 -0.88556252083E+02  0.11759803250E+03  0.00000000000E+00 0. -1.
         21    1    1    2  506  504  0.31471655452E+02 -0.49523077377E+01 -0.17899707125E+03  0.18181018114E+03  0.00000000000E+00 0.  1.
<scales pt_clust_3="93.57856" pt_clust_4="68.20203" pt_clust_5="14000.00000" pt_clust_6="31.85891"></scales>
<clustering>
<clus scale="   31.859">  2  6  1 -1</clus>
<clus scale="   68.202">  2  4  1 -1</clus>
<clus scale="   93.579">  2  3  1 -1</clus>
<clus scale="   93.579">  1  3  2 -1</clus>
</clustering>
</event>
