<event>
 5    0  0.5778875E-005  0.2665817E+03  0.7546771E-02  0.1103252E+00
         21   -1    0    0  502  501  0.00000000000E+00  0.00000000000E+00  0.43772555721E+03  0.43772555721E+03  0.00000000000E+00 0. -1.
         21   -1    0    0  501  502 -0.00000000000E+00 -0.00000000000E+00 -0.16235237850E+03  0.16235237850E+03  0.00000000000E+00 0. -1.
         25    1    1    2    0    0 -0.30822137978E+02  0.50287612778E+02  0.23565898476E+02  0.14021126830E+03  0.12500000000E+03 0.  0.
         25    1    1    2    0    0 -0.63621421997E+02  0.82033282476E+02  0.18023568048E+03  0.24266653104E+03  0.12500000000E+03 0.  0.
         25    1    1    2    0    0  0.94443559974E+02 -0.13232089525E+03  0.71571599757E+02  0.21720013636E+03  0.12500000000E+03 0.  0.
</event>
<event>
 5    0  0.5778875E-005  0.2597788E+03  0.7546771E-02  0.1107276E+00
         21   -1    0    0  502  501  0.00000000000E+00  0.00000000000E+00  0.30051955610E+03  0.30051955610E+03  0.00000000000E+00 0. -1.
         21   -1    0    0  501  502 -0.00000000000E+00 -0.00000000000E+00 -0.22456120246E+03  0.22456120246E+03  0.00000000000E+00 0. -1.
         25    1    1    2    0    0 -0.58105626435E+02 -0.23987314688E+02  0.31554772093E+02  0.14343067570E+03  0.12500000000E+03 0.  0.
         25    1    1    2    0    0  0.49708725777E+02  0.54936788921E+02 -0.10866303033E+03  0.18144327587E+03  0.12500000000E+03 0.  0.
         25    1    1    2    0    0  0.83969006576E+01 -0.30949474234E+02  0.15306661189E+03  0.20020680700E+03  0.12500000000E+03 0.  0.
</event>
<event>
 5    0  0.5778875E-005  0.2664482E+03  0.7546771E-02  0.1103330E+00
         21   -1    0    0  502  501  0.00000000000E+00  0.00000000000E+00  0.12303482115E+03  0.12303482115E+03  0.00000000000E+00 0. -1.
         21   -1    0    0  501  502 -0.00000000000E+00 -0.00000000000E+00 -0.57702884761E+03  0.57702884761E+03  0.00000000000E+00 0. -1.
         25    1    1    2    0    0 -0.94550118327E+02 -0.87398785709E+02 -0.15438418722E+03  0.23672293907E+03  0.12500000000E+03 0.  0.
         25    1    1    2    0    0  0.15292477950E+03  0.81776205733E+02 -0.20320817997E+03  0.29494389367E+03  0.12500000000E+03 0.  0.
         25    1    1    2    0    0 -0.58374661168E+02  0.56225799751E+01 -0.96401659264E+02  0.16839683602E+03  0.12500000000E+03 0.  0.
</event>
<event>
 5    0  0.5778875E-005  0.2734955E+03  0.7546771E-02  0.1099296E+00
         21   -1    0    0  502  501  0.00000000000E+00  0.00000000000E+00  0.34298282500E+03  0.34298282500E+03  0.00000000000E+00 0. -1.
         21   -1    0    0  501  502 -0.00000000000E+00 -0.00000000000E+00 -0.21808607262E+03  0.21808607262E+03  0.00000000000E+00 0. -1.
         25    1    1    2    0    0  0.10563384301E+03 -0.57415078483E+01 -0.10072847130E+03  0.19225685588E+03  0.12500000000E+03 0.  0.
         25    1    1    2    0    0 -0.55982007972E+02  0.53377554618E+02  0.13635067614E+03  0.20049851729E+03  0.12500000000E+03 0.  0.
         25    1    1    2    0    0 -0.49651835037E+02 -0.47636046769E+02  0.89274547547E+02  0.16831352445E+03  0.12500000000E+03 0.  0.
</event>
<event>
 5    0  0.5778875E-005  0.4426848E+03  0.7546771E-02  0.1029926E+00
         21   -1    0    0  502  501  0.00000000000E+00  0.00000000000E+00  0.12259385970E+03  0.12259385970E+03  0.00000000000E+00 0. -1.
         21   -1    0    0  501  502 -0.00000000000E+00 -0.00000000000E+00 -0.15985286604E+04  0.15985286604E+04  0.00000000000E+00 0. -1.
         25    1    1    2    0    0  0.18553204992E+03  0.24788637266E+03 -0.67990143998E+03  0.75746997524E+03  0.12500000000E+03 0.  0.
         25    1    1    2    0    0 -0.17548246036E+03 -0.16387387211E+03 -0.76236977077E+03  0.80900025169E+03  0.12500000000E+03 0.  0.
         25    1    1    2    0    0 -0.10049589568E+02 -0.84012500549E+02 -0.33663589976E+02  0.15465229319E+03  0.12500000000E+03 0.  0.
</event>
<event>
 5    0  0.5778875E-005  0.2768164E+03  0.7546771E-02  0.1097441E+00
         21   -1    0    0  502  501  0.00000000000E+00  0.00000000000E+00  0.23089135835E+03  0.23089135835E+03  0.00000000000E+00 0. -1.
         21   -1    0    0  501  502 -0.00000000000E+00 -0.00000000000E+00 -0.33187605386E+03  0.33187605386E+03  0.00000000000E+00 0. -1.
         25    1    1    2    0    0  0.16714661892E+03  0.24982228045E+02 -0.50090200135E+02  0.21609287837E+03  0.12500000000E+03 0.  0.
         25    1    1    2    0    0 -0.14261741490E+03 -0.41787389937E+02  0.27543809278E+02  0.19613662182E+03  0.12500000000E+03 0.  0.
         25    1    1    2    0    0 -0.24529204015E+02  0.16805161892E+02 -0.78438304654E+02  0.15053791201E+03  0.12500000000E+03 0.  0.
</event>
<event>
 5    0  0.9854861E-005  0.6651840E+03  0.7546771E-02  0.9778697E-01
         21   -1    0    0  502  501  0.00000000000E+00  0.00000000000E+00  0.13163138490E+04  0.13163138490E+04  0.00000000000E+00 0.  1.
         21   -1    0    0  501  502 -0.00000000000E+00 -0.00000000000E+00 -0.33614308232E+03  0.33614308232E+03  0.00000000000E+00 0.  1.
         25    1    1    2    0    0 -0.27372092301E+03 -0.31714373315E+03  0.15635631757E+03  0.46430118374E+03  0.12500000000E+03 0.  0.
         25    1    1    2    0    0  0.14940393700E+03  0.16080774877E+03 -0.71364358861E+02  0.26248531420E+03  0.12500000000E+03 0.  0.
         25    1    1    2    0    0  0.12431698601E+03  0.15633598438E+03  0.89517880800E+03  0.92567043343E+03  0.12500000000E+03 0.  0.
</event>
<event>
 5    0  0.5778875E-005  0.2273798E+03  0.7546771E-02  0.1128498E+00
         21   -1    0    0  502  501  0.00000000000E+00  0.00000000000E+00  0.14574899694E+03  0.14574899694E+03  0.00000000000E+00 0. -1.
         21   -1    0    0  501  502 -0.00000000000E+00 -0.00000000000E+00 -0.35473035478E+03  0.35473035478E+03  0.00000000000E+00 0. -1.
         25    1    1    2    0    0  0.52342846692E+02 -0.42270439640E+02 -0.61541366405E+01  0.14208953890E+03  0.12500000000E+03 0.  0.
         25    1    1    2    0    0 -0.66383126880E+02  0.24625218475E+02 -0.17838804282E+03  0.22904238634E+03  0.12500000000E+03 0.  0.
         25    1    1    2    0    0  0.14040280188E+02  0.17645221165E+02 -0.24439178383E+02  0.12934742648E+03  0.12500000000E+03 0.  0.
</event>
<event>
 5    0  0.5778875E-005  0.2664644E+03  0.7546771E-02  0.1103320E+00
         21   -1    0    0  502  501  0.00000000000E+00  0.00000000000E+00  0.15170620719E+03  0.15170620719E+03  0.00000000000E+00 0.  1.
         21   -1    0    0  501  502 -0.00000000000E+00 -0.00000000000E+00 -0.46803139164E+03  0.46803139164E+03  0.00000000000E+00 0.  1.
         25    1    1    2    0    0  0.12073496750E+03  0.69240032827E+02 -0.22283662561E+03  0.29095064226E+03  0.12500000000E+03 0.  0.
         25    1    1    2    0    0  0.62632223078E+01 -0.80597244783E+01 -0.22312586785E+02  0.12738539414E+03  0.12500000000E+03 0.  0.
         25    1    1    2    0    0 -0.12699818981E+03 -0.61180308348E+02 -0.71175972062E+02  0.20140156241E+03  0.12500000000E+03 0.  0.
</event>
<event>
 5    0  0.5778875E-005  0.3114602E+03  0.7546771E-02  0.1079648E+00
         21   -1    0    0  502  501  0.00000000000E+00  0.00000000000E+00  0.15027335036E+04  0.15027335036E+04  0.00000000000E+00 0.  1.
         21   -1    0    0  501  502 -0.00000000000E+00 -0.00000000000E+00 -0.64553978339E+02  0.64553978339E+02  0.00000000000E+00 0.  1.
         25    1    1    2    0    0  0.25417094540E+02  0.70032436685E+02  0.31723305821E+03  0.34901630923E+03  0.12500000000E+03 0.  0.
         25    1    1    2    0    0  0.10037532604E+03 -0.59787557458E+02  0.97056343305E+03  0.98552936824E+03  0.12500000000E+03 0.  0.
         25    1    1    2    0    0 -0.12579242058E+03 -0.10244879228E+02  0.15038303397E+03  0.23274180443E+03  0.12500000000E+03 0.  0.
</event>
<event>
 5    0  0.7008192E-005  0.4737427E+03  0.7546771E-02  0.1020869E+00
         21   -1    0    0  502  501  0.00000000000E+00  0.00000000000E+00  0.45741298697E+03  0.45741298697E+03  0.00000000000E+00 0. -1.
         21   -1    0    0  501  502 -0.00000000000E+00 -0.00000000000E+00 -0.49065535135E+03  0.49065535135E+03  0.00000000000E+00 0. -1.
         25    1    1    2    0    0  0.24819056529E+03  0.82054762558E+02 -0.35553247049E+02  0.29192563117E+03  0.12500000000E+03 0.  0.
         25    1    1    2    0    0  0.28450736319E+00  0.43955689477E+02  0.23665614327E+03  0.27122557721E+03  0.12500000000E+03 0.  0.
         25    1    1    2    0    0 -0.24847507265E+03 -0.12601045204E+03 -0.23434526061E+03  0.38491712994E+03  0.12500000000E+03 0.  0.
</event>
<event>
 5    0  0.5778875E-005  0.3170988E+03  0.7546771E-02  0.1076992E+00
         21   -1    0    0  502  501  0.00000000000E+00  0.00000000000E+00  0.22168687159E+03  0.22168687159E+03  0.00000000000E+00 0.  1.
         21   -1    0    0  501  502 -0.00000000000E+00 -0.00000000000E+00 -0.45357523554E+03  0.45357523554E+03  0.00000000000E+00 0.  1.
         25    1    1    2    0    0  0.72909707498E+02  0.15262896670E+03 -0.17348759971E+01  0.21033173017E+03  0.12500000000E+03 0.  0.
         25    1    1    2    0    0 -0.12618542251E+03  0.14623830056E+02 -0.52897315481E+02  0.18590251006E+03  0.12500000000E+03 0.  0.
         25    1    1    2    0    0  0.53275715014E+02 -0.16725279675E+03 -0.17725617247E+03  0.27902786690E+03  0.12500000000E+03 0.  0.
</event>
<event>
 5    0  0.5778875E-005  0.2938254E+03  0.7546771E-02  0.1088369E+00
         21   -1    0    0  502  501  0.00000000000E+00  0.00000000000E+00  0.16186581922E+03  0.16186581922E+03  0.00000000000E+00 0. -1.
         21   -1    0    0  501  502 -0.00000000000E+00 -0.00000000000E+00 -0.53336361123E+03  0.53336361123E+03  0.00000000000E+00 0. -1.
         25    1    1    2    0    0 -0.38195115697E+02  0.31068716885E+02 -0.13923843453E+03  0.19348507354E+03  0.12500000000E+03 0.  0.
         25    1    1    2    0    0 -0.12510863889E+03 -0.67454903063E+02  0.15444514539E+00  0.18928116474E+03  0.12500000000E+03 0.  0.
         25    1    1    2    0    0  0.16330375459E+03  0.36386186178E+02 -0.23241380262E+03  0.31246319216E+03  0.12500000000E+03 0.  0.
</event>
<event>
 5    0  0.5778875E-005  0.2898473E+03  0.7546771E-02  0.1090429E+00
         21   -1    0    0  502  501  0.00000000000E+00  0.00000000000E+00  0.87828708082E+02  0.87828708082E+02  0.00000000000E+00 0.  1.
         21   -1    0    0  501  502 -0.00000000000E+00 -0.00000000000E+00 -0.95653743669E+03  0.95653743669E+03  0.00000000000E+00 0.  1.
         25    1    1    2    0    0  0.31337557858E+02 -0.14224610815E+03 -0.35808395255E+03  0.40628206321E+03  0.12500000000E+03 0.  0.
         25    1    1    2    0    0 -0.31545105278E+02  0.18799426088E+03 -0.41735873883E+03  0.47555257614E+03  0.12500000000E+03 0.  0.
         25    1    1    2    0    0  0.20754741986E+00 -0.45748152736E+02 -0.93266037228E+02  0.16253150542E+03  0.12500000000E+03 0.  0.
</event>
<event>
 5    0  0.5778875E-005  0.2578437E+03  0.7546771E-02  0.1108446E+00
         21   -1    0    0  502  501  0.00000000000E+00  0.00000000000E+00  0.12321027285E+04  0.12321027285E+04  0.00000000000E+00 0.  1.
         21   -1    0    0  501  502 -0.00000000000E+00 -0.00000000000E+00 -0.53959276912E+02  0.53959276912E+02  0.00000000000E+00 0.  1.
         25    1    1    2    0    0  0.12897356167E+03  0.17320621726E+02  0.63242954103E+03  0.65766732314E+03  0.12500000000E+03 0.  0.
         25    1    1    2    0    0 -0.10474445826E+03  0.44950117371E+02  0.31729428888E+03  0.35957277475E+03  0.12500000000E+03 0.  0.
         25    1    1    2    0    0 -0.24229103412E+02 -0.62270739097E+02  0.22841962169E+03  0.26882190754E+03  0.12500000000E+03 0.  0.
</event>
<event>
 5    0  0.6996860E-005  0.6824303E+03  0.7546771E-02  0.9747760E-01
         21   -1    0    0  502  501  0.00000000000E+00  0.00000000000E+00  0.19913358304E+04  0.19913358304E+04  0.00000000000E+00 0. -1.
         21   -1    0    0  501  502 -0.00000000000E+00 -0.00000000000E+00 -0.23386868058E+03  0.23386868058E+03  0.00000000000E+00 0. -1.
         25    1    1    2    0    0  0.14274821363E+03 -0.81714469022E+02  0.11856168824E+04  0.12034810753E+04  0.12500000000E+03 0.  0.
         25    1    1    2    0    0 -0.38539057976E+03 -0.18321198117E+03  0.42158767482E+03  0.61274276541E+03  0.12500000000E+03 0.  0.
         25    1    1    2    0    0  0.24264236613E+03  0.26492645019E+03  0.15026259261E+03  0.40898067019E+03  0.12500000000E+03 0.  0.
</event>
<event>
 5    0  0.5778875E-005  0.9254530E+03  0.7546771E-02  0.9394312E-01
         21   -1    0    0  502  501  0.00000000000E+00  0.00000000000E+00  0.97783712470E+03  0.97783712470E+03  0.00000000000E+00 0. -1.
         21   -1    0    0  501  502 -0.00000000000E+00 -0.00000000000E+00 -0.87587512870E+03  0.87587512870E+03  0.00000000000E+00 0. -1.
         25    1    1    2    0    0 -0.13481682475E+02  0.12802703394E+02 -0.51308406464E+03  0.52841832138E+03  0.12500000000E+03 0.  0.
         25    1    1    2    0    0  0.27443859971E+03  0.36043838778E+03  0.70230391753E+03  0.84503737727E+03  0.12500000000E+03 0.  0.
         25    1    1    2    0    0 -0.26095691724E+03 -0.37324109117E+03 -0.87257856887E+02  0.48025655475E+03  0.12500000000E+03 0.  0.
</event>
<event>
 5    0  0.5778875E-005  0.2748279E+03  0.7546771E-02  0.1098548E+00
         21   -1    0    0  502  501  0.00000000000E+00  0.00000000000E+00  0.76102770981E+02  0.76102770981E+02  0.00000000000E+00 0. -1.
         21   -1    0    0  501  502 -0.00000000000E+00 -0.00000000000E+00 -0.99247877598E+03  0.99247877598E+03  0.00000000000E+00 0. -1.
         25    1    1    2    0    0  0.86132509363E+02  0.36463427530E+02 -0.12513852899E+03  0.20008258833E+03  0.12500000000E+03 0.  0.
         25    1    1    2    0    0  0.27180166939E+02  0.29481981589E+02 -0.13739380160E+03  0.19002632826E+03  0.12500000000E+03 0.  0.
         25    1    1    2    0    0 -0.11331267630E+03 -0.65945409119E+02 -0.65384367441E+03  0.67847263037E+03  0.12500000000E+03 0.  0.
</event>
<event>
 5    0  0.5778875E-005  0.4023123E+03  0.7546771E-02  0.1042982E+00
         21   -1    0    0  502  501  0.00000000000E+00  0.00000000000E+00  0.28926251843E+03  0.28926251843E+03  0.00000000000E+00 0.  1.
         21   -1    0    0  501  502 -0.00000000000E+00 -0.00000000000E+00 -0.55954431479E+03  0.55954431479E+03  0.00000000000E+00 0.  1.
         25    1    1    2    0    0 -0.27336635030E+02  0.72538194324E+01 -0.94475705636E+01  0.12850745543E+03  0.12500000000E+03 0.  0.
         25    1    1    2    0    0 -0.17270893501E+03 -0.20611006520E+03 -0.28440250610E+03  0.41087652730E+03  0.12500000000E+03 0.  0.
         25    1    1    2    0    0  0.20004557004E+03  0.19885624577E+03  0.23568280301E+02  0.30942285050E+03  0.12500000000E+03 0.  0.
</event>
<event>
 5    0  0.5778875E-005  0.4794400E+03  0.7546771E-02  0.1019289E+00
         21   -1    0    0  502  501  0.00000000000E+00  0.00000000000E+00  0.93643456750E+02  0.93643456750E+02  0.00000000000E+00 0.  1.
         21   -1    0    0  501  502 -0.00000000000E+00 -0.00000000000E+00 -0.24546587348E+04  0.24546587348E+04  0.00000000000E+00 0. -1.
         25    1    1    2    0    0  0.63883644137E+02  0.18596485650E+03 -0.19871209023E+04  0.20007344972E+04  0.12500000000E+03 0.  0.
         25    1    1    2    0    0  0.80487299389E+02 -0.13359488600E+03 -0.15947759459E+03  0.25570276124E+03  0.12500000000E+03 0.  0.
         25    1    1    2    0    0 -0.14437094353E+03 -0.52369970500E+02 -0.21441678112E+03  0.29186493310E+03  0.12500000000E+03 0.  0.
</event>
<event>
 5    0  0.7769397E-005  0.3061174E+03  0.7546771E-02  0.1082222E+00
         21   -1    0    0  502  501  0.00000000000E+00  0.00000000000E+00  0.52750641522E+03  0.52750641522E+03  0.00000000000E+00 0. -1.
         21   -1    0    0  501  502 -0.00000000000E+00 -0.00000000000E+00 -0.17764311498E+03  0.17764311498E+03  0.00000000000E+00 0. -1.
         25    1    1    2    0    0  0.17483524268E+01  0.59552849310E+02  0.17766099830E+03  0.22525103532E+03  0.12500000000E+03 0.  0.
         25    1    1    2    0    0  0.12496078071E+03 -0.14682418478E+03  0.21296636349E+02  0.23076196539E+03  0.12500000000E+03 0.  0.
         25    1    1    2    0    0 -0.12670913314E+03  0.87271335467E+02  0.15090566560E+03  0.24913652949E+03  0.12500000000E+03 0.  0.
</event>
<event>
 5    0  0.5778875E-005  0.3478495E+03  0.7546771E-02  0.1063501E+00
         21   -1    0    0  502  501  0.00000000000E+00  0.00000000000E+00  0.22074650246E+03  0.22074650246E+03  0.00000000000E+00 0.  1.
         21   -1    0    0  501  502 -0.00000000000E+00 -0.00000000000E+00 -0.54813672613E+03  0.54813672613E+03  0.00000000000E+00 0.  1.
         25    1    1    2    0    0 -0.11429473532E+03  0.50417037315E+02  0.12574279028E+03  0.21689032592E+03  0.12500000000E+03 0.  0.
         25    1    1    2    0    0  0.29602877641E+02 -0.92666036466E+02 -0.22315454549E+03  0.27365356905E+03  0.12500000000E+03 0.  0.
         25    1    1    2    0    0  0.84691857676E+02  0.42248999152E+02 -0.22997846846E+03  0.27833933362E+03  0.12500000000E+03 0.  0.
</event>
<event>
 5    0  0.5778875E-005  0.2762793E+03  0.7546771E-02  0.1097739E+00
         21   -1    0    0  502  501  0.00000000000E+00  0.00000000000E+00  0.17953386014E+03  0.17953386014E+03  0.00000000000E+00 0.  1.
         21   -1    0    0  501  502 -0.00000000000E+00 -0.00000000000E+00 -0.42515799731E+03  0.42515799731E+03  0.00000000000E+00 0.  1.
         25    1    1    2    0    0  0.65557818851E+02  0.48960730955E+02 -0.11711092391E+03  0.18982873673E+03  0.12500000000E+03 0.  0.
         25    1    1    2    0    0 -0.16825121609E+03 -0.73742254793E+02 -0.11618098282E+03  0.25073773674E+03  0.12500000000E+03 0.  0.
         25    1    1    2    0    0  0.10269339724E+03  0.24781523838E+02 -0.12332230437E+02  0.16412538398E+03  0.12500000000E+03 0.  0.
</event>
<event>
 5    0  0.5778875E-005  0.2339233E+03  0.7546771E-02  0.1123908E+00
         21   -1    0    0  502  501  0.00000000000E+00  0.00000000000E+00  0.49595929104E+03  0.49595929104E+03  0.00000000000E+00 0.  1.
         21   -1    0    0  501  502 -0.00000000000E+00 -0.00000000000E+00 -0.11033189461E+03  0.11033189461E+03  0.00000000000E+00 0.  1.
         25    1    1    2    0    0 -0.24282776164E+02  0.10385849442E+01  0.85956445863E+02  0.15363672238E+03  0.12500000000E+03 0.  0.
         25    1    1    2    0    0  0.10040567493E+03 -0.72994399722E+02  0.15501008965E+03  0.23465423466E+03  0.12500000000E+03 0.  0.
         25    1    1    2    0    0 -0.76122898765E+02  0.71955814778E+02  0.14466086092E+03  0.21800022862E+03  0.12500000000E+03 0.  0.
</event>
<event>
 5    0  0.5778875E-005  0.3463625E+03  0.7546771E-02  0.1064118E+00
         21   -1    0    0  502  501  0.00000000000E+00  0.00000000000E+00  0.13174184572E+03  0.13174184572E+03  0.00000000000E+00 0. -1.
         21   -1    0    0  501  502 -0.00000000000E+00 -0.00000000000E+00 -0.91062184317E+03  0.91062184317E+03  0.00000000000E+00 0. -1.
         25    1    1    2    0    0  0.17755083947E+03 -0.10146996334E+03 -0.57803982475E+03  0.62575993244E+03  0.12500000000E+03 0.  0.
         25    1    1    2    0    0 -0.15529889570E+02 -0.18969268348E+02 -0.76154293721E+02  0.14840986175E+03  0.12500000000E+03 0.  0.
         25    1    1    2    0    0 -0.16202094990E+03  0.12043923168E+03 -0.12468587898E+03  0.26819389470E+03  0.12500000000E+03 0.  0.
</event>
<event>
 5    0  0.5778875E-005  0.2786169E+03  0.7546771E-02  0.1096447E+00
         21   -1    0    0  502  501  0.00000000000E+00  0.00000000000E+00  0.59382706326E+03  0.59382706326E+03  0.00000000000E+00 0.  1.
         21   -1    0    0  501  502 -0.00000000000E+00 -0.00000000000E+00 -0.13072392077E+03  0.13072392077E+03  0.00000000000E+00 0.  1.
         25    1    1    2    0    0 -0.24533633210E+02 -0.57895583257E+01  0.40194692347E+03  0.42168915973E+03  0.12500000000E+03 0.  0.
         25    1    1    2    0    0  0.85414139009E+02 -0.26963353255E+02  0.31148384784E+02  0.15690066742E+03  0.12500000000E+03 0.  0.
         25    1    1    2    0    0 -0.60880505799E+02  0.32752911581E+02  0.30007834227E+02  0.14596115688E+03  0.12500000000E+03 0.  0.
</event>
<event>
 5    0  0.5778875E-005  0.2613642E+03  0.7546771E-02  0.1106326E+00
         21   -1    0    0  502  501  0.00000000000E+00  0.00000000000E+00  0.20759502168E+04  0.20759502168E+04  0.00000000000E+00 0.  1.
         21   -1    0    0  501  502 -0.00000000000E+00 -0.00000000000E+00 -0.32906007012E+02  0.32906007012E+02  0.00000000000E+00 0.  1.
         25    1    1    2    0    0  0.77041223960E+01  0.11293109430E+02  0.15170549238E+03  0.19704426975E+03  0.12500000000E+03 0.  0.
         25    1    1    2    0    0  0.44304672650E+02 -0.31639708550E+02  0.11374951514E+04  0.11456370257E+04  0.12500000000E+03 0.  0.
         25    1    1    2    0    0 -0.52008795046E+02  0.20346599119E+02  0.75384356601E+03  0.76617492838E+03  0.12500000000E+03 0.  0.
</event>
<event>
 5    0  0.5778875E-005  0.4834697E+03  0.7546771E-02  0.1018186E+00
         21   -1    0    0  502  501  0.00000000000E+00  0.00000000000E+00  0.11289411177E+03  0.11289411177E+03  0.00000000000E+00 0.  1.
         21   -1    0    0  501  502 -0.00000000000E+00 -0.00000000000E+00 -0.20704618101E+04  0.20704618101E+04  0.00000000000E+00 0.  1.
         25    1    1    2    0    0 -0.45313015537E+02  0.16798056302E+03 -0.71780637398E+03  0.74909393901E+03  0.12500000000E+03 0.  0.
         25    1    1    2    0    0  0.26592404766E+03  0.12068914922E+03 -0.72830058937E+03  0.79456165169E+03  0.12500000000E+03 0.  0.
         25    1    1    2    0    0 -0.22061103213E+03 -0.28866971224E+03 -0.51146073497E+03  0.63970033115E+03  0.12500000000E+03 0.  0.
</event>
<event>
 5    0  0.5887154E-005  0.2910519E+03  0.7546771E-02  0.1089801E+00
         21   -1    0    0  502  501  0.00000000000E+00  0.00000000000E+00  0.12494741526E+03  0.12494741526E+03  0.00000000000E+00 0. -1.
         21   -1    0    0  501  502 -0.00000000000E+00 -0.00000000000E+00 -0.67797479761E+03  0.67797479761E+03  0.00000000000E+00 0. -1.
         25    1    1    2    0    0 -0.79206894126E+02  0.38015933623E+02 -0.36288754768E+03  0.39374016248E+03  0.12500000000E+03 0.  0.
         25    1    1    2    0    0  0.10170533810E+03 -0.10636797519E+03 -0.33007309675E+02  0.19588926575E+03  0.12500000000E+03 0.  0.
         25    1    1    2    0    0 -0.22498443970E+02  0.68352041568E+02 -0.15713252500E+03  0.21329278464E+03  0.12500000000E+03 0.  0.
</event>
<event>
 5    0  0.5778875E-005  0.2316060E+03  0.7546771E-02  0.1125514E+00
         21   -1    0    0  502  501  0.00000000000E+00  0.00000000000E+00  0.18876640643E+03  0.18876640643E+03  0.00000000000E+00 0. -1.
         21   -1    0    0  501  502 -0.00000000000E+00 -0.00000000000E+00 -0.28416778081E+03  0.28416778081E+03  0.00000000000E+00 0. -1.
         25    1    1    2    0    0  0.48747230222E+02  0.47617710011E+02  0.28009129145E+02  0.14509738136E+03  0.12500000000E+03 0.  0.
         25    1    1    2    0    0 -0.87071001975E+01 -0.46951084229E+02  0.17863502839E+02  0.13499749123E+03  0.12500000000E+03 0.  0.
         25    1    1    2    0    0 -0.40040130024E+02 -0.66662578173E+00 -0.14127400636E+03  0.19283931465E+03  0.12500000000E+03 0.  0.
</event>
<event>
 5    0  0.5778875E-005  0.3044363E+03  0.7546771E-02  0.1083044E+00
         21   -1    0    0  502  501  0.00000000000E+00  0.00000000000E+00  0.37471970362E+02  0.37471970362E+02  0.00000000000E+00 0. -1.
         21   -1    0    0  501  502 -0.00000000000E+00 -0.00000000000E+00 -0.24733544679E+04  0.24733544679E+04  0.00000000000E+00 0. -1.
         25    1    1    2    0    0  0.78063817708E+02 -0.11331026567E+03 -0.73824723200E+03  0.76129307858E+03  0.12500000000E+03 0.  0.
         25    1    1    2    0    0 -0.40345880846E+02 -0.94392047329E+02 -0.45457099344E+03  0.48249086704E+03  0.12500000000E+03 0.  0.
         25    1    1    2    0    0 -0.37717936861E+02  0.20770231300E+03 -0.12430642721E+04  0.12670424927E+04  0.12500000000E+03 0.  0.
</event>
<event>
 5    0  0.5778875E-005  0.2689208E+03  0.7546771E-02  0.1101899E+00
         21   -1    0    0  502  501  0.00000000000E+00  0.00000000000E+00  0.13326862028E+03  0.13326862028E+03  0.00000000000E+00 0.  1.
         21   -1    0    0  501  502 -0.00000000000E+00 -0.00000000000E+00 -0.54265120373E+03  0.54265120373E+03  0.00000000000E+00 0.  1.
         25    1    1    2    0    0 -0.48254809531E+02  0.18659251332E+02 -0.37292822928E+03  0.39670790072E+03  0.12500000000E+03 0.  0.
         25    1    1    2    0    0  0.71923719247E+02 -0.35227808830E+02 -0.22707137497E+02  0.15018200291E+03  0.12500000000E+03 0.  0.
         25    1    1    2    0    0 -0.23668909716E+02  0.16568557498E+02 -0.13747216668E+02  0.12902992037E+03  0.12500000000E+03 0.  0.
</event>
<event>
 5    0  0.5778875E-005  0.3097367E+03  0.7546771E-02  0.1080472E+00
         21   -1    0    0  502  501  0.00000000000E+00  0.00000000000E+00  0.17601809534E+04  0.17601809534E+04  0.00000000000E+00 0. -1.
         21   -1    0    0  501  502 -0.00000000000E+00 -0.00000000000E+00 -0.54503964241E+02  0.54503964241E+02  0.00000000000E+00 0. -1.
         25    1    1    2    0    0  0.10038351780E+03  0.12713574592E+03  0.12371007166E+04  0.12539073058E+04  0.12500000000E+03 0.  0.
         25    1    1    2    0    0 -0.86794452143E+02 -0.87193541796E+02  0.28667808061E+03  0.33607337376E+03  0.12500000000E+03 0.  0.
         25    1    1    2    0    0 -0.13589065655E+02 -0.39942204121E+02  0.18189819199E+03  0.22470423811E+03  0.12500000000E+03 0.  0.
</event>
<event>
 5    0  0.5778875E-005  0.4041058E+03  0.7546771E-02  0.1042367E+00
         21   -1    0    0  502  501  0.00000000000E+00  0.00000000000E+00  0.32162904908E+03  0.32162904908E+03  0.00000000000E+00 0. -1.
         21   -1    0    0  501  502 -0.00000000000E+00 -0.00000000000E+00 -0.50773233893E+03  0.50773233893E+03  0.00000000000E+00 0. -1.
         25    1    1    2    0    0 -0.20686124833E+03 -0.23584708125E+03 -0.17491816143E+02  0.33815142381E+03  0.12500000000E+03 0.  0.
         25    1    1    2    0    0  0.15912181551E+03  0.98752985263E+02 -0.19496126096E+03  0.29783686398E+03  0.12500000000E+03 0.  0.
         25    1    1    2    0    0  0.47739432817E+02  0.13709409599E+03  0.26349787248E+02  0.19337310022E+03  0.12500000000E+03 0.  0.
</event>
<event>
 5    0  0.5778875E-005  0.4350217E+03  0.7546771E-02  0.1032285E+00
         21   -1    0    0  502  501  0.00000000000E+00  0.00000000000E+00  0.18541432545E+03  0.18541432545E+03  0.00000000000E+00 0. -1.
         21   -1    0    0  501  502 -0.00000000000E+00 -0.00000000000E+00 -0.10206538089E+04  0.10206538089E+04  0.00000000000E+00 0.  1.
         25    1    1    2    0    0 -0.31145869420E+02  0.57605753593E+02 -0.17769209517E+02  0.14222950761E+03  0.12500000000E+03 0.  0.
         25    1    1    2    0    0  0.30585255794E+03 -0.27118149439E+02 -0.61642654452E+03  0.69991989971E+03  0.12500000000E+03 0.  0.
         25    1    1    2    0    0 -0.27470668852E+03 -0.30487604154E+02 -0.20104372937E+03  0.36391872698E+03  0.12500000000E+03 0.  0.
</event>
<event>
 5    0  0.5778875E-005  0.2347555E+03  0.7546771E-02  0.1123337E+00
         21   -1    0    0  502  501  0.00000000000E+00  0.00000000000E+00  0.23989189775E+03  0.23989189775E+03  0.00000000000E+00 0. -1.
         21   -1    0    0  501  502 -0.00000000000E+00 -0.00000000000E+00 -0.22972916878E+03  0.22972916878E+03  0.00000000000E+00 0. -1.
         25    1    1    2    0    0 -0.22608204455E+02  0.87879483674E+02 -0.52354474194E+02  0.16309483599E+03  0.12500000000E+03 0.  0.
         25    1    1    2    0    0 -0.41654186436E+02 -0.71805556424E+02  0.68462409342E+02  0.16493395852E+03  0.12500000000E+03 0.  0.
         25    1    1    2    0    0  0.64262390891E+02 -0.16073927250E+02 -0.59452061773E+01  0.14159227202E+03  0.12500000000E+03 0.  0.
</event>
<event>
 5    0  0.5778875E-005  0.3023177E+03  0.7546771E-02  0.1084088E+00
         21   -1    0    0  502  501  0.00000000000E+00  0.00000000000E+00  0.14262453516E+03  0.14262453516E+03  0.00000000000E+00 0.  1.
         21   -1    0    0  501  502 -0.00000000000E+00 -0.00000000000E+00 -0.64081534597E+03  0.64081534597E+03  0.00000000000E+00 0.  1.
         25    1    1    2    0    0  0.32742085246E+02 -0.52845941665E+02  0.40227797337E+02  0.14528597102E+03  0.12500000000E+03 0.  0.
         25    1    1    2    0    0  0.87714920290E+02  0.22542059572E+02 -0.33610065751E+03  0.36985227277E+03  0.12500000000E+03 0.  0.
         25    1    1    2    0    0 -0.12045700554E+03  0.30303882093E+02 -0.20231795063E+03  0.26830163734E+03  0.12500000000E+03 0.  0.
</event>
<event>
 5    0  0.5778875E-005  0.2461864E+03  0.7546771E-02  0.1115739E+00
         21   -1    0    0  502  501  0.00000000000E+00  0.00000000000E+00  0.39028576439E+03  0.39028576439E+03  0.00000000000E+00 0. -1.
         21   -1    0    0  501  502 -0.00000000000E+00 -0.00000000000E+00 -0.15529072369E+03  0.15529072369E+03  0.00000000000E+00 0. -1.
         25    1    1    2    0    0 -0.27296044761E+02 -0.12465857136E+03  0.32489548888E+02  0.18156377463E+03  0.12500000000E+03 0.  0.
         25    1    1    2    0    0 -0.16244857880E+02  0.39865832287E+02  0.14601725680E+03  0.19697517426E+03  0.12500000000E+03 0.  0.
         25    1    1    2    0    0  0.43540902641E+02  0.84792739069E+02  0.56488235017E+02  0.16703753919E+03  0.12500000000E+03 0.  0.
</event>
<event>
 5    0  0.5778875E-005  0.5768750E+03  0.7546771E-02  0.9954580E-01
         21   -1    0    0  502  501  0.00000000000E+00  0.00000000000E+00  0.41220346695E+04  0.41220346695E+04  0.00000000000E+00 0.  1.
         21   -1    0    0  501  502 -0.00000000000E+00 -0.00000000000E+00 -0.80733130298E+02  0.80733130298E+02  0.00000000000E+00 0.  1.
         25    1    1    2    0    0  0.12433887486E+03 -0.20512754830E+03  0.10759446057E+04  0.11094229407E+04  0.12500000000E+03 0.  0.
         25    1    1    2    0    0 -0.19498176853E+03  0.23063797923E+03  0.36920930501E+03  0.49310473373E+03  0.12500000000E+03 0.  0.
         25    1    1    2    0    0  0.70642893671E+02 -0.25510430932E+02  0.25961476285E+04  0.26002401253E+04  0.12500000000E+03 0.  0.
</event>
<event>
 5    0  0.5778875E-005  0.3569908E+03  0.7546771E-02  0.1059782E+00
         21   -1    0    0  502  501  0.00000000000E+00  0.00000000000E+00  0.17856781496E+03  0.17856781496E+03  0.00000000000E+00 0.  1.
         21   -1    0    0  501  502 -0.00000000000E+00 -0.00000000000E+00 -0.71369203655E+03  0.71369203655E+03  0.00000000000E+00 0.  1.
         25    1    1    2    0    0  0.16616846537E+03  0.11740209944E+03 -0.20356377735E+03  0.31378085233E+03  0.12500000000E+03 0.  0.
         25    1    1    2    0    0 -0.14411874976E+03 -0.45841357316E+02 -0.37771190591E+03  0.42563238592E+03  0.12500000000E+03 0.  0.
         25    1    1    2    0    0 -0.22049715604E+02 -0.71560742123E+02  0.46151461680E+02  0.15284661327E+03  0.12500000000E+03 0.  0.
</event>
<event>
 5    0  0.5778875E-005  0.4708843E+03  0.7546771E-02  0.1021671E+00
         21   -1    0    0  502  501  0.00000000000E+00  0.00000000000E+00  0.55381262179E+03  0.55381262179E+03  0.00000000000E+00 0.  1.
         21   -1    0    0  501  502 -0.00000000000E+00 -0.00000000000E+00 -0.40037377736E+03  0.40037377736E+03  0.00000000000E+00 0.  1.
         25    1    1    2    0    0  0.37445878986E+03  0.13439682514E+03  0.10813340414E+02  0.41716162365E+03  0.12500000000E+03 0.  0.
         25    1    1    2    0    0 -0.31919655926E+03 -0.11670259704E+03  0.38222346429E+02  0.36413168959E+03  0.12500000000E+03 0.  0.
         25    1    1    2    0    0 -0.55262230605E+02 -0.17694228101E+02  0.10440315759E+03  0.17289308591E+03  0.12500000000E+03 0.  0.
</event>
<event>
 5    0  0.5778875E-005  0.4060738E+03  0.7546771E-02  0.1041697E+00
         21   -1    0    0  502  501  0.00000000000E+00  0.00000000000E+00  0.42780069197E+03  0.42780069197E+03  0.00000000000E+00 0.  1.
         21   -1    0    0  501  502 -0.00000000000E+00 -0.00000000000E+00 -0.38545033233E+03  0.38545033233E+03  0.00000000000E+00 0.  1.
         25    1    1    2    0    0  0.10470849938E+03 -0.29216570196E+03  0.31443186383E+02  0.33606300185E+03  0.12500000000E+03 0.  0.
         25    1    1    2    0    0 -0.22824523272E+02  0.47718234924E+02 -0.10143441861E+03  0.16944595033E+03  0.12500000000E+03 0.  0.
         25    1    1    2    0    0 -0.81883976108E+02  0.24444746704E+03  0.11234159187E+03  0.30774207211E+03  0.12500000000E+03 0.  0.
</event>
<event>
 5    0  0.6507638E-005  0.4345284E+03  0.7546771E-02  0.1032439E+00
         21   -1    0    0  502  501  0.00000000000E+00  0.00000000000E+00  0.19756290759E+03  0.19756290759E+03  0.00000000000E+00 0.  1.
         21   -1    0    0  501  502 -0.00000000000E+00 -0.00000000000E+00 -0.95572066784E+03  0.95572066784E+03  0.00000000000E+00 0.  1.
         25    1    1    2    0    0 -0.25951031800E+03 -0.58697087456E+02 -0.31478104481E+03  0.43070066101E+03  0.12500000000E+03 0.  0.
         25    1    1    2    0    0  0.37341547891E+02  0.18446221912E+03 -0.36233013280E+03  0.42699979698E+03  0.12500000000E+03 0.  0.
         25    1    1    2    0    0  0.22216877011E+03 -0.12576513167E+03 -0.81046582645E+02  0.29558311744E+03  0.12500000000E+03 0.  0.
</event>
<event>
 5    0  0.5778875E-005  0.3444579E+03  0.7546771E-02  0.1064913E+00
         21   -1    0    0  502  501  0.00000000000E+00  0.00000000000E+00  0.85223744861E+03  0.85223744861E+03  0.00000000000E+00 0.  1.
         21   -1    0    0  501  502 -0.00000000000E+00 -0.00000000000E+00 -0.13922318675E+03  0.13922318675E+03  0.00000000000E+00 0.  1.
         25    1    1    2    0    0  0.20808318853E+03  0.61244716672E+02  0.52646535980E+03  0.58295823499E+03  0.12500000000E+03 0.  0.
         25    1    1    2    0    0 -0.85766429548E+02 -0.60062265121E+02  0.16552310277E+03  0.23234942152E+03  0.12500000000E+03 0.  0.
         25    1    1    2    0    0 -0.12231675898E+03 -0.11824515517E+01  0.21025799288E+02  0.17615297884E+03  0.12500000000E+03 0.  0.
</event>
<event>
 5    0  0.5778875E-005  0.3181217E+03  0.7546771E-02  0.1076517E+00
         21   -1    0    0  502  501  0.00000000000E+00  0.00000000000E+00  0.10554701839E+03  0.10554701839E+03  0.00000000000E+00 0. -1.
         21   -1    0    0  501  502 -0.00000000000E+00 -0.00000000000E+00 -0.95882776441E+03  0.95882776441E+03  0.00000000000E+00 0. -1.
         25    1    1    2    0    0 -0.11541559801E+03  0.56695977581E+02 -0.40274925249E+02  0.18379952051E+03  0.12500000000E+03 0.  0.
         25    1    1    2    0    0 -0.11941838865E+02  0.25152455661E+02 -0.20553393947E+03  0.24216616984E+03  0.12500000000E+03 0.  0.
         25    1    1    2    0    0  0.12735743687E+03 -0.81848433242E+02 -0.60747188130E+03  0.63840909245E+03  0.12500000000E+03 0.  0.
</event>
<event>
 5    0  0.5778875E-005  0.3737582E+03  0.7546771E-02  0.1053265E+00
         21   -1    0    0  502  501  0.00000000000E+00  0.00000000000E+00  0.15203094802E+04  0.15203094802E+04  0.00000000000E+00 0. -1.
         21   -1    0    0  501  502 -0.00000000000E+00 -0.00000000000E+00 -0.91886002104E+02  0.91886002104E+02  0.00000000000E+00 0. -1.
         25    1    1    2    0    0  0.15542369202E+03 -0.64385681616E+02  0.13954644842E+03  0.25179406527E+03  0.12500000000E+03 0.  0.
         25    1    1    2    0    0 -0.12816778913E+03 -0.32478509988E+02  0.10889160736E+04  0.11040131571E+04  0.12500000000E+03 0.  0.
         25    1    1    2    0    0 -0.27255902894E+02  0.96864191604E+02  0.19996095606E+03  0.25638825988E+03  0.12500000000E+03 0.  0.
</event>
<event>
 5    0  0.5778875E-005  0.3074214E+03  0.7546771E-02  0.1081588E+00
         21   -1    0    0  502  501  0.00000000000E+00  0.00000000000E+00  0.34368149284E+03  0.34368149284E+03  0.00000000000E+00 0. -1.
         21   -1    0    0  501  502 -0.00000000000E+00 -0.00000000000E+00 -0.27498696420E+03  0.27498696420E+03  0.00000000000E+00 0. -1.
         25    1    1    2    0    0  0.51125021360E+02 -0.18448038760E+01 -0.10727983177E+03  0.17248516868E+03  0.12500000000E+03 0.  0.
         25    1    1    2    0    0 -0.14532874978E+03  0.10152037935E+03  0.52141121032E+02  0.22309309590E+03  0.12500000000E+03 0.  0.
         25    1    1    2    0    0  0.94203728423E+02 -0.99675575472E+02  0.12383323938E+03  0.22309019246E+03  0.12500000000E+03 0.  0.
</event>
<event>
 5    0  0.5778875E-005  0.2328984E+03  0.7546771E-02  0.1124616E+00
         21   -1    0    0  502  501  0.00000000000E+00  0.00000000000E+00  0.17085193627E+03  0.17085193627E+03  0.00000000000E+00 0. -1.
         21   -1    0    0  501  502 -0.00000000000E+00 -0.00000000000E+00 -0.31747757653E+03  0.31747757653E+03  0.00000000000E+00 0. -1.
         25    1    1    2    0    0 -0.46175314278E+02 -0.42909553727E+01  0.22622633168E+02  0.13523074901E+03  0.12500000000E+03 0.  0.
         25    1    1    2    0    0 -0.78133117657E+01  0.16629051487E+02  0.11050446985E+02  0.12682541375E+03  0.12500000000E+03 0.  0.
         25    1    1    2    0    0  0.53988626044E+02 -0.12338096114E+02 -0.18029872041E+03  0.22627335004E+03  0.12500000000E+03 0.  0.
</event>
<event>
 5    0  0.5778875E-005  0.2932609E+03  0.7546771E-02  0.1088659E+00
         21   -1    0    0  502  501  0.00000000000E+00  0.00000000000E+00  0.31333123675E+03  0.31333123675E+03  0.00000000000E+00 0.  1.
         21   -1    0    0  501  502 -0.00000000000E+00 -0.00000000000E+00 -0.27447607332E+03  0.27447607332E+03  0.00000000000E+00 0.  1.
         25    1    1    2    0    0  0.78986830686E+02 -0.48273257748E+02  0.52031475837E+02  0.16401677144E+03  0.12500000000E+03 0.  0.
         25    1    1    2    0    0  0.26854208282E+02  0.16680743041E+03 -0.55178776770E+02  0.21729142815E+03  0.12500000000E+03 0.  0.
         25    1    1    2    0    0 -0.10584103897E+03 -0.11853417266E+03  0.42002464360E+02  0.20649911048E+03  0.12500000000E+03 0.  0.
</event>
<event>
 5    0  0.7329804E-005  0.2915914E+03  0.7546771E-02  0.1089521E+00
         21   -1    0    0  502  501  0.00000000000E+00  0.00000000000E+00  0.65387439321E+03  0.65387439321E+03  0.00000000000E+00 0.  1.
         21   -1    0    0  501  502 -0.00000000000E+00 -0.00000000000E+00 -0.13003346675E+03  0.13003346675E+03  0.00000000000E+00 0.  1.
         25    1    1    2    0    0 -0.92773854786E+02 -0.10876866312E+03  0.21517717123E+03  0.28699098457E+03  0.12500000000E+03 0.  0.
         25    1    1    2    0    0  0.47455148238E+02 -0.67103673960E+02  0.51583239719E+02  0.15824261364E+03  0.12500000000E+03 0.  0.
         25    1    1    2    0    0  0.45318706548E+02  0.17587233708E+03  0.25708051551E+03  0.33867426174E+03  0.12500000000E+03 0.  0.
</event>
<event>
 5    0  0.5778875E-005  0.2493289E+03  0.7546771E-02  0.1113730E+00
         21   -1    0    0  502  501  0.00000000000E+00  0.00000000000E+00  0.49686781031E+03  0.49686781031E+03  0.00000000000E+00 0.  1.
         21   -1    0    0  501  502 -0.00000000000E+00 -0.00000000000E+00 -0.12511354289E+03  0.12511354289E+03  0.00000000000E+00 0.  1.
         25    1    1    2    0    0 -0.20444485597E+02  0.42001624808E+02  0.19198428667E+03  0.23380564537E+03  0.12500000000E+03 0.  0.
         25    1    1    2    0    0 -0.10207348477E+03 -0.11794973663E+02  0.11744258926E+03  0.19993968958E+03  0.12500000000E+03 0.  0.
         25    1    1    2    0    0  0.12251797037E+03 -0.30206651145E+02  0.62327391487E+02  0.18823601825E+03  0.12500000000E+03 0.  0.
</event>
<event>
 5    0  0.5778875E-005  0.2597856E+03  0.7546771E-02  0.1107272E+00
         21   -1    0    0  502  501  0.00000000000E+00  0.00000000000E+00  0.27792397855E+03  0.27792397855E+03  0.00000000000E+00 0. -1.
         21   -1    0    0  501  502 -0.00000000000E+00 -0.00000000000E+00 -0.24283105504E+03  0.24283105504E+03  0.00000000000E+00 0. -1.
         25    1    1    2    0    0  0.10833727603E+03 -0.73509828628E+02 -0.29799335114E+02  0.18344934085E+03  0.12500000000E+03 0.  0.
         25    1    1    2    0    0 -0.10483352509E+03  0.19884525661E+02  0.10551994505E+03  0.19530724806E+03  0.12500000000E+03 0.  0.
         25    1    1    2    0    0 -0.35037509464E+01  0.53625302967E+02 -0.40627686424E+02  0.14199844469E+03  0.12500000000E+03 0.  0.
</event>
<event>
 5    0  0.6108277E-005  0.2730211E+03  0.7546771E-02  0.1099563E+00
         21   -1    0    0  502  501  0.00000000000E+00  0.00000000000E+00  0.44316085707E+03  0.44316085707E+03  0.00000000000E+00 0. -1.
         21   -1    0    0  501  502 -0.00000000000E+00 -0.00000000000E+00 -0.16820193983E+03  0.16820193983E+03  0.00000000000E+00 0. -1.
         25    1    1    2    0    0 -0.82731311106E+02 -0.23142787552E+02  0.41863990884E+02  0.15734564559E+03  0.12500000000E+03 0.  0.
         25    1    1    2    0    0 -0.76503838245E+02  0.94348376098E+02  0.11824418930E+03  0.21062084807E+03  0.12500000000E+03 0.  0.
         25    1    1    2    0    0  0.15923514935E+03 -0.71205588546E+02  0.11485073706E+03  0.24339630324E+03  0.12500000000E+03 0.  0.
</event>
<event>
 5    0  0.5778875E-005  0.3181397E+03  0.7546771E-02  0.1076509E+00
         21   -1    0    0  502  501  0.00000000000E+00  0.00000000000E+00  0.15172265734E+03  0.15172265734E+03  0.00000000000E+00 0. -1.
         21   -1    0    0  501  502 -0.00000000000E+00 -0.00000000000E+00 -0.66709127561E+03  0.66709127561E+03  0.00000000000E+00 0. -1.
         25    1    1    2    0    0  0.88385666710E+02  0.94366142587E+02 -0.93256140941E+02  0.20258011445E+03  0.12500000000E+03 0.  0.
         25    1    1    2    0    0 -0.12766582845E+03 -0.10807331440E+03 -0.43633502466E+03  0.48372684315E+03  0.12500000000E+03 0.  0.
         25    1    1    2    0    0  0.39280161742E+02  0.13707171811E+02  0.14222547335E+02  0.13250697536E+03  0.12500000000E+03 0.  0.
</event>
<event>
 5    0  0.5778875E-005  0.3109917E+03  0.7546771E-02  0.1079872E+00
         21   -1    0    0  502  501  0.00000000000E+00  0.00000000000E+00  0.29056855813E+03  0.29056855813E+03  0.00000000000E+00 0.  1.
         21   -1    0    0  501  502 -0.00000000000E+00 -0.00000000000E+00 -0.33285030269E+03  0.33285030269E+03  0.00000000000E+00 0.  1.
         25    1    1    2    0    0  0.98884354771E+02 -0.95247928589E+02 -0.12842026810E+02  0.18611878243E+03  0.12500000000E+03 0.  0.
         25    1    1    2    0    0 -0.34552964118E+02 -0.11662182116E+03 -0.52091350755E+02  0.18202490303E+03  0.12500000000E+03 0.  0.
         25    1    1    2    0    0 -0.64331390653E+02  0.21186974975E+03  0.22651633006E+02  0.25527517537E+03  0.12500000000E+03 0.  0.
</event>
<event>
 5    0  0.5778875E-005  0.2375595E+03  0.7546771E-02  0.1121429E+00
         21   -1    0    0  502  501  0.00000000000E+00  0.00000000000E+00  0.12970792630E+03  0.12970792630E+03  0.00000000000E+00 0.  1.
         21   -1    0    0  501  502 -0.00000000000E+00 -0.00000000000E+00 -0.43508926947E+03  0.43508926947E+03  0.00000000000E+00 0.  1.
         25    1    1    2    0    0  0.28447022354E+02  0.56024855727E+01 -0.46823710242E+02  0.13659458542E+03  0.12500000000E+03 0.  0.
         25    1    1    2    0    0  0.93723356086E+02  0.32385791386E+02 -0.94193983892E+02  0.18528468248E+03  0.12500000000E+03 0.  0.
         25    1    1    2    0    0 -0.12217037844E+03 -0.37988276959E+02 -0.16436364904E+03  0.24291792787E+03  0.12500000000E+03 0.  0.
</event>
<event>
 5    0  0.5778875E-005  0.4239668E+03  0.7546771E-02  0.1035783E+00
         21   -1    0    0  502  501  0.00000000000E+00  0.00000000000E+00  0.21900291576E+04  0.21900291576E+04  0.00000000000E+00 0.  1.
         21   -1    0    0  501  502 -0.00000000000E+00 -0.00000000000E+00 -0.82075561524E+02  0.82075561524E+02  0.00000000000E+00 0.  1.
         25    1    1    2    0    0  0.85175925101E+02  0.25553247432E+03  0.15923287665E+04  0.16197801346E+04  0.12500000000E+03 0.  0.
         25    1    1    2    0    0 -0.10198940741E+03 -0.18798187271E+03  0.38946747202E+03  0.46157224294E+03  0.12500000000E+03 0.  0.
         25    1    1    2    0    0  0.16813482307E+02 -0.67550601611E+02  0.12615735748E+03  0.19075234157E+03  0.12500000000E+03 0.  0.
</event>
<event>
 5    0  0.5778875E-005  0.2399098E+03  0.7546771E-02  0.1119853E+00
         21   -1    0    0  502  501  0.00000000000E+00  0.00000000000E+00  0.12409824950E+03  0.12409824950E+03  0.00000000000E+00 0. -1.
         21   -1    0    0  501  502 -0.00000000000E+00 -0.00000000000E+00 -0.46379956960E+03  0.46379956960E+03  0.00000000000E+00 0. -1.
         25    1    1    2    0    0 -0.99626544272E+01 -0.10796339631E+03 -0.58518376629E+02  0.17551281956E+03  0.12500000000E+03 0.  0.
         25    1    1    2    0    0  0.51868227053E+02  0.10065644369E+03 -0.14132577999E+03  0.22004546968E+03  0.12500000000E+03 0.  0.
         25    1    1    2    0    0 -0.41905572626E+02  0.73069526187E+01 -0.13985716347E+03  0.19233952986E+03  0.12500000000E+03 0.  0.
</event>
<event>
 5    0  0.5778875E-005  0.2232227E+03  0.7546771E-02  0.1131503E+00
         21   -1    0    0  502  501  0.00000000000E+00  0.00000000000E+00  0.23286020963E+03  0.23286020963E+03  0.00000000000E+00 0.  1.
         21   -1    0    0  501  502 -0.00000000000E+00 -0.00000000000E+00 -0.21398412932E+03  0.21398412932E+03  0.00000000000E+00 0.  1.
         25    1    1    2    0    0  0.41710012145E+02  0.13716261452E+02  0.91603248636E+02  0.16107146272E+03  0.12500000000E+03 0.  0.
         25    1    1    2    0    0 -0.36113859421E+02 -0.81177202087E+01 -0.91295015021E+02  0.15915366157E+03  0.12500000000E+03 0.  0.
         25    1    1    2    0    0 -0.55961527243E+01 -0.55985412428E+01  0.18567846701E+02  0.12661921466E+03  0.12500000000E+03 0.  0.
</event>
<event>
 5    0  0.6407686E-005  0.3410197E+03  0.7546771E-02  0.1066362E+00
         21   -1    0    0  502  501  0.00000000000E+00  0.00000000000E+00  0.40002577887E+03  0.40002577887E+03  0.00000000000E+00 0. -1.
         21   -1    0    0  501  502 -0.00000000000E+00 -0.00000000000E+00 -0.29071743664E+03  0.29071743664E+03  0.00000000000E+00 0. -1.
         25    1    1    2    0    0  0.87957441488E+02  0.21625656627E+03  0.90910052489E+02  0.27998759189E+03  0.12500000000E+03 0.  0.
         25    1    1    2    0    0 -0.11896807352E+03 -0.12041013927E+03  0.97353109532E+02  0.23185045200E+03  0.12500000000E+03 0.  0.
         25    1    1    2    0    0  0.31010632027E+02 -0.95846426994E+02 -0.78954819793E+02  0.17890517163E+03  0.12500000000E+03 0.  0.
</event>
<event>
 5    0  0.5778875E-005  0.6775119E+03  0.7546771E-02  0.9756482E-01
         21   -1    0    0  502  501  0.00000000000E+00  0.00000000000E+00  0.72700076643E+03  0.72700076643E+03  0.00000000000E+00 0.  1.
         21   -1    0    0  501  502 -0.00000000000E+00 -0.00000000000E+00 -0.63139185109E+03  0.63139185109E+03  0.00000000000E+00 0.  1.
         25    1    1    2    0    0 -0.28133678118E+03  0.30913075186E+03  0.30095066235E+03  0.53000802575E+03  0.12500000000E+03 0.  0.
         25    1    1    2    0    0  0.16452137612E+03 -0.48941792844E+03 -0.46187143226E+02  0.53324988896E+03  0.12500000000E+03 0.  0.
         25    1    1    2    0    0  0.11681540507E+03  0.18028717658E+03 -0.15915460378E+03  0.29513470281E+03  0.12500000000E+03 0.  0.
</event>
<event>
 5    0  0.5778875E-005  0.5219916E+03  0.7546771E-02  0.1008193E+00
         21   -1    0    0  502  501  0.00000000000E+00  0.00000000000E+00  0.60891746087E+03  0.60891746087E+03  0.00000000000E+00 0. -1.
         21   -1    0    0  501  502 -0.00000000000E+00 -0.00000000000E+00 -0.44747485819E+03  0.44747485819E+03  0.00000000000E+00 0. -1.
         25    1    1    2    0    0  0.12021867924E+03 -0.21249113677E+03  0.97370657562E+02  0.29105164318E+03  0.12500000000E+03 0.  0.
         25    1    1    2    0    0  0.72304264891E+02 -0.22291480236E+03 -0.18544285620E+02  0.26624764104E+03  0.12500000000E+03 0.  0.
         25    1    1    2    0    0 -0.19252294413E+03  0.43540593913E+03  0.82616230741E+02  0.49909303484E+03  0.12500000000E+03 0.  0.
</event>
<event>
 5    0  0.5778875E-005  0.3220164E+03  0.7546771E-02  0.1074725E+00
         21   -1    0    0  502  501  0.00000000000E+00  0.00000000000E+00  0.37458032233E+03  0.37458032233E+03  0.00000000000E+00 0.  1.
         21   -1    0    0  501  502 -0.00000000000E+00 -0.00000000000E+00 -0.27682859008E+03  0.27682859008E+03  0.00000000000E+00 0.  1.
         25    1    1    2    0    0  0.17871906370E+02  0.18078053972E+03  0.24586285798E+02  0.22187945832E+03  0.12500000000E+03 0.  0.
         25    1    1    2    0    0  0.43753345804E+02  0.58405744224E+02  0.70354695204E+01  0.14491405749E+03  0.12500000000E+03 0.  0.
         25    1    1    2    0    0 -0.61625252174E+02 -0.23918628394E+03  0.66129976933E+02  0.28461539660E+03  0.12500000000E+03 0.  0.
</event>
<event>
 5    0  0.5778875E-005  0.4159426E+03  0.7546771E-02  0.1038395E+00
         21   -1    0    0  502  501  0.00000000000E+00  0.00000000000E+00  0.27400809848E+03  0.27400809848E+03  0.00000000000E+00 0.  1.
         21   -1    0    0  501  502 -0.00000000000E+00 -0.00000000000E+00 -0.63139841620E+03  0.63139841620E+03  0.00000000000E+00 0.  1.
         25    1    1    2    0    0 -0.19862571132E+03  0.11644626031E+03 -0.10227484905E+03  0.28124197675E+03  0.12500000000E+03 0.  0.
         25    1    1    2    0    0 -0.13412199853E+03 -0.11004989057E+03 -0.10572473730E+03  0.23854225827E+03  0.12500000000E+03 0.  0.
         25    1    1    2    0    0  0.33274770984E+03 -0.63963697385E+01 -0.14939073137E+03  0.38562227966E+03  0.12500000000E+03 0.  0.
</event>
<event>
 5    0  0.5778875E-005  0.3883644E+03  0.7546771E-02  0.1047885E+00
         21   -1    0    0  502  501  0.00000000000E+00  0.00000000000E+00  0.30642407155E+03  0.30642407155E+03  0.00000000000E+00 0.  1.
         21   -1    0    0  501  502 -0.00000000000E+00 -0.00000000000E+00 -0.49221623044E+03  0.49221623044E+03  0.00000000000E+00 0.  1.
         25    1    1    2    0    0 -0.29673028085E+03  0.15136479009E+03 -0.10840565195E+03  0.37193674816E+03  0.12500000000E+03 0.  0.
         25    1    1    2    0    0  0.16018062015E+03 -0.52959832664E+02 -0.37769802074E+02  0.21334041553E+03  0.12500000000E+03 0.  0.
         25    1    1    2    0    0  0.13654966070E+03 -0.98404957427E+02 -0.39616704874E+02  0.21336313831E+03  0.12500000000E+03 0.  0.
</event>
<event>
 5    0  0.5778875E-005  0.2812607E+03  0.7546771E-02  0.1095002E+00
         21   -1    0    0  502  501  0.00000000000E+00  0.00000000000E+00  0.58264235091E+02  0.58264235091E+02  0.00000000000E+00 0.  1.
         21   -1    0    0  501  502 -0.00000000000E+00 -0.00000000000E+00 -0.13577384116E+04  0.13577384116E+04  0.00000000000E+00 0.  1.
         25    1    1    2    0    0  0.43655303542E+02  0.36152459370E+01 -0.92898495047E+02  0.16178376282E+03  0.12500000000E+03 0.  0.
         25    1    1    2    0    0 -0.34381677337E+02 -0.38366781193E+02 -0.21382044110E+03  0.25297883443E+03  0.12500000000E+03 0.  0.
         25    1    1    2    0    0 -0.92736262047E+01  0.34751535256E+02 -0.99275524040E+03  0.10012400495E+04  0.12500000000E+03 0.  0.
</event>
<event>
 5    0  0.5778875E-005  0.3467456E+03  0.7546771E-02  0.1063959E+00
         21   -1    0    0  502  501  0.00000000000E+00  0.00000000000E+00  0.14179130768E+03  0.14179130768E+03  0.00000000000E+00 0.  1.
         21   -1    0    0  501  502 -0.00000000000E+00 -0.00000000000E+00 -0.84795427048E+03  0.84795427048E+03  0.00000000000E+00 0.  1.
         25    1    1    2    0    0  0.10515897570E+03 -0.13516058187E+03 -0.12142948862E+03  0.24432951882E+03  0.12500000000E+03 0.  0.
         25    1    1    2    0    0 -0.18625702033E+03 -0.13965154973E+02 -0.17577788202E+03  0.28532361799E+03  0.12500000000E+03 0.  0.
         25    1    1    2    0    0  0.81098044634E+02  0.14912573685E+03 -0.40895559215E+03  0.46009244135E+03  0.12500000000E+03 0.  0.
</event>
<event>
 5    0  0.5778875E-005  0.3401129E+03  0.7546771E-02  0.1066748E+00
         21   -1    0    0  502  501  0.00000000000E+00  0.00000000000E+00  0.31104513394E+03  0.31104513394E+03  0.00000000000E+00 0. -1.
         21   -1    0    0  501  502 -0.00000000000E+00 -0.00000000000E+00 -0.37189716758E+03  0.37189716758E+03  0.00000000000E+00 0. -1.
         25    1    1    2    0    0  0.95533467238E+02 -0.12719077786E+03 -0.16583245310E+03  0.26159040471E+03  0.12500000000E+03 0.  0.
         25    1    1    2    0    0 -0.96476000488E+02  0.20404713917E+03  0.92475466426E+02  0.27407948767E+03  0.12500000000E+03 0.  0.
         25    1    1    2    0    0  0.94253324989E+00 -0.76856361307E+02  0.12504953032E+02  0.14727240914E+03  0.12500000000E+03 0.  0.
</event>
<event>
 5    0  0.5778875E-005  0.2789945E+03  0.7546771E-02  0.1096239E+00
         21   -1    0    0  502  501  0.00000000000E+00  0.00000000000E+00  0.21758184004E+03  0.21758184004E+03  0.00000000000E+00 0.  1.
         21   -1    0    0  501  502 -0.00000000000E+00 -0.00000000000E+00 -0.35774084835E+03  0.35774084835E+03  0.00000000000E+00 0.  1.
         25    1    1    2    0    0 -0.42794802576E+02 -0.50973316392E+02  0.57311442949E+02  0.15277197257E+03  0.12500000000E+03 0.  0.
         25    1    1    2    0    0  0.13572269411E+03  0.66175113179E+02 -0.39066965148E+02  0.19987752016E+03  0.12500000000E+03 0.  0.
         25    1    1    2    0    0 -0.92927891532E+02 -0.15201796787E+02 -0.15840348611E+03  0.22267319565E+03  0.12500000000E+03 0.  0.
</event>
<event>
 5    0  0.5778875E-005  0.2400012E+03  0.7546771E-02  0.1119792E+00
         21   -1    0    0  502  501  0.00000000000E+00  0.00000000000E+00  0.50796651674E+03  0.50796651674E+03  0.00000000000E+00 0.  1.
         21   -1    0    0  501  502 -0.00000000000E+00 -0.00000000000E+00 -0.11339447100E+03  0.11339447100E+03  0.00000000000E+00 0.  1.
         25    1    1    2    0    0 -0.95645828350E+02  0.57098263933E+02  0.19665022215E+03  0.25827242613E+03  0.12500000000E+03 0.  0.
         25    1    1    2    0    0 -0.15243700400E+02  0.51145830801E+01  0.85770046520E+02  0.15244681119E+03  0.12500000000E+03 0.  0.
         25    1    1    2    0    0  0.11088952875E+03 -0.62212847013E+02  0.11215177707E+03  0.21064175042E+03  0.12500000000E+03 0.  0.
</event>
<event>
 5    0  0.5778875E-005  0.4306069E+03  0.7546771E-02  0.1033668E+00
         21   -1    0    0  502  501  0.00000000000E+00  0.00000000000E+00  0.11450481973E+03  0.11450481973E+03  0.00000000000E+00 0. -1.
         21   -1    0    0  501  502 -0.00000000000E+00 -0.00000000000E+00 -0.16193407901E+04  0.16193407901E+04  0.00000000000E+00 0. -1.
         25    1    1    2    0    0  0.19823373708E+03  0.18112701877E+03 -0.47324150206E+03  0.55828857298E+03  0.12500000000E+03 0.  0.
         25    1    1    2    0    0 -0.12497168540E+03 -0.26767801104E+03 -0.91719239775E+03  0.97166678148E+03  0.12500000000E+03 0.  0.
         25    1    1    2    0    0 -0.73262051684E+02  0.86550992266E+02 -0.11440207052E+03  0.20389025533E+03  0.12500000000E+03 0.  0.
</event>
<event>
 5    0  0.5778875E-005  0.2928786E+03  0.7546771E-02  0.1088856E+00
         21   -1    0    0  502  501  0.00000000000E+00  0.00000000000E+00  0.17247972668E+03  0.17247972668E+03  0.00000000000E+00 0. -1.
         21   -1    0    0  501  502 -0.00000000000E+00 -0.00000000000E+00 -0.49732152601E+03  0.49732152601E+03  0.00000000000E+00 0. -1.
         25    1    1    2    0    0 -0.25534189737E+02  0.13116683489E+03 -0.11354960477E+03  0.21534912622E+03  0.12500000000E+03 0.  0.
         25    1    1    2    0    0  0.14243573374E+02 -0.52551732210E+02  0.57174550960E+02  0.14784618094E+03  0.12500000000E+03 0.  0.
         25    1    1    2    0    0  0.11290616362E+02 -0.78615102683E+02 -0.26846674551E+03  0.30660594553E+03  0.12500000000E+03 0.  0.
</event>
<event>
 5    0  0.5778875E-005  0.3054280E+03  0.7546771E-02  0.1082558E+00
         21   -1    0    0  502  501  0.00000000000E+00  0.00000000000E+00  0.69077569219E+02  0.69077569219E+02  0.00000000000E+00 0.  1.
         21   -1    0    0  501  502 -0.00000000000E+00 -0.00000000000E+00 -0.13504570245E+04  0.13504570245E+04  0.00000000000E+00 0.  1.
         25    1    1    2    0    0 -0.31881468234E+01  0.12915294260E+03 -0.20153869548E+03  0.27006201628E+03  0.12500000000E+03 0.  0.
         25    1    1    2    0    0  0.32880051145E+02  0.18757977524E+02 -0.78292141395E+03  0.79374044870E+03  0.12500000000E+03 0.  0.
         25    1    1    2    0    0 -0.29691904322E+02 -0.14791092012E+03 -0.29691934583E+03  0.35573212872E+03  0.12500000000E+03 0.  0.
</event>
<event>
 5    0  0.6338617E-005  0.4578563E+03  0.7546771E-02  0.1025405E+00
         21   -1    0    0  502  501  0.00000000000E+00  0.00000000000E+00  0.36334451155E+03  0.36334451155E+03  0.00000000000E+00 0.  1.
         21   -1    0    0  501  502 -0.00000000000E+00 -0.00000000000E+00 -0.57695223666E+03  0.57695223666E+03  0.00000000000E+00 0.  1.
         25    1    1    2    0    0  0.19913350189E+03 -0.12338386751E+03 -0.87286077346E+02  0.27950239648E+03  0.12500000000E+03 0.  0.
         25    1    1    2    0    0  0.12467552422E+02  0.25279346633E+03 -0.23020316111E+03  0.36425056193E+03  0.12500000000E+03 0.  0.
         25    1    1    2    0    0 -0.21160105431E+03 -0.12940959882E+03  0.10388151335E+03  0.29654378980E+03  0.12500000000E+03 0.  0.
</event>
<event>
 5    0  0.5778875E-005  0.3795143E+03  0.7546771E-02  0.1051113E+00
         21   -1    0    0  502  501  0.00000000000E+00  0.00000000000E+00  0.46118561105E+03  0.46118561105E+03  0.00000000000E+00 0. -1.
         21   -1    0    0  501  502 -0.00000000000E+00 -0.00000000000E+00 -0.31230610084E+03  0.31230610084E+03  0.00000000000E+00 0. -1.
         25    1    1    2    0    0 -0.11520852752E+03 -0.67596143712E+02  0.12811446843E+03  0.22333956317E+03  0.12500000000E+03 0.  0.
         25    1    1    2    0    0 -0.82540305651E+02 -0.12640103332E+03  0.12075525153E+03  0.23021067319E+03  0.12500000000E+03 0.  0.
         25    1    1    2    0    0  0.19774883317E+03  0.19399717703E+03 -0.99990209741E+02  0.31994147552E+03  0.12500000000E+03 0.  0.
</event>
<event>
 5    0  0.5778875E-005  0.3221250E+03  0.7546771E-02  0.1074675E+00
         21   -1    0    0  502  501  0.00000000000E+00  0.00000000000E+00  0.13062461778E+03  0.13062461778E+03  0.00000000000E+00 0.  1.
         21   -1    0    0  501  502 -0.00000000000E+00 -0.00000000000E+00 -0.79437190776E+03  0.79437190776E+03  0.00000000000E+00 0. -1.
         25    1    1    2    0    0 -0.21796410073E+03 -0.10271363393E+03 -0.21290734787E+03  0.34498257721E+03  0.12500000000E+03 0.  0.
         25    1    1    2    0    0  0.13956283624E+03  0.10039206849E+03 -0.31108015502E+03  0.37676546488E+03  0.12500000000E+03 0.  0.
         25    1    1    2    0    0  0.78401264490E+02  0.23215654415E+01 -0.13975978708E+03  0.20324848345E+03  0.12500000000E+03 0.  0.
</event>
<event>
 5    0  0.5778875E-005  0.3331842E+03  0.7546771E-02  0.1069737E+00
         21   -1    0    0  502  501  0.00000000000E+00  0.00000000000E+00  0.21030601757E+03  0.21030601757E+03  0.00000000000E+00 0. -1.
         21   -1    0    0  501  502 -0.00000000000E+00 -0.00000000000E+00 -0.52785811145E+03  0.52785811145E+03  0.00000000000E+00 0. -1.
         25    1    1    2    0    0 -0.40862455287E+00  0.12714870172E+03 -0.12012985425E+03  0.21499567718E+03  0.12500000000E+03 0.  0.
         25    1    1    2    0    0  0.77427187035E+02 -0.22093128550E+03 -0.75716437581E+01  0.26549563460E+03  0.12500000000E+03 0.  0.
         25    1    1    2    0    0 -0.77018562482E+02  0.93782583774E+02 -0.18985059587E+03  0.25767281723E+03  0.12500000000E+03 0.  0.
</event>
<event>
 5    0  0.5778875E-005  0.3168093E+03  0.7546771E-02  0.1077127E+00
         21   -1    0    0  502  501  0.00000000000E+00  0.00000000000E+00  0.27627273891E+03  0.27627273891E+03  0.00000000000E+00 0. -1.
         21   -1    0    0  501  502 -0.00000000000E+00 -0.00000000000E+00 -0.36329365042E+03  0.36329365042E+03  0.00000000000E+00 0. -1.
         25    1    1    2    0    0  0.13333857509E+03  0.74735650602E+02 -0.16289907451E+03  0.25597988506E+03  0.12500000000E+03 0.  0.
         25    1    1    2    0    0  0.28880416698E+02  0.28270666176E+02  0.80919003834E+02  0.15429256047E+03  0.12500000000E+03 0.  0.
         25    1    1    2    0    0 -0.16221899179E+03 -0.10300631678E+03 -0.50408408371E+01  0.22929394381E+03  0.12500000000E+03 0.  0.
</event>
<event>
 5    0  0.5778875E-005  0.3143955E+03  0.7546771E-02  0.1078258E+00
         21   -1    0    0  502  501  0.00000000000E+00  0.00000000000E+00  0.54051292353E+03  0.54051292353E+03  0.00000000000E+00 0.  1.
         21   -1    0    0  501  502 -0.00000000000E+00 -0.00000000000E+00 -0.18287177656E+03  0.18287177656E+03  0.00000000000E+00 0.  1.
         25    1    1    2    0    0  0.15258383047E+03 -0.35244315610E+02  0.51680104914E+02  0.20692950575E+03  0.12500000000E+03 0.  0.
         25    1    1    2    0    0 -0.16415055772E+03  0.12757654045E+03  0.25630890428E+03  0.35290286722E+03  0.12500000000E+03 0.  0.
         25    1    1    2    0    0  0.11566727254E+02 -0.92332224840E+02  0.49652137766E+02  0.16355232713E+03  0.12500000000E+03 0.  0.
</event>
<event>
 5    0  0.5778875E-005  0.2325578E+03  0.7546771E-02  0.1124852E+00
         21   -1    0    0  502  501  0.00000000000E+00  0.00000000000E+00  0.37161322866E+03  0.37161322866E+03  0.00000000000E+00 0.  1.
         21   -1    0    0  501  502 -0.00000000000E+00 -0.00000000000E+00 -0.14553602641E+03  0.14553602641E+03  0.00000000000E+00 0.  1.
         25    1    1    2    0    0 -0.10041050849E+02 -0.77192865834E+02  0.12752613089E+03  0.19480111729E+03  0.12500000000E+03 0.  0.
         25    1    1    2    0    0 -0.71540099687E+02  0.43375188569E+02  0.24758977501E+02  0.15243818358E+03  0.12500000000E+03 0.  0.
         25    1    1    2    0    0  0.81581150536E+02  0.33817677265E+02  0.73792093861E+02  0.16990995420E+03  0.12500000000E+03 0.  0.
</event>
<event>
 5    0  0.5778875E-005  0.4076828E+03  0.7546771E-02  0.1041151E+00
         21   -1    0    0  502  501  0.00000000000E+00  0.00000000000E+00  0.75812180149E+02  0.75812180149E+02  0.00000000000E+00 0. -1.
         21   -1    0    0  501  502 -0.00000000000E+00 -0.00000000000E+00 -0.21923298545E+04  0.21923298545E+04  0.00000000000E+00 0. -1.
         25    1    1    2    0    0 -0.96142952714E+01  0.22252687639E+03 -0.50876984860E+03  0.56928235897E+03  0.12500000000E+03 0.  0.
         25    1    1    2    0    0 -0.18752735341E+03 -0.20842035224E+03 -0.10530825343E+04  0.10969108330E+04  0.12500000000E+03 0.  0.
         25    1    1    2    0    0  0.19714164868E+03 -0.14106524151E+02 -0.55466529146E+03  0.60194884269E+03  0.12500000000E+03 0.  0.
</event>
<event>
 5    0  0.5778875E-005  0.3308505E+03  0.7546771E-02  0.1070761E+00
         21   -1    0    0  502  501  0.00000000000E+00  0.00000000000E+00  0.54056427711E+03  0.54056427711E+03  0.00000000000E+00 0. -1.
         21   -1    0    0  501  502 -0.00000000000E+00 -0.00000000000E+00 -0.20249586661E+03  0.20249586661E+03  0.00000000000E+00 0. -1.
         25    1    1    2    0    0 -0.10967568243E+03 -0.70966653659E+02  0.29164810553E+03  0.34314521519E+03  0.12500000000E+03 0.  0.
         25    1    1    2    0    0  0.36176131525E+02  0.44643578549E+02 -0.11646500125E+03  0.18025220696E+03  0.12500000000E+03 0.  0.
         25    1    1    2    0    0  0.73499550903E+02  0.26323075110E+02  0.16288530622E+03  0.21966272157E+03  0.12500000000E+03 0.  0.
</event>
<event>
 5    0  0.5778875E-005  0.4380271E+03  0.7546771E-02  0.1031354E+00
         21   -1    0    0  502  501  0.00000000000E+00  0.00000000000E+00  0.45196489522E+03  0.45196489522E+03  0.00000000000E+00 0.  1.
         21   -1    0    0  501  502 -0.00000000000E+00 -0.00000000000E+00 -0.42451917233E+03  0.42451917233E+03  0.00000000000E+00 0. -1.
         25    1    1    2    0    0  0.93806126569E+02 -0.82908969944E+02 -0.14431818215E+03  0.22831168252E+03  0.12500000000E+03 0.  0.
         25    1    1    2    0    0 -0.42808101451E+02  0.25842348338E+03 -0.91354548533E+02  0.30427928594E+03  0.12500000000E+03 0.  0.
         25    1    1    2    0    0 -0.50998025118E+02 -0.17551451344E+03  0.26311845357E+03  0.34389309909E+03  0.12500000000E+03 0.  0.
</event>
<event>
 5    0  0.5778875E-005  0.7184405E+03  0.7546771E-02  0.9686206E-01
         21   -1    0    0  502  501  0.00000000000E+00  0.00000000000E+00  0.98529056345E+03  0.98529056345E+03  0.00000000000E+00 0. -1.
         21   -1    0    0  501  502 -0.00000000000E+00 -0.00000000000E+00 -0.52386253466E+03  0.52386253466E+03  0.00000000000E+00 0. -1.
         25    1    1    2    0    0  0.33245427039E+02  0.32559604567E+03  0.18924362343E+02  0.35085777014E+03  0.12500000000E+03 0.  0.
         25    1    1    2    0    0 -0.33360983494E+03  0.84984056455E+02 -0.12403023502E+03  0.38668632122E+03  0.12500000000E+03 0.  0.
         25    1    1    2    0    0  0.30036440790E+03 -0.41058010213E+03  0.56653390146E+03  0.77160900675E+03  0.12500000000E+03 0.  0.
</event>
<event>
 5    0  0.5778875E-005  0.4861321E+03  0.7546771E-02  0.1017463E+00
         21   -1    0    0  502  501  0.00000000000E+00  0.00000000000E+00  0.58680422674E+03  0.58680422674E+03  0.00000000000E+00 0. -1.
         21   -1    0    0  501  502 -0.00000000000E+00 -0.00000000000E+00 -0.40273122272E+03  0.40273122272E+03  0.00000000000E+00 0. -1.
         25    1    1    2    0    0  0.19495649845E+03  0.31228453425E+03  0.96889965018E+02  0.40067734144E+03  0.12500000000E+03 0.  0.
         25    1    1    2    0    0  0.43171423035E+02 -0.21686354088E+03 -0.69451195982E+02  0.26332875983E+03  0.12500000000E+03 0.  0.
         25    1    1    2    0    0 -0.23812792148E+03 -0.95420993370E+02  0.15663423498E+03  0.32552934819E+03  0.12500000000E+03 0.  0.
</event>
<event>
 5    0  0.5778875E-005  0.2328048E+03  0.7546771E-02  0.1124681E+00
         21   -1    0    0  502  501  0.00000000000E+00  0.00000000000E+00  0.67680845359E+03  0.67680845359E+03  0.00000000000E+00 0.  1.
         21   -1    0    0  501  502 -0.00000000000E+00 -0.00000000000E+00 -0.80078904668E+02  0.80078904668E+02  0.00000000000E+00 0.  1.
         25    1    1    2    0    0  0.64118358762E+02 -0.38565170634E+02  0.18115383294E+03  0.23246536840E+03  0.12500000000E+03 0.  0.
         25    1    1    2    0    0  0.33857646521E+02  0.10606764575E+01  0.29293272255E+03  0.32028431932E+03  0.12500000000E+03 0.  0.
         25    1    1    2    0    0 -0.97976005283E+02  0.37504494177E+02  0.12264299344E+03  0.20413767054E+03  0.12500000000E+03 0.  0.
</event>
<event>
 5    0  0.5778875E-005  0.3304894E+03  0.7546771E-02  0.1070921E+00
         21   -1    0    0  502  501  0.00000000000E+00  0.00000000000E+00  0.25997121924E+03  0.25997121924E+03  0.00000000000E+00 0.  1.
         21   -1    0    0  501  502 -0.00000000000E+00 -0.00000000000E+00 -0.42013584846E+03  0.42013584846E+03  0.00000000000E+00 0.  1.
         25    1    1    2    0    0 -0.53730748058E+01 -0.95021653637E+02 -0.64592536363E+02  0.16986812634E+03  0.12500000000E+03 0.  0.
         25    1    1    2    0    0 -0.19859622274E+03  0.45015462335E+02 -0.11480349873E+03  0.26508808886E+03  0.12500000000E+03 0.  0.
         25    1    1    2    0    0  0.20396929755E+03  0.50006191302E+02  0.19231405879E+02  0.24515085250E+03  0.12500000000E+03 0.  0.
</event>
<event>
 5    0  0.5778875E-005  0.2433769E+03  0.7546771E-02  0.1117563E+00
         21   -1    0    0  502  501  0.00000000000E+00  0.00000000000E+00  0.28167881064E+02  0.28167881064E+02  0.00000000000E+00 0. -1.
         21   -1    0    0  501  502 -0.00000000000E+00 -0.00000000000E+00 -0.21028312965E+04  0.21028312965E+04  0.00000000000E+00 0. -1.
         25    1    1    2    0    0 -0.78652352467E+02 -0.59644090887E+02 -0.70220680402E+03  0.72004375265E+03  0.12500000000E+03 0.  0.
         25    1    1    2    0    0  0.10713420548E+02  0.11847699853E+03 -0.77545210177E+03  0.79441962381E+03  0.12500000000E+03 0.  0.
         25    1    1    2    0    0  0.67938931920E+02 -0.58832907647E+02 -0.59700450962E+03  0.61653580107E+03  0.12500000000E+03 0.  0.
</event>
<event>
 5    0  0.5778875E-005  0.3581331E+03  0.7546771E-02  0.1059326E+00
         21   -1    0    0  502  501  0.00000000000E+00  0.00000000000E+00  0.13007891260E+03  0.13007891260E+03  0.00000000000E+00 0.  1.
         21   -1    0    0  501  502 -0.00000000000E+00 -0.00000000000E+00 -0.98601156980E+03  0.98601156980E+03  0.00000000000E+00 0.  1.
         25    1    1    2    0    0 -0.20318591756E+03 -0.11941901374E+02 -0.72103333482E+03  0.75956645268E+03  0.12500000000E+03 0.  0.
         25    1    1    2    0    0  0.10788466983E+03 -0.28300059349E+02 -0.61783428100E+02  0.17855583813E+03  0.12500000000E+03 0.  0.
         25    1    1    2    0    0  0.95301247734E+02  0.40241960723E+02 -0.73115894274E+02  0.17796819159E+03  0.12500000000E+03 0.  0.
</event>
<event>
 5    0  0.5778875E-005  0.2399920E+03  0.7546771E-02  0.1119798E+00
         21   -1    0    0  502  501  0.00000000000E+00  0.00000000000E+00  0.35317573916E+03  0.35317573916E+03  0.00000000000E+00 0. -1.
         21   -1    0    0  501  502 -0.00000000000E+00 -0.00000000000E+00 -0.16308080066E+03  0.16308080066E+03  0.00000000000E+00 0. -1.
         25    1    1    2    0    0 -0.72866017678E+02  0.15256459761E+02 -0.41919905118E+02  0.15140837012E+03  0.12500000000E+03 0.  0.
         25    1    1    2    0    0  0.10901716295E+01  0.24998600054E+01  0.56962935333E+02  0.13739437316E+03  0.12500000000E+03 0.  0.
         25    1    1    2    0    0  0.71775846049E+02 -0.17756319767E+02  0.17505190829E+03  0.22745379655E+03  0.12500000000E+03 0.  0.
</event>
<event>
 5    0  0.5778875E-005  0.6050630E+03  0.7546771E-02  0.9894957E-01
         21   -1    0    0  502  501  0.00000000000E+00  0.00000000000E+00  0.37715306864E+03  0.37715306864E+03  0.00000000000E+00 0. -1.
         21   -1    0    0  501  502 -0.00000000000E+00 -0.00000000000E+00 -0.97069680658E+03  0.97069680658E+03  0.00000000000E+00 0. -1.
         25    1    1    2    0    0 -0.50253319139E+03 -0.10901359143E+03 -0.19946356992E+03  0.56553893525E+03  0.12500000000E+03 0.  0.
         25    1    1    2    0    0  0.30310931043E+02  0.13362941097E+03 -0.12969570910E+03  0.22632178193E+03  0.12500000000E+03 0.  0.
         25    1    1    2    0    0  0.47222226034E+03 -0.24615819540E+02 -0.26438445893E+03  0.55598915804E+03  0.12500000000E+03 0.  0.
</event>
<event>
 5    0  0.5778875E-005  0.3945588E+03  0.7546771E-02  0.1045680E+00
         21   -1    0    0  502  501  0.00000000000E+00  0.00000000000E+00  0.26795808271E+03  0.26795808271E+03  0.00000000000E+00 0. -1.
         21   -1    0    0  501  502 -0.00000000000E+00 -0.00000000000E+00 -0.58097386612E+03  0.58097386612E+03  0.00000000000E+00 0. -1.
         25    1    1    2    0    0  0.22113972522E+02 -0.13069249244E+03 -0.29772168526E+03  0.34904549450E+03  0.12500000000E+03 0.  0.
         25    1    1    2    0    0  0.69334320201E+02 -0.90774100848E+01  0.16899300556E+03  0.22152490438E+03  0.12500000000E+03 0.  0.
         25    1    1    2    0    0 -0.91448292723E+02  0.13976990253E+03 -0.18428710371E+03  0.27836154995E+03  0.12500000000E+03 0.  0.
</event>
<event>
 5    0  0.5778875E-005  0.2820570E+03  0.7546771E-02  0.1094571E+00
         21   -1    0    0  502  501  0.00000000000E+00  0.00000000000E+00  0.18299001071E+03  0.18299001071E+03  0.00000000000E+00 0.  1.
         21   -1    0    0  501  502 -0.00000000000E+00 -0.00000000000E+00 -0.43475678747E+03  0.43475678747E+03  0.00000000000E+00 0.  1.
         25    1    1    2    0    0  0.53951671585E+02 -0.29767134296E+02 -0.62662921927E+02  0.15280218236E+03  0.12500000000E+03 0.  0.
         25    1    1    2    0    0  0.37761327135E+02 -0.84012400938E+02  0.45305395844E+02  0.16174541796E+03  0.12500000000E+03 0.  0.
         25    1    1    2    0    0 -0.91712998720E+02  0.11377953523E+03 -0.23440925068E+03  0.30319919785E+03  0.12500000000E+03 0.  0.
</event>
<event>
 5    0  0.5778875E-005  0.2497632E+03  0.7546771E-02  0.1113455E+00
         21   -1    0    0  502  501  0.00000000000E+00  0.00000000000E+00  0.12949576334E+04  0.12949576334E+04  0.00000000000E+00 0.  1.
         21   -1    0    0  501  502 -0.00000000000E+00 -0.00000000000E+00 -0.48172744002E+02  0.48172744002E+02  0.00000000000E+00 0.  1.
         25    1    1    2    0    0 -0.81241755009E+00 -0.16776660576E+02  0.38492989585E+03  0.40506560096E+03  0.12500000000E+03 0.  0.
         25    1    1    2    0    0 -0.25739874725E+02  0.19295007089E+02  0.76981353223E+03  0.78055923085E+03  0.12500000000E+03 0.  0.
         25    1    1    2    0    0  0.26552292276E+02 -0.25183465123E+01  0.92041461330E+02  0.15750554561E+03  0.12500000000E+03 0.  0.
</event>
<event>
 5    0  0.6079683E-005  0.3131938E+03  0.7546771E-02  0.1078825E+00
         21   -1    0    0  502  501  0.00000000000E+00  0.00000000000E+00  0.68582584112E+03  0.68582584112E+03  0.00000000000E+00 0. -1.
         21   -1    0    0  501  502 -0.00000000000E+00 -0.00000000000E+00 -0.14302513414E+03  0.14302513414E+03  0.00000000000E+00 0.  1.
         25    1    1    2    0    0  0.51218268106E+02 -0.24749390447E+02  0.28542937890E+03  0.31675033332E+03  0.12500000000E+03 0.  0.
         25    1    1    2    0    0 -0.47672610006E+02 -0.10456024397E+03 -0.30631052927E+02  0.17253632594E+03  0.12500000000E+03 0.  0.
         25    1    1    2    0    0 -0.35456580998E+01  0.12930963442E+03  0.28800238100E+03  0.33956431601E+03  0.12500000000E+03 0.  0.
</event>
<event>
 5    0  0.6480188E-005  0.2606647E+03  0.7546771E-02  0.1106745E+00
         21   -1    0    0  502  501  0.00000000000E+00  0.00000000000E+00  0.31919425664E+03  0.31919425664E+03  0.00000000000E+00 0.  1.
         21   -1    0    0  501  502 -0.00000000000E+00 -0.00000000000E+00 -0.21286745156E+03  0.21286745156E+03  0.00000000000E+00 0.  1.
         25    1    1    2    0    0 -0.58794556855E+02 -0.33082102425E+02  0.20314261058E+03  0.24787727941E+03  0.12500000000E+03 0.  0.
         25    1    1    2    0    0  0.37986271702E+02 -0.12706151584E+02 -0.34415480217E+02  0.13569756226E+03  0.12500000000E+03 0.  0.
         25    1    1    2    0    0  0.20808285153E+02  0.45788254009E+02 -0.62400325275E+02  0.14848686653E+03  0.12500000000E+03 0.  0.
</event>
<event>
 5    0  0.5778875E-005  0.6836772E+03  0.7546771E-02  0.9745561E-01
         21   -1    0    0  502  501  0.00000000000E+00  0.00000000000E+00  0.55354681006E+03  0.55354681006E+03  0.00000000000E+00 0. -1.
         21   -1    0    0  501  502 -0.00000000000E+00 -0.00000000000E+00 -0.84439929867E+03  0.84439929867E+03  0.00000000000E+00 0. -1.
         25    1    1    2    0    0 -0.17463957671E+03  0.20004178255E+03  0.53288559670E+02  0.29829577119E+03  0.12500000000E+03 0.  0.
         25    1    1    2    0    0  0.31811196868E+03 -0.15792849121E+03  0.26478486355E+03  0.46029627080E+03  0.12500000000E+03 0.  0.
         25    1    1    2    0    0 -0.14347239196E+03 -0.42113291334E+02 -0.60892591182E+03  0.63935406673E+03  0.12500000000E+03 0.  0.
</event>
<event>
 5    0  0.5778875E-005  0.3393856E+03  0.7546771E-02  0.1067058E+00
         21   -1    0    0  502  501  0.00000000000E+00  0.00000000000E+00  0.50161750567E+03  0.50161750567E+03  0.00000000000E+00 0.  1.
         21   -1    0    0  501  502 -0.00000000000E+00 -0.00000000000E+00 -0.22962231713E+03  0.22962231713E+03  0.00000000000E+00 0.  1.
         25    1    1    2    0    0  0.10421516915E+03 -0.16523894666E+03  0.29984115667E+03  0.37907048185E+03  0.12500000000E+03 0.  0.
         25    1    1    2    0    0 -0.75596014636E+01  0.11670339850E+03  0.36085590039E+02  0.17493999144E+03  0.12500000000E+03 0.  0.
         25    1    1    2    0    0 -0.96655567688E+02  0.48535548157E+02 -0.63931558165E+02  0.17722934951E+03  0.12500000000E+03 0.  0.
</event>
<event>
 5    0  0.5778875E-005  0.2290758E+03  0.7546771E-02  0.1127292E+00
         21   -1    0    0  502  501  0.00000000000E+00  0.00000000000E+00  0.26767009132E+04  0.26767009132E+04  0.00000000000E+00 0.  1.
         21   -1    0    0  501  502 -0.00000000000E+00 -0.00000000000E+00 -0.19604618884E+02  0.19604618884E+02  0.00000000000E+00 0.  1.
         25    1    1    2    0    0 -0.91322642966E+02  0.21958350957E+02  0.12402293086E+04  0.12500462921E+04  0.12500000000E+03 0.  0.
         25    1    1    2    0    0  0.86360259597E+02  0.17076390189E+02  0.90842021919E+03  0.92119595753E+03  0.12500000000E+03 0.  0.
         25    1    1    2    0    0  0.49623833688E+01 -0.39034741147E+02  0.50844676647E+03  0.52506328247E+03  0.12500000000E+03 0.  0.
</event>
<event>
 5    0  0.5778875E-005  0.4719346E+03  0.7546771E-02  0.1021376E+00
         21   -1    0    0  502  501  0.00000000000E+00  0.00000000000E+00  0.87402594634E+03  0.87402594634E+03  0.00000000000E+00 0. -1.
         21   -1    0    0  501  502 -0.00000000000E+00 -0.00000000000E+00 -0.25482335869E+03  0.25482335869E+03  0.00000000000E+00 0. -1.
         25    1    1    2    0    0  0.46303876316E+01 -0.98664798139E+02  0.78052480070E+02  0.17740736322E+03  0.12500000000E+03 0.  0.
         25    1    1    2    0    0 -0.35586961682E+03 -0.21690884515E+02  0.35212273041E+03  0.51645822282E+03  0.12500000000E+03 0.  0.
         25    1    1    2    0    0  0.35123922918E+03  0.12035568265E+03  0.18902737718E+03  0.43498371899E+03  0.12500000000E+03 0.  0.
</event>
<event>
 5    0  0.5778875E-005  0.2504498E+03  0.7546771E-02  0.1113021E+00
         21   -1    0    0  502  501  0.00000000000E+00  0.00000000000E+00  0.87004703348E+03  0.87004703348E+03  0.00000000000E+00 0.  1.
         21   -1    0    0  501  502 -0.00000000000E+00 -0.00000000000E+00 -0.72093894107E+02  0.72093894107E+02  0.00000000000E+00 0.  1.
         25    1    1    2    0    0  0.10358579290E+02  0.51179246009E+02  0.12447315298E+03  0.18397059874E+03  0.12500000000E+03 0.  0.
         25    1    1    2    0    0 -0.10659568563E+03 -0.21299947188E+02  0.20878492635E+03  0.26651918020E+03  0.12500000000E+03 0.  0.
         25    1    1    2    0    0  0.96237106344E+02 -0.29879298821E+02  0.46469506004E+03  0.49165114864E+03  0.12500000000E+03 0.  0.
</event>
<event>
 5    0  0.5819281E-005  0.3075777E+03  0.7546771E-02  0.1081513E+00
         21   -1    0    0  502  501  0.00000000000E+00  0.00000000000E+00  0.39163030824E+03  0.39163030824E+03  0.00000000000E+00 0. -1.
         21   -1    0    0  501  502 -0.00000000000E+00 -0.00000000000E+00 -0.24156465522E+03  0.24156465522E+03  0.00000000000E+00 0. -1.
         25    1    1    2    0    0 -0.43347902281E+02 -0.11821511503E+03  0.11010647343E+03  0.20881161257E+03  0.12500000000E+03 0.  0.
         25    1    1    2    0    0 -0.65126825487E+02  0.13328074987E+03 -0.89582312420E+02  0.21367089737E+03  0.12500000000E+03 0.  0.
         25    1    1    2    0    0  0.10847472777E+03 -0.15065634844E+02  0.12954149201E+03  0.21071245353E+03  0.12500000000E+03 0.  0.
</event>
<event>
 5    0  0.5778875E-005  0.3710813E+03  0.7546771E-02  0.1054280E+00
         21   -1    0    0  502  501  0.00000000000E+00  0.00000000000E+00  0.63456819474E+03  0.63456819474E+03  0.00000000000E+00 0. -1.
         21   -1    0    0  501  502 -0.00000000000E+00 -0.00000000000E+00 -0.21700008304E+03  0.21700008304E+03  0.00000000000E+00 0. -1.
         25    1    1    2    0    0  0.94379693325E+02  0.15421630611E+03  0.38033661306E+03  0.43928479921E+03  0.12500000000E+03 0.  0.
         25    1    1    2    0    0  0.40883346033E+02  0.67472095473E+01  0.93233635473E+02  0.16135204865E+03  0.12500000000E+03 0.  0.
         25    1    1    2    0    0 -0.13526303936E+03 -0.16096351566E+03 -0.56002136839E+02  0.25093142992E+03  0.12500000000E+03 0.  0.
</event>
<event>
 5    0  0.5778875E-005  0.4511441E+03  0.7546771E-02  0.1027381E+00
         21   -1    0    0  502  501  0.00000000000E+00  0.00000000000E+00  0.49154793149E+03  0.49154793149E+03  0.00000000000E+00 0. -1.
         21   -1    0    0  501  502 -0.00000000000E+00 -0.00000000000E+00 -0.41406132638E+03  0.41406132638E+03  0.00000000000E+00 0. -1.
         25    1    1    2    0    0 -0.65192989591E+02  0.51633070489E+02 -0.49888414687E+02  0.15820857682E+03  0.12500000000E+03 0.  0.
         25    1    1    2    0    0  0.34212483155E+03  0.94644966910E+02  0.15932415772E+03  0.40867622558E+03  0.12500000000E+03 0.  0.
         25    1    1    2    0    0 -0.27693184196E+03 -0.14627803740E+03 -0.31949137928E+02  0.33872445546E+03  0.12500000000E+03 0.  0.
</event>
<event>
 5    0  0.5778875E-005  0.2643645E+03  0.7546771E-02  0.1104549E+00
         21   -1    0    0  502  501  0.00000000000E+00  0.00000000000E+00  0.10081433003E+03  0.10081433003E+03  0.00000000000E+00 0. -1.
         21   -1    0    0  501  502 -0.00000000000E+00 -0.00000000000E+00 -0.69324069662E+03  0.69324069662E+03  0.00000000000E+00 0. -1.
         25    1    1    2    0    0 -0.11008445653E+03  0.28528218610E+02 -0.20578469432E+03  0.26627952840E+03  0.12500000000E+03 0.  0.
         25    1    1    2    0    0  0.79475070202E+02 -0.12102207456E+03 -0.27047469466E+03  0.33127660613E+03  0.12500000000E+03 0.  0.
         25    1    1    2    0    0  0.30609386326E+02  0.92493855951E+02 -0.11616697761E+03  0.19649889212E+03  0.12500000000E+03 0.  0.
</event>
<event>
 5    0  0.5778875E-005  0.3687164E+03  0.7546771E-02  0.1055185E+00
         21   -1    0    0  502  501  0.00000000000E+00  0.00000000000E+00  0.23499415147E+03  0.23499415147E+03  0.00000000000E+00 0.  1.
         21   -1    0    0  501  502 -0.00000000000E+00 -0.00000000000E+00 -0.57853268249E+03  0.57853268249E+03  0.00000000000E+00 0.  1.
         25    1    1    2    0    0 -0.64372698810E+02  0.17957916401E+03 -0.27007572656E+03  0.35349458069E+03  0.12500000000E+03 0.  0.
         25    1    1    2    0    0  0.13831117877E+02  0.72165913633E+02  0.43572244429E+02  0.15140263999E+03  0.12500000000E+03 0.  0.
         25    1    1    2    0    0  0.50541580933E+02 -0.25174507764E+03 -0.11703504890E+03  0.30862961328E+03  0.12500000000E+03 0.  0.
</event>
<event>
 5    0  0.6050887E-005  0.3133480E+03  0.7546771E-02  0.1078752E+00
         21   -1    0    0  502  501  0.00000000000E+00  0.00000000000E+00  0.17406262489E+03  0.17406262489E+03  0.00000000000E+00 0. -1.
         21   -1    0    0  501  502 -0.00000000000E+00 -0.00000000000E+00 -0.56408978595E+03  0.56408978595E+03  0.00000000000E+00 0. -1.
         25    1    1    2    0    0 -0.16395152515E+03  0.30852458464E+02 -0.15395996993E+03  0.25915371719E+03  0.12500000000E+03 0.  0.
         25    1    1    2    0    0  0.10470989562E+03 -0.12544002466E+03 -0.23377466206E+03  0.31140801957E+03  0.12500000000E+03 0.  0.
         25    1    1    2    0    0  0.59241629525E+02  0.94587566201E+02 -0.22925290690E+01  0.16759067408E+03  0.12500000000E+03 0.  0.
</event>
<event>
 5    0  0.5778875E-005  0.2789484E+03  0.7546771E-02  0.1096265E+00
         21   -1    0    0  502  501  0.00000000000E+00  0.00000000000E+00  0.15136108260E+03  0.15136108260E+03  0.00000000000E+00 0.  1.
         21   -1    0    0  501  502 -0.00000000000E+00 -0.00000000000E+00 -0.51408323637E+03  0.51408323637E+03  0.00000000000E+00 0.  1.
         25    1    1    2    0    0 -0.43906957885E+02 -0.16407082672E+03 -0.39321130214E+02  0.21451855027E+03  0.12500000000E+03 0.  0.
         25    1    1    2    0    0 -0.12192282790E+02  0.89078030168E+02 -0.19674522842E+03  0.24983440941E+03  0.12500000000E+03 0.  0.
         25    1    1    2    0    0  0.56099240675E+02  0.74992796549E+02 -0.12665579513E+03  0.20109135929E+03  0.12500000000E+03 0.  0.
</event>
<event>
 5    0  0.5778875E-005  0.3736372E+03  0.7546771E-02  0.1053311E+00
         21   -1    0    0  502  501  0.00000000000E+00  0.00000000000E+00  0.11243973696E+03  0.11243973696E+03  0.00000000000E+00 0.  1.
         21   -1    0    0  501  502 -0.00000000000E+00 -0.00000000000E+00 -0.12415959942E+04  0.12415959942E+04  0.00000000000E+00 0.  1.
         25    1    1    2    0    0 -0.41842281891E+01 -0.98389120121E+02 -0.11492331658E+03  0.19629135340E+03  0.12500000000E+03 0.  0.
         25    1    1    2    0    0 -0.11500631849E+03 -0.16159861439E+03 -0.32116415509E+03  0.39763297144E+03  0.12500000000E+03 0.  0.
         25    1    1    2    0    0  0.11919054667E+03  0.25998773451E+03 -0.69306878559E+03  0.76011140635E+03  0.12500000000E+03 0.  0.
</event>
<event>
 5    0  0.5778875E-005  0.3515129E+03  0.7546771E-02  0.1061996E+00
         21   -1    0    0  502  501  0.00000000000E+00  0.00000000000E+00  0.39076609867E+03  0.39076609867E+03  0.00000000000E+00 0.  1.
         21   -1    0    0  501  502 -0.00000000000E+00 -0.00000000000E+00 -0.31620273676E+03  0.31620273676E+03  0.00000000000E+00 0.  1.
         25    1    1    2    0    0  0.15799280161E+03  0.13330164020E+03  0.13835212788E+03  0.27838348358E+03  0.12500000000E+03 0.  0.
         25    1    1    2    0    0 -0.19832746208E+03  0.17245630525E+01 -0.20723265227E+02  0.23535337273E+03  0.12500000000E+03 0.  0.
         25    1    1    2    0    0  0.40334660472E+02 -0.13502620325E+03 -0.43065500745E+02  0.19323197912E+03  0.12500000000E+03 0.  0.
</event>
<event>
 5    0  0.5778875E-005  0.2340226E+03  0.7546771E-02  0.1123840E+00
         21   -1    0    0  502  501  0.00000000000E+00  0.00000000000E+00  0.18070265244E+04  0.18070265244E+04  0.00000000000E+00 0.  1.
         21   -1    0    0  501  502 -0.00000000000E+00 -0.00000000000E+00 -0.30307567900E+02  0.30307567900E+02  0.00000000000E+00 0.  1.
         25    1    1    2    0    0  0.86048606791E+02  0.64013962724E+02  0.44715665737E+03  0.47652515819E+03  0.12500000000E+03 0.  0.
         25    1    1    2    0    0 -0.53745486928E+02  0.64307187581E+01  0.49568401156E+03  0.51405989031E+03  0.12500000000E+03 0.  0.
         25    1    1    2    0    0 -0.32303119863E+02 -0.70444681482E+02  0.83387828761E+03  0.84674904384E+03  0.12500000000E+03 0.  0.
</event>
<event>
 5    0  0.5778875E-005  0.2675241E+03  0.7546771E-02  0.1102705E+00
         21   -1    0    0  502  501  0.00000000000E+00  0.00000000000E+00  0.73797262980E+02  0.73797262980E+02  0.00000000000E+00 0. -1.
         21   -1    0    0  501  502 -0.00000000000E+00 -0.00000000000E+00 -0.96980757306E+03  0.96980757306E+03  0.00000000000E+00 0. -1.
         25    1    1    2    0    0 -0.42581141259E+02  0.12716695221E+03 -0.17053546537E+03  0.25038357029E+03  0.12500000000E+03 0.  0.
         25    1    1    2    0    0  0.34344187454E+01 -0.13952961606E+03 -0.38385967493E+03  0.42714582876E+03  0.12500000000E+03 0.  0.
         25    1    1    2    0    0  0.39146722513E+02  0.12362663850E+02 -0.34161516978E+03  0.36607543699E+03  0.12500000000E+03 0.  0.
</event>
<event>
 5    0  0.5778875E-005  0.4378429E+03  0.7546771E-02  0.1031411E+00
         21   -1    0    0  502  501  0.00000000000E+00  0.00000000000E+00  0.69033594857E+03  0.69033594857E+03  0.00000000000E+00 0.  1.
         21   -1    0    0  501  502 -0.00000000000E+00 -0.00000000000E+00 -0.27770021067E+03  0.27770021067E+03  0.00000000000E+00 0.  1.
         25    1    1    2    0    0  0.28521508837E+03  0.64435636803E+02 -0.40391125776E+02  0.32055583127E+03  0.12500000000E+03 0.  0.
         25    1    1    2    0    0 -0.24988882282E+03 -0.12245399443E+03  0.22638299026E+03  0.37988638144E+03  0.12500000000E+03 0.  0.
         25    1    1    2    0    0 -0.35326265544E+02  0.58018357623E+02  0.22664387341E+03  0.26759394652E+03  0.12500000000E+03 0.  0.
</event>
<event>
 5    0  0.5778875E-005  0.2219007E+03  0.7546771E-02  0.1132474E+00
         21   -1    0    0  502  501  0.00000000000E+00  0.00000000000E+00  0.23662361233E+03  0.23662361233E+03  0.00000000000E+00 0.  1.
         21   -1    0    0  501  502 -0.00000000000E+00 -0.00000000000E+00 -0.20809379921E+03  0.20809379921E+03  0.00000000000E+00 0.  1.
         25    1    1    2    0    0 -0.20937499715E+02 -0.41258534015E+02 -0.87369812810E+02  0.15937104415E+03  0.12500000000E+03 0.  0.
         25    1    1    2    0    0  0.17067257959E+02  0.48304215872E+02  0.68019257392E+02  0.15124882790E+03  0.12500000000E+03 0.  0.
         25    1    1    2    0    0  0.38702417561E+01 -0.70456818566E+01  0.47880368538E+02  0.13409753948E+03  0.12500000000E+03 0.  0.
</event>
<event>
 5    0  0.5778875E-005  0.3238533E+03  0.7546771E-02  0.1073889E+00
         21   -1    0    0  502  501  0.00000000000E+00  0.00000000000E+00  0.23111709035E+03  0.23111709035E+03  0.00000000000E+00 0. -1.
         21   -1    0    0  501  502 -0.00000000000E+00 -0.00000000000E+00 -0.45380000185E+03  0.45380000185E+03  0.00000000000E+00 0. -1.
         25    1    1    2    0    0 -0.74507069083E+02  0.54801846286E+02  0.14700983709E+03  0.21398934062E+03  0.12500000000E+03 0.  0.
         25    1    1    2    0    0 -0.41378067758E+01 -0.14534456450E+02 -0.23690103949E+03  0.26828245262E+03  0.12500000000E+03 0.  0.
         25    1    1    2    0    0  0.78644875858E+02 -0.40267389836E+02 -0.13279170910E+03  0.20264529895E+03  0.12500000000E+03 0.  0.
</event>
<event>
 5    0  0.6208321E-005  0.5685307E+03  0.7546771E-02  0.9972935E-01
         21   -1    0    0  502  501  0.00000000000E+00  0.00000000000E+00  0.36223721934E+03  0.36223721934E+03  0.00000000000E+00 0.  1.
         21   -1    0    0  501  502 -0.00000000000E+00 -0.00000000000E+00 -0.89230803951E+03  0.89230803951E+03  0.00000000000E+00 0.  1.
         25    1    1    2    0    0 -0.37417094775E+03 -0.70179282693E+02 -0.28935387965E+03  0.49424659587E+03  0.12500000000E+03 0.  0.
         25    1    1    2    0    0  0.35124786829E+02 -0.44368879462E+02  0.15859223778E+03  0.20971133970E+03  0.12500000000E+03 0.  0.
         25    1    1    2    0    0  0.33904616092E+03  0.11454816215E+03 -0.39930917831E+03  0.55058732329E+03  0.12500000000E+03 0.  0.
</event>
<event>
 5    0  0.5778875E-005  0.2707109E+03  0.7546771E-02  0.1100873E+00
         21   -1    0    0  502  501  0.00000000000E+00  0.00000000000E+00  0.95661360945E+03  0.95661360945E+03  0.00000000000E+00 0.  1.
         21   -1    0    0  501  502 -0.00000000000E+00 -0.00000000000E+00 -0.76608123943E+02  0.76608123943E+02  0.00000000000E+00 0.  1.
         25    1    1    2    0    0 -0.12638065459E+02  0.10675975998E+03  0.14855613884E+03  0.22192632434E+03  0.12500000000E+03 0.  0.
         25    1    1    2    0    0 -0.55488564435E+02  0.31122020009E+02  0.41345915253E+03  0.43660168543E+03  0.12500000000E+03 0.  0.
         25    1    1    2    0    0  0.68126629894E+02 -0.13788177998E+03  0.31799019414E+03  0.37469372362E+03  0.12500000000E+03 0.  0.
</event>
<event>
 5    0  0.5778875E-005  0.2186006E+03  0.7546771E-02  0.1134931E+00
         21   -1    0    0  502  501  0.00000000000E+00  0.00000000000E+00  0.26216800418E+02  0.26216800418E+02  0.00000000000E+00 0.  1.
         21   -1    0    0  501  502 -0.00000000000E+00 -0.00000000000E+00 -0.18227328715E+04  0.18227328715E+04  0.00000000000E+00 0.  1.
         25    1    1    2    0    0 -0.46943042862E+01 -0.31565348881E+02 -0.43087855391E+03  0.44977742936E+03  0.12500000000E+03 0.  0.
         25    1    1    2    0    0 -0.76286997843E+02  0.46002022926E+01 -0.81726797996E+03  0.83029682582E+03  0.12500000000E+03 0.  0.
         25    1    1    2    0    0  0.80981302129E+02  0.26965146588E+02 -0.54836953722E+03  0.56887541674E+03  0.12500000000E+03 0.  0.
</event>
<event>
 5    0  0.5778875E-005  0.2444999E+03  0.7546771E-02  0.1116831E+00
         21   -1    0    0  502  501  0.00000000000E+00  0.00000000000E+00  0.42202534809E+02  0.42202534809E+02  0.00000000000E+00 0. -1.
         21   -1    0    0  501  502 -0.00000000000E+00 -0.00000000000E+00 -0.14165075475E+04  0.14165075475E+04  0.00000000000E+00 0. -1.
         25    1    1    2    0    0 -0.34290549237E+02  0.17643798112E+02 -0.22274270109E+03  0.25831464587E+03  0.12500000000E+03 0.  0.
         25    1    1    2    0    0 -0.93087936254E+02  0.18035512007E+02 -0.53738519907E+03  0.55982005658E+03  0.12500000000E+03 0.  0.
         25    1    1    2    0    0  0.12737848549E+03 -0.35679310119E+02 -0.61417711257E+03  0.64057537991E+03  0.12500000000E+03 0.  0.
</event>
<event>
 5    0  0.5778875E-005  0.2740326E+03  0.7546771E-02  0.1098994E+00
         21   -1    0    0  502  501  0.00000000000E+00  0.00000000000E+00  0.37400352396E+03  0.37400352396E+03  0.00000000000E+00 0. -1.
         21   -1    0    0  501  502 -0.00000000000E+00 -0.00000000000E+00 -0.20078389119E+03  0.20078389119E+03  0.00000000000E+00 0. -1.
         25    1    1    2    0    0  0.88691484479E+02  0.46796940303E+02  0.89706241610E+01  0.16050422156E+03  0.12500000000E+03 0.  0.
         25    1    1    2    0    0  0.43385794587E+02  0.68598877169E+02  0.10008930295E+02  0.14937640981E+03  0.12500000000E+03 0.  0.
         25    1    1    2    0    0 -0.13207727907E+03 -0.11539581747E+03  0.15424007832E+03  0.26490678379E+03  0.12500000000E+03 0.  0.
</event>
<event>
 5    0  0.5778875E-005  0.2063869E+03  0.7546771E-02  0.1144460E+00
         21   -1    0    0  502  501  0.00000000000E+00  0.00000000000E+00  0.11098592315E+04  0.11098592315E+04  0.00000000000E+00 0. -1.
         21   -1    0    0  501  502 -0.00000000000E+00 -0.00000000000E+00 -0.38379256187E+02  0.38379256187E+02  0.00000000000E+00 0. -1.
         25    1    1    2    0    0 -0.13577489041E+02 -0.26169886432E+02  0.41969275554E+03  0.43890342926E+03  0.12500000000E+03 0.  0.
         25    1    1    2    0    0  0.14380376294E+02  0.73295951078E+02  0.31540943952E+03  0.34740064220E+03  0.12500000000E+03 0.  0.
         25    1    1    2    0    0 -0.80288725332E+00 -0.47126064646E+02  0.33637778026E+03  0.36193441623E+03  0.12500000000E+03 0.  0.
</event>
<event>
 5    0  0.5778875E-005  0.3923150E+03  0.7546771E-02  0.1046474E+00
         21   -1    0    0  502  501  0.00000000000E+00  0.00000000000E+00  0.14831719260E+04  0.14831719260E+04  0.00000000000E+00 0.  1.
         21   -1    0    0  501  502 -0.00000000000E+00 -0.00000000000E+00 -0.10377156801E+03  0.10377156801E+03  0.00000000000E+00 0.  1.
         25    1    1    2    0    0 -0.61180667763E+02 -0.30269920481E+03  0.47631340698E+03  0.58126529603E+03  0.12500000000E+03 0.  0.
         25    1    1    2    0    0 -0.13960503777E+02  0.24655684262E+02  0.28086913726E+03  0.30873171314E+03  0.12500000000E+03 0.  0.
         25    1    1    2    0    0  0.75141171540E+02  0.27804352055E+03  0.62221781378E+03  0.69694648486E+03  0.12500000000E+03 0.  0.
</event>
<event>
 5    0  0.5778875E-005  0.4518666E+03  0.7546771E-02  0.1027167E+00
         21   -1    0    0  502  501  0.00000000000E+00  0.00000000000E+00  0.62633237739E+03  0.62633237739E+03  0.00000000000E+00 0.  1.
         21   -1    0    0  501  502 -0.00000000000E+00 -0.00000000000E+00 -0.32599851782E+03  0.32599851782E+03  0.00000000000E+00 0.  1.
         25    1    1    2    0    0 -0.27713321336E+03 -0.87416246891E+02  0.29601668767E+03  0.43323815338E+03  0.12500000000E+03 0.  0.
         25    1    1    2    0    0  0.10874250189E+03 -0.12424327227E+03 -0.57208566165E+02  0.21484678835E+03  0.12500000000E+03 0.  0.
         25    1    1    2    0    0  0.16839071147E+03  0.21165951916E+03  0.61525738062E+02  0.30424595347E+03  0.12500000000E+03 0.  0.
</event>
<event>
 5    0  0.5778875E-005  0.5684346E+03  0.7546771E-02  0.9973149E-01
         21   -1    0    0  502  501  0.00000000000E+00  0.00000000000E+00  0.28833680013E+04  0.28833680013E+04  0.00000000000E+00 0. -1.
         21   -1    0    0  501  502 -0.00000000000E+00 -0.00000000000E+00 -0.11206267075E+03  0.11206267075E+03  0.00000000000E+00 0. -1.
         25    1    1    2    0    0  0.17275281421E+03  0.84858042597E+01  0.33283385898E+03  0.39537187732E+03  0.12500000000E+03 0.  0.
         25    1    1    2    0    0  0.97104625997E+02 -0.34398639065E+03  0.16513414566E+04  0.16941987934E+04  0.12500000000E+03 0.  0.
         25    1    1    2    0    0 -0.26985744021E+03  0.33550058639E+03  0.78713001499E+03  0.90586000132E+03  0.12500000000E+03 0.  0.
</event>
<event>
 5    0  0.5778875E-005  0.2471584E+03  0.7546771E-02  0.1115114E+00
         21   -1    0    0  502  501  0.00000000000E+00  0.00000000000E+00  0.62542063293E+03  0.62542063293E+03  0.00000000000E+00 0. -1.
         21   -1    0    0  501  502 -0.00000000000E+00 -0.00000000000E+00 -0.97673911969E+02  0.97673911969E+02  0.00000000000E+00 0. -1.
         25    1    1    2    0    0 -0.86504011075E+02 -0.20570233162E+02  0.16709393398E+03  0.22682914539E+03  0.12500000000E+03 0.  0.
         25    1    1    2    0    0  0.63137833149E+02 -0.11579539961E+02  0.34450995504E+02  0.14468013966E+03  0.12500000000E+03 0.  0.
         25    1    1    2    0    0  0.23366177926E+02  0.32149773122E+02  0.32620179147E+03  0.35158525985E+03  0.12500000000E+03 0.  0.
</event>
<event>
 5    0  0.5778875E-005  0.7193255E+03  0.7546771E-02  0.9684742E-01
         21   -1    0    0  502  501  0.00000000000E+00  0.00000000000E+00  0.96643092196E+03  0.96643092196E+03  0.00000000000E+00 0. -1.
         21   -1    0    0  501  502 -0.00000000000E+00 -0.00000000000E+00 -0.53540206932E+03  0.53540206932E+03  0.00000000000E+00 0. -1.
         25    1    1    2    0    0  0.26259127070E+03  0.35191815193E+03  0.49794946163E+03  0.67555845597E+03  0.12500000000E+03 0.  0.
         25    1    1    2    0    0 -0.44977756208E+03 -0.22736965158E+03 -0.17400294733E+03  0.54763020323E+03  0.12500000000E+03 0.  0.
         25    1    1    2    0    0  0.18718629138E+03 -0.12454850035E+03  0.10708233834E+03  0.27864433208E+03  0.12500000000E+03 0.  0.
</event>
<event>
 5    0  0.5778875E-005  0.6103586E+03  0.7546771E-02  0.9884145E-01
         21   -1    0    0  502  501  0.00000000000E+00  0.00000000000E+00  0.11748709401E+04  0.11748709401E+04  0.00000000000E+00 0.  1.
         21   -1    0    0  501  502 -0.00000000000E+00 -0.00000000000E+00 -0.31708816873E+03  0.31708816873E+03  0.00000000000E+00 0.  1.
         25    1    1    2    0    0 -0.12238827595E+03 -0.61593883340E+02 -0.11696933978E+03  0.21927043349E+03  0.12500000000E+03 0.  0.
         25    1    1    2    0    0  0.20816133608E+03 -0.74725797169E+02 -0.22282901962E+02  0.25502277216E+03  0.12500000000E+03 0.  0.
         25    1    1    2    0    0 -0.85773060125E+02  0.13631968051E+03  0.99703501314E+03  0.10176659032E+04  0.12500000000E+03 0.  0.
</event>
<event>
 5    0  0.5778875E-005  0.2657947E+03  0.7546771E-02  0.1103711E+00
         21   -1    0    0  502  501  0.00000000000E+00  0.00000000000E+00  0.77471235367E+03  0.77471235367E+03  0.00000000000E+00 0.  1.
         21   -1    0    0  501  502 -0.00000000000E+00 -0.00000000000E+00 -0.91191025924E+02  0.91191025924E+02  0.00000000000E+00 0.  1.
         25    1    1    2    0    0 -0.80511923192E+02 -0.90414726570E+01  0.31976017794E+03  0.35275414867E+03  0.12500000000E+03 0.  0.
         25    1    1    2    0    0 -0.18163515647E+02 -0.10639927539E+03  0.16027722978E+03  0.23014019529E+03  0.12500000000E+03 0.  0.
         25    1    1    2    0    0  0.98675438839E+02  0.11544074805E+03  0.20348392003E+03  0.28300903564E+03  0.12500000000E+03 0.  0.
</event>
<event>
 5    0  0.5778875E-005  0.2563324E+03  0.7546771E-02  0.1109367E+00
         21   -1    0    0  502  501  0.00000000000E+00  0.00000000000E+00  0.11550274057E+03  0.11550274057E+03  0.00000000000E+00 0.  1.
         21   -1    0    0  501  502 -0.00000000000E+00 -0.00000000000E+00 -0.56887207924E+03  0.56887207924E+03  0.00000000000E+00 0.  1.
         25    1    1    2    0    0  0.73289803064E+02 -0.11344804530E+02 -0.21766725824E+03  0.26173294621E+03  0.12500000000E+03 0.  0.
         25    1    1    2    0    0 -0.69051318580E+02  0.37517991187E+02 -0.25376159796E+03  0.29359092776E+03  0.12500000000E+03 0.  0.
         25    1    1    2    0    0 -0.42384844840E+01 -0.26173186657E+02  0.18059517534E+02  0.12905094585E+03  0.12500000000E+03 0.  0.
</event>
<event>
 5    0  0.5778875E-005  0.3037342E+03  0.7546771E-02  0.1083389E+00
         21   -1    0    0  502  501  0.00000000000E+00  0.00000000000E+00  0.69257295295E+03  0.69257295295E+03  0.00000000000E+00 0.  1.
         21   -1    0    0  501  502 -0.00000000000E+00 -0.00000000000E+00 -0.13320541488E+03  0.13320541488E+03  0.00000000000E+00 0.  1.
         25    1    1    2    0    0  0.80647986543E+02  0.20337925074E+03  0.30553443764E+03  0.39603473326E+03  0.12500000000E+03 0.  0.
         25    1    1    2    0    0 -0.40734203497E+02 -0.58478582869E+02  0.15208140342E+03  0.20936277906E+03  0.12500000000E+03 0.  0.
         25    1    1    2    0    0 -0.39913783046E+02 -0.14490066788E+03  0.10175169701E+03  0.22038085550E+03  0.12500000000E+03 0.  0.
</event>
<event>
 5    0  0.5778875E-005  0.2701306E+03  0.7546771E-02  0.1101205E+00
         21   -1    0    0  502  501  0.00000000000E+00  0.00000000000E+00  0.26812099859E+03  0.26812099859E+03  0.00000000000E+00 0.  1.
         21   -1    0    0  501  502 -0.00000000000E+00 -0.00000000000E+00 -0.27215529860E+03  0.27215529860E+03  0.00000000000E+00 0.  1.
         25    1    1    2    0    0  0.26727604532E+02  0.14345189281E+02  0.47177106024E+02  0.13700667368E+03  0.12500000000E+03 0.  0.
         25    1    1    2    0    0 -0.51465869617E+02 -0.69040570651E+02 -0.16477546759E+03  0.22403412876E+03  0.12500000000E+03 0.  0.
         25    1    1    2    0    0  0.24738265085E+02  0.54695381370E+02  0.11356406155E+03  0.17923549475E+03  0.12500000000E+03 0.  0.
</event>
<event>
 5    0  0.5778875E-005  0.3520348E+03  0.7546771E-02  0.1061783E+00
         21   -1    0    0  502  501  0.00000000000E+00  0.00000000000E+00  0.75358347185E+02  0.75358347185E+02  0.00000000000E+00 0. -1.
         21   -1    0    0  501  502 -0.00000000000E+00 -0.00000000000E+00 -0.16445221449E+04  0.16445221449E+04  0.00000000000E+00 0. -1.
         25    1    1    2    0    0  0.14526558590E+03 -0.12121083262E+03 -0.65702727763E+03  0.69505683217E+03  0.12500000000E+03 0.  0.
         25    1    1    2    0    0  0.61423188569E+02  0.14589218429E+02 -0.10339245466E+03  0.17407082774E+03  0.12500000000E+03 0.  0.
         25    1    1    2    0    0 -0.20668877447E+03  0.10662161420E+03 -0.80874406545E+03  0.85075283220E+03  0.12500000000E+03 0.  0.
</event>
<event>
 5    0  0.5778875E-005  0.3643820E+03  0.7546771E-02  0.1056862E+00
         21   -1    0    0  502  501  0.00000000000E+00  0.00000000000E+00  0.16424576318E+03  0.16424576318E+03  0.00000000000E+00 0.  1.
         21   -1    0    0  501  502 -0.00000000000E+00 -0.00000000000E+00 -0.80838757156E+03  0.80838757156E+03  0.00000000000E+00 0.  1.
         25    1    1    2    0    0  0.50156223540E+02  0.77487459129E+02 -0.23154201307E+03  0.27884880652E+03  0.12500000000E+03 0.  0.
         25    1    1    2    0    0  0.39188846377E+02  0.85829341969E+02 -0.44079198650E+03  0.46778736300E+03  0.12500000000E+03 0.  0.
         25    1    1    2    0    0 -0.89345069918E+02 -0.16331680110E+03  0.28192191192E+02  0.22599716521E+03  0.12500000000E+03 0.  0.
</event>
<event>
 5    0  0.5778875E-005  0.3782944E+03  0.7546771E-02  0.1051566E+00
         21   -1    0    0  502  501  0.00000000000E+00  0.00000000000E+00  0.22335271387E+03  0.22335271387E+03  0.00000000000E+00 0.  1.
         21   -1    0    0  501  502 -0.00000000000E+00 -0.00000000000E+00 -0.64072034676E+03  0.64072034676E+03  0.00000000000E+00 0.  1.
         25    1    1    2    0    0  0.24583219455E+03 -0.63588962207E+02  0.84227440731E+01  0.28314831204E+03  0.12500000000E+03 0.  0.
         25    1    1    2    0    0 -0.13510560565E+03  0.90788603084E+02 -0.32382490387E+03  0.38338448521E+03  0.12500000000E+03 0.  0.
         25    1    1    2    0    0 -0.11072658890E+03 -0.27199640878E+02 -0.10196547309E+03  0.19754026338E+03  0.12500000000E+03 0.  0.
</event>
<event>
 5    0  0.5778875E-005  0.2519358E+03  0.7546771E-02  0.1112087E+00
         21   -1    0    0  502  501  0.00000000000E+00  0.00000000000E+00  0.42570836366E+03  0.42570836366E+03  0.00000000000E+00 0. -1.
         21   -1    0    0  501  502 -0.00000000000E+00 -0.00000000000E+00 -0.14909658620E+03  0.14909658620E+03  0.00000000000E+00 0. -1.
         25    1    1    2    0    0 -0.56389477128E+02  0.32838897161E+02  0.13063269681E+03  0.19221880182E+03  0.12500000000E+03 0.  0.
         25    1    1    2    0    0 -0.71117832151E+02 -0.85153327170E+02  0.59529349856E+02  0.17741921731E+03  0.12500000000E+03 0.  0.
         25    1    1    2    0    0  0.12750730928E+03  0.52314430009E+02  0.86449730793E+02  0.20516693072E+03  0.12500000000E+03 0.  0.
</event>
<event>
 5    0  0.5778875E-005  0.3357062E+03  0.7546771E-02  0.1068640E+00
         21   -1    0    0  502  501  0.00000000000E+00  0.00000000000E+00  0.58288821487E+03  0.58288821487E+03  0.00000000000E+00 0. -1.
         21   -1    0    0  501  502 -0.00000000000E+00 -0.00000000000E+00 -0.19334524480E+03  0.19334524480E+03  0.00000000000E+00 0. -1.
         25    1    1    2    0    0  0.14340301224E+03 -0.77544937017E+02 -0.10962695978E+02  0.20572511242E+03  0.12500000000E+03 0.  0.
         25    1    1    2    0    0  0.49210513981E+02  0.67453482369E+02  0.26228350669E+03  0.30230660735E+03  0.12500000000E+03 0.  0.
         25    1    1    2    0    0 -0.19261352623E+03  0.10091454648E+02  0.13822215937E+03  0.26820173989E+03  0.12500000000E+03 0.  0.
</event>
<event>
 5    0  0.5778875E-005  0.3955606E+03  0.7546771E-02  0.1045328E+00
         21   -1    0    0  502  501  0.00000000000E+00  0.00000000000E+00  0.75160270671E+03  0.75160270671E+03  0.00000000000E+00 0. -1.
         21   -1    0    0  501  502 -0.00000000000E+00 -0.00000000000E+00 -0.20817939653E+03  0.20817939653E+03  0.00000000000E+00 0. -1.
         25    1    1    2    0    0  0.12311121114E+03 -0.96010890049E+02  0.53713602767E+03  0.57316190866E+03  0.12500000000E+03 0.  0.
         25    1    1    2    0    0 -0.45156626236E+01  0.86582464992E+02 -0.10175831687E+03  0.18302095373E+03  0.12500000000E+03 0.  0.
         25    1    1    2    0    0 -0.11859554852E+03  0.94284250575E+01  0.10804559938E+03  0.20359924084E+03  0.12500000000E+03 0.  0.
</event>
<event>
 5    0  0.5778875E-005  0.3264212E+03  0.7546771E-02  0.1072731E+00
         21   -1    0    0  502  501  0.00000000000E+00  0.00000000000E+00  0.17356702927E+04  0.17356702927E+04  0.00000000000E+00 0. -1.
         21   -1    0    0  501  502 -0.00000000000E+00 -0.00000000000E+00 -0.61388847400E+02  0.61388847400E+02  0.00000000000E+00 0. -1.
         25    1    1    2    0    0 -0.11932850290E+02 -0.22368049737E+02  0.34275524068E+03  0.36571693641E+03  0.12500000000E+03 0.  0.
         25    1    1    2    0    0 -0.55972728861E+02  0.19343711711E+03  0.10282193515E+04  0.10551828749E+04  0.12500000000E+03 0.  0.
         25    1    1    2    0    0  0.67905579151E+02 -0.17106906737E+03  0.30330685310E+03  0.37615932878E+03  0.12500000000E+03 0.  0.
</event>
<event>
 5    0  0.5778875E-005  0.3444785E+03  0.7546771E-02  0.1064904E+00
         21   -1    0    0  502  501  0.00000000000E+00  0.00000000000E+00  0.84444044061E+02  0.84444044061E+02  0.00000000000E+00 0.  1.
         21   -1    0    0  501  502 -0.00000000000E+00 -0.00000000000E+00 -0.14052551099E+04  0.14052551099E+04  0.00000000000E+00 0.  1.
         25    1    1    2    0    0  0.59128579089E+02  0.37558615589E+02 -0.91021049014E+03  0.92142008597E+03  0.12500000000E+03 0.  0.
         25    1    1    2    0    0 -0.20677941188E+02  0.11417938758E+03 -0.28408906175E+03  0.33135495289E+03  0.12500000000E+03 0.  0.
         25    1    1    2    0    0 -0.38450637902E+02 -0.15173800317E+03 -0.12651151399E+03  0.23692411513E+03  0.12500000000E+03 0.  0.
</event>
<event>
 5    0  0.5928369E-005  0.2886586E+03  0.7546771E-02  0.1091052E+00
         21   -1    0    0  502  501  0.00000000000E+00  0.00000000000E+00  0.18722271156E+03  0.18722271156E+03  0.00000000000E+00 0. -1.
         21   -1    0    0  501  502 -0.00000000000E+00 -0.00000000000E+00 -0.44505161691E+03  0.44505161691E+03  0.00000000000E+00 0. -1.
         25    1    1    2    0    0  0.16890014398E+02 -0.16884025612E+03  0.18940982125E+02  0.21160355734E+03  0.12500000000E+03 0.  0.
         25    1    1    2    0    0 -0.37095678066E+02  0.69070300052E+02 -0.17961911213E+03  0.23245391183E+03  0.12500000000E+03 0.  0.
         25    1    1    2    0    0  0.20205663668E+02  0.99769956068E+02 -0.97150775343E+02  0.18821685931E+03  0.12500000000E+03 0.  0.
</event>
<event>
 5    0  0.5778875E-005  0.2878104E+03  0.7546771E-02  0.1091498E+00
         21   -1    0    0  502  501  0.00000000000E+00  0.00000000000E+00  0.23958681031E+03  0.23958681031E+03  0.00000000000E+00 0.  1.
         21   -1    0    0  501  502 -0.00000000000E+00 -0.00000000000E+00 -0.34574037659E+03  0.34574037659E+03  0.00000000000E+00 0.  1.
         25    1    1    2    0    0 -0.10180665624E+03 -0.61288495751E+02 -0.19237767821E+02  0.17353952483E+03  0.12500000000E+03 0.  0.
         25    1    1    2    0    0 -0.64443294375E+02  0.10085521095E+03 -0.99606624130E+02  0.19967771868E+03  0.12500000000E+03 0.  0.
         25    1    1    2    0    0  0.16624995062E+03 -0.39566715195E+02  0.12690825674E+02  0.21210994340E+03  0.12500000000E+03 0.  0.
</event>
<event>
 5    0  0.5778875E-005  0.3378330E+03  0.7546771E-02  0.1067723E+00
         21   -1    0    0  502  501  0.00000000000E+00  0.00000000000E+00  0.45147828308E+02  0.45147828308E+02  0.00000000000E+00 0.  1.
         21   -1    0    0  501  502 -0.00000000000E+00 -0.00000000000E+00 -0.25279428943E+04  0.25279428943E+04  0.00000000000E+00 0.  1.
         25    1    1    2    0    0  0.75388608896E+02  0.21088166710E+03 -0.14324056222E+04  0.14551856879E+04  0.12500000000E+03 0.  0.
         25    1    1    2    0    0 -0.82815676560E+02 -0.30046736196E+02 -0.31220233869E+03  0.34764427642E+03  0.12500000000E+03 0.  0.
         25    1    1    2    0    0  0.74270676638E+01 -0.18083493091E+03 -0.73818710511E+03  0.77026075826E+03  0.12500000000E+03 0.  0.
</event>
<event>
 5    0  0.5778875E-005  0.3106440E+03  0.7546771E-02  0.1080038E+00
         21   -1    0    0  502  501  0.00000000000E+00  0.00000000000E+00  0.75386006449E+03  0.75386006449E+03  0.00000000000E+00 0. -1.
         21   -1    0    0  501  502 -0.00000000000E+00 -0.00000000000E+00 -0.12800742298E+03  0.12800742298E+03  0.00000000000E+00 0. -1.
         25    1    1    2    0    0  0.26044692097E+02 -0.19385127009E+03  0.24540927624E+03  0.33779780012E+03  0.12500000000E+03 0.  0.
         25    1    1    2    0    0 -0.33603513843E+02  0.22064481990E+03  0.29323172765E+03  0.38913131305E+03  0.12500000000E+03 0.  0.
         25    1    1    2    0    0  0.75588217458E+01 -0.26793549810E+02  0.87211637612E+02  0.15493837431E+03  0.12500000000E+03 0.  0.
</event>
<event>
 5    0  0.5778875E-005  0.2584035E+03  0.7546771E-02  0.1108106E+00
         21   -1    0    0  502  501  0.00000000000E+00  0.00000000000E+00  0.27362145551E+03  0.27362145551E+03  0.00000000000E+00 0.  1.
         21   -1    0    0  501  502 -0.00000000000E+00 -0.00000000000E+00 -0.24403191146E+03  0.24403191146E+03  0.00000000000E+00 0.  1.
         25    1    1    2    0    0 -0.83074187705E+02  0.58823210421E+02  0.13429111753E+02  0.16176165117E+03  0.12500000000E+03 0.  0.
         25    1    1    2    0    0  0.68479148257E+02 -0.12574534432E+03 -0.53201720924E+02  0.19737453856E+03  0.12500000000E+03 0.  0.
         25    1    1    2    0    0  0.14595039447E+02  0.66922133896E+02  0.69362153221E+02  0.15851717724E+03  0.12500000000E+03 0.  0.
</event>
<event>
 5    0  0.5778875E-005  0.2564316E+03  0.7546771E-02  0.1109306E+00
         21   -1    0    0  502  501  0.00000000000E+00  0.00000000000E+00  0.43131098955E+03  0.43131098955E+03  0.00000000000E+00 0. -1.
         21   -1    0    0  501  502 -0.00000000000E+00 -0.00000000000E+00 -0.15245884176E+03  0.15245884176E+03  0.00000000000E+00 0. -1.
         25    1    1    2    0    0 -0.10508018597E+03  0.38442621422E+02  0.10649728683E+03  0.19871173274E+03  0.12500000000E+03 0.  0.
         25    1    1    2    0    0 -0.80988343012E+01  0.67935596466E+02  0.94682577592E+02  0.17108660638E+03  0.12500000000E+03 0.  0.
         25    1    1    2    0    0  0.11317902027E+03 -0.10637821789E+03  0.77672283364E+02  0.21397149220E+03  0.12500000000E+03 0.  0.
</event>
<event>
 5    0  0.5778875E-005  0.2454721E+03  0.7546771E-02  0.1116200E+00
         21   -1    0    0  502  501  0.00000000000E+00  0.00000000000E+00  0.61473945758E+03  0.61473945758E+03  0.00000000000E+00 0.  1.
         21   -1    0    0  501  502 -0.00000000000E+00 -0.00000000000E+00 -0.98019621219E+02  0.98019621219E+02  0.00000000000E+00 0.  1.
         25    1    1    2    0    0  0.46634637207E+02  0.77480794090E+02  0.23363275162E+03  0.27997736599E+03  0.12500000000E+03 0.  0.
         25    1    1    2    0    0 -0.42385949857E+02 -0.93417359648E+02  0.52568102319E+02  0.17003463533E+03  0.12500000000E+03 0.  0.
         25    1    1    2    0    0 -0.42486873496E+01  0.15936565558E+02  0.23051898243E+03  0.26274707749E+03  0.12500000000E+03 0.  0.
</event>
<event>
 5    0  0.5778875E-005  0.2556345E+03  0.7546771E-02  0.1109795E+00
         21   -1    0    0  502  501  0.00000000000E+00  0.00000000000E+00  0.13314175366E+03  0.13314175366E+03  0.00000000000E+00 0. -1.
         21   -1    0    0  501  502 -0.00000000000E+00 -0.00000000000E+00 -0.49082280112E+03  0.49082280112E+03  0.00000000000E+00 0. -1.
         25    1    1    2    0    0 -0.35895678968E+02  0.12281386266E+03 -0.26831716384E+03  0.32247611546E+03  0.12500000000E+03 0.  0.
         25    1    1    2    0    0 -0.32131175725E+01 -0.42757687837E+02 -0.60300326828E+02  0.14525726629E+03  0.12500000000E+03 0.  0.
         25    1    1    2    0    0  0.39108796541E+02 -0.80056174819E+02 -0.29063556790E+02  0.15623117303E+03  0.12500000000E+03 0.  0.
</event>
<event>
 5    0  0.5778875E-005  0.2472005E+03  0.7546771E-02  0.1115087E+00
         21   -1    0    0  502  501  0.00000000000E+00  0.00000000000E+00  0.22970356133E+03  0.22970356133E+03  0.00000000000E+00 0. -1.
         21   -1    0    0  501  502 -0.00000000000E+00 -0.00000000000E+00 -0.26603019041E+03  0.26603019041E+03  0.00000000000E+00 0. -1.
         25    1    1    2    0    0 -0.12894216180E+03  0.82377922710E+01  0.32707310617E+02  0.18272577946E+03  0.12500000000E+03 0.  0.
         25    1    1    2    0    0  0.51905240424E+02  0.29524018206E+01  0.25852909227E+02  0.13782686086E+03  0.12500000000E+03 0.  0.
         25    1    1    2    0    0  0.77036921380E+02 -0.11190194092E+02 -0.94886848923E+02  0.17518111142E+03  0.12500000000E+03 0.  0.
</event>
<event>
 5    0  0.5778875E-005  0.2384304E+03  0.7546771E-02  0.1120843E+00
         21   -1    0    0  502  501  0.00000000000E+00  0.00000000000E+00  0.30019626943E+03  0.30019626943E+03  0.00000000000E+00 0.  1.
         21   -1    0    0  501  502 -0.00000000000E+00 -0.00000000000E+00 -0.18937298774E+03  0.18937298774E+03  0.00000000000E+00 0.  1.
         25    1    1    2    0    0  0.70110264780E+02  0.24493346442E+02  0.83512675707E+01  0.14563693528E+03  0.12500000000E+03 0.  0.
         25    1    1    2    0    0  0.66562929005E+02 -0.12873097622E+01  0.42084956692E+02  0.14774445595E+03  0.12500000000E+03 0.  0.
         25    1    1    2    0    0 -0.13667319378E+03 -0.23206036680E+02  0.60387057423E+02  0.19618786594E+03  0.12500000000E+03 0.  0.
</event>
<event>
 5    0  0.6469179E-005  0.3343289E+03  0.7546771E-02  0.1069237E+00
         21   -1    0    0  502  501  0.00000000000E+00  0.00000000000E+00  0.85311202736E+03  0.85311202736E+03  0.00000000000E+00 0.  1.
         21   -1    0    0  501  502 -0.00000000000E+00 -0.00000000000E+00 -0.13102122811E+03  0.13102122811E+03  0.00000000000E+00 0.  1.
         25    1    1    2    0    0 -0.92346641589E+02  0.93576546470E+02  0.90707080834E+01  0.18163631247E+03  0.12500000000E+03 0.  0.
         25    1    1    2    0    0  0.92548077982E+02 -0.89719575103E+02  0.17717377904E+03  0.25225046457E+03  0.12500000000E+03 0.  0.
         25    1    1    2    0    0 -0.20143639335E+00 -0.38569713668E+01  0.53584631213E+03  0.55024647843E+03  0.12500000000E+03 0.  0.
</event>
<event>
 5    0  0.5778875E-005  0.2488615E+03  0.7546771E-02  0.1114026E+00
         21   -1    0    0  502  501  0.00000000000E+00  0.00000000000E+00  0.41267673096E+03  0.41267673096E+03  0.00000000000E+00 0.  1.
         21   -1    0    0  501  502 -0.00000000000E+00 -0.00000000000E+00 -0.15007404537E+03  0.15007404537E+03  0.00000000000E+00 0.  1.
         25    1    1    2    0    0 -0.26574497691E+02 -0.54936136688E+01  0.23107589786E+03  0.26411636505E+03  0.12500000000E+03 0.  0.
         25    1    1    2    0    0  0.70189237266E+02  0.43280795198E+02  0.53893777216E+02  0.15915180013E+03  0.12500000000E+03 0.  0.
         25    1    1    2    0    0 -0.43614739575E+02 -0.37787181529E+02 -0.22366989485E+02  0.13948261116E+03  0.12500000000E+03 0.  0.
</event>
<event>
 5    0  0.5778875E-005  0.3118092E+03  0.7546771E-02  0.1079482E+00
         21   -1    0    0  502  501  0.00000000000E+00  0.00000000000E+00  0.41489301655E+03  0.41489301655E+03  0.00000000000E+00 0.  1.
         21   -1    0    0  501  502 -0.00000000000E+00 -0.00000000000E+00 -0.23433753672E+03  0.23433753672E+03  0.00000000000E+00 0.  1.
         25    1    1    2    0    0 -0.68159282314E+02  0.15466696141E+03  0.21531674887E+02  0.21132006469E+03  0.12500000000E+03 0.  0.
         25    1    1    2    0    0 -0.53315312563E+02 -0.91945361874E+02 -0.37008949136E+02  0.16819968621E+03  0.12500000000E+03 0.  0.
         25    1    1    2    0    0  0.12147459488E+03 -0.62721599533E+02  0.19603275408E+03  0.26971080238E+03  0.12500000000E+03 0.  0.
</event>
<event>
 5    0  0.5778875E-005  0.4961947E+03  0.7546771E-02  0.1014777E+00
         21   -1    0    0  502  501  0.00000000000E+00  0.00000000000E+00  0.38565366721E+03  0.38565366721E+03  0.00000000000E+00 0.  1.
         21   -1    0    0  501  502 -0.00000000000E+00 -0.00000000000E+00 -0.63842030802E+03  0.63842030802E+03  0.00000000000E+00 0.  1.
         25    1    1    2    0    0 -0.94271270872E+02  0.15147058228E+03 -0.39383685906E+03  0.45006986275E+03  0.12500000000E+03 0.  0.
         25    1    1    2    0    0 -0.33265746285E+02  0.59177954235E+02 -0.12585589064E+03  0.18992984324E+03  0.12500000000E+03 0.  0.
         25    1    1    2    0    0  0.12753701716E+03 -0.21064853652E+03  0.26692610889E+03  0.38407426923E+03  0.12500000000E+03 0.  0.
</event>
<event>
 5    0  0.5896539E-005  0.3947317E+03  0.7546771E-02  0.1045619E+00
         21   -1    0    0  502  501  0.00000000000E+00  0.00000000000E+00  0.37165242951E+03  0.37165242951E+03  0.00000000000E+00 0. -1.
         21   -1    0    0  501  502 -0.00000000000E+00 -0.00000000000E+00 -0.41924420616E+03  0.41924420616E+03  0.00000000000E+00 0. -1.
         25    1    1    2    0    0 -0.64617332972E+01 -0.13491588666E+03  0.14120341098E+03  0.23196433722E+03  0.12500000000E+03 0.  0.
         25    1    1    2    0    0 -0.18687859670E+03  0.22760272445E+02 -0.20115578090E+03  0.30253972978E+03  0.12500000000E+03 0.  0.
         25    1    1    2    0    0  0.19334032999E+03  0.11215561421E+03  0.12360593277E+02  0.25639256867E+03  0.12500000000E+03 0.  0.
</event>
<event>
 5    0  0.5778875E-005  0.2475969E+03  0.7546771E-02  0.1114833E+00
         21   -1    0    0  502  501  0.00000000000E+00  0.00000000000E+00  0.48649796239E+03  0.48649796239E+03  0.00000000000E+00 0.  1.
         21   -1    0    0  501  502 -0.00000000000E+00 -0.00000000000E+00 -0.12601124464E+03  0.12601124464E+03  0.00000000000E+00 0.  1.
         25    1    1    2    0    0 -0.55102854159E+01  0.67535747853E+02  0.36872399999E+02  0.14688776111E+03  0.12500000000E+03 0.  0.
         25    1    1    2    0    0 -0.49623995167E+01 -0.11706472146E+03  0.27150279366E+03  0.32104133906E+03  0.12500000000E+03 0.  0.
         25    1    1    2    0    0  0.10472684933E+02  0.49528973606E+02  0.52111524092E+02  0.14458010686E+03  0.12500000000E+03 0.  0.
</event>
<event>
 5    0  0.5778875E-005  0.2534939E+03  0.7546771E-02  0.1111116E+00
         21   -1    0    0  502  501  0.00000000000E+00  0.00000000000E+00  0.63233677155E+02  0.63233677155E+02  0.00000000000E+00 0. -1.
         21   -1    0    0  501  502 -0.00000000000E+00 -0.00000000000E+00 -0.10162173897E+04  0.10162173897E+04  0.00000000000E+00 0. -1.
         25    1    1    2    0    0  0.21574281008E+02  0.11905719143E+03 -0.24217007102E+03  0.29818015986E+03  0.12500000000E+03 0.  0.
         25    1    1    2    0    0 -0.79922333703E+02 -0.32380822754E+02 -0.25003018674E+03  0.29253408586E+03  0.12500000000E+03 0.  0.
         25    1    1    2    0    0  0.58348052695E+02 -0.86676368680E+02 -0.46078345483E+03  0.48873682119E+03  0.12500000000E+03 0.  0.
</event>
<event>
 5    0  0.5778875E-005  0.3440863E+03  0.7546771E-02  0.1065069E+00
         21   -1    0    0  502  501  0.00000000000E+00  0.00000000000E+00  0.20504113174E+03  0.20504113174E+03  0.00000000000E+00 0.  1.
         21   -1    0    0  501  502 -0.00000000000E+00 -0.00000000000E+00 -0.57742262239E+03  0.57742262239E+03  0.00000000000E+00 0.  1.
         25    1    1    2    0    0  0.10960024488E+03  0.24055274627E+03 -0.16391335249E+03  0.33521698128E+03  0.12500000000E+03 0.  0.
         25    1    1    2    0    0 -0.26573271336E+02 -0.19053922487E+03 -0.78373279745E+02  0.24244320148E+03  0.12500000000E+03 0.  0.
         25    1    1    2    0    0 -0.83026973540E+02 -0.50013521395E+02 -0.13009485842E+03  0.20480357137E+03  0.12500000000E+03 0.  0.
</event>
<event>
 5    0  0.5778875E-005  0.3278978E+03  0.7546771E-02  0.1072071E+00
         21   -1    0    0  502  501  0.00000000000E+00  0.00000000000E+00  0.40069551448E+03  0.40069551448E+03  0.00000000000E+00 0.  1.
         21   -1    0    0  501  502 -0.00000000000E+00 -0.00000000000E+00 -0.26832586517E+03  0.26832586517E+03  0.00000000000E+00 0.  1.
         25    1    1    2    0    0  0.43801357194E+02  0.14314680615E+03 -0.36501139052E+02  0.19841093759E+03  0.12500000000E+03 0.  0.
         25    1    1    2    0    0  0.11657010648E+03 -0.11414268265E+03  0.16762303239E+03  0.26521618110E+03  0.12500000000E+03 0.  0.
         25    1    1    2    0    0 -0.16037146367E+03 -0.29004123499E+02  0.12477559649E+01  0.20539426096E+03  0.12500000000E+03 0.  0.
</event>
<event>
 5    0  0.5778875E-005  0.3562380E+03  0.7546771E-02  0.1060083E+00
         21   -1    0    0  502  501  0.00000000000E+00  0.00000000000E+00  0.16425917917E+03  0.16425917917E+03  0.00000000000E+00 0. -1.
         21   -1    0    0  501  502 -0.00000000000E+00 -0.00000000000E+00 -0.77259323959E+03  0.77259323959E+03  0.00000000000E+00 0.  1.
         25    1    1    2    0    0  0.12691416612E+03 -0.14324471513E+03 -0.35660628774E+03  0.42357915249E+03  0.12500000000E+03 0.  0.
         25    1    1    2    0    0 -0.21627420718E+03  0.12824042578E+03 -0.21739795960E+03  0.35511549154E+03  0.12500000000E+03 0.  0.
         25    1    1    2    0    0  0.89360041064E+02  0.15004289345E+02 -0.34329813081E+02  0.15815777472E+03  0.12500000000E+03 0.  0.
</event>
<event>
 5    0  0.5778875E-005  0.2460332E+03  0.7546771E-02  0.1115838E+00
         21   -1    0    0  502  501  0.00000000000E+00  0.00000000000E+00  0.56575524932E+02  0.56575524932E+02  0.00000000000E+00 0. -1.
         21   -1    0    0  501  502 -0.00000000000E+00 -0.00000000000E+00 -0.10699388500E+04  0.10699388500E+04  0.00000000000E+00 0. -1.
         25    1    1    2    0    0 -0.40587522300E+01 -0.83474015219E+02 -0.25268270871E+03  0.29403730370E+03  0.12500000000E+03 0.  0.
         25    1    1    2    0    0  0.10023639884E+03  0.54311681374E+02 -0.48338585565E+03  0.51213668081E+03  0.12500000000E+03 0.  0.
         25    1    1    2    0    0 -0.96177646607E+02  0.29162333845E+02 -0.27729476072E+03  0.32034039043E+03  0.12500000000E+03 0.  0.
</event>
<event>
 5    0  0.5931444E-005  0.2972936E+03  0.7546771E-02  0.1086601E+00
         21   -1    0    0  502  501  0.00000000000E+00  0.00000000000E+00  0.10716325863E+03  0.10716325863E+03  0.00000000000E+00 0. -1.
         21   -1    0    0  501  502 -0.00000000000E+00 -0.00000000000E+00 -0.82475549933E+03  0.82475549933E+03  0.00000000000E+00 0. -1.
         25    1    1    2    0    0  0.48400445852E+02 -0.78563460300E+02 -0.35819936514E+03  0.39044411333E+03  0.12500000000E+03 0.  0.
         25    1    1    2    0    0 -0.11352637031E+03 -0.83270210668E+02 -0.14042802358E+03  0.23487697748E+03  0.12500000000E+03 0.  0.
         25    1    1    2    0    0  0.65125924461E+02  0.16183367097E+03 -0.21896485199E+03  0.30659766715E+03  0.12500000000E+03 0.  0.
</event>
<event>
 5    0  0.6188598E-005  0.4146372E+03  0.7546771E-02  0.1038826E+00
         21   -1    0    0  502  501  0.00000000000E+00  0.00000000000E+00  0.61480359321E+03  0.61480359321E+03  0.00000000000E+00 0.  1.
         21   -1    0    0  501  502 -0.00000000000E+00 -0.00000000000E+00 -0.27964053403E+03  0.27964053403E+03  0.00000000000E+00 0.  1.
         25    1    1    2    0    0  0.14125919174E+03 -0.94529623487E+02  0.31878988010E+03  0.38228522940E+03  0.12500000000E+03 0.  0.
         25    1    1    2    0    0  0.41755975241E+02 -0.80077738703E+02 -0.12319582175E+03  0.19737835798E+03  0.12500000000E+03 0.  0.
         25    1    1    2    0    0 -0.18301516698E+03  0.17460736219E+03  0.13956900083E+03  0.31478053985E+03  0.12500000000E+03 0.  0.
</event>
<event>
 5    0  0.5778875E-005  0.3821431E+03  0.7546771E-02  0.1050144E+00
         21   -1    0    0  502  501  0.00000000000E+00  0.00000000000E+00  0.27753169001E+03  0.27753169001E+03  0.00000000000E+00 0. -1.
         21   -1    0    0  501  502 -0.00000000000E+00 -0.00000000000E+00 -0.52618630359E+03  0.52618630359E+03  0.00000000000E+00 0. -1.
         25    1    1    2    0    0 -0.31640130645E+02 -0.17954513188E+03 -0.29173086867E+02  0.22296551583E+03  0.12500000000E+03 0.  0.
         25    1    1    2    0    0  0.11019548852E+03 -0.10932627932E+03 -0.20910783496E+02  0.20039346773E+03  0.12500000000E+03 0.  0.
         25    1    1    2    0    0 -0.78555357879E+02  0.28887141120E+03 -0.19857074322E+03  0.38035901005E+03  0.12500000000E+03 0.  0.
</event>
<event>
 5    0  0.5778875E-005  0.2106141E+03  0.7546771E-02  0.1141081E+00
         21   -1    0    0  502  501  0.00000000000E+00  0.00000000000E+00  0.14363177377E+03  0.14363177377E+03  0.00000000000E+00 0. -1.
         21   -1    0    0  501  502 -0.00000000000E+00 -0.00000000000E+00 -0.30883342664E+03  0.30883342664E+03  0.00000000000E+00 0. -1.
         25    1    1    2    0    0  0.72322936975E+01 -0.45519225619E+01  0.19266671073E+02  0.12676446933E+03  0.12500000000E+03 0.  0.
         25    1    1    2    0    0  0.44751674449E+02  0.54762866300E+00 -0.84763222416E+02  0.15752084350E+03  0.12500000000E+03 0.  0.
         25    1    1    2    0    0 -0.51983968146E+02  0.40042938989E+01 -0.99705101526E+02  0.16817988757E+03  0.12500000000E+03 0.  0.
</event>
<event>
 5    0  0.6515601E-005  0.3332076E+03  0.7546771E-02  0.1069726E+00
         21   -1    0    0  502  501  0.00000000000E+00  0.00000000000E+00  0.51984478416E+03  0.51984478416E+03  0.00000000000E+00 0.  1.
         21   -1    0    0  501  502 -0.00000000000E+00 -0.00000000000E+00 -0.21357783265E+03  0.21357783265E+03  0.00000000000E+00 0.  1.
         25    1    1    2    0    0  0.25681222072E+02 -0.15733588594E+03  0.22968369378E+03  0.30625758009E+03  0.12500000000E+03 0.  0.
         25    1    1    2    0    0 -0.10919692146E+03  0.75633691186E+02  0.15461335242E+03  0.23911234105E+03  0.12500000000E+03 0.  0.
         25    1    1    2    0    0  0.83515699391E+02  0.81702194753E+02 -0.78030094692E+02  0.18805269567E+03  0.12500000000E+03 0.  0.
</event>
<event>
 5    0  0.5778875E-005  0.2514645E+03  0.7546771E-02  0.1112383E+00
         21   -1    0    0  502  501  0.00000000000E+00  0.00000000000E+00  0.14192143665E+03  0.14192143665E+03  0.00000000000E+00 0. -1.
         21   -1    0    0  501  502 -0.00000000000E+00 -0.00000000000E+00 -0.44555922892E+03  0.44555922892E+03  0.00000000000E+00 0. -1.
         25    1    1    2    0    0  0.41880733193E+02  0.32456874985E+02 -0.21050317387E+03  0.25048758603E+03  0.12500000000E+03 0.  0.
         25    1    1    2    0    0 -0.88367149950E+01  0.71578077051E+02 -0.91796411019E+02  0.17103534641E+03  0.12500000000E+03 0.  0.
         25    1    1    2    0    0 -0.33044018198E+02 -0.10403495204E+03 -0.13382073818E+01  0.16595773312E+03  0.12500000000E+03 0.  0.
</event>
<event>
 5    0  0.5778875E-005  0.3424983E+03  0.7546771E-02  0.1065737E+00
         21   -1    0    0  502  501  0.00000000000E+00  0.00000000000E+00  0.10410892692E+03  0.10410892692E+03  0.00000000000E+00 0. -1.
         21   -1    0    0  501  502 -0.00000000000E+00 -0.00000000000E+00 -0.11267535892E+04  0.11267535892E+04  0.00000000000E+00 0. -1.
         25    1    1    2    0    0  0.65475603972E+02 -0.75516667643E+02 -0.71802348214E+03  0.73564430448E+03  0.12500000000E+03 0.  0.
         25    1    1    2    0    0  0.79999082522E+02 -0.29008054450E+02 -0.20602472798E+03  0.25556312129E+03  0.12500000000E+03 0.  0.
         25    1    1    2    0    0 -0.14547468649E+03  0.10452472209E+03 -0.98596452134E+02  0.23965509031E+03  0.12500000000E+03 0.  0.
</event>
<event>
 5    0  0.5778875E-005  0.6299007E+03  0.7546771E-02  0.9845243E-01
         21   -1    0    0  502  501  0.00000000000E+00  0.00000000000E+00  0.21454284056E+04  0.21454284056E+04  0.00000000000E+00 0.  1.
         21   -1    0    0  501  502 -0.00000000000E+00 -0.00000000000E+00 -0.18493967582E+03  0.18493967582E+03  0.00000000000E+00 0.  1.
         25    1    1    2    0    0 -0.56571830268E+03  0.97345792584E+01  0.11332153552E+04  0.12727662791E+04  0.12500000000E+03 0.  0.
         25    1    1    2    0    0  0.21106183680E+03 -0.11109211320E+03  0.34927554632E+03  0.44102943646E+03  0.12500000000E+03 0.  0.
         25    1    1    2    0    0  0.35465646588E+03  0.10135753395E+03  0.47799782824E+03  0.61657236581E+03  0.12500000000E+03 0.  0.
</event>
<event>
 5    0  0.5785082E-005  0.3749228E+03  0.7546771E-02  0.1052826E+00
         21   -1    0    0  502  501  0.00000000000E+00  0.00000000000E+00  0.62295910604E+03  0.62295910604E+03  0.00000000000E+00 0. -1.
         21   -1    0    0  501  502 -0.00000000000E+00 -0.00000000000E+00 -0.22564414930E+03  0.22564414930E+03  0.00000000000E+00 0. -1.
         25    1    1    2    0    0  0.15216769067E+02  0.99455569843E+02  0.42742309453E+03  0.45655061294E+03  0.12500000000E+03 0.  0.
         25    1    1    2    0    0 -0.74221743878E+02  0.78623267652E+02 -0.66854710302E+01  0.16540913216E+03  0.12500000000E+03 0.  0.
         25    1    1    2    0    0  0.59004974811E+02 -0.17807883749E+03 -0.23422666765E+02  0.22664351024E+03  0.12500000000E+03 0.  0.
</event>
<event>
 5    0  0.5778875E-005  0.3676798E+03  0.7546771E-02  0.1055584E+00
         21   -1    0    0  502  501  0.00000000000E+00  0.00000000000E+00  0.38788630528E+03  0.38788630528E+03  0.00000000000E+00 0. -1.
         21   -1    0    0  501  502 -0.00000000000E+00 -0.00000000000E+00 -0.34852586696E+03  0.34852586696E+03  0.00000000000E+00 0. -1.
         25    1    1    2    0    0 -0.16838669035E+02 -0.19178460239E+03  0.42984542419E+02  0.23353275011E+03  0.12500000000E+03 0.  0.
         25    1    1    2    0    0  0.15497024390E+03  0.31659258410E+01  0.94220694158E+02  0.22029148596E+03  0.12500000000E+03 0.  0.
         25    1    1    2    0    0 -0.13813157486E+03  0.18861867655E+03 -0.97844798257E+02  0.28258793616E+03  0.12500000000E+03 0.  0.
</event>
<event>
 5    0  0.5778875E-005  0.3349544E+03  0.7546771E-02  0.1068965E+00
         21   -1    0    0  502  501  0.00000000000E+00  0.00000000000E+00  0.97728796163E+03  0.97728796163E+03  0.00000000000E+00 0. -1.
         21   -1    0    0  501  502 -0.00000000000E+00 -0.00000000000E+00 -0.11480182822E+03  0.11480182822E+03  0.00000000000E+00 0.  1.
         25    1    1    2    0    0 -0.82643778811E+02 -0.14489097664E+03  0.13835642623E+03  0.25018171389E+03  0.12500000000E+03 0.  0.
         25    1    1    2    0    0  0.25930833659E+02 -0.85599410835E+02  0.34266156320E+03  0.37555507474E+03  0.12500000000E+03 0.  0.
         25    1    1    2    0    0  0.56712945152E+02  0.23049038748E+03  0.38146814398E+03  0.46635300121E+03  0.12500000000E+03 0.  0.
</event>
<event>
 5    0  0.5814028E-005  0.2575016E+03  0.7546771E-02  0.1108654E+00
         21   -1    0    0  502  501  0.00000000000E+00  0.00000000000E+00  0.47355974773E+03  0.47355974773E+03  0.00000000000E+00 0. -1.
         21   -1    0    0  501  502 -0.00000000000E+00 -0.00000000000E+00 -0.14001842724E+03  0.14001842724E+03  0.00000000000E+00 0. -1.
         25    1    1    2    0    0  0.89930825417E+01  0.15245673029E+03  0.13929937523E+03  0.24156416557E+03  0.12500000000E+03 0.  0.
         25    1    1    2    0    0 -0.40572122946E+02 -0.12347518486E+03  0.79764528798E+02  0.19717910257E+03  0.12500000000E+03 0.  0.
         25    1    1    2    0    0  0.31579040404E+02 -0.28981545435E+02  0.11447741646E+03  0.17483490683E+03  0.12500000000E+03 0.  0.
</event>
<event>
 5    0  0.5778875E-005  0.3471349E+03  0.7546771E-02  0.1063797E+00
         21   -1    0    0  502  501  0.00000000000E+00  0.00000000000E+00  0.32970672847E+03  0.32970672847E+03  0.00000000000E+00 0. -1.
         21   -1    0    0  501  502 -0.00000000000E+00 -0.00000000000E+00 -0.36548432798E+03  0.36548432798E+03  0.00000000000E+00 0. -1.
         25    1    1    2    0    0  0.19910698283E+03 -0.53271053067E+02 -0.12238508514E+03  0.27034145958E+03  0.12500000000E+03 0.  0.
         25    1    1    2    0    0 -0.75338588757E+02 -0.10213047258E+03  0.63000110561E+02  0.18894589256E+03  0.12500000000E+03 0.  0.
         25    1    1    2    0    0 -0.12376839407E+03  0.15540152565E+03  0.23607375072E+02  0.23590370430E+03  0.12500000000E+03 0.  0.
</event>
<event>
 5    0  0.6042837E-005  0.2622169E+03  0.7546771E-02  0.1105819E+00
         21   -1    0    0  502  501  0.00000000000E+00  0.00000000000E+00  0.12743318146E+03  0.12743318146E+03  0.00000000000E+00 0.  1.
         21   -1    0    0  501  502 -0.00000000000E+00 -0.00000000000E+00 -0.53955891596E+03  0.53955891596E+03  0.00000000000E+00 0.  1.
         25    1    1    2    0    0 -0.32623838659E+02 -0.48118884002E+02 -0.32188693249E+02  0.14156572262E+03  0.12500000000E+03 0.  0.
         25    1    1    2    0    0 -0.85549571187E+02 -0.53925197919E+02 -0.14122845338E+03  0.21400264518E+03  0.12500000000E+03 0.  0.
         25    1    1    2    0    0  0.11817340985E+03  0.10204408192E+03 -0.23870858787E+03  0.31142372962E+03  0.12500000000E+03 0.  0.
</event>
<event>
 5    0  0.5778875E-005  0.3016457E+03  0.7546771E-02  0.1084421E+00
         21   -1    0    0  502  501  0.00000000000E+00  0.00000000000E+00  0.22500583344E+03  0.22500583344E+03  0.00000000000E+00 0. -1.
         21   -1    0    0  501  502 -0.00000000000E+00 -0.00000000000E+00 -0.40439020416E+03  0.40439020416E+03  0.00000000000E+00 0. -1.
         25    1    1    2    0    0 -0.47497577286E+02 -0.12781974676E+03  0.35795842422E+02  0.18841509983E+03  0.12500000000E+03 0.  0.
         25    1    1    2    0    0 -0.81465497717E+02  0.14013563552E+03 -0.10737063551E+03  0.23114514278E+03  0.12500000000E+03 0.  0.
         25    1    1    2    0    0  0.12896307500E+03 -0.12315888768E+02 -0.10780957763E+03  0.20983579499E+03  0.12500000000E+03 0.  0.
</event>
<event>
 5    0  0.5778875E-005  0.2582678E+03  0.7546771E-02  0.1108188E+00
         21   -1    0    0  502  501  0.00000000000E+00  0.00000000000E+00  0.44141636903E+03  0.44141636903E+03  0.00000000000E+00 0. -1.
         21   -1    0    0  501  502 -0.00000000000E+00 -0.00000000000E+00 -0.15110956180E+03  0.15110956180E+03  0.00000000000E+00 0. -1.
         25    1    1    2    0    0  0.90503926374E+01 -0.26079542648E+02  0.20646406435E+02  0.12966621090E+03  0.12500000000E+03 0.  0.
         25    1    1    2    0    0  0.53388909961E+02  0.22258447177E+02 -0.21956294319E+02  0.13947362847E+03  0.12500000000E+03 0.  0.
         25    1    1    2    0    0 -0.62439302599E+02  0.38210954711E+01  0.29161669511E+03  0.32338609146E+03  0.12500000000E+03 0.  0.
</event>
<event>
 5    0  0.5778875E-005  0.2108097E+03  0.7546771E-02  0.1140926E+00
         21   -1    0    0  502  501  0.00000000000E+00  0.00000000000E+00  0.35485896321E+03  0.35485896321E+03  0.00000000000E+00 0.  1.
         21   -1    0    0  501  502 -0.00000000000E+00 -0.00000000000E+00 -0.12523492848E+03  0.12523492848E+03  0.00000000000E+00 0.  1.
         25    1    1    2    0    0 -0.52809560613E+01 -0.13379752476E+02  0.87584942326E+01  0.12612936809E+03  0.12500000000E+03 0.  0.
         25    1    1    2    0    0  0.27807674416E+02 -0.56634283244E+01  0.44282093659E+02  0.13561432445E+03  0.12500000000E+03 0.  0.
         25    1    1    2    0    0 -0.22526718355E+02  0.19043180800E+02  0.17658344684E+03  0.21835019916E+03  0.12500000000E+03 0.  0.
</event>
<event>
 5    0  0.5778875E-005  0.4087144E+03  0.7546771E-02  0.1040803E+00
         21   -1    0    0  502  501  0.00000000000E+00  0.00000000000E+00  0.43464886505E+03  0.43464886505E+03  0.00000000000E+00 0.  1.
         21   -1    0    0  501  502 -0.00000000000E+00 -0.00000000000E+00 -0.38432735573E+03  0.38432735573E+03  0.00000000000E+00 0.  1.
         25    1    1    2    0    0  0.21650415860E+03 -0.15009683316E+03 -0.59238916555E+02  0.29755227986E+03  0.12500000000E+03 0.  0.
         25    1    1    2    0    0 -0.42623737975E+02 -0.11052895764E+03  0.29371897498E+02  0.17470301050E+03  0.12500000000E+03 0.  0.
         25    1    1    2    0    0 -0.17388042062E+03  0.26062579080E+03  0.80188528386E+02  0.34672093042E+03  0.12500000000E+03 0.  0.
</event>
<event>
 5    0  0.5778875E-005  0.3729898E+03  0.7546771E-02  0.1053556E+00
         21   -1    0    0  502  501  0.00000000000E+00  0.00000000000E+00  0.56844854671E+02  0.56844854671E+02  0.00000000000E+00 0. -1.
         21   -1    0    0  501  502 -0.00000000000E+00 -0.00000000000E+00 -0.24473881547E+04  0.24473881547E+04  0.00000000000E+00 0. -1.
         25    1    1    2    0    0 -0.10042108953E+03 -0.16366046998E+03 -0.38035332283E+03  0.44403017335E+03  0.12500000000E+03 0.  0.
         25    1    1    2    0    0  0.11986979032E+03  0.24174431715E+03 -0.14791119435E+04  0.15087101189E+04  0.12500000000E+03 0.  0.
         25    1    1    2    0    0 -0.19448700788E+02 -0.78083847171E+02 -0.53107803376E+03  0.55149271717E+03  0.12500000000E+03 0.  0.
</event>
<event>
 5    0  0.5778875E-005  0.4807521E+03  0.7546771E-02  0.1018929E+00
         21   -1    0    0  502  501  0.00000000000E+00  0.00000000000E+00  0.30955767628E+03  0.30955767628E+03  0.00000000000E+00 0. -1.
         21   -1    0    0  501  502 -0.00000000000E+00 -0.00000000000E+00 -0.74662196077E+03  0.74662196077E+03  0.00000000000E+00 0. -1.
         25    1    1    2    0    0  0.19507157064E+03 -0.11689331363E+03 -0.47230758244E+03  0.53890297538E+03  0.12500000000E+03 0.  0.
         25    1    1    2    0    0  0.57400855133E+02 -0.90117964337E+02 -0.10076492817E+02  0.16475023937E+03  0.12500000000E+03 0.  0.
         25    1    1    2    0    0 -0.25247242577E+03  0.20701127797E+03  0.45319790770E+02  0.35252642229E+03  0.12500000000E+03 0.  0.
</event>
<event>
 5    0  0.5778875E-005  0.2636524E+03  0.7546771E-02  0.1104968E+00
         21   -1    0    0  502  501  0.00000000000E+00  0.00000000000E+00  0.53252848510E+03  0.53252848510E+03  0.00000000000E+00 0. -1.
         21   -1    0    0  501  502 -0.00000000000E+00 -0.00000000000E+00 -0.13053310886E+03  0.13053310886E+03  0.00000000000E+00 0. -1.
         25    1    1    2    0    0  0.28282764734E+01  0.79467389611E+02  0.17161970846E+03  0.22671874535E+03  0.12500000000E+03 0.  0.
         25    1    1    2    0    0 -0.29869887800E+02 -0.14476593786E+03  0.39647154673E+02  0.19760132549E+03  0.12500000000E+03 0.  0.
         25    1    1    2    0    0  0.27041611327E+02  0.65298548252E+02  0.19072851311E+03  0.23874152311E+03  0.12500000000E+03 0.  0.
</event>
<event>
 5    0  0.5778875E-005  0.3020429E+03  0.7546771E-02  0.1084224E+00
         21   -1    0    0  502  501  0.00000000000E+00  0.00000000000E+00  0.19505351742E+03  0.19505351742E+03  0.00000000000E+00 0. -1.
         21   -1    0    0  501  502 -0.00000000000E+00 -0.00000000000E+00 -0.46771728112E+03  0.46771728112E+03  0.00000000000E+00 0. -1.
         25    1    1    2    0    0  0.82364419447E+02  0.38487604931E+02 -0.74432243038E+02  0.17155276776E+03  0.12500000000E+03 0.  0.
         25    1    1    2    0    0  0.77957857098E+01  0.68797031909E+02 -0.25733750390E+03  0.29434910699E+03  0.12500000000E+03 0.  0.
         25    1    1    2    0    0 -0.90160205157E+02 -0.10728463684E+03  0.59105983242E+02  0.19686892378E+03  0.12500000000E+03 0.  0.
</event>
<event>
 5    0  0.5778875E-005  0.2232360E+03  0.7546771E-02  0.1131493E+00
         21   -1    0    0  502  501  0.00000000000E+00  0.00000000000E+00  0.75119145790E+02  0.75119145790E+02  0.00000000000E+00 0.  1.
         21   -1    0    0  501  502 -0.00000000000E+00 -0.00000000000E+00 -0.66340372330E+03  0.66340372330E+03  0.00000000000E+00 0.  1.
         25    1    1    2    0    0 -0.11869982492E+02 -0.40117900680E+01 -0.11478025653E+03  0.17016609014E+03  0.12500000000E+03 0.  0.
         25    1    1    2    0    0  0.26669205899E+02 -0.73730266397E+02 -0.33342884118E+03  0.36461924093E+03  0.12500000000E+03 0.  0.
         25    1    1    2    0    0 -0.14799223406E+02  0.77742056465E+02 -0.14007547979E+03  0.20373753801E+03  0.12500000000E+03 0.  0.
</event>
<event>
 5    0  0.5778875E-005  0.4216530E+03  0.7546771E-02  0.1036530E+00
         21   -1    0    0  502  501  0.00000000000E+00  0.00000000000E+00  0.12834010202E+04  0.12834010202E+04  0.00000000000E+00 0. -1.
         21   -1    0    0  501  502 -0.00000000000E+00 -0.00000000000E+00 -0.13853133661E+03  0.13853133661E+03  0.00000000000E+00 0. -1.
         25    1    1    2    0    0 -0.12895959671E+03  0.13458142268E+03  0.25790578772E+03  0.34188175186E+03  0.12500000000E+03 0.  0.
         25    1    1    2    0    0 -0.34387647675E+02 -0.25202846006E+03  0.18313915071E+03  0.33744007396E+03  0.12500000000E+03 0.  0.
         25    1    1    2    0    0  0.16334724439E+03  0.11744703738E+03  0.70382474516E+03  0.74261053099E+03  0.12500000000E+03 0.  0.
</event>
<event>
 5    0  0.5778875E-005  0.2704397E+03  0.7546771E-02  0.1101028E+00
         21   -1    0    0  502  501  0.00000000000E+00  0.00000000000E+00  0.10634404269E+04  0.10634404269E+04  0.00000000000E+00 0.  1.
         21   -1    0    0  501  502 -0.00000000000E+00 -0.00000000000E+00 -0.68774558087E+02  0.68774558087E+02  0.00000000000E+00 0.  1.
         25    1    1    2    0    0 -0.10999015230E+03 -0.43859712135E+02  0.23130598148E+03  0.28835562249E+03  0.12500000000E+03 0.  0.
         25    1    1    2    0    0  0.28485748736E+02 -0.12005321313E+02  0.60739239089E+03  0.62089136098E+03  0.12500000000E+03 0.  0.
         25    1    1    2    0    0  0.81504403561E+02  0.55865033448E+02  0.15596749647E+03  0.22296800155E+03  0.12500000000E+03 0.  0.
</event>
<event>
 5    0  0.5778875E-005  0.2567199E+03  0.7546771E-02  0.1109130E+00
         21   -1    0    0  502  501  0.00000000000E+00  0.00000000000E+00  0.13966824716E+03  0.13966824716E+03  0.00000000000E+00 0. -1.
         21   -1    0    0  501  502 -0.00000000000E+00 -0.00000000000E+00 -0.47186879700E+03  0.47186879700E+03  0.00000000000E+00 0. -1.
         25    1    1    2    0    0 -0.64979773560E+02 -0.39180288767E+02 -0.11325050611E+03  0.18495443529E+03  0.12500000000E+03 0.  0.
         25    1    1    2    0    0  0.44866584946E+02  0.14743968155E+03 -0.13534608463E+03  0.24019790333E+03  0.12500000000E+03 0.  0.
         25    1    1    2    0    0  0.20113188614E+02 -0.10825939278E+03 -0.83603959094E+02  0.18638470554E+03  0.12500000000E+03 0.  0.
</event>
<event>
 5    0  0.5778875E-005  0.4213872E+03  0.7546771E-02  0.1036616E+00
         21   -1    0    0  502  501  0.00000000000E+00  0.00000000000E+00  0.12938754788E+03  0.12938754788E+03  0.00000000000E+00 0.  1.
         21   -1    0    0  501  502 -0.00000000000E+00 -0.00000000000E+00 -0.13723665948E+04  0.13723665948E+04  0.00000000000E+00 0.  1.
         25    1    1    2    0    0 -0.16702827911E+03  0.13974723498E+03 -0.43301441541E+03  0.50055391284E+03  0.12500000000E+03 0.  0.
         25    1    1    2    0    0  0.33555445599E+03 -0.95416506786E+02 -0.45927656340E+03  0.59013647946E+03  0.12500000000E+03 0.  0.
         25    1    1    2    0    0 -0.16852617688E+03 -0.44330728199E+02 -0.35068806813E+03  0.41106375039E+03  0.12500000000E+03 0.  0.
</event>
<event>
 5    0  0.5778875E-005  0.2575671E+03  0.7546771E-02  0.1108614E+00
         21   -1    0    0  502  501  0.00000000000E+00  0.00000000000E+00  0.10087193331E+03  0.10087193331E+03  0.00000000000E+00 0.  1.
         21   -1    0    0  501  502 -0.00000000000E+00 -0.00000000000E+00 -0.65767379577E+03  0.65767379577E+03  0.00000000000E+00 0.  1.
         25    1    1    2    0    0 -0.96495876044E+02  0.73747554877E+02 -0.26998749736E+03  0.32135401767E+03  0.12500000000E+03 0.  0.
         25    1    1    2    0    0  0.35899798777E+02 -0.12604649111E+03 -0.14666172047E+03  0.23304757824E+03  0.12500000000E+03 0.  0.
         25    1    1    2    0    0  0.60596077266E+02  0.52298936234E+02 -0.14015264463E+03  0.20414413317E+03  0.12500000000E+03 0.  0.
</event>
<event>
 5    0  0.5778875E-005  0.3411819E+03  0.7546771E-02  0.1066294E+00
         21   -1    0    0  502  501  0.00000000000E+00  0.00000000000E+00  0.70934158675E+03  0.70934158675E+03  0.00000000000E+00 0. -1.
         21   -1    0    0  501  502 -0.00000000000E+00 -0.00000000000E+00 -0.16410303718E+03  0.16410303718E+03  0.00000000000E+00 0. -1.
         25    1    1    2    0    0  0.52047708576E+02  0.10817512681E+03  0.17601036232E+03  0.24701309616E+03  0.12500000000E+03 0.  0.
         25    1    1    2    0    0  0.39147660563E+02 -0.25773203344E+03  0.18575614738E+03  0.34364034495E+03  0.12500000000E+03 0.  0.
         25    1    1    2    0    0 -0.91195369138E+02  0.14955690663E+03  0.18347203986E+03  0.28279118282E+03  0.12500000000E+03 0.  0.
</event>
<event>
 5    0  0.5903612E-005  0.3771801E+03  0.7546771E-02  0.1051981E+00
         21   -1    0    0  502  501  0.00000000000E+00  0.00000000000E+00  0.15041387476E+03  0.15041387476E+03  0.00000000000E+00 0. -1.
         21   -1    0    0  501  502 -0.00000000000E+00 -0.00000000000E+00 -0.94582236621E+03  0.94582236621E+03  0.00000000000E+00 0. -1.
         25    1    1    2    0    0  0.12820059013E+03 -0.16937291696E+03 -0.25932172339E+03  0.35776435336E+03  0.12500000000E+03 0.  0.
         25    1    1    2    0    0 -0.28018431783E+02  0.90694132366E+02  0.16459733819E+02  0.15781755607E+03  0.12500000000E+03 0.  0.
         25    1    1    2    0    0 -0.10018215835E+03  0.78678784598E+02 -0.55254650188E+03  0.58065433154E+03  0.12500000000E+03 0.  0.
</event>
<event>
 5    0  0.5778875E-005  0.4098357E+03  0.7546771E-02  0.1040426E+00
         21   -1    0    0  502  501  0.00000000000E+00  0.00000000000E+00  0.37507039020E+03  0.37507039020E+03  0.00000000000E+00 0. -1.
         21   -1    0    0  501  502 -0.00000000000E+00 -0.00000000000E+00 -0.44782347665E+03  0.44782347665E+03  0.00000000000E+00 0. -1.
         25    1    1    2    0    0  0.20640065456E+02  0.43367825548E+02 -0.41336254137E+02  0.14014444870E+03  0.12500000000E+03 0.  0.
         25    1    1    2    0    0  0.15880485541E+03  0.11520071504E+03 -0.24539973105E+03  0.33813638498E+03  0.12500000000E+03 0.  0.
         25    1    1    2    0    0 -0.17944492086E+03 -0.15856854059E+03  0.21398289873E+03  0.34461303318E+03  0.12500000000E+03 0.  0.
</event>
<event>
 5    0  0.5778875E-005  0.3935023E+03  0.7546771E-02  0.1046053E+00
         21   -1    0    0  502  501  0.00000000000E+00  0.00000000000E+00  0.57451706306E+03  0.57451706306E+03  0.00000000000E+00 0. -1.
         21   -1    0    0  501  502 -0.00000000000E+00 -0.00000000000E+00 -0.26952044732E+03  0.26952044732E+03  0.00000000000E+00 0. -1.
         25    1    1    2    0    0 -0.74319637862E+02  0.14311063024E+03  0.30052011242E+03  0.36323738661E+03  0.12500000000E+03 0.  0.
         25    1    1    2    0    0  0.21153064721E+03 -0.15333191948E+03 -0.31925108944E+02  0.29137622556E+03  0.12500000000E+03 0.  0.
         25    1    1    2    0    0 -0.13721100935E+03  0.10221289236E+02  0.36401612265E+02  0.18942389822E+03  0.12500000000E+03 0.  0.
</event>
<event>
 5    0  0.5778875E-005  0.3842177E+03  0.7546771E-02  0.1049386E+00
         21   -1    0    0  502  501  0.00000000000E+00  0.00000000000E+00  0.30223809667E+03  0.30223809667E+03  0.00000000000E+00 0.  1.
         21   -1    0    0  501  502 -0.00000000000E+00 -0.00000000000E+00 -0.48843362089E+03  0.48843362089E+03  0.00000000000E+00 0.  1.
         25    1    1    2    0    0 -0.15337598408E+03  0.77129689053E+02 -0.28112108794E+02  0.21421594732E+03  0.12500000000E+03 0.  0.
         25    1    1    2    0    0 -0.23962076751E+02 -0.13772097694E+03  0.11690274055E+03  0.22098076695E+03  0.12500000000E+03 0.  0.
         25    1    1    2    0    0  0.17733806083E+03  0.60591287889E+02 -0.27498615598E+03  0.35547500330E+03  0.12500000000E+03 0.  0.
</event>
<event>
 5    0  0.5778875E-005  0.4004403E+03  0.7546771E-02  0.1043627E+00
         21   -1    0    0  502  501  0.00000000000E+00  0.00000000000E+00  0.15311437694E+03  0.15311437694E+03  0.00000000000E+00 0. -1.
         21   -1    0    0  501  502 -0.00000000000E+00 -0.00000000000E+00 -0.10472723693E+04  0.10472723693E+04  0.00000000000E+00 0. -1.
         25    1    1    2    0    0  0.11969764809E+03  0.60682170179E+02 -0.10374540770E+03  0.21070823988E+03  0.12500000000E+03 0.  0.
         25    1    1    2    0    0  0.14716857719E+03  0.91856725735E+01 -0.65599639391E+02  0.20413544372E+03  0.12500000000E+03 0.  0.
         25    1    1    2    0    0 -0.26686622528E+03 -0.69867842752E+02 -0.72481294526E+03  0.78554306264E+03  0.12500000000E+03 0.  0.
</event>
<event>
 5    0  0.5778875E-005  0.3208957E+03  0.7546771E-02  0.1075238E+00
         21   -1    0    0  502  501  0.00000000000E+00  0.00000000000E+00  0.20304678788E+03  0.20304678788E+03  0.00000000000E+00 0.  1.
         21   -1    0    0  501  502 -0.00000000000E+00 -0.00000000000E+00 -0.50714457706E+03  0.50714457706E+03  0.00000000000E+00 0.  1.
         25    1    1    2    0    0  0.96813636082E+02 -0.82822371197E+02 -0.13957275268E+03  0.22657885734E+03  0.12500000000E+03 0.  0.
         25    1    1    2    0    0  0.61161996483E+02  0.60467204197E+02  0.75484587113E+02  0.16946974801E+03  0.12500000000E+03 0.  0.
         25    1    1    2    0    0 -0.15797563257E+03  0.22355167000E+02 -0.24000962362E+03  0.31414275960E+03  0.12500000000E+03 0.  0.
</event>
<event>
 5    0  0.6856745E-005  0.3815774E+03  0.7546771E-02  0.1050352E+00
         21   -1    0    0  502  501  0.00000000000E+00  0.00000000000E+00  0.69619785586E+03  0.69619785586E+03  0.00000000000E+00 0. -1.
         21   -1    0    0  501  502 -0.00000000000E+00 -0.00000000000E+00 -0.20913785339E+03  0.20913785339E+03  0.00000000000E+00 0. -1.
         25    1    1    2    0    0 -0.11335997831E+03  0.16497335049E+03  0.29252853220E+03  0.37585187668E+03  0.12500000000E+03 0.  0.
         25    1    1    2    0    0  0.35766055557E+02 -0.14736604976E+03  0.29211064413E+03  0.35206475508E+03  0.12500000000E+03 0.  0.
         25    1    1    2    0    0  0.77593922756E+02 -0.17607300731E+02 -0.97579173863E+02  0.17741907750E+03  0.12500000000E+03 0.  0.
</event>
<event>
 5    0  0.5778875E-005  0.2884956E+03  0.7546771E-02  0.1091137E+00
         21   -1    0    0  502  501  0.00000000000E+00  0.00000000000E+00  0.17887461344E+03  0.17887461344E+03  0.00000000000E+00 0.  1.
         21   -1    0    0  501  502 -0.00000000000E+00 -0.00000000000E+00 -0.46529627282E+03  0.46529627282E+03  0.00000000000E+00 0.  1.
         25    1    1    2    0    0  0.18350864349E+03  0.18822527213E+02 -0.61590348570E+02  0.23118840975E+03  0.12500000000E+03 0.  0.
         25    1    1    2    0    0 -0.17178645224E+03  0.10379704402E+02 -0.10594973406E+03  0.23763137331E+03  0.12500000000E+03 0.  0.
         25    1    1    2    0    0 -0.11722191253E+02 -0.29202231615E+02 -0.11888157675E+03  0.17535110319E+03  0.12500000000E+03 0.  0.
</event>
<event>
 5    0  0.5778875E-005  0.2619778E+03  0.7546771E-02  0.1105961E+00
         21   -1    0    0  502  501  0.00000000000E+00  0.00000000000E+00  0.49402164676E+03  0.49402164676E+03  0.00000000000E+00 0. -1.
         21   -1    0    0  501  502 -0.00000000000E+00 -0.00000000000E+00 -0.13892578869E+03  0.13892578869E+03  0.00000000000E+00 0. -1.
         25    1    1    2    0    0  0.23347868660E+02  0.19499490179E+02  0.94842087275E+02  0.15982920449E+03  0.12500000000E+03 0.  0.
         25    1    1    2    0    0 -0.10502585310E+03 -0.50237817841E+02  0.27094052934E+03  0.32029367555E+03  0.12500000000E+03 0.  0.
         25    1    1    2    0    0  0.81677984436E+02  0.30738327662E+02 -0.10686758545E+02  0.15282455541E+03  0.12500000000E+03 0.  0.
</event>
<event>
 5    0  0.5778875E-005  0.2795306E+03  0.7546771E-02  0.1095946E+00
         21   -1    0    0  502  501  0.00000000000E+00  0.00000000000E+00  0.25045398980E+03  0.25045398980E+03  0.00000000000E+00 0. -1.
         21   -1    0    0  501  502 -0.00000000000E+00 -0.00000000000E+00 -0.31198291382E+03  0.31198291382E+03  0.00000000000E+00 0. -1.
         25    1    1    2    0    0 -0.80638815230E+02 -0.10359928892E+03 -0.84172630439E+02  0.19986361075E+03  0.12500000000E+03 0.  0.
         25    1    1    2    0    0  0.30801896545E+02 -0.56157817004E+02  0.55695275411E+02  0.15109407978E+03  0.12500000000E+03 0.  0.
         25    1    1    2    0    0  0.49836918686E+02  0.15975710592E+03 -0.33051569001E+02  0.21147921309E+03  0.12500000000E+03 0.  0.
</event>
<event>
 5    0  0.5778875E-005  0.2547482E+03  0.7546771E-02  0.1110340E+00
         21   -1    0    0  502  501  0.00000000000E+00  0.00000000000E+00  0.19920907901E+03  0.19920907901E+03  0.00000000000E+00 0. -1.
         21   -1    0    0  501  502 -0.00000000000E+00 -0.00000000000E+00 -0.32577151400E+03  0.32577151400E+03  0.00000000000E+00 0. -1.
         25    1    1    2    0    0  0.11689816597E+02  0.85952305271E+02  0.80516253304E+02  0.17214040095E+03  0.12500000000E+03 0.  0.
         25    1    1    2    0    0 -0.36116178320E+02 -0.48372734177E+02 -0.50931262971E+02  0.14786241340E+03  0.12500000000E+03 0.  0.
         25    1    1    2    0    0  0.24426361723E+02 -0.37579571095E+02 -0.15614742532E+03  0.20497777866E+03  0.12500000000E+03 0.  0.
</event>
<event>
 5    0  0.5778875E-005  0.3485170E+03  0.7546771E-02  0.1063225E+00
         21   -1    0    0  502  501  0.00000000000E+00  0.00000000000E+00  0.11842923738E+04  0.11842923738E+04  0.00000000000E+00 0. -1.
         21   -1    0    0  501  502 -0.00000000000E+00 -0.00000000000E+00 -0.10256258010E+03  0.10256258010E+03  0.00000000000E+00 0. -1.
         25    1    1    2    0    0 -0.24426225110E+03  0.27860781976E+02  0.25564461613E+03  0.37605776184E+03  0.12500000000E+03 0.  0.
         25    1    1    2    0    0  0.36123765949E+02 -0.38840671166E+02  0.36762460942E+03  0.39190097940E+03  0.12500000000E+03 0.  0.
         25    1    1    2    0    0  0.20813848515E+03  0.10979889189E+02  0.45846056820E+03  0.51889621270E+03  0.12500000000E+03 0.  0.
</event>
<event>
 5    0  0.5778875E-005  0.3872454E+03  0.7546771E-02  0.1048288E+00
         21   -1    0    0  502  501  0.00000000000E+00  0.00000000000E+00  0.15225871950E+04  0.15225871950E+04  0.00000000000E+00 0. -1.
         21   -1    0    0  501  502 -0.00000000000E+00 -0.00000000000E+00 -0.98489620120E+02  0.98489620120E+02  0.00000000000E+00 0. -1.
         25    1    1    2    0    0  0.15154735406E+03  0.59567998876E+02  0.14835697609E+03  0.25327798832E+03  0.12500000000E+03 0.  0.
         25    1    1    2    0    0 -0.19485247861E+03 -0.13590991785E+03  0.41948654116E+03  0.49802906783E+03  0.12500000000E+03 0.  0.
         25    1    1    2    0    0  0.43305124545E+02  0.76341918978E+02  0.85625405762E+03  0.86976975895E+03  0.12500000000E+03 0.  0.
</event>
<event>
 5    0  0.5778875E-005  0.2543862E+03  0.7546771E-02  0.1110564E+00
         21   -1    0    0  502  501  0.00000000000E+00  0.00000000000E+00  0.73791197939E+03  0.73791197939E+03  0.00000000000E+00 0.  1.
         21   -1    0    0  501  502 -0.00000000000E+00 -0.00000000000E+00 -0.87696573038E+02  0.87696573038E+02  0.00000000000E+00 0.  1.
         25    1    1    2    0    0  0.55293798202E+02  0.46811953332E+02  0.24814588334E+03  0.28714132847E+03  0.12500000000E+03 0.  0.
         25    1    1    2    0    0  0.68945647052E+02  0.16620028365E+02  0.76369148632E+02  0.16274819339E+03  0.12500000000E+03 0.  0.
         25    1    1    2    0    0 -0.12423944525E+03 -0.63431981698E+02  0.32570037437E+03  0.37571903056E+03  0.12500000000E+03 0.  0.
</event>
<event>
 5    0  0.5778875E-005  0.3322587E+03  0.7546771E-02  0.1070142E+00
         21   -1    0    0  502  501  0.00000000000E+00  0.00000000000E+00  0.15661895403E+03  0.15661895403E+03  0.00000000000E+00 0.  1.
         21   -1    0    0  501  502 -0.00000000000E+00 -0.00000000000E+00 -0.70486906499E+03  0.70486906499E+03  0.00000000000E+00 0.  1.
         25    1    1    2    0    0 -0.11913580458E+03  0.11549251261E+03 -0.42048659422E+03  0.46900515597E+03  0.12500000000E+03 0.  0.
         25    1    1    2    0    0  0.17361194608E+03 -0.78095805520E+02 -0.98337486683E+02  0.24806314509E+03  0.12500000000E+03 0.  0.
         25    1    1    2    0    0 -0.54476141499E+02 -0.37396707090E+02 -0.29426030047E+02  0.14441971797E+03  0.12500000000E+03 0.  0.
</event>
<event>
 5    0  0.5778875E-005  0.3369627E+03  0.7546771E-02  0.1068097E+00
         21   -1    0    0  502  501  0.00000000000E+00  0.00000000000E+00  0.22755091383E+03  0.22755091383E+03  0.00000000000E+00 0.  1.
         21   -1    0    0  501  502 -0.00000000000E+00 -0.00000000000E+00 -0.49898229447E+03  0.49898229447E+03  0.00000000000E+00 0.  1.
         25    1    1    2    0    0 -0.40908391530E+02 -0.10918899162E+03 -0.28399575889E+03  0.33147296037E+03  0.12500000000E+03 0.  0.
         25    1    1    2    0    0 -0.98627778705E+02  0.13053623591E+03  0.15624892647E+02  0.20648555612E+03  0.12500000000E+03 0.  0.
         25    1    1    2    0    0  0.13953617023E+03 -0.21347244286E+02 -0.30605143946E+01  0.18857469181E+03  0.12500000000E+03 0.  0.
</event>
<event>
 5    0  0.5778875E-005  0.2765684E+03  0.7546771E-02  0.1097578E+00
         21   -1    0    0  502  501  0.00000000000E+00  0.00000000000E+00  0.68344977273E+02  0.68344977273E+02  0.00000000000E+00 0.  1.
         21   -1    0    0  501  502 -0.00000000000E+00 -0.00000000000E+00 -0.11191765167E+04  0.11191765167E+04  0.00000000000E+00 0.  1.
         25    1    1    2    0    0  0.81444803514E+01 -0.70825997432E+01 -0.24485163338E+03  0.27512509545E+03  0.12500000000E+03 0.  0.
         25    1    1    2    0    0 -0.14177727439E+02  0.17565537007E+03 -0.44839381495E+03  0.49773268958E+03  0.12500000000E+03 0.  0.
         25    1    1    2    0    0  0.60332470871E+01 -0.16857277032E+03 -0.35758609107E+03  0.41466370892E+03  0.12500000000E+03 0.  0.
</event>
<event>
 5    0  0.5778875E-005  0.2620805E+03  0.7546771E-02  0.1105900E+00
         21   -1    0    0  502  501  0.00000000000E+00  0.00000000000E+00  0.12158379730E+04  0.12158379730E+04  0.00000000000E+00 0.  1.
         21   -1    0    0  501  502 -0.00000000000E+00 -0.00000000000E+00 -0.56492900884E+02  0.56492900884E+02  0.00000000000E+00 0.  1.
         25    1    1    2    0    0  0.95130396642E+02 -0.33375640172E+02  0.20145194540E+03  0.25762688530E+03  0.12500000000E+03 0.  0.
         25    1    1    2    0    0 -0.56816788258E+02  0.68168533932E+02  0.24440859392E+03  0.28850590501E+03  0.12500000000E+03 0.  0.
         25    1    1    2    0    0 -0.38313608384E+02 -0.34792893760E+02  0.71348453279E+03  0.72619808356E+03  0.12500000000E+03 0.  0.
</event>
<event>
 5    0  0.5778875E-005  0.2883364E+03  0.7546771E-02  0.1091221E+00
         21   -1    0    0  502  501  0.00000000000E+00  0.00000000000E+00  0.18757746282E+03  0.18757746282E+03  0.00000000000E+00 0. -1.
         21   -1    0    0  501  502 -0.00000000000E+00 -0.00000000000E+00 -0.44321905752E+03  0.44321905752E+03  0.00000000000E+00 0. -1.
         25    1    1    2    0    0  0.10774641729E+02  0.78594231962E+02 -0.21998852317E+01  0.14806412698E+03  0.12500000000E+03 0.  0.
         25    1    1    2    0    0 -0.74629212352E+02 -0.17785921307E+03 -0.94212232512E+02  0.24840363074E+03  0.12500000000E+03 0.  0.
         25    1    1    2    0    0  0.63854570623E+02  0.99264981106E+02 -0.15922947696E+03  0.23432876263E+03  0.12500000000E+03 0.  0.
</event>
<event>
 5    0  0.5778875E-005  0.2215524E+03  0.7546771E-02  0.1132731E+00
         21   -1    0    0  502  501  0.00000000000E+00  0.00000000000E+00  0.13889789468E+04  0.13889789468E+04  0.00000000000E+00 0.  1.
         21   -1    0    0  501  502 -0.00000000000E+00 -0.00000000000E+00 -0.35339252685E+02  0.35339252685E+02  0.00000000000E+00 0.  1.
         25    1    1    2    0    0 -0.65952401434E+02  0.73289618807E+01  0.47242304871E+03  0.49316525617E+03  0.12500000000E+03 0.  0.
         25    1    1    2    0    0 -0.42155554959E+01  0.76324230437E+01  0.20920869040E+03  0.24386328328E+03  0.12500000000E+03 0.  0.
         25    1    1    2    0    0  0.70167956930E+02 -0.14961384924E+02  0.67200795503E+03  0.68728966007E+03  0.12500000000E+03 0.  0.
</event>
<event>
 5    0  0.5778875E-005  0.2752011E+03  0.7546771E-02  0.1098339E+00
         21   -1    0    0  502  501  0.00000000000E+00  0.00000000000E+00  0.23566885825E+02  0.23566885825E+02  0.00000000000E+00 0. -1.
         21   -1    0    0  501  502 -0.00000000000E+00 -0.00000000000E+00 -0.32136464055E+04  0.32136464055E+04  0.00000000000E+00 0. -1.
         25    1    1    2    0    0 -0.56283070966E+02  0.97403045695E+02 -0.67841022211E+03  0.69894246319E+03  0.12500000000E+03 0.  0.
         25    1    1    2    0    0 -0.66488125410E+02  0.35365851086E+02 -0.10829431954E+04  0.10927316133E+04  0.12500000000E+03 0.  0.
         25    1    1    2    0    0  0.12277119638E+03 -0.13276889678E+03 -0.14287261021E+04  0.14455392148E+04  0.12500000000E+03 0.  0.
</event>
<event>
 5    0  0.5778875E-005  0.2759365E+03  0.7546771E-02  0.1097929E+00
         21   -1    0    0  502  501  0.00000000000E+00  0.00000000000E+00  0.14287358967E+04  0.14287358967E+04  0.00000000000E+00 0. -1.
         21   -1    0    0  501  502 -0.00000000000E+00 -0.00000000000E+00 -0.53292532233E+02  0.53292532233E+02  0.00000000000E+00 0. -1.
         25    1    1    2    0    0  0.46284607499E+02  0.14565984320E+02  0.31966788597E+03  0.34665110718E+03  0.12500000000E+03 0.  0.
         25    1    1    2    0    0 -0.80335568875E+02 -0.14886517041E+03  0.73261880856E+03  0.76221385532E+03  0.12500000000E+03 0.  0.
         25    1    1    2    0    0  0.34050961376E+02  0.13429918609E+03  0.32315666995E+03  0.37316346644E+03  0.12500000000E+03 0.  0.
</event>
<event>
 5    0  0.5778875E-005  0.2683279E+03  0.7546771E-02  0.1102240E+00
         21   -1    0    0  502  501  0.00000000000E+00  0.00000000000E+00  0.95665458103E+03  0.95665458103E+03  0.00000000000E+00 0. -1.
         21   -1    0    0  501  502 -0.00000000000E+00 -0.00000000000E+00 -0.75262137314E+02  0.75262137314E+02  0.00000000000E+00 0. -1.
         25    1    1    2    0    0 -0.40932951787E+02 -0.60147808317E+02  0.79113228405E+02  0.16485499172E+03  0.12500000000E+03 0.  0.
         25    1    1    2    0    0 -0.19178229591E+02  0.12246496078E+03  0.40108158547E+03  0.43801473641E+03  0.12500000000E+03 0.  0.
         25    1    1    2    0    0  0.60111181378E+02 -0.62317152468E+02  0.40119762984E+03  0.42904699021E+03  0.12500000000E+03 0.  0.
</event>
<event>
 5    0  0.5778875E-005  0.7169319E+03  0.7546771E-02  0.9688707E-01
         21   -1    0    0  502  501  0.00000000000E+00  0.00000000000E+00  0.37629340996E+03  0.37629340996E+03  0.00000000000E+00 0.  1.
         21   -1    0    0  501  502 -0.00000000000E+00 -0.00000000000E+00 -0.13659323681E+04  0.13659323681E+04  0.00000000000E+00 0.  1.
         25    1    1    2    0    0 -0.12936239796E+03  0.13895177639E+03  0.19727085813E+01  0.22731281915E+03  0.12500000000E+03 0.  0.
         25    1    1    2    0    0  0.23914485423E+03 -0.58657361241E+03 -0.42078265865E+03  0.77067626790E+03  0.12500000000E+03 0.  0.
         25    1    1    2    0    0 -0.10978245626E+03  0.44762183602E+03 -0.57082900805E+03  0.74423669099E+03  0.12500000000E+03 0.  0.
</event>
<event>
 5    0  0.5778875E-005  0.5843150E+03  0.7546771E-02  0.9938493E-01
         21   -1    0    0  502  501  0.00000000000E+00  0.00000000000E+00  0.10338944381E+04  0.10338944381E+04  0.00000000000E+00 0. -1.
         21   -1    0    0  501  502 -0.00000000000E+00 -0.00000000000E+00 -0.33023102165E+03  0.33023102165E+03  0.00000000000E+00 0.  1.
         25    1    1    2    0    0  0.19177990961E+03 -0.39023102521E+03  0.99528565642E+02  0.46323937888E+03  0.12500000000E+03 0.  0.
         25    1    1    2    0    0  0.36492199953E+01  0.30613462410E+03  0.55979620854E+03  0.65017576084E+03  0.12500000000E+03 0.  0.
         25    1    1    2    0    0 -0.19542912960E+03  0.84096401102E+02  0.44338642276E+02  0.25071032004E+03  0.12500000000E+03 0.  0.
</event>
<event>
 5    0  0.5778875E-005  0.4614134E+03  0.7546771E-02  0.1024372E+00
         21   -1    0    0  502  501  0.00000000000E+00  0.00000000000E+00  0.17117785854E+04  0.17117785854E+04  0.00000000000E+00 0.  1.
         21   -1    0    0  501  502 -0.00000000000E+00 -0.00000000000E+00 -0.12437494308E+03  0.12437494308E+03  0.00000000000E+00 0.  1.
         25    1    1    2    0    0  0.81098201834E+02  0.73251864205E+02  0.63201392710E+03  0.65345953050E+03  0.12500000000E+03 0.  0.
         25    1    1    2    0    0 -0.70415970734E+02  0.16367954796E+03  0.87666145713E+03  0.90327720761E+03  0.12500000000E+03 0.  0.
         25    1    1    2    0    0 -0.10682231100E+02 -0.23693141217E+03  0.78728258122E+02  0.27941679041E+03  0.12500000000E+03 0.  0.
</event>
<event>
 5    0  0.5778875E-005  0.2373091E+03  0.7546771E-02  0.1121598E+00
         21   -1    0    0  502  501  0.00000000000E+00  0.00000000000E+00  0.21344052918E+03  0.21344052918E+03  0.00000000000E+00 0.  1.
         21   -1    0    0  501  502 -0.00000000000E+00 -0.00000000000E+00 -0.26384693482E+03  0.26384693482E+03  0.00000000000E+00 0.  1.
         25    1    1    2    0    0 -0.21108341700E+02  0.57763045496E+02  0.11166777988E+02  0.13975631809E+03  0.12500000000E+03 0.  0.
         25    1    1    2    0    0  0.10978512347E+03 -0.27980363338E+02  0.26181870206E+01  0.16872323186E+03  0.12500000000E+03 0.  0.
         25    1    1    2    0    0 -0.88676781768E+02 -0.29782682158E+02 -0.64191370648E+02  0.16880791405E+03  0.12500000000E+03 0.  0.
</event>
<event>
 5    0  0.5778875E-005  0.2575995E+03  0.7546771E-02  0.1108594E+00
         21   -1    0    0  502  501  0.00000000000E+00  0.00000000000E+00  0.10676624142E+03  0.10676624142E+03  0.00000000000E+00 0. -1.
         21   -1    0    0  501  502 -0.00000000000E+00 -0.00000000000E+00 -0.62152159514E+03  0.62152159514E+03  0.00000000000E+00 0. -1.
         25    1    1    2    0    0  0.35678108164E+02 -0.26258914205E+02 -0.36091974997E+03  0.38451335984E+03  0.12500000000E+03 0.  0.
         25    1    1    2    0    0 -0.10343575625E+02  0.64194007911E+02 -0.15663283144E+03  0.21068152290E+03  0.12500000000E+03 0.  0.
         25    1    1    2    0    0 -0.25334532539E+02 -0.37935093706E+02  0.27972276855E+01  0.13309295382E+03  0.12500000000E+03 0.  0.
</event>
<event>
 5    0  0.5778875E-005  0.2604533E+03  0.7546771E-02  0.1106871E+00
         21   -1    0    0  502  501  0.00000000000E+00  0.00000000000E+00  0.57757976593E+02  0.57757976593E+02  0.00000000000E+00 0.  1.
         21   -1    0    0  501  502 -0.00000000000E+00 -0.00000000000E+00 -0.11744861439E+04  0.11744861439E+04  0.00000000000E+00 0.  1.
         25    1    1    2    0    0 -0.15013136703E+02  0.13199620895E+03 -0.41919117356E+03  0.45715930860E+03  0.12500000000E+03 0.  0.
         25    1    1    2    0    0 -0.67166908410E+02 -0.11064792527E+02 -0.24470255447E+03  0.28308684778E+03  0.12500000000E+03 0.  0.
         25    1    1    2    0    0  0.82180045113E+02 -0.12093141643E+03 -0.45283443923E+03  0.49199796407E+03  0.12500000000E+03 0.  0.
</event>
<event>
 5    0  0.5778875E-005  0.2245482E+03  0.7546771E-02  0.1130537E+00
         21   -1    0    0  502  501  0.00000000000E+00  0.00000000000E+00  0.51115898080E+02  0.51115898080E+02  0.00000000000E+00 0.  1.
         21   -1    0    0  501  502 -0.00000000000E+00 -0.00000000000E+00 -0.98642298846E+03  0.98642298846E+03  0.00000000000E+00 0.  1.
         25    1    1    2    0    0  0.18985860676E+02 -0.62561568103E+02 -0.45432863987E+03  0.47572463223E+03  0.12500000000E+03 0.  0.
         25    1    1    2    0    0 -0.30727287531E+02  0.62893287660E+02 -0.36001076593E+03  0.38746933223E+03  0.12500000000E+03 0.  0.
         25    1    1    2    0    0  0.11741426855E+02 -0.33171955615E+00 -0.12096768459E+03  0.17434492209E+03  0.12500000000E+03 0.  0.
</event>
<event>
 5    0  0.5778875E-005  0.3067009E+03  0.7546771E-02  0.1081938E+00
         21   -1    0    0  502  501  0.00000000000E+00  0.00000000000E+00  0.17510703594E+04  0.17510703594E+04  0.00000000000E+00 0. -1.
         21   -1    0    0  501  502 -0.00000000000E+00 -0.00000000000E+00 -0.53718812192E+02  0.53718812192E+02  0.00000000000E+00 0. -1.
         25    1    1    2    0    0 -0.82468413627E+01 -0.15793721901E+03  0.64441258135E+03  0.67520719083E+03  0.12500000000E+03 0.  0.
         25    1    1    2    0    0 -0.89499469711E+02  0.19201303729E+03  0.66676358626E+03  0.71068828717E+03  0.12500000000E+03 0.  0.
         25    1    1    2    0    0  0.97746311074E+02 -0.34075818279E+02  0.38617537960E+03  0.41889369359E+03  0.12500000000E+03 0.  0.
</event>
<event>
 5    0  0.5778875E-005  0.4306815E+03  0.7546771E-02  0.1033645E+00
         21   -1    0    0  502  501  0.00000000000E+00  0.00000000000E+00  0.32909879122E+04  0.32909879122E+04  0.00000000000E+00 0. -1.
         21   -1    0    0  501  502 -0.00000000000E+00 -0.00000000000E+00 -0.56361977354E+02  0.56361977354E+02  0.00000000000E+00 0. -1.
         25    1    1    2    0    0 -0.17730306240E+03 -0.20223625687E+03  0.93149067798E+03  0.97756624466E+03  0.12500000000E+03 0.  0.
         25    1    1    2    0    0 -0.31285684800E+02 -0.84913270919E+02  0.10529634668E+04  0.10642115015E+04  0.12500000000E+03 0.  0.
         25    1    1    2    0    0  0.20858874720E+03  0.28714952779E+03  0.12501717901E+04  0.13055721433E+04  0.12500000000E+03 0.  0.
</event>
<event>
 5    0  0.5778875E-005  0.3226647E+03  0.7546771E-02  0.1074429E+00
         21   -1    0    0  502  501  0.00000000000E+00  0.00000000000E+00  0.38118404983E+03  0.38118404983E+03  0.00000000000E+00 0.  1.
         21   -1    0    0  501  502 -0.00000000000E+00 -0.00000000000E+00 -0.27312932131E+03  0.27312932131E+03  0.00000000000E+00 0.  1.
         25    1    1    2    0    0  0.20948978106E+03 -0.10657927422E+03  0.84302420418E+01  0.26634785346E+03  0.12500000000E+03 0.  0.
         25    1    1    2    0    0 -0.12561291325E+03  0.79742925780E+02 -0.17847720236E+02  0.19514374011E+03  0.12500000000E+03 0.  0.
         25    1    1    2    0    0 -0.83876867806E+02  0.26836348444E+02  0.11747220672E+03  0.19282177756E+03  0.12500000000E+03 0.  0.
</event>
<event>
 5    0  0.5778875E-005  0.2731428E+03  0.7546771E-02  0.1099494E+00
         21   -1    0    0  502  501  0.00000000000E+00  0.00000000000E+00  0.33517463503E+03  0.33517463503E+03  0.00000000000E+00 0. -1.
         21   -1    0    0  501  502 -0.00000000000E+00 -0.00000000000E+00 -0.22259139674E+03  0.22259139674E+03  0.00000000000E+00 0. -1.
         25    1    1    2    0    0 -0.15800850842E+03  0.26437000592E+02  0.50702490175E+02  0.20943100593E+03  0.12500000000E+03 0.  0.
         25    1    1    2    0    0 -0.13016285273E+02  0.13444528473E+02  0.34706717725E+02  0.13107148921E+03  0.12500000000E+03 0.  0.
         25    1    1    2    0    0  0.17102479370E+03 -0.39881529065E+02  0.27174030392E+02  0.21726353663E+03  0.12500000000E+03 0.  0.
</event>
<event>
 5    0  0.5778875E-005  0.5450091E+03  0.7546771E-02  0.1002656E+00
         21   -1    0    0  502  501  0.00000000000E+00  0.00000000000E+00  0.96427821023E+03  0.96427821023E+03  0.00000000000E+00 0. -1.
         21   -1    0    0  501  502 -0.00000000000E+00 -0.00000000000E+00 -0.30803864595E+03  0.30803864595E+03  0.00000000000E+00 0. -1.
         25    1    1    2    0    0  0.71742116197E+02 -0.31120810042E+03 -0.93833517898E+02  0.35556594618E+03  0.12500000000E+03 0.  0.
         25    1    1    2    0    0  0.88217419577E+02  0.25722461874E+03  0.32016381993E+03  0.43826554644E+03  0.12500000000E+03 0.  0.
         25    1    1    2    0    0 -0.15995953577E+03  0.53983481683E+02  0.42990926225E+03  0.47848536356E+03  0.12500000000E+03 0.  0.
</event>
<event>
 5    0  0.5778875E-005  0.6106737E+03  0.7546771E-02  0.9883506E-01
         21   -1    0    0  502  501  0.00000000000E+00  0.00000000000E+00  0.31987286084E+03  0.31987286084E+03  0.00000000000E+00 0.  1.
         21   -1    0    0  501  502 -0.00000000000E+00 -0.00000000000E+00 -0.11658454296E+04  0.11658454296E+04  0.00000000000E+00 0.  1.
         25    1    1    2    0    0  0.21029811909E+02  0.18002158283E+03 -0.97242588589E+02  0.24068889527E+03  0.12500000000E+03 0.  0.
         25    1    1    2    0    0 -0.75356748145E+02 -0.33902241750E+03 -0.90915357912E+03  0.98122376117E+03  0.12500000000E+03 0.  0.
         25    1    1    2    0    0  0.54326936236E+02  0.15900083468E+03  0.16042359895E+03  0.26380563400E+03  0.12500000000E+03 0.  0.
</event>
<event>
 5    0  0.6679843E-005  0.3483981E+03  0.7546771E-02  0.1063274E+00
         21   -1    0    0  502  501  0.00000000000E+00  0.00000000000E+00  0.21204166220E+03  0.21204166220E+03  0.00000000000E+00 0. -1.
         21   -1    0    0  501  502 -0.00000000000E+00 -0.00000000000E+00 -0.57244049688E+03  0.57244049688E+03  0.00000000000E+00 0. -1.
         25    1    1    2    0    0  0.11620717951E+03 -0.94365734402E+02 -0.14304586381E+03  0.24185971048E+03  0.12500000000E+03 0.  0.
         25    1    1    2    0    0 -0.54271615019E+02 -0.40338738144E+02  0.97847232183E+02  0.17254478502E+03  0.12500000000E+03 0.  0.
         25    1    1    2    0    0 -0.61935564489E+02  0.13470447255E+03 -0.31520020305E+03  0.37007766357E+03  0.12500000000E+03 0.  0.
</event>
<event>
 5    0  0.5778875E-005  0.4715182E+03  0.7546771E-02  0.1021493E+00
         21   -1    0    0  502  501  0.00000000000E+00  0.00000000000E+00  0.44468067022E+03  0.44468067022E+03  0.00000000000E+00 0. -1.
         21   -1    0    0  501  502 -0.00000000000E+00 -0.00000000000E+00 -0.49997543393E+03  0.49997543393E+03  0.00000000000E+00 0. -1.
         25    1    1    2    0    0  0.14249658786E+03  0.30702947595E+03 -0.10593564062E+03  0.37605815589E+03  0.12500000000E+03 0.  0.
         25    1    1    2    0    0 -0.64793841396E+02  0.22139814262E+02  0.13714213737E+03  0.19779125133E+03  0.12500000000E+03 0.  0.
         25    1    1    2    0    0 -0.77702746469E+02 -0.32916929022E+03 -0.86501260469E+02  0.37080669694E+03  0.12500000000E+03 0.  0.
</event>
<event>
 5    0  0.5778875E-005  0.2521798E+03  0.7546771E-02  0.1111935E+00
         21   -1    0    0  502  501  0.00000000000E+00  0.00000000000E+00  0.80102001424E+03  0.80102001424E+03  0.00000000000E+00 0.  1.
         21   -1    0    0  501  502 -0.00000000000E+00 -0.00000000000E+00 -0.79392101274E+02  0.79392101274E+02  0.00000000000E+00 0.  1.
         25    1    1    2    0    0  0.35079366164E+02 -0.11255377649E+03  0.18898630739E+03  0.25542070964E+03  0.12500000000E+03 0.  0.
         25    1    1    2    0    0 -0.89739826244E+02  0.38373578375E+02  0.35641542880E+03  0.39010604433E+03  0.12500000000E+03 0.  0.
         25    1    1    2    0    0  0.54660460080E+02  0.74180198112E+02  0.17622617677E+03  0.23488536154E+03  0.12500000000E+03 0.  0.
</event>
<event>
 5    0  0.5778875E-005  0.2808568E+03  0.7546771E-02  0.1095222E+00
         21   -1    0    0  502  501  0.00000000000E+00  0.00000000000E+00  0.47822957713E+03  0.47822957713E+03  0.00000000000E+00 0. -1.
         21   -1    0    0  501  502 -0.00000000000E+00 -0.00000000000E+00 -0.16494283297E+03  0.16494283297E+03  0.00000000000E+00 0. -1.
         25    1    1    2    0    0  0.33664805951E+02 -0.23337976329E+02 -0.61851745487E+02  0.14535686678E+03  0.12500000000E+03 0.  0.
         25    1    1    2    0    0 -0.99087184870E+02 -0.44442035665E+02  0.23661231552E+03  0.28879707858E+03  0.12500000000E+03 0.  0.
         25    1    1    2    0    0  0.65422378920E+02  0.67780011995E+02  0.13852617412E+03  0.20901846475E+03  0.12500000000E+03 0.  0.
</event>
<event>
 5    0  0.5778875E-005  0.5534145E+03  0.7546771E-02  0.1000707E+00
         21   -1    0    0  502  501  0.00000000000E+00  0.00000000000E+00  0.21361573825E+03  0.21361573825E+03  0.00000000000E+00 0.  1.
         21   -1    0    0  501  502 -0.00000000000E+00 -0.00000000000E+00 -0.14337314583E+04  0.14337314583E+04  0.00000000000E+00 0.  1.
         25    1    1    2    0    0  0.11431721325E+03  0.51224659310E+02 -0.26741300113E+03  0.32066665580E+03  0.12500000000E+03 0.  0.
         25    1    1    2    0    0 -0.25992020745E+03  0.31482175097E+03 -0.75763974557E+03  0.86966328725E+03  0.12500000000E+03 0.  0.
         25    1    1    2    0    0  0.14560299420E+03 -0.36604641028E+03 -0.19506297331E+03  0.45701725346E+03  0.12500000000E+03 0.  0.
</event>
<event>
 5    0  0.5778875E-005  0.2703504E+03  0.7546771E-02  0.1101079E+00
         21   -1    0    0  502  501  0.00000000000E+00  0.00000000000E+00  0.19854633565E+03  0.19854633565E+03  0.00000000000E+00 0. -1.
         21   -1    0    0  501  502 -0.00000000000E+00 -0.00000000000E+00 -0.36812241673E+03  0.36812241673E+03  0.00000000000E+00 0. -1.
         25    1    1    2    0    0  0.97724909487E+01 -0.28756042589E+02 -0.14307879897E+02  0.12943000808E+03  0.12500000000E+03 0.  0.
         25    1    1    2    0    0  0.42600827574E+02  0.10921235340E+03 -0.20940676087E+03  0.27058891356E+03  0.12500000000E+03 0.  0.
         25    1    1    2    0    0 -0.52373318523E+02 -0.80456310813E+02  0.54138559683E+02  0.16664983074E+03  0.12500000000E+03 0.  0.
</event>
<event>
 5    0  0.5862652E-005  0.3552467E+03  0.7546771E-02  0.1060482E+00
         21   -1    0    0  502  501  0.00000000000E+00  0.00000000000E+00  0.90453597282E+03  0.90453597282E+03  0.00000000000E+00 0.  1.
         21   -1    0    0  501  502 -0.00000000000E+00 -0.00000000000E+00 -0.13951925642E+03  0.13951925642E+03  0.00000000000E+00 0.  1.
         25    1    1    2    0    0  0.14400050823E+03  0.20624833979E+03  0.32406376300E+03  0.42885527456E+03  0.12500000000E+03 0.  0.
         25    1    1    2    0    0 -0.68454644453E+02 -0.16795551234E+03  0.99203916746E+02  0.24158126908E+03  0.12500000000E+03 0.  0.
         25    1    1    2    0    0 -0.75545863776E+02 -0.38292827443E+02  0.34174903666E+03  0.37361868560E+03  0.12500000000E+03 0.  0.
</event>
<event>
 5    0  0.5778875E-005  0.4044987E+03  0.7546771E-02  0.1042233E+00
         21   -1    0    0  502  501  0.00000000000E+00  0.00000000000E+00  0.88307035402E+03  0.88307035402E+03  0.00000000000E+00 0.  1.
         21   -1    0    0  501  502 -0.00000000000E+00 -0.00000000000E+00 -0.18528440235E+03  0.18528440235E+03  0.00000000000E+00 0.  1.
         25    1    1    2    0    0  0.21678113057E+03  0.20300383637E+03  0.12738025702E+03  0.34649003742E+03  0.12500000000E+03 0.  0.
         25    1    1    2    0    0 -0.21910267377E+03 -0.19022524618E+03  0.42720852119E+03  0.53134145943E+03  0.12500000000E+03 0.  0.
         25    1    1    2    0    0  0.23215431957E+01 -0.12778590195E+02  0.14319717346E+03  0.19052325952E+03  0.12500000000E+03 0.  0.
</event>
<event>
 5    0  0.5778875E-005  0.5455345E+03  0.7546771E-02  0.1002533E+00
         21   -1    0    0  502  501  0.00000000000E+00  0.00000000000E+00  0.28515991682E+03  0.28515991682E+03  0.00000000000E+00 0.  1.
         21   -1    0    0  501  502 -0.00000000000E+00 -0.00000000000E+00 -0.10436527715E+04  0.10436527715E+04  0.00000000000E+00 0.  1.
         25    1    1    2    0    0  0.10102042798E+03 -0.13076521500E+03 -0.25063503964E+03  0.32518854749E+03  0.12500000000E+03 0.  0.
         25    1    1    2    0    0 -0.28682395953E+03  0.94640366086E+02  0.11043942382E+03  0.34503137391E+03  0.12500000000E+03 0.  0.
         25    1    1    2    0    0  0.18580353154E+03  0.36124848917E+02 -0.61829723890E+03  0.65859276695E+03  0.12500000000E+03 0.  0.
</event>
<event>
 5    0  0.5778875E-005  0.2446105E+03  0.7546771E-02  0.1116759E+00
         21   -1    0    0  502  501  0.00000000000E+00  0.00000000000E+00  0.34118880696E+03  0.34118880696E+03  0.00000000000E+00 0. -1.
         21   -1    0    0  501  502 -0.00000000000E+00 -0.00000000000E+00 -0.17536999045E+03  0.17536999045E+03  0.00000000000E+00 0. -1.
         25    1    1    2    0    0  0.13720877600E+02 -0.81796599140E+02 -0.37015460036E+02  0.15451242796E+03  0.12500000000E+03 0.  0.
         25    1    1    2    0    0  0.41871954695E+02  0.92958250370E+02  0.12647538075E+03  0.20497687391E+03  0.12500000000E+03 0.  0.
         25    1    1    2    0    0 -0.55592832295E+02 -0.11161651229E+02  0.76358895804E+02  0.15706949554E+03  0.12500000000E+03 0.  0.
</event>
<event>
 5    0  0.5778875E-005  0.5165210E+03  0.7546771E-02  0.1009554E+00
         21   -1    0    0  502  501  0.00000000000E+00  0.00000000000E+00  0.36374333924E+03  0.36374333924E+03  0.00000000000E+00 0. -1.
         21   -1    0    0  501  502 -0.00000000000E+00 -0.00000000000E+00 -0.73346760742E+03  0.73346760742E+03  0.00000000000E+00 0.  1.
         25    1    1    2    0    0  0.26807815288E+03  0.87647160631E+02 -0.49701506463E+03  0.58497597839E+03  0.12500000000E+03 0.  0.
         25    1    1    2    0    0 -0.26352041029E+03 -0.10813856564E+03 -0.27373785364E+02  0.31226796208E+03  0.12500000000E+03 0.  0.
         25    1    1    2    0    0 -0.45577425917E+01  0.20491405013E+02  0.15466458181E+03  0.19996700619E+03  0.12500000000E+03 0.  0.
</event>
<event>
 5    0  0.5778875E-005  0.3324076E+03  0.7546771E-02  0.1070077E+00
         21   -1    0    0  502  501  0.00000000000E+00  0.00000000000E+00  0.69248476324E+02  0.69248476324E+02  0.00000000000E+00 0.  1.
         21   -1    0    0  501  502 -0.00000000000E+00 -0.00000000000E+00 -0.15956278078E+04  0.15956278078E+04  0.00000000000E+00 0.  1.
         25    1    1    2    0    0  0.14569542081E+03  0.48249409030E+02 -0.10383378196E+04  0.10570362286E+04  0.12500000000E+03 0.  0.
         25    1    1    2    0    0 -0.22716105241E+02  0.74768991562E+02 -0.21788835921E+03  0.26307177845E+03  0.12500000000E+03 0.  0.
         25    1    1    2    0    0 -0.12297931557E+03 -0.12301840059E+03 -0.27015315275E+03  0.34476827708E+03  0.12500000000E+03 0.  0.
</event>
<event>
 5    0  0.5778875E-005  0.2928506E+03  0.7546771E-02  0.1088870E+00
         21   -1    0    0  502  501  0.00000000000E+00  0.00000000000E+00  0.94559948517E+02  0.94559948517E+02  0.00000000000E+00 0. -1.
         21   -1    0    0  501  502 -0.00000000000E+00 -0.00000000000E+00 -0.90695377685E+03  0.90695377685E+03  0.00000000000E+00 0. -1.
         25    1    1    2    0    0  0.16609227415E+03 -0.51872781065E+02 -0.12425691765E+03  0.24767359676E+03  0.12500000000E+03 0.  0.
         25    1    1    2    0    0 -0.80749159489E+02  0.39351540569E+02 -0.30343473854E+03  0.34024492804E+03  0.12500000000E+03 0.  0.
         25    1    1    2    0    0 -0.85343114659E+02  0.12521240496E+02 -0.38470217214E+03  0.41359520057E+03  0.12500000000E+03 0.  0.
</event>
<event>
 5    0  0.5778875E-005  0.2808889E+03  0.7546771E-02  0.1095204E+00
         21   -1    0    0  502  501  0.00000000000E+00  0.00000000000E+00  0.11554678881E+03  0.11554678881E+03  0.00000000000E+00 0.  1.
         21   -1    0    0  501  502 -0.00000000000E+00 -0.00000000000E+00 -0.68282769679E+03  0.68282769679E+03  0.00000000000E+00 0.  1.
         25    1    1    2    0    0 -0.96711046917E+02  0.11662572451E+03 -0.84373958555E+02  0.21377219439E+03  0.12500000000E+03 0.  0.
         25    1    1    2    0    0  0.55771208632E+02 -0.11803416623E+03 -0.18345636393E+03  0.25753393869E+03  0.12500000000E+03 0.  0.
         25    1    1    2    0    0  0.40939838285E+02  0.14084417274E+01 -0.29945058549E+03  0.32706835252E+03  0.12500000000E+03 0.  0.
</event>
<event>
 5    0  0.5778875E-005  0.4604506E+03  0.7546771E-02  0.1024651E+00
         21   -1    0    0  502  501  0.00000000000E+00  0.00000000000E+00  0.35032783142E+03  0.35032783142E+03  0.00000000000E+00 0. -1.
         21   -1    0    0  501  502 -0.00000000000E+00 -0.00000000000E+00 -0.60518961836E+03  0.60518961836E+03  0.00000000000E+00 0. -1.
         25    1    1    2    0    0 -0.12008402600E+03 -0.21960399944E+03  0.58575987999E+02  0.28583603034E+03  0.12500000000E+03 0.  0.
         25    1    1    2    0    0 -0.18159041931E+03  0.11575498140E+03 -0.12462897961E+03  0.27844510888E+03  0.12500000000E+03 0.  0.
         25    1    1    2    0    0  0.30167444531E+03  0.10384901804E+03 -0.18880879533E+03  0.39123631055E+03  0.12500000000E+03 0.  0.
</event>
<event>
 5    0  0.5778875E-005  0.3845746E+03  0.7546771E-02  0.1049256E+00
         21   -1    0    0  502  501  0.00000000000E+00  0.00000000000E+00  0.13013683115E+03  0.13013683115E+03  0.00000000000E+00 0.  1.
         21   -1    0    0  501  502 -0.00000000000E+00 -0.00000000000E+00 -0.11364778020E+04  0.11364778020E+04  0.00000000000E+00 0.  1.
         25    1    1    2    0    0  0.22878022334E+03 -0.17195215083E+03 -0.59561770527E+03  0.67252760806E+03  0.12500000000E+03 0.  0.
         25    1    1    2    0    0 -0.11123415988E+03  0.17253721176E+03 -0.15452310459E+03  0.28573504794E+03  0.12500000000E+03 0.  0.
         25    1    1    2    0    0 -0.11754606346E+03 -0.58506093588E+00 -0.25620016100E+03  0.30835197717E+03  0.12500000000E+03 0.  0.
</event>
<event>
 5    0  0.5778875E-005  0.4127328E+03  0.7546771E-02  0.1039458E+00
         21   -1    0    0  502  501  0.00000000000E+00  0.00000000000E+00  0.29981055157E+03  0.29981055157E+03  0.00000000000E+00 0.  1.
         21   -1    0    0  501  502 -0.00000000000E+00 -0.00000000000E+00 -0.56818662929E+03  0.56818662929E+03  0.00000000000E+00 0.  1.
         25    1    1    2    0    0 -0.54583692637E+02 -0.30503982623E+03  0.37900217609E+02  0.33628871760E+03  0.12500000000E+03 0.  0.
         25    1    1    2    0    0  0.33160705815E+02  0.58016094450E+02 -0.40684860440E+02  0.14746442790E+03  0.12500000000E+03 0.  0.
         25    1    1    2    0    0  0.21422986822E+02  0.24702373178E+03 -0.26559143489E+03  0.38424403537E+03  0.12500000000E+03 0.  0.
</event>
<event>
 5    0  0.5778875E-005  0.5119620E+03  0.7546771E-02  0.1010703E+00
         21   -1    0    0  502  501  0.00000000000E+00  0.00000000000E+00  0.13748363937E+04  0.13748363937E+04  0.00000000000E+00 0. -1.
         21   -1    0    0  501  502 -0.00000000000E+00 -0.00000000000E+00 -0.19064454721E+03  0.19064454721E+03  0.00000000000E+00 0. -1.
         25    1    1    2    0    0 -0.20875775526E+03  0.25267665841E+03  0.23237297476E+03  0.42077011952E+03  0.12500000000E+03 0.  0.
         25    1    1    2    0    0  0.92538104479E+02  0.10855702482E+03  0.12710014035E+03  0.22831420038E+03  0.12500000000E+03 0.  0.
         25    1    1    2    0    0  0.11621965078E+03 -0.36123368323E+03  0.82471873142E+03  0.91639662105E+03  0.12500000000E+03 0.  0.
</event>
<event>
 5    0  0.5778875E-005  0.4338690E+03  0.7546771E-02  0.1032645E+00
         21   -1    0    0  502  501  0.00000000000E+00  0.00000000000E+00  0.25700090921E+03  0.25700090921E+03  0.00000000000E+00 0.  1.
         21   -1    0    0  501  502 -0.00000000000E+00 -0.00000000000E+00 -0.73245764121E+03  0.73245764121E+03  0.00000000000E+00 0.  1.
         25    1    1    2    0    0 -0.11227386881E+03  0.80421205110E+02 -0.67262915974E+02  0.19804618581E+03  0.12500000000E+03 0.  0.
         25    1    1    2    0    0  0.34156208054E+03  0.77482772169E+02 -0.20312078192E+03  0.42373492527E+03  0.12500000000E+03 0.  0.
         25    1    1    2    0    0 -0.22928821173E+03 -0.15790397728E+03 -0.20507303411E+03  0.36767743933E+03  0.12500000000E+03 0.  0.
</event>
<event>
 5    0  0.5778875E-005  0.2826932E+03  0.7546771E-02  0.1094227E+00
         21   -1    0    0  502  501  0.00000000000E+00  0.00000000000E+00  0.65402923821E+02  0.65402923821E+02  0.00000000000E+00 0. -1.
         21   -1    0    0  501  502 -0.00000000000E+00 -0.00000000000E+00 -0.12218938796E+04  0.12218938796E+04  0.00000000000E+00 0. -1.
         25    1    1    2    0    0 -0.12067337313E+03  0.13911987107E+03 -0.47461081894E+03  0.52421067422E+03  0.12500000000E+03 0.  0.
         25    1    1    2    0    0  0.10991933834E+03 -0.20370855811E+02 -0.29372458272E+03  0.33822531425E+03  0.12500000000E+03 0.  0.
         25    1    1    2    0    0  0.10754034785E+02 -0.11874901526E+03 -0.38815555416E+03  0.42486081499E+03  0.12500000000E+03 0.  0.
</event>
<event>
 5    0  0.5778875E-005  0.6273038E+03  0.7546771E-02  0.9850324E-01
         21   -1    0    0  502  501  0.00000000000E+00  0.00000000000E+00  0.19574150164E+04  0.19574150164E+04  0.00000000000E+00 0. -1.
         21   -1    0    0  501  502 -0.00000000000E+00 -0.00000000000E+00 -0.20103554951E+03  0.20103554951E+03  0.00000000000E+00 0. -1.
         25    1    1    2    0    0  0.34588522642E+03 -0.39037633177E+03  0.73632195354E+03  0.91094746804E+03  0.12500000000E+03 0.  0.
         25    1    1    2    0    0 -0.12939919327E+03  0.14815835664E+03  0.82204889300E+02  0.24713901692E+03  0.12500000000E+03 0.  0.
         25    1    1    2    0    0 -0.21648603315E+03  0.24221797513E+03  0.93785262407E+03  0.10003640810E+04  0.12500000000E+03 0.  0.
</event>
<event>
 5    0  0.5778875E-005  0.3521597E+03  0.7546771E-02  0.1061732E+00
         21   -1    0    0  502  501  0.00000000000E+00  0.00000000000E+00  0.89542631029E+02  0.89542631029E+02  0.00000000000E+00 0. -1.
         21   -1    0    0  501  502 -0.00000000000E+00 -0.00000000000E+00 -0.13849986645E+04  0.13849986645E+04  0.00000000000E+00 0. -1.
         25    1    1    2    0    0  0.18189760693E+01  0.10658816754E+03 -0.47412773281E+03  0.50178327309E+03  0.12500000000E+03 0.  0.
         25    1    1    2    0    0 -0.15802066971E+03  0.95882901122E+02 -0.25442552935E+03  0.33841012510E+03  0.12500000000E+03 0.  0.
         25    1    1    2    0    0  0.15620169364E+03 -0.20247106866E+03 -0.56690277129E+03  0.63434789733E+03  0.12500000000E+03 0.  0.
</event>
<event>
 5    0  0.5778875E-005  0.4843719E+03  0.7546771E-02  0.1017941E+00
         21   -1    0    0  502  501  0.00000000000E+00  0.00000000000E+00  0.10673045912E+03  0.10673045912E+03  0.00000000000E+00 0. -1.
         21   -1    0    0  501  502 -0.00000000000E+00 -0.00000000000E+00 -0.21982119825E+04  0.21982119825E+04  0.00000000000E+00 0. -1.
         25    1    1    2    0    0  0.19853380114E+02 -0.21854473305E+03 -0.83807531099E+02  0.26609144916E+03  0.12500000000E+03 0.  0.
         25    1    1    2    0    0 -0.67511526647E+02  0.11168101105E+03 -0.11681629801E+04  0.11820576138E+04  0.12500000000E+03 0.  0.
         25    1    1    2    0    0  0.47658146533E+02  0.10686372201E+03 -0.83951101223E+03  0.85679337863E+03  0.12500000000E+03 0.  0.
</event>
<event>
 5    0  0.5778875E-005  0.2233802E+03  0.7546771E-02  0.1131388E+00
         21   -1    0    0  502  501  0.00000000000E+00  0.00000000000E+00  0.13295996419E+03  0.13295996419E+03  0.00000000000E+00 0.  1.
         21   -1    0    0  501  502 -0.00000000000E+00 -0.00000000000E+00 -0.37529122862E+03  0.37529122862E+03  0.00000000000E+00 0.  1.
         25    1    1    2    0    0 -0.54281228678E+02  0.20189053305E+02 -0.12080049492E+03  0.18322611504E+03  0.12500000000E+03 0.  0.
         25    1    1    2    0    0  0.52505090909E+02  0.41549165671E+02 -0.26984262310E+01  0.14182876733E+03  0.12500000000E+03 0.  0.
         25    1    1    2    0    0  0.17761377692E+01 -0.61738218977E+02 -0.11883234329E+03  0.18319631044E+03  0.12500000000E+03 0.  0.
</event>
<event>
 5    0  0.5778875E-005  0.4063975E+03  0.7546771E-02  0.1041587E+00
         21   -1    0    0  502  501  0.00000000000E+00  0.00000000000E+00  0.19402308364E+03  0.19402308364E+03  0.00000000000E+00 0.  1.
         21   -1    0    0  501  502 -0.00000000000E+00 -0.00000000000E+00 -0.85123358940E+03  0.85123358940E+03  0.00000000000E+00 0.  1.
         25    1    1    2    0    0  0.79757240160E+02 -0.29950071091E+03 -0.17172769080E+03  0.37573566903E+03  0.12500000000E+03 0.  0.
         25    1    1    2    0    0 -0.11450202670E+03  0.17148152204E+03 -0.40262133721E+03  0.46930327902E+03  0.12500000000E+03 0.  0.
         25    1    1    2    0    0  0.34744786537E+02  0.12801918887E+03 -0.82861477743E+02  0.20021772500E+03  0.12500000000E+03 0.  0.
</event>
<event>
 5    0  0.5778875E-005  0.3439773E+03  0.7546771E-02  0.1065114E+00
         21   -1    0    0  502  501  0.00000000000E+00  0.00000000000E+00  0.34112853953E+03  0.34112853953E+03  0.00000000000E+00 0. -1.
         21   -1    0    0  501  502 -0.00000000000E+00 -0.00000000000E+00 -0.34684992036E+03  0.34684992036E+03  0.00000000000E+00 0. -1.
         25    1    1    2    0    0 -0.10213406168E+03  0.25618022979E+03  0.33265464890E+01  0.30281304893E+03  0.12500000000E+03 0.  0.
         25    1    1    2    0    0  0.78642954043E+02 -0.12049237840E+03 -0.44770997432E+02  0.19578705188E+03  0.12500000000E+03 0.  0.
         25    1    1    2    0    0  0.23491107642E+02 -0.13568785139E+03  0.35723070115E+02  0.18937835909E+03  0.12500000000E+03 0.  0.
</event>
<event>
 5    0  0.5778875E-005  0.3432596E+03  0.7546771E-02  0.1065416E+00
         21   -1    0    0  502  501  0.00000000000E+00  0.00000000000E+00  0.95493324961E+03  0.95493324961E+03  0.00000000000E+00 0. -1.
         21   -1    0    0  501  502 -0.00000000000E+00 -0.00000000000E+00 -0.12338787579E+03  0.12338787579E+03  0.00000000000E+00 0. -1.
         25    1    1    2    0    0  0.12850039797E+03  0.73198413036E+02  0.55707650607E+02  0.20149119655E+03  0.12500000000E+03 0.  0.
         25    1    1    2    0    0 -0.61438306145E+02 -0.36766090839E+02  0.69454036784E+03  0.70932202381E+03  0.12500000000E+03 0.  0.
         25    1    1    2    0    0 -0.67062091829E+02 -0.36432322198E+02  0.81297355368E+02  0.16750790504E+03  0.12500000000E+03 0.  0.
</event>
<event>
 5    0  0.6608976E-005  0.2969241E+03  0.7546771E-02  0.1086788E+00
         21   -1    0    0  502  501  0.00000000000E+00  0.00000000000E+00  0.60824535781E+03  0.60824535781E+03  0.00000000000E+00 0.  1.
         21   -1    0    0  501  502 -0.00000000000E+00 -0.00000000000E+00 -0.14494799268E+03  0.14494799268E+03  0.00000000000E+00 0.  1.
         25    1    1    2    0    0 -0.15095942673E+03  0.65670178714E+02  0.33449925709E+03  0.39321250474E+03  0.12500000000E+03 0.  0.
         25    1    1    2    0    0  0.27150838453E+02 -0.10094518737E+02 -0.10580726254E+02  0.12874788971E+03  0.12500000000E+03 0.  0.
         25    1    1    2    0    0  0.12380858827E+03 -0.55575659978E+02  0.13937883429E+03  0.23123295604E+03  0.12500000000E+03 0.  0.
</event>
<event>
 5    0  0.5778875E-005  0.2103015E+03  0.7546771E-02  0.1141327E+00
         21   -1    0    0  502  501  0.00000000000E+00  0.00000000000E+00  0.42999341410E+02  0.42999341410E+02  0.00000000000E+00 0. -1.
         21   -1    0    0  501  502 -0.00000000000E+00 -0.00000000000E+00 -0.10285437174E+04  0.10285437174E+04  0.00000000000E+00 0. -1.
         25    1    1    2    0    0  0.32310510062E+02 -0.22673405860E+02 -0.22457350546E+03  0.26003136685E+03  0.12500000000E+03 0.  0.
         25    1    1    2    0    0  0.68834488146E+01  0.54349904291E+02 -0.27218335415E+03  0.30448328729E+03  0.12500000000E+03 0.  0.
         25    1    1    2    0    0 -0.39193958876E+02 -0.31676498431E+02 -0.48878751638E+03  0.50702840466E+03  0.12500000000E+03 0.  0.
</event>
<event>
 5    0  0.5778875E-005  0.2104431E+03  0.7546771E-02  0.1141216E+00
         21   -1    0    0  502  501  0.00000000000E+00  0.00000000000E+00  0.26375912977E+02  0.26375912977E+02  0.00000000000E+00 0.  1.
         21   -1    0    0  501  502 -0.00000000000E+00 -0.00000000000E+00 -0.16790435849E+04  0.16790435849E+04  0.00000000000E+00 0.  1.
         25    1    1    2    0    0  0.19779923903E+02 -0.76830725582E+02 -0.55518512181E+03  0.57458656899E+03  0.12500000000E+03 0.  0.
         25    1    1    2    0    0 -0.25768275464E+02  0.34294331450E+02 -0.41042871017E+03  0.43118074090E+03  0.12500000000E+03 0.  0.
         25    1    1    2    0    0  0.59883515610E+01  0.42536394132E+02 -0.68705383998E+03  0.69965218803E+03  0.12500000000E+03 0.  0.
</event>
<event>
 5    0  0.5866685E-005  0.3642915E+03  0.7546771E-02  0.1056897E+00
         21   -1    0    0  502  501  0.00000000000E+00  0.00000000000E+00  0.57937786724E+03  0.57937786724E+03  0.00000000000E+00 0.  1.
         21   -1    0    0  501  502 -0.00000000000E+00 -0.00000000000E+00 -0.22905308951E+03  0.22905308951E+03  0.00000000000E+00 0. -1.
         25    1    1    2    0    0 -0.85692089371E+01 -0.18977588670E+03 -0.67626774593E+02  0.23724818051E+03  0.12500000000E+03 0.  0.
         25    1    1    2    0    0 -0.49612968482E+01  0.10808771210E+03  0.38309722668E+03  0.41724819120E+03  0.12500000000E+03 0.  0.
         25    1    1    2    0    0  0.13530505785E+02  0.81688174600E+02  0.34854325646E+02  0.15393458504E+03  0.12500000000E+03 0.  0.
</event>
<event>
 5    0  0.5778875E-005  0.2173186E+03  0.7546771E-02  0.1135898E+00
         21   -1    0    0  502  501  0.00000000000E+00  0.00000000000E+00  0.75451364387E+02  0.75451364387E+02  0.00000000000E+00 0.  1.
         21   -1    0    0  501  502 -0.00000000000E+00 -0.00000000000E+00 -0.62593149703E+03  0.62593149703E+03  0.00000000000E+00 0.  1.
         25    1    1    2    0    0  0.81881028538E+02  0.40471202516E+02 -0.13675886351E+03  0.20656816748E+03  0.12500000000E+03 0.  0.
         25    1    1    2    0    0 -0.29654810732E+02 -0.16167640599E+02 -0.15681995519E+03  0.20336739844E+03  0.12500000000E+03 0.  0.
         25    1    1    2    0    0 -0.52226217806E+02 -0.24303561916E+02 -0.25690131394E+03  0.29144729549E+03  0.12500000000E+03 0.  0.
</event>
<event>
 5    0  0.8146972E-005  0.7295133E+03  0.7546771E-02  0.9668050E-01
         21   -1    0    0  502  501  0.00000000000E+00  0.00000000000E+00  0.30214598513E+03  0.30214598513E+03  0.00000000000E+00 0.  1.
         21   -1    0    0  501  502 -0.00000000000E+00 -0.00000000000E+00 -0.17613661710E+04  0.17613661710E+04  0.00000000000E+00 0.  1.
         25    1    1    2    0    0 -0.39219107903E+02  0.33230687245E+03 -0.78524738589E+02  0.36572821941E+03  0.12500000000E+03 0.  0.
         25    1    1    2    0    0 -0.76614816608E+02  0.17286538416E+03 -0.10415142210E+04  0.10658935893E+04  0.12500000000E+03 0.  0.
         25    1    1    2    0    0  0.11583392451E+03 -0.50517225661E+03 -0.33918122631E+03  0.63189034745E+03  0.12500000000E+03 0.  0.
</event>
<event>
 5    0  0.5778875E-005  0.2555875E+03  0.7546771E-02  0.1109824E+00
         21   -1    0    0  502  501  0.00000000000E+00  0.00000000000E+00  0.78510261192E+02  0.78510261192E+02  0.00000000000E+00 0. -1.
         21   -1    0    0  501  502 -0.00000000000E+00 -0.00000000000E+00 -0.83205619531E+03  0.83205619531E+03  0.00000000000E+00 0. -1.
         25    1    1    2    0    0 -0.65023676248E+02  0.27881153245E+02 -0.14211818846E+03  0.20205943846E+03  0.12500000000E+03 0.  0.
         25    1    1    2    0    0  0.11383857769E+03 -0.23658986273E+02 -0.51675727412E+03  0.54422610169E+03  0.12500000000E+03 0.  0.
         25    1    1    2    0    0 -0.48814901446E+02 -0.42221669720E+01 -0.94670471535E+02  0.16428091635E+03  0.12500000000E+03 0.  0.
</event>
<event>
 5    0  0.6558342E-005  0.4136306E+03  0.7546771E-02  0.1039159E+00
         21   -1    0    0  502  501  0.00000000000E+00  0.00000000000E+00  0.21609687732E+03  0.21609687732E+03  0.00000000000E+00 0.  1.
         21   -1    0    0  501  502 -0.00000000000E+00 -0.00000000000E+00 -0.79172964300E+03  0.79172964300E+03  0.00000000000E+00 0.  1.
         25    1    1    2    0    0  0.20053446806E+03 -0.36475377494E+02  0.17111280281E+02  0.23971299914E+03  0.12500000000E+03 0.  0.
         25    1    1    2    0    0 -0.23953644129E+03 -0.76580569678E+02 -0.21850987971E+03  0.35582841074E+03  0.12500000000E+03 0.  0.
         25    1    1    2    0    0  0.39001973225E+02  0.11305594717E+03 -0.37423416625E+03  0.41228511045E+03  0.12500000000E+03 0.  0.
</event>
<event>
 5    0  0.5778875E-005  0.2980658E+03  0.7546771E-02  0.1086212E+00
         21   -1    0    0  502  501  0.00000000000E+00  0.00000000000E+00  0.41157304517E+03  0.41157304517E+03  0.00000000000E+00 0. -1.
         21   -1    0    0  501  502 -0.00000000000E+00 -0.00000000000E+00 -0.21586256364E+03  0.21586256364E+03  0.00000000000E+00 0. -1.
         25    1    1    2    0    0  0.14825038964E+03  0.12900354002E+03  0.65812054197E+02  0.24202544875E+03  0.12500000000E+03 0.  0.
         25    1    1    2    0    0 -0.86584406201E+02 -0.14444736810E+03  0.12691651899E+03  0.24514221248E+03  0.12500000000E+03 0.  0.
         25    1    1    2    0    0 -0.61665983440E+02  0.15443828077E+02  0.29819083455E+01  0.14026794757E+03  0.12500000000E+03 0.  0.
</event>
<event>
 5    0  0.5778875E-005  0.3412721E+03  0.7546771E-02  0.1066255E+00
         21   -1    0    0  502  501  0.00000000000E+00  0.00000000000E+00  0.34808363269E+02  0.34808363269E+02  0.00000000000E+00 0. -1.
         21   -1    0    0  501  502 -0.00000000000E+00 -0.00000000000E+00 -0.33459389755E+04  0.33459389755E+04  0.00000000000E+00 0. -1.
         25    1    1    2    0    0  0.52571878024E+02 -0.10254471687E+03 -0.12866919802E+04  0.12978753689E+04  0.12500000000E+03 0.  0.
         25    1    1    2    0    0  0.63993503022E+02  0.18974870604E+03 -0.15968579405E+04  0.16142118889E+04  0.12500000000E+03 0.  0.
         25    1    1    2    0    0 -0.11656538105E+03 -0.87203989163E+02 -0.42758069149E+03  0.46866008099E+03  0.12500000000E+03 0.  0.
</event>
<event>
 5    0  0.5778875E-005  0.5176435E+03  0.7546771E-02  0.1009274E+00
         21   -1    0    0  502  501  0.00000000000E+00  0.00000000000E+00  0.12769043133E+04  0.12769043133E+04  0.00000000000E+00 0. -1.
         21   -1    0    0  501  502 -0.00000000000E+00 -0.00000000000E+00 -0.20984719348E+03  0.20984719348E+03  0.00000000000E+00 0. -1.
         25    1    1    2    0    0 -0.20093943531E+03 -0.30092469601E+02  0.38812471451E+02  0.24168910056E+03  0.12500000000E+03 0.  0.
         25    1    1    2    0    0  0.38817457109E+02  0.26799672372E+03  0.80895685231E+03  0.86218630690E+03  0.12500000000E+03 0.  0.
         25    1    1    2    0    0  0.16212197820E+03 -0.23790425412E+03  0.21928779611E+03  0.38287609937E+03  0.12500000000E+03 0.  0.
</event>
<event>
 5    0  0.5778875E-005  0.3002904E+03  0.7546771E-02  0.1085096E+00
         21   -1    0    0  502  501  0.00000000000E+00  0.00000000000E+00  0.12617796117E+03  0.12617796117E+03  0.00000000000E+00 0.  1.
         21   -1    0    0  501  502 -0.00000000000E+00 -0.00000000000E+00 -0.71465991265E+03  0.71465991265E+03  0.00000000000E+00 0.  1.
         25    1    1    2    0    0 -0.20869781971E+03  0.29896628948E+02 -0.21334585509E+03  0.32494621441E+03  0.12500000000E+03 0.  0.
         25    1    1    2    0    0  0.17889721269E+03 -0.45675030386E+02 -0.21246800932E+03  0.30799038312E+03  0.12500000000E+03 0.  0.
         25    1    1    2    0    0  0.29800607024E+02  0.15778401438E+02 -0.16266808708E+03  0.20790127629E+03  0.12500000000E+03 0.  0.
</event>
<event>
 5    0  0.5778875E-005  0.3125997E+03  0.7546771E-02  0.1079106E+00
         21   -1    0    0  502  501  0.00000000000E+00  0.00000000000E+00  0.36125608842E+03  0.36125608842E+03  0.00000000000E+00 0.  1.
         21   -1    0    0  501  502 -0.00000000000E+00 -0.00000000000E+00 -0.27049666059E+03  0.27049666059E+03  0.00000000000E+00 0.  1.
         25    1    1    2    0    0  0.30136057729E+02  0.78095652546E+01 -0.59796682689E+02  0.14202047228E+03  0.12500000000E+03 0.  0.
         25    1    1    2    0    0 -0.99106016426E+02 -0.69722403530E+02 -0.95524762315E+02  0.19857793498E+03  0.12500000000E+03 0.  0.
         25    1    1    2    0    0  0.68969958697E+02  0.61912838275E+02  0.24608087284E+03  0.29115434175E+03  0.12500000000E+03 0.  0.
</event>
<event>
 5    0  0.5778875E-005  0.2355263E+03  0.7546771E-02  0.1122809E+00
         21   -1    0    0  502  501  0.00000000000E+00  0.00000000000E+00  0.23612615852E+03  0.23612615852E+03  0.00000000000E+00 0.  1.
         21   -1    0    0  501  502 -0.00000000000E+00 -0.00000000000E+00 -0.23492798673E+03  0.23492798673E+03  0.00000000000E+00 0.  1.
         25    1    1    2    0    0  0.61751235944E+01  0.37602009563E+02 -0.94129020304E+02  0.16105066202E+03  0.12500000000E+03 0.  0.
         25    1    1    2    0    0 -0.12981480770E+02  0.35098637812E+02  0.10118965367E+03  0.16512049912E+03  0.12500000000E+03 0.  0.
         25    1    1    2    0    0  0.68063571760E+01 -0.72700647375E+02 -0.58624615786E+01  0.14488298410E+03  0.12500000000E+03 0.  0.
</event>
<event>
 5    0  0.5778875E-005  0.3086102E+03  0.7546771E-02  0.1081014E+00
         21   -1    0    0  502  501  0.00000000000E+00  0.00000000000E+00  0.63731315995E+03  0.63731315995E+03  0.00000000000E+00 0.  1.
         21   -1    0    0  501  502 -0.00000000000E+00 -0.00000000000E+00 -0.14944029308E+03  0.14944029308E+03  0.00000000000E+00 0.  1.
         25    1    1    2    0    0  0.42761663697E+02  0.22932149798E+03  0.20303367946E+03  0.33356346370E+03  0.12500000000E+03 0.  0.
         25    1    1    2    0    0  0.21259618365E+01 -0.14810006089E+03  0.12839650376E+03  0.23248399929E+03  0.12500000000E+03 0.  0.
         25    1    1    2    0    0 -0.44887625533E+02 -0.81221437092E+02  0.15644268364E+03  0.22070599003E+03  0.12500000000E+03 0.  0.
</event>
<event>
 5    0  0.5833226E-005  0.2581050E+03  0.7546771E-02  0.1108287E+00
         21   -1    0    0  502  501  0.00000000000E+00  0.00000000000E+00  0.14857074560E+03  0.14857074560E+03  0.00000000000E+00 0.  1.
         21   -1    0    0  501  502 -0.00000000000E+00 -0.00000000000E+00 -0.44839368978E+03  0.44839368978E+03  0.00000000000E+00 0.  1.
         25    1    1    2    0    0 -0.48811393571E+01 -0.65976395022E+02 -0.81451821620E+02  0.16320572743E+03  0.12500000000E+03 0.  0.
         25    1    1    2    0    0  0.93886894787E+02 -0.66278742897E+02 -0.12410670806E+03  0.21032141060E+03  0.12500000000E+03 0.  0.
         25    1    1    2    0    0 -0.89005755430E+02  0.13225513792E+03 -0.94264414494E+02  0.22343729735E+03  0.12500000000E+03 0.  0.
</event>
<event>
 5    0  0.5778875E-005  0.2267865E+03  0.7546771E-02  0.1128922E+00
         21   -1    0    0  502  501  0.00000000000E+00  0.00000000000E+00  0.24719349318E+02  0.24719349318E+02  0.00000000000E+00 0. -1.
         21   -1    0    0  501  502 -0.00000000000E+00 -0.00000000000E+00 -0.20806411156E+04  0.20806411156E+04  0.00000000000E+00 0. -1.
         25    1    1    2    0    0  0.32054805532E+02 -0.40359937874E+02 -0.44097683600E+03  0.46123963949E+03  0.12500000000E+03 0.  0.
         25    1    1    2    0    0  0.23204757968E+02 -0.84017443258E+01 -0.38250164388E+03  0.40316443007E+03  0.12500000000E+03 0.  0.
         25    1    1    2    0    0 -0.55259563501E+02  0.48761682200E+02 -0.12324432864E+04  0.12409563954E+04  0.12500000000E+03 0.  0.
</event>
<event>
 5    0  0.5778875E-005  0.3826060E+03  0.7546771E-02  0.1049975E+00
         21   -1    0    0  502  501  0.00000000000E+00  0.00000000000E+00  0.39508592551E+03  0.39508592551E+03  0.00000000000E+00 0. -1.
         21   -1    0    0  501  502 -0.00000000000E+00 -0.00000000000E+00 -0.37052021427E+03  0.37052021427E+03  0.00000000000E+00 0. -1.
         25    1    1    2    0    0 -0.94059889023E+02 -0.25614919822E+03  0.12831363371E+03  0.32641853971E+03  0.12500000000E+03 0.  0.
         25    1    1    2    0    0  0.61053659134E+02  0.23846190209E+03 -0.13148178499E+03  0.30578438127E+03  0.12500000000E+03 0.  0.
         25    1    1    2    0    0  0.33006229888E+02  0.17687296124E+02  0.27733862520E+02  0.13340321880E+03  0.12500000000E+03 0.  0.
</event>
<event>
 5    0  0.5778875E-005  0.3873710E+03  0.7546771E-02  0.1048243E+00
         21   -1    0    0  502  501  0.00000000000E+00  0.00000000000E+00  0.14682109403E+03  0.14682109403E+03  0.00000000000E+00 0.  1.
         21   -1    0    0  501  502 -0.00000000000E+00 -0.00000000000E+00 -0.10220350682E+04  0.10220350682E+04  0.00000000000E+00 0.  1.
         25    1    1    2    0    0 -0.19026735207E+03  0.46592244234E+02 -0.54271181007E+03  0.59036735283E+03  0.12500000000E+03 0.  0.
         25    1    1    2    0    0  0.25312854811E+03  0.10504328252E+02 -0.31999240532E+03  0.42685424004E+03  0.12500000000E+03 0.  0.
         25    1    1    2    0    0 -0.62861196036E+02 -0.57096572486E+02 -0.12509758758E+02  0.15163456935E+03  0.12500000000E+03 0.  0.
</event>
<event>
 5    0  0.5778875E-005  0.2327125E+03  0.7546771E-02  0.1124745E+00
         21   -1    0    0  502  501  0.00000000000E+00  0.00000000000E+00  0.13749920282E+03  0.13749920282E+03  0.00000000000E+00 0.  1.
         21   -1    0    0  501  502 -0.00000000000E+00 -0.00000000000E+00 -0.39385753978E+03  0.39385753978E+03  0.00000000000E+00 0.  1.
         25    1    1    2    0    0  0.52812098174E+02  0.29633922656E+01  0.99386576308E+00  0.13573462040E+03  0.12500000000E+03 0.  0.
         25    1    1    2    0    0 -0.53984371977E+01 -0.76600403562E+02 -0.10889198777E+03  0.18269983566E+03  0.12500000000E+03 0.  0.
         25    1    1    2    0    0 -0.47413660976E+02  0.73637011296E+02 -0.14846021495E+03  0.21292228653E+03  0.12500000000E+03 0.  0.
</event>
<event>
 5    0  0.5778875E-005  0.4080572E+03  0.7546771E-02  0.1041025E+00
         21   -1    0    0  502  501  0.00000000000E+00  0.00000000000E+00  0.18281552233E+03  0.18281552233E+03  0.00000000000E+00 0. -1.
         21   -1    0    0  501  502 -0.00000000000E+00 -0.00000000000E+00 -0.91081270220E+03  0.91081270220E+03  0.00000000000E+00 0. -1.
         25    1    1    2    0    0 -0.58563297077E+02 -0.31367091681E+03 -0.49606224440E+03  0.60292773542E+03  0.12500000000E+03 0.  0.
         25    1    1    2    0    0  0.38253820456E+01  0.13055272139E+03 -0.18280971576E+03  0.25710511233E+03  0.12500000000E+03 0.  0.
         25    1    1    2    0    0  0.54737915032E+02  0.18311819543E+03 -0.49125219712E+02  0.23359537678E+03  0.12500000000E+03 0.  0.
</event>
<event>
 5    0  0.5778875E-005  0.6503188E+03  0.7546771E-02  0.9806181E-01
         21   -1    0    0  502  501  0.00000000000E+00  0.00000000000E+00  0.13666187002E+04  0.13666187002E+04  0.00000000000E+00 0. -1.
         21   -1    0    0  501  502 -0.00000000000E+00 -0.00000000000E+00 -0.30946054294E+03  0.30946054294E+03  0.00000000000E+00 0. -1.
         25    1    1    2    0    0  0.10008031502E+02  0.50031630468E+03  0.10515421072E+03  0.52640191247E+03  0.12500000000E+03 0.  0.
         25    1    1    2    0    0  0.11444474795E+03 -0.37847574540E+03  0.50133885102E+03  0.65062057586E+03  0.12500000000E+03 0.  0.
         25    1    1    2    0    0 -0.12445277945E+03 -0.12184055928E+03  0.45066509558E+03  0.49905675486E+03  0.12500000000E+03 0.  0.
</event>
<event>
 5    0  0.5778875E-005  0.4638227E+03  0.7546771E-02  0.1023678E+00
         21   -1    0    0  502  501  0.00000000000E+00  0.00000000000E+00  0.11900716182E+04  0.11900716182E+04  0.00000000000E+00 0. -1.
         21   -1    0    0  501  502 -0.00000000000E+00 -0.00000000000E+00 -0.18077188521E+03  0.18077188521E+03  0.00000000000E+00 0. -1.
         25    1    1    2    0    0  0.14418736236E+03 -0.83557429851E+02  0.59338008483E+03  0.62888533504E+03  0.12500000000E+03 0.  0.
         25    1    1    2    0    0 -0.19638139444E+03  0.28585924993E+02 -0.61658199895E+02  0.24250678507E+03  0.12500000000E+03 0.  0.
         25    1    1    2    0    0  0.52194032084E+02  0.54971504858E+02  0.47757784803E+03  0.49945138328E+03  0.12500000000E+03 0.  0.
</event>
<event>
 5    0  0.5778875E-005  0.2291313E+03  0.7546771E-02  0.1127253E+00
         21   -1    0    0  502  501  0.00000000000E+00  0.00000000000E+00  0.24313892586E+03  0.24313892586E+03  0.00000000000E+00 0. -1.
         21   -1    0    0  501  502 -0.00000000000E+00 -0.00000000000E+00 -0.21593070403E+03  0.21593070403E+03  0.00000000000E+00 0. -1.
         25    1    1    2    0    0  0.45431225834E+01  0.38506739211E+02 -0.23933268095E+02  0.13304589527E+03  0.12500000000E+03 0.  0.
         25    1    1    2    0    0  0.37461217618E+02 -0.34964378160E+02  0.11687655897E+03  0.17863644813E+03  0.12500000000E+03 0.  0.
         25    1    1    2    0    0 -0.42004340202E+02 -0.35423610506E+01 -0.65735069041E+02  0.14738728649E+03  0.12500000000E+03 0.  0.
</event>
<event>
 5    0  0.6976305E-005  0.3378112E+03  0.7546771E-02  0.1067732E+00
         21   -1    0    0  502  501  0.00000000000E+00  0.00000000000E+00  0.34551362904E+03  0.34551362904E+03  0.00000000000E+00 0.  1.
         21   -1    0    0  501  502 -0.00000000000E+00 -0.00000000000E+00 -0.33028040209E+03  0.33028040209E+03  0.00000000000E+00 0.  1.
         25    1    1    2    0    0  0.23091544150E+02 -0.49330045786E+02 -0.18738746627E+03  0.23174497911E+03  0.12500000000E+03 0.  0.
         25    1    1    2    0    0 -0.10298678423E+03  0.86997402374E+02 -0.76078049892E+01  0.18400463158E+03  0.12500000000E+03 0.  0.
         25    1    1    2    0    0  0.79895240077E+02 -0.37667356588E+02  0.21022849821E+03  0.26004442044E+03  0.12500000000E+03 0.  0.
</event>
<event>
 5    0  0.5778875E-005  0.2077411E+03  0.7546771E-02  0.1143367E+00
         21   -1    0    0  502  501  0.00000000000E+00  0.00000000000E+00  0.64561812500E+03  0.64561812500E+03  0.00000000000E+00 0. -1.
         21   -1    0    0  501  502 -0.00000000000E+00 -0.00000000000E+00 -0.66845030108E+02  0.66845030108E+02  0.00000000000E+00 0. -1.
         25    1    1    2    0    0 -0.12267054966E+02  0.62371443239E+02  0.21515508067E+03  0.25682170139E+03  0.12500000000E+03 0.  0.
         25    1    1    2    0    0 -0.50915866388E+01 -0.55296051484E+02  0.12348732356E+03  0.18427614236E+03  0.12500000000E+03 0.  0.
         25    1    1    2    0    0  0.17358641605E+02 -0.70753917546E+01  0.24013069066E+03  0.27136531135E+03  0.12500000000E+03 0.  0.
</event>
<event>
 5    0  0.5778875E-005  0.4014555E+03  0.7546771E-02  0.1043277E+00
         21   -1    0    0  502  501  0.00000000000E+00  0.00000000000E+00  0.13586996118E+03  0.13586996118E+03  0.00000000000E+00 0. -1.
         21   -1    0    0  501  502 -0.00000000000E+00 -0.00000000000E+00 -0.11861820579E+04  0.11861820579E+04  0.00000000000E+00 0. -1.
         25    1    1    2    0    0 -0.23296758060E+03  0.31013163696E+02 -0.47833798721E+03  0.54741934560E+03  0.12500000000E+03 0.  0.
         25    1    1    2    0    0  0.14600733690E+03 -0.14494314026E+03 -0.52675109153E+03  0.57915314794E+03  0.12500000000E+03 0.  0.
         25    1    1    2    0    0  0.86960243692E+02  0.11392997657E+03 -0.45223017958E+02  0.19547952552E+03  0.12500000000E+03 0.  0.
</event>
<event>
 5    0  0.5778875E-005  0.2278490E+03  0.7546771E-02  0.1128163E+00
         21   -1    0    0  502  501  0.00000000000E+00  0.00000000000E+00  0.19511041431E+03  0.19511041431E+03  0.00000000000E+00 0. -1.
         21   -1    0    0  501  502 -0.00000000000E+00 -0.00000000000E+00 -0.26608091165E+03  0.26608091165E+03  0.00000000000E+00 0. -1.
         25    1    1    2    0    0  0.28066757104E+02 -0.44531754861E+01  0.42576382974E+02  0.13507524575E+03  0.12500000000E+03 0.  0.
         25    1    1    2    0    0 -0.53003595508E+02  0.57776393311E+02 -0.11636759952E+03  0.18791995897E+03  0.12500000000E+03 0.  0.
         25    1    1    2    0    0  0.24936838404E+02 -0.53323217825E+02  0.28207192039E+01  0.13819612124E+03  0.12500000000E+03 0.  0.
</event>
<event>
 5    0  0.5778875E-005  0.4366073E+03  0.7546771E-02  0.1031793E+00
         21   -1    0    0  502  501  0.00000000000E+00  0.00000000000E+00  0.48693149280E+03  0.48693149280E+03  0.00000000000E+00 0. -1.
         21   -1    0    0  501  502 -0.00000000000E+00 -0.00000000000E+00 -0.39148401759E+03  0.39148401759E+03  0.00000000000E+00 0. -1.
         25    1    1    2    0    0 -0.55137025811E+02  0.19068079069E+03  0.22441271973E+03  0.32463105879E+03  0.12500000000E+03 0.  0.
         25    1    1    2    0    0  0.58539090402E+02 -0.15781924817E+03 -0.28330287194E+03  0.35244752439E+03  0.12500000000E+03 0.  0.
         25    1    1    2    0    0 -0.34020645918E+01 -0.32861542515E+02  0.15433762743E+03  0.20133692721E+03  0.12500000000E+03 0.  0.
</event>
<event>
 5    0  0.5778875E-005  0.2625807E+03  0.7546771E-02  0.1105603E+00
         21   -1    0    0  502  501  0.00000000000E+00  0.00000000000E+00  0.68083355569E+03  0.68083355569E+03  0.00000000000E+00 0. -1.
         21   -1    0    0  501  502 -0.00000000000E+00 -0.00000000000E+00 -0.10127089099E+03  0.10127089099E+03  0.00000000000E+00 0. -1.
         25    1    1    2    0    0 -0.41356371381E+01 -0.42065009850E+02  0.25158659883E+01  0.13197688483E+03  0.12500000000E+03 0.  0.
         25    1    1    2    0    0 -0.24281652000E+02  0.94760406859E+02  0.34653999278E+03  0.38116151423E+03  0.12500000000E+03 0.  0.
         25    1    1    2    0    0  0.28417289138E+02 -0.52695397009E+02  0.23050680593E+03  0.26896604762E+03  0.12500000000E+03 0.  0.
</event>
<event>
 5    0  0.5778875E-005  0.3826773E+03  0.7546771E-02  0.1049949E+00
         21   -1    0    0  502  501  0.00000000000E+00  0.00000000000E+00  0.86868638556E+03  0.86868638556E+03  0.00000000000E+00 0. -1.
         21   -1    0    0  501  502 -0.00000000000E+00 -0.00000000000E+00 -0.16857854947E+03  0.16857854947E+03  0.00000000000E+00 0. -1.
         25    1    1    2    0    0 -0.12187596235E+02  0.14608552935E+03  0.20604203894E+03  0.28207772191E+03  0.12500000000E+03 0.  0.
         25    1    1    2    0    0  0.20714972250E+02  0.13178548244E+03  0.39403956060E+03  0.43438312441E+03  0.12500000000E+03 0.  0.
         25    1    1    2    0    0 -0.85273760154E+01 -0.27787101179E+03  0.10002623655E+03  0.32080408871E+03  0.12500000000E+03 0.  0.
</event>
<event>
 5    0  0.5778875E-005  0.2988674E+03  0.7546771E-02  0.1085808E+00
         21   -1    0    0  502  501  0.00000000000E+00  0.00000000000E+00  0.71862834664E+02  0.71862834664E+02  0.00000000000E+00 0.  1.
         21   -1    0    0  501  502 -0.00000000000E+00 -0.00000000000E+00 -0.12429475925E+04  0.12429475925E+04  0.00000000000E+00 0.  1.
         25    1    1    2    0    0  0.52221383057E+02  0.33216292126E+01 -0.47487895440E+02  0.14359041153E+03  0.12500000000E+03 0.  0.
         25    1    1    2    0    0  0.28866643358E+02 -0.43191041626E+02 -0.25175365610E+03  0.28583850779E+03  0.12500000000E+03 0.  0.
         25    1    1    2    0    0 -0.81088026415E+02  0.39869412414E+02 -0.87184320629E+03  0.88538150784E+03  0.12500000000E+03 0.  0.
</event>
<event>
 5    0  0.5778875E-005  0.2662162E+03  0.7546771E-02  0.1103465E+00
         21   -1    0    0  502  501  0.00000000000E+00  0.00000000000E+00  0.12412188021E+03  0.12412188021E+03  0.00000000000E+00 0.  1.
         21   -1    0    0  501  502 -0.00000000000E+00 -0.00000000000E+00 -0.57097965754E+03  0.57097965754E+03  0.00000000000E+00 0.  1.
         25    1    1    2    0    0 -0.67637239235E+02 -0.25008831592E+02 -0.22655068415E+03  0.26860835854E+03  0.12500000000E+03 0.  0.
         25    1    1    2    0    0 -0.29539672415E+02 -0.57500394821E+02  0.27866667185E+01  0.14075387441E+03  0.12500000000E+03 0.  0.
         25    1    1    2    0    0  0.97176911651E+02  0.82509226412E+02 -0.22309375990E+03  0.28573930480E+03  0.12500000000E+03 0.  0.
</event>
<event>
 5    0  0.5778875E-005  0.2643079E+03  0.7546771E-02  0.1104582E+00
         21   -1    0    0  502  501  0.00000000000E+00  0.00000000000E+00  0.30696371959E+03  0.30696371959E+03  0.00000000000E+00 0. -1.
         21   -1    0    0  501  502 -0.00000000000E+00 -0.00000000000E+00 -0.22757961549E+03  0.22757961549E+03  0.00000000000E+00 0. -1.
         25    1    1    2    0    0 -0.97075633739E+02  0.43512753235E+02 -0.42060006047E+02  0.16944344918E+03  0.12500000000E+03 0.  0.
         25    1    1    2    0    0 -0.32532319373E+02  0.24174274223E+02  0.11173468985E+03  0.17248880617E+03  0.12500000000E+03 0.  0.
         25    1    1    2    0    0  0.12960795311E+03 -0.67687027458E+02  0.97094202927E+01  0.19261107974E+03  0.12500000000E+03 0.  0.
</event>
<event>
 5    0  0.5778875E-005  0.2516787E+03  0.7546771E-02  0.1112248E+00
         21   -1    0    0  502  501  0.00000000000E+00  0.00000000000E+00  0.37059411076E+02  0.37059411076E+02  0.00000000000E+00 0.  1.
         21   -1    0    0  501  502 -0.00000000000E+00 -0.00000000000E+00 -0.17092060092E+04  0.17092060092E+04  0.00000000000E+00 0.  1.
         25    1    1    2    0    0  0.38919954425E+02  0.22385734769E+02 -0.30002589798E+03  0.32811038300E+03  0.12500000000E+03 0.  0.
         25    1    1    2    0    0  0.90331439306E+02  0.30968833423E+02 -0.43797153914E+03  0.46536319866E+03  0.12500000000E+03 0.  0.
         25    1    1    2    0    0 -0.12925139373E+03 -0.53354568192E+02 -0.93414916098E+03  0.95279183859E+03  0.12500000000E+03 0.  0.
</event>
<event>
 5    0  0.5778875E-005  0.4911112E+03  0.7546771E-02  0.1016125E+00
         21   -1    0    0  502  501  0.00000000000E+00  0.00000000000E+00  0.28342216194E+03  0.28342216194E+03  0.00000000000E+00 0.  1.
         21   -1    0    0  501  502 -0.00000000000E+00 -0.00000000000E+00 -0.85099288887E+03  0.85099288887E+03  0.00000000000E+00 0.  1.
         25    1    1    2    0    0 -0.22556166898E+03 -0.25454354774E+03  0.11358791339E+02  0.36252518030E+03  0.12500000000E+03 0.  0.
         25    1    1    2    0    0  0.13118785452E+03  0.28274287289E+03 -0.47533814890E+03  0.58200098037E+03  0.12500000000E+03 0.  0.
         25    1    1    2    0    0  0.94373814456E+02 -0.28199325152E+02 -0.10359136937E+03  0.18988889015E+03  0.12500000000E+03 0.  0.
</event>
<event>
 5    0  0.5778875E-005  0.3770543E+03  0.7546771E-02  0.1052028E+00
         21   -1    0    0  502  501  0.00000000000E+00  0.00000000000E+00  0.12681758074E+03  0.12681758074E+03  0.00000000000E+00 0. -1.
         21   -1    0    0  501  502 -0.00000000000E+00 -0.00000000000E+00 -0.11210589027E+04  0.11210589027E+04  0.00000000000E+00 0. -1.
         25    1    1    2    0    0 -0.22213131346E+03  0.13422749473E+03 -0.70734654122E+03  0.76375615882E+03  0.12500000000E+03 0.  0.
         25    1    1    2    0    0  0.27314447488E+02 -0.30260440540E+02 -0.63334374737E+02  0.14593839908E+03  0.12500000000E+03 0.  0.
         25    1    1    2    0    0  0.19481686597E+03 -0.10396705419E+03 -0.22356040599E+03  0.33818192552E+03  0.12500000000E+03 0.  0.
</event>
<event>
 5    0  0.5778875E-005  0.3168551E+03  0.7546771E-02  0.1077106E+00
         21   -1    0    0  502  501  0.00000000000E+00  0.00000000000E+00  0.46921768579E+03  0.46921768579E+03  0.00000000000E+00 0. -1.
         21   -1    0    0  501  502 -0.00000000000E+00 -0.00000000000E+00 -0.21396705649E+03  0.21396705649E+03  0.00000000000E+00 0. -1.
         25    1    1    2    0    0  0.70383966445E+02 -0.32532972712E+02  0.35674543221E+02  0.15136039799E+03  0.12500000000E+03 0.  0.
         25    1    1    2    0    0 -0.12068895007E+03  0.62696062612E+02 -0.80504323954E+02  0.20150078191E+03  0.12500000000E+03 0.  0.
         25    1    1    2    0    0  0.50304983624E+02 -0.30163089900E+02  0.30008041004E+03  0.33032356237E+03  0.12500000000E+03 0.  0.
</event>
<event>
 5    0  0.5778875E-005  0.2731427E+03  0.7546771E-02  0.1099494E+00
         21   -1    0    0  502  501  0.00000000000E+00  0.00000000000E+00  0.73959025668E+02  0.73959025668E+02  0.00000000000E+00 0.  1.
         21   -1    0    0  501  502 -0.00000000000E+00 -0.00000000000E+00 -0.10087604436E+04  0.10087604436E+04  0.00000000000E+00 0.  1.
         25    1    1    2    0    0 -0.39390929170E+02 -0.13431863302E+03 -0.30489354853E+03  0.35801985478E+03  0.12500000000E+03 0.  0.
         25    1    1    2    0    0 -0.20418891147E+02  0.15020402518E+03 -0.23747589891E+03  0.30821742790E+03  0.12500000000E+03 0.  0.
         25    1    1    2    0    0  0.59809820318E+02 -0.15885392158E+02 -0.39243197053E+03  0.41648218664E+03  0.12500000000E+03 0.  0.
</event>
<event>
 5    0  0.6309682E-005  0.2752184E+03  0.7546771E-02  0.1098330E+00
         21   -1    0    0  502  501  0.00000000000E+00  0.00000000000E+00  0.20932074433E+03  0.20932074433E+03  0.00000000000E+00 0.  1.
         21   -1    0    0  501  502 -0.00000000000E+00 -0.00000000000E+00 -0.36186173359E+03  0.36186173359E+03  0.00000000000E+00 0.  1.
         25    1    1    2    0    0 -0.41388340488E+02 -0.15626837783E+03 -0.15887179399E+03  0.25883981062E+03  0.12500000000E+03 0.  0.
         25    1    1    2    0    0  0.24675773588E+02  0.12521815134E+03 -0.20200676741E+02  0.17978194172E+03  0.12500000000E+03 0.  0.
         25    1    1    2    0    0  0.16712566900E+02  0.31050226490E+02  0.26531481467E+02  0.13256072558E+03  0.12500000000E+03 0.  0.
</event>
<event>
 5    0  0.7131774E-005  0.2926095E+03  0.7546771E-02  0.1088995E+00
         21   -1    0    0  502  501  0.00000000000E+00  0.00000000000E+00  0.16389712075E+03  0.16389712075E+03  0.00000000000E+00 0. -1.
         21   -1    0    0  501  502 -0.00000000000E+00 -0.00000000000E+00 -0.52240279202E+03  0.52240279202E+03  0.00000000000E+00 0. -1.
         25    1    1    2    0    0  0.12510497453E+03 -0.24091644345E+02 -0.11765195471E+03  0.21377241268E+03  0.12500000000E+03 0.  0.
         25    1    1    2    0    0 -0.13592253796E+02 -0.65026211924E+02  0.27169237841E+02  0.14413994965E+03  0.12500000000E+03 0.  0.
         25    1    1    2    0    0 -0.11151272073E+03  0.89117856269E+02 -0.26802295441E+03  0.32838755043E+03  0.12500000000E+03 0.  0.
</event>
<event>
 5    0  0.5778875E-005  0.3848000E+03  0.7546771E-02  0.1049174E+00
         21   -1    0    0  502  501  0.00000000000E+00  0.00000000000E+00  0.66289422116E+03  0.66289422116E+03  0.00000000000E+00 0. -1.
         21   -1    0    0  501  502 -0.00000000000E+00 -0.00000000000E+00 -0.22337051805E+03  0.22337051805E+03  0.00000000000E+00 0. -1.
         25    1    1    2    0    0  0.37743397417E+02 -0.31269184735E+01  0.12075651154E+03  0.17788051255E+03  0.12500000000E+03 0.  0.
         25    1    1    2    0    0 -0.25889749428E+03  0.59487837081E+02  0.33771156658E+03  0.44748275666E+03  0.12500000000E+03 0.  0.
         25    1    1    2    0    0  0.22115409686E+03 -0.56360918608E+02 -0.18944375000E+02  0.26090147000E+03  0.12500000000E+03 0.  0.
</event>
<event>
 5    0  0.5778875E-005  0.2976820E+03  0.7546771E-02  0.1086405E+00
         21   -1    0    0  502  501  0.00000000000E+00  0.00000000000E+00  0.16251199206E+03  0.16251199206E+03  0.00000000000E+00 0. -1.
         21   -1    0    0  501  502 -0.00000000000E+00 -0.00000000000E+00 -0.54528006228E+03  0.54528006228E+03  0.00000000000E+00 0. -1.
         25    1    1    2    0    0  0.67702342040E+02  0.73979265220E+02 -0.52378893587E+02  0.16859741188E+03  0.12500000000E+03 0.  0.
         25    1    1    2    0    0 -0.17063767477E+03 -0.24798877429E+02 -0.61836853643E+02  0.22176788956E+03  0.12500000000E+03 0.  0.
         25    1    1    2    0    0  0.10293533273E+03 -0.49180387791E+02 -0.26855232300E+03  0.31742675289E+03  0.12500000000E+03 0.  0.
</event>
<event>
 5    0  0.5778875E-005  0.3434478E+03  0.7546771E-02  0.1065337E+00
         21   -1    0    0  502  501  0.00000000000E+00  0.00000000000E+00  0.37480524164E+03  0.37480524164E+03  0.00000000000E+00 0.  1.
         21   -1    0    0  501  502 -0.00000000000E+00 -0.00000000000E+00 -0.31471387739E+03  0.31471387739E+03  0.00000000000E+00 0.  1.
         25    1    1    2    0    0 -0.14065524644E+03  0.10430411450E+03  0.20186532106E+02  0.21609197748E+03  0.12500000000E+03 0.  0.
         25    1    1    2    0    0 -0.99457414862E+02 -0.84312675403E+02 -0.50119503599E+02  0.18744964456E+03  0.12500000000E+03 0.  0.
         25    1    1    2    0    0  0.24011266130E+03 -0.19991439099E+02  0.90024335737E+02  0.28597749698E+03  0.12500000000E+03 0.  0.
</event>
<event>
 5    0  0.5778875E-005  0.3005247E+03  0.7546771E-02  0.1084979E+00
         21   -1    0    0  502  501  0.00000000000E+00  0.00000000000E+00  0.46279697618E+03  0.46279697618E+03  0.00000000000E+00 0. -1.
         21   -1    0    0  501  502 -0.00000000000E+00 -0.00000000000E+00 -0.19515055976E+03  0.19515055976E+03  0.00000000000E+00 0. -1.
         25    1    1    2    0    0  0.14345802447E+03  0.27724032178E+02  0.24773052484E+03  0.31359885153E+03  0.12500000000E+03 0.  0.
         25    1    1    2    0    0 -0.28458926011E+02  0.37523206528E+02 -0.58989797776E+02  0.14602293566E+03  0.12500000000E+03 0.  0.
         25    1    1    2    0    0 -0.11499909846E+03 -0.65247238706E+02  0.78905689360E+02  0.19832574875E+03  0.12500000000E+03 0.  0.
</event>
<event>
 5    0  0.5778875E-005  0.3872823E+03  0.7546771E-02  0.1048275E+00
         21   -1    0    0  502  501  0.00000000000E+00  0.00000000000E+00  0.13411162637E+03  0.13411162637E+03  0.00000000000E+00 0. -1.
         21   -1    0    0  501  502 -0.00000000000E+00 -0.00000000000E+00 -0.11183788585E+04  0.11183788585E+04  0.00000000000E+00 0. -1.
         25    1    1    2    0    0  0.11918469863E+03  0.38660200406E+02 -0.38103437435E+03  0.42013307168E+03  0.12500000000E+03 0.  0.
         25    1    1    2    0    0 -0.24115626202E+03 -0.16256752432E+03 -0.50672286005E+03  0.59747602426E+03  0.12500000000E+03 0.  0.
         25    1    1    2    0    0  0.12197156339E+03  0.12390732392E+03 -0.96509997700E+02  0.23488138890E+03  0.12500000000E+03 0.  0.
</event>
<event>
 5    0  0.5778875E-005  0.4110287E+03  0.7546771E-02  0.1040026E+00
         21   -1    0    0  502  501  0.00000000000E+00  0.00000000000E+00  0.50269719197E+03  0.50269719197E+03  0.00000000000E+00 0.  1.
         21   -1    0    0  501  502 -0.00000000000E+00 -0.00000000000E+00 -0.33607628255E+03  0.33607628255E+03  0.00000000000E+00 0.  1.
         25    1    1    2    0    0 -0.22442586634E+03  0.15070837058E+03 -0.62439535993E+02  0.30430852453E+03  0.12500000000E+03 0.  0.
         25    1    1    2    0    0  0.21540153443E+03 -0.13567049390E+03  0.12587992523E+02  0.28387983639E+03  0.12500000000E+03 0.  0.
         25    1    1    2    0    0  0.90243319143E+01 -0.15037876677E+02  0.21647245289E+03  0.25058511361E+03  0.12500000000E+03 0.  0.
</event>
<event>
 5    0  0.5778875E-005  0.3844548E+03  0.7546771E-02  0.1049299E+00
         21   -1    0    0  502  501  0.00000000000E+00  0.00000000000E+00  0.33995600702E+03  0.33995600702E+03  0.00000000000E+00 0. -1.
         21   -1    0    0  501  502 -0.00000000000E+00 -0.00000000000E+00 -0.43477828597E+03  0.43477828597E+03  0.00000000000E+00 0. -1.
         25    1    1    2    0    0  0.54171279388E+02  0.52004343020E+02 -0.66261745694E+02  0.16017052833E+03  0.12500000000E+03 0.  0.
         25    1    1    2    0    0 -0.13017534269E+02 -0.29666495137E+03 -0.80147799764E+02  0.33200635442E+03  0.12500000000E+03 0.  0.
         25    1    1    2    0    0 -0.41153745119E+02  0.24466060835E+03  0.51587266502E+02  0.28255741024E+03  0.12500000000E+03 0.  0.
</event>
<event>
 5    0  0.5778875E-005  0.2419042E+03  0.7546771E-02  0.1118531E+00
         21   -1    0    0  502  501  0.00000000000E+00  0.00000000000E+00  0.11560943734E+04  0.11560943734E+04  0.00000000000E+00 0. -1.
         21   -1    0    0  501  502 -0.00000000000E+00 -0.00000000000E+00 -0.50616665400E+02  0.50616665400E+02  0.00000000000E+00 0. -1.
         25    1    1    2    0    0  0.51254613538E+00 -0.55732550872E+02  0.36872049200E+03  0.39330164143E+03  0.12500000000E+03 0.  0.
         25    1    1    2    0    0 -0.52563532293E+02 -0.56341709536E+02  0.19667775272E+03  0.24544745176E+03  0.12500000000E+03 0.  0.
         25    1    1    2    0    0  0.52050986157E+02  0.11207426041E+03  0.54007946331E+03  0.56796194564E+03  0.12500000000E+03 0.  0.
</event>
<event>
 5    0  0.5778875E-005  0.3392252E+03  0.7546771E-02  0.1067126E+00
         21   -1    0    0  502  501  0.00000000000E+00  0.00000000000E+00  0.70210523458E+03  0.70210523458E+03  0.00000000000E+00 0. -1.
         21   -1    0    0  501  502 -0.00000000000E+00 -0.00000000000E+00 -0.16389811717E+03  0.16389811717E+03  0.00000000000E+00 0. -1.
         25    1    1    2    0    0 -0.49554456193E+02 -0.17693402748E+02 -0.23963070561E+02  0.13772410602E+03  0.12500000000E+03 0.  0.
         25    1    1    2    0    0  0.16584074748E+03  0.89830371136E+02  0.13711079785E+03  0.26456949936E+03  0.12500000000E+03 0.  0.
         25    1    1    2    0    0 -0.11628629129E+03 -0.72136968389E+02  0.42505939012E+03  0.46370974637E+03  0.12500000000E+03 0.  0.
</event>
<event>
 5    0  0.5778875E-005  0.4472878E+03  0.7546771E-02  0.1028534E+00
         21   -1    0    0  502  501  0.00000000000E+00  0.00000000000E+00  0.32000978497E+03  0.32000978497E+03  0.00000000000E+00 0. -1.
         21   -1    0    0  501  502 -0.00000000000E+00 -0.00000000000E+00 -0.62518841574E+03  0.62518841574E+03  0.00000000000E+00 0.  1.
         25    1    1    2    0    0 -0.32107425570E+03 -0.91923950631E+02 -0.38053379938E+02  0.35862480407E+03  0.12500000000E+03 0.  0.
         25    1    1    2    0    0  0.94854915836E+01  0.12879042105E+03 -0.13111812117E+03  0.22247226525E+03  0.12500000000E+03 0.  0.
         25    1    1    2    0    0  0.31158876411E+03 -0.36866470418E+02 -0.13600712966E+03  0.36410113139E+03  0.12500000000E+03 0.  0.
</event>
<event>
 5    0  0.5829134E-005  0.3033999E+03  0.7546771E-02  0.1083553E+00
         21   -1    0    0  502  501  0.00000000000E+00  0.00000000000E+00  0.21122900811E+03  0.21122900811E+03  0.00000000000E+00 0. -1.
         21   -1    0    0  501  502 -0.00000000000E+00 -0.00000000000E+00 -0.43578992060E+03  0.43578992060E+03  0.00000000000E+00 0. -1.
         25    1    1    2    0    0 -0.24166236030E+02  0.34696457374E+02 -0.19588762485E+03  0.23618808752E+03  0.12500000000E+03 0.  0.
         25    1    1    2    0    0  0.15113674652E+03  0.52071535290E+02 -0.56653928777E+02  0.21068561551E+03  0.12500000000E+03 0.  0.
         25    1    1    2    0    0 -0.12697051049E+03 -0.86767992664E+02  0.27980641141E+02  0.20014522568E+03  0.12500000000E+03 0.  0.
</event>
<event>
 5    0  0.5778875E-005  0.2612312E+03  0.7546771E-02  0.1106406E+00
         21   -1    0    0  502  501  0.00000000000E+00  0.00000000000E+00  0.17627253483E+03  0.17627253483E+03  0.00000000000E+00 0.  1.
         21   -1    0    0  501  502 -0.00000000000E+00 -0.00000000000E+00 -0.38713756231E+03  0.38713756231E+03  0.00000000000E+00 0.  1.
         25    1    1    2    0    0 -0.57169430162E+02  0.38017604577E+02 -0.58622746545E+02  0.15419243955E+03  0.12500000000E+03 0.  0.
         25    1    1    2    0    0 -0.72022120837E+02  0.20193071925E+02 -0.16466962757E+03  0.21985457077E+03  0.12500000000E+03 0.  0.
         25    1    1    2    0    0  0.12919155100E+03 -0.58210676502E+02  0.12427346633E+02  0.18936308683E+03  0.12500000000E+03 0.  0.
</event>
<event>
 5    0  0.5778875E-005  0.2306750E+03  0.7546771E-02  0.1126166E+00
         21   -1    0    0  502  501  0.00000000000E+00  0.00000000000E+00  0.24730651163E+02  0.24730651163E+02  0.00000000000E+00 0. -1.
         21   -1    0    0  501  502 -0.00000000000E+00 -0.00000000000E+00 -0.21516190328E+04  0.21516190328E+04  0.00000000000E+00 0. -1.
         25    1    1    2    0    0 -0.56579446563E+02  0.10263179383E+02 -0.28587784058E+03  0.31726598677E+03  0.12500000000E+03 0.  0.
         25    1    1    2    0    0  0.11925996541E+02 -0.20021219908E+01 -0.90575027471E+03  0.91441500317E+03  0.12500000000E+03 0.  0.
         25    1    1    2    0    0  0.44653450021E+02 -0.82610573924E+01 -0.93526026637E+03  0.94466869405E+03  0.12500000000E+03 0.  0.
</event>
<event>
 5    0  0.5778875E-005  0.3331328E+03  0.7546771E-02  0.1069759E+00
         21   -1    0    0  502  501  0.00000000000E+00  0.00000000000E+00  0.17997986861E+04  0.17997986861E+04  0.00000000000E+00 0.  1.
         21   -1    0    0  501  502 -0.00000000000E+00 -0.00000000000E+00 -0.61661056291E+02  0.61661056291E+02  0.00000000000E+00 0.  1.
         25    1    1    2    0    0  0.34481799285E+02  0.10254859349E+02  0.19752520600E+03  0.23650658263E+03  0.12500000000E+03 0.  0.
         25    1    1    2    0    0  0.19543767598E+03 -0.65899878677E+01  0.48931107691E+03  0.54156222461E+03  0.12500000000E+03 0.  0.
         25    1    1    2    0    0 -0.22991947526E+03 -0.36648714813E+01  0.10513013469E+04  0.10833909352E+04  0.12500000000E+03 0.  0.
</event>
<event>
 5    0  0.5933824E-005  0.3675023E+03  0.7546771E-02  0.1055652E+00
         21   -1    0    0  502  501  0.00000000000E+00  0.00000000000E+00  0.27268897511E+03  0.27268897511E+03  0.00000000000E+00 0. -1.
         21   -1    0    0  501  502 -0.00000000000E+00 -0.00000000000E+00 -0.49528208045E+03  0.49528208045E+03  0.00000000000E+00 0. -1.
         25    1    1    2    0    0 -0.97120592199E+02  0.10299061676E+03 -0.25566094619E+02  0.19057308772E+03  0.12500000000E+03 0.  0.
         25    1    1    2    0    0 -0.14338493826E+03 -0.11523064359E+03  0.28969612080E+02  0.22428013770E+03  0.12500000000E+03 0.  0.
         25    1    1    2    0    0  0.24050553046E+03  0.12240026830E+02 -0.22599662280E+03  0.35311783013E+03  0.12500000000E+03 0.  0.
</event>
<event>
 5    0  0.5778875E-005  0.2652876E+03  0.7546771E-02  0.1104007E+00
         21   -1    0    0  502  501  0.00000000000E+00  0.00000000000E+00  0.24070309308E+03  0.24070309308E+03  0.00000000000E+00 0. -1.
         21   -1    0    0  501  502 -0.00000000000E+00 -0.00000000000E+00 -0.29238298506E+03  0.29238298506E+03  0.00000000000E+00 0. -1.
         25    1    1    2    0    0  0.30929714271E+02  0.10458074632E+03  0.68422468631E+02  0.17944473784E+03  0.12500000000E+03 0.  0.
         25    1    1    2    0    0 -0.82715630259E+01 -0.14844401517E+03 -0.43877910109E+02  0.19913391321E+03  0.12500000000E+03 0.  0.
         25    1    1    2    0    0 -0.22658151246E+02  0.43863268843E+02 -0.76224450497E+02  0.15450742709E+03  0.12500000000E+03 0.  0.
</event>
<event>
 5    0  0.5778875E-005  0.2902305E+03  0.7546771E-02  0.1090229E+00
         21   -1    0    0  502  501  0.00000000000E+00  0.00000000000E+00  0.24351561759E+03  0.24351561759E+03  0.00000000000E+00 0. -1.
         21   -1    0    0  501  502 -0.00000000000E+00 -0.00000000000E+00 -0.34590699580E+03  0.34590699580E+03  0.00000000000E+00 0. -1.
         25    1    1    2    0    0 -0.38973186041E+02  0.44413960884E+02 -0.13703306557E+02  0.13893987823E+03  0.12500000000E+03 0.  0.
         25    1    1    2    0    0 -0.14136002209E+03 -0.83736669031E+01  0.40695858061E+02  0.19321989289E+03  0.12500000000E+03 0.  0.
         25    1    1    2    0    0  0.18033320814E+03 -0.36040293981E+02 -0.12938392971E+03  0.25726284227E+03  0.12500000000E+03 0.  0.
</event>
<event>
 5    0  0.5778875E-005  0.3581612E+03  0.7546771E-02  0.1059314E+00
         21   -1    0    0  502  501  0.00000000000E+00  0.00000000000E+00  0.22708545187E+03  0.22708545187E+03  0.00000000000E+00 0.  1.
         21   -1    0    0  501  502 -0.00000000000E+00 -0.00000000000E+00 -0.56489505720E+03  0.56489505720E+03  0.00000000000E+00 0.  1.
         25    1    1    2    0    0 -0.15258046678E+03 -0.18727689935E+03 -0.31212016496E+03  0.41400173097E+03  0.12500000000E+03 0.  0.
         25    1    1    2    0    0  0.88775057353E+02  0.14056197727E+02 -0.16646734312E+02  0.15485703493E+03  0.12500000000E+03 0.  0.
         25    1    1    2    0    0  0.63805409427E+02  0.17322070162E+03 -0.90427060613E+01  0.22312174317E+03  0.12500000000E+03 0.  0.
</event>
<event>
 5    0  0.5778875E-005  0.2554974E+03  0.7546771E-02  0.1109879E+00
         21   -1    0    0  502  501  0.00000000000E+00  0.00000000000E+00  0.68502939395E+03  0.68502939395E+03  0.00000000000E+00 0.  1.
         21   -1    0    0  501  502 -0.00000000000E+00 -0.00000000000E+00 -0.95293586631E+02  0.95293586631E+02  0.00000000000E+00 0.  1.
         25    1    1    2    0    0 -0.60042642822E+02  0.75413514642E+02  0.16749419346E+03  0.23015564731E+03  0.12500000000E+03 0.  0.
         25    1    1    2    0    0 -0.49673052336E+02 -0.11997510362E+03  0.22672948131E+03  0.28964235759E+03  0.12500000000E+03 0.  0.
         25    1    1    2    0    0  0.10971569516E+03  0.44561588977E+02  0.19551213255E+03  0.26052497568E+03  0.12500000000E+03 0.  0.
</event>
<event>
 5    0  0.5778875E-005  0.2425589E+03  0.7546771E-02  0.1118100E+00
         21   -1    0    0  502  501  0.00000000000E+00  0.00000000000E+00  0.24591678713E+03  0.24591678713E+03  0.00000000000E+00 0. -1.
         21   -1    0    0  501  502 -0.00000000000E+00 -0.00000000000E+00 -0.23924678251E+03  0.23924678251E+03  0.00000000000E+00 0.  1.
         25    1    1    2    0    0  0.65776840324E+01  0.80785155372E+01 -0.11090099164E+03  0.16742926353E+03  0.12500000000E+03 0.  0.
         25    1    1    2    0    0 -0.68482901455E+01  0.74206515560E+02  0.57646617773E+02  0.15652999256E+03  0.12500000000E+03 0.  0.
         25    1    1    2    0    0  0.27060611304E+00 -0.82285031097E+02  0.59924378486E+02  0.16120431355E+03  0.12500000000E+03 0.  0.
</event>
<event>
 5    0  0.5778875E-005  0.2841726E+03  0.7546771E-02  0.1093432E+00
         21   -1    0    0  502  501  0.00000000000E+00  0.00000000000E+00  0.36304398224E+03  0.36304398224E+03  0.00000000000E+00 0. -1.
         21   -1    0    0  501  502 -0.00000000000E+00 -0.00000000000E+00 -0.22243599924E+03  0.22243599924E+03  0.00000000000E+00 0. -1.
         25    1    1    2    0    0 -0.14010854105E+03  0.65985629964E+02  0.31785117926E+02  0.20154354457E+03  0.12500000000E+03 0.  0.
         25    1    1    2    0    0  0.10538464640E+03 -0.12284077592E+03  0.12761173217E+03  0.24105089528E+03  0.12500000000E+03 0.  0.
         25    1    1    2    0    0  0.34723894652E+02  0.56855145956E+02 -0.18788867097E+02  0.14288554163E+03  0.12500000000E+03 0.  0.
</event>
<event>
 5    0  0.5778875E-005  0.2531051E+03  0.7546771E-02  0.1111358E+00
         21   -1    0    0  502  501  0.00000000000E+00  0.00000000000E+00  0.16267479816E+03  0.16267479816E+03  0.00000000000E+00 0. -1.
         21   -1    0    0  501  502 -0.00000000000E+00 -0.00000000000E+00 -0.39380519162E+03  0.39380519162E+03  0.00000000000E+00 0. -1.
         25    1    1    2    0    0 -0.72837593611E+02  0.34200773946E+01 -0.88623506826E+02  0.16969424838E+03  0.12500000000E+03 0.  0.
         25    1    1    2    0    0  0.30087547224E+02  0.83046578994E+02  0.26683619539E+02  0.15536733998E+03  0.12500000000E+03 0.  0.
         25    1    1    2    0    0  0.42750046387E+02 -0.86466656389E+02 -0.16919050618E+03  0.23141840141E+03  0.12500000000E+03 0.  0.
</event>
<event>
 5    0  0.5778875E-005  0.3022019E+03  0.7546771E-02  0.1084145E+00
         21   -1    0    0  502  501  0.00000000000E+00  0.00000000000E+00  0.25158133357E+03  0.25158133357E+03  0.00000000000E+00 0. -1.
         21   -1    0    0  501  502 -0.00000000000E+00 -0.00000000000E+00 -0.36300786122E+03  0.36300786122E+03  0.00000000000E+00 0. -1.
         25    1    1    2    0    0 -0.96144991915E+02 -0.12378111372E+03 -0.85911028890E+02  0.21810852452E+03  0.12500000000E+03 0.  0.
         25    1    1    2    0    0  0.10012988330E+03  0.98139589578E+02  0.10393023025E+03  0.21467152893E+03  0.12500000000E+03 0.  0.
         25    1    1    2    0    0 -0.39848913889E+01  0.25641524138E+02 -0.12944572900E+03  0.18180914134E+03  0.12500000000E+03 0.  0.
</event>
<event>
 5    0  0.7760810E-005  0.7155261E+03  0.7546771E-02  0.9691043E-01
         21   -1    0    0  502  501  0.00000000000E+00  0.00000000000E+00  0.25889977792E+03  0.25889977792E+03  0.00000000000E+00 0. -1.
         21   -1    0    0  501  502 -0.00000000000E+00 -0.00000000000E+00 -0.19775129509E+04  0.19775129509E+04  0.00000000000E+00 0. -1.
         25    1    1    2    0    0 -0.26567852040E+03  0.32633986833E+03 -0.22758374665E+03  0.49447158423E+03  0.12500000000E+03 0.  0.
         25    1    1    2    0    0 -0.10450669448E+02 -0.43152318241E+03 -0.38966967291E+03  0.59480158661E+03  0.12500000000E+03 0.  0.
         25    1    1    2    0    0  0.27612918985E+03  0.10518331408E+03 -0.11013597534E+04  0.11471395580E+04  0.12500000000E+03 0.  0.
</event>
<event>
 5    0  0.5778875E-005  0.3420845E+03  0.7546771E-02  0.1065912E+00
         21   -1    0    0  502  501  0.00000000000E+00  0.00000000000E+00  0.14156636864E+04  0.14156636864E+04  0.00000000000E+00 0.  1.
         21   -1    0    0  501  502 -0.00000000000E+00 -0.00000000000E+00 -0.82662158167E+02  0.82662158167E+02  0.00000000000E+00 0.  1.
         25    1    1    2    0    0 -0.95707223282E+02  0.15196525238E+03  0.64326502890E+03  0.67946170453E+03  0.12500000000E+03 0.  0.
         25    1    1    2    0    0 -0.15736388515E+02 -0.21720960037E+03  0.48705915062E+03  0.54797742711E+03  0.12500000000E+03 0.  0.
         25    1    1    2    0    0  0.11144361180E+03  0.65244347997E+02  0.20267734869E+03  0.27088671290E+03  0.12500000000E+03 0.  0.
</event>
<event>
 5    0  0.5778875E-005  0.2825244E+03  0.7546771E-02  0.1094318E+00
         21   -1    0    0  502  501  0.00000000000E+00  0.00000000000E+00  0.87727488026E+02  0.87727488026E+02  0.00000000000E+00 0. -1.
         21   -1    0    0  501  502 -0.00000000000E+00 -0.00000000000E+00 -0.90986354002E+03  0.90986354002E+03  0.00000000000E+00 0. -1.
         25    1    1    2    0    0 -0.14276931606E+02 -0.53649413823E+02 -0.27197904412E+03  0.30443339308E+03  0.12500000000E+03 0.  0.
         25    1    1    2    0    0 -0.81122820583E+02 -0.22358096920E+02 -0.48313403584E+03  0.50608723863E+03  0.12500000000E+03 0.  0.
         25    1    1    2    0    0  0.95399752189E+02  0.76007510743E+02 -0.67022972037E+02  0.18707039634E+03  0.12500000000E+03 0.  0.
</event>
<event>
 5    0  0.5778875E-005  0.3474622E+03  0.7546771E-02  0.1063662E+00
         21   -1    0    0  502  501  0.00000000000E+00  0.00000000000E+00  0.53181658638E+03  0.53181658638E+03  0.00000000000E+00 0. -1.
         21   -1    0    0  501  502 -0.00000000000E+00 -0.00000000000E+00 -0.22701429400E+03  0.22701429400E+03  0.00000000000E+00 0. -1.
         25    1    1    2    0    0  0.22559876287E+03  0.48247421017E+02  0.26073453675E+03  0.36990554753E+03  0.12500000000E+03 0.  0.
         25    1    1    2    0    0 -0.18424231136E+03  0.18649187940E+02 -0.26968780763E+02  0.22504518800E+03  0.12500000000E+03 0.  0.
         25    1    1    2    0    0 -0.41356451514E+02 -0.66896608956E+02  0.71036536391E+02  0.16388014484E+03  0.12500000000E+03 0.  0.
</event>
<event>
 5    0  0.5778875E-005  0.2866214E+03  0.7546771E-02  0.1092126E+00
         21   -1    0    0  502  501  0.00000000000E+00  0.00000000000E+00  0.13768176376E+03  0.13768176376E+03  0.00000000000E+00 0.  1.
         21   -1    0    0  501  502 -0.00000000000E+00 -0.00000000000E+00 -0.59667891352E+03  0.59667891352E+03  0.00000000000E+00 0.  1.
         25    1    1    2    0    0  0.11416245948E+03  0.60348529554E+02 -0.55657623423E+02  0.18814298610E+03  0.12500000000E+03 0.  0.
         25    1    1    2    0    0 -0.65544315729E+02 -0.11181897561E+02 -0.27612821648E+02  0.14425172469E+03  0.12500000000E+03 0.  0.
         25    1    1    2    0    0 -0.48618143751E+02 -0.49166631993E+02 -0.37572670468E+03  0.40196596649E+03  0.12500000000E+03 0.  0.
</event>
<event>
 5    0  0.5778875E-005  0.2874474E+03  0.7546771E-02  0.1091689E+00
         21   -1    0    0  502  501  0.00000000000E+00  0.00000000000E+00  0.27011484472E+03  0.27011484472E+03  0.00000000000E+00 0. -1.
         21   -1    0    0  501  502 -0.00000000000E+00 -0.00000000000E+00 -0.30589214019E+03  0.30589214019E+03  0.00000000000E+00 0. -1.
         25    1    1    2    0    0 -0.10824627455E+03 -0.13424372981E+03 -0.15801411432E+02  0.21357275002E+03  0.12500000000E+03 0.  0.
         25    1    1    2    0    0  0.75686074063E+02  0.14688280109E+03 -0.76512801093E+02  0.22086681008E+03  0.12500000000E+03 0.  0.
         25    1    1    2    0    0  0.32560200490E+02 -0.12639071282E+02  0.56536917048E+02  0.14156742481E+03  0.12500000000E+03 0.  0.
</event>
<event>
 5    0  0.5778875E-005  0.5385542E+03  0.7546771E-02  0.1004178E+00
         21   -1    0    0  502  501  0.00000000000E+00  0.00000000000E+00  0.30466875059E+04  0.30466875059E+04  0.00000000000E+00 0.  1.
         21   -1    0    0  501  502 -0.00000000000E+00 -0.00000000000E+00 -0.95198682820E+02  0.95198682820E+02  0.00000000000E+00 0.  1.
         25    1    1    2    0    0  0.13955375978E+03 -0.41133281982E+03  0.83276101614E+03  0.94751562020E+03  0.12500000000E+03 0.  0.
         25    1    1    2    0    0 -0.14869948765E+03  0.35745128812E+03  0.12378007443E+04  0.13029423025E+04  0.12500000000E+03 0.  0.
         25    1    1    2    0    0  0.91457278659E+01  0.53881531695E+02  0.88092706261E+03  0.89142826601E+03  0.12500000000E+03 0.  0.
</event>
<event>
 5    0  0.5778875E-005  0.3518866E+03  0.7546771E-02  0.1061843E+00
         21   -1    0    0  502  501  0.00000000000E+00  0.00000000000E+00  0.58994556633E+02  0.58994556633E+02  0.00000000000E+00 0. -1.
         21   -1    0    0  501  502 -0.00000000000E+00 -0.00000000000E+00 -0.20989087397E+04  0.20989087397E+04  0.00000000000E+00 0. -1.
         25    1    1    2    0    0 -0.27485442841E+02  0.41488366347E+02 -0.26874940753E+03  0.30054613316E+03  0.12500000000E+03 0.  0.
         25    1    1    2    0    0  0.44114417188E+02  0.19442478820E+03 -0.43390336224E+03  0.49360328993E+03  0.12500000000E+03 0.  0.
         25    1    1    2    0    0 -0.16628974347E+02 -0.23591315455E+03 -0.13372614133E+04  0.13637538732E+04  0.12500000000E+03 0.  0.
</event>
<event>
 5    0  0.6108029E-005  0.3716120E+03  0.7546771E-02  0.1054078E+00
         21   -1    0    0  502  501  0.00000000000E+00  0.00000000000E+00  0.20038363737E+03  0.20038363737E+03  0.00000000000E+00 0.  1.
         21   -1    0    0  501  502 -0.00000000000E+00 -0.00000000000E+00 -0.68915561133E+03  0.68915561133E+03  0.00000000000E+00 0.  1.
         25    1    1    2    0    0 -0.12504540002E+03  0.19861098012E+03 -0.21931555834E+03  0.34468389521E+03  0.12500000000E+03 0.  0.
         25    1    1    2    0    0 -0.87046455882E+01 -0.13687358925E+03 -0.29649143450E+03  0.34977467178E+03  0.12500000000E+03 0.  0.
         25    1    1    2    0    0  0.13375004561E+03 -0.61737390866E+02  0.27035018880E+02  0.19508068171E+03  0.12500000000E+03 0.  0.
</event>
<event>
 5    0  0.5778875E-005  0.3544272E+03  0.7546771E-02  0.1060812E+00
         21   -1    0    0  502  501  0.00000000000E+00  0.00000000000E+00  0.75786122405E+02  0.75786122405E+02  0.00000000000E+00 0.  1.
         21   -1    0    0  501  502 -0.00000000000E+00 -0.00000000000E+00 -0.16575414770E+04  0.16575414770E+04  0.00000000000E+00 0.  1.
         25    1    1    2    0    0 -0.34075772281E+02  0.19779293524E+03 -0.46680102814E+03  0.52326991445E+03  0.12500000000E+03 0.  0.
         25    1    1    2    0    0 -0.37035357662E+02 -0.71994958611E+02 -0.93762968163E+03  0.94938364830E+03  0.12500000000E+03 0.  0.
         25    1    1    2    0    0  0.71111129943E+02 -0.12579797663E+03 -0.17732464481E+03  0.26067403665E+03  0.12500000000E+03 0.  0.
</event>
<event>
 5    0  0.5778875E-005  0.2257377E+03  0.7546771E-02  0.1129676E+00
         21   -1    0    0  502  501  0.00000000000E+00  0.00000000000E+00  0.93194708395E+02  0.93194708395E+02  0.00000000000E+00 0.  1.
         21   -1    0    0  501  502 -0.00000000000E+00 -0.00000000000E+00 -0.54678546151E+03  0.54678546151E+03  0.00000000000E+00 0.  1.
         25    1    1    2    0    0 -0.10034491546E+03 -0.38429571967E+01 -0.21442952934E+03  0.26774781686E+03  0.12500000000E+03 0.  0.
         25    1    1    2    0    0  0.11966501970E+02  0.11551430703E+02 -0.71084425870E+02  0.14475713565E+03  0.12500000000E+03 0.  0.
         25    1    1    2    0    0  0.88378413494E+02 -0.77084735060E+01 -0.16807679791E+03  0.22747521740E+03  0.12500000000E+03 0.  0.
</event>
<event>
 5    0  0.5778875E-005  0.3893336E+03  0.7546771E-02  0.1047537E+00
         21   -1    0    0  502  501  0.00000000000E+00  0.00000000000E+00  0.53976413963E+03  0.53976413963E+03  0.00000000000E+00 0.  1.
         21   -1    0    0  501  502 -0.00000000000E+00 -0.00000000000E+00 -0.28082759439E+03  0.28082759439E+03  0.00000000000E+00 0.  1.
         25    1    1    2    0    0 -0.40798550098E+01  0.11007762199E+02 -0.12155329694E+03  0.17475130913E+03  0.12500000000E+03 0.  0.
         25    1    1    2    0    0  0.87268735515E+02  0.61720889693E+02  0.43919132582E+03  0.46897688759E+03  0.12500000000E+03 0.  0.
         25    1    1    2    0    0 -0.83188880506E+02 -0.72728651891E+02 -0.58701483628E+02  0.17686353730E+03  0.12500000000E+03 0.  0.
</event>
<event>
 5    0  0.5778875E-005  0.4752051E+03  0.7546771E-02  0.1020461E+00
         21   -1    0    0  502  501  0.00000000000E+00  0.00000000000E+00  0.86494038431E+03  0.86494038431E+03  0.00000000000E+00 0.  1.
         21   -1    0    0  501  502 -0.00000000000E+00 -0.00000000000E+00 -0.26108142049E+03  0.26108142049E+03  0.00000000000E+00 0.  1.
         25    1    1    2    0    0  0.15973019963E+03  0.74179934202E+01  0.92592402914E+02  0.22308544636E+03  0.12500000000E+03 0.  0.
         25    1    1    2    0    0 -0.65114083867E+02 -0.31143593692E+03  0.77487809306E+02  0.35051611562E+03  0.12500000000E+03 0.  0.
         25    1    1    2    0    0 -0.94616115765E+02  0.30401794350E+03  0.43377875161E+03  0.55242024282E+03  0.12500000000E+03 0.  0.
</event>
<event>
 5    0  0.5778875E-005  0.3174841E+03  0.7546771E-02  0.1076813E+00
         21   -1    0    0  502  501  0.00000000000E+00  0.00000000000E+00  0.40203044407E+03  0.40203044407E+03  0.00000000000E+00 0. -1.
         21   -1    0    0  501  502 -0.00000000000E+00 -0.00000000000E+00 -0.25071769509E+03  0.25071769509E+03  0.00000000000E+00 0. -1.
         25    1    1    2    0    0 -0.50481894925E+02  0.19360547309E+03  0.99408064688E+02  0.25600481294E+03  0.12500000000E+03 0.  0.
         25    1    1    2    0    0  0.66245704229E+01 -0.10955458016E+03 -0.86536476274E+02  0.18750907363E+03  0.12500000000E+03 0.  0.
         25    1    1    2    0    0  0.43857324502E+02 -0.84050892929E+02  0.13844116057E+03  0.20923425259E+03  0.12500000000E+03 0.  0.
</event>
<event>
 5    0  0.5778875E-005  0.3004706E+03  0.7546771E-02  0.1085006E+00
         21   -1    0    0  502  501  0.00000000000E+00  0.00000000000E+00  0.27213802657E+03  0.27213802657E+03  0.00000000000E+00 0. -1.
         21   -1    0    0  501  502 -0.00000000000E+00 -0.00000000000E+00 -0.33175291720E+03  0.33175291720E+03  0.00000000000E+00 0. -1.
         25    1    1    2    0    0  0.66719547414E+02  0.35720531489E+02  0.11423524855E+03  0.18547815609E+03  0.12500000000E+03 0.  0.
         25    1    1    2    0    0  0.29393767459E+02  0.91672461610E+02 -0.10584165223E+02  0.15812924567E+03  0.12500000000E+03 0.  0.
         25    1    1    2    0    0 -0.96113314873E+02 -0.12739299310E+03 -0.16326597395E+03  0.26028354200E+03  0.12500000000E+03 0.  0.
</event>
<event>
 5    0  0.5778875E-005  0.2816946E+03  0.7546771E-02  0.1094767E+00
         21   -1    0    0  502  501  0.00000000000E+00  0.00000000000E+00  0.98930781985E+03  0.98930781985E+03  0.00000000000E+00 0. -1.
         21   -1    0    0  501  502 -0.00000000000E+00 -0.00000000000E+00 -0.80209461193E+02  0.80209461193E+02  0.00000000000E+00 0. -1.
         25    1    1    2    0    0  0.51829356614E+01  0.89741631054E+01  0.17783473279E+03  0.21761799239E+03  0.12500000000E+03 0.  0.
         25    1    1    2    0    0 -0.16139731008E+03  0.32894808762E+01  0.52947336081E+03  0.56747418637E+03  0.12500000000E+03 0.  0.
         25    1    1    2    0    0  0.15621437442E+03 -0.12263643982E+02  0.20179026506E+03  0.28442510229E+03  0.12500000000E+03 0.  0.
</event>
<event>
 5    0  0.5778875E-005  0.3116527E+03  0.7546771E-02  0.1079556E+00
         21   -1    0    0  502  501  0.00000000000E+00  0.00000000000E+00  0.42956059323E+03  0.42956059323E+03  0.00000000000E+00 0.  1.
         21   -1    0    0  501  502 -0.00000000000E+00 -0.00000000000E+00 -0.22610870758E+03  0.22610870758E+03  0.00000000000E+00 0.  1.
         25    1    1    2    0    0  0.10092603640E+03 -0.41867700187E+02  0.16838426127E+03  0.23646824012E+03  0.12500000000E+03 0.  0.
         25    1    1    2    0    0 -0.18533721722E+03  0.26165690933E+02 -0.68842233372E+02  0.23536945546E+03  0.12500000000E+03 0.  0.
         25    1    1    2    0    0  0.84411180815E+02  0.15702009255E+02  0.10390985776E+03  0.18383160523E+03  0.12500000000E+03 0.  0.
</event>
<event>
 5    0  0.5778875E-005  0.2630708E+03  0.7546771E-02  0.1105312E+00
         21   -1    0    0  502  501  0.00000000000E+00  0.00000000000E+00  0.24631336361E+03  0.24631336361E+03  0.00000000000E+00 0. -1.
         21   -1    0    0  501  502 -0.00000000000E+00 -0.00000000000E+00 -0.28096833037E+03  0.28096833037E+03  0.00000000000E+00 0. -1.
         25    1    1    2    0    0  0.64708097861E+02 -0.41916648971E+02  0.44600554018E+02  0.15348730504E+03  0.12500000000E+03 0.  0.
         25    1    1    2    0    0  0.32875115208E+02  0.12397553073E+03 -0.16474547833E+01  0.17910449332E+03  0.12500000000E+03 0.  0.
         25    1    1    2    0    0 -0.97583213069E+02 -0.82058881760E+02 -0.77608065992E+02  0.19468989562E+03  0.12500000000E+03 0.  0.
</event>
<event>
 5    0  0.5778875E-005  0.2769473E+03  0.7546771E-02  0.1097368E+00
         21   -1    0    0  502  501  0.00000000000E+00  0.00000000000E+00  0.18601008054E+04  0.18601008054E+04  0.00000000000E+00 0.  1.
         21   -1    0    0  501  502 -0.00000000000E+00 -0.00000000000E+00 -0.41234223179E+02  0.41234223179E+02  0.00000000000E+00 0.  1.
         25    1    1    2    0    0  0.60938018656E+02  0.32328900623E+02  0.29411793322E+03  0.32693876885E+03  0.12500000000E+03 0.  0.
         25    1    1    2    0    0  0.28646425344E+02 -0.14919247581E+03  0.85572483077E+03  0.87804840329E+03  0.12500000000E+03 0.  0.
         25    1    1    2    0    0 -0.89584444001E+02  0.11686357518E+03  0.66902381821E+03  0.69634785642E+03  0.12500000000E+03 0.  0.
</event>
<event>
 5    0  0.5778875E-005  0.3174845E+03  0.7546771E-02  0.1076813E+00
         21   -1    0    0  502  501  0.00000000000E+00  0.00000000000E+00  0.20863404916E+03  0.20863404916E+03  0.00000000000E+00 0.  1.
         21   -1    0    0  501  502 -0.00000000000E+00 -0.00000000000E+00 -0.48312544351E+03  0.48312544351E+03  0.00000000000E+00 0.  1.
         25    1    1    2    0    0 -0.76873353076E+02 -0.11998166925E+03 -0.49520424516E+01  0.18961707754E+03  0.12500000000E+03 0.  0.
         25    1    1    2    0    0 -0.23617125802E+02  0.20337971370E+03 -0.12386112361E+03  0.26997713703E+03  0.12500000000E+03 0.  0.
         25    1    1    2    0    0  0.10049047888E+03 -0.83398044454E+02 -0.14567822828E+03  0.23216527811E+03  0.12500000000E+03 0.  0.
</event>
<event>
 5    0  0.5778875E-005  0.3767775E+03  0.7546771E-02  0.1052131E+00
         21   -1    0    0  502  501  0.00000000000E+00  0.00000000000E+00  0.79030805612E+03  0.79030805612E+03  0.00000000000E+00 0. -1.
         21   -1    0    0  501  502 -0.00000000000E+00 -0.00000000000E+00 -0.17962777293E+03  0.17962777293E+03  0.00000000000E+00 0. -1.
         25    1    1    2    0    0 -0.16955272892E+03  0.13151421114E+03  0.94607200008E+02  0.26574355667E+03  0.12500000000E+03 0.  0.
         25    1    1    2    0    0  0.92416690493E+02 -0.22060383750E+03  0.44031553402E+03  0.51643941300E+03  0.12500000000E+03 0.  0.
         25    1    1    2    0    0  0.77136038427E+02  0.89089626358E+02  0.75757549168E+02  0.18775285938E+03  0.12500000000E+03 0.  0.
</event>
<event>
 5    0  0.5778875E-005  0.2318521E+03  0.7546771E-02  0.1125343E+00
         21   -1    0    0  502  501  0.00000000000E+00  0.00000000000E+00  0.10127852725E+03  0.10127852725E+03  0.00000000000E+00 0. -1.
         21   -1    0    0  501  502 -0.00000000000E+00 -0.00000000000E+00 -0.53076776239E+03  0.53076776239E+03  0.00000000000E+00 0. -1.
         25    1    1    2    0    0 -0.67436606236E+00  0.13144694130E+01 -0.81416983180E+02  0.14918414041E+03  0.12500000000E+03 0.  0.
         25    1    1    2    0    0 -0.64427960569E+02  0.89779115117E+02 -0.17547940937E+03  0.24213482758E+03  0.12500000000E+03 0.  0.
         25    1    1    2    0    0  0.65102326631E+02 -0.91093584530E+02 -0.17259284259E+03  0.24072732165E+03  0.12500000000E+03 0.  0.
</event>
<event>
 5    0  0.6989342E-005  0.5078600E+03  0.7546771E-02  0.1011747E+00
         21   -1    0    0  502  501  0.00000000000E+00  0.00000000000E+00  0.30474587322E+03  0.30474587322E+03  0.00000000000E+00 0.  1.
         21   -1    0    0  501  502 -0.00000000000E+00 -0.00000000000E+00 -0.84635048549E+03  0.84635048549E+03  0.00000000000E+00 0.  1.
         25    1    1    2    0    0 -0.23671949892E+03 -0.72762238770E+02  0.58558681813E+02  0.28352175186E+03  0.12500000000E+03 0.  0.
         25    1    1    2    0    0  0.16355287411E+03 -0.21870001024E+03 -0.26782478761E+03  0.40241067825E+03  0.12500000000E+03 0.  0.
         25    1    1    2    0    0  0.73166624809E+02  0.29146224901E+03 -0.33233850648E+03  0.46516392860E+03  0.12500000000E+03 0.  0.
</event>
<event>
 5    0  0.5778875E-005  0.3684683E+03  0.7546771E-02  0.1055280E+00
         21   -1    0    0  502  501  0.00000000000E+00  0.00000000000E+00  0.25912934705E+03  0.25912934705E+03  0.00000000000E+00 0.  1.
         21   -1    0    0  501  502 -0.00000000000E+00 -0.00000000000E+00 -0.52394244050E+03  0.52394244050E+03  0.00000000000E+00 0.  1.
         25    1    1    2    0    0 -0.96835323853E+02  0.10708839248E+03 -0.20710034731E+03  0.28171005947E+03  0.12500000000E+03 0.  0.
         25    1    1    2    0    0 -0.14093734562E+03 -0.76399178951E+02 -0.10190667938E+03  0.22739863948E+03  0.12500000000E+03 0.  0.
         25    1    1    2    0    0  0.23777266948E+03 -0.30689213531E+02  0.44193933241E+02  0.27396308860E+03  0.12500000000E+03 0.  0.
</event>
<event>
 5    0  0.5778875E-005  0.2131343E+03  0.7546771E-02  0.1139108E+00
         21   -1    0    0  502  501  0.00000000000E+00  0.00000000000E+00  0.87345448710E+03  0.87345448710E+03  0.00000000000E+00 0.  1.
         21   -1    0    0  501  502 -0.00000000000E+00 -0.00000000000E+00 -0.52007565346E+02  0.52007565346E+02  0.00000000000E+00 0.  1.
         25    1    1    2    0    0  0.29611142123E+02  0.45751676660E+02  0.32158055989E+03  0.34929799907E+03  0.12500000000E+03 0.  0.
         25    1    1    2    0    0 -0.61206775755E+02  0.16315360070E+01  0.32682485457E+03  0.35523009004E+03  0.12500000000E+03 0.  0.
         25    1    1    2    0    0  0.31595633632E+02 -0.47383212667E+02  0.17304150730E+03  0.22093396334E+03  0.12500000000E+03 0.  0.
</event>
<event>
 5    0  0.5778875E-005  0.4840168E+03  0.7546771E-02  0.1018037E+00
         21   -1    0    0  502  501  0.00000000000E+00  0.00000000000E+00  0.13600380313E+03  0.13600380313E+03  0.00000000000E+00 0.  1.
         21   -1    0    0  501  502 -0.00000000000E+00 -0.00000000000E+00 -0.17225422247E+04  0.17225422247E+04  0.00000000000E+00 0.  1.
         25    1    1    2    0    0 -0.14703137489E+03  0.24063756746E+03 -0.83419420532E+03  0.88939846878E+03  0.12500000000E+03 0.  0.
         25    1    1    2    0    0  0.25131491584E+03 -0.27519888138E+03 -0.32330729245E+03  0.50896583047E+03  0.12500000000E+03 0.  0.
         25    1    1    2    0    0 -0.10428354096E+03  0.34561313912E+02 -0.42903692383E+03  0.46018172861E+03  0.12500000000E+03 0.  0.
</event>
<event>
 5    0  0.5778875E-005  0.6313825E+03  0.7546771E-02  0.9842355E-01
         21   -1    0    0  502  501  0.00000000000E+00  0.00000000000E+00  0.14666136733E+03  0.14666136733E+03  0.00000000000E+00 0. -1.
         21   -1    0    0  501  502 -0.00000000000E+00 -0.00000000000E+00 -0.27181245183E+04  0.27181245183E+04  0.00000000000E+00 0. -1.
         25    1    1    2    0    0  0.23313222942E+03 -0.19104639457E+03 -0.15317444916E+03  0.36046743702E+03  0.12500000000E+03 0.  0.
         25    1    1    2    0    0 -0.17287712862E+03  0.23901395317E+03 -0.22807402462E+04  0.23031316164E+04  0.12500000000E+03 0.  0.
         25    1    1    2    0    0 -0.60255100803E+02 -0.47967558597E+02 -0.13754845559E+03  0.20118683229E+03  0.12500000000E+03 0.  0.
</event>
<event>
 5    0  0.5778875E-005  0.2514982E+03  0.7546771E-02  0.1112362E+00
         21   -1    0    0  502  501  0.00000000000E+00  0.00000000000E+00  0.44932645938E+03  0.44932645938E+03  0.00000000000E+00 0. -1.
         21   -1    0    0  501  502 -0.00000000000E+00 -0.00000000000E+00 -0.14076927170E+03  0.14076927170E+03  0.00000000000E+00 0. -1.
         25    1    1    2    0    0  0.11584177032E+03 -0.21754917895E+02  0.11028276325E+03  0.20415650877E+03  0.12500000000E+03 0.  0.
         25    1    1    2    0    0 -0.20542283757E+02  0.25171575854E+02  0.18838546262E+03  0.22840682166E+03  0.12500000000E+03 0.  0.
         25    1    1    2    0    0 -0.95299486565E+02 -0.34166579595E+01  0.98889618100E+01  0.15753240066E+03  0.12500000000E+03 0.  0.
</event>
<event>
 5    0  0.5778875E-005  0.2871350E+03  0.7546771E-02  0.1091855E+00
         21   -1    0    0  502  501  0.00000000000E+00  0.00000000000E+00  0.15731517292E+04  0.15731517292E+04  0.00000000000E+00 0.  1.
         21   -1    0    0  501  502 -0.00000000000E+00 -0.00000000000E+00 -0.52408473227E+02  0.52408473227E+02  0.00000000000E+00 0.  1.
         25    1    1    2    0    0  0.81072751322E+02 -0.11829703419E+03  0.43347342596E+03  0.47338271021E+03  0.12500000000E+03 0.  0.
         25    1    1    2    0    0  0.47051861948E+02  0.90179212804E+02  0.26479329765E+03  0.30997848089E+03  0.12500000000E+03 0.  0.
         25    1    1    2    0    0 -0.12812461327E+03  0.28117821389E+02  0.82247653238E+03  0.84219901135E+03  0.12500000000E+03 0.  0.
</event>
<event>
 5    0  0.5778875E-005  0.3150792E+03  0.7546771E-02  0.1077937E+00
         21   -1    0    0  502  501  0.00000000000E+00  0.00000000000E+00  0.71123271511E+02  0.71123271511E+02  0.00000000000E+00 0. -1.
         21   -1    0    0  501  502 -0.00000000000E+00 -0.00000000000E+00 -0.13958149293E+04  0.13958149293E+04  0.00000000000E+00 0. -1.
         25    1    1    2    0    0 -0.88255103903E+02  0.22570658206E+02 -0.24642729974E+03  0.29094640750E+03  0.12500000000E+03 0.  0.
         25    1    1    2    0    0  0.97806772818E+01 -0.14394746737E+03 -0.88062923427E+03  0.90108233989E+03  0.12500000000E+03 0.  0.
         25    1    1    2    0    0  0.78474426621E+02  0.12137680916E+03 -0.19763512379E+03  0.27490945344E+03  0.12500000000E+03 0.  0.
</event>
<event>
 5    0  0.5778875E-005  0.2634813E+03  0.7546771E-02  0.1105069E+00
         21   -1    0    0  502  501  0.00000000000E+00  0.00000000000E+00  0.69669458112E+02  0.69669458112E+02  0.00000000000E+00 0.  1.
         21   -1    0    0  501  502 -0.00000000000E+00 -0.00000000000E+00 -0.99645370066E+03  0.99645370066E+03  0.00000000000E+00 0.  1.
         25    1    1    2    0    0  0.30260960050E+02 -0.97295626599E+02 -0.19193212463E+03  0.25068926009E+03  0.12500000000E+03 0.  0.
         25    1    1    2    0    0 -0.41463113470E+02  0.10846954837E+03 -0.62630182290E+03  0.64912541628E+03  0.12500000000E+03 0.  0.
         25    1    1    2    0    0  0.11202153420E+02 -0.11173921769E+02 -0.10855029502E+03  0.16630848240E+03  0.12500000000E+03 0.  0.
</event>
<event>
 5    0  0.5778875E-005  0.3260865E+03  0.7546771E-02  0.1072882E+00
         21   -1    0    0  502  501  0.00000000000E+00  0.00000000000E+00  0.16462637142E+03  0.16462637142E+03  0.00000000000E+00 0. -1.
         21   -1    0    0  501  502 -0.00000000000E+00 -0.00000000000E+00 -0.64590122846E+03  0.64590122846E+03  0.00000000000E+00 0. -1.
         25    1    1    2    0    0 -0.84460900073E+02  0.16571921928E+03 -0.55150283781E+02  0.23078790497E+03  0.12500000000E+03 0.  0.
         25    1    1    2    0    0  0.84306390694E+02 -0.19298495561E+03 -0.18552178989E+03  0.30723622040E+03  0.12500000000E+03 0.  0.
         25    1    1    2    0    0  0.15450937867E+00  0.27265736327E+02 -0.24060278337E+03  0.27250347450E+03  0.12500000000E+03 0.  0.
</event>
<event>
 5    0  0.5778875E-005  0.2260497E+03  0.7546771E-02  0.1129451E+00
         21   -1    0    0  502  501  0.00000000000E+00  0.00000000000E+00  0.37841682045E+03  0.37841682045E+03  0.00000000000E+00 0.  1.
         21   -1    0    0  501  502 -0.00000000000E+00 -0.00000000000E+00 -0.13503221603E+03  0.13503221603E+03  0.00000000000E+00 0.  1.
         25    1    1    2    0    0  0.29593761261E+02  0.79408712690E+02  0.62951004173E+02  0.16361345691E+03  0.12500000000E+03 0.  0.
         25    1    1    2    0    0  0.32474666082E+02  0.94597591221E+01  0.48724234014E+02  0.13835874371E+03  0.12500000000E+03 0.  0.
         25    1    1    2    0    0 -0.62068427343E+02 -0.88868471812E+02  0.13170936624E+03  0.21147683587E+03  0.12500000000E+03 0.  0.
</event>
<event>
 5    0  0.5778875E-005  0.2553777E+03  0.7546771E-02  0.1109953E+00
         21   -1    0    0  502  501  0.00000000000E+00  0.00000000000E+00  0.66091687526E+02  0.66091687526E+02  0.00000000000E+00 0. -1.
         21   -1    0    0  501  502 -0.00000000000E+00 -0.00000000000E+00 -0.98677714752E+03  0.98677714752E+03  0.00000000000E+00 0. -1.
         25    1    1    2    0    0  0.39342820880E+01 -0.13221602272E+03 -0.31003524038E+03  0.35950438873E+03  0.12500000000E+03 0.  0.
         25    1    1    2    0    0 -0.60804700423E+02  0.58755141026E+02 -0.17703378132E+03  0.23262703609E+03  0.12500000000E+03 0.  0.
         25    1    1    2    0    0  0.56870418335E+02  0.73460881698E+02 -0.43361643830E+03  0.46073741023E+03  0.12500000000E+03 0.  0.
</event>
<event>
 5    0  0.5778875E-005  0.3363186E+03  0.7546771E-02  0.1068375E+00
         21   -1    0    0  502  501  0.00000000000E+00  0.00000000000E+00  0.62610860837E+02  0.62610860837E+02  0.00000000000E+00 0.  1.
         21   -1    0    0  501  502 -0.00000000000E+00 -0.00000000000E+00 -0.18065589710E+04  0.18065589710E+04  0.00000000000E+00 0.  1.
         25    1    1    2    0    0 -0.32781957431E+02  0.45980326836E+02 -0.40606491230E+03  0.42860536649E+03  0.12500000000E+03 0.  0.
         25    1    1    2    0    0  0.79510755474E+02  0.19889155163E+03 -0.74890826770E+03  0.78890329127E+03  0.12500000000E+03 0.  0.
         25    1    1    2    0    0 -0.46728798043E+02 -0.24487187846E+03 -0.58897493015E+03  0.65166117406E+03  0.12500000000E+03 0.  0.
</event>
<event>
 5    0  0.7510440E-005  0.2863825E+03  0.7546771E-02  0.1092253E+00
         21   -1    0    0  502  501  0.00000000000E+00  0.00000000000E+00  0.65421436516E+03  0.65421436516E+03  0.00000000000E+00 0. -1.
         21   -1    0    0  501  502 -0.00000000000E+00 -0.00000000000E+00 -0.12536400197E+03  0.12536400197E+03  0.00000000000E+00 0. -1.
         25    1    1    2    0    0 -0.93968653115E+02  0.16182883352E+03  0.28797219431E+03  0.36547457343E+03  0.12500000000E+03 0.  0.
         25    1    1    2    0    0 -0.84682693573E+01 -0.11031773231E+03  0.12795177078E+03  0.21032919268E+03  0.12500000000E+03 0.  0.
         25    1    1    2    0    0  0.10243692247E+03 -0.51511101204E+02  0.11292639809E+03  0.20377460102E+03  0.12500000000E+03 0.  0.
</event>
<event>
 5    0  0.5778875E-005  0.3864183E+03  0.7546771E-02  0.1048587E+00
         21   -1    0    0  502  501  0.00000000000E+00  0.00000000000E+00  0.31013558209E+03  0.31013558209E+03  0.00000000000E+00 0.  1.
         21   -1    0    0  501  502 -0.00000000000E+00 -0.00000000000E+00 -0.48146393152E+03  0.48146393152E+03  0.00000000000E+00 0.  1.
         25    1    1    2    0    0 -0.24000162116E+03  0.25285120414E+02  0.91919312787E+02  0.28690464537E+03  0.12500000000E+03 0.  0.
         25    1    1    2    0    0  0.14952774246E+03 -0.12510232725E+03 -0.79605182507E+02  0.24489002252E+03  0.12500000000E+03 0.  0.
         25    1    1    2    0    0  0.90473878694E+02  0.99817206835E+02 -0.18364247970E+03  0.25980484572E+03  0.12500000000E+03 0.  0.
</event>
<event>
 5    0  0.5778875E-005  0.2644374E+03  0.7546771E-02  0.1104506E+00
         21   -1    0    0  502  501  0.00000000000E+00  0.00000000000E+00  0.77536218645E+03  0.77536218645E+03  0.00000000000E+00 0.  1.
         21   -1    0    0  501  502 -0.00000000000E+00 -0.00000000000E+00 -0.90186399360E+02  0.90186399360E+02  0.00000000000E+00 0.  1.
         25    1    1    2    0    0  0.64945903831E+02 -0.41899635842E+02  0.16514408998E+03  0.22106813512E+03  0.12500000000E+03 0.  0.
         25    1    1    2    0    0  0.34614031163E+02  0.22181099756E+02  0.39043763919E+02  0.13725723238E+03  0.12500000000E+03 0.  0.
         25    1    1    2    0    0 -0.99559934994E+02  0.19718536086E+02  0.48098793318E+03  0.50722321831E+03  0.12500000000E+03 0.  0.
</event>
<event>
 5    0  0.5778875E-005  0.4915917E+03  0.7546771E-02  0.1015997E+00
         21   -1    0    0  502  501  0.00000000000E+00  0.00000000000E+00  0.38706216295E+03  0.38706216295E+03  0.00000000000E+00 0.  1.
         21   -1    0    0  501  502 -0.00000000000E+00 -0.00000000000E+00 -0.62435035081E+03  0.62435035081E+03  0.00000000000E+00 0.  1.
         25    1    1    2    0    0 -0.89504469217E+02  0.26140768322E+02  0.22676727132E+03  0.27521407144E+03  0.12500000000E+03 0.  0.
         25    1    1    2    0    0  0.11805201112E+03 -0.14742724296E+03 -0.50636045723E+03  0.55470440952E+03  0.12500000000E+03 0.  0.
         25    1    1    2    0    0 -0.28547541908E+02  0.12128647464E+03  0.42304998056E+02  0.18149403279E+03  0.12500000000E+03 0.  0.
</event>
<event>
 5    0  0.5778875E-005  0.2215474E+03  0.7546771E-02  0.1132735E+00
         21   -1    0    0  502  501  0.00000000000E+00  0.00000000000E+00  0.79249382717E+03  0.79249382717E+03  0.00000000000E+00 0.  1.
         21   -1    0    0  501  502 -0.00000000000E+00 -0.00000000000E+00 -0.61935197868E+02  0.61935197868E+02  0.00000000000E+00 0.  1.
         25    1    1    2    0    0 -0.72805237691E+02  0.48366119067E+02  0.30183205050E+03  0.33818259982E+03  0.12500000000E+03 0.  0.
         25    1    1    2    0    0  0.70718733908E+02 -0.49516966948E+01  0.15016708091E+03  0.20784804742E+03  0.12500000000E+03 0.  0.
         25    1    1    2    0    0  0.20865037828E+01 -0.43414422372E+02  0.27855949789E+03  0.30839837781E+03  0.12500000000E+03 0.  0.
</event>
<event>
 5    0  0.5778875E-005  0.2611008E+03  0.7546771E-02  0.1106484E+00
         21   -1    0    0  502  501  0.00000000000E+00  0.00000000000E+00  0.18003497808E+03  0.18003497808E+03  0.00000000000E+00 0.  1.
         21   -1    0    0  501  502 -0.00000000000E+00 -0.00000000000E+00 -0.37866876309E+03  0.37866876309E+03  0.00000000000E+00 0.  1.
         25    1    1    2    0    0  0.16737085278E+02  0.13368535988E+03 -0.16399565124E+03  0.24631581170E+03  0.12500000000E+03 0.  0.
         25    1    1    2    0    0 -0.94062209415E+01 -0.13185128737E+03 -0.42793589558E+02  0.18689443620E+03  0.12500000000E+03 0.  0.
         25    1    1    2    0    0 -0.73308643362E+01 -0.18340725030E+01  0.81554557818E+01  0.12549349327E+03  0.12500000000E+03 0.  0.
</event>
<event>
 5    0  0.5778875E-005  0.3001938E+03  0.7546771E-02  0.1085144E+00
         21   -1    0    0  502  501  0.00000000000E+00  0.00000000000E+00  0.58069069755E+03  0.58069069755E+03  0.00000000000E+00 0. -1.
         21   -1    0    0  501  502 -0.00000000000E+00 -0.00000000000E+00 -0.15518819157E+03  0.15518819157E+03  0.00000000000E+00 0. -1.
         25    1    1    2    0    0  0.52650394026E+02  0.46247432235E+02 -0.36057959288E+02  0.14777031301E+03  0.12500000000E+03 0.  0.
         25    1    1    2    0    0 -0.97146363125E+02 -0.33617698430E+02  0.41743619710E+03  0.44771145190E+03  0.12500000000E+03 0.  0.
         25    1    1    2    0    0  0.44495969098E+02 -0.12629733805E+02  0.44124268172E+02  0.14039712420E+03  0.12500000000E+03 0.  0.
</event>
<event>
 5    0  0.5778875E-005  0.2750019E+03  0.7546771E-02  0.1098451E+00
         21   -1    0    0  502  501  0.00000000000E+00  0.00000000000E+00  0.27582990391E+03  0.27582990391E+03  0.00000000000E+00 0.  1.
         21   -1    0    0  501  502 -0.00000000000E+00 -0.00000000000E+00 -0.27417631108E+03  0.27417631108E+03  0.00000000000E+00 0.  1.
         25    1    1    2    0    0 -0.41120113557E+02  0.15254057085E+03  0.65719588056E+01  0.20156309220E+03  0.12500000000E+03 0.  0.
         25    1    1    2    0    0 -0.83599379885E+01 -0.17127580353E+02 -0.72812075355E+02  0.14591038650E+03  0.12500000000E+03 0.  0.
         25    1    1    2    0    0  0.49480051545E+02 -0.13541299050E+03  0.67893709379E+02  0.20253273629E+03  0.12500000000E+03 0.  0.
</event>
<event>
 5    0  0.5778875E-005  0.2352819E+03  0.7546771E-02  0.1122976E+00
         21   -1    0    0  502  501  0.00000000000E+00  0.00000000000E+00  0.10431617277E+03  0.10431617277E+03  0.00000000000E+00 0. -1.
         21   -1    0    0  501  502 -0.00000000000E+00 -0.00000000000E+00 -0.53067083336E+03  0.53067083336E+03  0.00000000000E+00 0. -1.
         25    1    1    2    0    0 -0.52725240619E+02  0.11220060924E+02 -0.24752253911E+03  0.28248583705E+03  0.12500000000E+03 0.  0.
         25    1    1    2    0    0 -0.43041905961E+02  0.31268237560E+02 -0.11266772011E+03  0.17649170945E+03  0.12500000000E+03 0.  0.
         25    1    1    2    0    0  0.95767146580E+02 -0.42488298484E+02 -0.66164401379E+02  0.17600945964E+03  0.12500000000E+03 0.  0.
</event>
<event>
 5    0  0.5778875E-005  0.8876676E+03  0.7546771E-02  0.9441130E-01
         21   -1    0    0  502  501  0.00000000000E+00  0.00000000000E+00  0.13454970362E+04  0.13454970362E+04  0.00000000000E+00 0.  1.
         21   -1    0    0  501  502 -0.00000000000E+00 -0.00000000000E+00 -0.58562285958E+03  0.58562285958E+03  0.00000000000E+00 0.  1.
         25    1    1    2    0    0 -0.84667086588E+03 -0.25484647183E+02  0.32263703895E+03  0.91499764004E+03  0.12500000000E+03 0.  0.
         25    1    1    2    0    0  0.19188791030E+03  0.85936541262E+02  0.15586783160E+03  0.29004454860E+03  0.12500000000E+03 0.  0.
         25    1    1    2    0    0  0.65478295558E+03 -0.60451894079E+02  0.28136930607E+03  0.72607770715E+03  0.12500000000E+03 0.  0.
</event>
<event>
 5    0  0.5778875E-005  0.2493018E+03  0.7546771E-02  0.1113747E+00
         21   -1    0    0  502  501  0.00000000000E+00  0.00000000000E+00  0.77363276269E+03  0.77363276269E+03  0.00000000000E+00 0. -1.
         21   -1    0    0  501  502 -0.00000000000E+00 -0.00000000000E+00 -0.80337063663E+02  0.80337063663E+02  0.00000000000E+00 0. -1.
         25    1    1    2    0    0  0.92673301460E+02 -0.83143320841E+01  0.15545449469E+03  0.22011035605E+03  0.12500000000E+03 0.  0.
         25    1    1    2    0    0 -0.12909663864E+03  0.68019804402E+02  0.31308904767E+03  0.36734505260E+03  0.12500000000E+03 0.  0.
         25    1    1    2    0    0  0.36423337182E+02 -0.59705472318E+02  0.22475215666E+03  0.26651441770E+03  0.12500000000E+03 0.  0.
</event>
<event>
 5    0  0.5778875E-005  0.3311855E+03  0.7546771E-02  0.1070614E+00
         21   -1    0    0  502  501  0.00000000000E+00  0.00000000000E+00  0.28892749232E+03  0.28892749232E+03  0.00000000000E+00 0. -1.
         21   -1    0    0  501  502 -0.00000000000E+00 -0.00000000000E+00 -0.37962412776E+03  0.37962412776E+03  0.00000000000E+00 0. -1.
         25    1    1    2    0    0  0.79408146780E+02 -0.23520673111E+03  0.33981455712E+02  0.28001357015E+03  0.12500000000E+03 0.  0.
         25    1    1    2    0    0 -0.87841674373E+02  0.95297472735E+02 -0.66039022845E+02  0.19179134653E+03  0.12500000000E+03 0.  0.
         25    1    1    2    0    0  0.84335275926E+01  0.13990925838E+03 -0.58639068309E+02  0.19674670340E+03  0.12500000000E+03 0.  0.
</event>
<event>
 5    0  0.5778875E-005  0.2964675E+03  0.7546771E-02  0.1087020E+00
         21   -1    0    0  502  501  0.00000000000E+00  0.00000000000E+00  0.28245428552E+03  0.28245428552E+03  0.00000000000E+00 0. -1.
         21   -1    0    0  501  502 -0.00000000000E+00 -0.00000000000E+00 -0.31117597973E+03  0.31117597973E+03  0.00000000000E+00 0. -1.
         25    1    1    2    0    0 -0.18851154920E+02 -0.73581644833E+01 -0.73753752490E+01  0.12684204660E+03  0.12500000000E+03 0.  0.
         25    1    1    2    0    0  0.11301150088E+03  0.15947709481E+03  0.49688236415E+02  0.23727297347E+03  0.12500000000E+03 0.  0.
         25    1    1    2    0    0 -0.94160345963E+02 -0.15211893032E+03 -0.71034555371E+02  0.22951524518E+03  0.12500000000E+03 0.  0.
</event>
<event>
 5    0  0.5778875E-005  0.3680502E+03  0.7546771E-02  0.1055441E+00
         21   -1    0    0  502  501  0.00000000000E+00  0.00000000000E+00  0.81051417627E+03  0.81051417627E+03  0.00000000000E+00 0.  1.
         21   -1    0    0  501  502 -0.00000000000E+00 -0.00000000000E+00 -0.16712962250E+03  0.16712962250E+03  0.00000000000E+00 0.  1.
         25    1    1    2    0    0 -0.14520706491E+03 -0.10761517880E+03  0.51355919979E+03  0.55860018806E+03  0.12500000000E+03 0.  0.
         25    1    1    2    0    0 -0.70544750727E+01 -0.58593300940E+02  0.67675836391E+02  0.15390893205E+03  0.12500000000E+03 0.  0.
         25    1    1    2    0    0  0.15226153998E+03  0.16620847974E+03  0.62149517575E+02  0.26513467866E+03  0.12500000000E+03 0.  0.
</event>
<event>
 5    0  0.5778875E-005  0.2937771E+03  0.7546771E-02  0.1088393E+00
         21   -1    0    0  502  501  0.00000000000E+00  0.00000000000E+00  0.12240774714E+03  0.12240774714E+03  0.00000000000E+00 0. -1.
         21   -1    0    0  501  502 -0.00000000000E+00 -0.00000000000E+00 -0.70506162089E+03  0.70506162089E+03  0.00000000000E+00 0. -1.
         25    1    1    2    0    0 -0.14431601981E+03 -0.31586255125E+01 -0.23248759383E+03  0.30085307340E+03  0.12500000000E+03 0.  0.
         25    1    1    2    0    0  0.19481616574E+03 -0.51553569794E+02 -0.27407089106E+03  0.36242373311E+03  0.12500000000E+03 0.  0.
         25    1    1    2    0    0 -0.50500145933E+02  0.54712195306E+02 -0.76095388856E+02  0.16419256152E+03  0.12500000000E+03 0.  0.
</event>
<event>
 5    0  0.5778875E-005  0.3180074E+03  0.7546771E-02  0.1076570E+00
         21   -1    0    0  502  501  0.00000000000E+00  0.00000000000E+00  0.94536664438E+03  0.94536664438E+03  0.00000000000E+00 0. -1.
         21   -1    0    0  501  502 -0.00000000000E+00 -0.00000000000E+00 -0.10697299719E+03  0.10697299719E+03  0.00000000000E+00 0. -1.
         25    1    1    2    0    0  0.11750168071E+03  0.12449309729E+03  0.31833309619E+03  0.38244756029E+03  0.12500000000E+03 0.  0.
         25    1    1    2    0    0  0.77826380529E+02 -0.11387875853E+03  0.18649262233E+03  0.26349538010E+03  0.12500000000E+03 0.  0.
         25    1    1    2    0    0 -0.19532806124E+03 -0.10614338764E+02  0.33356792867E+03  0.40639670118E+03  0.12500000000E+03 0.  0.
</event>
<event>
 5    0  0.7251674E-005  0.6171008E+03  0.7546771E-02  0.9870549E-01
         21   -1    0    0  502  501  0.00000000000E+00  0.00000000000E+00  0.65564163402E+03  0.65564163402E+03  0.00000000000E+00 0. -1.
         21   -1    0    0  501  502 -0.00000000000E+00 -0.00000000000E+00 -0.58082544568E+03  0.58082544568E+03  0.00000000000E+00 0. -1.
         25    1    1    2    0    0 -0.54695843150E+02  0.37133117935E+03  0.28406184696E+03  0.48702629592E+03  0.12500000000E+03 0.  0.
         25    1    1    2    0    0  0.74960700232E+02 -0.25025955175E+03  0.16706771698E+03  0.33434349385E+03  0.12500000000E+03 0.  0.
         25    1    1    2    0    0 -0.20264857082E+02 -0.12107162760E+03 -0.37631337561E+03  0.41509728993E+03  0.12500000000E+03 0.  0.
</event>
<event>
 5    0  0.5778875E-005  0.3390511E+03  0.7546771E-02  0.1067201E+00
         21   -1    0    0  502  501  0.00000000000E+00  0.00000000000E+00  0.12738850454E+04  0.12738850454E+04  0.00000000000E+00 0. -1.
         21   -1    0    0  501  502 -0.00000000000E+00 -0.00000000000E+00 -0.90240191992E+02  0.90240191992E+02  0.00000000000E+00 0. -1.
         25    1    1    2    0    0  0.11753247125E+03 -0.10680303129E+03  0.62798864985E+03  0.65970865815E+03  0.12500000000E+03 0.  0.
         25    1    1    2    0    0 -0.84938302354E+02 -0.64487710803E+02  0.80288569731E+02  0.18287819575E+03  0.12500000000E+03 0.  0.
         25    1    1    2    0    0 -0.32594168899E+02  0.17129074209E+03  0.47536763387E+03  0.52153838354E+03  0.12500000000E+03 0.  0.
</event>
<event>
 5    0  0.7269213E-005  0.3562017E+03  0.7546771E-02  0.1060098E+00
         21   -1    0    0  502  501  0.00000000000E+00  0.00000000000E+00  0.36354377654E+03  0.36354377654E+03  0.00000000000E+00 0. -1.
         21   -1    0    0  501  502 -0.00000000000E+00 -0.00000000000E+00 -0.34900788515E+03  0.34900788515E+03  0.00000000000E+00 0. -1.
         25    1    1    2    0    0 -0.67382894201E+02 -0.12955440718E+03  0.11269527346E+03  0.22282285230E+03  0.12500000000E+03 0.  0.
         25    1    1    2    0    0  0.10697896849E+03 -0.11604206399E+03 -0.37711227946E+02  0.20483504834E+03  0.12500000000E+03 0.  0.
         25    1    1    2    0    0 -0.39596074286E+02  0.24559647117E+03 -0.60448154113E+02  0.28489376105E+03  0.12500000000E+03 0.  0.
</event>
<event>
 5    0  0.5778875E-005  0.3087106E+03  0.7546771E-02  0.1080966E+00
         21   -1    0    0  502  501  0.00000000000E+00  0.00000000000E+00  0.29936201166E+03  0.29936201166E+03  0.00000000000E+00 0. -1.
         21   -1    0    0  501  502 -0.00000000000E+00 -0.00000000000E+00 -0.31835122515E+03  0.31835122515E+03  0.00000000000E+00 0. -1.
         25    1    1    2    0    0 -0.10021852015E+03 -0.10247993813E+03 -0.15394440026E+03  0.24468299466E+03  0.12500000000E+03 0.  0.
         25    1    1    2    0    0  0.91922980780E+02  0.16941935372E+02  0.15505876103E+03  0.22001155183E+03  0.12500000000E+03 0.  0.
         25    1    1    2    0    0  0.82955393750E+01  0.85538002761E+02 -0.20103574257E+02  0.15301869032E+03  0.12500000000E+03 0.  0.
</event>
<event>
 5    0  0.5778875E-005  0.2854610E+03  0.7546771E-02  0.1092743E+00
         21   -1    0    0  502  501  0.00000000000E+00  0.00000000000E+00  0.19003878806E+03  0.19003878806E+03  0.00000000000E+00 0. -1.
         21   -1    0    0  501  502 -0.00000000000E+00 -0.00000000000E+00 -0.42879646512E+03  0.42879646512E+03  0.00000000000E+00 0. -1.
         25    1    1    2    0    0  0.74637591930E+02  0.51997137926E+02  0.27809108036E+02  0.15707583828E+03  0.12500000000E+03 0.  0.
         25    1    1    2    0    0 -0.62533663329E+01 -0.12606475804E+03 -0.36759711106E+02  0.18140480746E+03  0.12500000000E+03 0.  0.
         25    1    1    2    0    0 -0.68384225597E+02  0.74067620112E+02 -0.22980707398E+03  0.28035460744E+03  0.12500000000E+03 0.  0.
</event>
<event>
 5    0  0.5778875E-005  0.3882078E+03  0.7546771E-02  0.1047941E+00
         21   -1    0    0  502  501  0.00000000000E+00  0.00000000000E+00  0.39962508642E+03  0.39962508642E+03  0.00000000000E+00 0. -1.
         21   -1    0    0  501  502 -0.00000000000E+00 -0.00000000000E+00 -0.37711667623E+03  0.37711667623E+03  0.00000000000E+00 0. -1.
         25    1    1    2    0    0 -0.10187810490E+03 -0.17396505332E+03  0.18733901671E+03  0.30226461126E+03  0.12500000000E+03 0.  0.
         25    1    1    2    0    0  0.17182330960E+03  0.13676674903E+03 -0.20012043636E+03  0.32233768382E+03  0.12500000000E+03 0.  0.
         25    1    1    2    0    0 -0.69945204695E+02  0.37198304290E+02  0.35289829838E+02  0.15213946757E+03  0.12500000000E+03 0.  0.
</event>
<event>
 5    0  0.5778875E-005  0.2343764E+03  0.7546771E-02  0.1123597E+00
         21   -1    0    0  502  501  0.00000000000E+00  0.00000000000E+00  0.13269747338E+03  0.13269747338E+03  0.00000000000E+00 0.  1.
         21   -1    0    0  501  502 -0.00000000000E+00 -0.00000000000E+00 -0.41396650381E+03  0.41396650381E+03  0.00000000000E+00 0.  1.
         25    1    1    2    0    0 -0.22346380530E+02 -0.59868071089E+02 -0.14272047442E+03  0.20019410700E+03  0.12500000000E+03 0.  0.
         25    1    1    2    0    0  0.42843075856E+02 -0.48333311513E+02 -0.20253952598E+02  0.14215083801E+03  0.12500000000E+03 0.  0.
         25    1    1    2    0    0 -0.20496695325E+02  0.10820138260E+03 -0.11829460341E+03  0.20431903219E+03  0.12500000000E+03 0.  0.
</event>
<event>
 5    0  0.6098332E-005  0.3057850E+03  0.7546771E-02  0.1082384E+00
         21   -1    0    0  502  501  0.00000000000E+00  0.00000000000E+00  0.24196282082E+03  0.24196282082E+03  0.00000000000E+00 0. -1.
         21   -1    0    0  501  502 -0.00000000000E+00 -0.00000000000E+00 -0.38644138956E+03  0.38644138956E+03  0.00000000000E+00 0. -1.
         25    1    1    2    0    0 -0.88567287777E+02  0.99236392750E+02 -0.14394267777E+02  0.18309620710E+03  0.12500000000E+03 0.  0.
         25    1    1    2    0    0  0.63136179487E+02 -0.20620681808E+03 -0.30000023860E+02  0.25106260258E+03  0.12500000000E+03 0.  0.
         25    1    1    2    0    0  0.25431108290E+02  0.10697042533E+03 -0.10008427711E+03  0.19424540069E+03  0.12500000000E+03 0.  0.
</event>
<event>
 5    0  0.5778875E-005  0.4263289E+03  0.7546771E-02  0.1035026E+00
         21   -1    0    0  502  501  0.00000000000E+00  0.00000000000E+00  0.81035030738E+03  0.81035030738E+03  0.00000000000E+00 0.  1.
         21   -1    0    0  501  502 -0.00000000000E+00 -0.00000000000E+00 -0.22429357159E+03  0.22429357159E+03  0.00000000000E+00 0.  1.
         25    1    1    2    0    0  0.55971200343E+02  0.21100714003E+03 -0.89870592805E+02  0.26713014031E+03  0.12500000000E+03 0.  0.
         25    1    1    2    0    0  0.18924241990E+02 -0.10822717761E+03  0.20558120779E+03  0.26449930417E+03  0.12500000000E+03 0.  0.
         25    1    1    2    0    0 -0.74895442333E+02 -0.10277996242E+03  0.47034612080E+03  0.50301443449E+03  0.12500000000E+03 0.  0.
</event>
<event>
 5    0  0.5778875E-005  0.2124110E+03  0.7546771E-02  0.1139671E+00
         21   -1    0    0  502  501  0.00000000000E+00  0.00000000000E+00  0.27393785334E+04  0.27393785334E+04  0.00000000000E+00 0. -1.
         21   -1    0    0  501  502 -0.00000000000E+00 -0.00000000000E+00 -0.16470321739E+02  0.16470321739E+02  0.00000000000E+00 0. -1.
         25    1    1    2    0    0  0.48397654024E+02 -0.45600927645E+02  0.13739964827E+04  0.13812722802E+04  0.12500000000E+03 0.  0.
         25    1    1    2    0    0 -0.80620708667E+01  0.13992075089E+02  0.75895060785E+03  0.76934504633E+03  0.12500000000E+03 0.  0.
         25    1    1    2    0    0 -0.40335583158E+02  0.31608852556E+02  0.58996112105E+03  0.60523152858E+03  0.12500000000E+03 0.  0.
</event>
<event>
 5    0  0.5778875E-005  0.4416420E+03  0.7546771E-02  0.1030244E+00
         21   -1    0    0  502  501  0.00000000000E+00  0.00000000000E+00  0.15690073384E+04  0.15690073384E+04  0.00000000000E+00 0.  1.
         21   -1    0    0  501  502 -0.00000000000E+00 -0.00000000000E+00 -0.12431274684E+03  0.12431274684E+03  0.00000000000E+00 0.  1.
         25    1    1    2    0    0  0.36214731106E+03 -0.94144692647E+02  0.91785955611E+03  0.99905208212E+03  0.12500000000E+03 0.  0.
         25    1    1    2    0    0 -0.17322110585E+03  0.32591944450E+02  0.27917019204E+03  0.35302801940E+03  0.12500000000E+03 0.  0.
         25    1    1    2    0    0 -0.18892620521E+03  0.61552748197E+02  0.24766484342E+03  0.34123998372E+03  0.12500000000E+03 0.  0.
</event>
<event>
 5    0  0.5778875E-005  0.2650565E+03  0.7546771E-02  0.1104143E+00
         21   -1    0    0  502  501  0.00000000000E+00  0.00000000000E+00  0.62887766053E+03  0.62887766053E+03  0.00000000000E+00 0.  1.
         21   -1    0    0  501  502 -0.00000000000E+00 -0.00000000000E+00 -0.11171481176E+03  0.11171481176E+03  0.00000000000E+00 0.  1.
         25    1    1    2    0    0  0.94529272124E+02 -0.10080189633E+03  0.54842392274E+02  0.19424081338E+03  0.12500000000E+03 0.  0.
         25    1    1    2    0    0 -0.39383014264E+02  0.78096414499E+02  0.23608725831E+03  0.28109120460E+03  0.12500000000E+03 0.  0.
         25    1    1    2    0    0 -0.55146257860E+02  0.22705481827E+02  0.22623319818E+03  0.26526045431E+03  0.12500000000E+03 0.  0.
</event>
<event>
 5    0  0.5778875E-005  0.5069309E+03  0.7546771E-02  0.1011986E+00
         21   -1    0    0  502  501  0.00000000000E+00  0.00000000000E+00  0.71687293858E+03  0.71687293858E+03  0.00000000000E+00 0. -1.
         21   -1    0    0  501  502 -0.00000000000E+00 -0.00000000000E+00 -0.35847207960E+03  0.35847207960E+03  0.00000000000E+00 0. -1.
         25    1    1    2    0    0  0.68832045052E+02  0.88535923331E+02  0.95509526820E+02  0.19319298605E+03  0.12500000000E+03 0.  0.
         25    1    1    2    0    0  0.71889199919E+02 -0.29136805344E+03 -0.17115911929E+03  0.36740147488E+03  0.12500000000E+03 0.  0.
         25    1    1    2    0    0 -0.14072124497E+03  0.20283213011E+03  0.43405045145E+03  0.51475055725E+03  0.12500000000E+03 0.  0.
</event>
<event>
 5    0  0.6485840E-005  0.2786650E+03  0.7546771E-02  0.1096420E+00
         21   -1    0    0  502  501  0.00000000000E+00  0.00000000000E+00  0.42185244749E+03  0.42185244749E+03  0.00000000000E+00 0. -1.
         21   -1    0    0  501  502 -0.00000000000E+00 -0.00000000000E+00 -0.18407895449E+03  0.18407895449E+03  0.00000000000E+00 0. -1.
         25    1    1    2    0    0  0.64219879453E+02  0.41793786589E+02  0.12980374006E+03  0.19581860087E+03  0.12500000000E+03 0.  0.
         25    1    1    2    0    0 -0.21433771979E+02 -0.14987562392E+03 -0.19173818340E+02  0.19726820458E+03  0.12500000000E+03 0.  0.
         25    1    1    2    0    0 -0.42786107474E+02  0.10808183734E+03  0.12714357128E+03  0.21284459653E+03  0.12500000000E+03 0.  0.
</event>
<event>
 5    0  0.5778875E-005  0.2356737E+03  0.7546771E-02  0.1122709E+00
         21   -1    0    0  502  501  0.00000000000E+00  0.00000000000E+00  0.28679678075E+03  0.28679678075E+03  0.00000000000E+00 0.  1.
         21   -1    0    0  501  502 -0.00000000000E+00 -0.00000000000E+00 -0.19366365779E+03  0.19366365779E+03  0.00000000000E+00 0.  1.
         25    1    1    2    0    0  0.36535213098E+02  0.68191342289E+02 -0.64871368380E+02  0.16068035161E+03  0.12500000000E+03 0.  0.
         25    1    1    2    0    0  0.19397984054E+02 -0.59721003497E+02  0.92808994639E+02  0.16787313522E+03  0.12500000000E+03 0.  0.
         25    1    1    2    0    0 -0.55933197151E+02 -0.84703387924E+01  0.65195496704E+02  0.15190695170E+03  0.12500000000E+03 0.  0.
</event>
<event>
 5    0  0.5778875E-005  0.2302943E+03  0.7546771E-02  0.1126433E+00
         21   -1    0    0  502  501  0.00000000000E+00  0.00000000000E+00  0.54507073400E+03  0.54507073400E+03  0.00000000000E+00 0.  1.
         21   -1    0    0  501  502 -0.00000000000E+00 -0.00000000000E+00 -0.97300162512E+02  0.97300162512E+02  0.00000000000E+00 0.  1.
         25    1    1    2    0    0  0.23952867437E+02  0.41649727690E+02  0.38057316684E+02  0.13921852976E+03  0.12500000000E+03 0.  0.
         25    1    1    2    0    0  0.11385250293E+02 -0.88824324719E+02  0.20954152324E+03  0.25990774238E+03  0.12500000000E+03 0.  0.
         25    1    1    2    0    0 -0.35338117730E+02  0.47174597029E+02  0.20017173156E+03  0.24324462437E+03  0.12500000000E+03 0.  0.
</event>
<event>
 5    0  0.5778875E-005  0.3035786E+03  0.7546771E-02  0.1083465E+00
         21   -1    0    0  502  501  0.00000000000E+00  0.00000000000E+00  0.41710244310E+03  0.41710244310E+03  0.00000000000E+00 0.  1.
         21   -1    0    0  501  502 -0.00000000000E+00 -0.00000000000E+00 -0.22095279174E+03  0.22095279174E+03  0.00000000000E+00 0.  1.
         25    1    1    2    0    0 -0.84805357921E+02 -0.14059830933E+02  0.58913635659E+02  0.16274349156E+03  0.12500000000E+03 0.  0.
         25    1    1    2    0    0 -0.10178525581E+03  0.24472404315E+02  0.18381295476E+03  0.24570579809E+03  0.12500000000E+03 0.  0.
         25    1    1    2    0    0  0.18659061373E+03 -0.10412573381E+02 -0.46576939067E+02  0.22960594520E+03  0.12500000000E+03 0.  0.
</event>
<event>
 5    0  0.5778875E-005  0.3399511E+03  0.7546771E-02  0.1066817E+00
         21   -1    0    0  502  501  0.00000000000E+00  0.00000000000E+00  0.43151272636E+03  0.43151272636E+03  0.00000000000E+00 0.  1.
         21   -1    0    0  501  502 -0.00000000000E+00 -0.00000000000E+00 -0.26781775880E+03  0.26781775880E+03  0.00000000000E+00 0.  1.
         25    1    1    2    0    0 -0.81082899668E+02 -0.46286460426E+02  0.14563989142E+03  0.21343113880E+03  0.12500000000E+03 0.  0.
         25    1    1    2    0    0 -0.12997584566E+03  0.37755596365E+01 -0.10445794466E+03  0.20843329271E+03  0.12500000000E+03 0.  0.
         25    1    1    2    0    0  0.21105874533E+03  0.42510900789E+02  0.12251302080E+03  0.27746605366E+03  0.12500000000E+03 0.  0.
</event>
<event>
 5    0  0.5778875E-005  0.3289761E+03  0.7546771E-02  0.1071591E+00
         21   -1    0    0  502  501  0.00000000000E+00  0.00000000000E+00  0.33408000450E+03  0.33408000450E+03  0.00000000000E+00 0.  1.
         21   -1    0    0  501  502 -0.00000000000E+00 -0.00000000000E+00 -0.32395020448E+03  0.32395020448E+03  0.00000000000E+00 0.  1.
         25    1    1    2    0    0  0.23134415321E+03  0.48326140492E+02 -0.20596405886E+02  0.26815060137E+03  0.12500000000E+03 0.  0.
         25    1    1    2    0    0 -0.20699613148E+03 -0.84256351464E+02  0.27223274945E+02  0.25751240340E+03  0.12500000000E+03 0.  0.
         25    1    1    2    0    0 -0.24348021733E+02  0.35930210973E+02  0.35029309654E+01  0.13236720420E+03  0.12500000000E+03 0.  0.
</event>
<event>
 5    0  0.5778875E-005  0.2916155E+03  0.7546771E-02  0.1089509E+00
         21   -1    0    0  502  501  0.00000000000E+00  0.00000000000E+00  0.56041922596E+03  0.56041922596E+03  0.00000000000E+00 0. -1.
         21   -1    0    0  501  502 -0.00000000000E+00 -0.00000000000E+00 -0.15174278719E+03  0.15174278719E+03  0.00000000000E+00 0. -1.
         25    1    1    2    0    0 -0.72374835971E+02 -0.97756328727E+02 -0.24359855689E+02  0.17610456910E+03  0.12500000000E+03 0.  0.
         25    1    1    2    0    0  0.31787155499E+02 -0.21893194148E+02  0.12804069730E+03  0.18305506104E+03  0.12500000000E+03 0.  0.
         25    1    1    2    0    0  0.40587680472E+02  0.11964952287E+03  0.30499559716E+03  0.35300238302E+03  0.12500000000E+03 0.  0.
</event>
<event>
 5    0  0.5778875E-005  0.3051202E+03  0.7546771E-02  0.1082709E+00
         21   -1    0    0  502  501  0.00000000000E+00  0.00000000000E+00  0.11193980364E+03  0.11193980364E+03  0.00000000000E+00 0. -1.
         21   -1    0    0  501  502 -0.00000000000E+00 -0.00000000000E+00 -0.83168213636E+03  0.83168213636E+03  0.00000000000E+00 0. -1.
         25    1    1    2    0    0 -0.65959591072E+02  0.10845034762E+03 -0.31887983886E+03  0.36526907504E+03  0.12500000000E+03 0.  0.
         25    1    1    2    0    0  0.16847730940E+02  0.10539845445E+03 -0.15763923280E+03  0.22774505034E+03  0.12500000000E+03 0.  0.
         25    1    1    2    0    0  0.49111860132E+02 -0.21384880207E+03 -0.24322326106E+03  0.35060781462E+03  0.12500000000E+03 0.  0.
</event>
<event>
 5    0  0.5778875E-005  0.2776047E+03  0.7546771E-02  0.1097004E+00
         21   -1    0    0  502  501  0.00000000000E+00  0.00000000000E+00  0.10078077179E+04  0.10078077179E+04  0.00000000000E+00 0.  1.
         21   -1    0    0  501  502 -0.00000000000E+00 -0.00000000000E+00 -0.76467352884E+02  0.76467352884E+02  0.00000000000E+00 0.  1.
         25    1    1    2    0    0  0.56051576362E+02  0.50092092874E+02  0.48595756788E+03  0.50737634430E+03  0.12500000000E+03 0.  0.
         25    1    1    2    0    0 -0.22106524916E+02  0.48567870383E+02  0.37618095391E+03  0.39998080775E+03  0.12500000000E+03 0.  0.
         25    1    1    2    0    0 -0.33945051446E+02 -0.98659963257E+02  0.69201843244E+02  0.17691791875E+03  0.12500000000E+03 0.  0.
</event>
<event>
 5    0  0.5778875E-005  0.4824838E+03  0.7546771E-02  0.1018455E+00
         21   -1    0    0  502  501  0.00000000000E+00  0.00000000000E+00  0.84742416878E+03  0.84742416878E+03  0.00000000000E+00 0. -1.
         21   -1    0    0  501  502 -0.00000000000E+00 -0.00000000000E+00 -0.27470376226E+03  0.27470376226E+03  0.00000000000E+00 0. -1.
         25    1    1    2    0    0  0.27508958184E+03  0.20534335083E+03  0.52055572819E+03  0.63595867469E+03  0.12500000000E+03 0.  0.
         25    1    1    2    0    0 -0.16743057960E+03 -0.23201080489E+03  0.63693412803E+02  0.31865947876E+03  0.12500000000E+03 0.  0.
         25    1    1    2    0    0 -0.10765900223E+03  0.26667454060E+02 -0.11528734471E+02  0.16750977759E+03  0.12500000000E+03 0.  0.
</event>
<event>
 5    0  0.5778875E-005  0.2640584E+03  0.7546771E-02  0.1104729E+00
         21   -1    0    0  502  501  0.00000000000E+00  0.00000000000E+00  0.23381370423E+03  0.23381370423E+03  0.00000000000E+00 0.  1.
         21   -1    0    0  501  502 -0.00000000000E+00 -0.00000000000E+00 -0.29821528889E+03  0.29821528889E+03  0.00000000000E+00 0.  1.
         25    1    1    2    0    0 -0.12107039605E+03  0.92646607485E+02  0.25476473314E+01  0.19716217991E+03  0.12500000000E+03 0.  0.
         25    1    1    2    0    0  0.89844823816E+02  0.21411215742E+02 -0.21568247195E+02  0.15690991624E+03  0.12500000000E+03 0.  0.
         25    1    1    2    0    0  0.31225572238E+02 -0.11405782323E+03 -0.45380984790E+02  0.17795689698E+03  0.12500000000E+03 0.  0.
</event>
<event>
 5    0  0.5778875E-005  0.3642531E+03  0.7546771E-02  0.1056912E+00
         21   -1    0    0  502  501  0.00000000000E+00  0.00000000000E+00  0.17736919210E+04  0.17736919210E+04  0.00000000000E+00 0.  1.
         21   -1    0    0  501  502 -0.00000000000E+00 -0.00000000000E+00 -0.74804588214E+02  0.74804588214E+02  0.00000000000E+00 0.  1.
         25    1    1    2    0    0  0.12901374327E+03 -0.96982271740E+02  0.19898571503E+03  0.28507967618E+03  0.12500000000E+03 0.  0.
         25    1    1    2    0    0 -0.20216949546E+03 -0.39736014458E+02  0.87160889942E+03  0.90431107993E+03  0.12500000000E+03 0.  0.
         25    1    1    2    0    0  0.73155752195E+02  0.13671828620E+03  0.62829271831E+03  0.65910575308E+03  0.12500000000E+03 0.  0.
</event>
<event>
 5    0  0.5778875E-005  0.3618355E+03  0.7546771E-02  0.1057859E+00
         21   -1    0    0  502  501  0.00000000000E+00  0.00000000000E+00  0.80653716817E+03  0.80653716817E+03  0.00000000000E+00 0.  1.
         21   -1    0    0  501  502 -0.00000000000E+00 -0.00000000000E+00 -0.16232972775E+03  0.16232972775E+03  0.00000000000E+00 0.  1.
         25    1    1    2    0    0  0.14883402451E+03  0.17640749245E+02  0.41683483715E+03  0.46025975747E+03  0.12500000000E+03 0.  0.
         25    1    1    2    0    0 -0.22044805888E+03  0.29647103095E+02  0.25908837528E+02  0.25646162529E+03  0.12500000000E+03 0.  0.
         25    1    1    2    0    0  0.71614034369E+02 -0.47287852340E+02  0.20146376575E+03  0.25214551316E+03  0.12500000000E+03 0.  0.
</event>
<event>
 5    0  0.5778875E-005  0.2139257E+03  0.7546771E-02  0.1138494E+00
         21   -1    0    0  502  501  0.00000000000E+00  0.00000000000E+00  0.14611020308E+04  0.14611020308E+04  0.00000000000E+00 0.  1.
         21   -1    0    0  501  502 -0.00000000000E+00 -0.00000000000E+00 -0.31321701694E+02  0.31321701694E+02  0.00000000000E+00 0.  1.
         25    1    1    2    0    0 -0.10818569030E+02  0.46194226399E+02  0.37162328396E+03  0.39494279734E+03  0.12500000000E+03 0.  0.
         25    1    1    2    0    0  0.43362677357E+02  0.34536586336E+02  0.56647567729E+03  0.58274590564E+03  0.12500000000E+03 0.  0.
         25    1    1    2    0    0 -0.32544108327E+02 -0.80730812735E+02  0.49168136791E+03  0.51473502956E+03  0.12500000000E+03 0.  0.
</event>
<event>
 5    0  0.5778875E-005  0.2079789E+03  0.7546771E-02  0.1143177E+00
         21   -1    0    0  502  501  0.00000000000E+00  0.00000000000E+00  0.12636184889E+03  0.12636184889E+03  0.00000000000E+00 0. -1.
         21   -1    0    0  501  502 -0.00000000000E+00 -0.00000000000E+00 -0.34231231115E+03  0.34231231115E+03  0.00000000000E+00 0. -1.
         25    1    1    2    0    0 -0.30304261516E+02  0.52246919937E+02 -0.33415777820E+02  0.14279251772E+03  0.12500000000E+03 0.  0.
         25    1    1    2    0    0  0.48088245921E+02 -0.26862177241E+02 -0.63991841445E+02  0.15084432947E+03  0.12500000000E+03 0.  0.
         25    1    1    2    0    0 -0.17783984405E+02 -0.25384742696E+02 -0.11854284300E+03  0.17503731285E+03  0.12500000000E+03 0.  0.
</event>
<event>
 5    0  0.5778875E-005  0.2710166E+03  0.7546771E-02  0.1100699E+00
         21   -1    0    0  502  501  0.00000000000E+00  0.00000000000E+00  0.10195581815E+03  0.10195581815E+03  0.00000000000E+00 0.  1.
         21   -1    0    0  501  502 -0.00000000000E+00 -0.00000000000E+00 -0.72041014795E+03  0.72041014795E+03  0.00000000000E+00 0.  1.
         25    1    1    2    0    0 -0.38320573111E+02  0.15042735114E+03 -0.16727360311E+03  0.26019668059E+03  0.12500000000E+03 0.  0.
         25    1    1    2    0    0  0.36309613665E+02 -0.10581422748E+03 -0.37082699487E+03  0.40700454408E+03  0.12500000000E+03 0.  0.
         25    1    1    2    0    0  0.20109594454E+01 -0.44613123663E+02 -0.80353731829E+02  0.15516474142E+03  0.12500000000E+03 0.  0.
</event>
<event>
 5    0  0.5778875E-005  0.2056116E+03  0.7546771E-02  0.1145089E+00
         21   -1    0    0  502  501  0.00000000000E+00  0.00000000000E+00  0.26309415139E+03  0.26309415139E+03  0.00000000000E+00 0. -1.
         21   -1    0    0  501  502 -0.00000000000E+00 -0.00000000000E+00 -0.16068815478E+03  0.16068815478E+03  0.00000000000E+00 0. -1.
         25    1    1    2    0    0  0.53444837658E+02  0.37674533313E+02  0.22523697852E+02  0.14285670477E+03  0.12500000000E+03 0.  0.
         25    1    1    2    0    0 -0.46808535833E+02 -0.51093939174E+02  0.51116096967E+02  0.15178763130E+03  0.12500000000E+03 0.  0.
         25    1    1    2    0    0 -0.66363018248E+01  0.13419405862E+02  0.28766201784E+02  0.12913797010E+03  0.12500000000E+03 0.  0.
</event>
<event>
 5    0  0.5778875E-005  0.3225330E+03  0.7546771E-02  0.1074489E+00
         21   -1    0    0  502  501  0.00000000000E+00  0.00000000000E+00  0.26496092752E+03  0.26496092752E+03  0.00000000000E+00 0. -1.
         21   -1    0    0  501  502 -0.00000000000E+00 -0.00000000000E+00 -0.39261466497E+03  0.39261466497E+03  0.00000000000E+00 0. -1.
         25    1    1    2    0    0  0.68688874420E+02 -0.57320446595E+02 -0.29409015697E+03  0.33184004504E+03  0.12500000000E+03 0.  0.
         25    1    1    2    0    0 -0.17831542612E+02  0.56280902895E+02  0.48472563797E+02  0.14649263935E+03  0.12500000000E+03 0.  0.
         25    1    1    2    0    0 -0.50857331807E+02  0.10395437007E+01  0.11796385572E+03  0.17924290811E+03  0.12500000000E+03 0.  0.
</event>
<event>
 5    0  0.5778875E-005  0.6106503E+03  0.7546771E-02  0.9883553E-01
         21   -1    0    0  502  501  0.00000000000E+00  0.00000000000E+00  0.18886509190E+04  0.18886509190E+04  0.00000000000E+00 0. -1.
         21   -1    0    0  501  502 -0.00000000000E+00 -0.00000000000E+00 -0.19743921283E+03  0.19743921283E+03  0.00000000000E+00 0. -1.
         25    1    1    2    0    0 -0.22390435159E+03  0.13967399989E+03  0.38367089452E+03  0.48215178130E+03  0.12500000000E+03 0.  0.
         25    1    1    2    0    0 -0.29353539226E+03  0.69310816465E+02  0.68362275839E+03  0.75758305919E+03  0.12500000000E+03 0.  0.
         25    1    1    2    0    0  0.51743974385E+03 -0.20898481635E+03  0.62391805328E+03  0.84635529135E+03  0.12500000000E+03 0.  0.
</event>
<event>
 5    0  0.5778875E-005  0.3179211E+03  0.7546771E-02  0.1076610E+00
         21   -1    0    0  502  501  0.00000000000E+00  0.00000000000E+00  0.46483373822E+02  0.46483373822E+02  0.00000000000E+00 0. -1.
         21   -1    0    0  501  502 -0.00000000000E+00 -0.00000000000E+00 -0.21744074436E+04  0.21744074436E+04  0.00000000000E+00 0. -1.
         25    1    1    2    0    0 -0.12831712103E+03  0.10591137733E+03 -0.63263035950E+03  0.66597948554E+03  0.12500000000E+03 0.  0.
         25    1    1    2    0    0  0.33524837927E+02  0.68606102917E+01 -0.16089871540E+03  0.20660198293E+03  0.12500000000E+03 0.  0.
         25    1    1    2    0    0  0.94792283107E+02 -0.11277198762E+03 -0.13343949949E+04  0.13483093490E+04  0.12500000000E+03 0.  0.
</event>
<event>
 5    0  0.5778875E-005  0.2918281E+03  0.7546771E-02  0.1089398E+00
         21   -1    0    0  502  501  0.00000000000E+00  0.00000000000E+00  0.97918088073E+02  0.97918088073E+02  0.00000000000E+00 0. -1.
         21   -1    0    0  501  502 -0.00000000000E+00 -0.00000000000E+00 -0.86974393630E+03  0.86974393630E+03  0.00000000000E+00 0. -1.
         25    1    1    2    0    0 -0.69663704123E+02 -0.49001868069E+02 -0.50936414196E+03  0.53134832630E+03  0.12500000000E+03 0.  0.
         25    1    1    2    0    0 -0.26079235644E+02 -0.34216247028E+02 -0.21435002225E+03  0.25183687206E+03  0.12500000000E+03 0.  0.
         25    1    1    2    0    0  0.95742939767E+02  0.83218115098E+02 -0.48111684018E+02  0.18447682601E+03  0.12500000000E+03 0.  0.
</event>
<event>
 5    0  0.5778875E-005  0.2445175E+03  0.7546771E-02  0.1116819E+00
         21   -1    0    0  502  501  0.00000000000E+00  0.00000000000E+00  0.65311410467E+03  0.65311410467E+03  0.00000000000E+00 0.  1.
         21   -1    0    0  501  502 -0.00000000000E+00 -0.00000000000E+00 -0.91544218512E+02  0.91544218512E+02  0.00000000000E+00 0.  1.
         25    1    1    2    0    0 -0.37723154943E+02  0.34406669336E+02  0.40204587953E+03  0.42411407022E+03  0.12500000000E+03 0.  0.
         25    1    1    2    0    0  0.37969467839E+02 -0.23949033325E+02  0.22383251263E+02  0.13468944510E+03  0.12500000000E+03 0.  0.
         25    1    1    2    0    0 -0.24631289531E+00 -0.10457636011E+02  0.13714075537E+03  0.18585480786E+03  0.12500000000E+03 0.  0.
</event>
<event>
 5    0  0.5778875E-005  0.3049263E+03  0.7546771E-02  0.1082804E+00
         21   -1    0    0  502  501  0.00000000000E+00  0.00000000000E+00  0.32968190013E+03  0.32968190013E+03  0.00000000000E+00 0. -1.
         21   -1    0    0  501  502 -0.00000000000E+00 -0.00000000000E+00 -0.28202954657E+03  0.28202954657E+03  0.00000000000E+00 0. -1.
         25    1    1    2    0    0  0.61609155040E+02  0.55685255271E+02  0.20211885685E+03  0.25174107320E+03  0.12500000000E+03 0.  0.
         25    1    1    2    0    0 -0.58525548789E+02  0.35265932678E+02 -0.14888434488E+01  0.14246453076E+03  0.12500000000E+03 0.  0.
         25    1    1    2    0    0 -0.30836062512E+01 -0.90951187949E+02 -0.15297765985E+03  0.21750584275E+03  0.12500000000E+03 0.  0.
</event>
<event>
 5    0  0.5778875E-005  0.3630475E+03  0.7546771E-02  0.1057384E+00
         21   -1    0    0  502  501  0.00000000000E+00  0.00000000000E+00  0.96107338280E+02  0.96107338280E+02  0.00000000000E+00 0. -1.
         21   -1    0    0  501  502 -0.00000000000E+00 -0.00000000000E+00 -0.13714192667E+04  0.13714192667E+04  0.00000000000E+00 0. -1.
         25    1    1    2    0    0 -0.18726358803E+03  0.17411260129E+03 -0.37080161453E+03  0.46744163986E+03  0.12500000000E+03 0.  0.
         25    1    1    2    0    0  0.19483078304E+03 -0.11484389193E+03 -0.39454172703E+03  0.47163155948E+03  0.12500000000E+03 0.  0.
         25    1    1    2    0    0 -0.75671950012E+01 -0.59268709367E+02 -0.50996858683E+03  0.52845340561E+03  0.12500000000E+03 0.  0.
</event>
<event>
 5    0  0.5778875E-005  0.3029144E+03  0.7546771E-02  0.1083793E+00
         21   -1    0    0  502  501  0.00000000000E+00  0.00000000000E+00  0.31115029743E+03  0.31115029743E+03  0.00000000000E+00 0. -1.
         21   -1    0    0  501  502 -0.00000000000E+00 -0.00000000000E+00 -0.29489646815E+03  0.29489646815E+03  0.00000000000E+00 0. -1.
         25    1    1    2    0    0 -0.38490914614E+02 -0.98614182441E+02 -0.10498704872E+03  0.19455998531E+03  0.12500000000E+03 0.  0.
         25    1    1    2    0    0  0.10095612369E+03  0.11138314425E+03 -0.38080676275E+02  0.19918203141E+03  0.12500000000E+03 0.  0.
         25    1    1    2    0    0 -0.62465209074E+02 -0.12768961807E+02  0.15932155427E+03  0.21230474886E+03  0.12500000000E+03 0.  0.
</event>
<event>
 5    0  0.5778875E-005  0.2721785E+03  0.7546771E-02  0.1100039E+00
         21   -1    0    0  502  501  0.00000000000E+00  0.00000000000E+00  0.20188379480E+03  0.20188379480E+03  0.00000000000E+00 0. -1.
         21   -1    0    0  501  502 -0.00000000000E+00 -0.00000000000E+00 -0.36694936850E+03  0.36694936850E+03  0.00000000000E+00 0. -1.
         25    1    1    2    0    0  0.10954237419E+03  0.16237532547E+01 -0.18457477594E+03  0.24838481482E+03  0.12500000000E+03 0.  0.
         25    1    1    2    0    0 -0.58271187142E+01 -0.59455997434E+02  0.46068963045E+02  0.14600109691E+03  0.12500000000E+03 0.  0.
         25    1    1    2    0    0 -0.10371525548E+03  0.57832244180E+02 -0.26559760805E+02  0.17444725157E+03  0.12500000000E+03 0.  0.
</event>
<event>
 5    0  0.7461852E-005  0.3233819E+03  0.7546771E-02  0.1074103E+00
         21   -1    0    0  502  501  0.00000000000E+00  0.00000000000E+00  0.30660697547E+03  0.30660697547E+03  0.00000000000E+00 0.  1.
         21   -1    0    0  501  502 -0.00000000000E+00 -0.00000000000E+00 -0.34107466782E+03  0.34107466782E+03  0.00000000000E+00 0.  1.
         25    1    1    2    0    0 -0.14052444413E+03  0.90356623281E+02  0.37498108259E+02  0.21199657283E+03  0.12500000000E+03 0.  0.
         25    1    1    2    0    0  0.10738650421E+03 -0.18162712370E+03  0.30494442542E+02  0.24713394015E+03  0.12500000000E+03 0.  0.
         25    1    1    2    0    0  0.33137939924E+02  0.91270500422E+02 -0.10246024315E+03  0.18855113030E+03  0.12500000000E+03 0.  0.
</event>
<event>
 5    0  0.5778875E-005  0.2336845E+03  0.7546771E-02  0.1124073E+00
         21   -1    0    0  502  501  0.00000000000E+00  0.00000000000E+00  0.44067307521E+03  0.44067307521E+03  0.00000000000E+00 0. -1.
         21   -1    0    0  501  502 -0.00000000000E+00 -0.00000000000E+00 -0.12392049606E+03  0.12392049606E+03  0.00000000000E+00 0. -1.
         25    1    1    2    0    0  0.61107861446E+02  0.76183641589E+02  0.10558586409E+03  0.19055574689E+03  0.12500000000E+03 0.  0.
         25    1    1    2    0    0 -0.30967526706E+02 -0.96467200093E+02  0.17751480703E+03  0.23958592429E+03  0.12500000000E+03 0.  0.
         25    1    1    2    0    0 -0.30140334740E+02  0.20283558505E+02  0.33651908025E+02  0.13445190009E+03  0.12500000000E+03 0.  0.
</event>
<event>
 5    0  0.5778875E-005  0.3213639E+03  0.7546771E-02  0.1075023E+00
         21   -1    0    0  502  501  0.00000000000E+00  0.00000000000E+00  0.46382406495E+02  0.46382406495E+02  0.00000000000E+00 0. -1.
         21   -1    0    0  501  502 -0.00000000000E+00 -0.00000000000E+00 -0.22265927247E+04  0.22265927247E+04  0.00000000000E+00 0. -1.
         25    1    1    2    0    0  0.15039414508E+03  0.66993502869E+02 -0.79362234839E+03  0.82010240834E+03  0.12500000000E+03 0.  0.
         25    1    1    2    0    0 -0.12587886866E+03  0.95767989981E+02 -0.44002816006E+03  0.48401113533E+03  0.12500000000E+03 0.  0.
         25    1    1    2    0    0 -0.24515276420E+02 -0.16276149285E+03 -0.94655980979E+03  0.96886158756E+03  0.12500000000E+03 0.  0.
</event>
<event>
 5    0  0.5778875E-005  0.3166250E+03  0.7546771E-02  0.1077213E+00
         21   -1    0    0  502  501  0.00000000000E+00  0.00000000000E+00  0.14710825648E+04  0.14710825648E+04  0.00000000000E+00 0.  1.
         21   -1    0    0  501  502 -0.00000000000E+00 -0.00000000000E+00 -0.68148058673E+02  0.68148058673E+02  0.00000000000E+00 0.  1.
         25    1    1    2    0    0 -0.30434690196E+02  0.34946887997E+02  0.99588974347E+03  0.10047730771E+04  0.12500000000E+03 0.  0.
         25    1    1    2    0    0  0.10811070502E+02  0.43009627483E+02  0.35168380830E+03  0.37586328408E+03  0.12500000000E+03 0.  0.
         25    1    1    2    0    0  0.19623619693E+02 -0.77956515480E+02  0.55360954342E+02  0.15859426226E+03  0.12500000000E+03 0.  0.
</event>
<event>
 5    0  0.5778875E-005  0.2740716E+03  0.7546771E-02  0.1098972E+00
         21   -1    0    0  502  501  0.00000000000E+00  0.00000000000E+00  0.10200657703E+04  0.10200657703E+04  0.00000000000E+00 0.  1.
         21   -1    0    0  501  502 -0.00000000000E+00 -0.00000000000E+00 -0.73637626214E+02  0.73637626214E+02  0.00000000000E+00 0.  1.
         25    1    1    2    0    0 -0.10941221576E+03  0.13454106247E+02  0.91646901421E+02  0.19020042185E+03  0.12500000000E+03 0.  0.
         25    1    1    2    0    0  0.55049186452E+02  0.33266600687E+02  0.52739494237E+03  0.54580903702E+03  0.12500000000E+03 0.  0.
         25    1    1    2    0    0  0.54363029305E+02 -0.46720706934E+02  0.32738630033E+03  0.35769393769E+03  0.12500000000E+03 0.  0.
</event>
<event>
 5    0  0.5778875E-005  0.2071404E+03  0.7546771E-02  0.1143851E+00
         21   -1    0    0  502  501  0.00000000000E+00  0.00000000000E+00  0.61336344820E+03  0.61336344820E+03  0.00000000000E+00 0.  1.
         21   -1    0    0  501  502 -0.00000000000E+00 -0.00000000000E+00 -0.69953874368E+02  0.69953874368E+02  0.00000000000E+00 0.  1.
         25    1    1    2    0    0  0.19576680484E+02 -0.15235342755E+02  0.19367632845E+03  0.23184236518E+03  0.12500000000E+03 0.  0.
         25    1    1    2    0    0  0.38531330551E+02 -0.23278094798E+02  0.22657644253E+03  0.26265646278E+03  0.12500000000E+03 0.  0.
         25    1    1    2    0    0 -0.58108011036E+02  0.38513437552E+02  0.12315680285E+03  0.18881849461E+03  0.12500000000E+03 0.  0.
</event>
<event>
 5    0  0.5778875E-005  0.2732245E+03  0.7546771E-02  0.1099448E+00
         21   -1    0    0  502  501  0.00000000000E+00  0.00000000000E+00  0.95604671967E+02  0.95604671967E+02  0.00000000000E+00 0.  1.
         21   -1    0    0  501  502 -0.00000000000E+00 -0.00000000000E+00 -0.78083654698E+03  0.78083654698E+03  0.00000000000E+00 0.  1.
         25    1    1    2    0    0  0.56749920422E+02 -0.59088410757E+02 -0.54375148983E+03  0.56391726028E+03  0.12500000000E+03 0.  0.
         25    1    1    2    0    0 -0.46986823688E+01  0.43362296076E+02 -0.11117984560E+03  0.17288240051E+03  0.12500000000E+03 0.  0.
         25    1    1    2    0    0 -0.52051238053E+02  0.15726114680E+02 -0.30300539583E+02  0.13964155816E+03  0.12500000000E+03 0.  0.
</event>
<event>
 5    0  0.5808770E-005  0.4957493E+03  0.7546771E-02  0.1014894E+00
         21   -1    0    0  502  501  0.00000000000E+00  0.00000000000E+00  0.20828073305E+03  0.20828073305E+03  0.00000000000E+00 0. -1.
         21   -1    0    0  501  502 -0.00000000000E+00 -0.00000000000E+00 -0.11799811891E+04  0.11799811891E+04  0.00000000000E+00 0. -1.
         25    1    1    2    0    0 -0.20926141819E+03  0.12506109775E+02 -0.47877074045E+02  0.24872466332E+03  0.12500000000E+03 0.  0.
         25    1    1    2    0    0  0.21122318887E+03 -0.27255801936E+03 -0.62121958220E+03  0.72141657781E+03  0.12500000000E+03 0.  0.
         25    1    1    2    0    0 -0.19617706758E+01  0.26005190959E+03 -0.30260379979E+03  0.41812068099E+03  0.12500000000E+03 0.  0.
</event>
<event>
 5    0  0.5778875E-005  0.4594305E+03  0.7546771E-02  0.1024947E+00
         21   -1    0    0  502  501  0.00000000000E+00  0.00000000000E+00  0.34321126744E+03  0.34321126744E+03  0.00000000000E+00 0. -1.
         21   -1    0    0  501  502 -0.00000000000E+00 -0.00000000000E+00 -0.61500435452E+03  0.61500435452E+03  0.00000000000E+00 0. -1.
         25    1    1    2    0    0  0.29088284141E+03  0.11508750945E+03 -0.40363521736E+03  0.52574171506E+03  0.12500000000E+03 0.  0.
         25    1    1    2    0    0 -0.10386173229E+03 -0.21091230442E+02  0.83508731762E+02  0.18393152997E+03  0.12500000000E+03 0.  0.
         25    1    1    2    0    0 -0.18702110911E+03 -0.93996279009E+02  0.48333398518E+02  0.24854237694E+03  0.12500000000E+03 0.  0.
</event>
<event>
 5    0  0.5778875E-005  0.3851154E+03  0.7546771E-02  0.1049059E+00
         21   -1    0    0  502  501  0.00000000000E+00  0.00000000000E+00  0.27436507538E+03  0.27436507538E+03  0.00000000000E+00 0. -1.
         21   -1    0    0  501  502 -0.00000000000E+00 -0.00000000000E+00 -0.54057114485E+03  0.54057114485E+03  0.00000000000E+00 0. -1.
         25    1    1    2    0    0  0.25212647817E+03 -0.86531949965E+02 -0.39300191469E+02  0.29702700956E+03  0.12500000000E+03 0.  0.
         25    1    1    2    0    0 -0.19299207353E+03  0.16779310908E+03 -0.21566840126E+03  0.35712508622E+03  0.12500000000E+03 0.  0.
         25    1    1    2    0    0 -0.59134404632E+02 -0.81261159119E+02 -0.11237476737E+02  0.16078412445E+03  0.12500000000E+03 0.  0.
</event>
<event>
 5    0  0.5778875E-005  0.2531972E+03  0.7546771E-02  0.1111301E+00
         21   -1    0    0  502  501  0.00000000000E+00  0.00000000000E+00  0.60893610434E+02  0.60893610434E+02  0.00000000000E+00 0.  1.
         21   -1    0    0  501  502 -0.00000000000E+00 -0.00000000000E+00 -0.10528008563E+04  0.10528008563E+04  0.00000000000E+00 0.  1.
         25    1    1    2    0    0 -0.87607061286E+02 -0.73759290938E+01 -0.16118633385E+03  0.22211581605E+03  0.12500000000E+03 0.  0.
         25    1    1    2    0    0  0.23491686265E+02 -0.13991465232E+02 -0.15458410823E+03  0.20067104161E+03  0.12500000000E+03 0.  0.
         25    1    1    2    0    0  0.64115375021E+02  0.21367394326E+02 -0.67613680383E+03  0.69090760913E+03  0.12500000000E+03 0.  0.
</event>
<event>
 5    0  0.5778875E-005  0.2893943E+03  0.7546771E-02  0.1090666E+00
         21   -1    0    0  502  501  0.00000000000E+00  0.00000000000E+00  0.13173436777E+03  0.13173436777E+03  0.00000000000E+00 0. -1.
         21   -1    0    0  501  502 -0.00000000000E+00 -0.00000000000E+00 -0.63574191128E+03  0.63574191128E+03  0.00000000000E+00 0. -1.
         25    1    1    2    0    0 -0.11331349170E+03 -0.10157909126E+03 -0.13605323845E+03  0.23936111396E+03  0.12500000000E+03 0.  0.
         25    1    1    2    0    0  0.18162152991E+03  0.47541611450E+02 -0.20124396931E+03  0.30227590068E+03  0.12500000000E+03 0.  0.
         25    1    1    2    0    0 -0.68308038207E+02  0.54037479808E+02 -0.16671033575E+03  0.22583926442E+03  0.12500000000E+03 0.  0.
</event>
<event>
 5    0  0.5778875E-005  0.2599561E+03  0.7546771E-02  0.1107170E+00
         21   -1    0    0  502  501  0.00000000000E+00  0.00000000000E+00  0.23858125965E+03  0.23858125965E+03  0.00000000000E+00 0.  1.
         21   -1    0    0  501  502 -0.00000000000E+00 -0.00000000000E+00 -0.28324589662E+03  0.28324589662E+03  0.00000000000E+00 0.  1.
         25    1    1    2    0    0  0.79347861675E+02  0.58777739360E+02  0.68914407068E+02  0.17356584139E+03  0.12500000000E+03 0.  0.
         25    1    1    2    0    0  0.13393694399E+02 -0.45123659265E+02 -0.13575960786E+03  0.19045001129E+03  0.12500000000E+03 0.  0.
         25    1    1    2    0    0 -0.92741556074E+02 -0.13654080095E+02  0.22180563817E+02  0.15781130358E+03  0.12500000000E+03 0.  0.
</event>
<event>
 5    0  0.5778875E-005  0.2839464E+03  0.7546771E-02  0.1093553E+00
         21   -1    0    0  502  501  0.00000000000E+00  0.00000000000E+00  0.61827074148E+02  0.61827074148E+02  0.00000000000E+00 0. -1.
         21   -1    0    0  501  502 -0.00000000000E+00 -0.00000000000E+00 -0.13040492999E+04  0.13040492999E+04  0.00000000000E+00 0. -1.
         25    1    1    2    0    0  0.27851720730E+02  0.19006745138E+02 -0.41878697102E+03  0.43834290436E+03  0.12500000000E+03 0.  0.
         25    1    1    2    0    0  0.13041059103E+03  0.18053057393E+02 -0.19470037519E+03  0.26620682041E+03  0.12500000000E+03 0.  0.
         25    1    1    2    0    0 -0.15826231176E+03 -0.37059802531E+02 -0.62873487956E+03  0.66132664929E+03  0.12500000000E+03 0.  0.
</event>
<event>
 5    0  0.5778875E-005  0.3328293E+03  0.7546771E-02  0.1069892E+00
         21   -1    0    0  502  501  0.00000000000E+00  0.00000000000E+00  0.95338815260E+03  0.95338815260E+03  0.00000000000E+00 0. -1.
         21   -1    0    0  501  502 -0.00000000000E+00 -0.00000000000E+00 -0.11619121278E+03  0.11619121278E+03  0.00000000000E+00 0. -1.
         25    1    1    2    0    0  0.53900369448E+02 -0.10714333613E+03  0.36924515261E+03  0.40786263255E+03  0.12500000000E+03 0.  0.
         25    1    1    2    0    0 -0.16253517087E+03  0.18003236331E+03  0.35748098608E+03  0.44971878882E+03  0.12500000000E+03 0.  0.
         25    1    1    2    0    0  0.10863480142E+03 -0.72889027186E+02  0.11047080113E+03  0.21199794401E+03  0.12500000000E+03 0.  0.
</event>
<event>
 5    0  0.5778875E-005  0.4149358E+03  0.7546771E-02  0.1038727E+00
         21   -1    0    0  502  501  0.00000000000E+00  0.00000000000E+00  0.71398912377E+03  0.71398912377E+03  0.00000000000E+00 0.  1.
         21   -1    0    0  501  502 -0.00000000000E+00 -0.00000000000E+00 -0.24114055309E+03  0.24114055309E+03  0.00000000000E+00 0.  1.
         25    1    1    2    0    0  0.88597304542E+02 -0.69635332677E+02  0.66000915107E+02  0.18077522708E+03  0.12500000000E+03 0.  0.
         25    1    1    2    0    0 -0.18798460856E+03  0.25583620470E+03  0.55249268565E+02  0.34564122781E+03  0.12500000000E+03 0.  0.
         25    1    1    2    0    0  0.99387304015E+02 -0.18620087202E+03  0.35159838701E+03  0.42871322197E+03  0.12500000000E+03 0.  0.
</event>
<event>
 5    0  0.5778875E-005  0.5022698E+03  0.7546771E-02  0.1013188E+00
         21   -1    0    0  502  501  0.00000000000E+00  0.00000000000E+00  0.52927550054E+03  0.52927550054E+03  0.00000000000E+00 0.  1.
         21   -1    0    0  501  502 -0.00000000000E+00 -0.00000000000E+00 -0.47664197336E+03  0.47664197336E+03  0.00000000000E+00 0.  1.
         25    1    1    2    0    0  0.31041730620E+03 -0.10866000235E+02  0.98082951076E+02  0.34888714399E+03  0.12500000000E+03 0.  0.
         25    1    1    2    0    0 -0.21033667040E+02  0.21120907695E+03  0.86246207858E+02  0.26098869268E+03  0.12500000000E+03 0.  0.
         25    1    1    2    0    0 -0.28938363916E+03 -0.20034307672E+03 -0.13169563176E+03  0.39604163724E+03  0.12500000000E+03 0.  0.
</event>
<event>
 5    0  0.5778875E-005  0.4029167E+03  0.7546771E-02  0.1042774E+00
         21   -1    0    0  502  501  0.00000000000E+00  0.00000000000E+00  0.12185639412E+04  0.12185639412E+04  0.00000000000E+00 0. -1.
         21   -1    0    0  501  502 -0.00000000000E+00 -0.00000000000E+00 -0.13322395057E+03  0.13322395057E+03  0.00000000000E+00 0. -1.
         25    1    1    2    0    0 -0.32783506930E+02  0.21551867997E+03  0.23998636476E+03  0.34747879794E+03  0.12500000000E+03 0.  0.
         25    1    1    2    0    0 -0.46175539716E+02 -0.32892108461E+03  0.58293413019E+03  0.68246498849E+03  0.12500000000E+03 0.  0.
         25    1    1    2    0    0  0.78959046647E+02  0.11340240464E+03  0.26241949563E+03  0.32184410529E+03  0.12500000000E+03 0.  0.
</event>
<event>
 5    0  0.5778875E-005  0.4197957E+03  0.7546771E-02  0.1037133E+00
         21   -1    0    0  502  501  0.00000000000E+00  0.00000000000E+00  0.47870646673E+03  0.47870646673E+03  0.00000000000E+00 0. -1.
         21   -1    0    0  501  502 -0.00000000000E+00 -0.00000000000E+00 -0.36813454774E+03  0.36813454774E+03  0.00000000000E+00 0. -1.
         25    1    1    2    0    0  0.23233491560E+02  0.27474239881E+02 -0.98050357050E+02  0.16289107251E+03  0.12500000000E+03 0.  0.
         25    1    1    2    0    0 -0.17025632676E+03 -0.11987628241E+03 -0.13597071897E+03  0.27833536660E+03  0.12500000000E+03 0.  0.
         25    1    1    2    0    0  0.14702283520E+03  0.92402042530E+02  0.34459299500E+03  0.40561457535E+03  0.12500000000E+03 0.  0.
</event>
<event>
 5    0  0.5778875E-005  0.2850118E+03  0.7546771E-02  0.1092983E+00
         21   -1    0    0  502  501  0.00000000000E+00  0.00000000000E+00  0.12089285308E+04  0.12089285308E+04  0.00000000000E+00 0.  1.
         21   -1    0    0  501  502 -0.00000000000E+00 -0.00000000000E+00 -0.67193172829E+02  0.67193172829E+02  0.00000000000E+00 0.  1.
         25    1    1    2    0    0  0.11690243407E+02  0.80930866920E+02  0.46973870013E+03  0.49291572648E+03  0.12500000000E+03 0.  0.
         25    1    1    2    0    0 -0.67752597543E+02  0.10109780186E+03  0.29289970096E+03  0.34091995371E+03  0.12500000000E+03 0.  0.
         25    1    1    2    0    0  0.56062354136E+02 -0.18202866878E+03  0.37909695686E+03  0.44228602342E+03  0.12500000000E+03 0.  0.
</event>
<event>
 5    0  0.5778875E-005  0.3544064E+03  0.7546771E-02  0.1060821E+00
         21   -1    0    0  502  501  0.00000000000E+00  0.00000000000E+00  0.16264318185E+03  0.16264318185E+03  0.00000000000E+00 0.  1.
         21   -1    0    0  501  502 -0.00000000000E+00 -0.00000000000E+00 -0.77226663837E+03  0.77226663837E+03  0.00000000000E+00 0.  1.
         25    1    1    2    0    0 -0.79018446532E+02  0.52812409421E+02 -0.36023912121E+03  0.39297619512E+03  0.12500000000E+03 0.  0.
         25    1    1    2    0    0 -0.79822476701E+02  0.11093103366E+03 -0.53984979493E+01  0.18528752197E+03  0.12500000000E+03 0.  0.
         25    1    1    2    0    0  0.15884092323E+03 -0.16374344308E+03 -0.24398583736E+03  0.35664610314E+03  0.12500000000E+03 0.  0.
</event>
<event>
 5    0  0.5778875E-005  0.2827304E+03  0.7546771E-02  0.1094207E+00
         21   -1    0    0  502  501  0.00000000000E+00  0.00000000000E+00  0.51876714973E+03  0.51876714973E+03  0.00000000000E+00 0. -1.
         21   -1    0    0  501  502 -0.00000000000E+00 -0.00000000000E+00 -0.15408936867E+03  0.15408936867E+03  0.00000000000E+00 0. -1.
         25    1    1    2    0    0  0.70751403557E+02 -0.53004961122E+02  0.13969356218E+03  0.20725486321E+03  0.12500000000E+03 0.  0.
         25    1    1    2    0    0  0.60749891843E+02  0.14772996343E+03  0.10598929471E+03  0.22885240232E+03  0.12500000000E+03 0.  0.
         25    1    1    2    0    0 -0.13150129540E+03 -0.94725002309E+02  0.11899492417E+03  0.23674925287E+03  0.12500000000E+03 0.  0.
</event>
<event>
 5    0  0.5778875E-005  0.3044002E+03  0.7546771E-02  0.1083061E+00
         21   -1    0    0  502  501  0.00000000000E+00  0.00000000000E+00  0.37029604095E+03  0.37029604095E+03  0.00000000000E+00 0.  1.
         21   -1    0    0  501  502 -0.00000000000E+00 -0.00000000000E+00 -0.25023075392E+03  0.25023075392E+03  0.00000000000E+00 0.  1.
         25    1    1    2    0    0 -0.11015480128E+02 -0.11830659986E+03 -0.74401125652E+02  0.18782523758E+03  0.12500000000E+03 0.  0.
         25    1    1    2    0    0 -0.10627818665E+03 -0.20363582215E+02  0.70264829116E+02  0.17964374370E+03  0.12500000000E+03 0.  0.
         25    1    1    2    0    0  0.11729366678E+03  0.13867018207E+03  0.12420158357E+03  0.25305781360E+03  0.12500000000E+03 0.  0.
</event>
<event>
 5    0  0.6057342E-005  0.3895220E+03  0.7546771E-02  0.1047469E+00
         21   -1    0    0  502  501  0.00000000000E+00  0.00000000000E+00  0.50755801435E+03  0.50755801435E+03  0.00000000000E+00 0. -1.
         21   -1    0    0  501  502 -0.00000000000E+00 -0.00000000000E+00 -0.29893601235E+03  0.29893601235E+03  0.00000000000E+00 0. -1.
         25    1    1    2    0    0 -0.16700948232E+02 -0.12647503187E+03  0.17297507567E+03  0.24863674741E+03  0.12500000000E+03 0.  0.
         25    1    1    2    0    0  0.20273009947E+03 -0.92747798971E+00 -0.10935074750E+03  0.26207430134E+03  0.12500000000E+03 0.  0.
         25    1    1    2    0    0 -0.18602915124E+03  0.12740250986E+03  0.14499767382E+03  0.29578297795E+03  0.12500000000E+03 0.  0.
</event>
<event>
 5    0  0.5778875E-005  0.3802248E+03  0.7546771E-02  0.1050851E+00
         21   -1    0    0  502  501  0.00000000000E+00  0.00000000000E+00  0.70721813943E+03  0.70721813943E+03  0.00000000000E+00 0.  1.
         21   -1    0    0  501  502 -0.00000000000E+00 -0.00000000000E+00 -0.20442190179E+03  0.20442190179E+03  0.00000000000E+00 0.  1.
         25    1    1    2    0    0 -0.56308841407E+02 -0.14010058127E+03  0.15381595545E+03  0.24916501890E+03  0.12500000000E+03 0.  0.
         25    1    1    2    0    0  0.22313210297E+02 -0.14575239298E+03  0.22792941855E+00  0.19330465945E+03  0.12500000000E+03 0.  0.
         25    1    1    2    0    0  0.33995631110E+02  0.28585297425E+03  0.34875235277E+03  0.46917036286E+03  0.12500000000E+03 0.  0.
</event>
<event>
 5    0  0.5778875E-005  0.2278604E+03  0.7546771E-02  0.1128155E+00
         21   -1    0    0  502  501  0.00000000000E+00  0.00000000000E+00  0.99616826849E+02  0.99616826849E+02  0.00000000000E+00 0. -1.
         21   -1    0    0  501  502 -0.00000000000E+00 -0.00000000000E+00 -0.52120065223E+03  0.52120065223E+03  0.00000000000E+00 0. -1.
         25    1    1    2    0    0  0.58539377545E+02 -0.20283155572E+02 -0.32530848496E+02  0.14325334630E+03  0.12500000000E+03 0.  0.
         25    1    1    2    0    0 -0.66658868987E+02 -0.20460178084E+02 -0.23181297657E+03  0.27244133278E+03  0.12500000000E+03 0.  0.
         25    1    1    2    0    0  0.81194914423E+01  0.40743333656E+02 -0.15724000032E+03  0.20512280000E+03  0.12500000000E+03 0.  0.
</event>
<event>
 5    0  0.5778875E-005  0.3042277E+03  0.7546771E-02  0.1083146E+00
         21   -1    0    0  502  501  0.00000000000E+00  0.00000000000E+00  0.80361819760E+02  0.80361819760E+02  0.00000000000E+00 0.  1.
         21   -1    0    0  501  502 -0.00000000000E+00 -0.00000000000E+00 -0.11517219259E+04  0.11517219259E+04  0.00000000000E+00 0.  1.
         25    1    1    2    0    0 -0.44077946461E+02  0.40082384394E+02 -0.33261247063E+03  0.36028532932E+03  0.12500000000E+03 0.  0.
         25    1    1    2    0    0 -0.53221917857E+02 -0.15619689049E+03 -0.59046788644E+03  0.62570549467E+03  0.12500000000E+03 0.  0.
         25    1    1    2    0    0  0.97299864318E+02  0.11611450609E+03 -0.14827974911E+03  0.24609292171E+03  0.12500000000E+03 0.  0.
</event>
<event>
 5    0  0.5778875E-005  0.3612314E+03  0.7546771E-02  0.1058097E+00
         21   -1    0    0  502  501  0.00000000000E+00  0.00000000000E+00  0.10843896893E+04  0.10843896893E+04  0.00000000000E+00 0. -1.
         21   -1    0    0  501  502 -0.00000000000E+00 -0.00000000000E+00 -0.12033325474E+03  0.12033325474E+03  0.00000000000E+00 0. -1.
         25    1    1    2    0    0 -0.80849684805E+01 -0.16225745733E+03  0.42956934295E+03  0.47597024022E+03  0.12500000000E+03 0.  0.
         25    1    1    2    0    0 -0.12748880002E+03  0.15766375934E+03  0.48091145635E+03  0.53666757307E+03  0.12500000000E+03 0.  0.
         25    1    1    2    0    0  0.13557376850E+03  0.45936979901E+01  0.53575635290E+02  0.19208513077E+03  0.12500000000E+03 0.  0.
</event>
<event>
 5    0  0.5778875E-005  0.3124452E+03  0.7546771E-02  0.1079180E+00
         21   -1    0    0  502  501  0.00000000000E+00  0.00000000000E+00  0.28663777727E+03  0.28663777727E+03  0.00000000000E+00 0.  1.
         21   -1    0    0  501  502 -0.00000000000E+00 -0.00000000000E+00 -0.34057621786E+03  0.34057621786E+03  0.00000000000E+00 0.  1.
         25    1    1    2    0    0  0.94206017583E+02 -0.11731013669E+03  0.88573715485E+02  0.21472481225E+03  0.12500000000E+03 0.  0.
         25    1    1    2    0    0 -0.31701974006E+02  0.80640733740E+02 -0.20484027300E+03  0.25513228047E+03  0.12500000000E+03 0.  0.
         25    1    1    2    0    0 -0.62504043576E+02  0.36669402954E+02  0.62328116925E+02  0.15735690241E+03  0.12500000000E+03 0.  0.
</event>
<event>
 5    0  0.5778875E-005  0.2718474E+03  0.7546771E-02  0.1100227E+00
         21   -1    0    0  502  501  0.00000000000E+00  0.00000000000E+00  0.14736338979E+03  0.14736338979E+03  0.00000000000E+00 0. -1.
         21   -1    0    0  501  502 -0.00000000000E+00 -0.00000000000E+00 -0.50148832951E+03  0.50148832951E+03  0.00000000000E+00 0. -1.
         25    1    1    2    0    0  0.93477470840E+02 -0.80356425231E+01 -0.29772881440E+03  0.33625891220E+03  0.12500000000E+03 0.  0.
         25    1    1    2    0    0 -0.56214536791E+02 -0.68828923693E+02 -0.77333947592E+01  0.15356529646E+03  0.12500000000E+03 0.  0.
         25    1    1    2    0    0 -0.37262934050E+02  0.76864566216E+02 -0.48662730563E+02  0.15902751064E+03  0.12500000000E+03 0.  0.
</event>
<event>
 5    0  0.5778875E-005  0.2921216E+03  0.7546771E-02  0.1089247E+00
         21   -1    0    0  502  501  0.00000000000E+00  0.00000000000E+00  0.28791559020E+03  0.28791559020E+03  0.00000000000E+00 0.  1.
         21   -1    0    0  501  502 -0.00000000000E+00 -0.00000000000E+00 -0.29638904795E+03  0.29638904795E+03  0.00000000000E+00 0.  1.
         25    1    1    2    0    0 -0.34387731942E+02 -0.11114143387E+03  0.16712143454E+03  0.23893410873E+03  0.12500000000E+03 0.  0.
         25    1    1    2    0    0 -0.28902769693E+02  0.81651956272E+02 -0.11109628667E+03  0.18833426924E+03  0.12500000000E+03 0.  0.
         25    1    1    2    0    0  0.63290501634E+02  0.29489477601E+02 -0.64498605622E+02  0.15703626019E+03  0.12500000000E+03 0.  0.
</event>
<event>
 5    0  0.5778875E-005  0.2499928E+03  0.7546771E-02  0.1113309E+00
         21   -1    0    0  502  501  0.00000000000E+00  0.00000000000E+00  0.38407678870E+03  0.38407678870E+03  0.00000000000E+00 0.  1.
         21   -1    0    0  501  502 -0.00000000000E+00 -0.00000000000E+00 -0.16271845482E+03  0.16271845482E+03  0.00000000000E+00 0.  1.
         25    1    1    2    0    0 -0.66912706806E+02  0.45768247951E+02  0.12792639817E+03  0.19637262080E+03  0.12500000000E+03 0.  0.
         25    1    1    2    0    0  0.10509050667E+03 -0.38970694592E+02  0.13245654131E+03  0.21385150213E+03  0.12500000000E+03 0.  0.
         25    1    1    2    0    0 -0.38177799860E+02 -0.67975533588E+01 -0.39024605597E+02  0.13657112058E+03  0.12500000000E+03 0.  0.
</event>
<event>
 5    0  0.5778875E-005  0.2456269E+03  0.7546771E-02  0.1116100E+00
         21   -1    0    0  502  501  0.00000000000E+00  0.00000000000E+00  0.45350035920E+02  0.45350035920E+02  0.00000000000E+00 0.  1.
         21   -1    0    0  501  502 -0.00000000000E+00 -0.00000000000E+00 -0.13303753416E+04  0.13303753416E+04  0.00000000000E+00 0.  1.
         25    1    1    2    0    0  0.30892818806E+02 -0.92666034741E+02 -0.52894775216E+03  0.55222466874E+03  0.12500000000E+03 0.  0.
         25    1    1    2    0    0  0.38386525220E+02 -0.11221685012E+02 -0.46340814921E+03  0.48163426403E+03  0.12500000000E+03 0.  0.
         25    1    1    2    0    0 -0.69279344026E+02  0.10388771975E+03 -0.29266940427E+03  0.34186644471E+03  0.12500000000E+03 0.  0.
</event>
<event>
 5    0  0.5778875E-005  0.2739699E+03  0.7546771E-02  0.1099029E+00
         21   -1    0    0  502  501  0.00000000000E+00  0.00000000000E+00  0.48735689822E+03  0.48735689822E+03  0.00000000000E+00 0. -1.
         21   -1    0    0  501  502 -0.00000000000E+00 -0.00000000000E+00 -0.15401340926E+03  0.15401340926E+03  0.00000000000E+00 0. -1.
         25    1    1    2    0    0  0.56947852555E+02 -0.20161262630E+02  0.89233313106E+02  0.16503671891E+03  0.12500000000E+03 0.  0.
         25    1    1    2    0    0  0.32475762927E+02  0.90739889857E+02 -0.23682736199E+02  0.15960662512E+03  0.12500000000E+03 0.  0.
         25    1    1    2    0    0 -0.89423615482E+02 -0.70578627227E+02  0.26779291206E+03  0.31672696345E+03  0.12500000000E+03 0.  0.
</event>
<event>
 5    0  0.5778875E-005  0.3432176E+03  0.7546771E-02  0.1065434E+00
         21   -1    0    0  502  501  0.00000000000E+00  0.00000000000E+00  0.13879775944E+03  0.13879775944E+03  0.00000000000E+00 0. -1.
         21   -1    0    0  501  502 -0.00000000000E+00 -0.00000000000E+00 -0.84870457710E+03  0.84870457710E+03  0.00000000000E+00 0. -1.
         25    1    1    2    0    0  0.36545294389E+02 -0.18567077936E+03 -0.28195646420E+03  0.36184754325E+03  0.12500000000E+03 0.  0.
         25    1    1    2    0    0  0.21479138188E+01  0.66353014984E+02  0.20959811074E+02  0.14307917323E+03  0.12500000000E+03 0.  0.
         25    1    1    2    0    0 -0.38693208208E+02  0.11931776438E+03 -0.44891016453E+03  0.48257562006E+03  0.12500000000E+03 0.  0.
</event>
<event>
 5    0  0.5778875E-005  0.2662516E+03  0.7546771E-02  0.1103444E+00
         21   -1    0    0  502  501  0.00000000000E+00  0.00000000000E+00  0.13493251350E+03  0.13493251350E+03  0.00000000000E+00 0.  1.
         21   -1    0    0  501  502 -0.00000000000E+00 -0.00000000000E+00 -0.52537323501E+03  0.52537323501E+03  0.00000000000E+00 0.  1.
         25    1    1    2    0    0 -0.45873934838E+02  0.78435009612E+02 -0.51980372676E+02  0.16304425097E+03  0.12500000000E+03 0.  0.
         25    1    1    2    0    0  0.45619421619E+02 -0.13662981313E+03 -0.85168338675E+02  0.20887193056E+03  0.12500000000E+03 0.  0.
         25    1    1    2    0    0  0.25451321838E+00  0.58194803516E+02 -0.25329201016E+03  0.28838956698E+03  0.12500000000E+03 0.  0.
</event>
<event>
 5    0  0.5778875E-005  0.2644050E+03  0.7546771E-02  0.1104525E+00
         21   -1    0    0  502  501  0.00000000000E+00  0.00000000000E+00  0.13086156268E+04  0.13086156268E+04  0.00000000000E+00 0.  1.
         21   -1    0    0  501  502 -0.00000000000E+00 -0.00000000000E+00 -0.53422867226E+02  0.53422867226E+02  0.00000000000E+00 0.  1.
         25    1    1    2    0    0  0.35100029168E+01  0.20143618521E+02  0.12942196881E+03  0.18108873929E+03  0.12500000000E+03 0.  0.
         25    1    1    2    0    0 -0.77101456130E+02  0.56299021129E+02  0.29661353278E+03  0.33573620917E+03  0.12500000000E+03 0.  0.
         25    1    1    2    0    0  0.73591453214E+02 -0.76442639650E+02  0.82915725796E+03  0.84521354555E+03  0.12500000000E+03 0.  0.
</event>
<event>
 5    0  0.5778875E-005  0.3004966E+03  0.7546771E-02  0.1084993E+00
         21   -1    0    0  502  501  0.00000000000E+00  0.00000000000E+00  0.64150279969E+03  0.64150279969E+03  0.00000000000E+00 0.  1.
         21   -1    0    0  501  502 -0.00000000000E+00 -0.00000000000E+00 -0.14076039163E+03  0.14076039163E+03  0.00000000000E+00 0.  1.
         25    1    1    2    0    0 -0.98270369904E+02  0.96669396646E+02  0.16683773354E+03  0.24992372272E+03  0.12500000000E+03 0.  0.
         25    1    1    2    0    0  0.24243477346E+01  0.99865464060E+02  0.10052668343E+03  0.18896984536E+03  0.12500000000E+03 0.  0.
         25    1    1    2    0    0  0.95846022170E+02 -0.19653486071E+03  0.23337799108E+03  0.34336962323E+03  0.12500000000E+03 0.  0.
</event>
<event>
 5    0  0.5778875E-005  0.5518780E+03  0.7546771E-02  0.1001060E+00
         21   -1    0    0  502  501  0.00000000000E+00  0.00000000000E+00  0.38109089527E+03  0.38109089527E+03  0.00000000000E+00 0. -1.
         21   -1    0    0  501  502 -0.00000000000E+00 -0.00000000000E+00 -0.79920383281E+03  0.79920383281E+03  0.00000000000E+00 0. -1.
         25    1    1    2    0    0 -0.32321221837E+03 -0.26483443153E+03 -0.24597635481E+03  0.50073224517E+03  0.12500000000E+03 0.  0.
         25    1    1    2    0    0  0.34119063587E+03  0.34951719918E+03 -0.11499134854E+03  0.51712796556E+03  0.12500000000E+03 0.  0.
         25    1    1    2    0    0 -0.17978417496E+02 -0.84682767651E+02 -0.57145234193E+02  0.16243451734E+03  0.12500000000E+03 0.  0.
</event>
<event>
 5    0  0.5778875E-005  0.5733515E+03  0.7546771E-02  0.9962290E-01
         21   -1    0    0  502  501  0.00000000000E+00  0.00000000000E+00  0.91456372196E+03  0.91456372196E+03  0.00000000000E+00 0.  1.
         21   -1    0    0  501  502 -0.00000000000E+00 -0.00000000000E+00 -0.35944123864E+03  0.35944123864E+03  0.00000000000E+00 0.  1.
         25    1    1    2    0    0  0.14384447672E+02  0.23965808806E+03  0.73040736142E+03  0.77894982195E+03  0.12500000000E+03 0.  0.
         25    1    1    2    0    0 -0.13599779797E+03 -0.22032892097E+03 -0.10967918911E+03  0.30772513545E+03  0.12500000000E+03 0.  0.
         25    1    1    2    0    0  0.12161335030E+03 -0.19329167098E+02 -0.65605688988E+02  0.18733000320E+03  0.12500000000E+03 0.  0.
</event>
<event>
 5    0  0.5778875E-005  0.2114584E+03  0.7546771E-02  0.1140416E+00
         21   -1    0    0  502  501  0.00000000000E+00  0.00000000000E+00  0.34567611221E+03  0.34567611221E+03  0.00000000000E+00 0. -1.
         21   -1    0    0  501  502 -0.00000000000E+00 -0.00000000000E+00 -0.12935419172E+03  0.12935419172E+03  0.00000000000E+00 0. -1.
         25    1    1    2    0    0 -0.11876071417E+02  0.17211467132E+02  0.14309218069E+03  0.19114823527E+03  0.12500000000E+03 0.  0.
         25    1    1    2    0    0  0.19950759671E+02 -0.61766719194E+02  0.46037107633E+02  0.14818088841E+03  0.12500000000E+03 0.  0.
         25    1    1    2    0    0 -0.80746882535E+01  0.44555252063E+02  0.27192632166E+02  0.13570118025E+03  0.12500000000E+03 0.  0.
</event>
<event>
 5    0  0.5778875E-005  0.4451632E+03  0.7546771E-02  0.1029174E+00
         21   -1    0    0  502  501  0.00000000000E+00  0.00000000000E+00  0.26088618354E+03  0.26088618354E+03  0.00000000000E+00 0. -1.
         21   -1    0    0  501  502 -0.00000000000E+00 -0.00000000000E+00 -0.75960416677E+03  0.75960416677E+03  0.00000000000E+00 0. -1.
         25    1    1    2    0    0 -0.12678715816E+03  0.10629830991E+03 -0.58408442056E+03  0.61980152025E+03  0.12500000000E+03 0.  0.
         25    1    1    2    0    0 -0.39522095320E+02 -0.60676533209E+02 -0.44585992688E+02  0.15118382336E+03  0.12500000000E+03 0.  0.
         25    1    1    2    0    0  0.16630925347E+03 -0.45621776702E+02  0.12995243002E+03  0.24950500670E+03  0.12500000000E+03 0.  0.
</event>
<event>
 5    0  0.5778875E-005  0.2205345E+03  0.7546771E-02  0.1133485E+00
         21   -1    0    0  502  501  0.00000000000E+00  0.00000000000E+00  0.48177094153E+03  0.48177094153E+03  0.00000000000E+00 0.  1.
         21   -1    0    0  501  502 -0.00000000000E+00 -0.00000000000E+00 -0.10095140902E+03  0.10095140902E+03  0.00000000000E+00 0.  1.
         25    1    1    2    0    0 -0.13414764149E+02 -0.57111356999E+02  0.24065991266E+03  0.27745964852E+03  0.12500000000E+03 0.  0.
         25    1    1    2    0    0  0.36128464701E+02  0.61790249935E+02  0.73281236449E+02  0.16161200625E+03  0.12500000000E+03 0.  0.
         25    1    1    2    0    0 -0.22713700552E+02 -0.46788929363E+01  0.66878383400E+02  0.14365069578E+03  0.12500000000E+03 0.  0.
</event>
<event>
 5    0  0.5778875E-005  0.2720052E+03  0.7546771E-02  0.1100137E+00
         21   -1    0    0  502  501  0.00000000000E+00  0.00000000000E+00  0.17424488567E+03  0.17424488567E+03  0.00000000000E+00 0.  1.
         21   -1    0    0  501  502 -0.00000000000E+00 -0.00000000000E+00 -0.42461396594E+03  0.42461396594E+03  0.00000000000E+00 0.  1.
         25    1    1    2    0    0 -0.49521601034E+02  0.60231118941E+02 -0.24861501886E+03  0.28898893449E+03  0.12500000000E+03 0.  0.
         25    1    1    2    0    0  0.94005837046E+02 -0.66510558318E+02 -0.33670460014E+02  0.17326122372E+03  0.12500000000E+03 0.  0.
         25    1    1    2    0    0 -0.44484236012E+02  0.62794393769E+01  0.31916398602E+02  0.13660869340E+03  0.12500000000E+03 0.  0.
</event>
<event>
 5    0  0.5778875E-005  0.3790280E+03  0.7546771E-02  0.1051294E+00
         21   -1    0    0  502  501  0.00000000000E+00  0.00000000000E+00  0.13841286873E+03  0.13841286873E+03  0.00000000000E+00 0.  1.
         21   -1    0    0  501  502 -0.00000000000E+00 -0.00000000000E+00 -0.10379253488E+04  0.10379253488E+04  0.00000000000E+00 0.  1.
         25    1    1    2    0    0  0.18970136906E+03  0.11079155639E+03 -0.95653027636E+02  0.27025151264E+03  0.12500000000E+03 0.  0.
         25    1    1    2    0    0 -0.18595887748E+03 -0.20354880935E+02 -0.27575780877E+03  0.35589660632E+03  0.12500000000E+03 0.  0.
         25    1    1    2    0    0 -0.37424915757E+01 -0.90436675457E+02 -0.52810164365E+03  0.55019009855E+03  0.12500000000E+03 0.  0.
</event>
<event>
 5    0  0.5778875E-005  0.4901196E+03  0.7546771E-02  0.1016390E+00
         21   -1    0    0  502  501  0.00000000000E+00  0.00000000000E+00  0.24126312718E+03  0.24126312718E+03  0.00000000000E+00 0. -1.
         21   -1    0    0  501  502 -0.00000000000E+00 -0.00000000000E+00 -0.99566497067E+03  0.99566497067E+03  0.00000000000E+00 0. -1.
         25    1    1    2    0    0 -0.19777066977E+03  0.15662754173E+03 -0.14774061554E+03  0.31795866733E+03  0.12500000000E+03 0.  0.
         25    1    1    2    0    0 -0.70638701537E+02  0.17438985704E+03 -0.10541683093E+03  0.24927766975E+03  0.12500000000E+03 0.  0.
         25    1    1    2    0    0  0.26840937131E+03 -0.33101739877E+03 -0.50124439702E+03  0.66969176077E+03  0.12500000000E+03 0.  0.
</event>
<event>
 5    0  0.5778875E-005  0.4070211E+03  0.7546771E-02  0.1041375E+00
         21   -1    0    0  502  501  0.00000000000E+00  0.00000000000E+00  0.82161980927E+03  0.82161980927E+03  0.00000000000E+00 0.  1.
         21   -1    0    0  501  502 -0.00000000000E+00 -0.00000000000E+00 -0.20163366867E+03  0.20163366867E+03  0.00000000000E+00 0.  1.
         25    1    1    2    0    0  0.28684072813E+02 -0.11194858798E+03  0.29748827068E+03  0.34275287537E+03  0.12500000000E+03 0.  0.
         25    1    1    2    0    0 -0.81790941948E+02 -0.18278340722E+03  0.25788370740E+03  0.34961198303E+03  0.12500000000E+03 0.  0.
         25    1    1    2    0    0  0.53106869135E+02  0.29473199520E+03  0.64614162525E+02  0.33088861954E+03  0.12500000000E+03 0.  0.
</event>
<event>
 5    0  0.5778875E-005  0.3935916E+03  0.7546771E-02  0.1046022E+00
         21   -1    0    0  502  501  0.00000000000E+00  0.00000000000E+00  0.14890825285E+03  0.14890825285E+03  0.00000000000E+00 0. -1.
         21   -1    0    0  501  502 -0.00000000000E+00 -0.00000000000E+00 -0.10403341426E+04  0.10403341426E+04  0.00000000000E+00 0. -1.
         25    1    1    2    0    0 -0.14933901328E+03 -0.46510028257E+01 -0.18930759285E+01  0.19481364544E+03  0.12500000000E+03 0.  0.
         25    1    1    2    0    0  0.60855251217E+02 -0.10353612618E+03 -0.72350539187E+03  0.74398127872E+03  0.12500000000E+03 0.  0.
         25    1    1    2    0    0  0.88483762060E+02  0.10818712901E+03 -0.16602742194E+03  0.25044747127E+03  0.12500000000E+03 0.  0.
</event>
<event>
 5    0  0.5778875E-005  0.2992249E+03  0.7546771E-02  0.1085629E+00
         21   -1    0    0  502  501  0.00000000000E+00  0.00000000000E+00  0.21757293929E+03  0.21757293929E+03  0.00000000000E+00 0.  1.
         21   -1    0    0  501  502 -0.00000000000E+00 -0.00000000000E+00 -0.41151953669E+03  0.41151953669E+03  0.00000000000E+00 0.  1.
         25    1    1    2    0    0  0.52704438610E+02  0.11471609923E+03 -0.53510238415E+01  0.17773906359E+03  0.12500000000E+03 0.  0.
         25    1    1    2    0    0 -0.12833753208E+03 -0.95667187398E+02  0.10853701191E+02  0.20338519050E+03  0.12500000000E+03 0.  0.
         25    1    1    2    0    0  0.75633093467E+02 -0.19048911828E+02 -0.19944927475E+03  0.24796822189E+03  0.12500000000E+03 0.  0.
</event>
<event>
 5    0  0.5778875E-005  0.2623397E+03  0.7546771E-02  0.1105746E+00
         21   -1    0    0  502  501  0.00000000000E+00  0.00000000000E+00  0.47382136543E+03  0.47382136543E+03  0.00000000000E+00 0.  1.
         21   -1    0    0  501  502 -0.00000000000E+00 -0.00000000000E+00 -0.14524906178E+03  0.14524906178E+03  0.00000000000E+00 0.  1.
         25    1    1    2    0    0  0.41258336509E+02  0.36675449193E+02  0.18952653561E+03  0.23365069357E+03  0.12500000000E+03 0.  0.
         25    1    1    2    0    0 -0.10504849011E+03 -0.26318494492E+02  0.17437796675E+03  0.24033419173E+03  0.12500000000E+03 0.  0.
         25    1    1    2    0    0  0.63790153599E+02 -0.10356954701E+02 -0.35332198713E+02  0.14508554191E+03  0.12500000000E+03 0.  0.
</event>
<event>
 5    0  0.5778875E-005  0.2943203E+03  0.7546771E-02  0.1088115E+00
         21   -1    0    0  502  501  0.00000000000E+00  0.00000000000E+00  0.27827605198E+03  0.27827605198E+03  0.00000000000E+00 0.  1.
         21   -1    0    0  501  502 -0.00000000000E+00 -0.00000000000E+00 -0.31128953905E+03  0.31128953905E+03  0.00000000000E+00 0.  1.
         25    1    1    2    0    0  0.28309824296E+02 -0.36607730977E+02 -0.17716072719E+03  0.22170362058E+03  0.12500000000E+03 0.  0.
         25    1    1    2    0    0  0.55149742238E+02 -0.40811295008E+02 -0.46123876008E+01  0.14266509730E+03  0.12500000000E+03 0.  0.
         25    1    1    2    0    0 -0.83459566534E+02  0.77419025985E+02  0.14875962773E+03  0.22519687314E+03  0.12500000000E+03 0.  0.
</event>
<event>
 5    0  0.5778875E-005  0.2542373E+03  0.7546771E-02  0.1110656E+00
         21   -1    0    0  502  501  0.00000000000E+00  0.00000000000E+00  0.32499941817E+03  0.32499941817E+03  0.00000000000E+00 0.  1.
         21   -1    0    0  501  502 -0.00000000000E+00 -0.00000000000E+00 -0.19888220397E+03  0.19888220397E+03  0.00000000000E+00 0.  1.
         25    1    1    2    0    0 -0.46409012815E+01  0.25458196538E+02  0.43445803098E+02  0.13484137178E+03  0.12500000000E+03 0.  0.
         25    1    1    2    0    0 -0.68830703052E+02 -0.19713003763E+02  0.16752595569E+03  0.22094391602E+03  0.12500000000E+03 0.  0.
         25    1    1    2    0    0  0.73471604333E+02 -0.57451927750E+01 -0.84854544576E+02  0.16809633434E+03  0.12500000000E+03 0.  0.
</event>
<event>
 5    0  0.5778875E-005  0.4337621E+03  0.7546771E-02  0.1032678E+00
         21   -1    0    0  502  501  0.00000000000E+00  0.00000000000E+00  0.10200851301E+03  0.10200851301E+03  0.00000000000E+00 0.  1.
         21   -1    0    0  501  502 -0.00000000000E+00 -0.00000000000E+00 -0.18444491838E+04  0.18444491838E+04  0.00000000000E+00 0.  1.
         25    1    1    2    0    0  0.33373445661E+03 -0.59957191626E+02 -0.61883755591E+03  0.71662994144E+03  0.12500000000E+03 0.  0.
         25    1    1    2    0    0 -0.54657237164E+01  0.59418352253E+02 -0.43955980948E+03  0.46086683633E+03  0.12500000000E+03 0.  0.
         25    1    1    2    0    0 -0.32826873290E+03  0.53883937287E+00 -0.68404330543E+03  0.76896091906E+03  0.12500000000E+03 0.  0.
</event>
<event>
 5    0  0.5778875E-005  0.2095378E+03  0.7546771E-02  0.1141933E+00
         21   -1    0    0  502  501  0.00000000000E+00  0.00000000000E+00  0.48986147061E+03  0.48986147061E+03  0.00000000000E+00 0.  1.
         21   -1    0    0  501  502 -0.00000000000E+00 -0.00000000000E+00 -0.89629578196E+02  0.89629578196E+02  0.00000000000E+00 0.  1.
         25    1    1    2    0    0 -0.27704513160E+02  0.34392922046E+02  0.23406966697E+03  0.26900561729E+03  0.12500000000E+03 0.  0.
         25    1    1    2    0    0  0.29275249487E+02 -0.22413365171E+02  0.11855849889E+03  0.17618319111E+03  0.12500000000E+03 0.  0.
         25    1    1    2    0    0 -0.15707363279E+01 -0.11979556875E+02  0.47603726544E+02  0.13430224040E+03  0.12500000000E+03 0.  0.
</event>
<event>
 5    0  0.5778875E-005  0.2828131E+03  0.7546771E-02  0.1094162E+00
         21   -1    0    0  502  501  0.00000000000E+00  0.00000000000E+00  0.27545848201E+04  0.27545848201E+04  0.00000000000E+00 0.  1.
         21   -1    0    0  501  502 -0.00000000000E+00 -0.00000000000E+00 -0.29036407004E+02  0.29036407004E+02  0.00000000000E+00 0.  1.
         25    1    1    2    0    0  0.27646452920E+02 -0.71948550723E+02  0.36135499136E+03  0.39005557308E+03  0.12500000000E+03 0.  0.
         25    1    1    2    0    0  0.68757711796E+02 -0.71113868666E+02  0.91135109899E+03  0.92518680863E+03  0.12500000000E+03 0.  0.
         25    1    1    2    0    0 -0.96404164716E+02  0.14306241939E+03  0.14528423228E+04  0.14683788454E+04  0.12500000000E+03 0.  0.
</event>
<event>
 5    0  0.5778875E-005  0.3086037E+03  0.7546771E-02  0.1081017E+00
         21   -1    0    0  502  501  0.00000000000E+00  0.00000000000E+00  0.10148465548E+03  0.10148465548E+03  0.00000000000E+00 0. -1.
         21   -1    0    0  501  502 -0.00000000000E+00 -0.00000000000E+00 -0.93843013457E+03  0.93843013457E+03  0.00000000000E+00 0. -1.
         25    1    1    2    0    0  0.20500550629E+02 -0.19493710519E+02 -0.25162131477E+03  0.28238017525E+03  0.12500000000E+03 0.  0.
         25    1    1    2    0    0 -0.10838113737E+02 -0.12265051286E+03 -0.53266805660E+03  0.56082160402E+03  0.12500000000E+03 0.  0.
         25    1    1    2    0    0 -0.96624368922E+01  0.14214422338E+03 -0.52656107721E+02  0.19671301077E+03  0.12500000000E+03 0.  0.
</event>
<event>
 5    0  0.5778875E-005  0.2697423E+03  0.7546771E-02  0.1101427E+00
         21   -1    0    0  502  501  0.00000000000E+00  0.00000000000E+00  0.35885906767E+03  0.35885906767E+03  0.00000000000E+00 0. -1.
         21   -1    0    0  501  502 -0.00000000000E+00 -0.00000000000E+00 -0.20275628291E+03  0.20275628291E+03  0.00000000000E+00 0. -1.
         25    1    1    2    0    0 -0.11949030410E+03 -0.13481697511E+03  0.80775346787E+02  0.23367328945E+03  0.12500000000E+03 0.  0.
         25    1    1    2    0    0  0.84428293812E+02  0.11055870620E+03  0.47822085680E+02  0.19303708502E+03  0.12500000000E+03 0.  0.
         25    1    1    2    0    0  0.35062010288E+02  0.24258268911E+02  0.27505352301E+02  0.13490497612E+03  0.12500000000E+03 0.  0.
</event>
<event>
 5    0  0.5778875E-005  0.4660867E+03  0.7546771E-02  0.1023031E+00
         21   -1    0    0  502  501  0.00000000000E+00  0.00000000000E+00  0.11344420043E+03  0.11344420043E+03  0.00000000000E+00 0.  1.
         21   -1    0    0  501  502 -0.00000000000E+00 -0.00000000000E+00 -0.19149223170E+04  0.19149223170E+04  0.00000000000E+00 0.  1.
         25    1    1    2    0    0 -0.12066247661E+03  0.26225468331E+02 -0.11427956377E+02  0.17607613875E+03  0.12500000000E+03 0.  0.
         25    1    1    2    0    0  0.20450456323E+03 -0.12699119576E+03 -0.77230874935E+03  0.81855646385E+03  0.12500000000E+03 0.  0.
         25    1    1    2    0    0 -0.83842086614E+02  0.10076572743E+03 -0.10177414109E+04  0.10337339149E+04  0.12500000000E+03 0.  0.
</event>
<event>
 5    0  0.5778875E-005  0.4895543E+03  0.7546771E-02  0.1016542E+00
         21   -1    0    0  502  501  0.00000000000E+00  0.00000000000E+00  0.90978006283E+03  0.90978006283E+03  0.00000000000E+00 0.  1.
         21   -1    0    0  501  502 -0.00000000000E+00 -0.00000000000E+00 -0.26343001728E+03  0.26343001728E+03  0.00000000000E+00 0.  1.
         25    1    1    2    0    0 -0.12949345599E+03  0.17409173956E+03  0.15465758894E+03  0.29431353816E+03  0.12500000000E+03 0.  0.
         25    1    1    2    0    0 -0.28808365839E+01  0.23011503105E+03  0.79837656376E+02  0.27378874723E+03  0.12500000000E+03 0.  0.
         25    1    1    2    0    0  0.13237429257E+03 -0.40420677061E+03  0.41185480024E+03  0.60510779471E+03  0.12500000000E+03 0.  0.
</event>
<event>
 5    0  0.5778875E-005  0.2373573E+03  0.7546771E-02  0.1121566E+00
         21   -1    0    0  502  501  0.00000000000E+00  0.00000000000E+00  0.19845899699E+03  0.19845899699E+03  0.00000000000E+00 0. -1.
         21   -1    0    0  501  502 -0.00000000000E+00 -0.00000000000E+00 -0.28387975724E+03  0.28387975724E+03  0.00000000000E+00 0. -1.
         25    1    1    2    0    0  0.13350881452E+02 -0.11388148688E+03  0.23880532406E+02  0.17129658174E+03  0.12500000000E+03 0.  0.
         25    1    1    2    0    0  0.24361790229E+02  0.28802788011E+02 -0.77996309656E+02  0.15209050510E+03  0.12500000000E+03 0.  0.
         25    1    1    2    0    0 -0.37712671681E+02  0.85078698864E+02 -0.31304982998E+02  0.15895166739E+03  0.12500000000E+03 0.  0.
</event>
<event>
 5    0  0.6484228E-005  0.2824739E+03  0.7546771E-02  0.1094345E+00
         21   -1    0    0  502  501  0.00000000000E+00  0.00000000000E+00  0.17968787343E+03  0.17968787343E+03  0.00000000000E+00 0. -1.
         21   -1    0    0  501  502 -0.00000000000E+00 -0.00000000000E+00 -0.44405628072E+03  0.44405628072E+03  0.00000000000E+00 0. -1.
         25    1    1    2    0    0  0.15773521360E+03  0.47850520400E+02 -0.21695203572E+03  0.29977200622E+03  0.12500000000E+03 0.  0.
         25    1    1    2    0    0 -0.97976959250E+02 -0.74364980600E+02 -0.51735480946E+02  0.18284199428E+03  0.12500000000E+03 0.  0.
         25    1    1    2    0    0 -0.59758254352E+02  0.26514460200E+02  0.43191093684E+01  0.14113015365E+03  0.12500000000E+03 0.  0.
</event>
<event>
 5    0  0.5778875E-005  0.3970443E+03  0.7546771E-02  0.1044808E+00
         21   -1    0    0  502  501  0.00000000000E+00  0.00000000000E+00  0.40310810148E+03  0.40310810148E+03  0.00000000000E+00 0.  1.
         21   -1    0    0  501  502 -0.00000000000E+00 -0.00000000000E+00 -0.39107177795E+03  0.39107177795E+03  0.00000000000E+00 0.  1.
         25    1    1    2    0    0 -0.82342149920E+02  0.17611209995E+03 -0.17531622470E+03  0.29009736304E+03  0.12500000000E+03 0.  0.
         25    1    1    2    0    0 -0.84939031101E+02 -0.10075127462E+03 -0.40353679529E+02  0.18606148928E+03  0.12500000000E+03 0.  0.
         25    1    1    2    0    0  0.16728118102E+03 -0.75360825328E+02  0.22770622776E+03  0.31802102710E+03  0.12500000000E+03 0.  0.
</event>
<event>
 5    0  0.5778875E-005  0.2760878E+03  0.7546771E-02  0.1097845E+00
         21   -1    0    0  502  501  0.00000000000E+00  0.00000000000E+00  0.37912184423E+03  0.37912184423E+03  0.00000000000E+00 0. -1.
         21   -1    0    0  501  502 -0.00000000000E+00 -0.00000000000E+00 -0.20105528961E+03  0.20105528961E+03  0.00000000000E+00 0. -1.
         25    1    1    2    0    0 -0.16965690399E+03 -0.19461021589E+02  0.57394698839E+01  0.21170767097E+03  0.12500000000E+03 0.  0.
         25    1    1    2    0    0  0.16266100156E+02 -0.53988526771E+01  0.71022985004E+02  0.14478604223E+03  0.12500000000E+03 0.  0.
         25    1    1    2    0    0  0.15339080384E+03  0.24859874266E+02  0.10130409973E+03  0.22368342065E+03  0.12500000000E+03 0.  0.
</event>
<event>
 5    0  0.5778875E-005  0.4249427E+03  0.7546771E-02  0.1035470E+00
         21   -1    0    0  502  501  0.00000000000E+00  0.00000000000E+00  0.69347985651E+03  0.69347985651E+03  0.00000000000E+00 0.  1.
         21   -1    0    0  501  502 -0.00000000000E+00 -0.00000000000E+00 -0.26039160748E+03  0.26039160748E+03  0.00000000000E+00 0.  1.
         25    1    1    2    0    0 -0.13416731772E+03 -0.59587518581E+02  0.21398701547E+03  0.28803990055E+03  0.12500000000E+03 0.  0.
         25    1    1    2    0    0  0.11631316915E+03  0.10881812523E+03 -0.16330341323E+03  0.26012139948E+03  0.12500000000E+03 0.  0.
         25    1    1    2    0    0  0.17854148568E+02 -0.49230606651E+02  0.38240464679E+03  0.40571016396E+03  0.12500000000E+03 0.  0.
</event>
<event>
 5    0  0.5778875E-005  0.2470813E+03  0.7546771E-02  0.1115163E+00
         21   -1    0    0  502  501  0.00000000000E+00  0.00000000000E+00  0.15900347972E+03  0.15900347972E+03  0.00000000000E+00 0. -1.
         21   -1    0    0  501  502 -0.00000000000E+00 -0.00000000000E+00 -0.38394857223E+03  0.38394857223E+03  0.00000000000E+00 0. -1.
         25    1    1    2    0    0  0.90557122618E+02 -0.75796093299E+02 -0.14142686384E+03  0.22264814851E+03  0.12500000000E+03 0.  0.
         25    1    1    2    0    0 -0.35938832616E+02  0.56527654511E+02  0.26162000494E+02  0.14420965878E+03  0.12500000000E+03 0.  0.
         25    1    1    2    0    0 -0.54618290002E+02  0.19268438788E+02 -0.10968022917E+03  0.17609424467E+03  0.12500000000E+03 0.  0.
</event>
<event>
 5    0  0.5778875E-005  0.2709378E+03  0.7546771E-02  0.1100744E+00
         21   -1    0    0  502  501  0.00000000000E+00  0.00000000000E+00  0.48082297651E+02  0.48082297651E+02  0.00000000000E+00 0. -1.
         21   -1    0    0  501  502 -0.00000000000E+00 -0.00000000000E+00 -0.15267010064E+04  0.15267010064E+04  0.00000000000E+00 0. -1.
         25    1    1    2    0    0  0.10832210236E+03  0.40721835167E+02 -0.80867742986E+03  0.82642369961E+03  0.12500000000E+03 0.  0.
         25    1    1    2    0    0 -0.63872917809E+02  0.39777836548E+02 -0.48741557471E+03  0.50878381301E+03  0.12500000000E+03 0.  0.
         25    1    1    2    0    0 -0.44449184551E+02 -0.80499671715E+02 -0.18252570419E+03  0.23957579144E+03  0.12500000000E+03 0.  0.
</event>
<event>
 5    0  0.5778875E-005  0.3489136E+03  0.7546771E-02  0.1063062E+00
         21   -1    0    0  502  501  0.00000000000E+00  0.00000000000E+00  0.25926343258E+03  0.25926343258E+03  0.00000000000E+00 0.  1.
         21   -1    0    0  501  502 -0.00000000000E+00 -0.00000000000E+00 -0.46956383281E+03  0.46956383281E+03  0.00000000000E+00 0.  1.
         25    1    1    2    0    0  0.48489299244E+02  0.68908002356E+02 -0.33001033457E+03  0.36281034419E+03  0.12500000000E+03 0.  0.
         25    1    1    2    0    0 -0.56270259187E+02 -0.10874355835E+03 -0.17707817338E+02  0.17586946963E+03  0.12500000000E+03 0.  0.
         25    1    1    2    0    0  0.77809599432E+01  0.39835555995E+02  0.13741775168E+03  0.19014745156E+03  0.12500000000E+03 0.  0.
</event>
<event>
 5    0  0.5778875E-005  0.4220578E+03  0.7546771E-02  0.1036399E+00
         21   -1    0    0  502  501  0.00000000000E+00  0.00000000000E+00  0.28062110893E+03  0.28062110893E+03  0.00000000000E+00 0.  1.
         21   -1    0    0  501  502 -0.00000000000E+00 -0.00000000000E+00 -0.63478031425E+03  0.63478031425E+03  0.00000000000E+00 0.  1.
         25    1    1    2    0    0 -0.11773167085E+03  0.54888436786E+02 -0.38003308030E+03  0.42062290586E+03  0.12500000000E+03 0.  0.
         25    1    1    2    0    0  0.16998245075E+03  0.92383016453E+02  0.13486473689E+03  0.26691225627E+03  0.12500000000E+03 0.  0.
         25    1    1    2    0    0 -0.52250779904E+02 -0.14727145324E+03 -0.10899086192E+03  0.22786626105E+03  0.12500000000E+03 0.  0.
</event>
<event>
 5    0  0.5778875E-005  0.3751902E+03  0.7546771E-02  0.1052726E+00
         21   -1    0    0  502  501  0.00000000000E+00  0.00000000000E+00  0.65022836068E+03  0.65022836068E+03  0.00000000000E+00 0.  1.
         21   -1    0    0  501  502 -0.00000000000E+00 -0.00000000000E+00 -0.21648957546E+03  0.21648957546E+03  0.00000000000E+00 0.  1.
         25    1    1    2    0    0  0.70928460132E+02 -0.16251109910E+03  0.40212652590E+03  0.45691514160E+03  0.12500000000E+03 0.  0.
         25    1    1    2    0    0  0.88440081733E+02  0.64821625723E+02  0.72238487931E+02  0.18129227881E+03  0.12500000000E+03 0.  0.
         25    1    1    2    0    0 -0.15936854186E+03  0.97689473376E+02 -0.40626228618E+02  0.22851051572E+03  0.12500000000E+03 0.  0.
</event>
<event>
 5    0  0.5778875E-005  0.2290456E+03  0.7546771E-02  0.1127313E+00
         21   -1    0    0  502  501  0.00000000000E+00  0.00000000000E+00  0.15175460797E+03  0.15175460797E+03  0.00000000000E+00 0. -1.
         21   -1    0    0  501  502 -0.00000000000E+00 -0.00000000000E+00 -0.34570212919E+03  0.34570212919E+03  0.00000000000E+00 0. -1.
         25    1    1    2    0    0  0.81253356529E+02  0.10883438469E+02 -0.71630442645E+02  0.16576030132E+03  0.12500000000E+03 0.  0.
         25    1    1    2    0    0 -0.88977824562E+02  0.58093604041E+02 -0.80377503755E+02  0.18269500049E+03  0.12500000000E+03 0.  0.
         25    1    1    2    0    0  0.77244680333E+01 -0.68977042510E+02 -0.41939574827E+02  0.14900143535E+03  0.12500000000E+03 0.  0.
</event>
<event>
 5    0  0.5778875E-005  0.3802060E+03  0.7546771E-02  0.1050858E+00
         21   -1    0    0  502  501  0.00000000000E+00  0.00000000000E+00  0.42281584060E+03  0.42281584060E+03  0.00000000000E+00 0. -1.
         21   -1    0    0  501  502 -0.00000000000E+00 -0.00000000000E+00 -0.34189023413E+03  0.34189023413E+03  0.00000000000E+00 0. -1.
         25    1    1    2    0    0  0.17596314410E+03  0.57168299754E+02  0.18102578893E+03  0.28744839334E+03  0.12500000000E+03 0.  0.
         25    1    1    2    0    0 -0.21738521116E+03  0.48819627413E+02  0.38891835849E+02  0.25841296591E+03  0.12500000000E+03 0.  0.
         25    1    1    2    0    0  0.41422067058E+02 -0.10598792717E+03 -0.13899201830E+03  0.21884471549E+03  0.12500000000E+03 0.  0.
</event>
<event>
 5    0  0.5778875E-005  0.2951752E+03  0.7546771E-02  0.1087678E+00
         21   -1    0    0  502  501  0.00000000000E+00  0.00000000000E+00  0.15249404629E+04  0.15249404629E+04  0.00000000000E+00 0.  1.
         21   -1    0    0  501  502 -0.00000000000E+00 -0.00000000000E+00 -0.57135623328E+02  0.57135623328E+02  0.00000000000E+00 0.  1.
         25    1    1    2    0    0  0.42321467187E+02 -0.88648126335E+02  0.17440545331E+03  0.23599122660E+03  0.12500000000E+03 0.  0.
         25    1    1    2    0    0 -0.47026564307E+02  0.11910204250E+03  0.34173737464E+03  0.38575410238E+03  0.12500000000E+03 0.  0.
         25    1    1    2    0    0  0.47050971200E+01 -0.30453916167E+02  0.95166201167E+03  0.96033075729E+03  0.12500000000E+03 0.  0.
</event>
<event>
 5    0  0.5778875E-005  0.2787792E+03  0.7546771E-02  0.1096358E+00
         21   -1    0    0  502  501  0.00000000000E+00  0.00000000000E+00  0.43229476813E+02  0.43229476813E+02  0.00000000000E+00 0. -1.
         21   -1    0    0  501  502 -0.00000000000E+00 -0.00000000000E+00 -0.17977976110E+04  0.17977976110E+04  0.00000000000E+00 0. -1.
         25    1    1    2    0    0 -0.12253728190E+03  0.49774423661E+02 -0.43970452001E+03  0.47587597504E+03  0.12500000000E+03 0.  0.
         25    1    1    2    0    0  0.81001188954E+02 -0.14106635698E+03 -0.80255645033E+03  0.82836149455E+03  0.12500000000E+03 0.  0.
         25    1    1    2    0    0  0.41536092944E+02  0.91291933315E+02 -0.51230716390E+03  0.53678961827E+03  0.12500000000E+03 0.  0.
</event>
<event>
 5    0  0.5778875E-005  0.2857337E+03  0.7546771E-02  0.1092598E+00
         21   -1    0    0  502  501  0.00000000000E+00  0.00000000000E+00  0.89810665709E+02  0.89810665709E+02  0.00000000000E+00 0.  1.
         21   -1    0    0  501  502 -0.00000000000E+00 -0.00000000000E+00 -0.90906489845E+03  0.90906489845E+03  0.00000000000E+00 0.  1.
         25    1    1    2    0    0 -0.25455035735E+02  0.10940191980E+03 -0.10643335143E+03  0.19892158555E+03  0.12500000000E+03 0.  0.
         25    1    1    2    0    0 -0.57942348180E+02 -0.35312848524E+02 -0.54331542236E+03  0.56162350481E+03  0.12500000000E+03 0.  0.
         25    1    1    2    0    0  0.83397383915E+02 -0.74089071278E+02 -0.16950545896E+03  0.23833047380E+03  0.12500000000E+03 0.  0.
</event>
<event>
 5    0  0.5778875E-005  0.3390233E+03  0.7546771E-02  0.1067213E+00
         21   -1    0    0  502  501  0.00000000000E+00  0.00000000000E+00  0.61119675294E+03  0.61119675294E+03  0.00000000000E+00 0. -1.
         21   -1    0    0  501  502 -0.00000000000E+00 -0.00000000000E+00 -0.18805205395E+03  0.18805205395E+03  0.00000000000E+00 0. -1.
         25    1    1    2    0    0  0.60046179143E+02  0.22228654662E+03  0.11189678891E+03  0.28489075767E+03  0.12500000000E+03 0.  0.
         25    1    1    2    0    0  0.30045733254E+02 -0.37102017586E+02  0.18260044588E+02  0.13504715852E+03  0.12500000000E+03 0.  0.
         25    1    1    2    0    0 -0.90091912396E+02 -0.18518452904E+03  0.29298786550E+03  0.37931089070E+03  0.12500000000E+03 0.  0.
</event>
<event>
 5    0  0.5778875E-005  0.2589651E+03  0.7546771E-02  0.1107767E+00
         21   -1    0    0  502  501  0.00000000000E+00  0.00000000000E+00  0.54828201173E+02  0.54828201173E+02  0.00000000000E+00 0.  1.
         21   -1    0    0  501  502 -0.00000000000E+00 -0.00000000000E+00 -0.12231464932E+04  0.12231464932E+04  0.00000000000E+00 0.  1.
         25    1    1    2    0    0  0.19282140711E+02  0.38989766933E+02 -0.18245372470E+03  0.22540267197E+03  0.12500000000E+03 0.  0.
         25    1    1    2    0    0  0.57911866036E+02 -0.99547749132E+02 -0.26816930275E+03  0.31749537559E+03  0.12500000000E+03 0.  0.
         25    1    1    2    0    0 -0.77194006748E+02  0.60557982199E+02 -0.71769526462E+03  0.73507664685E+03  0.12500000000E+03 0.  0.
</event>
<event>
 5    0  0.5778875E-005  0.2438206E+03  0.7546771E-02  0.1117274E+00
         21   -1    0    0  502  501  0.00000000000E+00  0.00000000000E+00  0.87633833210E+03  0.87633833210E+03  0.00000000000E+00 0.  1.
         21   -1    0    0  501  502 -0.00000000000E+00 -0.00000000000E+00 -0.67837351856E+02  0.67837351856E+02  0.00000000000E+00 0.  1.
         25    1    1    2    0    0 -0.31867660281E+01 -0.92051551893E+02  0.37490501524E+03  0.40578616800E+03  0.12500000000E+03 0.  0.
         25    1    1    2    0    0 -0.54254650195E+02 -0.70195592077E+01  0.11911414012E+03  0.18112432100E+03  0.12500000000E+03 0.  0.
         25    1    1    2    0    0  0.57441416223E+02  0.99071111101E+02  0.31448182487E+03  0.35726519496E+03  0.12500000000E+03 0.  0.
</event>
<event>
 5    0  0.5778875E-005  0.2048833E+03  0.7546771E-02  0.1145683E+00
         21   -1    0    0  502  501  0.00000000000E+00  0.00000000000E+00  0.31770266821E+03  0.31770266821E+03  0.00000000000E+00 0. -1.
         21   -1    0    0  501  502 -0.00000000000E+00 -0.00000000000E+00 -0.13212726276E+03  0.13212726276E+03  0.00000000000E+00 0. -1.
         25    1    1    2    0    0 -0.18919764269E+02  0.18095636160E+02  0.11775196254E+03  0.17371221664E+03  0.12500000000E+03 0.  0.
         25    1    1    2    0    0  0.37775740189E+02  0.67019136008E+01  0.48449830178E+00  0.13075609711E+03  0.12500000000E+03 0.  0.
         25    1    1    2    0    0 -0.18855975920E+02 -0.24797549761E+02  0.67338944609E+02  0.14536161723E+03  0.12500000000E+03 0.  0.
</event>
<event>
 5    0  0.5778875E-005  0.9024735E+03  0.7546771E-02  0.9422495E-01
         21   -1    0    0  502  501  0.00000000000E+00  0.00000000000E+00  0.47556087628E+03  0.47556087628E+03  0.00000000000E+00 0.  1.
         21   -1    0    0  501  502 -0.00000000000E+00 -0.00000000000E+00 -0.17126270251E+04  0.17126270251E+04  0.00000000000E+00 0.  1.
         25    1    1    2    0    0 -0.15862777089E+03 -0.40629734207E+03  0.29156788641E+03  0.53933026269E+03  0.12500000000E+03 0.  0.
         25    1    1    2    0    0  0.12353671315E+03  0.41442353436E+03 -0.13788545313E+04  0.14504733724E+04  0.12500000000E+03 0.  0.
         25    1    1    2    0    0  0.35091057743E+02 -0.81261922920E+01 -0.14977950384E+03  0.19838426627E+03  0.12500000000E+03 0.  0.
</event>
<event>
 5    0  0.5778875E-005  0.2758747E+03  0.7546771E-02  0.1097964E+00
         21   -1    0    0  502  501  0.00000000000E+00  0.00000000000E+00  0.30481023199E+02  0.30481023199E+02  0.00000000000E+00 0.  1.
         21   -1    0    0  501  502 -0.00000000000E+00 -0.00000000000E+00 -0.24968604834E+04  0.24968604834E+04  0.00000000000E+00 0.  1.
         25    1    1    2    0    0 -0.22361612502E+02 -0.61570406959E+02 -0.11739932081E+04  0.11824449287E+04  0.12500000000E+03 0.  0.
         25    1    1    2    0    0 -0.94751332563E+02  0.44788895164E+02 -0.34026863871E+03  0.37734812394E+03  0.12500000000E+03 0.  0.
         25    1    1    2    0    0  0.11711294506E+03  0.16781511795E+02 -0.95211761345E+03  0.96754845402E+03  0.12500000000E+03 0.  0.
</event>
<event>
 5    0  0.5778875E-005  0.2345988E+03  0.7546771E-02  0.1123444E+00
         21   -1    0    0  502  501  0.00000000000E+00  0.00000000000E+00  0.12847060777E+03  0.12847060777E+03  0.00000000000E+00 0.  1.
         21   -1    0    0  501  502 -0.00000000000E+00 -0.00000000000E+00 -0.42839822856E+03  0.42839822856E+03  0.00000000000E+00 0.  1.
         25    1    1    2    0    0 -0.90425840453E+02  0.10312754065E+02 -0.68211615307E+02  0.16900002953E+03  0.12500000000E+03 0.  0.
         25    1    1    2    0    0  0.63586722963E+02 -0.27585274570E+02 -0.26344923432E+02  0.14533847977E+03  0.12500000000E+03 0.  0.
         25    1    1    2    0    0  0.26839117490E+02  0.17272520505E+02 -0.20537108205E+03  0.24253032704E+03  0.12500000000E+03 0.  0.
</event>
<event>
 5    0  0.5778875E-005  0.2090262E+03  0.7546771E-02  0.1142339E+00
         21   -1    0    0  502  501  0.00000000000E+00  0.00000000000E+00  0.24551321847E+02  0.24551321847E+02  0.00000000000E+00 0.  1.
         21   -1    0    0  501  502 -0.00000000000E+00 -0.00000000000E+00 -0.17796163997E+04  0.17796163997E+04  0.00000000000E+00 0.  1.
         25    1    1    2    0    0 -0.10895041012E+01  0.52228696255E+02 -0.36303792485E+03  0.38749265620E+03  0.12500000000E+03 0.  0.
         25    1    1    2    0    0 -0.25553133190E+02 -0.43929673196E+02 -0.69460900927E+03  0.70759413124E+03  0.12500000000E+03 0.  0.
         25    1    1    2    0    0  0.26642637291E+02 -0.82990230590E+01 -0.69741814368E+03  0.70908093405E+03  0.12500000000E+03 0.  0.
</event>
<event>
 5    0  0.5778875E-005  0.3293680E+03  0.7546771E-02  0.1071417E+00
         21   -1    0    0  502  501  0.00000000000E+00  0.00000000000E+00  0.13990533328E+03  0.13990533328E+03  0.00000000000E+00 0.  1.
         21   -1    0    0  501  502 -0.00000000000E+00 -0.00000000000E+00 -0.77540483887E+03  0.77540483887E+03  0.00000000000E+00 0.  1.
         25    1    1    2    0    0 -0.23238674523E+03 -0.69027049147E+02 -0.30243028418E+03  0.40725595105E+03  0.12500000000E+03 0.  0.
         25    1    1    2    0    0  0.19639953520E+03  0.84633452406E+02 -0.25519182102E+03  0.35564513803E+03  0.12500000000E+03 0.  0.
         25    1    1    2    0    0  0.35987210037E+02 -0.15606403259E+02 -0.77877400390E+02  0.15240908306E+03  0.12500000000E+03 0.  0.
</event>
<event>
 5    0  0.6854457E-005  0.4839211E+03  0.7546771E-02  0.1018063E+00
         21   -1    0    0  502  501  0.00000000000E+00  0.00000000000E+00  0.36970605207E+03  0.36970605207E+03  0.00000000000E+00 0.  1.
         21   -1    0    0  501  502 -0.00000000000E+00 -0.00000000000E+00 -0.63342121428E+03  0.63342121428E+03  0.00000000000E+00 0.  1.
         25    1    1    2    0    0  0.11847340417E+03  0.12894055124E+03  0.14024465728E+03  0.25681740039E+03  0.12500000000E+03 0.  0.
         25    1    1    2    0    0 -0.32625188705E+03 -0.82170918525E+02 -0.14111773215E+03  0.38565731937E+03  0.12500000000E+03 0.  0.
         25    1    1    2    0    0  0.20777848288E+03 -0.46769632713E+02 -0.26284208734E+03  0.36065254660E+03  0.12500000000E+03 0.  0.
</event>
<event>
 5    0  0.5778875E-005  0.2484166E+03  0.7546771E-02  0.1114310E+00
         21   -1    0    0  502  501  0.00000000000E+00  0.00000000000E+00  0.25882880848E+02  0.25882880848E+02  0.00000000000E+00 0. -1.
         21   -1    0    0  501  502 -0.00000000000E+00 -0.00000000000E+00 -0.23842330653E+04  0.23842330653E+04  0.00000000000E+00 0. -1.
         25    1    1    2    0    0 -0.57275104522E+02  0.20013144570E+02 -0.52259434098E+03  0.54075022772E+03  0.12500000000E+03 0.  0.
         25    1    1    2    0    0  0.13855779505E+03  0.34714871618E+02 -0.85351733607E+03  0.87436847373E+03  0.12500000000E+03 0.  0.
         25    1    1    2    0    0 -0.81282690531E+02 -0.54728016188E+02 -0.98223850737E+03  0.99499724467E+03  0.12500000000E+03 0.  0.
</event>
<event>
 5    0  0.6021779E-005  0.3412798E+03  0.7546771E-02  0.1066252E+00
         21   -1    0    0  502  501  0.00000000000E+00  0.00000000000E+00  0.84964776933E+02  0.84964776933E+02  0.00000000000E+00 0. -1.
         21   -1    0    0  501  502 -0.00000000000E+00 -0.00000000000E+00 -0.13708256850E+04  0.13708256850E+04  0.00000000000E+00 0. -1.
         25    1    1    2    0    0  0.16420351329E+03 -0.71539386497E+02 -0.32051314828E+03  0.38785868022E+03  0.12500000000E+03 0.  0.
         25    1    1    2    0    0 -0.89886303173E+02  0.72438743120E+01 -0.90470537131E+02  0.17872307994E+03  0.12500000000E+03 0.  0.
         25    1    1    2    0    0 -0.74317210117E+02  0.64295512185E+02 -0.87487722268E+03  0.88920870180E+03  0.12500000000E+03 0.  0.
</event>
<event>
 5    0  0.5778875E-005  0.2955956E+03  0.7546771E-02  0.1087463E+00
         21   -1    0    0  502  501  0.00000000000E+00  0.00000000000E+00  0.70037388632E+02  0.70037388632E+02  0.00000000000E+00 0. -1.
         21   -1    0    0  501  502 -0.00000000000E+00 -0.00000000000E+00 -0.12475733028E+04  0.12475733028E+04  0.00000000000E+00 0. -1.
         25    1    1    2    0    0  0.90474523530E+02 -0.60729000663E+01 -0.23350062616E+03  0.27994653408E+03  0.12500000000E+03 0.  0.
         25    1    1    2    0    0 -0.66991095097E+02  0.44762911064E+02 -0.91036396285E+02  0.17436785965E+03  0.12500000000E+03 0.  0.
         25    1    1    2    0    0 -0.23483428433E+02 -0.38690010997E+02 -0.85299889177E+03  0.86329629776E+03  0.12500000000E+03 0.  0.
</event>
<event>
 5    0  0.5778875E-005  0.3771878E+03  0.7546771E-02  0.1051978E+00
         21   -1    0    0  502  501  0.00000000000E+00  0.00000000000E+00  0.24867269538E+04  0.24867269538E+04  0.00000000000E+00 0. -1.
         21   -1    0    0  501  502 -0.00000000000E+00 -0.00000000000E+00 -0.57212004521E+02  0.57212004521E+02  0.00000000000E+00 0. -1.
         25    1    1    2    0    0  0.23096933427E+03 -0.21250960303E+03  0.10462454065E+04  0.10994369538E+04  0.12500000000E+03 0.  0.
         25    1    1    2    0    0 -0.46117783274E+02  0.69133529729E+02  0.45838325924E+03  0.48233443504E+03  0.12500000000E+03 0.  0.
         25    1    1    2    0    0 -0.18485155100E+03  0.14337607330E+03  0.92488628358E+03  0.96216756953E+03  0.12500000000E+03 0.  0.
</event>
<event>
 5    0  0.5778875E-005  0.2974822E+03  0.7546771E-02  0.1086506E+00
         21   -1    0    0  502  501  0.00000000000E+00  0.00000000000E+00  0.11310045808E+03  0.11310045808E+03  0.00000000000E+00 0.  1.
         21   -1    0    0  501  502 -0.00000000000E+00 -0.00000000000E+00 -0.78245207196E+03  0.78245207196E+03  0.00000000000E+00 0.  1.
         25    1    1    2    0    0  0.12564541965E+02  0.15467573379E+03 -0.13690152075E+03  0.24176326587E+03  0.12500000000E+03 0.  0.
         25    1    1    2    0    0 -0.48125997212E+02 -0.75686533575E+02 -0.46055002279E+03  0.48556759206E+03  0.12500000000E+03 0.  0.
         25    1    1    2    0    0  0.35561455247E+02 -0.78989200220E+02 -0.71900070339E+02  0.16822167210E+03  0.12500000000E+03 0.  0.
</event>
<event>
 5    0  0.5778875E-005  0.2662181E+03  0.7546771E-02  0.1103464E+00
         21   -1    0    0  502  501  0.00000000000E+00  0.00000000000E+00  0.20593173714E+03  0.20593173714E+03  0.00000000000E+00 0.  1.
         21   -1    0    0  501  502 -0.00000000000E+00 -0.00000000000E+00 -0.34415326105E+03  0.34415326105E+03  0.00000000000E+00 0.  1.
         25    1    1    2    0    0 -0.90870558108E+02 -0.11513796453E+03 -0.30692976916E+02  0.19514422369E+03  0.12500000000E+03 0.  0.
         25    1    1    2    0    0 -0.42244647536E+02  0.35268723851E+02 -0.23233981573E+02  0.13853992575E+03  0.12500000000E+03 0.  0.
         25    1    1    2    0    0  0.13311520564E+03  0.79869240683E+02 -0.84294565422E+02  0.21640084875E+03  0.12500000000E+03 0.  0.
</event>
<event>
 5    0  0.5778875E-005  0.2515544E+03  0.7546771E-02  0.1112326E+00
         21   -1    0    0  502  501  0.00000000000E+00  0.00000000000E+00  0.76593715401E+03  0.76593715401E+03  0.00000000000E+00 0.  1.
         21   -1    0    0  501  502 -0.00000000000E+00 -0.00000000000E+00 -0.82617272148E+02  0.82617272148E+02  0.00000000000E+00 0.  1.
         25    1    1    2    0    0  0.13237899446E+03  0.21349754493E+02  0.35876089913E+03  0.40288260441E+03  0.12500000000E+03 0.  0.
         25    1    1    2    0    0 -0.12691718733E+03 -0.20295952214E+02  0.17312639312E+03  0.24923411907E+03  0.12500000000E+03 0.  0.
         25    1    1    2    0    0 -0.54618071283E+01 -0.10538022790E+01  0.15143258962E+03  0.19643770268E+03  0.12500000000E+03 0.  0.
</event>
<event>
 5    0  0.5778875E-005  0.2477603E+03  0.7546771E-02  0.1114728E+00
         21   -1    0    0  502  501  0.00000000000E+00  0.00000000000E+00  0.35453701737E+03  0.35453701737E+03  0.00000000000E+00 0. -1.
         21   -1    0    0  501  502 -0.00000000000E+00 -0.00000000000E+00 -0.17314179722E+03  0.17314179722E+03  0.00000000000E+00 0. -1.
         25    1    1    2    0    0  0.84999735622E+01 -0.26879905351E+02  0.50014919385E+02  0.13755461106E+03  0.12500000000E+03 0.  0.
         25    1    1    2    0    0 -0.58535093715E+01  0.14453941724E+03  0.99424572249E+02  0.21549049231E+03  0.12500000000E+03 0.  0.
         25    1    1    2    0    0 -0.26464641906E+01 -0.11765951189E+03  0.31955728511E+02  0.17463371122E+03  0.12500000000E+03 0.  0.
</event>
<event>
 5    0  0.5778875E-005  0.2625049E+03  0.7546771E-02  0.1105647E+00
         21   -1    0    0  502  501  0.00000000000E+00  0.00000000000E+00  0.26905964789E+02  0.26905964789E+02  0.00000000000E+00 0. -1.
         21   -1    0    0  501  502 -0.00000000000E+00 -0.00000000000E+00 -0.25610989684E+04  0.25610989684E+04  0.00000000000E+00 0. -1.
         25    1    1    2    0    0  0.69753947115E+02 -0.12603944401E+03 -0.62320061356E+03  0.65173273612E+03  0.12500000000E+03 0.  0.
         25    1    1    2    0    0  0.19923612841E+02  0.34233787348E+02 -0.90542225811E+03  0.91486795114E+03  0.12500000000E+03 0.  0.
         25    1    1    2    0    0 -0.89677559956E+02  0.91805656661E+02 -0.10055701319E+04  0.10214042459E+04  0.12500000000E+03 0.  0.
</event>
<event>
 5    0  0.5778875E-005  0.3294276E+03  0.7546771E-02  0.1071390E+00
         21   -1    0    0  502  501  0.00000000000E+00  0.00000000000E+00  0.58075213515E+02  0.58075213515E+02  0.00000000000E+00 0.  1.
         21   -1    0    0  501  502 -0.00000000000E+00 -0.00000000000E+00 -0.18686554363E+04  0.18686554363E+04  0.00000000000E+00 0.  1.
         25    1    1    2    0    0  0.21974107399E+03 -0.12106989182E+02 -0.87514987322E+03  0.91101318288E+03  0.12500000000E+03 0.  0.
         25    1    1    2    0    0 -0.16815614765E+02 -0.18687985214E+02 -0.16406735884E+03  0.20778619764E+03  0.12500000000E+03 0.  0.
         25    1    1    2    0    0 -0.20292545923E+03  0.30794974396E+02 -0.77136299074E+03  0.80793126931E+03  0.12500000000E+03 0.  0.
</event>
<event>
 5    0  0.5778875E-005  0.2826985E+03  0.7546771E-02  0.1094224E+00
         21   -1    0    0  502  501  0.00000000000E+00  0.00000000000E+00  0.79009461768E+02  0.79009461768E+02  0.00000000000E+00 0. -1.
         21   -1    0    0  501  502 -0.00000000000E+00 -0.00000000000E+00 -0.10115044995E+04  0.10115044995E+04  0.00000000000E+00 0. -1.
         25    1    1    2    0    0  0.36868173034E+01  0.93117905953E+02 -0.27056887131E+03  0.31227720242E+03  0.12500000000E+03 0.  0.
         25    1    1    2    0    0  0.70072706192E+02 -0.21323956126E+02 -0.57794764037E+03  0.59582998436E+03  0.12500000000E+03 0.  0.
         25    1    1    2    0    0 -0.73759523495E+02 -0.71793949827E+02 -0.83978526049E+02  0.18240677448E+03  0.12500000000E+03 0.  0.
</event>
<event>
 5    0  0.5778875E-005  0.2437668E+03  0.7546771E-02  0.1117309E+00
         21   -1    0    0  502  501  0.00000000000E+00  0.00000000000E+00  0.27151090604E+03  0.27151090604E+03  0.00000000000E+00 0.  1.
         21   -1    0    0  501  502 -0.00000000000E+00 -0.00000000000E+00 -0.21885767888E+03  0.21885767888E+03  0.00000000000E+00 0.  1.
         25    1    1    2    0    0 -0.55019892334E+01 -0.43757851595E+02  0.11543812193E+03  0.17577252759E+03  0.12500000000E+03 0.  0.
         25    1    1    2    0    0 -0.57671129058E+02  0.44323689351E+02 -0.92160573229E+02  0.17149087388E+03  0.12500000000E+03 0.  0.
         25    1    1    2    0    0  0.63173118291E+02 -0.56583775667E+00  0.29375678459E+02  0.14310518346E+03  0.12500000000E+03 0.  0.
</event>
<event>
 5    0  0.5778875E-005  0.6122007E+03  0.7546771E-02  0.9880412E-01
         21   -1    0    0  502  501  0.00000000000E+00  0.00000000000E+00  0.20108937338E+03  0.20108937338E+03  0.00000000000E+00 0. -1.
         21   -1    0    0  501  502 -0.00000000000E+00 -0.00000000000E+00 -0.18637969184E+04  0.18637969184E+04  0.00000000000E+00 0. -1.
         25    1    1    2    0    0  0.23615209299E+03 -0.95309132393E+01 -0.52163222477E+03  0.58616024025E+03  0.12500000000E+03 0.  0.
         25    1    1    2    0    0 -0.29270250044E+03 -0.72236089492E+02 -0.12457324477E+04  0.12877760433E+04  0.12500000000E+03 0.  0.
         25    1    1    2    0    0  0.56550407453E+02  0.81767002732E+02  0.10465712747E+03  0.19095000824E+03  0.12500000000E+03 0.  0.
</event>
<event>
 5    0  0.5778875E-005  0.2630566E+03  0.7546771E-02  0.1105321E+00
         21   -1    0    0  502  501  0.00000000000E+00  0.00000000000E+00  0.37807390898E+02  0.37807390898E+02  0.00000000000E+00 0.  1.
         21   -1    0    0  501  502 -0.00000000000E+00 -0.00000000000E+00 -0.18302976703E+04  0.18302976703E+04  0.00000000000E+00 0.  1.
         25    1    1    2    0    0  0.19858715739E+02 -0.72157574020E+02 -0.21586916848E+03  0.26043345019E+03  0.12500000000E+03 0.  0.
         25    1    1    2    0    0  0.58696266361E+02 -0.36543786252E+01 -0.92447333523E+03  0.93473769247E+03  0.12500000000E+03 0.  0.
         25    1    1    2    0    0 -0.78554982099E+02  0.75811952646E+02 -0.65214777568E+03  0.67293391852E+03  0.12500000000E+03 0.  0.
</event>
<event>
 5    0  0.5778875E-005  0.4201776E+03  0.7546771E-02  0.1037009E+00
         21   -1    0    0  502  501  0.00000000000E+00  0.00000000000E+00  0.33493841030E+03  0.33493841030E+03  0.00000000000E+00 0. -1.
         21   -1    0    0  501  502 -0.00000000000E+00 -0.00000000000E+00 -0.52710957367E+03  0.52710957367E+03  0.00000000000E+00 0. -1.
         25    1    1    2    0    0  0.52571118412E+02 -0.72773422999E+02  0.10469944893E+03  0.18613615498E+03  0.12500000000E+03 0.  0.
         25    1    1    2    0    0 -0.11564600990E+03 -0.74327619808E+02  0.11371976517E+03  0.21784347514E+03  0.12500000000E+03 0.  0.
         25    1    1    2    0    0  0.63074891485E+02  0.14710104281E+03 -0.41059037746E+03  0.45806835385E+03  0.12500000000E+03 0.  0.
</event>
<event>
 5    0  0.5778875E-005  0.2477799E+03  0.7546771E-02  0.1114716E+00
         21   -1    0    0  502  501  0.00000000000E+00  0.00000000000E+00  0.21223606233E+04  0.21223606233E+04  0.00000000000E+00 0.  1.
         21   -1    0    0  501  502 -0.00000000000E+00 -0.00000000000E+00 -0.28927647406E+02  0.28927647406E+02  0.00000000000E+00 0.  1.
         25    1    1    2    0    0 -0.64969844604E+02  0.82907665347E+02  0.88053220372E+03  0.89557619635E+03  0.12500000000E+03 0.  0.
         25    1    1    2    0    0 -0.42653775080E+02 -0.82679148461E+02  0.69165384195E+03  0.70898887382E+03  0.12500000000E+03 0.  0.
         25    1    1    2    0    0  0.10762361968E+03 -0.22851688596E+00  0.52124693022E+03  0.54672320053E+03  0.12500000000E+03 0.  0.
</event>
<event>
 5    0  0.5778875E-005  0.2635835E+03  0.7546771E-02  0.1105009E+00
         21   -1    0    0  502  501  0.00000000000E+00  0.00000000000E+00  0.80607192487E+02  0.80607192487E+02  0.00000000000E+00 0. -1.
         21   -1    0    0  501  502 -0.00000000000E+00 -0.00000000000E+00 -0.86191131072E+03  0.86191131072E+03  0.00000000000E+00 0. -1.
         25    1    1    2    0    0  0.77741550397E+02 -0.66246939812E+02 -0.12426565211E+03  0.20371391211E+03  0.12500000000E+03 0.  0.
         25    1    1    2    0    0 -0.25087209024E+02 -0.65863828967E+02 -0.22191732976E+03  0.26427204406E+03  0.12500000000E+03 0.  0.
         25    1    1    2    0    0 -0.52654341373E+02  0.13211076878E+03 -0.43512113636E+03  0.47453254704E+03  0.12500000000E+03 0.  0.
</event>
<event>
 5    0  0.5778875E-005  0.2669081E+03  0.7546771E-02  0.1103062E+00
         21   -1    0    0  502  501  0.00000000000E+00  0.00000000000E+00  0.27589727696E+03  0.27589727696E+03  0.00000000000E+00 0.  1.
         21   -1    0    0  501  502 -0.00000000000E+00 -0.00000000000E+00 -0.25821185709E+03  0.25821185709E+03  0.00000000000E+00 0.  1.
         25    1    1    2    0    0  0.47923759436E+01  0.87602925860E+02 -0.49191665627E+02  0.16044332162E+03  0.12500000000E+03 0.  0.
         25    1    1    2    0    0  0.97291476716E+02 -0.25344602217E+02  0.11108877454E+03  0.19512482193E+03  0.12500000000E+03 0.  0.
         25    1    1    2    0    0 -0.10208385266E+03 -0.62258323643E+02 -0.44211689045E+02  0.17854099049E+03  0.12500000000E+03 0.  0.
</event>
<event>
 5    0  0.5778875E-005  0.3439312E+03  0.7546771E-02  0.1065134E+00
         21   -1    0    0  502  501  0.00000000000E+00  0.00000000000E+00  0.23818291360E+03  0.23818291360E+03  0.00000000000E+00 0.  1.
         21   -1    0    0  501  502 -0.00000000000E+00 -0.00000000000E+00 -0.49662960862E+03  0.49662960862E+03  0.00000000000E+00 0.  1.
         25    1    1    2    0    0 -0.13438004884E+03  0.32898153701E+02 -0.20955324307E+03  0.28049571783E+03  0.12500000000E+03 0.  0.
         25    1    1    2    0    0  0.92644229095E+02 -0.18551819961E+03 -0.68754216933E+02  0.25169842653E+03  0.12500000000E+03 0.  0.
         25    1    1    2    0    0  0.41735819746E+02  0.15262004591E+03  0.19860764980E+02  0.20261837787E+03  0.12500000000E+03 0.  0.
</event>
<event>
 5    0  0.5778875E-005  0.3754058E+03  0.7546771E-02  0.1052645E+00
         21   -1    0    0  502  501  0.00000000000E+00  0.00000000000E+00  0.30603602639E+02  0.30603602639E+02  0.00000000000E+00 0. -1.
         21   -1    0    0  501  502 -0.00000000000E+00 -0.00000000000E+00 -0.46049971015E+04  0.46049971015E+04  0.00000000000E+00 0. -1.
         25    1    1    2    0    0 -0.14205067340E+03  0.17873894244E+03 -0.12201713540E+04  0.12476253991E+04  0.12500000000E+03 0.  0.
         25    1    1    2    0    0  0.17093083187E+03  0.27300692166E+02 -0.20729119036E+04  0.20838789401E+04  0.12500000000E+03 0.  0.
         25    1    1    2    0    0 -0.28880158476E+02 -0.20603963461E+03 -0.12813102413E+04  0.13040963649E+04  0.12500000000E+03 0.  0.
</event>
<event>
 5    0  0.5778875E-005  0.3350164E+03  0.7546771E-02  0.1068939E+00
         21   -1    0    0  502  501  0.00000000000E+00  0.00000000000E+00  0.77600068951E+03  0.77600068951E+03  0.00000000000E+00 0. -1.
         21   -1    0    0  501  502 -0.00000000000E+00 -0.00000000000E+00 -0.14463387365E+03  0.14463387365E+03  0.00000000000E+00 0. -1.
         25    1    1    2    0    0  0.59299119430E+01  0.22242506183E+03  0.18653096550E+03  0.31611212105E+03  0.12500000000E+03 0.  0.
         25    1    1    2    0    0 -0.83832194530E+02 -0.21413168531E+03  0.27821084665E+03  0.38197708136E+03  0.12500000000E+03 0.  0.
         25    1    1    2    0    0  0.77902282587E+02 -0.82933765187E+01  0.16662500372E+03  0.22254536075E+03  0.12500000000E+03 0.  0.
</event>
<event>
 5    0  0.5778875E-005  0.2632533E+03  0.7546771E-02  0.1105204E+00
         21   -1    0    0  502  501  0.00000000000E+00  0.00000000000E+00  0.85554037696E+03  0.85554037696E+03  0.00000000000E+00 0.  1.
         21   -1    0    0  501  502 -0.00000000000E+00 -0.00000000000E+00 -0.81004107297E+02  0.81004107297E+02  0.00000000000E+00 0.  1.
         25    1    1    2    0    0 -0.56743499777E+02 -0.52109707814E+02  0.11999887628E+03  0.18963115968E+03  0.12500000000E+03 0.  0.
         25    1    1    2    0    0 -0.24965877610E+02 -0.46541929509E+02  0.47260765428E+03  0.49170361106E+03  0.12500000000E+03 0.  0.
         25    1    1    2    0    0  0.81709377387E+02  0.98651637323E+02  0.18192973911E+03  0.25520971351E+03  0.12500000000E+03 0.  0.
</event>
<event>
 5    0  0.5778875E-005  0.3187993E+03  0.7546771E-02  0.1076203E+00
         21   -1    0    0  502  501  0.00000000000E+00  0.00000000000E+00  0.86969087702E+03  0.86969087702E+03  0.00000000000E+00 0. -1.
         21   -1    0    0  501  502 -0.00000000000E+00 -0.00000000000E+00 -0.11686103104E+03  0.11686103104E+03  0.00000000000E+00 0. -1.
         25    1    1    2    0    0  0.19535018810E+03 -0.67967075953E+02  0.20954696651E+03  0.31986895845E+03  0.12500000000E+03 0.  0.
         25    1    1    2    0    0  0.19061448283E+02  0.19808113551E+02  0.23868085604E+03  0.27083066890E+03  0.12500000000E+03 0.  0.
         25    1    1    2    0    0 -0.21441163638E+03  0.48158962402E+02  0.30460202342E+03  0.39585228072E+03  0.12500000000E+03 0.  0.
</event>
<event>
 5    0  0.5778875E-005  0.2078219E+03  0.7546771E-02  0.1143302E+00
         21   -1    0    0  502  501  0.00000000000E+00  0.00000000000E+00  0.79867845667E+03  0.79867845667E+03  0.00000000000E+00 0.  1.
         21   -1    0    0  501  502 -0.00000000000E+00 -0.00000000000E+00 -0.54076767927E+02  0.54076767927E+02  0.00000000000E+00 0.  1.
         25    1    1    2    0    0  0.17827740975E+01 -0.44369857545E+02  0.24868378955E+03  0.28185189325E+03  0.12500000000E+03 0.  0.
         25    1    1    2    0    0 -0.47947476845E+02 -0.61706461192E+01  0.18080221162E+03  0.22505883039E+03  0.12500000000E+03 0.  0.
         25    1    1    2    0    0  0.46164702747E+02  0.50540503664E+02  0.31511568757E+03  0.34584450096E+03  0.12500000000E+03 0.  0.
</event>
<event>
 5    0  0.5778875E-005  0.3525619E+03  0.7546771E-02  0.1061568E+00
         21   -1    0    0  502  501  0.00000000000E+00  0.00000000000E+00  0.13915243541E+03  0.13915243541E+03  0.00000000000E+00 0.  1.
         21   -1    0    0  501  502 -0.00000000000E+00 -0.00000000000E+00 -0.89326397913E+03  0.89326397913E+03  0.00000000000E+00 0.  1.
         25    1    1    2    0    0 -0.12203070171E+03  0.80877197454E+02  0.61687152365E+01  0.19260235273E+03  0.12500000000E+03 0.  0.
         25    1    1    2    0    0  0.74454627009E+02  0.64976914774E+01 -0.58411172909E+03  0.60199437168E+03  0.12500000000E+03 0.  0.
         25    1    1    2    0    0  0.47576074703E+02 -0.87374888932E+02 -0.17616852986E+03  0.23781969013E+03  0.12500000000E+03 0.  0.
</event>
<event>
 5    0  0.7619349E-005  0.5703287E+03  0.7546771E-02  0.9968952E-01
         21   -1    0    0  502  501  0.00000000000E+00  0.00000000000E+00  0.65232763593E+03  0.65232763593E+03  0.00000000000E+00 0. -1.
         21   -1    0    0  501  502 -0.00000000000E+00 -0.00000000000E+00 -0.49863715441E+03  0.49863715441E+03  0.00000000000E+00 0. -1.
         25    1    1    2    0    0  0.20414605248E+03 -0.14327904741E+03 -0.18160340452E+03  0.33288029786E+03  0.12500000000E+03 0.  0.
         25    1    1    2    0    0 -0.50180739222E+02  0.29010553306E+03 -0.84782293061E+02  0.33089630418E+03  0.12500000000E+03 0.  0.
         25    1    1    2    0    0 -0.15396531326E+03 -0.14682648565E+03  0.42007617910E+03  0.48718818831E+03  0.12500000000E+03 0.  0.
</event>
<event>
 5    0  0.5778875E-005  0.2834165E+03  0.7546771E-02  0.1093837E+00
         21   -1    0    0  502  501  0.00000000000E+00  0.00000000000E+00  0.27167494720E+03  0.27167494720E+03  0.00000000000E+00 0. -1.
         21   -1    0    0  501  502 -0.00000000000E+00 -0.00000000000E+00 -0.29566541912E+03  0.29566541912E+03  0.00000000000E+00 0. -1.
         25    1    1    2    0    0 -0.46761642397E+02 -0.12993236103E+03 -0.71807120085E+02  0.19962547968E+03  0.12500000000E+03 0.  0.
         25    1    1    2    0    0 -0.52335143078E+02 -0.27991980552E+02  0.35780822934E+02  0.14292580406E+03  0.12500000000E+03 0.  0.
         25    1    1    2    0    0  0.99096785476E+02  0.15792434159E+03  0.12035825228E+02  0.22478908258E+03  0.12500000000E+03 0.  0.
</event>
<event>
 5    0  0.5778875E-005  0.3672027E+03  0.7546771E-02  0.1055768E+00
         21   -1    0    0  502  501  0.00000000000E+00  0.00000000000E+00  0.23814942256E+03  0.23814942256E+03  0.00000000000E+00 0. -1.
         21   -1    0    0  501  502 -0.00000000000E+00 -0.00000000000E+00 -0.56618991663E+03  0.56618991663E+03  0.00000000000E+00 0. -1.
         25    1    1    2    0    0  0.16140991782E+02 -0.10852235392E+03 -0.24213863932E+03  0.29375798469E+03  0.12500000000E+03 0.  0.
         25    1    1    2    0    0 -0.42364348915E+02  0.23995927857E+03  0.55095359161E+02  0.27934869255E+03  0.12500000000E+03 0.  0.
         25    1    1    2    0    0  0.26223357133E+02 -0.13143692465E+03 -0.14099721391E+03  0.23123266195E+03  0.12500000000E+03 0.  0.
</event>
<event>
 5    0  0.5778875E-005  0.2851869E+03  0.7546771E-02  0.1092889E+00
         21   -1    0    0  502  501  0.00000000000E+00  0.00000000000E+00  0.21746884460E+04  0.21746884460E+04  0.00000000000E+00 0.  1.
         21   -1    0    0  501  502 -0.00000000000E+00 -0.00000000000E+00 -0.37399192389E+02  0.37399192389E+02  0.00000000000E+00 0.  1.
         25    1    1    2    0    0 -0.14308247911E+03 -0.75523854173E+02  0.11702094365E+04  0.11879358458E+04  0.12500000000E+03 0.  0.
         25    1    1    2    0    0  0.47578765876E+02 -0.17456943775E+02  0.24900119624E+03  0.28318735773E+03  0.12500000000E+03 0.  0.
         25    1    1    2    0    0  0.95503713232E+02  0.92980797948E+02  0.71807862081E+03  0.74096443484E+03  0.12500000000E+03 0.  0.
</event>
<event>
 5    0  0.5778875E-005  0.3867382E+03  0.7546771E-02  0.1048471E+00
         21   -1    0    0  502  501  0.00000000000E+00  0.00000000000E+00  0.43190253230E+03  0.43190253230E+03  0.00000000000E+00 0.  1.
         21   -1    0    0  501  502 -0.00000000000E+00 -0.00000000000E+00 -0.34629674697E+03  0.34629674697E+03  0.00000000000E+00 0.  1.
         25    1    1    2    0    0 -0.24044671004E+03  0.14968834171E+03  0.17663108052E+03  0.35643338594E+03  0.12500000000E+03 0.  0.
         25    1    1    2    0    0  0.56251154702E+02 -0.11197928741E+03  0.34194915794E+01  0.17703176590E+03  0.12500000000E+03 0.  0.
         25    1    1    2    0    0  0.18419555533E+03 -0.37709054297E+02 -0.94444786767E+02  0.24473412743E+03  0.12500000000E+03 0.  0.
</event>
<event>
 5    0  0.5778875E-005  0.3235613E+03  0.7546771E-02  0.1074022E+00
         21   -1    0    0  502  501  0.00000000000E+00  0.00000000000E+00  0.78740728664E+03  0.78740728664E+03  0.00000000000E+00 0.  1.
         21   -1    0    0  501  502 -0.00000000000E+00 -0.00000000000E+00 -0.13295774184E+03  0.13295774184E+03  0.00000000000E+00 0.  1.
         25    1    1    2    0    0  0.10510694575E+03 -0.23887842039E+02  0.84225540985E+02  0.18530256554E+03  0.12500000000E+03 0.  0.
         25    1    1    2    0    0 -0.12323217786E+03  0.34150243390E+02  0.31426120070E+02  0.18156268837E+03  0.12500000000E+03 0.  0.
         25    1    1    2    0    0  0.18125232107E+02 -0.10262401351E+02  0.53879788374E+03  0.55349977457E+03  0.12500000000E+03 0.  0.
</event>
<event>
 5    0  0.5778875E-005  0.2730109E+03  0.7546771E-02  0.1099569E+00
         21   -1    0    0  502  501  0.00000000000E+00  0.00000000000E+00  0.14809404893E+03  0.14809404893E+03  0.00000000000E+00 0. -1.
         21   -1    0    0  501  502 -0.00000000000E+00 -0.00000000000E+00 -0.50329468034E+03  0.50329468034E+03  0.00000000000E+00 0. -1.
         25    1    1    2    0    0 -0.30202758303E+02  0.75612898458E+02 -0.36709613898E+02  0.15362979130E+03  0.12500000000E+03 0.  0.
         25    1    1    2    0    0  0.50889011729E+01  0.77587347985E+02 -0.24402367704E+03  0.28498815491E+03  0.12500000000E+03 0.  0.
         25    1    1    2    0    0  0.25113857130E+02 -0.15320024644E+03 -0.74467340470E+02  0.21277078307E+03  0.12500000000E+03 0.  0.
</event>
<event>
 5    0  0.5778875E-005  0.3170809E+03  0.7546771E-02  0.1077001E+00
         21   -1    0    0  502  501  0.00000000000E+00  0.00000000000E+00  0.39585320739E+03  0.39585320739E+03  0.00000000000E+00 0.  1.
         21   -1    0    0  501  502 -0.00000000000E+00 -0.00000000000E+00 -0.25398372435E+03  0.25398372435E+03  0.00000000000E+00 0.  1.
         25    1    1    2    0    0  0.15018119924E+03  0.88067100127E+00  0.56598476418E+02  0.20342948587E+03  0.12500000000E+03 0.  0.
         25    1    1    2    0    0  0.74143254401E+01  0.83124663257E+01 -0.10928589780E+03  0.16641056690E+03  0.12500000000E+03 0.  0.
         25    1    1    2    0    0 -0.15759552468E+03 -0.91931373270E+01  0.19455690442E+03  0.27999687897E+03  0.12500000000E+03 0.  0.
</event>
<event>
 5    0  0.5778875E-005  0.6091004E+03  0.7546771E-02  0.9886703E-01
         21   -1    0    0  502  501  0.00000000000E+00  0.00000000000E+00  0.69904078162E+03  0.69904078162E+03  0.00000000000E+00 0.  1.
         21   -1    0    0  501  502 -0.00000000000E+00 -0.00000000000E+00 -0.53073194637E+03  0.53073194637E+03  0.00000000000E+00 0.  1.
         25    1    1    2    0    0 -0.50787165096E+03 -0.30567533096E+02 -0.26426211345E+01  0.52392744858E+03  0.12500000000E+03 0.  0.
         25    1    1    2    0    0  0.49181140471E+03  0.10872435556E+03  0.19734418100E+03  0.55521992856E+03  0.12500000000E+03 0.  0.
         25    1    1    2    0    0  0.16060246250E+02 -0.78156822462E+02 -0.26392724610E+02  0.15062535085E+03  0.12500000000E+03 0.  0.
</event>
<event>
 5    0  0.5778875E-005  0.3596849E+03  0.7546771E-02  0.1058709E+00
         21   -1    0    0  502  501  0.00000000000E+00  0.00000000000E+00  0.12139895303E+03  0.12139895303E+03  0.00000000000E+00 0.  1.
         21   -1    0    0  501  502 -0.00000000000E+00 -0.00000000000E+00 -0.10656862406E+04  0.10656862406E+04  0.00000000000E+00 0.  1.
         25    1    1    2    0    0  0.19297199992E+03 -0.13176350705E+03 -0.25010646057E+03  0.36438723381E+03  0.12500000000E+03 0.  0.
         25    1    1    2    0    0 -0.26642874610E+02  0.17793358323E+03 -0.26759365790E+03  0.34583459711E+03  0.12500000000E+03 0.  0.
         25    1    1    2    0    0 -0.16632912531E+03 -0.46170076177E+02 -0.42658716906E+03  0.47686336268E+03  0.12500000000E+03 0.  0.
</event>
<event>
 5    0  0.5778875E-005  0.2270926E+03  0.7546771E-02  0.1128703E+00
         21   -1    0    0  502  501  0.00000000000E+00  0.00000000000E+00  0.44016630608E+03  0.44016630608E+03  0.00000000000E+00 0.  1.
         21   -1    0    0  501  502 -0.00000000000E+00 -0.00000000000E+00 -0.11716263044E+03  0.11716263044E+03  0.00000000000E+00 0.  1.
         25    1    1    2    0    0  0.82432592772E+02  0.43676827235E+02  0.66505670586E+02  0.16956061397E+03  0.12500000000E+03 0.  0.
         25    1    1    2    0    0 -0.15802536446E+02  0.48309053673E+00  0.54854308145E+02  0.13741888028E+03  0.12500000000E+03 0.  0.
         25    1    1    2    0    0 -0.66630056326E+02 -0.44159917772E+02  0.20164369691E+03  0.25034944228E+03  0.12500000000E+03 0.  0.
</event>
<event>
 5    0  0.5778875E-005  0.3033308E+03  0.7546771E-02  0.1083587E+00
         21   -1    0    0  502  501  0.00000000000E+00  0.00000000000E+00  0.21886657870E+03  0.21886657870E+03  0.00000000000E+00 0.  1.
         21   -1    0    0  501  502 -0.00000000000E+00 -0.00000000000E+00 -0.42039111772E+03  0.42039111772E+03  0.00000000000E+00 0.  1.
         25    1    1    2    0    0 -0.30434937736E+02  0.40210544221E+02 -0.21503501919E+03  0.25378777114E+03  0.12500000000E+03 0.  0.
         25    1    1    2    0    0  0.15942720359E+03 -0.17566922453E+02 -0.55620939275E+01  0.20342459757E+03  0.12500000000E+03 0.  0.
         25    1    1    2    0    0 -0.12899226585E+03 -0.22643621768E+02  0.19072574092E+02  0.18204532771E+03  0.12500000000E+03 0.  0.
</event>
<event>
 5    0  0.5778875E-005  0.2738592E+03  0.7546771E-02  0.1099091E+00
         21   -1    0    0  502  501  0.00000000000E+00  0.00000000000E+00  0.19925577609E+03  0.19925577609E+03  0.00000000000E+00 0.  1.
         21   -1    0    0  501  502 -0.00000000000E+00 -0.00000000000E+00 -0.37639498226E+03  0.37639498226E+03  0.00000000000E+00 0.  1.
         25    1    1    2    0    0 -0.80016627774E+02  0.11880166104E+03 -0.12392324339E+03  0.22693273373E+03  0.12500000000E+03 0.  0.
         25    1    1    2    0    0  0.32699611589E+02 -0.51673926209E+02 -0.12109631048E+03  0.18446890161E+03  0.12500000000E+03 0.  0.
         25    1    1    2    0    0  0.47317016185E+02 -0.67127734831E+02  0.67880347710E+02  0.16424912301E+03  0.12500000000E+03 0.  0.
</event>
<event>
 5    0  0.5778875E-005  0.3959797E+03  0.7546771E-02  0.1045181E+00
         21   -1    0    0  502  501  0.00000000000E+00  0.00000000000E+00  0.24269842743E+03  0.24269842743E+03  0.00000000000E+00 0.  1.
         21   -1    0    0  501  502 -0.00000000000E+00 -0.00000000000E+00 -0.64606888642E+03  0.64606888642E+03  0.00000000000E+00 0.  1.
         25    1    1    2    0    0 -0.45748121909E+00 -0.67734937768E+02 -0.19679231580E+03  0.24277653643E+03  0.12500000000E+03 0.  0.
         25    1    1    2    0    0 -0.24197318551E+03  0.14216822873E+03 -0.21310789942E+02  0.30796424717E+03  0.12500000000E+03 0.  0.
         25    1    1    2    0    0  0.24243066673E+03 -0.74433290965E+02 -0.18526735325E+03  0.33802653025E+03  0.12500000000E+03 0.  0.
</event>
<event>
 5    0  0.5778875E-005  0.3063961E+03  0.7546771E-02  0.1082086E+00
         21   -1    0    0  502  501  0.00000000000E+00  0.00000000000E+00  0.11884586817E+03  0.11884586817E+03  0.00000000000E+00 0.  1.
         21   -1    0    0  501  502 -0.00000000000E+00 -0.00000000000E+00 -0.78991885367E+03  0.78991885367E+03  0.00000000000E+00 0.  1.
         25    1    1    2    0    0  0.89909671928E+02  0.18814982763E+03 -0.14457589338E+03  0.28286267992E+03  0.12500000000E+03 0.  0.
         25    1    1    2    0    0 -0.75511685472E+02 -0.11411572470E+03 -0.35667738921E+03  0.40195543688E+03  0.12500000000E+03 0.  0.
         25    1    1    2    0    0 -0.14397986456E+02 -0.74034102930E+02 -0.16981970292E+03  0.22394660504E+03  0.12500000000E+03 0.  0.
</event>
<event>
 5    0  0.5778875E-005  0.3157741E+03  0.7546771E-02  0.1077611E+00
         21   -1    0    0  502  501  0.00000000000E+00  0.00000000000E+00  0.74427814181E+02  0.74427814181E+02  0.00000000000E+00 0.  1.
         21   -1    0    0  501  502 -0.00000000000E+00 -0.00000000000E+00 -0.13397317592E+04  0.13397317592E+04  0.00000000000E+00 0.  1.
         25    1    1    2    0    0 -0.45185567137E+02 -0.54031368633E+02 -0.12129419116E+03  0.18787869779E+03  0.12500000000E+03 0.  0.
         25    1    1    2    0    0 -0.13472405338E+03  0.85421603060E+02 -0.37748563853E+03  0.42844816270E+03  0.12500000000E+03 0.  0.
         25    1    1    2    0    0  0.17990962052E+03 -0.31390234427E+02 -0.76652411533E+03  0.79783271289E+03  0.12500000000E+03 0.  0.
</event>
<event>
 5    0  0.5778875E-005  0.5278293E+03  0.7546771E-02  0.1006760E+00
         21   -1    0    0  502  501  0.00000000000E+00  0.00000000000E+00  0.21222800578E+03  0.21222800578E+03  0.00000000000E+00 0.  1.
         21   -1    0    0  501  502 -0.00000000000E+00 -0.00000000000E+00 -0.13127570220E+04  0.13127570220E+04  0.00000000000E+00 0.  1.
         25    1    1    2    0    0  0.89926605138E+00  0.49172514691E+02 -0.89753381175E+01  0.13462652627E+03  0.12500000000E+03 0.  0.
         25    1    1    2    0    0  0.36749110907E+03  0.15670437583E+03 -0.58425312416E+03  0.71873687100E+03  0.12500000000E+03 0.  0.
         25    1    1    2    0    0 -0.36839037512E+03 -0.20587689052E+03 -0.50730055390E+03  0.67162163047E+03  0.12500000000E+03 0.  0.
</event>
<event>
 5    0  0.5778875E-005  0.6371461E+03  0.7546771E-02  0.9831202E-01
         21   -1    0    0  502  501  0.00000000000E+00  0.00000000000E+00  0.27920614447E+03  0.27920614447E+03  0.00000000000E+00 0. -1.
         21   -1    0    0  501  502 -0.00000000000E+00 -0.00000000000E+00 -0.14539621888E+04  0.14539621888E+04  0.00000000000E+00 0. -1.
         25    1    1    2    0    0  0.14750740371E+03  0.25320401543E+03 -0.44607175330E+03  0.54815665340E+03  0.12500000000E+03 0.  0.
         25    1    1    2    0    0  0.85323180597E+02 -0.11869603546E+03 -0.84490702197E+03  0.86652274624E+03  0.12500000000E+03 0.  0.
         25    1    1    2    0    0 -0.23283058430E+03 -0.13450797997E+03  0.11622273092E+03  0.31848893363E+03  0.12500000000E+03 0.  0.
</event>
<event>
 5    0  0.5778875E-005  0.2889174E+03  0.7546771E-02  0.1090916E+00
         21   -1    0    0  502  501  0.00000000000E+00  0.00000000000E+00  0.90202355386E+03  0.90202355386E+03  0.00000000000E+00 0.  1.
         21   -1    0    0  501  502 -0.00000000000E+00 -0.00000000000E+00 -0.92540018290E+02  0.92540018290E+02  0.00000000000E+00 0.  1.
         25    1    1    2    0    0  0.53718429321E+02  0.71182795961E+02  0.14465543567E+03  0.21095699836E+03  0.12500000000E+03 0.  0.
         25    1    1    2    0    0 -0.94754135884E+02 -0.18365611715E+03  0.39833890768E+03  0.46583988774E+03  0.12500000000E+03 0.  0.
         25    1    1    2    0    0  0.41035706563E+02  0.11247332119E+03  0.26648919223E+03  0.31776668606E+03  0.12500000000E+03 0.  0.
</event>
<event>
 5    0  0.5778875E-005  0.2571988E+03  0.7546771E-02  0.1108838E+00
         21   -1    0    0  502  501  0.00000000000E+00  0.00000000000E+00  0.23129326591E+04  0.23129326591E+04  0.00000000000E+00 0. -1.
         21   -1    0    0  501  502 -0.00000000000E+00 -0.00000000000E+00 -0.28600576859E+02  0.28600576859E+02  0.00000000000E+00 0. -1.
         25    1    1    2    0    0 -0.72528726138E+02 -0.12174521188E+03  0.12665745862E+04  0.12805930248E+04  0.12500000000E+03 0.  0.
         25    1    1    2    0    0  0.63543041749E+02  0.28593742885E+02  0.51222623078E+03  0.53184211171E+03  0.12500000000E+03 0.  0.
         25    1    1    2    0    0  0.89856843891E+01  0.93151468992E+02  0.50553126529E+03  0.52909809950E+03  0.12500000000E+03 0.  0.
</event>
<event>
 5    0  0.5778875E-005  0.2798302E+03  0.7546771E-02  0.1095782E+00
         21   -1    0    0  502  501  0.00000000000E+00  0.00000000000E+00  0.33163903860E+03  0.33163903860E+03  0.00000000000E+00 0. -1.
         21   -1    0    0  501  502 -0.00000000000E+00 -0.00000000000E+00 -0.23611504527E+03  0.23611504527E+03  0.00000000000E+00 0. -1.
         25    1    1    2    0    0 -0.10809063007E+03  0.13493370709E+03  0.80676798650E+02  0.22808865701E+03  0.12500000000E+03 0.  0.
         25    1    1    2    0    0  0.67563231841E+02 -0.62315852010E+02 -0.66617361987E+02  0.16885179486E+03  0.12500000000E+03 0.  0.
         25    1    1    2    0    0  0.40527398230E+02 -0.72617855080E+02  0.81464556666E+02  0.17081363200E+03  0.12500000000E+03 0.  0.
</event>
<event>
 5    0  0.5778875E-005  0.3607929E+03  0.7546771E-02  0.1058270E+00
         21   -1    0    0  502  501  0.00000000000E+00  0.00000000000E+00  0.65700210349E+03  0.65700210349E+03  0.00000000000E+00 0. -1.
         21   -1    0    0  501  502 -0.00000000000E+00 -0.00000000000E+00 -0.19812954149E+03  0.19812954149E+03  0.00000000000E+00 0.  1.
         25    1    1    2    0    0 -0.21481575045E+02 -0.15244366268E+03  0.22268006509E+03  0.29818105196E+03  0.12500000000E+03 0.  0.
         25    1    1    2    0    0  0.20960086092E+03  0.75030222544E+02  0.17787876900E+03  0.31117183622E+03  0.12500000000E+03 0.  0.
         25    1    1    2    0    0 -0.18811928588E+03  0.77413440140E+02  0.58313727909E+02  0.24577875680E+03  0.12500000000E+03 0.  0.
</event>
<event>
 5    0  0.5778875E-005  0.2551029E+03  0.7546771E-02  0.1110122E+00
         21   -1    0    0  502  501  0.00000000000E+00  0.00000000000E+00  0.15585321532E+04  0.15585321532E+04  0.00000000000E+00 0. -1.
         21   -1    0    0  501  502 -0.00000000000E+00 -0.00000000000E+00 -0.41755629011E+02  0.41755629011E+02  0.00000000000E+00 0. -1.
         25    1    1    2    0    0 -0.19387253114E+02  0.70352050730E+02  0.45024380769E+03  0.47293737744E+03  0.12500000000E+03 0.  0.
         25    1    1    2    0    0  0.18782944036E+02  0.29881442109E+02  0.15677222291E+03  0.20358838240E+03  0.12500000000E+03 0.  0.
         25    1    1    2    0    0  0.60430907746E+00 -0.10023349284E+03  0.90976049357E+03  0.92376202235E+03  0.12500000000E+03 0.  0.
</event>
<event>
 5    0  0.5778875E-005  0.3613199E+03  0.7546771E-02  0.1058062E+00
         21   -1    0    0  502  501  0.00000000000E+00  0.00000000000E+00  0.51313584512E+03  0.51313584512E+03  0.00000000000E+00 0.  1.
         21   -1    0    0  501  502 -0.00000000000E+00 -0.00000000000E+00 -0.25442011125E+03  0.25442011125E+03  0.00000000000E+00 0.  1.
         25    1    1    2    0    0  0.20168973172E+03 -0.70369461841E+02 -0.92788931557E+02  0.26432062889E+03  0.12500000000E+03 0.  0.
         25    1    1    2    0    0 -0.82548739780E+02  0.78646283820E+02  0.25270864658E+03  0.30411542620E+03  0.12500000000E+03 0.  0.
         25    1    1    2    0    0 -0.11914099194E+03 -0.82768219790E+01  0.98796018850E+02  0.19911990127E+03  0.12500000000E+03 0.  0.
</event>
<event>
 5    0  0.5778875E-005  0.2694911E+03  0.7546771E-02  0.1101571E+00
         21   -1    0    0  502  501  0.00000000000E+00  0.00000000000E+00  0.17770691722E+04  0.17770691722E+04  0.00000000000E+00 0.  1.
         21   -1    0    0  501  502 -0.00000000000E+00 -0.00000000000E+00 -0.40868114447E+02  0.40868114447E+02  0.00000000000E+00 0.  1.
         25    1    1    2    0    0  0.12321724998E+01  0.11401612915E+03  0.48567441783E+03  0.51430130866E+03  0.12500000000E+03 0.  0.
         25    1    1    2    0    0  0.82659813423E+02  0.33204275744E+02  0.62704749382E+03  0.64556078582E+03  0.12500000000E+03 0.  0.
         25    1    1    2    0    0 -0.83891985922E+02 -0.14722040489E+03  0.62347914608E+03  0.65807519215E+03  0.12500000000E+03 0.  0.
</event>
<event>
 5    0  0.5778875E-005  0.4490305E+03  0.7546771E-02  0.1028012E+00
         21   -1    0    0  502  501  0.00000000000E+00  0.00000000000E+00  0.26897908449E+03  0.26897908449E+03  0.00000000000E+00 0.  1.
         21   -1    0    0  501  502 -0.00000000000E+00 -0.00000000000E+00 -0.74960623991E+03  0.74960623991E+03  0.00000000000E+00 0.  1.
         25    1    1    2    0    0 -0.18276141840E+03 -0.68147975523E+02 -0.17168057884E+03  0.28834892713E+03  0.12500000000E+03 0.  0.
         25    1    1    2    0    0 -0.47459973433E+02  0.24640623243E+03  0.10166770977E+02  0.28052957721E+03  0.12500000000E+03 0.  0.
         25    1    1    2    0    0  0.23022139184E+03 -0.17825825691E+03 -0.31911334756E+03  0.44970682006E+03  0.12500000000E+03 0.  0.
</event>
<event>
 5    0  0.5778875E-005  0.3873806E+03  0.7546771E-02  0.1048239E+00
         21   -1    0    0  502  501  0.00000000000E+00  0.00000000000E+00  0.71609813408E+03  0.71609813408E+03  0.00000000000E+00 0. -1.
         21   -1    0    0  501  502 -0.00000000000E+00 -0.00000000000E+00 -0.20955745598E+03  0.20955745598E+03  0.00000000000E+00 0. -1.
         25    1    1    2    0    0 -0.45948590483E+02  0.71809813882E+02  0.20928105476E+03  0.25824694039E+03  0.12500000000E+03 0.  0.
         25    1    1    2    0    0  0.11501457201E+03  0.11733669315E+03  0.36636947170E+03  0.42053280625E+03  0.12500000000E+03 0.  0.
         25    1    1    2    0    0 -0.69065981522E+02 -0.18914650703E+03 -0.69109848372E+02  0.24687584343E+03  0.12500000000E+03 0.  0.
</event>
<event>
 5    0  0.5778875E-005  0.2768053E+03  0.7546771E-02  0.1097447E+00
         21   -1    0    0  502  501  0.00000000000E+00  0.00000000000E+00  0.89187310354E+03  0.89187310354E+03  0.00000000000E+00 0. -1.
         21   -1    0    0  501  502 -0.00000000000E+00 -0.00000000000E+00 -0.85910419186E+02  0.85910419186E+02  0.00000000000E+00 0. -1.
         25    1    1    2    0    0 -0.19113457797E+02  0.91343984764E+00  0.42368568255E+03  0.44215462933E+03  0.12500000000E+03 0.  0.
         25    1    1    2    0    0  0.99482210168E+02  0.10559886545E+03  0.17757413102E+03  0.26116164062E+03  0.12500000000E+03 0.  0.
         25    1    1    2    0    0 -0.80368752371E+02 -0.10651230530E+03  0.20470287078E+03  0.27446725277E+03  0.12500000000E+03 0.  0.
</event>
<event>
 5    0  0.5778875E-005  0.3476577E+03  0.7546771E-02  0.1063581E+00
         21   -1    0    0  502  501  0.00000000000E+00  0.00000000000E+00  0.29817595846E+03  0.29817595846E+03  0.00000000000E+00 0.  1.
         21   -1    0    0  501  502 -0.00000000000E+00 -0.00000000000E+00 -0.40535093389E+03  0.40535093389E+03  0.00000000000E+00 0.  1.
         25    1    1    2    0    0  0.22353519331E+03 -0.88090746803E+01 -0.21431337965E+03  0.33406706983E+03  0.12500000000E+03 0.  0.
         25    1    1    2    0    0 -0.88407491308E+02  0.47172929437E+02  0.17517507837E+02  0.16116151176E+03  0.12500000000E+03 0.  0.
         25    1    1    2    0    0 -0.13512770200E+03 -0.38363854756E+02  0.89620896382E+02  0.20829831077E+03  0.12500000000E+03 0.  0.
</event>
<event>
 5    0  0.5778875E-005  0.3881986E+03  0.7546771E-02  0.1047944E+00
         21   -1    0    0  502  501  0.00000000000E+00  0.00000000000E+00  0.57461762556E+03  0.57461762556E+03  0.00000000000E+00 0. -1.
         21   -1    0    0  501  502 -0.00000000000E+00 -0.00000000000E+00 -0.26225821239E+03  0.26225821239E+03  0.00000000000E+00 0. -1.
         25    1    1    2    0    0 -0.14234057020E+03  0.70467121736E+02  0.23971232464E+03  0.31354975961E+03  0.12500000000E+03 0.  0.
         25    1    1    2    0    0  0.20377790303E+03 -0.20435674645E+03 -0.64329111914E+01  0.31456874595E+03  0.12500000000E+03 0.  0.
         25    1    1    2    0    0 -0.61437332825E+02  0.13388962471E+03  0.79079999724E+02  0.20875733239E+03  0.12500000000E+03 0.  0.
</event>
<event>
 5    0  0.5778875E-005  0.1956842E+03  0.7546771E-02  0.1153432E+00
         21   -1    0    0  502  501  0.00000000000E+00  0.00000000000E+00  0.28282067403E+03  0.28282067403E+03  0.00000000000E+00 0. -1.
         21   -1    0    0  501  502 -0.00000000000E+00 -0.00000000000E+00 -0.13539433195E+03  0.13539433195E+03  0.00000000000E+00 0. -1.
         25    1    1    2    0    0  0.34212147559E+02 -0.13883807703E+02  0.34022612829E+02  0.13470623349E+03  0.12500000000E+03 0.  0.
         25    1    1    2    0    0 -0.77772805618E+01 -0.12714634733E+01  0.25861557770E+02  0.12789027673E+03  0.12500000000E+03 0.  0.
         25    1    1    2    0    0 -0.26434866997E+02  0.15155271176E+02  0.87542171481E+02  0.15561849577E+03  0.12500000000E+03 0.  0.
</event>
<event>
 5    0  0.5778875E-005  0.2852733E+03  0.7546771E-02  0.1092843E+00
         21   -1    0    0  502  501  0.00000000000E+00  0.00000000000E+00  0.25883892958E+03  0.25883892958E+03  0.00000000000E+00 0. -1.
         21   -1    0    0  501  502 -0.00000000000E+00 -0.00000000000E+00 -0.31440735170E+03  0.31440735170E+03  0.00000000000E+00 0. -1.
         25    1    1    2    0    0  0.15619834520E+03 -0.46989744387E+02 -0.13951142051E+03  0.24838356543E+03  0.12500000000E+03 0.  0.
         25    1    1    2    0    0 -0.10541827480E+03  0.63622795889E+02  0.27206212396E+02  0.17755576818E+03  0.12500000000E+03 0.  0.
         25    1    1    2    0    0 -0.50780070399E+02 -0.16633051501E+02  0.56736785986E+02  0.14730694768E+03  0.12500000000E+03 0.  0.
</event>
<event>
 5    0  0.5778875E-005  0.3225809E+03  0.7546771E-02  0.1074468E+00
         21   -1    0    0  502  501  0.00000000000E+00  0.00000000000E+00  0.32357500650E+03  0.32357500650E+03  0.00000000000E+00 0.  1.
         21   -1    0    0  501  502 -0.00000000000E+00 -0.00000000000E+00 -0.32158986528E+03  0.32158986528E+03  0.00000000000E+00 0.  1.
         25    1    1    2    0    0  0.56772040481E+01 -0.12830006703E+03 -0.94370890379E+02  0.20254382932E+03  0.12500000000E+03 0.  0.
         25    1    1    2    0    0 -0.17282501482E+02 -0.48702218752E+01 -0.10952070849E+03  0.16715917416E+03  0.12500000000E+03 0.  0.
         25    1    1    2    0    0  0.11605297434E+02  0.13317028890E+03  0.20587674009E+03  0.27546186830E+03  0.12500000000E+03 0.  0.
</event>
<event>
 5    0  0.5778875E-005  0.3090211E+03  0.7546771E-02  0.1080816E+00
         21   -1    0    0  502  501  0.00000000000E+00  0.00000000000E+00  0.54620575650E+03  0.54620575650E+03  0.00000000000E+00 0. -1.
         21   -1    0    0  501  502 -0.00000000000E+00 -0.00000000000E+00 -0.17483166037E+03  0.17483166037E+03  0.00000000000E+00 0. -1.
         25    1    1    2    0    0  0.92213485707E+02  0.58329860217E+02  0.34939412537E+03  0.38679058208E+03  0.12500000000E+03 0.  0.
         25    1    1    2    0    0  0.12059423108E+02  0.20289474696E+02  0.72668494750E+02  0.14650188599E+03  0.12500000000E+03 0.  0.
         25    1    1    2    0    0 -0.10427290882E+03 -0.78619334913E+02 -0.50688524001E+02  0.18774494880E+03  0.12500000000E+03 0.  0.
</event>
<event>
 5    0  0.5778875E-005  0.2434049E+03  0.7546771E-02  0.1117545E+00
         21   -1    0    0  502  501  0.00000000000E+00  0.00000000000E+00  0.18780409559E+04  0.18780409559E+04  0.00000000000E+00 0.  1.
         21   -1    0    0  501  502 -0.00000000000E+00 -0.00000000000E+00 -0.31546686593E+02  0.31546686593E+02  0.00000000000E+00 0.  1.
         25    1    1    2    0    0 -0.14331795802E+03  0.13948575449E+02  0.70995071068E+03  0.73511197204E+03  0.12500000000E+03 0.  0.
         25    1    1    2    0    0  0.10444227285E+03 -0.18055074160E+02  0.68410674965E+03  0.70346372968E+03  0.12500000000E+03 0.  0.
         25    1    1    2    0    0  0.38875685172E+02  0.41064987111E+01  0.45243680903E+03  0.47101194082E+03  0.12500000000E+03 0.  0.
</event>
<event>
 5    0  0.5778875E-005  0.3296964E+03  0.7546771E-02  0.1071271E+00
         21   -1    0    0  502  501  0.00000000000E+00  0.00000000000E+00  0.83896655654E+02  0.83896655654E+02  0.00000000000E+00 0. -1.
         21   -1    0    0  501  502 -0.00000000000E+00 -0.00000000000E+00 -0.12956381760E+04  0.12956381760E+04  0.00000000000E+00 0. -1.
         25    1    1    2    0    0  0.17619756052E+02  0.73829655279E+02 -0.46967313785E+02  0.15359753372E+03  0.12500000000E+03 0.  0.
         25    1    1    2    0    0  0.76470852379E+01 -0.63975857238E+02 -0.10321379762E+04  0.10416742245E+04  0.12500000000E+03 0.  0.
         25    1    1    2    0    0 -0.25266841290E+02 -0.98537980414E+01 -0.13263623042E+03  0.18426307341E+03  0.12500000000E+03 0.  0.
</event>
<event>
 5    0  0.5778875E-005  0.3082878E+03  0.7546771E-02  0.1081169E+00
         21   -1    0    0  502  501  0.00000000000E+00  0.00000000000E+00  0.32016519541E+03  0.32016519541E+03  0.00000000000E+00 0.  1.
         21   -1    0    0  501  502 -0.00000000000E+00 -0.00000000000E+00 -0.29685096019E+03  0.29685096019E+03  0.00000000000E+00 0.  1.
         25    1    1    2    0    0  0.71523697986E+00  0.40031688862E+02  0.51975442201E+02  0.14117186076E+03  0.12500000000E+03 0.  0.
         25    1    1    2    0    0  0.12389593578E+03  0.52962768211E+02 -0.15438575944E+03  0.24003170715E+03  0.12500000000E+03 0.  0.
         25    1    1    2    0    0 -0.12461117276E+03 -0.92994457073E+02  0.12572455245E+03  0.23581258769E+03  0.12500000000E+03 0.  0.
</event>
<event>
 5    0  0.5778875E-005  0.2688283E+03  0.7546771E-02  0.1101952E+00
         21   -1    0    0  502  501  0.00000000000E+00  0.00000000000E+00  0.14050151726E+03  0.14050151726E+03  0.00000000000E+00 0. -1.
         21   -1    0    0  501  502 -0.00000000000E+00 -0.00000000000E+00 -0.51436212999E+03  0.51436212999E+03  0.00000000000E+00 0. -1.
         25    1    1    2    0    0  0.11079046596E+03 -0.11706138559E+03 -0.22601873107E+03  0.30444599215E+03  0.12500000000E+03 0.  0.
         25    1    1    2    0    0 -0.14166082040E+02  0.10553729616E+02 -0.45941548326E+02  0.13434167243E+03  0.12500000000E+03 0.  0.
         25    1    1    2    0    0 -0.96624383925E+02  0.10650765597E+03 -0.10190033334E+03  0.21607598266E+03  0.12500000000E+03 0.  0.
</event>
<event>
 5    0  0.5778875E-005  0.4914162E+03  0.7546771E-02  0.1016044E+00
         21   -1    0    0  502  501  0.00000000000E+00  0.00000000000E+00  0.11368109700E+03  0.11368109700E+03  0.00000000000E+00 0. -1.
         21   -1    0    0  501  502 -0.00000000000E+00 -0.00000000000E+00 -0.21242749351E+04  0.21242749351E+04  0.00000000000E+00 0. -1.
         25    1    1    2    0    0  0.18800117119E+03 -0.18301115301E+03 -0.24750890050E+03  0.38173705391E+03  0.12500000000E+03 0.  0.
         25    1    1    2    0    0 -0.25627372421E+03  0.66970523893E+02 -0.15381742311E+04  0.15658116866E+04  0.12500000000E+03 0.  0.
         25    1    1    2    0    0  0.68272553014E+02  0.11604062912E+03 -0.22491070654E+03  0.29040729161E+03  0.12500000000E+03 0.  0.
</event>
<event>
 5    0  0.5778875E-005  0.2956939E+03  0.7546771E-02  0.1087413E+00
         21   -1    0    0  502  501  0.00000000000E+00  0.00000000000E+00  0.11904935115E+03  0.11904935115E+03  0.00000000000E+00 0. -1.
         21   -1    0    0  501  502 -0.00000000000E+00 -0.00000000000E+00 -0.73444213818E+03  0.73444213818E+03  0.00000000000E+00 0. -1.
         25    1    1    2    0    0  0.92006199778E+02  0.14556916716E+03 -0.85586122389E+02  0.22935890558E+03  0.12500000000E+03 0.  0.
         25    1    1    2    0    0 -0.97716369113E+01 -0.38948055523E+02 -0.31624905081E+03  0.34241918471E+03  0.12500000000E+03 0.  0.
         25    1    1    2    0    0 -0.82234562866E+02 -0.10662111163E+03 -0.21355761382E+03  0.28171339904E+03  0.12500000000E+03 0.  0.
</event>
<event>
 5    0  0.5778875E-005  0.2131565E+03  0.7546771E-02  0.1139090E+00
         21   -1    0    0  502  501  0.00000000000E+00  0.00000000000E+00  0.14591523409E+03  0.14591523409E+03  0.00000000000E+00 0.  1.
         21   -1    0    0  501  502 -0.00000000000E+00 -0.00000000000E+00 -0.31138422435E+03  0.31138422435E+03  0.00000000000E+00 0.  1.
         25    1    1    2    0    0 -0.44418767534E+01 -0.38011619500E+01 -0.69317880358E+02  0.14305295397E+03  0.12500000000E+03 0.  0.
         25    1    1    2    0    0 -0.30836060881E+02  0.27183793067E+02 -0.12237503474E+03  0.17969549350E+03  0.12500000000E+03 0.  0.
         25    1    1    2    0    0  0.35277937634E+02 -0.23382631117E+02  0.26223924829E+02  0.13455101098E+03  0.12500000000E+03 0.  0.
</event>
<event>
 5    0  0.5778875E-005  0.2223269E+03  0.7546771E-02  0.1132160E+00
         21   -1    0    0  502  501  0.00000000000E+00  0.00000000000E+00  0.22227546088E+03  0.22227546088E+03  0.00000000000E+00 0.  1.
         21   -1    0    0  501  502 -0.00000000000E+00 -0.00000000000E+00 -0.22237826271E+03  0.22237826271E+03  0.00000000000E+00 0.  1.
         25    1    1    2    0    0  0.22031596651E+02  0.88900063824E+02 -0.15459421773E+02  0.15573248319E+03  0.12500000000E+03 0.  0.
         25    1    1    2    0    0 -0.65929076642E+02 -0.40917191882E+02  0.16189119774E+02  0.14801333500E+03  0.12500000000E+03 0.  0.
         25    1    1    2    0    0  0.43897479991E+02 -0.47982871942E+02 -0.83249982613E+00  0.14090790540E+03  0.12500000000E+03 0.  0.
</event>
<event>
 5    0  0.5778875E-005  0.2681625E+03  0.7546771E-02  0.1102336E+00
         21   -1    0    0  502  501  0.00000000000E+00  0.00000000000E+00  0.54027085239E+02  0.54027085239E+02  0.00000000000E+00 0.  1.
         21   -1    0    0  501  502 -0.00000000000E+00 -0.00000000000E+00 -0.13310198878E+04  0.13310198878E+04  0.00000000000E+00 0.  1.
         25    1    1    2    0    0  0.49922290592E+02 -0.77863597313E+01 -0.45455905454E+03  0.47413267822E+03  0.12500000000E+03 0.  0.
         25    1    1    2    0    0 -0.34859362443E+02 -0.14397446176E+02 -0.75532603043E+03  0.76652780370E+03  0.12500000000E+03 0.  0.
         25    1    1    2    0    0 -0.15062928149E+02  0.22183805908E+02 -0.67107717553E+02  0.14438649107E+03  0.12500000000E+03 0.  0.
</event>
<event>
 5    0  0.5778875E-005  0.5151731E+03  0.7546771E-02  0.1009893E+00
         21   -1    0    0  502  501  0.00000000000E+00  0.00000000000E+00  0.16093990987E+04  0.16093990987E+04  0.00000000000E+00 0.  1.
         21   -1    0    0  501  502 -0.00000000000E+00 -0.00000000000E+00 -0.16490830472E+03  0.16490830472E+03  0.00000000000E+00 0.  1.
         25    1    1    2    0    0  0.35433285109E+03  0.48329173572E+02  0.19083497364E+03  0.42418211366E+03  0.12500000000E+03 0.  0.
         25    1    1    2    0    0 -0.34472968635E+03 -0.35946066809E+02  0.82932509127E+03  0.90748872356E+03  0.12500000000E+03 0.  0.
         25    1    1    2    0    0 -0.96031647433E+01 -0.12383106763E+02  0.42433072909E+03  0.44263656622E+03  0.12500000000E+03 0.  0.
</event>
<event>
 5    0  0.6348441E-005  0.3358985E+03  0.7546771E-02  0.1068556E+00
         21   -1    0    0  502  501  0.00000000000E+00  0.00000000000E+00  0.18119609446E+03  0.18119609446E+03  0.00000000000E+00 0.  1.
         21   -1    0    0  501  502 -0.00000000000E+00 -0.00000000000E+00 -0.62268355004E+03  0.62268355004E+03  0.00000000000E+00 0.  1.
         25    1    1    2    0    0  0.75848497157E+02 -0.94315213221E+02 -0.26044098963E+03  0.31321376573E+03  0.12500000000E+03 0.  0.
         25    1    1    2    0    0 -0.17325523787E+03 -0.44055312789E+02 -0.17590353724E+03  0.28022366504E+03  0.12500000000E+03 0.  0.
         25    1    1    2    0    0  0.97406740709E+02  0.13837052601E+03 -0.51429287163E+01  0.21044221373E+03  0.12500000000E+03 0.  0.
</event>
<event>
 5    0  0.5778875E-005  0.4606515E+03  0.7546771E-02  0.1024592E+00
         21   -1    0    0  502  501  0.00000000000E+00  0.00000000000E+00  0.36530041788E+03  0.36530041788E+03  0.00000000000E+00 0. -1.
         21   -1    0    0  501  502 -0.00000000000E+00 -0.00000000000E+00 -0.58089133431E+03  0.58089133431E+03  0.00000000000E+00 0. -1.
         25    1    1    2    0    0 -0.60144214860E+02  0.25920192255E+02 -0.55135042786E+02  0.15150595992E+03  0.12500000000E+03 0.  0.
         25    1    1    2    0    0  0.73256705406E+02  0.31018304313E+03  0.93721495604E+02  0.35494898771E+03  0.12500000000E+03 0.  0.
         25    1    1    2    0    0 -0.13112490546E+02 -0.33610323539E+03 -0.25417736925E+03  0.43973680456E+03  0.12500000000E+03 0.  0.
</event>
<event>
 5    0  0.6063115E-005  0.3603010E+03  0.7546771E-02  0.1058465E+00
         21   -1    0    0  502  501  0.00000000000E+00  0.00000000000E+00  0.40259657252E+03  0.40259657252E+03  0.00000000000E+00 0. -1.
         21   -1    0    0  501  502 -0.00000000000E+00 -0.00000000000E+00 -0.32244883367E+03  0.32244883367E+03  0.00000000000E+00 0. -1.
         25    1    1    2    0    0 -0.11491946167E+02 -0.12543396705E+03 -0.43848084972E+02  0.18279332447E+03  0.12500000000E+03 0.  0.
         25    1    1    2    0    0  0.10786093857E+03 -0.12392338637E+03  0.13546987679E+03  0.24691714254E+03  0.12500000000E+03 0.  0.
         25    1    1    2    0    0 -0.96368992405E+02  0.24935735342E+03 -0.11474052972E+02  0.29533493917E+03  0.12500000000E+03 0.  0.
</event>
<event>
 5    0  0.5778875E-005  0.2509732E+03  0.7546771E-02  0.1112691E+00
         21   -1    0    0  502  501  0.00000000000E+00  0.00000000000E+00  0.16641025869E+03  0.16641025869E+03  0.00000000000E+00 0.  1.
         21   -1    0    0  501  502 -0.00000000000E+00 -0.00000000000E+00 -0.37850757083E+03  0.37850757083E+03  0.00000000000E+00 0.  1.
         25    1    1    2    0    0 -0.82182245663E+02  0.89393379063E+02 -0.18091814849E+03  0.25120006803E+03  0.12500000000E+03 0.  0.
         25    1    1    2    0    0  0.68686560348E+02 -0.10969846136E+02 -0.26367878722E+02  0.14545943120E+03  0.12500000000E+03 0.  0.
         25    1    1    2    0    0  0.13495685316E+02 -0.78423532927E+02 -0.48112849193E+01  0.14825833029E+03  0.12500000000E+03 0.  0.
</event>
<event>
 5    0  0.5778875E-005  0.2406556E+03  0.7546771E-02  0.1119357E+00
         21   -1    0    0  502  501  0.00000000000E+00  0.00000000000E+00  0.41621757994E+03  0.41621757994E+03  0.00000000000E+00 0. -1.
         21   -1    0    0  501  502 -0.00000000000E+00 -0.00000000000E+00 -0.13914627039E+03  0.13914627039E+03  0.00000000000E+00 0. -1.
         25    1    1    2    0    0 -0.46833761226E+02  0.10185884910E+03  0.93133323095E+02  0.19200896386E+03  0.12500000000E+03 0.  0.
         25    1    1    2    0    0  0.83275551330E+02 -0.10421217059E+03  0.11550715540E+03  0.21624499277E+03  0.12500000000E+03 0.  0.
         25    1    1    2    0    0 -0.36441790103E+02  0.23533214886E+01  0.68430831056E+02  0.14710989371E+03  0.12500000000E+03 0.  0.
</event>
<event>
 5    0  0.5778875E-005  0.2619134E+03  0.7546771E-02  0.1105999E+00
         21   -1    0    0  502  501  0.00000000000E+00  0.00000000000E+00  0.60641643365E+03  0.60641643365E+03  0.00000000000E+00 0.  1.
         21   -1    0    0  501  502 -0.00000000000E+00 -0.00000000000E+00 -0.11312134757E+03  0.11312134757E+03  0.00000000000E+00 0.  1.
         25    1    1    2    0    0  0.27584605441E+02 -0.21617075172E+02  0.19101179975E+03  0.23095176128E+03  0.12500000000E+03 0.  0.
         25    1    1    2    0    0 -0.30271423946E+02 -0.11645248903E+03  0.23155080525E+03  0.28934117702E+03  0.12500000000E+03 0.  0.
         25    1    1    2    0    0  0.26868185052E+01  0.13806956420E+03  0.70732481085E+02  0.19924484293E+03  0.12500000000E+03 0.  0.
</event>
<event>
 5    0  0.5778875E-005  0.4412128E+03  0.7546771E-02  0.1030375E+00
         21   -1    0    0  502  501  0.00000000000E+00  0.00000000000E+00  0.67266042992E+02  0.67266042992E+02  0.00000000000E+00 0.  1.
         21   -1    0    0  501  502 -0.00000000000E+00 -0.00000000000E+00 -0.28940120502E+04  0.28940120502E+04  0.00000000000E+00 0. -1.
         25    1    1    2    0    0 -0.21409929049E+03 -0.27403143769E+03 -0.13782725650E+04  0.14269519959E+04  0.12500000000E+03 0.  0.
         25    1    1    2    0    0  0.86770136345E+02 -0.42494921352E+00 -0.71658140931E+03  0.73255931727E+03  0.12500000000E+03 0.  0.
         25    1    1    2    0    0  0.12732915415E+03  0.27445638691E+03 -0.73189203285E+03  0.80176678003E+03  0.12500000000E+03 0.  0.
</event>
<event>
 5    0  0.5778875E-005  0.2496220E+03  0.7546771E-02  0.1113544E+00
         21   -1    0    0  502  501  0.00000000000E+00  0.00000000000E+00  0.47399188701E+03  0.47399188701E+03  0.00000000000E+00 0.  1.
         21   -1    0    0  501  502 -0.00000000000E+00 -0.00000000000E+00 -0.13146040013E+03  0.13146040013E+03  0.00000000000E+00 0.  1.
         25    1    1    2    0    0  0.25651711209E+02  0.80192362395E+02  0.12007197950E+03  0.19269433187E+03  0.12500000000E+03 0.  0.
         25    1    1    2    0    0 -0.78827289095E+02 -0.93989819153E+02  0.31407306734E+02  0.17793045419E+03  0.12500000000E+03 0.  0.
         25    1    1    2    0    0  0.53175577886E+02  0.13797456758E+02  0.19105220065E+03  0.23482750109E+03  0.12500000000E+03 0.  0.
</event>
<event>
 5    0  0.5778875E-005  0.3767482E+03  0.7546771E-02  0.1052142E+00
         21   -1    0    0  502  501  0.00000000000E+00  0.00000000000E+00  0.60495904479E+03  0.60495904479E+03  0.00000000000E+00 0. -1.
         21   -1    0    0  501  502 -0.00000000000E+00 -0.00000000000E+00 -0.23462614830E+03  0.23462614830E+03  0.00000000000E+00 0. -1.
         25    1    1    2    0    0 -0.22666211104E+03 -0.11902424120E+02  0.49402955343E+02  0.26378595921E+03  0.12500000000E+03 0.  0.
         25    1    1    2    0    0  0.30442598004E+03 -0.77437289523E+01  0.21061997842E+03  0.39079523790E+03  0.12500000000E+03 0.  0.
         25    1    1    2    0    0 -0.77763869001E+02  0.19646153072E+02  0.11030996272E+03  0.18500399598E+03  0.12500000000E+03 0.  0.
</event>
<event>
 5    0  0.5778875E-005  0.3158054E+03  0.7546771E-02  0.1077596E+00
         21   -1    0    0  502  501  0.00000000000E+00  0.00000000000E+00  0.12305266388E+03  0.12305266388E+03  0.00000000000E+00 0. -1.
         21   -1    0    0  501  502 -0.00000000000E+00 -0.00000000000E+00 -0.81049053620E+03  0.81049053620E+03  0.00000000000E+00 0. -1.
         25    1    1    2    0    0 -0.13800954117E+03 -0.18075194843E+02 -0.45586870686E+02  0.19255261333E+03  0.12500000000E+03 0.  0.
         25    1    1    2    0    0  0.17302723935E+03  0.75280131856E+02 -0.35571743241E+03  0.42162236128E+03  0.12500000000E+03 0.  0.
         25    1    1    2    0    0 -0.35017698189E+02 -0.57204937013E+02 -0.28613356922E+03  0.31936822547E+03  0.12500000000E+03 0.  0.
</event>
<event>
 5    0  0.5778875E-005  0.4125930E+03  0.7546771E-02  0.1039504E+00
         21   -1    0    0  502  501  0.00000000000E+00  0.00000000000E+00  0.42041340526E+03  0.42041340526E+03  0.00000000000E+00 0. -1.
         21   -1    0    0  501  502 -0.00000000000E+00 -0.00000000000E+00 -0.40491814813E+03  0.40491814813E+03  0.00000000000E+00 0. -1.
         25    1    1    2    0    0 -0.21607375115E+03 -0.22548041682E+03  0.66734607449E+02  0.34293992497E+03  0.12500000000E+03 0.  0.
         25    1    1    2    0    0 -0.33943402535E+02  0.40432440185E+02  0.26537993685E+02  0.13826135362E+03  0.12500000000E+03 0.  0.
         25    1    1    2    0    0  0.25001715369E+03  0.18504797664E+03 -0.77777344008E+02  0.34413027480E+03  0.12500000000E+03 0.  0.
</event>
<event>
 5    0  0.5778875E-005  0.3236589E+03  0.7546771E-02  0.1073978E+00
         21   -1    0    0  502  501  0.00000000000E+00  0.00000000000E+00  0.10644927019E+04  0.10644927019E+04  0.00000000000E+00 0.  1.
         21   -1    0    0  501  502 -0.00000000000E+00 -0.00000000000E+00 -0.98408452583E+02  0.98408452583E+02  0.00000000000E+00 0.  1.
         25    1    1    2    0    0  0.38018865511E+02 -0.90311243419E+02  0.99322340073E+02  0.18732720587E+03  0.12500000000E+03 0.  0.
         25    1    1    2    0    0 -0.12479899173E+03  0.58389546279E+02  0.77064350640E+03  0.79278026048E+03  0.12500000000E+03 0.  0.
         25    1    1    2    0    0  0.86780126223E+02  0.31921697141E+02  0.96118402850E+02  0.18279368814E+03  0.12500000000E+03 0.  0.
</event>
<event>
 5    0  0.5778875E-005  0.2580482E+03  0.7546771E-02  0.1108322E+00
         21   -1    0    0  502  501  0.00000000000E+00  0.00000000000E+00  0.53839282688E+03  0.53839282688E+03  0.00000000000E+00 0.  1.
         21   -1    0    0  501  502 -0.00000000000E+00 -0.00000000000E+00 -0.12368082563E+03  0.12368082563E+03  0.00000000000E+00 0.  1.
         25    1    1    2    0    0  0.17813788818E+02 -0.67019294807E+02  0.64548997962E+02  0.15684543374E+03  0.12500000000E+03 0.  0.
         25    1    1    2    0    0  0.82930686227E+02  0.33293786501E+02  0.29417591876E+03  0.33188920759E+03  0.12500000000E+03 0.  0.
         25    1    1    2    0    0 -0.10074447505E+03  0.33725508306E+02  0.55987084532E+02  0.17333901118E+03  0.12500000000E+03 0.  0.
</event>
<event>
 5    0  0.5778875E-005  0.4512558E+03  0.7546771E-02  0.1027348E+00
         21   -1    0    0  502  501  0.00000000000E+00  0.00000000000E+00  0.11883352502E+04  0.11883352502E+04  0.00000000000E+00 0. -1.
         21   -1    0    0  501  502 -0.00000000000E+00 -0.00000000000E+00 -0.17135889290E+03  0.17135889290E+03  0.00000000000E+00 0. -1.
         25    1    1    2    0    0 -0.89685096936E+02 -0.22100254048E+03  0.47586724128E+03  0.54677250373E+03  0.12500000000E+03 0.  0.
         25    1    1    2    0    0  0.20968318959E+03  0.29198385648E+03  0.21564344431E+03  0.43743423222E+03  0.12500000000E+03 0.  0.
         25    1    1    2    0    0 -0.11999809266E+03 -0.70981315996E+02  0.32546567172E+03  0.37548740715E+03  0.12500000000E+03 0.  0.
</event>
<event>
 5    0  0.5778875E-005  0.2465360E+03  0.7546771E-02  0.1115514E+00
         21   -1    0    0  502  501  0.00000000000E+00  0.00000000000E+00  0.22465151533E+03  0.22465151533E+03  0.00000000000E+00 0. -1.
         21   -1    0    0  501  502 -0.00000000000E+00 -0.00000000000E+00 -0.27055226481E+03  0.27055226481E+03  0.00000000000E+00 0. -1.
         25    1    1    2    0    0 -0.29206730581E+02 -0.45430518353E+02 -0.23483920871E+02  0.13817908542E+03  0.12500000000E+03 0.  0.
         25    1    1    2    0    0 -0.75130865012E+00 -0.87071830716E+02 -0.68073820967E+02  0.16685656496E+03  0.12500000000E+03 0.  0.
         25    1    1    2    0    0  0.29958039231E+02  0.13250234907E+03  0.45656992357E+02  0.19016812975E+03  0.12500000000E+03 0.  0.
</event>
<event>
 5    0  0.5778875E-005  0.2342705E+03  0.7546771E-02  0.1123670E+00
         21   -1    0    0  502  501  0.00000000000E+00  0.00000000000E+00  0.40594505704E+02  0.40594505704E+02  0.00000000000E+00 0.  1.
         21   -1    0    0  501  502 -0.00000000000E+00 -0.00000000000E+00 -0.13519725428E+04  0.13519725428E+04  0.00000000000E+00 0.  1.
         25    1    1    2    0    0  0.76550914990E+02 -0.52074688054E+02 -0.44524716339E+03  0.47163741606E+03  0.12500000000E+03 0.  0.
         25    1    1    2    0    0 -0.11827278723E+03  0.29246530836E+02 -0.56703764564E+03  0.59329630315E+03  0.12500000000E+03 0.  0.
         25    1    1    2    0    0  0.41721872241E+02  0.22828157218E+02 -0.29909322807E+03  0.32763332929E+03  0.12500000000E+03 0.  0.
</event>
<event>
 5    0  0.5778875E-005  0.2769001E+03  0.7546771E-02  0.1097394E+00
         21   -1    0    0  502  501  0.00000000000E+00  0.00000000000E+00  0.34464905983E+02  0.34464905983E+02  0.00000000000E+00 0. -1.
         21   -1    0    0  501  502 -0.00000000000E+00 -0.00000000000E+00 -0.22246875106E+04  0.22246875106E+04  0.00000000000E+00 0. -1.
         25    1    1    2    0    0 -0.48890123411E+02  0.71573371285E+02 -0.10893002240E+04  0.10998695239E+04  0.12500000000E+03 0.  0.
         25    1    1    2    0    0  0.16430370686E+02  0.90397497971E+02 -0.43144477054E+03  0.45848800939E+03  0.12500000000E+03 0.  0.
         25    1    1    2    0    0  0.32459752725E+02 -0.16197086926E+03 -0.66947761002E+03  0.70079488323E+03  0.12500000000E+03 0.  0.
</event>
<event>
 5    0  0.5778875E-005  0.2554756E+03  0.7546771E-02  0.1109892E+00
         21   -1    0    0  502  501  0.00000000000E+00  0.00000000000E+00  0.11510820619E+04  0.11510820619E+04  0.00000000000E+00 0.  1.
         21   -1    0    0  501  502 -0.00000000000E+00 -0.00000000000E+00 -0.56701258963E+02  0.56701258963E+02  0.00000000000E+00 0.  1.
         25    1    1    2    0    0  0.15543475465E+03  0.20287018043E+02  0.32832114061E+03  0.38469637043E+03  0.12500000000E+03 0.  0.
         25    1    1    2    0    0 -0.45260135059E+02 -0.19731567991E+02  0.34635592145E+03  0.37151748132E+03  0.12500000000E+03 0.  0.
         25    1    1    2    0    0 -0.11017461960E+03 -0.55545005210E+00  0.41970374092E+03  0.45156946916E+03  0.12500000000E+03 0.  0.
</event>
<event>
 5    0  0.6246814E-005  0.3037145E+03  0.7546771E-02  0.1083398E+00
         21   -1    0    0  502  501  0.00000000000E+00  0.00000000000E+00  0.61941811047E+03  0.61941811047E+03  0.00000000000E+00 0. -1.
         21   -1    0    0  501  502 -0.00000000000E+00 -0.00000000000E+00 -0.14891801690E+03  0.14891801690E+03  0.00000000000E+00 0. -1.
         25    1    1    2    0    0  0.86592263812E+02 -0.62397239843E+02  0.26450754101E+03  0.31141752511E+03  0.12500000000E+03 0.  0.
         25    1    1    2    0    0 -0.13087587325E+03  0.16129065243E+03  0.12172995684E+03  0.27126804300E+03  0.12500000000E+03 0.  0.
         25    1    1    2    0    0  0.44283609439E+02 -0.98893412582E+02  0.84262595721E+02  0.18565055926E+03  0.12500000000E+03 0.  0.
</event>
<event>
 5    0  0.5778875E-005  0.3392201E+03  0.7546771E-02  0.1067129E+00
         21   -1    0    0  502  501  0.00000000000E+00  0.00000000000E+00  0.76136140190E+03  0.76136140190E+03  0.00000000000E+00 0.  1.
         21   -1    0    0  501  502 -0.00000000000E+00 -0.00000000000E+00 -0.15113753929E+03  0.15113753929E+03  0.00000000000E+00 0.  1.
         25    1    1    2    0    0 -0.16652232686E+03 -0.16522766009E+03  0.81345528964E+02  0.27797834463E+03  0.12500000000E+03 0.  0.
         25    1    1    2    0    0  0.78500311500E+02  0.88877431595E+02  0.20067295227E+03  0.26449221260E+03  0.12500000000E+03 0.  0.
         25    1    1    2    0    0  0.88022015362E+02  0.76350228491E+02  0.32820538137E+03  0.37002838396E+03  0.12500000000E+03 0.  0.
</event>
<event>
 5    0  0.5778875E-005  0.3406636E+03  0.7546771E-02  0.1066514E+00
         21   -1    0    0  502  501  0.00000000000E+00  0.00000000000E+00  0.62091256017E+02  0.62091256017E+02  0.00000000000E+00 0. -1.
         21   -1    0    0  501  502 -0.00000000000E+00 -0.00000000000E+00 -0.18690505353E+04  0.18690505353E+04  0.00000000000E+00 0. -1.
         25    1    1    2    0    0 -0.45532031182E+02 -0.75106084124E+02 -0.11600713820E+03  0.19182477903E+03  0.12500000000E+03 0.  0.
         25    1    1    2    0    0  0.11553699535E+03  0.27148330383E+01 -0.35447624580E+03  0.39323603148E+03  0.12500000000E+03 0.  0.
         25    1    1    2    0    0 -0.70004964164E+02  0.72391251085E+02 -0.13364758953E+04  0.13460809808E+04  0.12500000000E+03 0.  0.
</event>
<event>
 5    0  0.5778875E-005  0.3684338E+03  0.7546771E-02  0.1055293E+00
         21   -1    0    0  502  501  0.00000000000E+00  0.00000000000E+00  0.31878516811E+03  0.31878516811E+03  0.00000000000E+00 0. -1.
         21   -1    0    0  501  502 -0.00000000000E+00 -0.00000000000E+00 -0.42581484221E+03  0.42581484221E+03  0.00000000000E+00 0. -1.
         25    1    1    2    0    0  0.46699915871E+02  0.19741756236E+03 -0.22596638383E+03  0.32839059470E+03  0.12500000000E+03 0.  0.
         25    1    1    2    0    0  0.53722953695E+02 -0.16716984859E+03  0.21472288772E+01  0.21554935542E+03  0.12500000000E+03 0.  0.
         25    1    1    2    0    0 -0.10042286957E+03 -0.30247713769E+02  0.11678948085E+03  0.20066006020E+03  0.12500000000E+03 0.  0.
</event>
<event>
 5    0  0.6733343E-005  0.7663374E+03  0.7546771E-02  0.9610062E-01
         21   -1    0    0  502  501  0.00000000000E+00  0.00000000000E+00  0.51452008198E+03  0.51452008198E+03  0.00000000000E+00 0. -1.
         21   -1    0    0  501  502 -0.00000000000E+00 -0.00000000000E+00 -0.11413996811E+04  0.11413996811E+04  0.00000000000E+00 0. -1.
         25    1    1    2    0    0 -0.23673445053E+03 -0.43765933369E+03 -0.31280883735E+03  0.60088539769E+03  0.12500000000E+03 0.  0.
         25    1    1    2    0    0 -0.20427701297E+03  0.18892880552E+03 -0.42373356459E+03  0.52210949555E+03  0.12500000000E+03 0.  0.
         25    1    1    2    0    0  0.44101146349E+03  0.24873052817E+03  0.10966280282E+03  0.53292486984E+03  0.12500000000E+03 0.  0.
</event>
<event>
 5    0  0.5778875E-005  0.2271112E+03  0.7546771E-02  0.1128690E+00
         21   -1    0    0  502  501  0.00000000000E+00  0.00000000000E+00  0.12402306938E+04  0.12402306938E+04  0.00000000000E+00 0.  1.
         21   -1    0    0  501  502 -0.00000000000E+00 -0.00000000000E+00 -0.41588636443E+02  0.41588636443E+02  0.00000000000E+00 0.  1.
         25    1    1    2    0    0  0.54143865512E+02  0.24729375304E+02  0.28479856091E+03  0.31666752355E+03  0.12500000000E+03 0.  0.
         25    1    1    2    0    0 -0.69313195587E+02 -0.14570851939E+01  0.24074404251E+03  0.27998059966E+03  0.12500000000E+03 0.  0.
         25    1    1    2    0    0  0.15169330074E+02 -0.23272290110E+02  0.67309945398E+03  0.68517120708E+03  0.12500000000E+03 0.  0.
</event>
<event>
 5    0  0.5778875E-005  0.2776421E+03  0.7546771E-02  0.1096984E+00
         21   -1    0    0  502  501  0.00000000000E+00  0.00000000000E+00  0.33673946855E+03  0.33673946855E+03  0.00000000000E+00 0. -1.
         21   -1    0    0  501  502 -0.00000000000E+00 -0.00000000000E+00 -0.22891624099E+03  0.22891624099E+03  0.00000000000E+00 0. -1.
         25    1    1    2    0    0  0.42366187582E+02  0.19119600821E+00  0.12343069416E+03  0.18070712954E+03  0.12500000000E+03 0.  0.
         25    1    1    2    0    0  0.44358323383E+01  0.40326998890E+02 -0.14429059782E+03  0.19516844025E+03  0.12500000000E+03 0.  0.
         25    1    1    2    0    0 -0.46802019920E+02 -0.40518194898E+02  0.12868313121E+03  0.18978013976E+03  0.12500000000E+03 0.  0.
</event>
<event>
 5    0  0.5778875E-005  0.3154887E+03  0.7546771E-02  0.1077744E+00
         21   -1    0    0  502  501  0.00000000000E+00  0.00000000000E+00  0.45240180444E+02  0.45240180444E+02  0.00000000000E+00 0.  1.
         21   -1    0    0  501  502 -0.00000000000E+00 -0.00000000000E+00 -0.22001043000E+04  0.22001043000E+04  0.00000000000E+00 0.  1.
         25    1    1    2    0    0  0.73790259789E+02 -0.63086580500E+02 -0.19468340180E+03  0.25090146675E+03  0.12500000000E+03 0.  0.
         25    1    1    2    0    0  0.70642881752E+02  0.95055917622E+02 -0.81381210954E+03  0.83183002702E+03  0.12500000000E+03 0.  0.
         25    1    1    2    0    0 -0.14443314154E+03 -0.31969337122E+02 -0.11463686083E+04  0.11626129867E+04  0.12500000000E+03 0.  0.
</event>
<event>
 5    0  0.5778875E-005  0.3177886E+03  0.7546771E-02  0.1076672E+00
         21   -1    0    0  502  501  0.00000000000E+00  0.00000000000E+00  0.88632198986E+02  0.88632198986E+02  0.00000000000E+00 0.  1.
         21   -1    0    0  501  502 -0.00000000000E+00 -0.00000000000E+00 -0.11394232601E+04  0.11394232601E+04  0.00000000000E+00 0.  1.
         25    1    1    2    0    0 -0.78037200621E+02 -0.15676596154E+03 -0.29041883327E+03  0.36143252496E+03  0.12500000000E+03 0.  0.
         25    1    1    2    0    0 -0.83522670081E+02  0.14853292476E+03 -0.38498200228E+03  0.43917446218E+03  0.12500000000E+03 0.  0.
         25    1    1    2    0    0  0.16155987070E+03  0.82330367773E+01 -0.37539022553E+03  0.42744847191E+03  0.12500000000E+03 0.  0.
</event>
<event>
 5    0  0.5778875E-005  0.3729059E+03  0.7546771E-02  0.1053587E+00
         21   -1    0    0  502  501  0.00000000000E+00  0.00000000000E+00  0.89843054782E+02  0.89843054782E+02  0.00000000000E+00 0. -1.
         21   -1    0    0  501  502 -0.00000000000E+00 -0.00000000000E+00 -0.15477973136E+04  0.15477973136E+04  0.00000000000E+00 0. -1.
         25    1    1    2    0    0  0.10711535075E+03 -0.22640709919E+03 -0.88828334773E+03  0.93134643328E+03  0.12500000000E+03 0.  0.
         25    1    1    2    0    0 -0.12664533763E+03  0.28015098710E+02 -0.21242047508E+03  0.27851632902E+03  0.12500000000E+03 0.  0.
         25    1    1    2    0    0  0.19529986879E+02  0.19839200048E+03 -0.35725043605E+03  0.42777760612E+03  0.12500000000E+03 0.  0.
</event>
<event>
 5    0  0.5778875E-005  0.3958118E+03  0.7546771E-02  0.1045240E+00
         21   -1    0    0  502  501  0.00000000000E+00  0.00000000000E+00  0.41866903108E+03  0.41866903108E+03  0.00000000000E+00 0.  1.
         21   -1    0    0  501  502 -0.00000000000E+00 -0.00000000000E+00 -0.37420246411E+03  0.37420246411E+03  0.00000000000E+00 0.  1.
         25    1    1    2    0    0 -0.29149511731E+03 -0.10460380759E+03 -0.11072777772E+03  0.35184797958E+03  0.12500000000E+03 0.  0.
         25    1    1    2    0    0  0.12113435618E+03  0.15206023128E+02  0.23010805525E+02  0.17623635425E+03  0.12500000000E+03 0.  0.
         25    1    1    2    0    0  0.17036076113E+03  0.89397784464E+02  0.13218353916E+03  0.26478716136E+03  0.12500000000E+03 0.  0.
</event>
<event>
 5    0  0.5778875E-005  0.4113466E+03  0.7546771E-02  0.1039920E+00
         21   -1    0    0  502  501  0.00000000000E+00  0.00000000000E+00  0.61532442351E+02  0.61532442351E+02  0.00000000000E+00 0. -1.
         21   -1    0    0  501  502 -0.00000000000E+00 -0.00000000000E+00 -0.27498670687E+04  0.27498670687E+04  0.00000000000E+00 0. -1.
         25    1    1    2    0    0 -0.44865800917E+02  0.14353152236E+03 -0.55505083152E+03  0.58849015588E+03  0.12500000000E+03 0.  0.
         25    1    1    2    0    0 -0.21861554651E+03 -0.17834941197E+03 -0.79530310144E+03  0.85307285333E+03  0.12500000000E+03 0.  0.
         25    1    1    2    0    0  0.26348134743E+03  0.34817889610E+02 -0.13379806934E+04  0.13698365018E+04  0.12500000000E+03 0.  0.
</event>
<event>
 5    0  0.5778875E-005  0.2999612E+03  0.7546771E-02  0.1085260E+00
         21   -1    0    0  502  501  0.00000000000E+00  0.00000000000E+00  0.74749715999E+03  0.74749715999E+03  0.00000000000E+00 0.  1.
         21   -1    0    0  501  502 -0.00000000000E+00 -0.00000000000E+00 -0.12037065534E+03  0.12037065534E+03  0.00000000000E+00 0.  1.
         25    1    1    2    0    0 -0.32389260468E+02 -0.74595595454E+01 -0.30259940454E+01  0.12937876898E+03  0.12500000000E+03 0.  0.
         25    1    1    2    0    0 -0.64262780764E+02  0.11540659442E+03  0.39837885523E+03  0.43792590620E+03  0.12500000000E+03 0.  0.
         25    1    1    2    0    0  0.96652041232E+02 -0.10794703487E+03  0.23177364347E+03  0.30056314015E+03  0.12500000000E+03 0.  0.
</event>
<event>
 5    0  0.5778875E-005  0.4016425E+03  0.7546771E-02  0.1043212E+00
         21   -1    0    0  502  501  0.00000000000E+00  0.00000000000E+00  0.10543328838E+04  0.10543328838E+04  0.00000000000E+00 0. -1.
         21   -1    0    0  501  502 -0.00000000000E+00 -0.00000000000E+00 -0.15300358759E+03  0.15300358759E+03  0.00000000000E+00 0. -1.
         25    1    1    2    0    0 -0.13507043376E+03 -0.10119724655E+02  0.59123987076E+03  0.61930284649E+03  0.12500000000E+03 0.  0.
         25    1    1    2    0    0  0.14654832694E+03  0.12043938192E+03 -0.95199880124E+01  0.22737125372E+03  0.12500000000E+03 0.  0.
         25    1    1    2    0    0 -0.11477893183E+02 -0.11031965726E+03  0.31960941346E+03  0.36066237118E+03  0.12500000000E+03 0.  0.
</event>
<event>
 5    0  0.6028032E-005  0.2482059E+03  0.7546771E-02  0.1114444E+00
         21   -1    0    0  502  501  0.00000000000E+00  0.00000000000E+00  0.47788080740E+03  0.47788080740E+03  0.00000000000E+00 0. -1.
         21   -1    0    0  501  502 -0.00000000000E+00 -0.00000000000E+00 -0.12891539077E+03  0.12891539077E+03  0.00000000000E+00 0. -1.
         25    1    1    2    0    0  0.16870737122E+02 -0.11950065921E+03  0.49645083411E+02  0.18070601437E+03  0.12500000000E+03 0.  0.
         25    1    1    2    0    0  0.50989182875E+02  0.54959044944E+02  0.12483552205E+03  0.19190961664E+03  0.12500000000E+03 0.  0.
         25    1    1    2    0    0 -0.67859919997E+02  0.64541614264E+02  0.17448481117E+03  0.23418056717E+03  0.12500000000E+03 0.  0.
</event>
<event>
 5    0  0.5778875E-005  0.3212164E+03  0.7546771E-02  0.1075091E+00
         21   -1    0    0  502  501  0.00000000000E+00  0.00000000000E+00  0.84326738599E+03  0.84326738599E+03  0.00000000000E+00 0. -1.
         21   -1    0    0  501  502 -0.00000000000E+00 -0.00000000000E+00 -0.12235738345E+03  0.12235738345E+03  0.00000000000E+00 0. -1.
         25    1    1    2    0    0  0.14078305108E+02  0.62773546589E+02  0.21483538562E+03  0.25674493128E+03  0.12500000000E+03 0.  0.
         25    1    1    2    0    0 -0.11484528094E+03 -0.11316129861E+03  0.32865307122E+02  0.20663989564E+03  0.12500000000E+03 0.  0.
         25    1    1    2    0    0  0.10076697584E+03  0.50387752024E+02  0.47320930980E+03  0.50223994252E+03  0.12500000000E+03 0.  0.
</event>
<event>
 5    0  0.5778875E-005  0.3713235E+03  0.7546771E-02  0.1054188E+00
         21   -1    0    0  502  501  0.00000000000E+00  0.00000000000E+00  0.23982027042E+04  0.23982027042E+04  0.00000000000E+00 0.  1.
         21   -1    0    0  501  502 -0.00000000000E+00 -0.00000000000E+00 -0.57493541918E+02  0.57493541918E+02  0.00000000000E+00 0.  1.
         25    1    1    2    0    0 -0.26804674510E+02  0.39876736730E+02  0.58172594635E+03  0.59694113727E+03  0.12500000000E+03 0.  0.
         25    1    1    2    0    0  0.18770679601E+03 -0.19854539090E+02  0.25538962294E+03  0.34128712764E+03  0.12500000000E+03 0.  0.
         25    1    1    2    0    0 -0.16090212149E+03 -0.20022197640E+02  0.15035935930E+04  0.15174679812E+04  0.12500000000E+03 0.  0.
</event>
<event>
 5    0  0.5778875E-005  0.2581621E+03  0.7546771E-02  0.1108253E+00
         21   -1    0    0  502  501  0.00000000000E+00  0.00000000000E+00  0.12897684597E+03  0.12897684597E+03  0.00000000000E+00 0. -1.
         21   -1    0    0  501  502 -0.00000000000E+00 -0.00000000000E+00 -0.51674125426E+03  0.51674125426E+03  0.00000000000E+00 0. -1.
         25    1    1    2    0    0 -0.40814260457E+02  0.42660116007E+02 -0.12472379213E+03  0.18618999350E+03  0.12500000000E+03 0.  0.
         25    1    1    2    0    0 -0.38990741796E+02  0.76183440042E+02 -0.21585901372E+03  0.26371254860E+03  0.12500000000E+03 0.  0.
         25    1    1    2    0    0  0.79805002253E+02 -0.11884355605E+03 -0.47181602443E+02  0.19581555814E+03  0.12500000000E+03 0.  0.
</event>
<event>
 5    0  0.5778875E-005  0.2832346E+03  0.7546771E-02  0.1093935E+00
         21   -1    0    0  502  501  0.00000000000E+00  0.00000000000E+00  0.84693011036E+02  0.84693011036E+02  0.00000000000E+00 0. -1.
         21   -1    0    0  501  502 -0.00000000000E+00 -0.00000000000E+00 -0.94720706162E+03  0.94720706162E+03  0.00000000000E+00 0. -1.
         25    1    1    2    0    0 -0.79876804223E+02 -0.98983394728E+02 -0.36080667990E+03  0.40247295132E+03  0.12500000000E+03 0.  0.
         25    1    1    2    0    0  0.19653917040E+02  0.17445807344E+03 -0.23035870072E+03  0.31545526916E+03  0.12500000000E+03 0.  0.
         25    1    1    2    0    0  0.60222887183E+02 -0.75474678712E+02 -0.27134866996E+03  0.31397185217E+03  0.12500000000E+03 0.  0.
</event>
<event>
 5    0  0.5778875E-005  0.2568787E+03  0.7546771E-02  0.1109033E+00
         21   -1    0    0  502  501  0.00000000000E+00  0.00000000000E+00  0.35164698485E+03  0.35164698485E+03  0.00000000000E+00 0. -1.
         21   -1    0    0  501  502 -0.00000000000E+00 -0.00000000000E+00 -0.18765031264E+03  0.18765031264E+03  0.00000000000E+00 0. -1.
         25    1    1    2    0    0 -0.47101155979E+02 -0.13174333883E+03  0.14771056748E+03  0.23878491989E+03  0.12500000000E+03 0.  0.
         25    1    1    2    0    0 -0.24304104985E+01  0.44116986828E+02  0.39534621196E+02  0.13834811779E+03  0.12500000000E+03 0.  0.
         25    1    1    2    0    0  0.49531566478E+02  0.87626352007E+02 -0.23248516468E+02  0.16216425982E+03  0.12500000000E+03 0.  0.
</event>
<event>
 5    0  0.5778875E-005  0.2276073E+03  0.7546771E-02  0.1128335E+00
         21   -1    0    0  502  501  0.00000000000E+00  0.00000000000E+00  0.10385086939E+03  0.10385086939E+03  0.00000000000E+00 0. -1.
         21   -1    0    0  501  502 -0.00000000000E+00 -0.00000000000E+00 -0.49884096768E+03  0.49884096768E+03  0.00000000000E+00 0. -1.
         25    1    1    2    0    0 -0.83373966272E+02 -0.12298208856E+02 -0.13191426016E+03  0.20032183163E+03  0.12500000000E+03 0.  0.
         25    1    1    2    0    0 -0.22395216159E+02  0.49718995425E+02 -0.12334187214E+03  0.18387969337E+03  0.12500000000E+03 0.  0.
         25    1    1    2    0    0  0.10576918243E+03 -0.37420786569E+02 -0.13973396599E+03  0.21849031208E+03  0.12500000000E+03 0.  0.
</event>
<event>
 5    0  0.5778875E-005  0.3878103E+03  0.7546771E-02  0.1048084E+00
         21   -1    0    0  502  501  0.00000000000E+00  0.00000000000E+00  0.18451457604E+04  0.18451457604E+04  0.00000000000E+00 0.  1.
         21   -1    0    0  501  502 -0.00000000000E+00 -0.00000000000E+00 -0.81509438138E+02  0.81509438138E+02  0.00000000000E+00 0.  1.
         25    1    1    2    0    0 -0.31511364394E+02 -0.11659209329E+03  0.68884645309E+03  0.71043727255E+03  0.12500000000E+03 0.  0.
         25    1    1    2    0    0 -0.13675810179E+03  0.12155632381E+03  0.94272148356E+03  0.96841494920E+03  0.12500000000E+03 0.  0.
         25    1    1    2    0    0  0.16826946619E+03 -0.49642305192E+01  0.13206838566E+03  0.24780297683E+03  0.12500000000E+03 0.  0.
</event>
<event>
 5    0  0.5778875E-005  0.3139140E+03  0.7546771E-02  0.1078485E+00
         21   -1    0    0  502  501  0.00000000000E+00  0.00000000000E+00  0.14840238997E+04  0.14840238997E+04  0.00000000000E+00 0.  1.
         21   -1    0    0  501  502 -0.00000000000E+00 -0.00000000000E+00 -0.66401905293E+02  0.66401905293E+02  0.00000000000E+00 0.  1.
         25    1    1    2    0    0 -0.12914180410E+03 -0.78987545404E+02  0.87175368374E+03  0.89358610274E+03  0.12500000000E+03 0.  0.
         25    1    1    2    0    0 -0.48131477473E+01  0.12450428159E+03  0.26921384098E+03  0.32190926470E+03  0.12500000000E+03 0.  0.
         25    1    1    2    0    0  0.13395495185E+03 -0.45516736183E+02  0.27665446966E+03  0.33493043752E+03  0.12500000000E+03 0.  0.
</event>
<event>
 5    0  0.5778875E-005  0.5256156E+03  0.7546771E-02  0.1007301E+00
         21   -1    0    0  502  501  0.00000000000E+00  0.00000000000E+00  0.28521573091E+04  0.28521573091E+04  0.00000000000E+00 0.  1.
         21   -1    0    0  501  502 -0.00000000000E+00 -0.00000000000E+00 -0.96864140384E+02  0.96864140384E+02  0.00000000000E+00 0.  1.
         25    1    1    2    0    0  0.28493015848E+02 -0.17327493871E+03  0.12854917723E+04  0.13034378209E+04  0.12500000000E+03 0.  0.
         25    1    1    2    0    0 -0.30638444877E+02  0.25197881598E+02  0.14441571637E+04  0.14500995004E+04  0.12500000000E+03 0.  0.
         25    1    1    2    0    0  0.21454290286E+01  0.14807705711E+03  0.25644232736E+02  0.19548412821E+03  0.12500000000E+03 0.  0.
</event>
<event>
 5    0  0.5778875E-005  0.2892091E+03  0.7546771E-02  0.1090763E+00
         21   -1    0    0  502  501  0.00000000000E+00  0.00000000000E+00  0.51736014487E+02  0.51736014487E+02  0.00000000000E+00 0.  1.
         21   -1    0    0  501  502 -0.00000000000E+00 -0.00000000000E+00 -0.16167059781E+04  0.16167059781E+04  0.00000000000E+00 0.  1.
         25    1    1    2    0    0 -0.15853130998E+02 -0.11039406003E+03 -0.65366161222E+03  0.67478639105E+03  0.12500000000E+03 0.  0.
         25    1    1    2    0    0  0.87401034500E+02 -0.58887017708E+02 -0.27845142179E+03  0.32290372557E+03  0.12500000000E+03 0.  0.
         25    1    1    2    0    0 -0.71547903502E+02  0.16928107774E+03 -0.63285692959E+03  0.67075187596E+03  0.12500000000E+03 0.  0.
</event>
<event>
 5    0  0.5778875E-005  0.2748677E+03  0.7546771E-02  0.1098526E+00
         21   -1    0    0  502  501  0.00000000000E+00  0.00000000000E+00  0.76675980390E+02  0.76675980390E+02  0.00000000000E+00 0. -1.
         21   -1    0    0  501  502 -0.00000000000E+00 -0.00000000000E+00 -0.98534428287E+03  0.98534428287E+03  0.00000000000E+00 0. -1.
         25    1    1    2    0    0 -0.72990657768E+02 -0.93446168368E+02 -0.36197662268E+03  0.40088888470E+03  0.12500000000E+03 0.  0.
         25    1    1    2    0    0  0.55145288575E+02  0.17184714290E+03 -0.37012657537E+03  0.43033838450E+03  0.12500000000E+03 0.  0.
         25    1    1    2    0    0  0.17845369194E+02 -0.78400974533E+02 -0.17656510442E+03  0.23079299407E+03  0.12500000000E+03 0.  0.
</event>
<event>
 5    0  0.5778875E-005  0.2437458E+03  0.7546771E-02  0.1117322E+00
         21   -1    0    0  502  501  0.00000000000E+00  0.00000000000E+00  0.95114698960E+02  0.95114698960E+02  0.00000000000E+00 0.  1.
         21   -1    0    0  501  502 -0.00000000000E+00 -0.00000000000E+00 -0.62463522086E+03  0.62463522086E+03  0.00000000000E+00 0.  1.
         25    1    1    2    0    0  0.57084974409E+02 -0.17018429226E+02 -0.53776988854E+02  0.14854388499E+03  0.12500000000E+03 0.  0.
         25    1    1    2    0    0 -0.10165565302E+03 -0.23025959589E+02 -0.16916809886E+03  0.23474861507E+03  0.12500000000E+03 0.  0.
         25    1    1    2    0    0  0.44570678609E+02  0.40044388816E+02 -0.30657543418E+03  0.33645741976E+03  0.12500000000E+03 0.  0.
</event>
<event>
 5    0  0.5778875E-005  0.3504291E+03  0.7546771E-02  0.1062439E+00
         21   -1    0    0  502  501  0.00000000000E+00  0.00000000000E+00  0.34298735541E+03  0.34298735541E+03  0.00000000000E+00 0.  1.
         21   -1    0    0  501  502 -0.00000000000E+00 -0.00000000000E+00 -0.35803221207E+03  0.35803221207E+03  0.00000000000E+00 0.  1.
         25    1    1    2    0    0  0.39657962353E+02  0.44902670013E+02  0.18077600840E+03  0.22780247796E+03  0.12500000000E+03 0.  0.
         25    1    1    2    0    0 -0.43298184279E+02 -0.36551898535E+02 -0.28706776493E+03  0.31818811372E+03  0.12500000000E+03 0.  0.
         25    1    1    2    0    0  0.36402219252E+01 -0.83507714781E+01  0.91246899877E+02  0.15502897580E+03  0.12500000000E+03 0.  0.
</event>
<event>
 5    0  0.5778875E-005  0.3219824E+03  0.7546771E-02  0.1074741E+00
         21   -1    0    0  502  501  0.00000000000E+00  0.00000000000E+00  0.28056512494E+03  0.28056512494E+03  0.00000000000E+00 0.  1.
         21   -1    0    0  501  502 -0.00000000000E+00 -0.00000000000E+00 -0.36951372278E+03  0.36951372278E+03  0.00000000000E+00 0.  1.
         25    1    1    2    0    0 -0.11418913444E+03  0.81997676022E+02  0.11055854564E+03  0.21819937973E+03  0.12500000000E+03 0.  0.
         25    1    1    2    0    0  0.14198570631E+03 -0.32759142105E+01 -0.92713413322E+01  0.18942447092E+03  0.12500000000E+03 0.  0.
         25    1    1    2    0    0 -0.27796571870E+02 -0.78721761812E+02 -0.19023580215E+03  0.24245499708E+03  0.12500000000E+03 0.  0.
</event>
<event>
 5    0  0.5778875E-005  0.3856192E+03  0.7546771E-02  0.1048876E+00
         21   -1    0    0  502  501  0.00000000000E+00  0.00000000000E+00  0.76623137904E+02  0.76623137904E+02  0.00000000000E+00 0.  1.
         21   -1    0    0  501  502 -0.00000000000E+00 -0.00000000000E+00 -0.19406948501E+04  0.19406948501E+04  0.00000000000E+00 0.  1.
         25    1    1    2    0    0  0.11146622097E+03 -0.70877459782E+02 -0.29069789852E+03  0.34289736209E+03  0.12500000000E+03 0.  0.
         25    1    1    2    0    0  0.17651856219E+03 -0.17966753206E+02 -0.38385040810E+03  0.44096229183E+03  0.12500000000E+03 0.  0.
         25    1    1    2    0    0 -0.28798478316E+03  0.88844212988E+02 -0.11895234056E+04  0.12334583341E+04  0.12500000000E+03 0.  0.
</event>
<event>
 5    0  0.5778875E-005  0.3788489E+03  0.7546771E-02  0.1051360E+00
         21   -1    0    0  502  501  0.00000000000E+00  0.00000000000E+00  0.72124184158E+03  0.72124184158E+03  0.00000000000E+00 0. -1.
         21   -1    0    0  501  502 -0.00000000000E+00 -0.00000000000E+00 -0.19899911284E+03  0.19899911284E+03  0.00000000000E+00 0. -1.
         25    1    1    2    0    0  0.29306215051E+02 -0.73149986600E+02  0.18295414327E+03  0.23517438917E+03  0.12500000000E+03 0.  0.
         25    1    1    2    0    0 -0.18508350203E+02  0.26262430174E+03  0.18617381686E+02  0.29203713770E+03  0.12500000000E+03 0.  0.
         25    1    1    2    0    0 -0.10797864849E+02 -0.18947431514E+03  0.32067120378E+03  0.39302942755E+03  0.12500000000E+03 0.  0.
</event>
<event>
 5    0  0.5778875E-005  0.3558236E+03  0.7546771E-02  0.1060250E+00
         21   -1    0    0  502  501  0.00000000000E+00  0.00000000000E+00  0.33882313366E+03  0.33882313366E+03  0.00000000000E+00 0. -1.
         21   -1    0    0  501  502 -0.00000000000E+00 -0.00000000000E+00 -0.37367696552E+03  0.37367696552E+03  0.00000000000E+00 0. -1.
         25    1    1    2    0    0  0.42108122702E+02  0.17438827498E+03 -0.38287610336E+02  0.22198041705E+03  0.12500000000E+03 0.  0.
         25    1    1    2    0    0 -0.15056959809E+03 -0.21008865454E+02  0.12604224653E+03  0.23371825818E+03  0.12500000000E+03 0.  0.
         25    1    1    2    0    0  0.10846147539E+03 -0.15337940952E+03 -0.12260846806E+03  0.25680142396E+03  0.12500000000E+03 0.  0.
</event>
<event>
 5    0  0.5778875E-005  0.4036341E+03  0.7546771E-02  0.1042529E+00
         21   -1    0    0  502  501  0.00000000000E+00  0.00000000000E+00  0.28441326128E+03  0.28441326128E+03  0.00000000000E+00 0. -1.
         21   -1    0    0  501  502 -0.00000000000E+00 -0.00000000000E+00 -0.57283000715E+03  0.57283000715E+03  0.00000000000E+00 0. -1.
         25    1    1    2    0    0  0.12333920902E+03 -0.11272377716E+03 -0.10990899163E+02  0.20896174359E+03  0.12500000000E+03 0.  0.
         25    1    1    2    0    0  0.15728426907E+03  0.14701590655E+03 -0.22338356482E+03  0.33448054519E+03  0.12500000000E+03 0.  0.
         25    1    1    2    0    0 -0.28062347809E+03 -0.34292129392E+02 -0.54042281888E+02  0.31380097965E+03  0.12500000000E+03 0.  0.
</event>
<event>
 5    0  0.5778875E-005  0.4040932E+03  0.7546771E-02  0.1042372E+00
         21   -1    0    0  502  501  0.00000000000E+00  0.00000000000E+00  0.15723525300E+04  0.15723525300E+04  0.00000000000E+00 0. -1.
         21   -1    0    0  501  502 -0.00000000000E+00 -0.00000000000E+00 -0.10385157936E+03  0.10385157936E+03  0.00000000000E+00 0. -1.
         25    1    1    2    0    0 -0.92471371966E+02 -0.21796156457E+03  0.60878988220E+03  0.66506264286E+03  0.12500000000E+03 0.  0.
         25    1    1    2    0    0  0.16601791807E+03  0.76892608798E+02  0.74778232960E+03  0.77992168509E+03  0.12500000000E+03 0.  0.
         25    1    1    2    0    0 -0.73546546106E+02  0.14106895577E+03  0.11192873880E+03  0.23121978137E+03  0.12500000000E+03 0.  0.
</event>
<event>
 5    0  0.5778875E-005  0.2728636E+03  0.7546771E-02  0.1099652E+00
         21   -1    0    0  502  501  0.00000000000E+00  0.00000000000E+00  0.85856164196E+02  0.85856164196E+02  0.00000000000E+00 0. -1.
         21   -1    0    0  501  502 -0.00000000000E+00 -0.00000000000E+00 -0.86720072815E+03  0.86720072815E+03  0.00000000000E+00 0. -1.
         25    1    1    2    0    0  0.98132902718E+02  0.43608072190E+02 -0.38177009477E+03  0.41581863332E+03  0.12500000000E+03 0.  0.
         25    1    1    2    0    0  0.24183930967E+02 -0.83214715546E+02 -0.28896317188E+03  0.32654902557E+03  0.12500000000E+03 0.  0.
         25    1    1    2    0    0 -0.12231683368E+03  0.39606643356E+02 -0.11061129730E+03  0.21068923345E+03  0.12500000000E+03 0.  0.
</event>
<event>
 5    0  0.5778875E-005  0.3519734E+03  0.7546771E-02  0.1061808E+00
         21   -1    0    0  502  501  0.00000000000E+00  0.00000000000E+00  0.12000446444E+03  0.12000446444E+03  0.00000000000E+00 0. -1.
         21   -1    0    0  501  502 -0.00000000000E+00 -0.00000000000E+00 -0.10323389514E+04  0.10323389514E+04  0.00000000000E+00 0. -1.
         25    1    1    2    0    0 -0.19604321535E+03  0.12543341495E+03 -0.45660273750E+03  0.52752018327E+03  0.12500000000E+03 0.  0.
         25    1    1    2    0    0  0.23277417124E+02  0.24185065730E+02 -0.42296465383E+02  0.13616440995E+03  0.12500000000E+03 0.  0.
         25    1    1    2    0    0  0.17276579823E+03 -0.14961848068E+03 -0.41343528406E+03  0.48865882260E+03  0.12500000000E+03 0.  0.
</event>
<event>
 5    0  0.5778875E-005  0.2532969E+03  0.7546771E-02  0.1111239E+00
         21   -1    0    0  502  501  0.00000000000E+00  0.00000000000E+00  0.41167546688E+03  0.41167546688E+03  0.00000000000E+00 0. -1.
         21   -1    0    0  501  502 -0.00000000000E+00 -0.00000000000E+00 -0.15584932501E+03  0.15584932501E+03  0.00000000000E+00 0. -1.
         25    1    1    2    0    0  0.56955142026E+02 -0.20877767293E+02 -0.35126130890E+02  0.14331299467E+03  0.12500000000E+03 0.  0.
         25    1    1    2    0    0 -0.39278775688E+02  0.51931418119E+02  0.25158673479E+03  0.28837576099E+03  0.12500000000E+03 0.  0.
         25    1    1    2    0    0 -0.17676366338E+02 -0.31053650826E+02  0.39365537979E+02  0.13583603622E+03  0.12500000000E+03 0.  0.
</event>
<event>
 5    0  0.5778875E-005  0.2686383E+03  0.7546771E-02  0.1102061E+00
         21   -1    0    0  502  501  0.00000000000E+00  0.00000000000E+00  0.21710780615E+03  0.21710780615E+03  0.00000000000E+00 0. -1.
         21   -1    0    0  501  502 -0.00000000000E+00 -0.00000000000E+00 -0.33239945294E+03  0.33239945294E+03  0.00000000000E+00 0. -1.
         25    1    1    2    0    0 -0.94040316814E+01 -0.14558264683E+03 -0.11933537886E+03  0.22616072939E+03  0.12500000000E+03 0.  0.
         25    1    1    2    0    0  0.62151263348E+02  0.96532729999E+02  0.40613779208E+02  0.17451597795E+03  0.12500000000E+03 0.  0.
         25    1    1    2    0    0 -0.52747231667E+02  0.49049916832E+02 -0.36570047144E+02  0.14883055176E+03  0.12500000000E+03 0.  0.
</event>
<event>
 5    0  0.5778875E-005  0.3431218E+03  0.7546771E-02  0.1065474E+00
         21   -1    0    0  502  501  0.00000000000E+00  0.00000000000E+00  0.65693323149E+02  0.65693323149E+02  0.00000000000E+00 0. -1.
         21   -1    0    0  501  502 -0.00000000000E+00 -0.00000000000E+00 -0.17921541413E+04  0.17921541413E+04  0.00000000000E+00 0. -1.
         25    1    1    2    0    0 -0.40885028458E+02  0.18073644388E+03 -0.50815845123E+03  0.55514616027E+03  0.12500000000E+03 0.  0.
         25    1    1    2    0    0  0.23232465624E+02  0.28548921080E+02 -0.11870647119E+03  0.17626972133E+03  0.12500000000E+03 0.  0.
         25    1    1    2    0    0  0.17652562834E+02 -0.20928536496E+03 -0.10995958957E+04  0.11264315828E+04  0.12500000000E+03 0.  0.
</event>
<event>
 5    0  0.5778875E-005  0.3773844E+03  0.7546771E-02  0.1051905E+00
         21   -1    0    0  502  501  0.00000000000E+00  0.00000000000E+00  0.22816048346E+03  0.22816048346E+03  0.00000000000E+00 0.  1.
         21   -1    0    0  501  502 -0.00000000000E+00 -0.00000000000E+00 -0.62420534586E+03  0.62420534586E+03  0.00000000000E+00 0.  1.
         25    1    1    2    0    0  0.20827006883E+03  0.13791753851E+03 -0.18336257315E+03  0.33413246211E+03  0.12500000000E+03 0.  0.
         25    1    1    2    0    0 -0.16652352949E+03 -0.22508301828E+03 -0.18415489316E+03  0.35767370000E+03  0.12500000000E+03 0.  0.
         25    1    1    2    0    0 -0.41746539341E+02  0.87165479772E+02 -0.28527396085E+02  0.16055966722E+03  0.12500000000E+03 0.  0.
</event>
<event>
 5    0  0.5778875E-005  0.2931722E+03  0.7546771E-02  0.1088704E+00
         21   -1    0    0  502  501  0.00000000000E+00  0.00000000000E+00  0.29861761667E+03  0.29861761667E+03  0.00000000000E+00 0.  1.
         21   -1    0    0  501  502 -0.00000000000E+00 -0.00000000000E+00 -0.28782608515E+03  0.28782608515E+03  0.00000000000E+00 0.  1.
         25    1    1    2    0    0  0.41129134476E+02 -0.12910943623E+03 -0.66014095167E+02  0.19581550753E+03  0.12500000000E+03 0.  0.
         25    1    1    2    0    0 -0.11106184527E+03 -0.13694846167E+02 -0.15135776162E+02  0.16845288364E+03  0.12500000000E+03 0.  0.
         25    1    1    2    0    0  0.69932710792E+02  0.14280428240E+03  0.91941402851E+02  0.22217531066E+03  0.12500000000E+03 0.  0.
</event>
<event>
 5    0  0.5778875E-005  0.4297211E+03  0.7546771E-02  0.1033948E+00
         21   -1    0    0  502  501  0.00000000000E+00  0.00000000000E+00  0.16508709370E+03  0.16508709370E+03  0.00000000000E+00 0. -1.
         21   -1    0    0  501  502 -0.00000000000E+00 -0.00000000000E+00 -0.11185626537E+04  0.11185626537E+04  0.00000000000E+00 0. -1.
         25    1    1    2    0    0 -0.50401889705E+02  0.13590292066E+03 -0.14268929620E+03  0.23873665320E+03  0.12500000000E+03 0.  0.
         25    1    1    2    0    0  0.52415790755E+02 -0.75166009202E+01 -0.85058360067E+03  0.86134857992E+03  0.12500000000E+03 0.  0.
         25    1    1    2    0    0 -0.20139010491E+01 -0.12838631974E+03  0.39797336842E+02  0.18356451431E+03  0.12500000000E+03 0.  0.
</event>
<event>
 5    0  0.7507308E-005  0.2484748E+03  0.7546771E-02  0.1114273E+00
         21   -1    0    0  502  501  0.00000000000E+00  0.00000000000E+00  0.45765597639E+03  0.45765597639E+03  0.00000000000E+00 0.  1.
         21   -1    0    0  501  502 -0.00000000000E+00 -0.00000000000E+00 -0.13490425229E+03  0.13490425229E+03  0.00000000000E+00 0.  1.
         25    1    1    2    0    0 -0.59991869963E+02  0.38405394671E+00  0.17259649257E+03  0.22139042709E+03  0.12500000000E+03 0.  0.
         25    1    1    2    0    0  0.11833963118E+02 -0.32944575638E+01 -0.45880432283E+02  0.13371952064E+03  0.12500000000E+03 0.  0.
         25    1    1    2    0    0  0.48157906844E+02  0.29104036171E+01  0.19603566381E+03  0.23745028095E+03  0.12500000000E+03 0.  0.
</event>
<event>
 5    0  0.5778875E-005  0.3113887E+03  0.7546771E-02  0.1079682E+00
         21   -1    0    0  502  501  0.00000000000E+00  0.00000000000E+00  0.10867703656E+03  0.10867703656E+03  0.00000000000E+00 0. -1.
         21   -1    0    0  501  502 -0.00000000000E+00 -0.00000000000E+00 -0.89221172646E+03  0.89221172646E+03  0.00000000000E+00 0. -1.
         25    1    1    2    0    0  0.44251063988E+02 -0.60672372184E+01 -0.53687610741E+03  0.55304242400E+03  0.12500000000E+03 0.  0.
         25    1    1    2    0    0  0.15463576048E+02  0.63998288303E+02  0.19136464657E+02  0.14256965796E+03  0.12500000000E+03 0.  0.
         25    1    1    2    0    0 -0.59714640037E+02 -0.57931051084E+02 -0.26579504715E+03  0.30527668107E+03  0.12500000000E+03 0.  0.
</event>
<event>
 5    0  0.6058827E-005  0.3427425E+03  0.7546771E-02  0.1065634E+00
         21   -1    0    0  502  501  0.00000000000E+00  0.00000000000E+00  0.44410559785E+03  0.44410559785E+03  0.00000000000E+00 0. -1.
         21   -1    0    0  501  502 -0.00000000000E+00 -0.00000000000E+00 -0.26451465330E+03  0.26451465330E+03  0.00000000000E+00 0. -1.
         25    1    1    2    0    0 -0.15037060788E+03 -0.72750231484E+02  0.43896900653E+02  0.21320378463E+03  0.12500000000E+03 0.  0.
         25    1    1    2    0    0 -0.39104237039E+02  0.90986247991E+02 -0.82917158052E+02  0.17974396729E+03  0.12500000000E+03 0.  0.
         25    1    1    2    0    0  0.18947484492E+03 -0.18236016508E+02  0.21861120195E+03  0.31567249923E+03  0.12500000000E+03 0.  0.
</event>
<event>
 5    0  0.5778875E-005  0.2496996E+03  0.7546771E-02  0.1113495E+00
         21   -1    0    0  502  501  0.00000000000E+00  0.00000000000E+00  0.15121977313E+04  0.15121977313E+04  0.00000000000E+00 0. -1.
         21   -1    0    0  501  502 -0.00000000000E+00 -0.00000000000E+00 -0.41231312835E+02  0.41231312835E+02  0.00000000000E+00 0. -1.
         25    1    1    2    0    0  0.54299884766E+02 -0.24513933331E+02  0.99278604540E+03  0.10023963998E+04  0.12500000000E+03 0.  0.
         25    1    1    2    0    0  0.94775568809E+01 -0.17591761414E+00  0.16730398597E+03  0.20905855341E+03  0.12500000000E+03 0.  0.
         25    1    1    2    0    0 -0.63777441647E+02  0.24689850945E+02  0.31087638707E+03  0.34197409089E+03  0.12500000000E+03 0.  0.
</event>
<event>
 5    0  0.5778875E-005  0.3890899E+03  0.7546771E-02  0.1047624E+00
         21   -1    0    0  502  501  0.00000000000E+00  0.00000000000E+00  0.87458730475E+02  0.87458730475E+02  0.00000000000E+00 0. -1.
         21   -1    0    0  501  502 -0.00000000000E+00 -0.00000000000E+00 -0.17309991075E+04  0.17309991075E+04  0.00000000000E+00 0. -1.
         25    1    1    2    0    0 -0.52418117775E+02 -0.15446469951E+03 -0.31185572016E+03  0.37347823586E+03  0.12500000000E+03 0.  0.
         25    1    1    2    0    0 -0.15316897337E+03 -0.72102737656E+02 -0.34185254606E+03  0.40143206452E+03  0.12500000000E+03 0.  0.
         25    1    1    2    0    0  0.20558709115E+03  0.22656743716E+03 -0.98983211080E+03  0.10435475376E+04  0.12500000000E+03 0.  0.
</event>
<event>
 5    0  0.5778875E-005  0.2456429E+03  0.7546771E-02  0.1116090E+00
         21   -1    0    0  502  501  0.00000000000E+00  0.00000000000E+00  0.99565784275E+03  0.99565784275E+03  0.00000000000E+00 0. -1.
         21   -1    0    0  501  502 -0.00000000000E+00 -0.00000000000E+00 -0.60603595100E+02  0.60603595100E+02  0.00000000000E+00 0. -1.
         25    1    1    2    0    0 -0.10391624837E+02  0.22268245836E+02  0.16687015314E+03  0.20993929753E+03  0.12500000000E+03 0.  0.
         25    1    1    2    0    0  0.12911314591E+02  0.43376935400E+02  0.10822084480E+03  0.17142057000E+03  0.12500000000E+03 0.  0.
         25    1    1    2    0    0 -0.25196897547E+01 -0.65645181236E+02  0.65996324970E+03  0.67490157031E+03  0.12500000000E+03 0.  0.
</event>
<event>
 5    0  0.5778875E-005  0.3282548E+03  0.7546771E-02  0.1071912E+00
         21   -1    0    0  502  501  0.00000000000E+00  0.00000000000E+00  0.73154639768E+03  0.73154639768E+03  0.00000000000E+00 0.  1.
         21   -1    0    0  501  502 -0.00000000000E+00 -0.00000000000E+00 -0.14729241964E+03  0.14729241964E+03  0.00000000000E+00 0.  1.
         25    1    1    2    0    0 -0.17867003845E+03 -0.78119186346E+02  0.49668740247E+03  0.54804102555E+03  0.12500000000E+03 0.  0.
         25    1    1    2    0    0  0.10655500453E+03  0.48678584368E+02  0.55333136870E+02  0.18002869105E+03  0.12500000000E+03 0.  0.
         25    1    1    2    0    0  0.72115033916E+02  0.29440601978E+02  0.32233438702E+02  0.15076910072E+03  0.12500000000E+03 0.  0.
</event>
<event>
 5    0  0.5778875E-005  0.3330349E+03  0.7546771E-02  0.1069802E+00
         21   -1    0    0  502  501  0.00000000000E+00  0.00000000000E+00  0.25434679513E+03  0.25434679513E+03  0.00000000000E+00 0. -1.
         21   -1    0    0  501  502 -0.00000000000E+00 -0.00000000000E+00 -0.43606699616E+03  0.43606699616E+03  0.00000000000E+00 0. -1.
         25    1    1    2    0    0  0.73153541577E+02 -0.49490688633E+02 -0.10493343144E+02  0.15341407744E+03  0.12500000000E+03 0.  0.
         25    1    1    2    0    0  0.14487380455E+03 -0.92695481097E+02 -0.11870656790E+03  0.24351000128E+03  0.12500000000E+03 0.  0.
         25    1    1    2    0    0 -0.21802734613E+03  0.14218616973E+03 -0.52520289990E+02  0.29348971257E+03  0.12500000000E+03 0.  0.
</event>
<event>
 5    0  0.5778875E-005  0.4427398E+03  0.7546771E-02  0.1029909E+00
         21   -1    0    0  502  501  0.00000000000E+00  0.00000000000E+00  0.18333323097E+03  0.18333323097E+03  0.00000000000E+00 0.  1.
         21   -1    0    0  501  502 -0.00000000000E+00 -0.00000000000E+00 -0.10691923630E+04  0.10691923630E+04  0.00000000000E+00 0.  1.
         25    1    1    2    0    0 -0.19152481257E+03 -0.38594946974E+02 -0.50328460503E+03  0.55415856704E+03  0.12500000000E+03 0.  0.
         25    1    1    2    0    0  0.94535583838E+02  0.22360529627E+03 -0.36847911036E+02  0.27553416064E+03  0.12500000000E+03 0.  0.
         25    1    1    2    0    0  0.96989228737E+02 -0.18501034930E+03 -0.34572661600E+03  0.42283286633E+03  0.12500000000E+03 0.  0.
</event>
<event>
 5    0  0.5778875E-005  0.2650759E+03  0.7546771E-02  0.1104131E+00
         21   -1    0    0  502  501  0.00000000000E+00  0.00000000000E+00  0.17221849055E+04  0.17221849055E+04  0.00000000000E+00 0.  1.
         21   -1    0    0  501  502 -0.00000000000E+00 -0.00000000000E+00 -0.40800050851E+02  0.40800050851E+02  0.00000000000E+00 0.  1.
         25    1    1    2    0    0 -0.47281418237E+02 -0.26213252112E+02  0.62722523996E+03  0.64184045427E+03  0.12500000000E+03 0.  0.
         25    1    1    2    0    0  0.80563538768E+02 -0.11020452367E+03  0.64169451341E+03  0.66785654848E+03  0.12500000000E+03 0.  0.
         25    1    1    2    0    0 -0.33282120531E+02  0.13641777578E+03  0.41246510124E+03  0.45328795355E+03  0.12500000000E+03 0.  0.
</event>
<event>
 5    0  0.5778875E-005  0.2349110E+03  0.7546771E-02  0.1123230E+00
         21   -1    0    0  502  501  0.00000000000E+00  0.00000000000E+00  0.11596271720E+04  0.11596271720E+04  0.00000000000E+00 0.  1.
         21   -1    0    0  501  502 -0.00000000000E+00 -0.00000000000E+00 -0.47586983954E+02  0.47586983954E+02  0.00000000000E+00 0.  1.
         25    1    1    2    0    0  0.14544624988E+02 -0.30368715216E+02  0.15449189884E+03  0.20156029318E+03  0.12500000000E+03 0.  0.
         25    1    1    2    0    0  0.61338309106E+02 -0.24389847905E+02  0.33060010763E+03  0.35955345084E+03  0.12500000000E+03 0.  0.
         25    1    1    2    0    0 -0.75882934093E+02  0.54758563121E+02  0.62694818157E+03  0.64610041193E+03  0.12500000000E+03 0.  0.
</event>
<event>
 5    0  0.5778875E-005  0.2498610E+03  0.7546771E-02  0.1113393E+00
         21   -1    0    0  502  501  0.00000000000E+00  0.00000000000E+00  0.20017694403E+04  0.20017694403E+04  0.00000000000E+00 0. -1.
         21   -1    0    0  501  502 -0.00000000000E+00 -0.00000000000E+00 -0.31187674050E+02  0.31187674050E+02  0.00000000000E+00 0. -1.
         25    1    1    2    0    0  0.72976812562E+02  0.80777389154E+02  0.94710855872E+03  0.96150414651E+03  0.12500000000E+03 0.  0.
         25    1    1    2    0    0 -0.27283920249E+01 -0.11451946002E+03  0.56592687569E+03  0.59077946771E+03  0.12500000000E+03 0.  0.
         25    1    1    2    0    0 -0.70248420537E+02  0.33742070864E+02  0.45754633185E+03  0.48067350013E+03  0.12500000000E+03 0.  0.
</event>
<event>
 5    0  0.5778875E-005  0.2667683E+03  0.7546771E-02  0.1103144E+00
         21   -1    0    0  502  501  0.00000000000E+00  0.00000000000E+00  0.76729755934E+02  0.76729755934E+02  0.00000000000E+00 0.  1.
         21   -1    0    0  501  502 -0.00000000000E+00 -0.00000000000E+00 -0.92748023672E+03  0.92748023672E+03  0.00000000000E+00 0.  1.
         25    1    1    2    0    0 -0.80177444203E+01  0.75874119297E+02 -0.33099805288E+03  0.36194734039E+03  0.12500000000E+03 0.  0.
         25    1    1    2    0    0  0.12299839599E+03  0.21538817509E+02 -0.29802054223E+03  0.34645890040E+03  0.12500000000E+03 0.  0.
         25    1    1    2    0    0 -0.11498065157E+03 -0.97412936806E+02 -0.22173188568E+03  0.29580375187E+03  0.12500000000E+03 0.  0.
</event>
<event>
 5    0  0.5778875E-005  0.2840511E+03  0.7546771E-02  0.1093497E+00
         21   -1    0    0  502  501  0.00000000000E+00  0.00000000000E+00  0.16967216992E+03  0.16967216992E+03  0.00000000000E+00 0.  1.
         21   -1    0    0  501  502 -0.00000000000E+00 -0.00000000000E+00 -0.47553484428E+03  0.47553484428E+03  0.00000000000E+00 0.  1.
         25    1    1    2    0    0 -0.72630151173E+02  0.45197376897E+02 -0.13903929423E+03  0.20560852871E+03  0.12500000000E+03 0.  0.
         25    1    1    2    0    0  0.96756553754E+02 -0.97025654194E+01 -0.24074674390E+03  0.28816655803E+03  0.12500000000E+03 0.  0.
         25    1    1    2    0    0 -0.24126402581E+02 -0.35494811477E+02  0.73923363763E+02  0.15143192746E+03  0.12500000000E+03 0.  0.
</event>
<event>
 5    0  0.5778875E-005  0.3073830E+03  0.7546771E-02  0.1081607E+00
         21   -1    0    0  502  501  0.00000000000E+00  0.00000000000E+00  0.73354342885E+03  0.73354342885E+03  0.00000000000E+00 0. -1.
         21   -1    0    0  501  502 -0.00000000000E+00 -0.00000000000E+00 -0.12880534961E+03  0.12880534961E+03  0.00000000000E+00 0. -1.
         25    1    1    2    0    0  0.20338863120E+03 -0.16793970803E+02  0.22061431659E+03  0.32549139688E+03  0.12500000000E+03 0.  0.
         25    1    1    2    0    0 -0.12709742193E+03 -0.23450768651E+02  0.32967793996E+03  0.37552128743E+03  0.12500000000E+03 0.  0.
         25    1    1    2    0    0 -0.76291209273E+02  0.40244739454E+02  0.54445822688E+02  0.16133609415E+03  0.12500000000E+03 0.  0.
</event>
<event>
 5    0  0.5778875E-005  0.2396384E+03  0.7546771E-02  0.1120034E+00
         21   -1    0    0  502  501  0.00000000000E+00  0.00000000000E+00  0.91549285488E+02  0.91549285488E+02  0.00000000000E+00 0. -1.
         21   -1    0    0  501  502 -0.00000000000E+00 -0.00000000000E+00 -0.62727475986E+03  0.62727475986E+03  0.00000000000E+00 0. -1.
         25    1    1    2    0    0  0.12721208203E+02  0.84989454270E+02 -0.19995605468E+03  0.25098298803E+03  0.12500000000E+03 0.  0.
         25    1    1    2    0    0 -0.56910465955E+01 -0.14003170687E+03 -0.17405542446E+03  0.25604991256E+03  0.12500000000E+03 0.  0.
         25    1    1    2    0    0 -0.70301616075E+01  0.55042252599E+02 -0.16171399523E+03  0.21179114475E+03  0.12500000000E+03 0.  0.
</event>
<event>
 5    0  0.5778875E-005  0.2391586E+03  0.7546771E-02  0.1120355E+00
         21   -1    0    0  502  501  0.00000000000E+00  0.00000000000E+00  0.16025607123E+03  0.16025607123E+03  0.00000000000E+00 0.  1.
         21   -1    0    0  501  502 -0.00000000000E+00 -0.00000000000E+00 -0.35690910374E+03  0.35690910374E+03  0.00000000000E+00 0.  1.
         25    1    1    2    0    0 -0.35137339163E+02 -0.78203842639E+02  0.16366513860E+02  0.15245765439E+03  0.12500000000E+03 0.  0.
         25    1    1    2    0    0  0.52701555645E+02  0.63616774390E+02 -0.49870764170E+02  0.15791339737E+03  0.12500000000E+03 0.  0.
         25    1    1    2    0    0 -0.17564216481E+02  0.14587068249E+02 -0.16314878219E+03  0.20679412320E+03  0.12500000000E+03 0.  0.
</event>
<event>
 5    0  0.5778875E-005  0.2403800E+03  0.7546771E-02  0.1119540E+00
         21   -1    0    0  502  501  0.00000000000E+00  0.00000000000E+00  0.13154473278E+03  0.13154473278E+03  0.00000000000E+00 0.  1.
         21   -1    0    0  501  502 -0.00000000000E+00 -0.00000000000E+00 -0.43926145742E+03  0.43926145742E+03  0.00000000000E+00 0.  1.
         25    1    1    2    0    0 -0.22459705739E+02 -0.15544284773E+02 -0.14301249743E+03  0.19189486077E+03  0.12500000000E+03 0.  0.
         25    1    1    2    0    0 -0.46539955493E+02  0.27848887098E+02 -0.18957205382E+03  0.23346111359E+03  0.12500000000E+03 0.  0.
         25    1    1    2    0    0  0.68999661232E+02 -0.12304602325E+02  0.24867826602E+02  0.14545021584E+03  0.12500000000E+03 0.  0.
</event>
<event>
 5    0  0.5778875E-005  0.3248747E+03  0.7546771E-02  0.1073427E+00
         21   -1    0    0  502  501  0.00000000000E+00  0.00000000000E+00  0.83472080588E+02  0.83472080588E+02  0.00000000000E+00 0.  1.
         21   -1    0    0  501  502 -0.00000000000E+00 -0.00000000000E+00 -0.12644174544E+04  0.12644174544E+04  0.00000000000E+00 0.  1.
         25    1    1    2    0    0  0.15117968342E+02  0.13667161401E+03 -0.59287341041E+03  0.62131438404E+03  0.12500000000E+03 0.  0.
         25    1    1    2    0    0  0.13964507007E+03 -0.11276807813E+03 -0.37471531019E+03  0.43388241349E+03  0.12500000000E+03 0.  0.
         25    1    1    2    0    0 -0.15476303841E+03 -0.23903535881E+02 -0.21335665317E+03  0.29269273742E+03  0.12500000000E+03 0.  0.
</event>
<event>
 5    0  0.5778875E-005  0.2903826E+03  0.7546771E-02  0.1090150E+00
         21   -1    0    0  502  501  0.00000000000E+00  0.00000000000E+00  0.90880615998E+02  0.90880615998E+02  0.00000000000E+00 0.  1.
         21   -1    0    0  501  502 -0.00000000000E+00 -0.00000000000E+00 -0.92783311780E+03  0.92783311780E+03  0.00000000000E+00 0.  1.
         25    1    1    2    0    0  0.17924429084E+03 -0.10784860925E+03 -0.36845877014E+03  0.44175412122E+03  0.12500000000E+03 0.  0.
         25    1    1    2    0    0 -0.71616129757E+02  0.91218206455E+02 -0.25232444256E+03  0.30453613176E+03  0.12500000000E+03 0.  0.
         25    1    1    2    0    0 -0.10762816109E+03  0.16630402799E+02 -0.21616928910E+03  0.27242348083E+03  0.12500000000E+03 0.  0.
</event>
<event>
 5    0  0.5778875E-005  0.1943244E+03  0.7546771E-02  0.1154618E+00
         21   -1    0    0  502  501  0.00000000000E+00  0.00000000000E+00  0.29687409332E+02  0.29687409332E+02  0.00000000000E+00 0. -1.
         21   -1    0    0  501  502 -0.00000000000E+00 -0.00000000000E+00 -0.12719866493E+04  0.12719866493E+04  0.00000000000E+00 0. -1.
         25    1    1    2    0    0  0.37179558959E+02  0.22040772253E+02 -0.44273399727E+03  0.46206764395E+03  0.12500000000E+03 0.  0.
         25    1    1    2    0    0 -0.67323127339E+00 -0.92504438803E+01 -0.39119876558E+03  0.41078887296E+03  0.12500000000E+03 0.  0.
         25    1    1    2    0    0 -0.36506327685E+02 -0.12790328372E+02 -0.40836647715E+03  0.42881754176E+03  0.12500000000E+03 0.  0.
</event>
<event>
 5    0  0.5778875E-005  0.3992180E+03  0.7546771E-02  0.1044051E+00
         21   -1    0    0  502  501  0.00000000000E+00  0.00000000000E+00  0.18087212455E+04  0.18087212455E+04  0.00000000000E+00 0. -1.
         21   -1    0    0  501  502 -0.00000000000E+00 -0.00000000000E+00 -0.88114756860E+02  0.88114756860E+02  0.00000000000E+00 0. -1.
         25    1    1    2    0    0 -0.25971623481E+03  0.14887542494E+03  0.73444846563E+03  0.80290470384E+03  0.12500000000E+03 0.  0.
         25    1    1    2    0    0  0.63316966220E+02 -0.13903009798E+03  0.68664681187E+03  0.71445591229E+03  0.12500000000E+03 0.  0.
         25    1    1    2    0    0  0.19639926859E+03 -0.98453269667E+01  0.29951121118E+03  0.37947538627E+03  0.12500000000E+03 0.  0.
</event>
<event>
 5    0  0.5778875E-005  0.2490083E+03  0.7546771E-02  0.1113933E+00
         21   -1    0    0  502  501  0.00000000000E+00  0.00000000000E+00  0.34015251408E+03  0.34015251408E+03  0.00000000000E+00 0. -1.
         21   -1    0    0  501  502 -0.00000000000E+00 -0.00000000000E+00 -0.18228634429E+03  0.18228634429E+03  0.00000000000E+00 0. -1.
         25    1    1    2    0    0  0.27040155626E+02  0.67519586593E+02 -0.21973649843E+02  0.14628023064E+03  0.12500000000E+03 0.  0.
         25    1    1    2    0    0 -0.61816058292E+02 -0.23958066647E+02 -0.10317738883E+02  0.14186849459E+03  0.12500000000E+03 0.  0.
         25    1    1    2    0    0  0.34775902665E+02 -0.43561519946E+02  0.19015755852E+03  0.23429013314E+03  0.12500000000E+03 0.  0.
</event>
<event>
 5    0  0.5778875E-005  0.2544899E+03  0.7546771E-02  0.1110500E+00
         21   -1    0    0  502  501  0.00000000000E+00  0.00000000000E+00  0.13893994121E+04  0.13893994121E+04  0.00000000000E+00 0. -1.
         21   -1    0    0  501  502 -0.00000000000E+00 -0.00000000000E+00 -0.46613751688E+02  0.46613751688E+02  0.00000000000E+00 0. -1.
         25    1    1    2    0    0 -0.11787202361E+03  0.89703331986E+02  0.51321483450E+03  0.54859362745E+03  0.12500000000E+03 0.  0.
         25    1    1    2    0    0  0.84816324536E+02 -0.79180461068E+02  0.59958731135E+03  0.62337251965E+03  0.12500000000E+03 0.  0.
         25    1    1    2    0    0  0.33055699076E+02 -0.10522870919E+02  0.22998351454E+03  0.26404701667E+03  0.12500000000E+03 0.  0.
</event>
<event>
 5    0  0.5778875E-005  0.2900045E+03  0.7546771E-02  0.1090347E+00
         21   -1    0    0  502  501  0.00000000000E+00  0.00000000000E+00  0.38945608872E+03  0.38945608872E+03  0.00000000000E+00 0. -1.
         21   -1    0    0  501  502 -0.00000000000E+00 -0.00000000000E+00 -0.21594888054E+03  0.21594888054E+03  0.00000000000E+00 0. -1.
         25    1    1    2    0    0 -0.15152800841E+03  0.19944305574E+02 -0.42915784416E+02  0.20205265949E+03  0.12500000000E+03 0.  0.
         25    1    1    2    0    0  0.60624788361E+02 -0.56496252609E+02  0.20854701803E+02  0.15141700733E+03  0.12500000000E+03 0.  0.
         25    1    1    2    0    0  0.90903220046E+02  0.36551947035E+02  0.19556829080E+03  0.25193530243E+03  0.12500000000E+03 0.  0.
</event>
<event>
 5    0  0.6281331E-005  0.3015888E+03  0.7546771E-02  0.1084449E+00
         21   -1    0    0  502  501  0.00000000000E+00  0.00000000000E+00  0.23764629125E+03  0.23764629125E+03  0.00000000000E+00 0. -1.
         21   -1    0    0  501  502 -0.00000000000E+00 -0.00000000000E+00 -0.38273604780E+03  0.38273604780E+03  0.00000000000E+00 0. -1.
         25    1    1    2    0    0  0.30739999694E+02 -0.15638509071E+03 -0.17950701525E+03  0.27064554809E+03  0.12500000000E+03 0.  0.
         25    1    1    2    0    0 -0.25670416598E+02  0.14060239283E+02  0.84554930367E+02  0.15372441858E+03  0.12500000000E+03 0.  0.
         25    1    1    2    0    0 -0.50695830965E+01  0.14232485143E+03 -0.50137671678E+02  0.19601237239E+03  0.12500000000E+03 0.  0.
</event>
<event>
 5    0  0.5778875E-005  0.3008044E+03  0.7546771E-02  0.1084839E+00
         21   -1    0    0  502  501  0.00000000000E+00  0.00000000000E+00  0.12390091125E+03  0.12390091125E+03  0.00000000000E+00 0.  1.
         21   -1    0    0  501  502 -0.00000000000E+00 -0.00000000000E+00 -0.73028728717E+03  0.73028728717E+03  0.00000000000E+00 0.  1.
         25    1    1    2    0    0 -0.16135771109E+03 -0.28003517275E+02 -0.38984815328E+03  0.44093887391E+03  0.12500000000E+03 0.  0.
         25    1    1    2    0    0  0.30889192082E+02 -0.53156789381E+02 -0.14900185215E+03  0.20397631821E+03  0.12500000000E+03 0.  0.
         25    1    1    2    0    0  0.13046851900E+03  0.81160306656E+02 -0.67536370495E+02  0.20927300630E+03  0.12500000000E+03 0.  0.
</event>
<event>
 5    0  0.5778875E-005  0.3890048E+03  0.7546771E-02  0.1047655E+00
         21   -1    0    0  502  501  0.00000000000E+00  0.00000000000E+00  0.10841453934E+04  0.10841453934E+04  0.00000000000E+00 0.  1.
         21   -1    0    0  501  502 -0.00000000000E+00 -0.00000000000E+00 -0.13957975940E+03  0.13957975940E+03  0.00000000000E+00 0.  1.
         25    1    1    2    0    0 -0.21046387653E+03 -0.10817499290E+03  0.57985853748E+03  0.63863745263E+03  0.12500000000E+03 0.  0.
         25    1    1    2    0    0 -0.22142033885E+02  0.13444781861E+03  0.99787028859E+02  0.21011648370E+03  0.12500000000E+03 0.  0.
         25    1    1    2    0    0  0.23260591041E+03 -0.26272825713E+02  0.26492006767E+03  0.37497121647E+03  0.12500000000E+03 0.  0.
</event>
<event>
 5    0  0.5778875E-005  0.3136088E+03  0.7546771E-02  0.1078629E+00
         21   -1    0    0  502  501  0.00000000000E+00  0.00000000000E+00  0.54925183815E+03  0.54925183815E+03  0.00000000000E+00 0.  1.
         21   -1    0    0  501  502 -0.00000000000E+00 -0.00000000000E+00 -0.17906262082E+03  0.17906262082E+03  0.00000000000E+00 0.  1.
         25    1    1    2    0    0  0.20538969931E+03  0.84613432299E+01  0.17202579537E+03  0.29576070933E+03  0.12500000000E+03 0.  0.
         25    1    1    2    0    0 -0.38990416013E+02 -0.91960769841E+02  0.74998817782E+02  0.17671122884E+03  0.12500000000E+03 0.  0.
         25    1    1    2    0    0 -0.16639928330E+03  0.83499426611E+02  0.12316460418E+03  0.25584252080E+03  0.12500000000E+03 0.  0.
</event>
<event>
 5    0  0.5778875E-005  0.2693092E+03  0.7546771E-02  0.1101676E+00
         21   -1    0    0  502  501  0.00000000000E+00  0.00000000000E+00  0.73182165811E+03  0.73182165811E+03  0.00000000000E+00 0.  1.
         21   -1    0    0  501  502 -0.00000000000E+00 -0.00000000000E+00 -0.99105369212E+02  0.99105369212E+02  0.00000000000E+00 0.  1.
         25    1    1    2    0    0 -0.32663456779E+02  0.10324251182E+03  0.26573731592E+03  0.31299718646E+03  0.12500000000E+03 0.  0.
         25    1    1    2    0    0 -0.50558852187E+01 -0.47506689074E+02  0.10509088901E+02  0.13423072834E+03  0.12500000000E+03 0.  0.
         25    1    1    2    0    0  0.37719341998E+02 -0.55735822749E+02  0.35646988407E+03  0.38369911252E+03  0.12500000000E+03 0.  0.
</event>
<event>
 5    0  0.5778875E-005  0.3027448E+03  0.7546771E-02  0.1083877E+00
         21   -1    0    0  502  501  0.00000000000E+00  0.00000000000E+00  0.56045103966E+02  0.56045103966E+02  0.00000000000E+00 0.  1.
         21   -1    0    0  501  502 -0.00000000000E+00 -0.00000000000E+00 -0.16353686537E+04  0.16353686537E+04  0.00000000000E+00 0.  1.
         25    1    1    2    0    0  0.48691758684E+02  0.15545086150E+03 -0.80882675156E+03  0.83448281692E+03  0.12500000000E+03 0.  0.
         25    1    1    2    0    0 -0.11144065860E+03 -0.18016391187E+02 -0.25706887717E+03  0.30733209782E+03  0.12500000000E+03 0.  0.
         25    1    1    2    0    0  0.62748899916E+02 -0.13743447032E+03 -0.51342792100E+03  0.54959884291E+03  0.12500000000E+03 0.  0.
</event>
<event>
 5    0  0.5778875E-005  0.2642158E+03  0.7546771E-02  0.1104636E+00
         21   -1    0    0  502  501  0.00000000000E+00  0.00000000000E+00  0.48599187055E+03  0.48599187055E+03  0.00000000000E+00 0. -1.
         21   -1    0    0  501  502 -0.00000000000E+00 -0.00000000000E+00 -0.14364438818E+03  0.14364438818E+03  0.00000000000E+00 0. -1.
         25    1    1    2    0    0  0.85308299219E+02  0.98021825492E+01 -0.59458413955E+01  0.15176937019E+03  0.12500000000E+03 0.  0.
         25    1    1    2    0    0 -0.13661610592E+03  0.15005550401E+02  0.23653990622E+03  0.30077442407E+03  0.12500000000E+03 0.  0.
         25    1    1    2    0    0  0.51307806696E+02 -0.24807732950E+02  0.11175341754E+03  0.17709246448E+03  0.12500000000E+03 0.  0.
</event>
<event>
 5    0  0.5778875E-005  0.2367555E+03  0.7546771E-02  0.1121973E+00
         21   -1    0    0  502  501  0.00000000000E+00  0.00000000000E+00  0.18912428612E+03  0.18912428612E+03  0.00000000000E+00 0.  1.
         21   -1    0    0  501  502 -0.00000000000E+00 -0.00000000000E+00 -0.29638259536E+03  0.29638259536E+03  0.00000000000E+00 0.  1.
         25    1    1    2    0    0  0.65258014770E+02  0.28822722596E+02 -0.89853665610E+01  0.14420504375E+03  0.12500000000E+03 0.  0.
         25    1    1    2    0    0  0.23904798707E+02 -0.95682547554E+02 -0.42582564923E+02  0.16481766939E+03  0.12500000000E+03 0.  0.
         25    1    1    2    0    0 -0.89162813477E+02  0.66859824958E+02 -0.55690377759E+02  0.17648416834E+03  0.12500000000E+03 0.  0.
</event>
<event>
 5    0  0.5882618E-005  0.3347915E+03  0.7546771E-02  0.1069036E+00
         21   -1    0    0  502  501  0.00000000000E+00  0.00000000000E+00  0.12615689326E+03  0.12615689326E+03  0.00000000000E+00 0. -1.
         21   -1    0    0  501  502 -0.00000000000E+00 -0.00000000000E+00 -0.88845971687E+03  0.88845971687E+03  0.00000000000E+00 0. -1.
         25    1    1    2    0    0  0.91948338268E+02  0.13303302395E+03 -0.45875484134E+03  0.50222832141E+03  0.12500000000E+03 0.  0.
         25    1    1    2    0    0  0.89687384554E+02 -0.11299252555E+03 -0.12783571055E+03  0.22973486168E+03  0.12500000000E+03 0.  0.
         25    1    1    2    0    0 -0.18163572282E+03 -0.20040498397E+02 -0.17571227172E+03  0.28265342703E+03  0.12500000000E+03 0.  0.
</event>
<event>
 5    0  0.5778875E-005  0.2536492E+03  0.7546771E-02  0.1111020E+00
         21   -1    0    0  502  501  0.00000000000E+00  0.00000000000E+00  0.64829654467E+03  0.64829654467E+03  0.00000000000E+00 0. -1.
         21   -1    0    0  501  502 -0.00000000000E+00 -0.00000000000E+00 -0.99241469964E+02  0.99241469964E+02  0.00000000000E+00 0. -1.
         25    1    1    2    0    0  0.95766330635E+02  0.44471307495E+02  0.20004689824E+03  0.25844273789E+03  0.12500000000E+03 0.  0.
         25    1    1    2    0    0 -0.14279915339E+03 -0.62119296428E+02  0.15444688522E+03  0.25244652018E+03  0.12500000000E+03 0.  0.
         25    1    1    2    0    0  0.47032822754E+02  0.17647988933E+02  0.19456129125E+03  0.23664875656E+03  0.12500000000E+03 0.  0.
</event>
<event>
 5    0  0.5778875E-005  0.5823442E+03  0.7546771E-02  0.9942729E-01
         21   -1    0    0  502  501  0.00000000000E+00  0.00000000000E+00  0.31598972434E+04  0.31598972434E+04  0.00000000000E+00 0. -1.
         21   -1    0    0  501  502 -0.00000000000E+00 -0.00000000000E+00 -0.10732145755E+03  0.10732145755E+03  0.00000000000E+00 0. -1.
         25    1    1    2    0    0  0.63328859831E+02  0.14265853375E+03  0.25572783166E+03  0.32462859643E+03  0.12500000000E+03 0.  0.
         25    1    1    2    0    0 -0.26164109477E+03 -0.10003064142E+03  0.28258530545E+03  0.41706312059E+03  0.12500000000E+03 0.  0.
         25    1    1    2    0    0  0.19831223494E+03 -0.42627892330E+02  0.25142626487E+04  0.25255269839E+04  0.12500000000E+03 0.  0.
</event>
<event>
 5    0  0.5778875E-005  0.3483654E+03  0.7546771E-02  0.1063288E+00
         21   -1    0    0  502  501  0.00000000000E+00  0.00000000000E+00  0.10545587223E+03  0.10545587223E+03  0.00000000000E+00 0.  1.
         21   -1    0    0  501  502 -0.00000000000E+00 -0.00000000000E+00 -0.11507985883E+04  0.11507985883E+04  0.00000000000E+00 0.  1.
         25    1    1    2    0    0  0.14544145675E+03  0.44588145069E+02 -0.14915521228E+03  0.24700930624E+03  0.12500000000E+03 0.  0.
         25    1    1    2    0    0  0.51900583816E+02  0.27913032283E+02 -0.85598083946E+02  0.16255718977E+03  0.12500000000E+03 0.  0.
         25    1    1    2    0    0 -0.19734204057E+03 -0.72501177351E+02 -0.81058941981E+03  0.84668796449E+03  0.12500000000E+03 0.  0.
</event>
<event>
 5    0  0.5959373E-005  0.2931580E+03  0.7546771E-02  0.1088712E+00
         21   -1    0    0  502  501  0.00000000000E+00  0.00000000000E+00  0.21751192171E+03  0.21751192171E+03  0.00000000000E+00 0. -1.
         21   -1    0    0  501  502 -0.00000000000E+00 -0.00000000000E+00 -0.39511232292E+03  0.39511232292E+03  0.00000000000E+00 0. -1.
         25    1    1    2    0    0 -0.11391064795E+03 -0.48652110834E+02 -0.47814823967E+02  0.18235657651E+03  0.12500000000E+03 0.  0.
         25    1    1    2    0    0  0.38880333961E+02  0.68429545857E+02  0.84622527256E+02  0.17023588116E+03  0.12500000000E+03 0.  0.
         25    1    1    2    0    0  0.75030313990E+02 -0.19777435024E+02 -0.21440810450E+03  0.26003178696E+03  0.12500000000E+03 0.  0.
</event>
<event>
 5    0  0.5778875E-005  0.2857682E+03  0.7546771E-02  0.1092580E+00
         21   -1    0    0  502  501  0.00000000000E+00  0.00000000000E+00  0.19601152029E+04  0.19601152029E+04  0.00000000000E+00 0.  1.
         21   -1    0    0  501  502 -0.00000000000E+00 -0.00000000000E+00 -0.41662578823E+02  0.41662578823E+02  0.00000000000E+00 0.  1.
         25    1    1    2    0    0  0.82372717930E+02 -0.65056690505E+02  0.27405131618E+03  0.31897768188E+03  0.12500000000E+03 0.  0.
         25    1    1    2    0    0 -0.12530469574E+03  0.10641402633E+03  0.75731241415E+03  0.78496643521E+03  0.12500000000E+03 0.  0.
         25    1    1    2    0    0  0.42931977809E+02 -0.41357335822E+02  0.88708889370E+03  0.89783366459E+03  0.12500000000E+03 0.  0.
</event>
<event>
 5    0  0.5778875E-005  0.5330083E+03  0.7546771E-02  0.1005505E+00
         21   -1    0    0  502  501  0.00000000000E+00  0.00000000000E+00  0.14002757754E+03  0.14002757754E+03  0.00000000000E+00 0.  1.
         21   -1    0    0  501  502 -0.00000000000E+00 -0.00000000000E+00 -0.20288708994E+04  0.20288708994E+04  0.00000000000E+00 0.  1.
         25    1    1    2    0    0  0.86146336860E+02  0.25814407080E+03 -0.11718357011E+04  0.12094971943E+04  0.12500000000E+03 0.  0.
         25    1    1    2    0    0 -0.18243316312E+03 -0.33438961447E+03 -0.28122869191E+03  0.48970690257E+03  0.12500000000E+03 0.  0.
         25    1    1    2    0    0  0.96286826262E+02  0.76245543668E+02 -0.43577892888E+03  0.46969438010E+03  0.12500000000E+03 0.  0.
</event>
<event>
 5    0  0.5778875E-005  0.4789920E+03  0.7546771E-02  0.1019413E+00
         21   -1    0    0  502  501  0.00000000000E+00  0.00000000000E+00  0.15054368436E+04  0.15054368436E+04  0.00000000000E+00 0.  1.
         21   -1    0    0  501  502 -0.00000000000E+00 -0.00000000000E+00 -0.15240313232E+03  0.15240313232E+03  0.00000000000E+00 0.  1.
         25    1    1    2    0    0 -0.10920218059E+03 -0.23644057406E+03  0.85625425877E+03  0.90367340172E+03  0.12500000000E+03 0.  0.
         25    1    1    2    0    0  0.18326264867E+03 -0.43267658272E+02  0.32305725484E+03  0.39426929699E+03  0.12500000000E+03 0.  0.
         25    1    1    2    0    0 -0.74060468080E+02  0.27970823233E+03  0.17372219762E+03  0.35989727717E+03  0.12500000000E+03 0.  0.
</event>
<event>
 5    0  0.5778875E-005  0.2471298E+03  0.7546771E-02  0.1115132E+00
         21   -1    0    0  502  501  0.00000000000E+00  0.00000000000E+00  0.22817476934E+03  0.22817476934E+03  0.00000000000E+00 0. -1.
         21   -1    0    0  501  502 -0.00000000000E+00 -0.00000000000E+00 -0.26765950088E+03  0.26765950088E+03  0.00000000000E+00 0. -1.
         25    1    1    2    0    0 -0.10230638923E+03 -0.46416477638E+02  0.30933480555E+00  0.16806600597E+03  0.12500000000E+03 0.  0.
         25    1    1    2    0    0 -0.16279357418E+01  0.11534244026E+02  0.54235637526E+02  0.13675596271E+03  0.12500000000E+03 0.  0.
         25    1    1    2    0    0  0.10393432497E+03  0.34882233612E+02 -0.94029703872E+02  0.19101230154E+03  0.12500000000E+03 0.  0.
</event>
<event>
 5    0  0.5778875E-005  0.2997883E+03  0.7546771E-02  0.1085346E+00
         21   -1    0    0  502  501  0.00000000000E+00  0.00000000000E+00  0.26067341111E+03  0.26067341111E+03  0.00000000000E+00 0. -1.
         21   -1    0    0  501  502 -0.00000000000E+00 -0.00000000000E+00 -0.34477247095E+03  0.34477247095E+03  0.00000000000E+00 0. -1.
         25    1    1    2    0    0  0.97975981859E+02 -0.11301167560E+03 -0.11733062792E+03  0.22751353386E+03  0.12500000000E+03 0.  0.
         25    1    1    2    0    0 -0.14565772623E+03 -0.13398437874E+02  0.16566624923E+02  0.19311950810E+03  0.12500000000E+03 0.  0.
         25    1    1    2    0    0  0.47681744367E+02  0.12641011347E+03  0.16664943157E+02  0.18481284010E+03  0.12500000000E+03 0.  0.
</event>
<event>
 5    0  0.5778875E-005  0.3450739E+03  0.7546771E-02  0.1064655E+00
         21   -1    0    0  502  501  0.00000000000E+00  0.00000000000E+00  0.25647173987E+03  0.25647173987E+03  0.00000000000E+00 0. -1.
         21   -1    0    0  501  502 -0.00000000000E+00 -0.00000000000E+00 -0.46428502332E+03  0.46428502332E+03  0.00000000000E+00 0. -1.
         25    1    1    2    0    0 -0.25132908072E+03  0.57603761455E+02 -0.19201631155E+03  0.34493443442E+03  0.12500000000E+03 0.  0.
         25    1    1    2    0    0  0.15354760987E+03 -0.82943968988E+02 -0.13575050846E+02  0.21509498482E+03  0.12500000000E+03 0.  0.
         25    1    1    2    0    0  0.97781470853E+02  0.25340207533E+02 -0.22219210546E+01  0.16072734395E+03  0.12500000000E+03 0.  0.
</event>
<event>
 5    0  0.5778875E-005  0.3164056E+03  0.7546771E-02  0.1077316E+00
         21   -1    0    0  502  501  0.00000000000E+00  0.00000000000E+00  0.20217429347E+03  0.20217429347E+03  0.00000000000E+00 0.  1.
         21   -1    0    0  501  502 -0.00000000000E+00 -0.00000000000E+00 -0.49517917544E+03  0.49517917544E+03  0.00000000000E+00 0.  1.
         25    1    1    2    0    0 -0.15339131676E+03  0.59492575027E+02 -0.21928800208E+03  0.30129800928E+03  0.12500000000E+03 0.  0.
         25    1    1    2    0    0  0.12462897899E+03  0.39048917511E+02  0.55412777532E+02  0.18908404553E+03  0.12500000000E+03 0.  0.
         25    1    1    2    0    0  0.28762337779E+02 -0.98541492537E+02 -0.12912965743E+03  0.20697141410E+03  0.12500000000E+03 0.  0.
</event>
<event>
 5    0  0.5778875E-005  0.2531895E+03  0.7546771E-02  0.1111306E+00
         21   -1    0    0  502  501  0.00000000000E+00  0.00000000000E+00  0.47667047976E+03  0.47667047976E+03  0.00000000000E+00 0.  1.
         21   -1    0    0  501  502 -0.00000000000E+00 -0.00000000000E+00 -0.13448482368E+03  0.13448482368E+03  0.00000000000E+00 0.  1.
         25    1    1    2    0    0 -0.77976645113E+02 -0.43229009160E+02  0.17817703333E+03  0.23520450596E+03  0.12500000000E+03 0.  0.
         25    1    1    2    0    0  0.85099567363E+02  0.10642025384E+03  0.40997728978E+02  0.18940174385E+03  0.12500000000E+03 0.  0.
         25    1    1    2    0    0 -0.71229222502E+01 -0.63191244676E+02  0.12301089376E+03  0.18654905363E+03  0.12500000000E+03 0.  0.
</event>
<event>
 5    0  0.5778875E-005  0.2506987E+03  0.7546771E-02  0.1112864E+00
         21   -1    0    0  502  501  0.00000000000E+00  0.00000000000E+00  0.21080787152E+04  0.21080787152E+04  0.00000000000E+00 0.  1.
         21   -1    0    0  501  502 -0.00000000000E+00 -0.00000000000E+00 -0.29813810270E+02  0.29813810270E+02  0.00000000000E+00 0.  1.
         25    1    1    2    0    0  0.44437920950E+02 -0.11924593249E+02  0.11054612187E+04  0.11134569731E+04  0.12500000000E+03 0.  0.
         25    1    1    2    0    0  0.74310014105E+02  0.27525063974E+02  0.45147549303E+03  0.47511548928E+03  0.12500000000E+03 0.  0.
         25    1    1    2    0    0 -0.11874793506E+03 -0.15600470725E+02  0.52132819315E+03  0.54932006311E+03  0.12500000000E+03 0.  0.
</event>
<event>
 5    0  0.5778875E-005  0.2762769E+03  0.7546771E-02  0.1097740E+00
         21   -1    0    0  502  501  0.00000000000E+00  0.00000000000E+00  0.11562349129E+03  0.11562349129E+03  0.00000000000E+00 0. -1.
         21   -1    0    0  501  502 -0.00000000000E+00 -0.00000000000E+00 -0.66015044820E+03  0.66015044820E+03  0.00000000000E+00 0.  1.
         25    1    1    2    0    0 -0.38476598130E+02  0.31284351636E+02 -0.30294422779E+03  0.33145039510E+03  0.12500000000E+03 0.  0.
         25    1    1    2    0    0 -0.12210298438E+02  0.11571037865E+03 -0.13783048353E+03  0.21945438092E+03  0.12500000000E+03 0.  0.
         25    1    1    2    0    0  0.50686896568E+02 -0.14699473028E+03 -0.10375224559E+03  0.22486916347E+03  0.12500000000E+03 0.  0.
</event>
<event>
 5    0  0.5778875E-005  0.2837329E+03  0.7546771E-02  0.1093667E+00
         21   -1    0    0  502  501  0.00000000000E+00  0.00000000000E+00  0.80420947718E+02  0.80420947718E+02  0.00000000000E+00 0. -1.
         21   -1    0    0  501  502 -0.00000000000E+00 -0.00000000000E+00 -0.10010370296E+04  0.10010370296E+04  0.00000000000E+00 0. -1.
         25    1    1    2    0    0  0.58341914121E+02 -0.14247450204E+03 -0.38884436842E+03  0.43649479439E+03  0.12500000000E+03 0.  0.
         25    1    1    2    0    0  0.60839268217E+01  0.16005878929E+02 -0.38623369469E+03  0.40631843330E+03  0.12500000000E+03 0.  0.
         25    1    1    2    0    0 -0.64425840942E+02  0.12646862312E+03 -0.14553801875E+03  0.23864474961E+03  0.12500000000E+03 0.  0.
</event>
<event>
 5    0  0.5778875E-005  0.5110852E+03  0.7546771E-02  0.1010925E+00
         21   -1    0    0  502  501  0.00000000000E+00  0.00000000000E+00  0.15742797434E+04  0.15742797434E+04  0.00000000000E+00 0. -1.
         21   -1    0    0  501  502 -0.00000000000E+00 -0.00000000000E+00 -0.16592227105E+03  0.16592227105E+03  0.00000000000E+00 0. -1.
         25    1    1    2    0    0 -0.26361164533E+02  0.10878864123E+03  0.26275623787E+03  0.31176228123E+03  0.12500000000E+03 0.  0.
         25    1    1    2    0    0 -0.75353613647E+02  0.31524265995E+02  0.11989412195E+04  0.12082040366E+04  0.12500000000E+03 0.  0.
         25    1    1    2    0    0  0.10171477818E+03 -0.14031290723E+03 -0.53339985016E+02  0.22023569655E+03  0.12500000000E+03 0.  0.
</event>
<event>
 5    0  0.5778875E-005  0.4449331E+03  0.7546771E-02  0.1029244E+00
         21   -1    0    0  502  501  0.00000000000E+00  0.00000000000E+00  0.13278564775E+04  0.13278564775E+04  0.00000000000E+00 0.  1.
         21   -1    0    0  501  502 -0.00000000000E+00 -0.00000000000E+00 -0.14908650182E+03  0.14908650182E+03  0.00000000000E+00 0.  1.
         25    1    1    2    0    0  0.19980785291E+03  0.94593051521E+02  0.17660747128E+03  0.30933189682E+03  0.12500000000E+03 0.  0.
         25    1    1    2    0    0 -0.13167791734E+03 -0.28831057975E+03  0.72260984658E+03  0.79890678723E+03  0.12500000000E+03 0.  0.
         25    1    1    2    0    0 -0.68129935569E+02  0.19371752823E+03  0.27955265786E+03  0.36870429531E+03  0.12500000000E+03 0.  0.
</event>
<event>
 5    0  0.5778875E-005  0.3375507E+03  0.7546771E-02  0.1067844E+00
         21   -1    0    0  502  501  0.00000000000E+00  0.00000000000E+00  0.19963988438E+03  0.19963988438E+03  0.00000000000E+00 0. -1.
         21   -1    0    0  501  502 -0.00000000000E+00 -0.00000000000E+00 -0.57073012637E+03  0.57073012637E+03  0.00000000000E+00 0. -1.
         25    1    1    2    0    0 -0.97036300232E+02  0.47899667829E+02 -0.28068229531E+03  0.32575753658E+03  0.12500000000E+03 0.  0.
         25    1    1    2    0    0  0.17564700599E+03  0.82873239061E+02 -0.88547860882E+02  0.24735716713E+03  0.12500000000E+03 0.  0.
         25    1    1    2    0    0 -0.78610705754E+02 -0.13077290689E+03 -0.18600858106E+01  0.19725530704E+03  0.12500000000E+03 0.  0.
</event>
<event>
 5    0  0.6157265E-005  0.2757044E+03  0.7546771E-02  0.1098059E+00
         21   -1    0    0  502  501  0.00000000000E+00  0.00000000000E+00  0.66673211883E+03  0.66673211883E+03  0.00000000000E+00 0. -1.
         21   -1    0    0  501  502 -0.00000000000E+00 -0.00000000000E+00 -0.11400817596E+03  0.11400817596E+03  0.00000000000E+00 0. -1.
         25    1    1    2    0    0  0.97548350541E+02  0.57787156802E+02  0.25651921360E+03  0.30705397429E+03  0.12500000000E+03 0.  0.
         25    1    1    2    0    0 -0.14390168410E+03 -0.10950050263E+03  0.22264205991E+03  0.31287783815E+03  0.12500000000E+03 0.  0.
         25    1    1    2    0    0  0.46353333560E+02  0.51713345828E+02  0.73562669362E+02  0.16080848234E+03  0.12500000000E+03 0.  0.
</event>
<event>
 5    0  0.5778875E-005  0.3125616E+03  0.7546771E-02  0.1079125E+00
         21   -1    0    0  502  501  0.00000000000E+00  0.00000000000E+00  0.31207710149E+03  0.31207710149E+03  0.00000000000E+00 0.  1.
         21   -1    0    0  501  502 -0.00000000000E+00 -0.00000000000E+00 -0.31304677535E+03  0.31304677535E+03  0.00000000000E+00 0.  1.
         25    1    1    2    0    0 -0.12784800976E+03 -0.28964434680E+02  0.40377535582E+01  0.18117769049E+03  0.12500000000E+03 0.  0.
         25    1    1    2    0    0  0.19092454367E+03 -0.10402250986E+03 -0.48879178061E+01  0.25084209311E+03  0.12500000000E+03 0.  0.
         25    1    1    2    0    0 -0.63076533909E+02  0.13298694454E+03 -0.11950961146E+00  0.19310409325E+03  0.12500000000E+03 0.  0.
</event>
<event>
 5    0  0.5778875E-005  0.3031976E+03  0.7546771E-02  0.1083653E+00
         21   -1    0    0  502  501  0.00000000000E+00  0.00000000000E+00  0.61282953249E+02  0.61282953249E+02  0.00000000000E+00 0.  1.
         21   -1    0    0  501  502 -0.00000000000E+00 -0.00000000000E+00 -0.15000710158E+04  0.15000710158E+04  0.00000000000E+00 0.  1.
         25    1    1    2    0    0 -0.56632051556E+01  0.18081366452E+03 -0.37921630649E+03  0.43835563220E+03  0.12500000000E+03 0.  0.
         25    1    1    2    0    0  0.20533284308E+02 -0.19838722591E+03 -0.80112882388E+03  0.83499191591E+03  0.12500000000E+03 0.  0.
         25    1    1    2    0    0 -0.14870079153E+02  0.17573561398E+02 -0.25844293216E+03  0.28800642093E+03  0.12500000000E+03 0.  0.
</event>
<event>
 5    0  0.5778875E-005  0.3655478E+03  0.7546771E-02  0.1056409E+00
         21   -1    0    0  502  501  0.00000000000E+00  0.00000000000E+00  0.86469271563E+02  0.86469271563E+02  0.00000000000E+00 0.  1.
         21   -1    0    0  501  502 -0.00000000000E+00 -0.00000000000E+00 -0.15453486977E+04  0.15453486977E+04  0.00000000000E+00 0.  1.
         25    1    1    2    0    0  0.14946549161E+03  0.15347888834E+03 -0.56603003505E+03  0.61798924176E+03  0.12500000000E+03 0.  0.
         25    1    1    2    0    0 -0.24637167646E+03 -0.88535530486E+02 -0.41529150873E+03  0.50658620228E+03  0.12500000000E+03 0.  0.
         25    1    1    2    0    0  0.96906184851E+02 -0.64943357852E+02 -0.47755788235E+03  0.50724252522E+03  0.12500000000E+03 0.  0.
</event>
<event>
 5    0  0.5778875E-005  0.2396989E+03  0.7546771E-02  0.1119994E+00
         21   -1    0    0  502  501  0.00000000000E+00  0.00000000000E+00  0.18500187511E+04  0.18500187511E+04  0.00000000000E+00 0.  1.
         21   -1    0    0  501  502 -0.00000000000E+00 -0.00000000000E+00 -0.31056744958E+02  0.31056744958E+02  0.00000000000E+00 0.  1.
         25    1    1    2    0    0 -0.63350021098E+02 -0.38488166053E+02  0.58610204285E+03  0.60385028668E+03  0.12500000000E+03 0.  0.
         25    1    1    2    0    0  0.78033461522E+02 -0.24922615292E+02  0.31554571706E+03  0.34914818835E+03  0.12500000000E+03 0.  0.
         25    1    1    2    0    0 -0.14683440424E+02  0.63410781345E+02  0.91731424623E+03  0.92807702102E+03  0.12500000000E+03 0.  0.
</event>
<event>
 5    0  0.5778875E-005  0.2545793E+03  0.7546771E-02  0.1110445E+00
         21   -1    0    0  502  501  0.00000000000E+00  0.00000000000E+00  0.80275512116E+03  0.80275512116E+03  0.00000000000E+00 0.  1.
         21   -1    0    0  501  502 -0.00000000000E+00 -0.00000000000E+00 -0.80735231323E+02  0.80735231323E+02  0.00000000000E+00 0.  1.
         25    1    1    2    0    0  0.49653652142E+02  0.40787529664E+02  0.24407194968E+03  0.28164734043E+03  0.12500000000E+03 0.  0.
         25    1    1    2    0    0 -0.64249330647E+01 -0.68284320980E+02  0.46859038142E+02  0.15008263628E+03  0.12500000000E+03 0.  0.
         25    1    1    2    0    0 -0.43228719078E+02  0.27496791315E+02  0.43108890201E+03  0.45176037578E+03  0.12500000000E+03 0.  0.
</event>
<event>
 5    0  0.5778875E-005  0.3960141E+03  0.7546771E-02  0.1045169E+00
         21   -1    0    0  502  501  0.00000000000E+00  0.00000000000E+00  0.10129628281E+04  0.10129628281E+04  0.00000000000E+00 0. -1.
         21   -1    0    0  501  502 -0.00000000000E+00 -0.00000000000E+00 -0.15482022899E+03  0.15482022899E+03  0.00000000000E+00 0. -1.
         25    1    1    2    0    0 -0.71528491759E+02 -0.80024812149E+02  0.63818164855E+03  0.65910629813E+03  0.12500000000E+03 0.  0.
         25    1    1    2    0    0 -0.12514278230E+03  0.13028954005E+03  0.92686750081E+02  0.23843639371E+03  0.12500000000E+03 0.  0.
         25    1    1    2    0    0  0.19667127406E+03 -0.50264727898E+02  0.12727420050E+03  0.27024036527E+03  0.12500000000E+03 0.  0.
</event>
<event>
 5    0  0.5778875E-005  0.1987549E+03  0.7546771E-02  0.1150794E+00
         21   -1    0    0  502  501  0.00000000000E+00  0.00000000000E+00  0.15810552120E+03  0.15810552120E+03  0.00000000000E+00 0. -1.
         21   -1    0    0  501  502 -0.00000000000E+00 -0.00000000000E+00 -0.24985537666E+03  0.24985537666E+03  0.00000000000E+00 0. -1.
         25    1    1    2    0    0 -0.65510657292E+01 -0.20318412982E+02  0.19702910706E+02  0.12833144221E+03  0.12500000000E+03 0.  0.
         25    1    1    2    0    0 -0.15499695097E+02  0.28928594055E+02 -0.56082645217E+02  0.14088068426E+03  0.12500000000E+03 0.  0.
         25    1    1    2    0    0  0.22050760826E+02 -0.86101810731E+01 -0.55370120946E+02  0.13874877140E+03  0.12500000000E+03 0.  0.
</event>
<event>
 5    0  0.5778875E-005  0.3481305E+03  0.7546771E-02  0.1063385E+00
         21   -1    0    0  502  501  0.00000000000E+00  0.00000000000E+00  0.14310357721E+03  0.14310357721E+03  0.00000000000E+00 0. -1.
         21   -1    0    0  501  502 -0.00000000000E+00 -0.00000000000E+00 -0.84690307106E+03  0.84690307106E+03  0.00000000000E+00 0. -1.
         25    1    1    2    0    0 -0.15283206045E+03  0.11961248614E+03 -0.16235384404E+03  0.28222075795E+03  0.12500000000E+03 0.  0.
         25    1    1    2    0    0 -0.34902329925E+02 -0.86689459285E+02 -0.46456415181E+02  0.16283867322E+03  0.12500000000E+03 0.  0.
         25    1    1    2    0    0  0.18773439037E+03 -0.32923026853E+02 -0.49498923463E+03  0.54494721710E+03  0.12500000000E+03 0.  0.
</event>
<event>
 5    0  0.6110311E-005  0.3091355E+03  0.7546771E-02  0.1080761E+00
         21   -1    0    0  502  501  0.00000000000E+00  0.00000000000E+00  0.20653876284E+03  0.20653876284E+03  0.00000000000E+00 0.  1.
         21   -1    0    0  501  502 -0.00000000000E+00 -0.00000000000E+00 -0.46269652618E+03  0.46269652618E+03  0.00000000000E+00 0.  1.
         25    1    1    2    0    0 -0.56691195833E+02 -0.14121122885E+03 -0.96479989858E+02  0.21928951475E+03  0.12500000000E+03 0.  0.
         25    1    1    2    0    0  0.10627025797E+03 -0.52760048759E+01  0.39136835293E+02  0.16875395057E+03  0.12500000000E+03 0.  0.
         25    1    1    2    0    0 -0.49579062135E+02  0.14648723373E+03 -0.19881460878E+03  0.28119182369E+03  0.12500000000E+03 0.  0.
</event>
<event>
 5    0  0.5778875E-005  0.2854445E+03  0.7546771E-02  0.1092752E+00
         21   -1    0    0  502  501  0.00000000000E+00  0.00000000000E+00  0.99841276228E+03  0.99841276228E+03  0.00000000000E+00 0. -1.
         21   -1    0    0  501  502 -0.00000000000E+00 -0.00000000000E+00 -0.81608087085E+02  0.81608087085E+02  0.00000000000E+00 0. -1.
         25    1    1    2    0    0 -0.28274917295E+02 -0.26576241183E+02  0.39871346228E+03  0.41964650904E+03  0.12500000000E+03 0.  0.
         25    1    1    2    0    0 -0.83026620193E+02  0.11979643103E+03  0.14376453237E+03  0.23987047613E+03  0.12500000000E+03 0.  0.
         25    1    1    2    0    0  0.11130153749E+03 -0.93220189849E+02  0.37432668054E+03  0.42050386420E+03  0.12500000000E+03 0.  0.
</event>
<event>
 5    0  0.5778875E-005  0.4402675E+03  0.7546771E-02  0.1030665E+00
         21   -1    0    0  502  501  0.00000000000E+00  0.00000000000E+00  0.90167192194E+02  0.90167192194E+02  0.00000000000E+00 0.  1.
         21   -1    0    0  501  502 -0.00000000000E+00 -0.00000000000E+00 -0.21497335470E+04  0.21497335470E+04  0.00000000000E+00 0.  1.
         25    1    1    2    0    0  0.29490866435E+03  0.24336460374E+03 -0.10287238648E+04  0.11045792143E+04  0.12500000000E+03 0.  0.
         25    1    1    2    0    0 -0.91656350279E+02 -0.13128647990E+03 -0.55996606267E+03  0.59567106502E+03  0.12500000000E+03 0.  0.
         25    1    1    2    0    0 -0.20325231408E+03 -0.11207812385E+03 -0.47087642733E+03  0.53965045987E+03  0.12500000000E+03 0.  0.
</event>
<event>
 5    0  0.5778875E-005  0.4092159E+03  0.7546771E-02  0.1040634E+00
         21   -1    0    0  502  501  0.00000000000E+00  0.00000000000E+00  0.53215266827E+03  0.53215266827E+03  0.00000000000E+00 0. -1.
         21   -1    0    0  501  502 -0.00000000000E+00 -0.00000000000E+00 -0.31467973000E+03  0.31467973000E+03  0.00000000000E+00 0. -1.
         25    1    1    2    0    0 -0.12257798820E+03 -0.15434292586E+00  0.32622249515E+03  0.37023168875E+03  0.12500000000E+03 0.  0.
         25    1    1    2    0    0  0.11050191711E+03 -0.12785568150E+03  0.71807791413E+02  0.22212408218E+03  0.12500000000E+03 0.  0.
         25    1    1    2    0    0  0.12076071095E+02  0.12801002442E+03 -0.18055734828E+03  0.25447662735E+03  0.12500000000E+03 0.  0.
</event>
<event>
 5    0  0.5778875E-005  0.2654984E+03  0.7546771E-02  0.1103884E+00
         21   -1    0    0  502  501  0.00000000000E+00  0.00000000000E+00  0.16777115437E+03  0.16777115437E+03  0.00000000000E+00 0.  1.
         21   -1    0    0  501  502 -0.00000000000E+00 -0.00000000000E+00 -0.42015210413E+03  0.42015210413E+03  0.00000000000E+00 0.  1.
         25    1    1    2    0    0 -0.20513797776E-01  0.45564074369E+02  0.53587419233E+02  0.14343185418E+03  0.12500000000E+03 0.  0.
         25    1    1    2    0    0 -0.76981767467E+02 -0.63787588903E+02 -0.92806471580E+02  0.18502186408E+03  0.12500000000E+03 0.  0.
         25    1    1    2    0    0  0.77002281265E+02  0.18223514534E+02 -0.21316189742E+03  0.25946954024E+03  0.12500000000E+03 0.  0.
</event>
<event>
 5    0  0.5778875E-005  0.4321777E+03  0.7546771E-02  0.1033174E+00
         21   -1    0    0  502  501  0.00000000000E+00  0.00000000000E+00  0.11953484326E+04  0.11953484326E+04  0.00000000000E+00 0.  1.
         21   -1    0    0  501  502 -0.00000000000E+00 -0.00000000000E+00 -0.15625368040E+03  0.15625368040E+03  0.00000000000E+00 0.  1.
         25    1    1    2    0    0  0.49596320689E+01 -0.36881549156E+02 -0.24311848497E+02  0.13266843104E+03  0.12500000000E+03 0.  0.
         25    1    1    2    0    0  0.11094351157E+03 -0.17716831412E+03  0.81056939062E+03  0.84637155629E+03  0.12500000000E+03 0.  0.
         25    1    1    2    0    0 -0.11590314364E+03  0.21404986327E+03  0.25283721005E+03  0.37256212564E+03  0.12500000000E+03 0.  0.
</event>
<event>
 5    0  0.5778875E-005  0.5123048E+03  0.7546771E-02  0.1010616E+00
         21   -1    0    0  502  501  0.00000000000E+00  0.00000000000E+00  0.53205861914E+03  0.53205861914E+03  0.00000000000E+00 0. -1.
         21   -1    0    0  501  502 -0.00000000000E+00 -0.00000000000E+00 -0.49328440376E+03  0.49328440376E+03  0.00000000000E+00 0. -1.
         25    1    1    2    0    0 -0.34781461511E+03  0.10131856397E+03  0.11250318266E+03  0.39940258386E+03  0.12500000000E+03 0.  0.
         25    1    1    2    0    0  0.12896674245E+03 -0.26152530230E+03  0.42543059518E+01  0.31728694193E+03  0.12500000000E+03 0.  0.
         25    1    1    2    0    0  0.21884787266E+03  0.16020673832E+03 -0.77983273235E+02  0.30865349710E+03  0.12500000000E+03 0.  0.
</event>
<event>
 5    0  0.5778875E-005  0.4826436E+03  0.7546771E-02  0.1018411E+00
         21   -1    0    0  502  501  0.00000000000E+00  0.00000000000E+00  0.45256091363E+03  0.45256091363E+03  0.00000000000E+00 0.  1.
         21   -1    0    0  501  502 -0.00000000000E+00 -0.00000000000E+00 -0.51472602097E+03  0.51472602097E+03  0.00000000000E+00 0.  1.
         25    1    1    2    0    0  0.26254616103E+03 -0.26921984187E+01 -0.30626322462E+03  0.42232676610E+03  0.12500000000E+03 0.  0.
         25    1    1    2    0    0 -0.30296148524E+03 -0.53804834138E+02  0.11261209073E+03  0.35069517347E+03  0.12500000000E+03 0.  0.
         25    1    1    2    0    0  0.40415324209E+02  0.56497032557E+02  0.13148602654E+03  0.19426499503E+03  0.12500000000E+03 0.  0.
</event>
<event>
 5    0  0.5778875E-005  0.3640878E+03  0.7546771E-02  0.1056977E+00
         21   -1    0    0  502  501  0.00000000000E+00  0.00000000000E+00  0.16089034466E+04  0.16089034466E+04  0.00000000000E+00 0.  1.
         21   -1    0    0  501  502 -0.00000000000E+00 -0.00000000000E+00 -0.82391484888E+02  0.82391484888E+02  0.00000000000E+00 0.  1.
         25    1    1    2    0    0 -0.14727484009E+03  0.40644932311E+02  0.84485798115E+03  0.86761275772E+03  0.12500000000E+03 0.  0.
         25    1    1    2    0    0  0.87427589601E+02  0.17128325357E+02  0.31865463482E+02  0.15677171529E+03  0.12500000000E+03 0.  0.
         25    1    1    2    0    0  0.59847250491E+02 -0.57773257668E+02  0.64978851709E+03  0.66691045848E+03  0.12500000000E+03 0.  0.
</event>
<event>
 5    0  0.5778875E-005  0.3577901E+03  0.7546771E-02  0.1059462E+00
         21   -1    0    0  502  501  0.00000000000E+00  0.00000000000E+00  0.18803444247E+03  0.18803444247E+03  0.00000000000E+00 0.  1.
         21   -1    0    0  501  502 -0.00000000000E+00 -0.00000000000E+00 -0.68079958866E+03  0.68079958866E+03  0.00000000000E+00 0.  1.
         25    1    1    2    0    0 -0.10412711952E+03 -0.19098730723E+03 -0.39439459568E+03  0.46742989383E+03  0.12500000000E+03 0.  0.
         25    1    1    2    0    0  0.71343721623E+02  0.19669363237E+03 -0.11762252003E+03  0.27062588355E+03  0.12500000000E+03 0.  0.
         25    1    1    2    0    0  0.32783397894E+02 -0.57063251478E+01  0.19251969518E+02  0.13077825375E+03  0.12500000000E+03 0.  0.
</event>
<event>
 5    0  0.5778875E-005  0.2732554E+03  0.7546771E-02  0.1099431E+00
         21   -1    0    0  502  501  0.00000000000E+00  0.00000000000E+00  0.66925938703E+02  0.66925938703E+02  0.00000000000E+00 0. -1.
         21   -1    0    0  501  502 -0.00000000000E+00 -0.00000000000E+00 -0.11156883514E+04  0.11156883514E+04  0.00000000000E+00 0. -1.
         25    1    1    2    0    0  0.11406408908E+03 -0.38000786785E+02 -0.73640959037E+03  0.75655717630E+03  0.12500000000E+03 0.  0.
         25    1    1    2    0    0 -0.46296385460E+02  0.41238581581E+02 -0.10504589762E+03  0.17465284574E+03  0.12500000000E+03 0.  0.
         25    1    1    2    0    0 -0.67767703623E+02 -0.32377947965E+01 -0.20730692467E+03  0.25140426803E+03  0.12500000000E+03 0.  0.
</event>
<event>
 5    0  0.5778875E-005  0.2452070E+03  0.7546771E-02  0.1116372E+00
         21   -1    0    0  502  501  0.00000000000E+00  0.00000000000E+00  0.35353557914E+03  0.35353557914E+03  0.00000000000E+00 0.  1.
         21   -1    0    0  501  502 -0.00000000000E+00 -0.00000000000E+00 -0.17007192437E+03  0.17007192437E+03  0.00000000000E+00 0.  1.
         25    1    1    2    0    0  0.54271091880E+02 -0.54052455423E+02 -0.37082683968E+02  0.15121886391E+03  0.12500000000E+03 0.  0.
         25    1    1    2    0    0 -0.45351747912E+02  0.80614862208E+01  0.19549260461E+03  0.23656738375E+03  0.12500000000E+03 0.  0.
         25    1    1    2    0    0 -0.89193439678E+01  0.45990969202E+02  0.25053734126E+02  0.13582125584E+03  0.12500000000E+03 0.  0.
</event>
<event>
 5    0  0.5778875E-005  0.2754701E+03  0.7546771E-02  0.1098189E+00
         21   -1    0    0  502  501  0.00000000000E+00  0.00000000000E+00  0.13958663291E+04  0.13958663291E+04  0.00000000000E+00 0. -1.
         21   -1    0    0  501  502 -0.00000000000E+00 -0.00000000000E+00 -0.54363198996E+02  0.54363198996E+02  0.00000000000E+00 0. -1.
         25    1    1    2    0    0  0.14936815180E+03  0.21040162076E+02  0.59450972003E+03  0.62595554187E+03  0.12500000000E+03 0.  0.
         25    1    1    2    0    0 -0.66598942018E+02 -0.54776784987E+02  0.56998967660E+03  0.58987214435E+03  0.12500000000E+03 0.  0.
         25    1    1    2    0    0 -0.82769209782E+02  0.33736622911E+02  0.17700373352E+03  0.23440184192E+03  0.12500000000E+03 0.  0.
</event>
<event>
 5    0  0.5778875E-005  0.3925370E+03  0.7546771E-02  0.1046395E+00
         21   -1    0    0  502  501  0.00000000000E+00  0.00000000000E+00  0.10900371314E+04  0.10900371314E+04  0.00000000000E+00 0.  1.
         21   -1    0    0  501  502 -0.00000000000E+00 -0.00000000000E+00 -0.14135783702E+03  0.14135783702E+03  0.00000000000E+00 0.  1.
         25    1    1    2    0    0 -0.12389893007E+03 -0.66347370154E+02  0.40524841657E+03  0.44677085573E+03  0.12500000000E+03 0.  0.
         25    1    1    2    0    0  0.23752662746E+03  0.13541168402E+03  0.12029080733E+03  0.32380565351E+03  0.12500000000E+03 0.  0.
         25    1    1    2    0    0 -0.11362769739E+03 -0.69064313861E+02  0.42314007053E+03  0.46081845921E+03  0.12500000000E+03 0.  0.
</event>
<event>
 5    0  0.5778875E-005  0.2486007E+03  0.7546771E-02  0.1114192E+00
         21   -1    0    0  502  501  0.00000000000E+00  0.00000000000E+00  0.11911924656E+03  0.11911924656E+03  0.00000000000E+00 0.  1.
         21   -1    0    0  501  502 -0.00000000000E+00 -0.00000000000E+00 -0.51882724040E+03  0.51882724040E+03  0.00000000000E+00 0.  1.
         25    1    1    2    0    0  0.95825611454E+02  0.73937345796E+02 -0.24614531938E+03  0.30143290657E+03  0.12500000000E+03 0.  0.
         25    1    1    2    0    0 -0.20438850885E+02  0.10547371934E+02 -0.40227967381E+02  0.13331272647E+03  0.12500000000E+03 0.  0.
         25    1    1    2    0    0 -0.75386760569E+02 -0.84484717730E+02 -0.11333470708E+03  0.20320085391E+03  0.12500000000E+03 0.  0.
</event>
<event>
 5    0  0.6270380E-005  0.4787848E+03  0.7546771E-02  0.1019470E+00
         21   -1    0    0  502  501  0.00000000000E+00  0.00000000000E+00  0.68515737470E+03  0.68515737470E+03  0.00000000000E+00 0.  1.
         21   -1    0    0  501  502 -0.00000000000E+00 -0.00000000000E+00 -0.33457257221E+03  0.33457257221E+03  0.00000000000E+00 0.  1.
         25    1    1    2    0    0 -0.55263197470E+02 -0.33622570514E+03  0.91947822337E+02  0.37440772938E+03  0.12500000000E+03 0.  0.
         25    1    1    2    0    0 -0.13988212515E+03  0.11544477362E+03  0.23843076823E+03  0.32460550817E+03  0.12500000000E+03 0.  0.
         25    1    1    2    0    0  0.19514532262E+03  0.22078093152E+03  0.20206211921E+02  0.32071670936E+03  0.12500000000E+03 0.  0.
</event>
<event>
 5    0  0.5778875E-005  0.3063301E+03  0.7546771E-02  0.1082118E+00
         21   -1    0    0  502  501  0.00000000000E+00  0.00000000000E+00  0.95186747477E+03  0.95186747477E+03  0.00000000000E+00 0.  1.
         21   -1    0    0  501  502 -0.00000000000E+00 -0.00000000000E+00 -0.98583184815E+02  0.98583184815E+02  0.00000000000E+00 0.  1.
         25    1    1    2    0    0 -0.47933092936E+02  0.18363444419E+03  0.52596180215E+03  0.57295724780E+03  0.12500000000E+03 0.  0.
         25    1    1    2    0    0 -0.28166231890E+02 -0.41551984085E+02  0.18471793808E+03  0.22861675496E+03  0.12500000000E+03 0.  0.
         25    1    1    2    0    0  0.76099324826E+02 -0.14208246010E+03  0.14260454973E+03  0.24887665682E+03  0.12500000000E+03 0.  0.
</event>
<event>
 5    0  0.5778875E-005  0.2706797E+03  0.7546771E-02  0.1100891E+00
         21   -1    0    0  502  501  0.00000000000E+00  0.00000000000E+00  0.19928598740E+03  0.19928598740E+03  0.00000000000E+00 0. -1.
         21   -1    0    0  501  502 -0.00000000000E+00 -0.00000000000E+00 -0.36764996940E+03  0.36764996940E+03  0.00000000000E+00 0. -1.
         25    1    1    2    0    0 -0.70232949081E+01 -0.88408276332E+02 -0.18561782470E+03  0.24071627872E+03  0.12500000000E+03 0.  0.
         25    1    1    2    0    0  0.74404867219E+02  0.80033114278E+02  0.61795044372E+02  0.17715815295E+03  0.12500000000E+03 0.  0.
         25    1    1    2    0    0 -0.67381572311E+02  0.83751620540E+01 -0.44541201678E+02  0.14906152513E+03  0.12500000000E+03 0.  0.
</event>
<event>
 5    0  0.5778875E-005  0.2383176E+03  0.7546771E-02  0.1120919E+00
         21   -1    0    0  502  501  0.00000000000E+00  0.00000000000E+00  0.23405905924E+04  0.23405905924E+04  0.00000000000E+00 0. -1.
         21   -1    0    0  501  502 -0.00000000000E+00 -0.00000000000E+00 -0.24265360378E+02  0.24265360378E+02  0.00000000000E+00 0. -1.
         25    1    1    2    0    0 -0.78572900654E+02  0.39215646303E+02  0.72681800938E+03  0.74269844917E+03  0.12500000000E+03 0.  0.
         25    1    1    2    0    0  0.97037351036E+02  0.26203720454E+02  0.11240859253E+04  0.11354721705E+04  0.12500000000E+03 0.  0.
         25    1    1    2    0    0 -0.18464450382E+02 -0.65419366756E+02  0.46542129735E+03  0.48668533315E+03  0.12500000000E+03 0.  0.
</event>
<event>
 5    0  0.5778875E-005  0.7844737E+03  0.7546771E-02  0.9582767E-01
         21   -1    0    0  502  501  0.00000000000E+00  0.00000000000E+00  0.14602741402E+04  0.14602741402E+04  0.00000000000E+00 0. -1.
         21   -1    0    0  501  502 -0.00000000000E+00 -0.00000000000E+00 -0.42142701416E+03  0.42142701416E+03  0.00000000000E+00 0. -1.
         25    1    1    2    0    0  0.15920195495E+03 -0.58289233563E+01 -0.37301691823E+03  0.42443593167E+03  0.12500000000E+03 0.  0.
         25    1    1    2    0    0 -0.10202512993E+03  0.10037980322E+03  0.85948376380E+03  0.88024006514E+03  0.12500000000E+03 0.  0.
         25    1    1    2    0    0 -0.57176825013E+02 -0.94550879862E+02  0.55238028047E+03  0.57702515755E+03  0.12500000000E+03 0.  0.
</event>
<event>
 5    0  0.5778875E-005  0.2832633E+03  0.7546771E-02  0.1093920E+00
         21   -1    0    0  502  501  0.00000000000E+00  0.00000000000E+00  0.93866792870E+03  0.93866792870E+03  0.00000000000E+00 0. -1.
         21   -1    0    0  501  502 -0.00000000000E+00 -0.00000000000E+00 -0.85480804375E+02  0.85480804375E+02  0.00000000000E+00 0. -1.
         25    1    1    2    0    0 -0.38981931393E+02 -0.25701854655E+02  0.11891133334E+03  0.17873187042E+03  0.12500000000E+03 0.  0.
         25    1    1    2    0    0  0.16619741707E+03  0.19934568375E+02  0.23106800192E+03  0.31150664515E+03  0.12500000000E+03 0.  0.
         25    1    1    2    0    0 -0.12721548568E+03  0.57672862801E+01  0.50320778906E+03  0.53391021751E+03  0.12500000000E+03 0.  0.
</event>
<event>
 5    0  0.5778875E-005  0.2511001E+03  0.7546771E-02  0.1112612E+00
         21   -1    0    0  502  501  0.00000000000E+00  0.00000000000E+00  0.51795344768E+03  0.51795344768E+03  0.00000000000E+00 0. -1.
         21   -1    0    0  501  502 -0.00000000000E+00 -0.00000000000E+00 -0.12173151237E+03  0.12173151237E+03  0.00000000000E+00 0. -1.
         25    1    1    2    0    0  0.64315094759E+02 -0.88350520656E+02  0.17792799130E+03  0.24336313608E+03  0.12500000000E+03 0.  0.
         25    1    1    2    0    0 -0.44676637264E+02  0.14107275168E+03  0.12781641717E+03  0.23207662459E+03  0.12500000000E+03 0.  0.
         25    1    1    2    0    0 -0.19638457495E+02 -0.52722231026E+02  0.90477526844E+02  0.16424519938E+03  0.12500000000E+03 0.  0.
</event>
<event>
 5    0  0.5778875E-005  0.4519946E+03  0.7546771E-02  0.1027129E+00
         21   -1    0    0  502  501  0.00000000000E+00  0.00000000000E+00  0.16932430874E+04  0.16932430874E+04  0.00000000000E+00 0.  1.
         21   -1    0    0  501  502 -0.00000000000E+00 -0.00000000000E+00 -0.12065550131E+03  0.12065550131E+03  0.00000000000E+00 0.  1.
         25    1    1    2    0    0  0.13256752842E+02 -0.23632189825E+03  0.45006098060E+03  0.52364460023E+03  0.12500000000E+03 0.  0.
         25    1    1    2    0    0 -0.11124490301E+03  0.38053752152E+03  0.82036439284E+03  0.91967764503E+03  0.12500000000E+03 0.  0.
         25    1    1    2    0    0  0.97988150164E+02 -0.14421562327E+03  0.30216221267E+03  0.37057634346E+03  0.12500000000E+03 0.  0.
</event>
<event>
 5    0  0.5778875E-005  0.2480529E+03  0.7546771E-02  0.1114542E+00
         21   -1    0    0  502  501  0.00000000000E+00  0.00000000000E+00  0.15892939385E+03  0.15892939385E+03  0.00000000000E+00 0. -1.
         21   -1    0    0  501  502 -0.00000000000E+00 -0.00000000000E+00 -0.38715457843E+03  0.38715457843E+03  0.00000000000E+00 0. -1.
         25    1    1    2    0    0  0.39191634562E+01 -0.30537419093E+02 -0.93632785362E+02  0.15918540229E+03  0.12500000000E+03 0.  0.
         25    1    1    2    0    0 -0.10746003983E+03  0.85455388169E+02 -0.10406081762E+03  0.21284721584E+03  0.12500000000E+03 0.  0.
         25    1    1    2    0    0  0.10354087637E+03 -0.54917969075E+02 -0.30531581597E+02  0.17405135415E+03  0.12500000000E+03 0.  0.
</event>
<event>
 5    0  0.5778875E-005  0.3315135E+03  0.7546771E-02  0.1070469E+00
         21   -1    0    0  502  501  0.00000000000E+00  0.00000000000E+00  0.16639878552E+03  0.16639878552E+03  0.00000000000E+00 0. -1.
         21   -1    0    0  501  502 -0.00000000000E+00 -0.00000000000E+00 -0.66046893676E+03  0.66046893676E+03  0.00000000000E+00 0. -1.
         25    1    1    2    0    0  0.16427528511E+03  0.56499701156E+01 -0.44743932024E+03  0.49279330024E+03  0.12500000000E+03 0.  0.
         25    1    1    2    0    0 -0.95996499311E+02 -0.46763483296E+02  0.30122386311E+02  0.16713620017E+03  0.12500000000E+03 0.  0.
         25    1    1    2    0    0 -0.68278785797E+02  0.41113513180E+02 -0.76753217305E+02  0.16693822187E+03  0.12500000000E+03 0.  0.
</event>
<event>
 5    0  0.5778875E-005  0.3892862E+03  0.7546771E-02  0.1047554E+00
         21   -1    0    0  502  501  0.00000000000E+00  0.00000000000E+00  0.79530710856E+03  0.79530710856E+03  0.00000000000E+00 0.  1.
         21   -1    0    0  501  502 -0.00000000000E+00 -0.00000000000E+00 -0.19054742641E+03  0.19054742641E+03  0.00000000000E+00 0.  1.
         25    1    1    2    0    0 -0.13457894195E+03  0.20746820540E+03  0.32107153912E+03  0.42410668599E+03  0.12500000000E+03 0.  0.
         25    1    1    2    0    0 -0.68130554507E+02 -0.15580113997E+03  0.35664393057E+02  0.21403905392E+03  0.12500000000E+03 0.  0.
         25    1    1    2    0    0  0.20270949646E+03 -0.51667065437E+02  0.24802374997E+03  0.34770879505E+03  0.12500000000E+03 0.  0.
</event>
<event>
 5    0  0.5778875E-005  0.2622628E+03  0.7546771E-02  0.1105791E+00
         21   -1    0    0  502  501  0.00000000000E+00  0.00000000000E+00  0.49998450605E+03  0.49998450605E+03  0.00000000000E+00 0. -1.
         21   -1    0    0  501  502 -0.00000000000E+00 -0.00000000000E+00 -0.13756777085E+03  0.13756777085E+03  0.00000000000E+00 0. -1.
         25    1    1    2    0    0 -0.13048509177E+03  0.56744291122E+02  0.22397721494E+03  0.29332075713E+03  0.12500000000E+03 0.  0.
         25    1    1    2    0    0  0.94364867613E+01 -0.56160577513E+02  0.34804973479E+02  0.14170195457E+03  0.12500000000E+03 0.  0.
         25    1    1    2    0    0  0.12104860501E+03 -0.58371360835E+00  0.10363454677E+03  0.20252956520E+03  0.12500000000E+03 0.  0.
</event>
<event>
 5    0  0.5778875E-005  0.2653936E+03  0.7546771E-02  0.1103945E+00
         21   -1    0    0  502  501  0.00000000000E+00  0.00000000000E+00  0.12986609666E+04  0.12986609666E+04  0.00000000000E+00 0. -1.
         21   -1    0    0  501  502 -0.00000000000E+00 -0.00000000000E+00 -0.54235701028E+02  0.54235701028E+02  0.00000000000E+00 0. -1.
         25    1    1    2    0    0  0.17682175127E+03 -0.39281095723E+02  0.56710499628E+03  0.60831078653E+03  0.12500000000E+03 0.  0.
         25    1    1    2    0    0 -0.83724714160E+02  0.27005130922E+02  0.34281019812E+03  0.37534375817E+03  0.12500000000E+03 0.  0.
         25    1    1    2    0    0 -0.93097037110E+02  0.12275964801E+02  0.33451007114E+03  0.36924212290E+03  0.12500000000E+03 0.  0.
</event>
<event>
 5    0  0.5778875E-005  0.2590839E+03  0.7546771E-02  0.1107695E+00
         21   -1    0    0  502  501  0.00000000000E+00  0.00000000000E+00  0.20977204468E+03  0.20977204468E+03  0.00000000000E+00 0.  1.
         21   -1    0    0  501  502 -0.00000000000E+00 -0.00000000000E+00 -0.31998756037E+03  0.31998756037E+03  0.00000000000E+00 0.  1.
         25    1    1    2    0    0 -0.13368609499E+02  0.61042063915E+02 -0.35267896059E+02  0.14413076625E+03  0.12500000000E+03 0.  0.
         25    1    1    2    0    0 -0.27866700863E+01 -0.16147613549E+03  0.79873858388E+01  0.20437980867E+03  0.12500000000E+03 0.  0.
         25    1    1    2    0    0  0.16155279586E+02  0.10043407157E+03 -0.82935005473E+02  0.18124903013E+03  0.12500000000E+03 0.  0.
</event>
<event>
 5    0  0.5778875E-005  0.2895197E+03  0.7546771E-02  0.1090600E+00
         21   -1    0    0  502  501  0.00000000000E+00  0.00000000000E+00  0.20644800326E+04  0.20644800326E+04  0.00000000000E+00 0. -1.
         21   -1    0    0  501  502 -0.00000000000E+00 -0.00000000000E+00 -0.40601836586E+02  0.40601836586E+02  0.00000000000E+00 0. -1.
         25    1    1    2    0    0 -0.77068425582E+02  0.24687959707E+02  0.10211478025E+04  0.10319480956E+04  0.12500000000E+03 0.  0.
         25    1    1    2    0    0  0.14516343049E+01  0.12192447683E+03  0.49129897736E+03  0.52140902413E+03  0.12500000000E+03 0.  0.
         25    1    1    2    0    0  0.75616791277E+02 -0.14661243654E+03  0.51143141616E+03  0.55172474940E+03  0.12500000000E+03 0.  0.
</event>
<event>
 5    0  0.5778875E-005  0.2989558E+03  0.7546771E-02  0.1085764E+00
         21   -1    0    0  502  501  0.00000000000E+00  0.00000000000E+00  0.26134609252E+02  0.26134609252E+02  0.00000000000E+00 0.  1.
         21   -1    0    0  501  502 -0.00000000000E+00 -0.00000000000E+00 -0.34197788442E+04  0.34197788442E+04  0.00000000000E+00 0.  1.
         25    1    1    2    0    0 -0.94611462407E+02  0.50901130128E+02 -0.47332682893E+03  0.50120409102E+03  0.12500000000E+03 0.  0.
         25    1    1    2    0    0  0.46759175286E+02  0.76758817088E+02 -0.70151267554E+03  0.71820844496E+03  0.12500000000E+03 0.  0.
         25    1    1    2    0    0  0.47852287121E+02 -0.12765994722E+03 -0.22188047305E+04  0.22265009174E+04  0.12500000000E+03 0.  0.
</event>
<event>
 5    0  0.5778875E-005  0.3029269E+03  0.7546771E-02  0.1083787E+00
         21   -1    0    0  502  501  0.00000000000E+00  0.00000000000E+00  0.71783418408E+03  0.71783418408E+03  0.00000000000E+00 0.  1.
         21   -1    0    0  501  502 -0.00000000000E+00 -0.00000000000E+00 -0.12783555812E+03  0.12783555812E+03  0.00000000000E+00 0.  1.
         25    1    1    2    0    0 -0.12138953141E+01  0.87536770646E+02  0.24514294139E+02  0.15456425969E+03  0.12500000000E+03 0.  0.
         25    1    1    2    0    0 -0.29554523662E+01  0.10216166166E+03  0.16633556297E+03  0.23181514040E+03  0.12500000000E+03 0.  0.
         25    1    1    2    0    0  0.41693476803E+01 -0.18969843230E+03  0.39914876885E+03  0.45929034210E+03  0.12500000000E+03 0.  0.
</event>
<event>
 5    0  0.5778875E-005  0.4604067E+03  0.7546771E-02  0.1024663E+00
         21   -1    0    0  502  501  0.00000000000E+00  0.00000000000E+00  0.13646260266E+03  0.13646260266E+03  0.00000000000E+00 0. -1.
         21   -1    0    0  501  502 -0.00000000000E+00 -0.00000000000E+00 -0.15533512092E+04  0.15533512092E+04  0.00000000000E+00 0. -1.
         25    1    1    2    0    0  0.16768277677E+03  0.19832307596E+03 -0.14520284334E+03  0.32273583903E+03  0.12500000000E+03 0.  0.
         25    1    1    2    0    0 -0.27799706667E+02  0.77652792734E+02 -0.24121936498E+03  0.28392703632E+03  0.12500000000E+03 0.  0.
         25    1    1    2    0    0 -0.13988307010E+03 -0.27597586869E+03 -0.10304663982E+04  0.10831509365E+04  0.12500000000E+03 0.  0.
</event>
<event>
 5    0  0.5778875E-005  0.3141591E+03  0.7546771E-02  0.1078369E+00
         21   -1    0    0  502  501  0.00000000000E+00  0.00000000000E+00  0.25372671821E+03  0.25372671821E+03  0.00000000000E+00 0. -1.
         21   -1    0    0  501  502 -0.00000000000E+00 -0.00000000000E+00 -0.38898528056E+03  0.38898528056E+03  0.00000000000E+00 0. -1.
         25    1    1    2    0    0 -0.18298432390E+03 -0.28125745359E+02 -0.17125440992E+03  0.28147361024E+03  0.12500000000E+03 0.  0.
         25    1    1    2    0    0  0.72214118576E+02  0.64454897183E+02 -0.55265329624E+02  0.16747707112E+03  0.12500000000E+03 0.  0.
         25    1    1    2    0    0  0.11077020533E+03 -0.36329151824E+02  0.91261177196E+02  0.19376131741E+03  0.12500000000E+03 0.  0.
</event>
<event>
 5    0  0.5778875E-005  0.3460410E+03  0.7546771E-02  0.1064252E+00
         21   -1    0    0  502  501  0.00000000000E+00  0.00000000000E+00  0.14950761095E+04  0.14950761095E+04  0.00000000000E+00 0. -1.
         21   -1    0    0  501  502 -0.00000000000E+00 -0.00000000000E+00 -0.80092512792E+02  0.80092512792E+02  0.00000000000E+00 0. -1.
         25    1    1    2    0    0 -0.40368859672E+02 -0.16625344724E+03  0.86035904519E+03  0.88606576516E+03  0.12500000000E+03 0.  0.
         25    1    1    2    0    0  0.10571380902E+03  0.74388742913E+02  0.10322336169E+03  0.20733826682E+03  0.12500000000E+03 0.  0.
         25    1    1    2    0    0 -0.65344949346E+02  0.91864704322E+02  0.45140118986E+03  0.48176459035E+03  0.12500000000E+03 0.  0.
</event>
<event>
 5    0  0.5778875E-005  0.7987404E+03  0.7546771E-02  0.9561842E-01
         21   -1    0    0  502  501  0.00000000000E+00  0.00000000000E+00  0.79205844922E+03  0.79205844922E+03  0.00000000000E+00 0. -1.
         21   -1    0    0  501  502 -0.00000000000E+00 -0.00000000000E+00 -0.80547868683E+03  0.80547868683E+03  0.00000000000E+00 0. -1.
         25    1    1    2    0    0  0.65160569226E+03 -0.16330267021E+03  0.19754041813E+03  0.71126996076E+03  0.12500000000E+03 0.  0.
         25    1    1    2    0    0 -0.43418239882E+03  0.32974132527E+03 -0.12347389796E+03  0.57281279709E+03  0.12500000000E+03 0.  0.
         25    1    1    2    0    0 -0.21742329344E+03 -0.16643865506E+03 -0.87486757776E+02  0.31345437820E+03  0.12500000000E+03 0.  0.
</event>
<event>
 5    0  0.5778875E-005  0.4829359E+03  0.7546771E-02  0.1018331E+00
         21   -1    0    0  502  501  0.00000000000E+00  0.00000000000E+00  0.17695577677E+03  0.17695577677E+03  0.00000000000E+00 0. -1.
         21   -1    0    0  501  502 -0.00000000000E+00 -0.00000000000E+00 -0.13179965006E+04  0.13179965006E+04  0.00000000000E+00 0. -1.
         25    1    1    2    0    0 -0.39146515617E+03  0.50377906991E+02 -0.26266725461E+03  0.49030805485E+03  0.12500000000E+03 0.  0.
         25    1    1    2    0    0  0.25778782262E+03 -0.38148610672E+02 -0.65270820894E+03  0.71383673484E+03  0.12500000000E+03 0.  0.
         25    1    1    2    0    0  0.13367733355E+03 -0.12229296319E+02 -0.22566526027E+03  0.29080748767E+03  0.12500000000E+03 0.  0.
</event>
<event>
 5    0  0.5778875E-005  0.2423326E+03  0.7546771E-02  0.1118249E+00
         21   -1    0    0  502  501  0.00000000000E+00  0.00000000000E+00  0.34536561785E+03  0.34536561785E+03  0.00000000000E+00 0. -1.
         21   -1    0    0  501  502 -0.00000000000E+00 -0.00000000000E+00 -0.17003741150E+03  0.17003741150E+03  0.00000000000E+00 0. -1.
         25    1    1    2    0    0  0.31808907521E+02  0.42516134933E+02  0.70883617394E+02  0.15319567730E+03  0.12500000000E+03 0.  0.
         25    1    1    2    0    0 -0.10572925433E+03 -0.79395342091E+02  0.10937129434E+03  0.21229549122E+03  0.12500000000E+03 0.  0.
         25    1    1    2    0    0  0.73920346811E+02  0.36879207158E+02 -0.49267053772E+01  0.14991186084E+03  0.12500000000E+03 0.  0.
</event>
<event>
 5    0  0.6282181E-005  0.4863106E+03  0.7546771E-02  0.1017415E+00
         21   -1    0    0  502  501  0.00000000000E+00  0.00000000000E+00  0.60028061090E+03  0.60028061090E+03  0.00000000000E+00 0. -1.
         21   -1    0    0  501  502 -0.00000000000E+00 -0.00000000000E+00 -0.39397908967E+03  0.39397908967E+03  0.00000000000E+00 0. -1.
         25    1    1    2    0    0  0.24548072552E+03 -0.17573950714E+03  0.25802833375E+03  0.41635175272E+03  0.12500000000E+03 0.  0.
         25    1    1    2    0    0 -0.12114501347E+03 -0.16808171607E+02 -0.20947331702E+03  0.27287854343E+03  0.12500000000E+03 0.  0.
         25    1    1    2    0    0 -0.12433571205E+03  0.19254767875E+03  0.15774650449E+03  0.30502940442E+03  0.12500000000E+03 0.  0.
</event>
<event>
 5    0  0.5778875E-005  0.5537185E+03  0.7546771E-02  0.1000637E+00
         21   -1    0    0  502  501  0.00000000000E+00  0.00000000000E+00  0.47532768126E+03  0.47532768126E+03  0.00000000000E+00 0.  1.
         21   -1    0    0  501  502 -0.00000000000E+00 -0.00000000000E+00 -0.64503748466E+03  0.64503748466E+03  0.00000000000E+00 0.  1.
         25    1    1    2    0    0  0.46363161261E+02 -0.22121767262E+03  0.10736332676E+03  0.27971178976E+03  0.12500000000E+03 0.  0.
         25    1    1    2    0    0  0.66919078926E+02  0.15473859767E+03 -0.50647962245E+03  0.54824155688E+03  0.12500000000E+03 0.  0.
         25    1    1    2    0    0 -0.11328224019E+03  0.66479074948E+02  0.22940649229E+03  0.29241181928E+03  0.12500000000E+03 0.  0.
</event>
<event>
 5    0  0.5778875E-005  0.2575758E+03  0.7546771E-02  0.1108609E+00
         21   -1    0    0  502  501  0.00000000000E+00  0.00000000000E+00  0.12700947550E+03  0.12700947550E+03  0.00000000000E+00 0. -1.
         21   -1    0    0  501  502 -0.00000000000E+00 -0.00000000000E+00 -0.52236490826E+03  0.52236490826E+03  0.00000000000E+00 0. -1.
         25    1    1    2    0    0 -0.22245426407E+01  0.34000785239E+02  0.92289237148E+01  0.12988908738E+03  0.12500000000E+03 0.  0.
         25    1    1    2    0    0  0.34046403411E+02 -0.11497032916E+03 -0.22711491138E+03  0.28562828492E+03  0.12500000000E+03 0.  0.
         25    1    1    2    0    0 -0.31821860771E+02  0.80969543925E+02 -0.17746944510E+03  0.23385701146E+03  0.12500000000E+03 0.  0.
</event>
<event>
 5    0  0.5778875E-005  0.2557819E+03  0.7546771E-02  0.1109704E+00
         21   -1    0    0  502  501  0.00000000000E+00  0.00000000000E+00  0.59035497987E+03  0.59035497987E+03  0.00000000000E+00 0.  1.
         21   -1    0    0  501  502 -0.00000000000E+00 -0.00000000000E+00 -0.11082210018E+03  0.11082210018E+03  0.00000000000E+00 0.  1.
         25    1    1    2    0    0 -0.76334754719E+02 -0.85812889302E+02  0.71116141032E+02  0.18404714685E+03  0.12500000000E+03 0.  0.
         25    1    1    2    0    0 -0.10272132567E+02 -0.20149849732E+02  0.21140881212E+03  0.24663782961E+03  0.12500000000E+03 0.  0.
         25    1    1    2    0    0  0.86606887286E+02  0.10596273903E+03  0.19700792654E+03  0.27049210360E+03  0.12500000000E+03 0.  0.
</event>
<event>
 5    0  0.5778875E-005  0.4315706E+03  0.7546771E-02  0.1033365E+00
         21   -1    0    0  502  501  0.00000000000E+00  0.00000000000E+00  0.34359165754E+03  0.34359165754E+03  0.00000000000E+00 0. -1.
         21   -1    0    0  501  502 -0.00000000000E+00 -0.00000000000E+00 -0.54207703387E+03  0.54207703387E+03  0.00000000000E+00 0. -1.
         25    1    1    2    0    0 -0.13098886363E+03  0.34859148237E-01  0.24139363944E+03  0.30175150832E+03  0.12500000000E+03 0.  0.
         25    1    1    2    0    0  0.48656792734E+02 -0.12309614268E+03 -0.15345267529E+03  0.23810264042E+03  0.12500000000E+03 0.  0.
         25    1    1    2    0    0  0.82332070897E+02  0.12306128353E+03 -0.28642634048E+03  0.34581454267E+03  0.12500000000E+03 0.  0.
</event>
<event>
 5    0  0.5778875E-005  0.2568362E+03  0.7546771E-02  0.1109059E+00
         21   -1    0    0  502  501  0.00000000000E+00  0.00000000000E+00  0.76759563371E+02  0.76759563371E+02  0.00000000000E+00 0.  1.
         21   -1    0    0  501  502 -0.00000000000E+00 -0.00000000000E+00 -0.85936960596E+03  0.85936960596E+03  0.00000000000E+00 0.  1.
         25    1    1    2    0    0 -0.44908857162E+01 -0.99005005072E+02 -0.19256057552E+03  0.25005346294E+03  0.12500000000E+03 0.  0.
         25    1    1    2    0    0 -0.30975856424E+02  0.88684107085E+02 -0.50926244442E+03  0.53272658262E+03  0.12500000000E+03 0.  0.
         25    1    1    2    0    0  0.35466742140E+02  0.10320897987E+02 -0.80787022648E+02  0.15334912377E+03  0.12500000000E+03 0.  0.
</event>
<event>
 5    0  0.5778875E-005  0.2792014E+03  0.7546771E-02  0.1096126E+00
         21   -1    0    0  502  501  0.00000000000E+00  0.00000000000E+00  0.69300579709E+03  0.69300579709E+03  0.00000000000E+00 0.  1.
         21   -1    0    0  501  502 -0.00000000000E+00 -0.00000000000E+00 -0.11248597969E+03  0.11248597969E+03  0.00000000000E+00 0.  1.
         25    1    1    2    0    0  0.10535250196E+03 -0.67940269451E+02  0.18667071227E+03  0.25726636916E+03  0.12500000000E+03 0.  0.
         25    1    1    2    0    0 -0.75916189735E+02 -0.77191233211E+02  0.27500436432E+03  0.32089586277E+03  0.12500000000E+03 0.  0.
         25    1    1    2    0    0 -0.29436312222E+02  0.14513150266E+03  0.11884474080E+03  0.22732954484E+03  0.12500000000E+03 0.  0.
</event>
<event>
 5    0  0.5778875E-005  0.3148531E+03  0.7546771E-02  0.1078043E+00
         21   -1    0    0  502  501  0.00000000000E+00  0.00000000000E+00  0.30109941577E+03  0.30109941577E+03  0.00000000000E+00 0. -1.
         21   -1    0    0  501  502 -0.00000000000E+00 -0.00000000000E+00 -0.32923509797E+03  0.32923509797E+03  0.00000000000E+00 0. -1.
         25    1    1    2    0    0  0.16567315365E+03  0.95361256027E+02 -0.12879154817E+03  0.26220912622E+03  0.12500000000E+03 0.  0.
         25    1    1    2    0    0 -0.29762896129E+02 -0.96891559586E+02  0.70230568833E+01  0.16108422528E+03  0.12500000000E+03 0.  0.
         25    1    1    2    0    0 -0.13591025752E+03  0.15303035595E+01  0.93632809077E+02  0.20704116225E+03  0.12500000000E+03 0.  0.
</event>
<event>
 5    0  0.5778875E-005  0.3647230E+03  0.7546771E-02  0.1056729E+00
         21   -1    0    0  502  501  0.00000000000E+00  0.00000000000E+00  0.76026365432E+03  0.76026365432E+03  0.00000000000E+00 0. -1.
         21   -1    0    0  501  502 -0.00000000000E+00 -0.00000000000E+00 -0.17496938520E+03  0.17496938520E+03  0.00000000000E+00 0. -1.
         25    1    1    2    0    0  0.14582577420E+03  0.62074332804E+02 -0.42176083016E+02  0.20620912005E+03  0.12500000000E+03 0.  0.
         25    1    1    2    0    0 -0.10874268262E+03  0.35770758216E+02  0.15672075589E+03  0.23084824776E+03  0.12500000000E+03 0.  0.
         25    1    1    2    0    0 -0.37083091576E+02 -0.97845091020E+02  0.47074959625E+03  0.49817567171E+03  0.12500000000E+03 0.  0.
</event>
<event>
 5    0  0.5778875E-005  0.2882700E+03  0.7546771E-02  0.1091256E+00
         21   -1    0    0  502  501  0.00000000000E+00  0.00000000000E+00  0.13120803702E+04  0.13120803702E+04  0.00000000000E+00 0. -1.
         21   -1    0    0  501  502 -0.00000000000E+00 -0.00000000000E+00 -0.63334239350E+02  0.63334239350E+02  0.00000000000E+00 0. -1.
         25    1    1    2    0    0 -0.22255109407E+02  0.10292611662E+03  0.51615925490E+03  0.54141892449E+03  0.12500000000E+03 0.  0.
         25    1    1    2    0    0  0.50629530854E+02  0.90442213493E+02  0.24353256289E+03  0.29270506071E+03  0.12500000000E+03 0.  0.
         25    1    1    2    0    0 -0.28374421448E+02 -0.19336833012E+03  0.48905431303E+03  0.54129062432E+03  0.12500000000E+03 0.  0.
</event>
<event>
 5    0  0.5778875E-005  0.2819820E+03  0.7546771E-02  0.1094611E+00
         21   -1    0    0  502  501  0.00000000000E+00  0.00000000000E+00  0.90114805424E+03  0.90114805424E+03  0.00000000000E+00 0. -1.
         21   -1    0    0  501  502 -0.00000000000E+00 -0.00000000000E+00 -0.88236150210E+02  0.88236150210E+02  0.00000000000E+00 0. -1.
         25    1    1    2    0    0 -0.96986174384E+02  0.14833437284E+03  0.38157475532E+03  0.43890055604E+03  0.12500000000E+03 0.  0.
         25    1    1    2    0    0  0.19273086672E+02 -0.13358477508E+03  0.17156790009E+03  0.25154897802E+03  0.12500000000E+03 0.  0.
         25    1    1    2    0    0  0.77713087712E+02 -0.14749597763E+02  0.25976924862E+03  0.29893467039E+03  0.12500000000E+03 0.  0.
</event>
<event>
 5    0  0.5778875E-005  0.3004056E+03  0.7546771E-02  0.1085038E+00
         21   -1    0    0  502  501  0.00000000000E+00  0.00000000000E+00  0.10820961907E+04  0.10820961907E+04  0.00000000000E+00 0.  1.
         21   -1    0    0  501  502 -0.00000000000E+00 -0.00000000000E+00 -0.83396938848E+02  0.83396938848E+02  0.00000000000E+00 0.  1.
         25    1    1    2    0    0  0.11576380769E+03 -0.11333005132E+03  0.45623019057E+03  0.50001594623E+03  0.12500000000E+03 0.  0.
         25    1    1    2    0    0 -0.99170624273E+02  0.75516270542E+02  0.97967741958E+02  0.20189155084E+03  0.12500000000E+03 0.  0.
         25    1    1    2    0    0 -0.16593183420E+02  0.37813780782E+02  0.44450131929E+03  0.46358563244E+03  0.12500000000E+03 0.  0.
</event>
<event>
 5    0  0.5778875E-005  0.2100647E+03  0.7546771E-02  0.1141515E+00
         21   -1    0    0  502  501  0.00000000000E+00  0.00000000000E+00  0.31180199889E+02  0.31180199889E+02  0.00000000000E+00 0.  1.
         21   -1    0    0  501  502 -0.00000000000E+00 -0.00000000000E+00 -0.14152313971E+04  0.14152313971E+04  0.00000000000E+00 0.  1.
         25    1    1    2    0    0  0.20196350765E+02  0.84045205202E+01 -0.62937525161E+03  0.64204107025E+03  0.12500000000E+03 0.  0.
         25    1    1    2    0    0 -0.55812421124E+02 -0.30823336143E+02 -0.47241099192E+03  0.49281056167E+03  0.12500000000E+03 0.  0.
         25    1    1    2    0    0  0.35616070359E+02  0.22418815623E+02 -0.28226495372E+03  0.31155996511E+03  0.12500000000E+03 0.  0.
</event>
<event>
 5    0  0.5778875E-005  0.3315696E+03  0.7546771E-02  0.1070444E+00
         21   -1    0    0  502  501  0.00000000000E+00  0.00000000000E+00  0.95093413194E+02  0.95093413194E+02  0.00000000000E+00 0. -1.
         21   -1    0    0  501  502 -0.00000000000E+00 -0.00000000000E+00 -0.11561096861E+04  0.11561096861E+04  0.00000000000E+00 0. -1.
         25    1    1    2    0    0 -0.54156024746E+01  0.15100296967E+03 -0.36954003339E+03  0.41834921044E+03  0.12500000000E+03 0.  0.
         25    1    1    2    0    0 -0.89386570026E+02  0.28551545794E+02 -0.78025740810E+02  0.17469449304E+03  0.12500000000E+03 0.  0.
         25    1    1    2    0    0  0.94802172500E+02 -0.17955451547E+03 -0.61345049870E+03  0.65815939581E+03  0.12500000000E+03 0.  0.
</event>
<event>
 5    0  0.5778875E-005  0.2780304E+03  0.7546771E-02  0.1096770E+00
         21   -1    0    0  502  501  0.00000000000E+00  0.00000000000E+00  0.12701913689E+03  0.12701913689E+03  0.00000000000E+00 0.  1.
         21   -1    0    0  501  502 -0.00000000000E+00 -0.00000000000E+00 -0.60857665763E+03  0.60857665763E+03  0.00000000000E+00 0.  1.
         25    1    1    2    0    0  0.12246495929E+03 -0.12290724829E+03 -0.10993748710E+03  0.24044772614E+03  0.12500000000E+03 0.  0.
         25    1    1    2    0    0 -0.27947883526E+02  0.18517786170E+02 -0.21160626922E+03  0.24804476566E+03  0.12500000000E+03 0.  0.
         25    1    1    2    0    0 -0.94517075761E+02  0.10438946212E+03 -0.16001376443E+03  0.24710330273E+03  0.12500000000E+03 0.  0.
</event>
<event>
 5    0  0.5778875E-005  0.2383732E+03  0.7546771E-02  0.1120881E+00
         21   -1    0    0  502  501  0.00000000000E+00  0.00000000000E+00  0.90461931882E+02  0.90461931882E+02  0.00000000000E+00 0.  1.
         21   -1    0    0  501  502 -0.00000000000E+00 -0.00000000000E+00 -0.62812921222E+03  0.62812921222E+03  0.00000000000E+00 0.  1.
         25    1    1    2    0    0 -0.14816955190E+02 -0.89717524766E+02 -0.25591088131E+03  0.29897183075E+03  0.12500000000E+03 0.  0.
         25    1    1    2    0    0  0.10334116818E+02 -0.82580780758E+01 -0.43041154887E+02  0.13286282715E+03  0.12500000000E+03 0.  0.
         25    1    1    2    0    0  0.44828383725E+01  0.97975602842E+02 -0.23871524414E+03  0.28675648620E+03  0.12500000000E+03 0.  0.
</event>
<event>
 5    0  0.5778875E-005  0.4158289E+03  0.7546771E-02  0.1038432E+00
         21   -1    0    0  502  501  0.00000000000E+00  0.00000000000E+00  0.39431667608E+03  0.39431667608E+03  0.00000000000E+00 0.  1.
         21   -1    0    0  501  502 -0.00000000000E+00 -0.00000000000E+00 -0.43851465161E+03  0.43851465161E+03  0.00000000000E+00 0.  1.
         25    1    1    2    0    0 -0.72932395875E+02 -0.78321559126E+02 -0.25551271568E+03  0.30391635176E+03  0.12500000000E+03 0.  0.
         25    1    1    2    0    0 -0.49017091767E+02  0.21629338913E+03  0.65594622853E+02  0.26289381889E+03  0.12500000000E+03 0.  0.
         25    1    1    2    0    0  0.12194948764E+03 -0.13797183000E+03  0.14572011730E+03  0.26602115704E+03  0.12500000000E+03 0.  0.
</event>
<event>
 5    0  0.5778875E-005  0.3288890E+03  0.7546771E-02  0.1071630E+00
         21   -1    0    0  502  501  0.00000000000E+00  0.00000000000E+00  0.11127769019E+03  0.11127769019E+03  0.00000000000E+00 0.  1.
         21   -1    0    0  501  502 -0.00000000000E+00 -0.00000000000E+00 -0.97205438656E+03  0.97205438656E+03  0.00000000000E+00 0.  1.
         25    1    1    2    0    0  0.15252913008E+02  0.72131067287E+02 -0.75910639995E+03  0.77285384690E+03  0.12500000000E+03 0.  0.
         25    1    1    2    0    0 -0.19211623752E+02 -0.92664782540E+02 -0.16207780703E+02  0.15761833829E+03  0.12500000000E+03 0.  0.
         25    1    1    2    0    0  0.39587107444E+01  0.20533715253E+02 -0.85462515724E+02  0.15285989156E+03  0.12500000000E+03 0.  0.
</event>
<event>
 5    0  0.5778875E-005  0.3105352E+03  0.7546771E-02  0.1080090E+00
         21   -1    0    0  502  501  0.00000000000E+00  0.00000000000E+00  0.26061520065E+03  0.26061520065E+03  0.00000000000E+00 0.  1.
         21   -1    0    0  501  502 -0.00000000000E+00 -0.00000000000E+00 -0.37001718160E+03  0.37001718160E+03  0.00000000000E+00 0.  1.
         25    1    1    2    0    0  0.12895197400E+03  0.15454209489E+03 -0.12182675610E+03  0.26641814727E+03  0.12500000000E+03 0.  0.
         25    1    1    2    0    0 -0.13146004924E+03 -0.83243549882E+02  0.66631273485E+02  0.21041853471E+03  0.12500000000E+03 0.  0.
         25    1    1    2    0    0  0.25080752350E+01 -0.71298545012E+02 -0.54206498330E+02  0.15379570028E+03  0.12500000000E+03 0.  0.
</event>
<event>
 5    0  0.5778875E-005  0.3327298E+03  0.7546771E-02  0.1069935E+00
         21   -1    0    0  502  501  0.00000000000E+00  0.00000000000E+00  0.24467597107E+03  0.24467597107E+03  0.00000000000E+00 0.  1.
         21   -1    0    0  501  502 -0.00000000000E+00 -0.00000000000E+00 -0.45247236910E+03  0.45247236910E+03  0.00000000000E+00 0.  1.
         25    1    1    2    0    0 -0.77396345312E+02 -0.27167447807E+02  0.13562708391E+03  0.20186126517E+03  0.12500000000E+03 0.  0.
         25    1    1    2    0    0  0.30047567055E+02 -0.97657016293E+02 -0.96768551516E+02  0.18822566690E+03  0.12500000000E+03 0.  0.
         25    1    1    2    0    0  0.47348778257E+02  0.12482446410E+03 -0.24665493043E+03  0.30706140810E+03  0.12500000000E+03 0.  0.
</event>
<event>
 5    0  0.5778875E-005  0.3088115E+03  0.7546771E-02  0.1080917E+00
         21   -1    0    0  502  501  0.00000000000E+00  0.00000000000E+00  0.53022657757E+03  0.53022657757E+03  0.00000000000E+00 0. -1.
         21   -1    0    0  501  502 -0.00000000000E+00 -0.00000000000E+00 -0.17985618319E+03  0.17985618319E+03  0.00000000000E+00 0. -1.
         25    1    1    2    0    0  0.13228244091E+03  0.10658170380E+03  0.21215548082E+03  0.29915422745E+03  0.12500000000E+03 0.  0.
         25    1    1    2    0    0 -0.11944732009E+03 -0.16769159286E+03  0.12278496329E+03  0.27035029092E+03  0.12500000000E+03 0.  0.
         25    1    1    2    0    0 -0.12835120821E+02  0.61109889061E+02  0.15429950268E+02  0.14057824239E+03  0.12500000000E+03 0.  0.
</event>
<event>
 5    0  0.5778875E-005  0.3569031E+03  0.7546771E-02  0.1059817E+00
         21   -1    0    0  502  501  0.00000000000E+00  0.00000000000E+00  0.56093486359E+03  0.56093486359E+03  0.00000000000E+00 0. -1.
         21   -1    0    0  501  502 -0.00000000000E+00 -0.00000000000E+00 -0.22708492405E+03  0.22708492405E+03  0.00000000000E+00 0. -1.
         25    1    1    2    0    0 -0.72308151214E+02 -0.20697871436E+02 -0.14925065139E+02  0.14664456411E+03  0.12500000000E+03 0.  0.
         25    1    1    2    0    0 -0.63015804262E+02  0.20300997297E+03  0.60875778528E+02  0.25399783685E+03  0.12500000000E+03 0.  0.
         25    1    1    2    0    0  0.13532395548E+03 -0.18231210153E+03  0.28789922615E+03  0.38737738668E+03  0.12500000000E+03 0.  0.
</event>
<event>
 5    0  0.5778875E-005  0.4809771E+03  0.7546771E-02  0.1018867E+00
         21   -1    0    0  502  501  0.00000000000E+00  0.00000000000E+00  0.42856646840E+03  0.42856646840E+03  0.00000000000E+00 0. -1.
         21   -1    0    0  501  502 -0.00000000000E+00 -0.00000000000E+00 -0.53979713548E+03  0.53979713548E+03  0.00000000000E+00 0. -1.
         25    1    1    2    0    0 -0.29265132823E+03  0.59562948904E+02 -0.43066055871E+02  0.32660714928E+03  0.12500000000E+03 0.  0.
         25    1    1    2    0    0  0.91470965147E+02  0.22101325515E+03 -0.10632398727E+02  0.27009599094E+03  0.12500000000E+03 0.  0.
         25    1    1    2    0    0  0.20118036308E+03 -0.28057620406E+03 -0.57532212483E+02  0.37166046366E+03  0.12500000000E+03 0.  0.
</event>
<event>
 5    0  0.5778875E-005  0.2558088E+03  0.7546771E-02  0.1109688E+00
         21   -1    0    0  502  501  0.00000000000E+00  0.00000000000E+00  0.25362852392E+03  0.25362852392E+03  0.00000000000E+00 0.  1.
         21   -1    0    0  501  502 -0.00000000000E+00 -0.00000000000E+00 -0.25800780114E+03  0.25800780114E+03  0.00000000000E+00 0.  1.
         25    1    1    2    0    0  0.34840612014E+02 -0.69925285963E+02  0.11152938603E+03  0.18484376595E+03  0.12500000000E+03 0.  0.
         25    1    1    2    0    0 -0.29724746688E+02  0.43327563224E+02 -0.14190950001E+03  0.19627568493E+03  0.12500000000E+03 0.  0.
         25    1    1    2    0    0 -0.51158653257E+01  0.26597722739E+02  0.26000836768E+02  0.13051687418E+03  0.12500000000E+03 0.  0.
</event>
<event>
 5    0  0.5778875E-005  0.2572785E+03  0.7546771E-02  0.1108789E+00
         21   -1    0    0  502  501  0.00000000000E+00  0.00000000000E+00  0.36869381935E+03  0.36869381935E+03  0.00000000000E+00 0.  1.
         21   -1    0    0  501  502 -0.00000000000E+00 -0.00000000000E+00 -0.17953163346E+03  0.17953163346E+03  0.00000000000E+00 0.  1.
         25    1    1    2    0    0  0.14108153369E+03  0.12845689062E+02  0.85710886493E+02  0.20746172404E+03  0.12500000000E+03 0.  0.
         25    1    1    2    0    0 -0.41200644410E+02  0.61223241094E+02  0.70588885073E+02  0.16141118005E+03  0.12500000000E+03 0.  0.
         25    1    1    2    0    0 -0.99880889284E+02 -0.74068930156E+02  0.32862414325E+02  0.17935254872E+03  0.12500000000E+03 0.  0.
</event>
<event>
 5    0  0.5778875E-005  0.2802217E+03  0.7546771E-02  0.1095568E+00
         21   -1    0    0  502  501  0.00000000000E+00  0.00000000000E+00  0.89680333080E+03  0.89680333080E+03  0.00000000000E+00 0.  1.
         21   -1    0    0  501  502 -0.00000000000E+00 -0.00000000000E+00 -0.87560084274E+02  0.87560084274E+02  0.00000000000E+00 0.  1.
         25    1    1    2    0    0 -0.12333196888E+03 -0.69552295813E+02  0.16333961562E+03  0.24970608008E+03  0.12500000000E+03 0.  0.
         25    1    1    2    0    0  0.12523516895E+02  0.12111578006E+03  0.34620844474E+03  0.38769982959E+03  0.12500000000E+03 0.  0.
         25    1    1    2    0    0  0.11080845199E+03 -0.51563484247E+02  0.29969518617E+03  0.34695750540E+03  0.12500000000E+03 0.  0.
</event>
<event>
 5    0  0.5778875E-005  0.2882121E+03  0.7546771E-02  0.1091286E+00
         21   -1    0    0  502  501  0.00000000000E+00  0.00000000000E+00  0.15781423932E+04  0.15781423932E+04  0.00000000000E+00 0.  1.
         21   -1    0    0  501  502 -0.00000000000E+00 -0.00000000000E+00 -0.52635436541E+02  0.52635436541E+02  0.00000000000E+00 0.  1.
         25    1    1    2    0    0  0.75454345625E+02 -0.54477770007E+02  0.25140159696E+03  0.29578530838E+03  0.12500000000E+03 0.  0.
         25    1    1    2    0    0 -0.32659520328E+02  0.17835801863E+02  0.11245937275E+04  0.11321310932E+04  0.12500000000E+03 0.  0.
         25    1    1    2    0    0 -0.42794825297E+02  0.36641968144E+02  0.14951163219E+03  0.20286142823E+03  0.12500000000E+03 0.  0.
</event>
<event>
 5    0  0.5778875E-005  0.4887549E+03  0.7546771E-02  0.1016756E+00
         21   -1    0    0  502  501  0.00000000000E+00  0.00000000000E+00  0.22998386217E+03  0.22998386217E+03  0.00000000000E+00 0.  1.
         21   -1    0    0  501  502 -0.00000000000E+00 -0.00000000000E+00 -0.10386875141E+04  0.10386875141E+04  0.00000000000E+00 0.  1.
         25    1    1    2    0    0  0.54528940332E+02  0.19024319093E+03  0.88245098334E+02  0.25015610009E+03  0.12500000000E+03 0.  0.
         25    1    1    2    0    0 -0.72197318399E+02  0.92720572666E+02 -0.35376361157E+03  0.39317076475E+03  0.12500000000E+03 0.  0.
         25    1    1    2    0    0  0.17668378067E+02 -0.28296376360E+03 -0.54318513874E+03  0.62534451148E+03  0.12500000000E+03 0.  0.
</event>
<event>
 5    0  0.5778875E-005  0.2745949E+03  0.7546771E-02  0.1098678E+00
         21   -1    0    0  502  501  0.00000000000E+00  0.00000000000E+00  0.97418635905E+03  0.97418635905E+03  0.00000000000E+00 0. -1.
         21   -1    0    0  501  502 -0.00000000000E+00 -0.00000000000E+00 -0.77400329683E+02  0.77400329683E+02  0.00000000000E+00 0. -1.
         25    1    1    2    0    0  0.21080637880E+02  0.28748158966E+02  0.30161557937E+03  0.32843234867E+03  0.12500000000E+03 0.  0.
         25    1    1    2    0    0 -0.12255400655E+03 -0.12234111785E+03  0.39965395250E+03  0.45313917882E+03  0.12500000000E+03 0.  0.
         25    1    1    2    0    0  0.10147336867E+03  0.93592958880E+02  0.19551649750E+03  0.27001516123E+03  0.12500000000E+03 0.  0.
</event>
<event>
 5    0  0.5778875E-005  0.4868881E+03  0.7546771E-02  0.1017259E+00
         21   -1    0    0  502  501  0.00000000000E+00  0.00000000000E+00  0.92052169424E+03  0.92052169424E+03  0.00000000000E+00 0.  1.
         21   -1    0    0  501  502 -0.00000000000E+00 -0.00000000000E+00 -0.25752788296E+03  0.25752788296E+03  0.00000000000E+00 0.  1.
         25    1    1    2    0    0 -0.28447863745E+02  0.32587633638E+03  0.51624186176E+02  0.35396994810E+03  0.12500000000E+03 0.  0.
         25    1    1    2    0    0  0.97054513791E+02 -0.30901476784E+03  0.58175211520E+03  0.67747341566E+03  0.12500000000E+03 0.  0.
         25    1    1    2    0    0 -0.68606650046E+02 -0.16861568540E+02  0.29617509906E+02  0.14660621343E+03  0.12500000000E+03 0.  0.
</event>
<event>
 5    0  0.5778875E-005  0.2648723E+03  0.7546771E-02  0.1104251E+00
         21   -1    0    0  502  501  0.00000000000E+00  0.00000000000E+00  0.12094201304E+04  0.12094201304E+04  0.00000000000E+00 0.  1.
         21   -1    0    0  501  502 -0.00000000000E+00 -0.00000000000E+00 -0.58009062279E+02  0.58009062279E+02  0.00000000000E+00 0.  1.
         25    1    1    2    0    0 -0.13861150116E+02 -0.10744378512E+03  0.80227786641E+03  0.81915265572E+03  0.12500000000E+03 0.  0.
         25    1    1    2    0    0  0.12238404610E+02  0.79924117569E+02  0.14839484948E+03  0.21019913051E+03  0.12500000000E+03 0.  0.
         25    1    1    2    0    0  0.16227455053E+01  0.27519667549E+02  0.20073835227E+03  0.23807740648E+03  0.12500000000E+03 0.  0.
</event>
<event>
 5    0  0.5778875E-005  0.2723277E+03  0.7546771E-02  0.1099955E+00
         21   -1    0    0  502  501  0.00000000000E+00  0.00000000000E+00  0.49685375602E+03  0.49685375602E+03  0.00000000000E+00 0. -1.
         21   -1    0    0  501  502 -0.00000000000E+00 -0.00000000000E+00 -0.14926394342E+03  0.14926394342E+03  0.00000000000E+00 0. -1.
         25    1    1    2    0    0  0.58668368974E+02 -0.28584274884E+02  0.45738381285E+02  0.14824317121E+03  0.12500000000E+03 0.  0.
         25    1    1    2    0    0  0.88590223455E+02 -0.12337278418E+02  0.21838253412E+02  0.15524930094E+03  0.12500000000E+03 0.  0.
         25    1    1    2    0    0 -0.14725859243E+03  0.40921553301E+02  0.28001317790E+03  0.34262522728E+03  0.12500000000E+03 0.  0.
</event>
<event>
 5    0  0.5802332E-005  0.3256204E+03  0.7546771E-02  0.1073091E+00
         21   -1    0    0  502  501  0.00000000000E+00  0.00000000000E+00  0.81154472176E+03  0.81154472176E+03  0.00000000000E+00 0. -1.
         21   -1    0    0  501  502 -0.00000000000E+00 -0.00000000000E+00 -0.13065040464E+03  0.13065040464E+03  0.00000000000E+00 0. -1.
         25    1    1    2    0    0 -0.66538429784E+02 -0.11985651189E+03  0.13294829092E+03  0.22823933522E+03  0.12500000000E+03 0.  0.
         25    1    1    2    0    0 -0.73690745661E+01 -0.92185039456E+02  0.37005491791E+03  0.40139510090E+03  0.12500000000E+03 0.  0.
         25    1    1    2    0    0  0.73907504350E+02  0.21204155135E+03  0.17789110829E+03  0.31256069028E+03  0.12500000000E+03 0.  0.
</event>
<event>
 5    0  0.5778875E-005  0.3268388E+03  0.7546771E-02  0.1072544E+00
         21   -1    0    0  502  501  0.00000000000E+00  0.00000000000E+00  0.91527038766E+03  0.91527038766E+03  0.00000000000E+00 0.  1.
         21   -1    0    0  501  502 -0.00000000000E+00 -0.00000000000E+00 -0.11671261330E+03  0.11671261330E+03  0.00000000000E+00 0.  1.
         25    1    1    2    0    0 -0.99035559436E+02  0.10416824803E+02  0.71734303401E+03  0.73493032372E+03  0.12500000000E+03 0.  0.
         25    1    1    2    0    0  0.32152399334E+02  0.39207070047E+02  0.48355000994E+02  0.14329751305E+03  0.12500000000E+03 0.  0.
         25    1    1    2    0    0  0.66883160102E+02 -0.49623894850E+02  0.32859739347E+02  0.15375516419E+03  0.12500000000E+03 0.  0.
</event>
<event>
 5    0  0.5778875E-005  0.3666013E+03  0.7546771E-02  0.1056000E+00
         21   -1    0    0  502  501  0.00000000000E+00  0.00000000000E+00  0.80283448536E+03  0.80283448536E+03  0.00000000000E+00 0.  1.
         21   -1    0    0  501  502 -0.00000000000E+00 -0.00000000000E+00 -0.16740249325E+03  0.16740249325E+03  0.00000000000E+00 0. -1.
         25    1    1    2    0    0  0.12281364337E+03 -0.32963130169E+02 -0.26669693637E+02  0.18029429139E+03  0.12500000000E+03 0.  0.
         25    1    1    2    0    0  0.10197761589E+03 -0.21700020477E+02  0.19593249687E+03  0.25472508388E+03  0.12500000000E+03 0.  0.
         25    1    1    2    0    0 -0.22479125925E+03  0.54663150645E+02  0.46616918888E+03  0.53521760335E+03  0.12500000000E+03 0.  0.
</event>
<event>
 5    0  0.5778875E-005  0.2739490E+03  0.7546771E-02  0.1099041E+00
         21   -1    0    0  502  501  0.00000000000E+00  0.00000000000E+00  0.28077775668E+03  0.28077775668E+03  0.00000000000E+00 0. -1.
         21   -1    0    0  501  502 -0.00000000000E+00 -0.00000000000E+00 -0.26728625531E+03  0.26728625531E+03  0.00000000000E+00 0. -1.
         25    1    1    2    0    0  0.73343650079E+02  0.96526139222E+02 -0.17006305920E+02  0.17495942673E+03  0.12500000000E+03 0.  0.
         25    1    1    2    0    0 -0.52758045861E+02  0.44507219847E+02 -0.69460942422E+02  0.15878956686E+03  0.12500000000E+03 0.  0.
         25    1    1    2    0    0 -0.20585604219E+02 -0.14103335907E+03  0.99958749709E+02  0.21431501841E+03  0.12500000000E+03 0.  0.
</event>
<event>
 5    0  0.5778875E-005  0.2594100E+03  0.7546771E-02  0.1107498E+00
         21   -1    0    0  502  501  0.00000000000E+00  0.00000000000E+00  0.53023752569E+03  0.53023752569E+03  0.00000000000E+00 0.  1.
         21   -1    0    0  501  502 -0.00000000000E+00 -0.00000000000E+00 -0.12691205641E+03  0.12691205641E+03  0.00000000000E+00 0.  1.
         25    1    1    2    0    0  0.10672284553E+03  0.12402104090E+02  0.11892235120E+03  0.20325133101E+03  0.12500000000E+03 0.  0.
         25    1    1    2    0    0 -0.88814658986E+01 -0.54857849214E+02  0.14036437799E+02  0.13751467428E+03  0.12500000000E+03 0.  0.
         25    1    1    2    0    0 -0.97841379627E+02  0.42455745124E+02  0.27036668029E+03  0.31638357680E+03  0.12500000000E+03 0.  0.
</event>
<event>
 5    0  0.5778875E-005  0.3378293E+03  0.7546771E-02  0.1067724E+00
         21   -1    0    0  502  501  0.00000000000E+00  0.00000000000E+00  0.43015045647E+03  0.43015045647E+03  0.00000000000E+00 0. -1.
         21   -1    0    0  501  502 -0.00000000000E+00 -0.00000000000E+00 -0.26532260225E+03  0.26532260225E+03  0.00000000000E+00 0. -1.
         25    1    1    2    0    0  0.10534581829E+02  0.42188036742E+02  0.10760327175E+03  0.17057043105E+03  0.12500000000E+03 0.  0.
         25    1    1    2    0    0  0.99799101189E+02 -0.37346863288E+02  0.23138077540E+03  0.28375466872E+03  0.12500000000E+03 0.  0.
         25    1    1    2    0    0 -0.11033368302E+03 -0.48411734535E+01 -0.17415619293E+03  0.24114795894E+03  0.12500000000E+03 0.  0.
</event>
<event>
 5    0  0.5778875E-005  0.4206423E+03  0.7546771E-02  0.1036857E+00
         21   -1    0    0  502  501  0.00000000000E+00  0.00000000000E+00  0.41496267017E+04  0.41496267017E+04  0.00000000000E+00 0.  1.
         21   -1    0    0  501  502 -0.00000000000E+00 -0.00000000000E+00 -0.42639957943E+02  0.42639957943E+02  0.00000000000E+00 0.  1.
         25    1    1    2    0    0 -0.35249514698E+03 -0.16322771372E+02  0.14561253968E+04  0.15034777793E+04  0.12500000000E+03 0.  0.
         25    1    1    2    0    0  0.12196747179E+03  0.12951812616E+02  0.76561943989E+03  0.78539285734E+03  0.12500000000E+03 0.  0.
         25    1    1    2    0    0  0.23052767518E+03  0.33709587555E+01  0.18852419071E+04  0.19033960230E+04  0.12500000000E+03 0.  0.
</event>
<event>
 5    0  0.5778875E-005  0.4259310E+03  0.7546771E-02  0.1035153E+00
         21   -1    0    0  502  501  0.00000000000E+00  0.00000000000E+00  0.76125174406E+03  0.76125174406E+03  0.00000000000E+00 0. -1.
         21   -1    0    0  501  502 -0.00000000000E+00 -0.00000000000E+00 -0.23831438622E+03  0.23831438622E+03  0.00000000000E+00 0. -1.
         25    1    1    2    0    0 -0.15278863578E+03  0.33580028671E+03  0.21550541365E+03  0.44516714062E+03  0.12500000000E+03 0.  0.
         25    1    1    2    0    0  0.10910141216E+03 -0.12519498434E+03  0.17964010443E+03  0.27472253158E+03  0.12500000000E+03 0.  0.
         25    1    1    2    0    0  0.43687223624E+02 -0.21060530237E+03  0.12779183976E+03  0.27967645808E+03  0.12500000000E+03 0.  0.
</event>
<event>
 5    0  0.5778875E-005  0.6731252E+03  0.7546771E-02  0.9764328E-01
         21   -1    0    0  502  501  0.00000000000E+00  0.00000000000E+00  0.55614462881E+03  0.55614462881E+03  0.00000000000E+00 0.  1.
         21   -1    0    0  501  502 -0.00000000000E+00 -0.00000000000E+00 -0.81471174900E+03  0.81471174900E+03  0.00000000000E+00 0.  1.
         25    1    1    2    0    0 -0.16874750514E+03  0.34531343508E+02  0.40531066680E+03  0.45778801950E+03  0.12500000000E+03 0.  0.
         25    1    1    2    0    0 -0.25789497722E+02  0.23619037666E+03 -0.32495284978E+03  0.42150960464E+03  0.12500000000E+03 0.  0.
         25    1    1    2    0    0  0.19453700286E+03 -0.27072172017E+03 -0.33892493720E+03  0.49155875367E+03  0.12500000000E+03 0.  0.
</event>
<event>
 5    0  0.6134727E-005  0.4027403E+03  0.7546771E-02  0.1042835E+00
         21   -1    0    0  502  501  0.00000000000E+00  0.00000000000E+00  0.67046712737E+03  0.67046712737E+03  0.00000000000E+00 0.  1.
         21   -1    0    0  501  502 -0.00000000000E+00 -0.00000000000E+00 -0.24192052029E+03  0.24192052029E+03  0.00000000000E+00 0.  1.
         25    1    1    2    0    0 -0.23780606848E+03  0.20977220498E+02  0.61506150382E+01  0.26954517256E+03  0.12500000000E+03 0.  0.
         25    1    1    2    0    0  0.10208248277E+03  0.10063724999E+03  0.36955297289E+03  0.41562373506E+03  0.12500000000E+03 0.  0.
         25    1    1    2    0    0  0.13572358571E+03 -0.12161447049E+03  0.52843019161E+02  0.22721874004E+03  0.12500000000E+03 0.  0.
</event>
<event>
 5    0  0.5778875E-005  0.3845182E+03  0.7546771E-02  0.1049276E+00
         21   -1    0    0  502  501  0.00000000000E+00  0.00000000000E+00  0.11310804331E+04  0.11310804331E+04  0.00000000000E+00 0.  1.
         21   -1    0    0  501  502 -0.00000000000E+00 -0.00000000000E+00 -0.13071949325E+03  0.13071949325E+03  0.00000000000E+00 0.  1.
         25    1    1    2    0    0 -0.27170946169E+03  0.40964011047E+02  0.21273005422E+03  0.36930090406E+03  0.12500000000E+03 0.  0.
         25    1    1    2    0    0  0.13982247837E+03 -0.11116742787E+03  0.49586492544E+03  0.54167845329E+03  0.12500000000E+03 0.  0.
         25    1    1    2    0    0  0.13188698333E+03  0.70203416825E+02  0.29176596020E+03  0.35082056901E+03  0.12500000000E+03 0.  0.
</event>
<event>
 5    0  0.5778875E-005  0.3573477E+03  0.7546771E-02  0.1059639E+00
         21   -1    0    0  502  501  0.00000000000E+00  0.00000000000E+00  0.98810025067E+02  0.98810025067E+02  0.00000000000E+00 0. -1.
         21   -1    0    0  501  502 -0.00000000000E+00 -0.00000000000E+00 -0.12923527265E+04  0.12923527265E+04  0.00000000000E+00 0. -1.
         25    1    1    2    0    0 -0.50069357792E+02  0.18514184566E+03 -0.26862406627E+03  0.35294239273E+03  0.12500000000E+03 0.  0.
         25    1    1    2    0    0  0.83658936721E+02 -0.26928665782E+03 -0.70501881906E+03  0.76953924981E+03  0.12500000000E+03 0.  0.
         25    1    1    2    0    0 -0.33589578929E+02  0.84144812158E+02 -0.21989981608E+03  0.26868110901E+03  0.12500000000E+03 0.  0.
</event>
<event>
 5    0  0.5778875E-005  0.2619689E+03  0.7546771E-02  0.1105966E+00
         21   -1    0    0  502  501  0.00000000000E+00  0.00000000000E+00  0.89864238972E+02  0.89864238972E+02  0.00000000000E+00 0. -1.
         21   -1    0    0  501  502 -0.00000000000E+00 -0.00000000000E+00 -0.76368174761E+03  0.76368174761E+03  0.00000000000E+00 0. -1.
         25    1    1    2    0    0  0.51830884986E+01 -0.65552149161E+02 -0.13432853432E+03  0.19491819771E+03  0.12500000000E+03 0.  0.
         25    1    1    2    0    0  0.74675424925E+02 -0.38656555812E+02 -0.93757818636E+02  0.17744372897E+03  0.12500000000E+03 0.  0.
         25    1    1    2    0    0 -0.79858513423E+02  0.10420870497E+03 -0.44573115569E+03  0.48118405991E+03  0.12500000000E+03 0.  0.
</event>
<event>
 5    0  0.5778875E-005  0.3496011E+03  0.7546771E-02  0.1062779E+00
         21   -1    0    0  502  501  0.00000000000E+00  0.00000000000E+00  0.40321052351E+03  0.40321052351E+03  0.00000000000E+00 0. -1.
         21   -1    0    0  501  502 -0.00000000000E+00 -0.00000000000E+00 -0.30311946937E+03  0.30311946937E+03  0.00000000000E+00 0. -1.
         25    1    1    2    0    0  0.85417384505E+02  0.27442703476E+01 -0.16485245754E+03  0.22384144690E+03  0.12500000000E+03 0.  0.
         25    1    1    2    0    0  0.76610626093E+02 -0.96966998160E+02  0.14110474522E+03  0.22540482667E+03  0.12500000000E+03 0.  0.
         25    1    1    2    0    0 -0.16202801060E+03  0.94222727812E+02  0.12383876647E+03  0.25708371931E+03  0.12500000000E+03 0.  0.
</event>
<event>
 5    0  0.5778875E-005  0.2579616E+03  0.7546771E-02  0.1108374E+00
         21   -1    0    0  502  501  0.00000000000E+00  0.00000000000E+00  0.21537023051E+03  0.21537023051E+03  0.00000000000E+00 0. -1.
         21   -1    0    0  501  502 -0.00000000000E+00 -0.00000000000E+00 -0.30897590441E+03  0.30897590441E+03  0.00000000000E+00 0. -1.
         25    1    1    2    0    0  0.13145319824E+03  0.42996710908E+02 -0.93478242439E+02  0.20854697861E+03  0.12500000000E+03 0.  0.
         25    1    1    2    0    0 -0.22689701101E+02  0.28778085153E+02 -0.27590070502E+02  0.13315108979E+03  0.12500000000E+03 0.  0.
         25    1    1    2    0    0 -0.10876349714E+03 -0.71774796061E+02  0.27462639041E+02  0.18264806652E+03  0.12500000000E+03 0.  0.
</event>
<event>
 5    0  0.5778875E-005  0.4648149E+03  0.7546771E-02  0.1023394E+00
         21   -1    0    0  502  501  0.00000000000E+00  0.00000000000E+00  0.10495393331E+03  0.10495393331E+03  0.00000000000E+00 0. -1.
         21   -1    0    0  501  502 -0.00000000000E+00 -0.00000000000E+00 -0.20585494639E+04  0.20585494639E+04  0.00000000000E+00 0. -1.
         25    1    1    2    0    0  0.19484296379E+03  0.37796727727E+02 -0.54669644974E+03  0.59489022628E+03  0.12500000000E+03 0.  0.
         25    1    1    2    0    0  0.16486572781E+03  0.97756836974E+02 -0.85139017857E+03  0.88160498158E+03  0.12500000000E+03 0.  0.
         25    1    1    2    0    0 -0.35970869160E+03 -0.13555356470E+03 -0.55550890231E+03  0.68700818937E+03  0.12500000000E+03 0.  0.
</event>
<event>
 5    0  0.5778875E-005  0.4032110E+03  0.7546771E-02  0.1042673E+00
         21   -1    0    0  502  501  0.00000000000E+00  0.00000000000E+00  0.68120498693E+03  0.68120498693E+03  0.00000000000E+00 0. -1.
         21   -1    0    0  501  502 -0.00000000000E+00 -0.00000000000E+00 -0.23866401357E+03  0.23866401357E+03  0.00000000000E+00 0. -1.
         25    1    1    2    0    0  0.56488154532E+02  0.26572295921E+02  0.46648937242E+03  0.48696440639E+03  0.12500000000E+03 0.  0.
         25    1    1    2    0    0 -0.10063243318E+03 -0.17199913716E+03 -0.20005001095E+02  0.23608428550E+03  0.12500000000E+03 0.  0.
         25    1    1    2    0    0  0.44144278647E+02  0.14542684124E+03 -0.39433979582E+01  0.19682030860E+03  0.12500000000E+03 0.  0.
</event>
<event>
 5    0  0.5778875E-005  0.2450765E+03  0.7546771E-02  0.1116456E+00
         21   -1    0    0  502  501  0.00000000000E+00  0.00000000000E+00  0.25165434750E+03  0.25165434750E+03  0.00000000000E+00 0.  1.
         21   -1    0    0  501  502 -0.00000000000E+00 -0.00000000000E+00 -0.23867060760E+03  0.23867060760E+03  0.00000000000E+00 0.  1.
         25    1    1    2    0    0 -0.13391295888E+03  0.44117858357E+02 -0.12695785245E+02  0.18885245284E+03  0.12500000000E+03 0.  0.
         25    1    1    2    0    0  0.78780576136E+02  0.70976076753E+01 -0.18380110155E+02  0.14906234823E+03  0.12500000000E+03 0.  0.
         25    1    1    2    0    0  0.55132382740E+02 -0.51215466032E+02  0.44059635306E+02  0.15241015403E+03  0.12500000000E+03 0.  0.
</event>
<event>
 5    0  0.5778875E-005  0.2729390E+03  0.7546771E-02  0.1099609E+00
         21   -1    0    0  502  501  0.00000000000E+00  0.00000000000E+00  0.55409863754E+03  0.55409863754E+03  0.00000000000E+00 0.  1.
         21   -1    0    0  501  502 -0.00000000000E+00 -0.00000000000E+00 -0.13444481990E+03  0.13444481990E+03  0.00000000000E+00 0.  1.
         25    1    1    2    0    0  0.82146421036E+02 -0.88854533425E+02  0.23737235703E+03  0.29430222303E+03  0.12500000000E+03 0.  0.
         25    1    1    2    0    0 -0.13008176385E+03  0.20555174737E+02  0.16057438387E+03  0.24239000238E+03  0.12500000000E+03 0.  0.
         25    1    1    2    0    0  0.47935342819E+02  0.68299358688E+02  0.21707076739E+02  0.15185123203E+03  0.12500000000E+03 0.  0.
</event>
<event>
 5    0  0.5778875E-005  0.3740445E+03  0.7546771E-02  0.1053157E+00
         21   -1    0    0  502  501  0.00000000000E+00  0.00000000000E+00  0.33716990110E+03  0.33716990110E+03  0.00000000000E+00 0. -1.
         21   -1    0    0  501  502 -0.00000000000E+00 -0.00000000000E+00 -0.41495192804E+03  0.41495192804E+03  0.00000000000E+00 0. -1.
         25    1    1    2    0    0 -0.12095579953E+03 -0.32203312070E+02 -0.24232014178E+03  0.30001901584E+03  0.12500000000E+03 0.  0.
         25    1    1    2    0    0  0.21397342529E+02 -0.12018603100E+03 -0.32832241009E+01  0.17475213268E+03  0.12500000000E+03 0.  0.
         25    1    1    2    0    0  0.99558457002E+02  0.15238934307E+03  0.16782133895E+03  0.27735068063E+03  0.12500000000E+03 0.  0.
</event>
<event>
 5    0  0.5890587E-005  0.3479095E+03  0.7546771E-02  0.1063476E+00
         21   -1    0    0  502  501  0.00000000000E+00  0.00000000000E+00  0.82729671730E+03  0.82729671730E+03  0.00000000000E+00 0. -1.
         21   -1    0    0  501  502 -0.00000000000E+00 -0.00000000000E+00 -0.14630908171E+03  0.14630908171E+03  0.00000000000E+00 0. -1.
         25    1    1    2    0    0  0.50771990846E+02 -0.18941488447E+03  0.33417908953E+03  0.40713199014E+03  0.12500000000E+03 0.  0.
         25    1    1    2    0    0 -0.41181103899E+02 -0.39046736066E+02  0.59479816394E+01  0.13740782147E+03  0.12500000000E+03 0.  0.
         25    1    1    2    0    0 -0.95908869473E+01  0.22846162053E+03  0.34086056442E+03  0.42906598740E+03  0.12500000000E+03 0.  0.
</event>
<event>
 5    0  0.5778875E-005  0.3556424E+03  0.7546771E-02  0.1060323E+00
         21   -1    0    0  502  501  0.00000000000E+00  0.00000000000E+00  0.11899087254E+04  0.11899087254E+04  0.00000000000E+00 0. -1.
         21   -1    0    0  501  502 -0.00000000000E+00 -0.00000000000E+00 -0.10629514128E+03  0.10629514128E+03  0.00000000000E+00 0. -1.
         25    1    1    2    0    0 -0.59611562079E+02  0.61483102863E+02  0.11884888189E+03  0.19257145946E+03  0.12500000000E+03 0.  0.
         25    1    1    2    0    0 -0.55394998918E+02 -0.17221946545E+03  0.83366092533E+03  0.86217381577E+03  0.12500000000E+03 0.  0.
         25    1    1    2    0    0  0.11500656100E+03  0.11073636259E+03  0.13110377695E+03  0.24145859149E+03  0.12500000000E+03 0.  0.
</event>
<event>
 5    0  0.5778875E-005  0.2608606E+03  0.7546771E-02  0.1106627E+00
         21   -1    0    0  502  501  0.00000000000E+00  0.00000000000E+00  0.23268436395E+03  0.23268436395E+03  0.00000000000E+00 0. -1.
         21   -1    0    0  501  502 -0.00000000000E+00 -0.00000000000E+00 -0.29244867470E+03  0.29244867470E+03  0.00000000000E+00 0. -1.
         25    1    1    2    0    0 -0.15977167511E+02  0.69707550431E+02 -0.11859035616E+03  0.18655584966E+03  0.12500000000E+03 0.  0.
         25    1    1    2    0    0  0.91402591609E+02 -0.66931615631E+02  0.87082247684E+02  0.18984886828E+03  0.12500000000E+03 0.  0.
         25    1    1    2    0    0 -0.75425424098E+02 -0.27759347994E+01 -0.28256202264E+02  0.14872832071E+03  0.12500000000E+03 0.  0.
</event>
<event>
 5    0  0.5892962E-005  0.3752375E+03  0.7546771E-02  0.1052708E+00
         21   -1    0    0  502  501  0.00000000000E+00  0.00000000000E+00  0.85656733405E+03  0.85656733405E+03  0.00000000000E+00 0. -1.
         21   -1    0    0  501  502 -0.00000000000E+00 -0.00000000000E+00 -0.16438073010E+03  0.16438073010E+03  0.00000000000E+00 0. -1.
         25    1    1    2    0    0  0.19279892552E+02  0.10432223722E+03  0.35467205105E+02  0.16774315507E+03  0.12500000000E+03 0.  0.
         25    1    1    2    0    0  0.15802957287E+03 -0.20216145089E+03  0.47345300558E+03  0.55283392319E+03  0.12500000000E+03 0.  0.
         25    1    1    2    0    0 -0.17730946543E+03  0.97839213669E+02  0.18326639326E+03  0.30037098588E+03  0.12500000000E+03 0.  0.
</event>
<event>
 5    0  0.5778875E-005  0.3751957E+03  0.7546771E-02  0.1052724E+00
         21   -1    0    0  502  501  0.00000000000E+00  0.00000000000E+00  0.82767013220E+02  0.82767013220E+02  0.00000000000E+00 0. -1.
         21   -1    0    0  501  502 -0.00000000000E+00 -0.00000000000E+00 -0.17008206353E+04  0.17008206353E+04  0.00000000000E+00 0. -1.
         25    1    1    2    0    0 -0.21076066721E+02 -0.16352626068E+03 -0.58050569255E+03  0.61627664048E+03  0.12500000000E+03 0.  0.
         25    1    1    2    0    0  0.10405128807E+03 -0.95237539874E+02 -0.65574893999E+03  0.68229651314E+03  0.12500000000E+03 0.  0.
         25    1    1    2    0    0 -0.82975221348E+02  0.25876380056E+03 -0.38179898952E+03  0.48501449487E+03  0.12500000000E+03 0.  0.
</event>
<event>
 5    0  0.5778875E-005  0.3341635E+03  0.7546771E-02  0.1069309E+00
         21   -1    0    0  502  501  0.00000000000E+00  0.00000000000E+00  0.10914048693E+04  0.10914048693E+04  0.00000000000E+00 0. -1.
         21   -1    0    0  501  502 -0.00000000000E+00 -0.00000000000E+00 -0.10231329992E+03  0.10231329992E+03  0.00000000000E+00 0. -1.
         25    1    1    2    0    0  0.17069388704E+03 -0.18718423923E+03  0.55471434857E+03  0.62250088433E+03  0.12500000000E+03 0.  0.
         25    1    1    2    0    0 -0.82473616981E+02  0.35758684235E+02  0.15433707949E+03  0.21800347497E+03  0.12500000000E+03 0.  0.
         25    1    1    2    0    0 -0.88220270055E+02  0.15142555499E+03  0.28004014129E+03  0.35321380987E+03  0.12500000000E+03 0.  0.
</event>
<event>
 5    0  0.5778875E-005  0.3917809E+03  0.7546771E-02  0.1046663E+00
         21   -1    0    0  502  501  0.00000000000E+00  0.00000000000E+00  0.43921918609E+03  0.43921918609E+03  0.00000000000E+00 0.  1.
         21   -1    0    0  501  502 -0.00000000000E+00 -0.00000000000E+00 -0.34946614372E+03  0.34946614372E+03  0.00000000000E+00 0.  1.
         25    1    1    2    0    0  0.22691260209E+02 -0.12252961059E+03  0.75943001791E+02  0.19214769914E+03  0.12500000000E+03 0.  0.
         25    1    1    2    0    0 -0.24809876592E+03 -0.50778114783E+02 -0.25053475445E+02  0.28352088323E+03  0.12500000000E+03 0.  0.
         25    1    1    2    0    0  0.22540750571E+03  0.17330772538E+03  0.38863516028E+02  0.31301674745E+03  0.12500000000E+03 0.  0.
</event>
<event>
 5    0  0.5778875E-005  0.3827589E+03  0.7546771E-02  0.1049919E+00
         21   -1    0    0  502  501  0.00000000000E+00  0.00000000000E+00  0.87913299418E+03  0.87913299418E+03  0.00000000000E+00 0.  1.
         21   -1    0    0  501  502 -0.00000000000E+00 -0.00000000000E+00 -0.16664643174E+03  0.16664643174E+03  0.00000000000E+00 0.  1.
         25    1    1    2    0    0  0.16654885618E+03 -0.13825531008E+03  0.53803882638E+02  0.25568126651E+03  0.12500000000E+03 0.  0.
         25    1    1    2    0    0 -0.16547278952E+03  0.15347146071E+03  0.59597868595E+03  0.64942307276E+03  0.12500000000E+03 0.  0.
         25    1    1    2    0    0 -0.10760666571E+01 -0.15216150628E+02  0.62703993850E+02  0.14067508665E+03  0.12500000000E+03 0.  0.
</event>
<event>
 5    0  0.5778875E-005  0.2618727E+03  0.7546771E-02  0.1106023E+00
         21   -1    0    0  502  501  0.00000000000E+00  0.00000000000E+00  0.55467180464E+03  0.55467180464E+03  0.00000000000E+00 0.  1.
         21   -1    0    0  501  502 -0.00000000000E+00 -0.00000000000E+00 -0.12363582617E+03  0.12363582617E+03  0.00000000000E+00 0.  1.
         25    1    1    2    0    0 -0.33104373551E+02  0.63075052209E+02  0.62762110223E+02  0.15696637933E+03  0.12500000000E+03 0.  0.
         25    1    1    2    0    0  0.86795599626E+02 -0.91400821365E+02  0.33395658397E+03  0.37820574590E+03  0.12500000000E+03 0.  0.
         25    1    1    2    0    0 -0.53691226074E+02  0.28325769156E+02  0.34317284286E+02  0.14313550558E+03  0.12500000000E+03 0.  0.
</event>
<event>
 5    0  0.5778875E-005  0.2526491E+03  0.7546771E-02  0.1111642E+00
         21   -1    0    0  502  501  0.00000000000E+00  0.00000000000E+00  0.42691786227E+03  0.42691786227E+03  0.00000000000E+00 0.  1.
         21   -1    0    0  501  502 -0.00000000000E+00 -0.00000000000E+00 -0.14951717505E+03  0.14951717505E+03  0.00000000000E+00 0.  1.
         25    1    1    2    0    0 -0.83305400935E+02  0.52770957513E+01  0.43446757913E+02  0.15646168329E+03  0.12500000000E+03 0.  0.
         25    1    1    2    0    0 -0.49621663916E+02 -0.73406758188E+02  0.89107248696E+02  0.17724548922E+03  0.12500000000E+03 0.  0.
         25    1    1    2    0    0  0.13292706485E+03  0.68129662436E+02  0.14484668061E+03  0.24272786481E+03  0.12500000000E+03 0.  0.
</event>
<event>
 5    0  0.5778875E-005  0.2914806E+03  0.7546771E-02  0.1089579E+00
         21   -1    0    0  502  501  0.00000000000E+00  0.00000000000E+00  0.11948263158E+03  0.11948263158E+03  0.00000000000E+00 0.  1.
         21   -1    0    0  501  502 -0.00000000000E+00 -0.00000000000E+00 -0.71107354116E+03  0.71107354116E+03  0.00000000000E+00 0.  1.
         25    1    1    2    0    0 -0.16913234147E+03  0.45301948771E+02 -0.42732464968E+03  0.47842384108E+03  0.12500000000E+03 0.  0.
         25    1    1    2    0    0  0.53660277121E+02 -0.12444697385E+02 -0.89950635805E+02  0.16355553404E+03  0.12500000000E+03 0.  0.
         25    1    1    2    0    0  0.11547206435E+03 -0.32857251385E+02 -0.74315624102E+02  0.18857679762E+03  0.12500000000E+03 0.  0.
</event>
<event>
 5    0  0.5778875E-005  0.2195171E+03  0.7546771E-02  0.1134244E+00
         21   -1    0    0  502  501  0.00000000000E+00  0.00000000000E+00  0.41778615863E+02  0.41778615863E+02  0.00000000000E+00 0. -1.
         21   -1    0    0  501  502 -0.00000000000E+00 -0.00000000000E+00 -0.11534076318E+04  0.11534076318E+04  0.00000000000E+00 0. -1.
         25    1    1    2    0    0  0.70226369036E+02  0.43693792688E+02 -0.45210129529E+03  0.47629977077E+03  0.12500000000E+03 0.  0.
         25    1    1    2    0    0 -0.33843118934E+02  0.26405036602E+01 -0.19387885720E+03  0.23316590709E+03  0.12500000000E+03 0.  0.
         25    1    1    2    0    0 -0.36383250102E+02 -0.46334296348E+02 -0.46564886342E+03  0.48572056978E+03  0.12500000000E+03 0.  0.
</event>
<event>
 5    0  0.5778875E-005  0.3392858E+03  0.7546771E-02  0.1067101E+00
         21   -1    0    0  502  501  0.00000000000E+00  0.00000000000E+00  0.15315539194E+03  0.15315539194E+03  0.00000000000E+00 0.  1.
         21   -1    0    0  501  502 -0.00000000000E+00 -0.00000000000E+00 -0.75162136520E+03  0.75162136520E+03  0.00000000000E+00 0.  1.
         25    1    1    2    0    0  0.10713992437E+02 -0.67905500168E+02  0.23515045483E+02  0.14458182441E+03  0.12500000000E+03 0.  0.
         25    1    1    2    0    0  0.75506541896E+02 -0.45871265343E+02 -0.55567820006E+02  0.16284407718E+03  0.12500000000E+03 0.  0.
         25    1    1    2    0    0 -0.86220534332E+02  0.11377676551E+03 -0.56641319873E+03  0.59735085554E+03  0.12500000000E+03 0.  0.
</event>
<event>
 5    0  0.5778875E-005  0.2466835E+03  0.7546771E-02  0.1115419E+00
         21   -1    0    0  502  501  0.00000000000E+00  0.00000000000E+00  0.34563227816E+03  0.34563227816E+03  0.00000000000E+00 0. -1.
         21   -1    0    0  501  502 -0.00000000000E+00 -0.00000000000E+00 -0.17606205661E+03  0.17606205661E+03  0.00000000000E+00 0. -1.
         25    1    1    2    0    0  0.77089211360E+01 -0.23963059299E+02  0.21731147375E+03  0.25195819554E+03  0.12500000000E+03 0.  0.
         25    1    1    2    0    0  0.36064877189E+02  0.48390998014E+01 -0.37729438237E+02  0.13554557449E+03  0.12500000000E+03 0.  0.
         25    1    1    2    0    0 -0.43773798325E+02  0.19123959498E+02 -0.10011813960E+02  0.13419056474E+03  0.12500000000E+03 0.  0.
</event>
<event>
 5    0  0.5778875E-005  0.2814545E+03  0.7546771E-02  0.1094897E+00
         21   -1    0    0  502  501  0.00000000000E+00  0.00000000000E+00  0.50977298014E+02  0.50977298014E+02  0.00000000000E+00 0. -1.
         21   -1    0    0  501  502 -0.00000000000E+00 -0.00000000000E+00 -0.15539587832E+04  0.15539587832E+04  0.00000000000E+00 0. -1.
         25    1    1    2    0    0  0.55484721162E+02 -0.56415387931E+02 -0.29026171345E+03  0.32578844758E+03  0.12500000000E+03 0.  0.
         25    1    1    2    0    0 -0.77486493651E+02  0.82009808449E+01 -0.10775232709E+04  0.10875443955E+04  0.12500000000E+03 0.  0.
         25    1    1    2    0    0  0.22001772488E+02  0.48214407086E+02 -0.13519650087E+03  0.19160323820E+03  0.12500000000E+03 0.  0.
</event>
<event>
 5    0  0.5778875E-005  0.3041079E+03  0.7546771E-02  0.1083205E+00
         21   -1    0    0  502  501  0.00000000000E+00  0.00000000000E+00  0.95327765821E+03  0.95327765821E+03  0.00000000000E+00 0.  1.
         21   -1    0    0  501  502 -0.00000000000E+00 -0.00000000000E+00 -0.97014333544E+02  0.97014333544E+02  0.00000000000E+00 0.  1.
         25    1    1    2    0    0 -0.19704200000E+03  0.10318623361E+03  0.25123077046E+03  0.35807101055E+03  0.12500000000E+03 0.  0.
         25    1    1    2    0    0  0.83130757857E+02 -0.38438716118E+02  0.26543969191E+03  0.30736214445E+03  0.12500000000E+03 0.  0.
         25    1    1    2    0    0  0.11391124214E+03 -0.64747517489E+02  0.33959286230E+03  0.38485883676E+03  0.12500000000E+03 0.  0.
</event>
<event>
 5    0  0.5778875E-005  0.4132760E+03  0.7546771E-02  0.1039277E+00
         21   -1    0    0  502  501  0.00000000000E+00  0.00000000000E+00  0.88359184028E+02  0.88359184028E+02  0.00000000000E+00 0. -1.
         21   -1    0    0  501  502 -0.00000000000E+00 -0.00000000000E+00 -0.19329860935E+04  0.19329860935E+04  0.00000000000E+00 0. -1.
         25    1    1    2    0    0 -0.11111427064E+03  0.10972125780E+03 -0.11741074840E+04  0.11910241473E+04  0.12500000000E+03 0.  0.
         25    1    1    2    0    0  0.80576224183E+01 -0.19461022888E+03 -0.58360899315E+03  0.62782364033E+03  0.12500000000E+03 0.  0.
         25    1    1    2    0    0  0.10305664822E+03  0.84888971074E+02 -0.86910432303E+02  0.20249748985E+03  0.12500000000E+03 0.  0.
</event>
<event>
 5    0  0.5976299E-005  0.3147400E+03  0.7546771E-02  0.1078096E+00
         21   -1    0    0  502  501  0.00000000000E+00  0.00000000000E+00  0.89573148574E+03  0.89573148574E+03  0.00000000000E+00 0. -1.
         21   -1    0    0  501  502 -0.00000000000E+00 -0.00000000000E+00 -0.11059260567E+03  0.11059260567E+03  0.00000000000E+00 0. -1.
         25    1    1    2    0    0 -0.64733285442E+02  0.53538639575E+02  0.38979420271E+02  0.15556728247E+03  0.12500000000E+03 0.  0.
         25    1    1    2    0    0  0.53179763027E+02 -0.18246289253E+03  0.44968957384E+03  0.50395089758E+03  0.12500000000E+03 0.  0.
         25    1    1    2    0    0  0.11553522415E+02  0.12892425295E+03  0.29646988595E+03  0.34680591136E+03  0.12500000000E+03 0.  0.
</event>
<event>
 5    0  0.5778875E-005  0.4332931E+03  0.7546771E-02  0.1032825E+00
         21   -1    0    0  502  501  0.00000000000E+00  0.00000000000E+00  0.35759459338E+03  0.35759459338E+03  0.00000000000E+00 0. -1.
         21   -1    0    0  501  502 -0.00000000000E+00 -0.00000000000E+00 -0.52501598573E+03  0.52501598573E+03  0.00000000000E+00 0. -1.
         25    1    1    2    0    0 -0.27107661131E+03 -0.27108060632E+03 -0.75275321675E+02  0.41019336706E+03  0.12500000000E+03 0.  0.
         25    1    1    2    0    0  0.14347152906E+03  0.13153192275E+03 -0.10753431164E+02  0.23157150653E+03  0.12500000000E+03 0.  0.
         25    1    1    2    0    0  0.12760508225E+03  0.13954868357E+03 -0.81392639507E+02  0.24084570552E+03  0.12500000000E+03 0.  0.
</event>
<event>
 5    0  0.5778875E-005  0.3108518E+03  0.7546771E-02  0.1079938E+00
         21   -1    0    0  502  501  0.00000000000E+00  0.00000000000E+00  0.53853561646E+02  0.53853561646E+02  0.00000000000E+00 0. -1.
         21   -1    0    0  501  502 -0.00000000000E+00 -0.00000000000E+00 -0.17942882367E+04  0.17942882367E+04  0.00000000000E+00 0. -1.
         25    1    1    2    0    0  0.11639128293E+03 -0.12890442211E+03 -0.72296362754E+03  0.75396597239E+03  0.12500000000E+03 0.  0.
         25    1    1    2    0    0 -0.58712447907E+02  0.61455720685E+02 -0.86447513369E+03  0.87759114279E+03  0.12500000000E+03 0.  0.
         25    1    1    2    0    0 -0.57678835019E+02  0.67448701423E+02 -0.15299591383E+03  0.21658468317E+03  0.12500000000E+03 0.  0.
</event>
<event>
 5    0  0.5778875E-005  0.2541065E+03  0.7546771E-02  0.1110737E+00
         21   -1    0    0  502  501  0.00000000000E+00  0.00000000000E+00  0.12053963657E+04  0.12053963657E+04  0.00000000000E+00 0.  1.
         21   -1    0    0  501  502 -0.00000000000E+00 -0.00000000000E+00 -0.53567549406E+02  0.53567549406E+02  0.00000000000E+00 0.  1.
         25    1    1    2    0    0 -0.12300131904E+03 -0.42602057437E+02  0.32289479181E+03  0.36990580742E+03  0.12500000000E+03 0.  0.
         25    1    1    2    0    0  0.74935574260E+02  0.28686432506E+02  0.22022546282E+03  0.26563604080E+03  0.12500000000E+03 0.  0.
         25    1    1    2    0    0  0.48065744776E+02  0.13915624930E+02  0.60870856171E+03  0.62342206693E+03  0.12500000000E+03 0.  0.
</event>
<event>
 5    0  0.5778875E-005  0.4472451E+03  0.7546771E-02  0.1028547E+00
         21   -1    0    0  502  501  0.00000000000E+00  0.00000000000E+00  0.64883266335E+03  0.64883266335E+03  0.00000000000E+00 0.  1.
         21   -1    0    0  501  502 -0.00000000000E+00 -0.00000000000E+00 -0.30828936077E+03  0.30828936077E+03  0.00000000000E+00 0.  1.
         25    1    1    2    0    0  0.88179078716E+02  0.14736283545E+03  0.98434240370E+02  0.23410607611E+03  0.12500000000E+03 0.  0.
         25    1    1    2    0    0 -0.29355914335E+03 -0.26010067690E+03  0.18543729711E+03  0.45148790009E+03  0.12500000000E+03 0.  0.
         25    1    1    2    0    0  0.20538006464E+03  0.11273784145E+03  0.56671765106E+02  0.27152804792E+03  0.12500000000E+03 0.  0.
</event>
<event>
 5    0  0.5778875E-005  0.3252226E+03  0.7546771E-02  0.1073271E+00
         21   -1    0    0  502  501  0.00000000000E+00  0.00000000000E+00  0.10753375701E+04  0.10753375701E+04  0.00000000000E+00 0. -1.
         21   -1    0    0  501  502 -0.00000000000E+00 -0.00000000000E+00 -0.98359564007E+02  0.98359564007E+02  0.00000000000E+00 0. -1.
         25    1    1    2    0    0  0.40359667970E+02  0.77622653464E+02  0.70920037791E+03  0.72542701574E+03  0.12500000000E+03 0.  0.
         25    1    1    2    0    0  0.51709678992E+02 -0.17484441888E+01  0.23679825876E+03  0.27271846896E+03  0.12500000000E+03 0.  0.
         25    1    1    2    0    0 -0.92069346962E+02 -0.75874209275E+02  0.30979369423E+02  0.17555164942E+03  0.12500000000E+03 0.  0.
</event>
<event>
 5    0  0.5778875E-005  0.2398763E+03  0.7546771E-02  0.1119875E+00
         21   -1    0    0  502  501  0.00000000000E+00  0.00000000000E+00  0.37306004992E+02  0.37306004992E+02  0.00000000000E+00 0. -1.
         21   -1    0    0  501  502 -0.00000000000E+00 -0.00000000000E+00 -0.15423960093E+04  0.15423960093E+04  0.00000000000E+00 0. -1.
         25    1    1    2    0    0 -0.15682453446E+02 -0.79370649856E+02 -0.34398932310E+03  0.37483235428E+03  0.12500000000E+03 0.  0.
         25    1    1    2    0    0  0.99220658794E+02  0.23802171871E+02 -0.60136374423E+03  0.62263523462E+03  0.12500000000E+03 0.  0.
         25    1    1    2    0    0 -0.83538205348E+02  0.55568477986E+02 -0.55973693698E+03  0.58223442540E+03  0.12500000000E+03 0.  0.
</event>
<event>
 5    0  0.5778875E-005  0.3037389E+03  0.7546771E-02  0.1083386E+00
         21   -1    0    0  502  501  0.00000000000E+00  0.00000000000E+00  0.22883679623E+03  0.22883679623E+03  0.00000000000E+00 0.  1.
         21   -1    0    0  501  502 -0.00000000000E+00 -0.00000000000E+00 -0.40315765203E+03  0.40315765203E+03  0.00000000000E+00 0.  1.
         25    1    1    2    0    0  0.13824198039E+03  0.76916490689E+02 -0.20599806481E+02  0.20267299699E+03  0.12500000000E+03 0.  0.
         25    1    1    2    0    0  0.71686282953E+02 -0.54486040326E+01 -0.76876641010E+02  0.16341244868E+03  0.12500000000E+03 0.  0.
         25    1    1    2    0    0 -0.20992826334E+03 -0.71467886657E+02 -0.76844408318E+02  0.26590900260E+03  0.12500000000E+03 0.  0.
</event>
