<event>
 5    0  0.5648525E-005  0.2766139E+03  0.7546771E-02  0.1097553E+00
         21   -1    0    0  502  501  0.00000000000E+00  0.00000000000E+00  0.13409611222E+04  0.13409611222E+04  0.00000000000E+00 0. -1.
         21   -1    0    0  501  502 -0.00000000000E+00 -0.00000000000E+00 -0.57060004381E+02  0.57060004381E+02  0.00000000000E+00 0. -1.
         25    1    1    2    0    0  0.21105555967E+02 -0.10491104467E+03  0.85385553436E+03  0.86956658476E+03  0.12500000000E+03 0.  0.
         25    1    1    2    0    0 -0.34970358640E+02 -0.16902579333E+02  0.20670923813E+03  0.24466779989E+03  0.12500000000E+03 0.  0.
         25    1    1    2    0    0  0.13864802674E+02  0.12181362400E+03  0.22333634529E+03  0.28378674189E+03  0.12500000000E+03 0.  0.
</event>
<event>
 5    0  0.5648525E-005  0.3186668E+03  0.7546771E-02  0.1076265E+00
         21   -1    0    0  502  501  0.00000000000E+00  0.00000000000E+00  0.36924167145E+03  0.36924167145E+03  0.00000000000E+00 0. -1.
         21   -1    0    0  501  502 -0.00000000000E+00 -0.00000000000E+00 -0.27501922278E+03  0.27501922278E+03  0.00000000000E+00 0. -1.
         25    1    1    2    0    0 -0.85084485997E+02 -0.85706743164E+02  0.82550401107E+02  0.19241773386E+03  0.12500000000E+03 0.  0.
         25    1    1    2    0    0 -0.14232455791E+02  0.20254011847E+03 -0.51955398384E+02  0.24402751036E+03  0.12500000000E+03 0.  0.
         25    1    1    2    0    0  0.99316941788E+02 -0.11683337531E+03  0.63627445952E+02  0.20781565001E+03  0.12500000000E+03 0.  0.
</event>
<event>
 5    0  0.5648525E-005  0.3548359E+03  0.7546771E-02  0.1060648E+00
         21   -1    0    0  502  501  0.00000000000E+00  0.00000000000E+00  0.17044723444E+03  0.17044723444E+03  0.00000000000E+00 0. -1.
         21   -1    0    0  501  502 -0.00000000000E+00 -0.00000000000E+00 -0.73869503017E+03  0.73869503017E+03  0.00000000000E+00 0. -1.
         25    1    1    2    0    0  0.31299410386E+02  0.25847812544E+03 -0.13526612106E+03  0.31892400024E+03  0.12500000000E+03 0.  0.
         25    1    1    2    0    0 -0.35936270866E+02 -0.43197476518E+02 -0.81391096523E+02  0.15939557125E+03  0.12500000000E+03 0.  0.
         25    1    1    2    0    0  0.46368604807E+01 -0.21528064892E+03 -0.35159057815E+03  0.43082269313E+03  0.12500000000E+03 0.  0.
</event>
<event>
 5    0  0.5648525E-005  0.2405186E+03  0.7546771E-02  0.1119448E+00
         21   -1    0    0  502  501  0.00000000000E+00  0.00000000000E+00  0.14117642458E+03  0.14117642458E+03  0.00000000000E+00 0. -1.
         21   -1    0    0  501  502 -0.00000000000E+00 -0.00000000000E+00 -0.40976535562E+03  0.40976535562E+03  0.00000000000E+00 0. -1.
         25    1    1    2    0    0 -0.60400139095E+02 -0.44521281112E+02 -0.17528138654E+02  0.14684194537E+03  0.12500000000E+03 0.  0.
         25    1    1    2    0    0  0.16067102361E+02  0.93849813610E+02 -0.19845867745E+03  0.25313392888E+03  0.12500000000E+03 0.  0.
         25    1    1    2    0    0  0.44333036735E+02 -0.49328532498E+02 -0.52602114940E+02  0.15096590595E+03  0.12500000000E+03 0.  0.
</event>
<event>
 5    0  0.5648525E-005  0.2709514E+03  0.7546771E-02  0.1100736E+00
         21   -1    0    0  502  501  0.00000000000E+00  0.00000000000E+00  0.75194763455E+03  0.75194763455E+03  0.00000000000E+00 0. -1.
         21   -1    0    0  501  502 -0.00000000000E+00 -0.00000000000E+00 -0.97632644974E+02  0.97632644974E+02  0.00000000000E+00 0. -1.
         25    1    1    2    0    0  0.13816737122E+03  0.87922867061E+02  0.26858513003E+03  0.33850203116E+03  0.12500000000E+03 0.  0.
         25    1    1    2    0    0 -0.10468263073E+03 -0.25265990858E+02  0.30349712371E+03  0.34544511513E+03  0.12500000000E+03 0.  0.
         25    1    1    2    0    0 -0.33484740497E+02 -0.62656876203E+02  0.82232735834E+02  0.16563313323E+03  0.12500000000E+03 0.  0.
</event>
<event>
 5    0  0.5648525E-005  0.3342486E+03  0.7546771E-02  0.1069272E+00
         21   -1    0    0  502  501  0.00000000000E+00  0.00000000000E+00  0.60184984080E+03  0.60184984080E+03  0.00000000000E+00 0.  1.
         21   -1    0    0  501  502 -0.00000000000E+00 -0.00000000000E+00 -0.18563127453E+03  0.18563127453E+03  0.00000000000E+00 0.  1.
         25    1    1    2    0    0  0.16383254114E+03 -0.14741795874E+03  0.25795244440E+03  0.36157657510E+03  0.12500000000E+03 0.  0.
         25    1    1    2    0    0 -0.11148781644E+03  0.14584472179E+03  0.61576248177E+01  0.22217815471E+03  0.12500000000E+03 0.  0.
         25    1    1    2    0    0 -0.52344724698E+02  0.15732369450E+01  0.15210849706E+03  0.20372638552E+03  0.12500000000E+03 0.  0.
</event>
<event>
 5    0  0.5648525E-005  0.4118184E+03  0.7546771E-02  0.1039763E+00
         21   -1    0    0  502  501  0.00000000000E+00  0.00000000000E+00  0.85544916622E+02  0.85544916622E+02  0.00000000000E+00 0.  1.
         21   -1    0    0  501  502 -0.00000000000E+00 -0.00000000000E+00 -0.19825186808E+04  0.19825186808E+04  0.00000000000E+00 0.  1.
         25    1    1    2    0    0  0.54298516986E+02 -0.45319645357E+01 -0.58352351593E+03  0.59924415833E+03  0.12500000000E+03 0.  0.
         25    1    1    2    0    0 -0.17195288780E+03  0.43180455394E+02 -0.12689001658E+04  0.12873092007E+04  0.12500000000E+03 0.  0.
         25    1    1    2    0    0  0.11765437081E+03 -0.38648490858E+02 -0.44550082481E+02  0.18151023846E+03  0.12500000000E+03 0.  0.
</event>
<event>
 5    0  0.5648525E-005  0.3161704E+03  0.7546771E-02  0.1077425E+00
         21   -1    0    0  502  501  0.00000000000E+00  0.00000000000E+00  0.64287629450E+03  0.64287629450E+03  0.00000000000E+00 0. -1.
         21   -1    0    0  501  502 -0.00000000000E+00 -0.00000000000E+00 -0.15549450792E+03  0.15549450792E+03  0.00000000000E+00 0. -1.
         25    1    1    2    0    0  0.56880267787E+02  0.41674432466E+02  0.12764379201E+03  0.19206785474E+03  0.12500000000E+03 0.  0.
         25    1    1    2    0    0 -0.23359125639E+03  0.57328667604E+01  0.21923687345E+03  0.34392956765E+03  0.12500000000E+03 0.  0.
         25    1    1    2    0    0  0.17671098860E+03 -0.47407299227E+02  0.14050112112E+03  0.26237338003E+03  0.12500000000E+03 0.  0.
</event>
<event>
 5    0  0.5648525E-005  0.2438975E+03  0.7546771E-02  0.1117223E+00
         21   -1    0    0  502  501  0.00000000000E+00  0.00000000000E+00  0.30088585218E+02  0.30088585218E+02  0.00000000000E+00 0. -1.
         21   -1    0    0  501  502 -0.00000000000E+00 -0.00000000000E+00 -0.19770278369E+04  0.19770278369E+04  0.00000000000E+00 0. -1.
         25    1    1    2    0    0 -0.40934393800E+02 -0.52708083371E+02 -0.65576843742E+03  0.67090313024E+03  0.12500000000E+03 0.  0.
         25    1    1    2    0    0  0.38225677312E+02 -0.86608615914E+02 -0.58243821738E+03  0.60317620296E+03  0.12500000000E+03 0.  0.
         25    1    1    2    0    0  0.27087164872E+01  0.13931669928E+03 -0.70873259691E+03  0.73303708894E+03  0.12500000000E+03 0.  0.
</event>
<event>
 5    0  0.5801995E-005  0.3443644E+03  0.7546771E-02  0.1064952E+00
         21   -1    0    0  502  501  0.00000000000E+00  0.00000000000E+00  0.15846345633E+03  0.15846345633E+03  0.00000000000E+00 0.  1.
         21   -1    0    0  501  502 -0.00000000000E+00 -0.00000000000E+00 -0.74835464933E+03  0.74835464933E+03  0.00000000000E+00 0.  1.
         25    1    1    2    0    0 -0.98690058316E+02 -0.11883838365E+03 -0.50692027000E+03  0.54447722558E+03  0.12500000000E+03 0.  0.
         25    1    1    2    0    0  0.21260333355E+02  0.14396365489E+03 -0.92280579680E+02  0.21288081428E+03  0.12500000000E+03 0.  0.
         25    1    1    2    0    0  0.77429724961E+02 -0.25125271232E+02  0.93096566739E+01  0.14946006580E+03  0.12500000000E+03 0.  0.
</event>
<event>
 5    0  0.5648525E-005  0.2477000E+03  0.7546771E-02  0.1114767E+00
         21   -1    0    0  502  501  0.00000000000E+00  0.00000000000E+00  0.18963331626E+04  0.18963331626E+04  0.00000000000E+00 0.  1.
         21   -1    0    0  501  502 -0.00000000000E+00 -0.00000000000E+00 -0.32354709494E+02  0.32354709494E+02  0.00000000000E+00 0.  1.
         25    1    1    2    0    0 -0.22016459592E+02 -0.10604463806E+03  0.59723603444E+03  0.61971450732E+03  0.12500000000E+03 0.  0.
         25    1    1    2    0    0  0.74100609439E+02  0.80367758839E+02  0.93673135785E+03  0.95133617285E+03  0.12500000000E+03 0.  0.
         25    1    1    2    0    0 -0.52084149847E+02  0.25676879217E+02  0.33001106086E+03  0.35763719197E+03  0.12500000000E+03 0.  0.
</event>
<event>
 5    0  0.5648525E-005  0.3891451E+03  0.7546771E-02  0.1047605E+00
         21   -1    0    0  502  501  0.00000000000E+00  0.00000000000E+00  0.12741286488E+04  0.12741286488E+04  0.00000000000E+00 0. -1.
         21   -1    0    0  501  502 -0.00000000000E+00 -0.00000000000E+00 -0.11885289684E+03  0.11885289684E+03  0.00000000000E+00 0. -1.
         25    1    1    2    0    0  0.12310631549E+03 -0.12165554666E+02  0.72538399810E+02  0.19023665546E+03  0.12500000000E+03 0.  0.
         25    1    1    2    0    0  0.30966594908E+01  0.37483365427E+02  0.99407591659E+03  0.10026098543E+04  0.12500000000E+03 0.  0.
         25    1    1    2    0    0 -0.12620297498E+03 -0.25317810761E+02  0.88661435549E+02  0.20013503588E+03  0.12500000000E+03 0.  0.
</event>
<event>
 5    0  0.5648525E-005  0.3635835E+03  0.7546771E-02  0.1057174E+00
         21   -1    0    0  502  501  0.00000000000E+00  0.00000000000E+00  0.89564993849E+02  0.89564993849E+02  0.00000000000E+00 0.  1.
         21   -1    0    0  501  502 -0.00000000000E+00 -0.00000000000E+00 -0.14759442504E+04  0.14759442504E+04  0.00000000000E+00 0.  1.
         25    1    1    2    0    0  0.65509926761E+02  0.11366546854E+02 -0.24285411535E+03  0.28111184649E+03  0.12500000000E+03 0.  0.
         25    1    1    2    0    0 -0.25251345210E+03 -0.69300964149E+02 -0.90953415807E+03  0.95469526647E+03  0.12500000000E+03 0.  0.
         25    1    1    2    0    0  0.18700352534E+03  0.57934417296E+02 -0.23399098314E+03  0.32970213130E+03  0.12500000000E+03 0.  0.
</event>
<event>
 5    0  0.5648525E-005  0.4575400E+03  0.7546771E-02  0.1025497E+00
         21   -1    0    0  502  501  0.00000000000E+00  0.00000000000E+00  0.47651563747E+03  0.47651563747E+03  0.00000000000E+00 0. -1.
         21   -1    0    0  501  502 -0.00000000000E+00 -0.00000000000E+00 -0.43931994314E+03  0.43931994314E+03  0.00000000000E+00 0. -1.
         25    1    1    2    0    0  0.59423188833E+02  0.27960786739E+03 -0.95793304055E+01  0.31213528869E+03  0.12500000000E+03 0.  0.
         25    1    1    2    0    0  0.62238852984E+02 -0.32683210371E+03 -0.10185371569E+03  0.36971891788E+03  0.12500000000E+03 0.  0.
         25    1    1    2    0    0 -0.12166204182E+03  0.47224236324E+02  0.14862874043E+03  0.23398137404E+03  0.12500000000E+03 0.  0.
</event>
<event>
 5    0  0.5648525E-005  0.8046712E+03  0.7546771E-02  0.9553280E-01
         21   -1    0    0  502  501  0.00000000000E+00  0.00000000000E+00  0.17577780420E+04  0.17577780420E+04  0.00000000000E+00 0.  1.
         21   -1    0    0  501  502 -0.00000000000E+00 -0.00000000000E+00 -0.36836034385E+03  0.36836034385E+03  0.00000000000E+00 0.  1.
         25    1    1    2    0    0  0.43361950694E+03 -0.19937851913E+03 -0.45299729557E+02  0.49543388680E+03  0.12500000000E+03 0.  0.
         25    1    1    2    0    0  0.68312162992E+02  0.18381042073E+03  0.27091619403E+03  0.35703418123E+03  0.12500000000E+03 0.  0.
         25    1    1    2    0    0 -0.50193166994E+03  0.15568098400E+02  0.11638012336E+04  0.12736703178E+04  0.12500000000E+03 0.  0.
</event>
<event>
 5    0  0.5648525E-005  0.2786847E+03  0.7546771E-02  0.1096409E+00
         21   -1    0    0  502  501  0.00000000000E+00  0.00000000000E+00  0.77973428212E+03  0.77973428212E+03  0.00000000000E+00 0. -1.
         21   -1    0    0  501  502 -0.00000000000E+00 -0.00000000000E+00 -0.99604658168E+02  0.99604658168E+02  0.00000000000E+00 0. -1.
         25    1    1    2    0    0  0.38806538773E+02 -0.15029806849E+03  0.21419856033E+03  0.29257730618E+03  0.12500000000E+03 0.  0.
         25    1    1    2    0    0 -0.27352594325E+02 -0.34771849291E+02  0.18745308631E+03  0.22961033402E+03  0.12500000000E+03 0.  0.
         25    1    1    2    0    0 -0.11453944448E+02  0.18506991778E+03  0.27847797731E+03  0.35715130009E+03  0.12500000000E+03 0.  0.
</event>
<event>
 5    0  0.5648525E-005  0.3904035E+03  0.7546771E-02  0.1047154E+00
         21   -1    0    0  502  501  0.00000000000E+00  0.00000000000E+00  0.10701978582E+03  0.10701978582E+03  0.00000000000E+00 0.  1.
         21   -1    0    0  501  502 -0.00000000000E+00 -0.00000000000E+00 -0.14241752379E+04  0.14241752379E+04  0.00000000000E+00 0.  1.
         25    1    1    2    0    0 -0.16119719161E+03 -0.23625005116E+03 -0.80848303440E+03  0.86664204732E+03  0.12500000000E+03 0.  0.
         25    1    1    2    0    0  0.15544803350E+03  0.13897855810E+03 -0.41352293934E+03  0.47969297690E+03  0.12500000000E+03 0.  0.
         25    1    1    2    0    0  0.57491581172E+01  0.97271493057E+02 -0.95149478305E+02  0.18485999947E+03  0.12500000000E+03 0.  0.
</event>
<event>
 5    0  0.5648525E-005  0.2687428E+03  0.7546771E-02  0.1102001E+00
         21   -1    0    0  502  501  0.00000000000E+00  0.00000000000E+00  0.11938714410E+03  0.11938714410E+03  0.00000000000E+00 0.  1.
         21   -1    0    0  501  502 -0.00000000000E+00 -0.00000000000E+00 -0.60494539018E+03  0.60494539018E+03  0.00000000000E+00 0.  1.
         25    1    1    2    0    0  0.84116693898E+02 -0.18571891306E+02 -0.16043634118E+03  0.22087406573E+03  0.12500000000E+03 0.  0.
         25    1    1    2    0    0 -0.10175347208E+03 -0.61214967165E+02 -0.30822181256E+03  0.35316671279E+03  0.12500000000E+03 0.  0.
         25    1    1    2    0    0  0.17636778181E+02  0.79786858471E+02 -0.16900092334E+02  0.15029175576E+03  0.12500000000E+03 0.  0.
</event>
<event>
 5    0  0.5648525E-005  0.3877854E+03  0.7546771E-02  0.1048093E+00
         21   -1    0    0  502  501  0.00000000000E+00  0.00000000000E+00  0.23301251811E+04  0.23301251811E+04  0.00000000000E+00 0.  1.
         21   -1    0    0  501  502 -0.00000000000E+00 -0.00000000000E+00 -0.64536251046E+02  0.64536251046E+02  0.00000000000E+00 0.  1.
         25    1    1    2    0    0 -0.17157954575E+02 -0.79871097778E+02  0.42933434288E+03  0.45456216917E+03  0.12500000000E+03 0.  0.
         25    1    1    2    0    0  0.54328864817E+02  0.30440392312E+03  0.13294751972E+04  0.13706723438E+04  0.12500000000E+03 0.  0.
         25    1    1    2    0    0 -0.37170910242E+02 -0.22453282534E+03  0.50677938992E+03  0.56942691917E+03  0.12500000000E+03 0.  0.
</event>
<event>
 5    0  0.6313927E-005  0.2837608E+03  0.7546771E-02  0.1093652E+00
         21   -1    0    0  502  501  0.00000000000E+00  0.00000000000E+00  0.49445500443E+03  0.49445500443E+03  0.00000000000E+00 0.  1.
         21   -1    0    0  501  502 -0.00000000000E+00 -0.00000000000E+00 -0.16284633454E+03  0.16284633454E+03  0.00000000000E+00 0.  1.
         25    1    1    2    0    0  0.10443874606E+03 -0.17334269771E+03  0.13542669428E+03  0.27371615234E+03  0.12500000000E+03 0.  0.
         25    1    1    2    0    0 -0.89402412309E+02  0.86069883047E+02  0.11291604733E+03  0.20922679044E+03  0.12500000000E+03 0.  0.
         25    1    1    2    0    0 -0.15036333750E+02  0.87272814659E+02  0.83265928273E+02  0.17435839619E+03  0.12500000000E+03 0.  0.
</event>
<event>
 5    0  0.5648525E-005  0.3166861E+03  0.7546771E-02  0.1077185E+00
         21   -1    0    0  502  501  0.00000000000E+00  0.00000000000E+00  0.19843955222E+03  0.19843955222E+03  0.00000000000E+00 0. -1.
         21   -1    0    0  501  502 -0.00000000000E+00 -0.00000000000E+00 -0.50539377993E+03  0.50539377993E+03  0.00000000000E+00 0. -1.
         25    1    1    2    0    0 -0.25681118227E+02  0.12081615955E+03  0.45552484873E+02  0.18153813131E+03  0.12500000000E+03 0.  0.
         25    1    1    2    0    0 -0.17661704328E+02 -0.19297920610E+03 -0.24953676738E+03  0.33977420158E+03  0.12500000000E+03 0.  0.
         25    1    1    2    0    0  0.43342822555E+02  0.72163046550E+02 -0.10296994520E+03  0.18252099926E+03  0.12500000000E+03 0.  0.
</event>
<event>
 5    0  0.5648525E-005  0.2810219E+03  0.7546771E-02  0.1095132E+00
         21   -1    0    0  502  501  0.00000000000E+00  0.00000000000E+00  0.52685076679E+03  0.52685076679E+03  0.00000000000E+00 0.  1.
         21   -1    0    0  501  502 -0.00000000000E+00 -0.00000000000E+00 -0.14989693992E+03  0.14989693992E+03  0.00000000000E+00 0.  1.
         25    1    1    2    0    0 -0.54080937196E+01 -0.38559460630E+02  0.18558564764E+03  0.22711915836E+03  0.12500000000E+03 0.  0.
         25    1    1    2    0    0  0.15336934748E+03 -0.30853009508E+02  0.79721432149E+02  0.21553322641E+03  0.12500000000E+03 0.  0.
         25    1    1    2    0    0 -0.14796125376E+03  0.69412470138E+02  0.11164674707E+03  0.23409532194E+03  0.12500000000E+03 0.  0.
</event>
<event>
 5    0  0.5648525E-005  0.2485688E+03  0.7546771E-02  0.1114213E+00
         21   -1    0    0  502  501  0.00000000000E+00  0.00000000000E+00  0.96746353296E+02  0.96746353296E+02  0.00000000000E+00 0. -1.
         21   -1    0    0  501  502 -0.00000000000E+00 -0.00000000000E+00 -0.63864345239E+03  0.63864345239E+03  0.00000000000E+00 0. -1.
         25    1    1    2    0    0  0.23142701186E+02  0.37178295213E+02 -0.13026083528E+03  0.18577054519E+03  0.12500000000E+03 0.  0.
         25    1    1    2    0    0 -0.86599117087E+02  0.62703346332E+02 -0.30670546969E+03  0.34802925431E+03  0.12500000000E+03 0.  0.
         25    1    1    2    0    0  0.63456415900E+02 -0.99881641545E+02 -0.10493079413E+03  0.20159000618E+03  0.12500000000E+03 0.  0.
</event>
<event>
 5    0  0.7278378E-005  0.2678150E+03  0.7546771E-02  0.1102537E+00
         21   -1    0    0  502  501  0.00000000000E+00  0.00000000000E+00  0.48138779308E+03  0.48138779308E+03  0.00000000000E+00 0.  1.
         21   -1    0    0  501  502 -0.00000000000E+00 -0.00000000000E+00 -0.14899609198E+03  0.14899609198E+03  0.00000000000E+00 0.  1.
         25    1    1    2    0    0  0.30286813051E+02  0.42193154195E+02  0.19167853824E+03  0.23465552482E+03  0.12500000000E+03 0.  0.
         25    1    1    2    0    0 -0.57350914522E+01 -0.14072267870E+03  0.10459239533E+02  0.18860052828E+03  0.12500000000E+03 0.  0.
         25    1    1    2    0    0 -0.24551721599E+02  0.98529524505E+02  0.13025392333E+03  0.20712783197E+03  0.12500000000E+03 0.  0.
</event>
<event>
 5    0  0.5648525E-005  0.3640462E+03  0.7546771E-02  0.1056993E+00
         21   -1    0    0  502  501  0.00000000000E+00  0.00000000000E+00  0.13619911441E+04  0.13619911441E+04  0.00000000000E+00 0. -1.
         21   -1    0    0  501  502 -0.00000000000E+00 -0.00000000000E+00 -0.97305802220E+02  0.97305802220E+02  0.00000000000E+00 0. -1.
         25    1    1    2    0    0 -0.37324630932E+02 -0.72283156150E+02  0.19187676132E+03  0.24302196253E+03  0.12500000000E+03 0.  0.
         25    1    1    2    0    0 -0.20890436411E+03  0.14942673051E+03  0.56559556631E+03  0.63363453643E+03  0.12500000000E+03 0.  0.
         25    1    1    2    0    0  0.24622899504E+03 -0.77143574358E+02  0.50721301423E+03  0.58264044734E+03  0.12500000000E+03 0.  0.
</event>
<event>
 5    0  0.5648525E-005  0.4228750E+03  0.7546771E-02  0.1036135E+00
         21   -1    0    0  502  501  0.00000000000E+00  0.00000000000E+00  0.13575619973E+04  0.13575619973E+04  0.00000000000E+00 0.  1.
         21   -1    0    0  501  502 -0.00000000000E+00 -0.00000000000E+00 -0.13172382806E+03  0.13172382806E+03  0.00000000000E+00 0.  1.
         25    1    1    2    0    0  0.88479078208E+02  0.11363577664E+03  0.15321058347E+03  0.24462240269E+03  0.12500000000E+03 0.  0.
         25    1    1    2    0    0 -0.26314092224E+03 -0.21846513574E+03  0.81828962579E+03  0.89565231656E+03  0.12500000000E+03 0.  0.
         25    1    1    2    0    0  0.17466184403E+03  0.10482935910E+03  0.25433795997E+03  0.34901110608E+03  0.12500000000E+03 0.  0.
</event>
<event>
 5    0  0.6042114E-005  0.3538425E+03  0.7546771E-02  0.1061049E+00
         21   -1    0    0  502  501  0.00000000000E+00  0.00000000000E+00  0.13412848335E+04  0.13412848335E+04  0.00000000000E+00 0. -1.
         21   -1    0    0  501  502 -0.00000000000E+00 -0.00000000000E+00 -0.93346725790E+02  0.93346725790E+02  0.00000000000E+00 0. -1.
         25    1    1    2    0    0  0.13973547040E+03 -0.20527541049E+03  0.32652352605E+03  0.42884333841E+03  0.12500000000E+03 0.  0.
         25    1    1    2    0    0 -0.14725544771E+03  0.57424182192E+02  0.56889954945E+03  0.60353409261E+03  0.12500000000E+03 0.  0.
         25    1    1    2    0    0  0.75199773083E+01  0.14785122829E+03  0.35251503216E+03  0.40225412822E+03  0.12500000000E+03 0.  0.
</event>
<event>
 5    0  0.5648525E-005  0.2271538E+03  0.7546771E-02  0.1128659E+00
         21   -1    0    0  502  501  0.00000000000E+00  0.00000000000E+00  0.37987041197E+03  0.37987041197E+03  0.00000000000E+00 0.  1.
         21   -1    0    0  501  502 -0.00000000000E+00 -0.00000000000E+00 -0.13583279292E+03  0.13583279292E+03  0.00000000000E+00 0.  1.
         25    1    1    2    0    0  0.18565209268E+00 -0.79799968850E+02  0.17952823981E+03  0.23285931028E+03  0.12500000000E+03 0.  0.
         25    1    1    2    0    0 -0.28016800737E+02  0.64237352204E+02  0.54978017691E+02  0.15348928618E+03  0.12500000000E+03 0.  0.
         25    1    1    2    0    0  0.27831148644E+02  0.15562616646E+02  0.95313615552E+01  0.12935460844E+03  0.12500000000E+03 0.  0.
</event>
<event>
 5    0  0.5648525E-005  0.2001246E+03  0.7546771E-02  0.1149634E+00
         21   -1    0    0  502  501  0.00000000000E+00  0.00000000000E+00  0.33946065923E+03  0.33946065923E+03  0.00000000000E+00 0. -1.
         21   -1    0    0  501  502 -0.00000000000E+00 -0.00000000000E+00 -0.11798087690E+03  0.11798087690E+03  0.00000000000E+00 0. -1.
         25    1    1    2    0    0 -0.85340992672E+01  0.55147526640E+02  0.73061023557E+02  0.15516763099E+03  0.12500000000E+03 0.  0.
         25    1    1    2    0    0 -0.13011151388E+02 -0.23621350073E+02  0.10200037970E+03  0.16357363998E+03  0.12500000000E+03 0.  0.
         25    1    1    2    0    0  0.21545250655E+02 -0.31526176567E+02  0.46418379076E+02  0.13870026514E+03  0.12500000000E+03 0.  0.
</event>
<event>
 5    0  0.5648525E-005  0.2498617E+03  0.7546771E-02  0.1113392E+00
         21   -1    0    0  502  501  0.00000000000E+00  0.00000000000E+00  0.48727228399E+02  0.48727228399E+02  0.00000000000E+00 0.  1.
         21   -1    0    0  501  502 -0.00000000000E+00 -0.00000000000E+00 -0.12812321608E+04  0.12812321608E+04  0.00000000000E+00 0.  1.
         25    1    1    2    0    0 -0.69743427425E+02  0.21722832794E+02 -0.47763298580E+03  0.49909347447E+03  0.12500000000E+03 0.  0.
         25    1    1    2    0    0  0.47627187120E+02 -0.72236563874E+02 -0.16080419611E+03  0.22129044173E+03  0.12500000000E+03 0.  0.
         25    1    1    2    0    0  0.22116240305E+02  0.50513731080E+02 -0.59406775046E+03  0.60957547298E+03  0.12500000000E+03 0.  0.
</event>
<event>
 5    0  0.1074517E-004  0.8293492E+03  0.7546771E-02  0.9518481E-01
         21   -1    0    0  502  501  0.00000000000E+00  0.00000000000E+00  0.12139916352E+04  0.12139916352E+04  0.00000000000E+00 0. -1.
         21   -1    0    0  501  502 -0.00000000000E+00 -0.00000000000E+00 -0.56657728769E+03  0.56657728769E+03  0.00000000000E+00 0. -1.
         25    1    1    2    0    0  0.31798485778E+03  0.16459888354E+03  0.56221991840E+03  0.67817652487E+03  0.12500000000E+03 0.  0.
         25    1    1    2    0    0 -0.57776999950E+03 -0.30146355166E+03  0.28896084528E+03  0.72375535604E+03  0.12500000000E+03 0.  0.
         25    1    1    2    0    0  0.25978514172E+03  0.13686466812E+03 -0.20376641614E+03  0.37863704201E+03  0.12500000000E+03 0.  0.
</event>
<event>
 5    0  0.5648525E-005  0.2509270E+03  0.7546771E-02  0.1112720E+00
         21   -1    0    0  502  501  0.00000000000E+00  0.00000000000E+00  0.40730270996E+03  0.40730270996E+03  0.00000000000E+00 0. -1.
         21   -1    0    0  501  502 -0.00000000000E+00 -0.00000000000E+00 -0.15458857996E+03  0.15458857996E+03  0.00000000000E+00 0. -1.
         25    1    1    2    0    0 -0.69037929297E+01  0.19134521944E+02  0.22891398151E+02  0.12869657492E+03  0.12500000000E+03 0.  0.
         25    1    1    2    0    0  0.41777645546E+01  0.69933009687E+02  0.23980989201E+03  0.27935973917E+03  0.12500000000E+03 0.  0.
         25    1    1    2    0    0  0.27260283751E+01 -0.89067531631E+02 -0.99871601535E+01  0.15383497583E+03  0.12500000000E+03 0.  0.
</event>
<event>
 5    0  0.5648525E-005  0.4377047E+03  0.7546771E-02  0.1031453E+00
         21   -1    0    0  502  501  0.00000000000E+00  0.00000000000E+00  0.37579620455E+03  0.37579620455E+03  0.00000000000E+00 0. -1.
         21   -1    0    0  501  502 -0.00000000000E+00 -0.00000000000E+00 -0.50981192173E+03  0.50981192173E+03  0.00000000000E+00 0. -1.
         25    1    1    2    0    0  0.82671035202E+02 -0.19609298691E+03 -0.98349016141E+02  0.26567741446E+03  0.12500000000E+03 0.  0.
         25    1    1    2    0    0 -0.30083978364E+03  0.72148382703E+02 -0.58160093137E+02  0.33869980954E+03  0.12500000000E+03 0.  0.
         25    1    1    2    0    0  0.21816874844E+03  0.12394460421E+03  0.22493392095E+02  0.28123090228E+03  0.12500000000E+03 0.  0.
</event>
<event>
 5    0  0.5648525E-005  0.3725213E+03  0.7546771E-02  0.1053733E+00
         21   -1    0    0  502  501  0.00000000000E+00  0.00000000000E+00  0.51261463477E+03  0.51261463477E+03  0.00000000000E+00 0.  1.
         21   -1    0    0  501  502 -0.00000000000E+00 -0.00000000000E+00 -0.27071435774E+03  0.27071435774E+03  0.00000000000E+00 0.  1.
         25    1    1    2    0    0  0.12514257113E+03  0.28060321826E+03  0.14850416665E+03  0.36342443055E+03  0.12500000000E+03 0.  0.
         25    1    1    2    0    0 -0.13480387378E+02 -0.10451496149E+03  0.13689966902E+02  0.16406557595E+03  0.12500000000E+03 0.  0.
         25    1    1    2    0    0 -0.11166218375E+03 -0.17608825678E+03  0.79706143484E+02  0.25583898601E+03  0.12500000000E+03 0.  0.
</event>
<event>
 5    0  0.5648525E-005  0.3098976E+03  0.7546771E-02  0.1080395E+00
         21   -1    0    0  502  501  0.00000000000E+00  0.00000000000E+00  0.17063870933E+03  0.17063870933E+03  0.00000000000E+00 0. -1.
         21   -1    0    0  501  502 -0.00000000000E+00 -0.00000000000E+00 -0.56280611026E+03  0.56280611026E+03  0.00000000000E+00 0. -1.
         25    1    1    2    0    0  0.20269476000E+01 -0.10758950025E+02  0.75220448282E+02  0.14629757128E+03  0.12500000000E+03 0.  0.
         25    1    1    2    0    0  0.10599889596E+03 -0.57057763243E+02 -0.19082628494E+03  0.25793608766E+03  0.12500000000E+03 0.  0.
         25    1    1    2    0    0 -0.10802584356E+03  0.67816713267E+02 -0.27656156426E+03  0.32921116065E+03  0.12500000000E+03 0.  0.
</event>
<event>
 5    0  0.5648525E-005  0.2760752E+03  0.7546771E-02  0.1097852E+00
         21   -1    0    0  502  501  0.00000000000E+00  0.00000000000E+00  0.12069076732E+04  0.12069076732E+04  0.00000000000E+00 0.  1.
         21   -1    0    0  501  502 -0.00000000000E+00 -0.00000000000E+00 -0.63151086233E+02  0.63151086233E+02  0.00000000000E+00 0.  1.
         25    1    1    2    0    0 -0.42410308907E+01  0.89589199350E+02  0.48089586461E+03  0.50490597499E+03  0.12500000000E+03 0.  0.
         25    1    1    2    0    0 -0.69377820292E+02 -0.60391513109E+02  0.56931034703E+03  0.59008447534E+03  0.12500000000E+03 0.  0.
         25    1    1    2    0    0  0.73618851183E+02 -0.29197686241E+02  0.93550375355E+02  0.17506830913E+03  0.12500000000E+03 0.  0.
</event>
<event>
 5    0  0.5949789E-005  0.3447360E+03  0.7546771E-02  0.1064797E+00
         21   -1    0    0  502  501  0.00000000000E+00  0.00000000000E+00  0.10473025964E+03  0.10473025964E+03  0.00000000000E+00 0. -1.
         21   -1    0    0  501  502 -0.00000000000E+00 -0.00000000000E+00 -0.11347524461E+04  0.11347524461E+04  0.00000000000E+00 0. -1.
         25    1    1    2    0    0  0.43041614423E+02  0.12373305409E+03 -0.11028616214E+03  0.21201529852E+03  0.12500000000E+03 0.  0.
         25    1    1    2    0    0  0.40410906798E+02  0.11587029262E+03 -0.35013382414E+03  0.39150691042E+03  0.12500000000E+03 0.  0.
         25    1    1    2    0    0 -0.83452521221E+02 -0.23960334670E+03 -0.56960220019E+03  0.63596049682E+03  0.12500000000E+03 0.  0.
</event>
<event>
 5    0  0.5648525E-005  0.2645908E+03  0.7546771E-02  0.1104416E+00
         21   -1    0    0  502  501  0.00000000000E+00  0.00000000000E+00  0.40066155444E+03  0.40066155444E+03  0.00000000000E+00 0.  1.
         21   -1    0    0  501  502 -0.00000000000E+00 -0.00000000000E+00 -0.17473173923E+03  0.17473173923E+03  0.00000000000E+00 0.  1.
         25    1    1    2    0    0 -0.13080791589E+03 -0.30717699422E+02  0.96325198858E+02  0.20726271216E+03  0.12500000000E+03 0.  0.
         25    1    1    2    0    0  0.59992546377E+02 -0.22933289997E+02 -0.33270819557E+02  0.14441948915E+03  0.12500000000E+03 0.  0.
         25    1    1    2    0    0  0.70815369515E+02  0.53650989419E+02  0.16287543591E+03  0.22371109236E+03  0.12500000000E+03 0.  0.
</event>
<event>
 5    0  0.5648525E-005  0.2591586E+03  0.7546771E-02  0.1107650E+00
         21   -1    0    0  502  501  0.00000000000E+00  0.00000000000E+00  0.38558178783E+03  0.38558178783E+03  0.00000000000E+00 0. -1.
         21   -1    0    0  501  502 -0.00000000000E+00 -0.00000000000E+00 -0.17418665784E+03  0.17418665784E+03  0.00000000000E+00 0. -1.
         25    1    1    2    0    0 -0.50753291506E+01 -0.74529280373E+02  0.80137495622E+01  0.14584098457E+03  0.12500000000E+03 0.  0.
         25    1    1    2    0    0 -0.54133913757E+02  0.13015266032E+02 -0.25816034357E+02  0.13925281110E+03  0.12500000000E+03 0.  0.
         25    1    1    2    0    0  0.59209242907E+02  0.61514014341E+02  0.22919741479E+03  0.27467465000E+03  0.12500000000E+03 0.  0.
</event>
<event>
 5    0  0.5648525E-005  0.2307970E+03  0.7546771E-02  0.1126080E+00
         21   -1    0    0  502  501  0.00000000000E+00  0.00000000000E+00  0.22323583051E+03  0.22323583051E+03  0.00000000000E+00 0. -1.
         21   -1    0    0  501  502 -0.00000000000E+00 -0.00000000000E+00 -0.23861435951E+03  0.23861435951E+03  0.00000000000E+00 0. -1.
         25    1    1    2    0    0  0.42212372564E+02  0.76772396121E+02 -0.48722436227E+02  0.16023345779E+03  0.12500000000E+03 0.  0.
         25    1    1    2    0    0 -0.19207956166E+02 -0.58672478817E+02  0.84943389087E+02  0.16325374330E+03  0.12500000000E+03 0.  0.
         25    1    1    2    0    0 -0.23004416397E+02 -0.18099917303E+02 -0.51599481862E+02  0.13836298894E+03  0.12500000000E+03 0.  0.
</event>
<event>
 5    0  0.5648525E-005  0.2310909E+03  0.7546771E-02  0.1125874E+00
         21   -1    0    0  502  501  0.00000000000E+00  0.00000000000E+00  0.60935729250E+02  0.60935729250E+02  0.00000000000E+00 0. -1.
         21   -1    0    0  501  502 -0.00000000000E+00 -0.00000000000E+00 -0.87638231342E+03  0.87638231342E+03  0.00000000000E+00 0. -1.
         25    1    1    2    0    0 -0.42397903072E+01 -0.17735711848E+02 -0.33821432151E+03  0.36103525946E+03  0.12500000000E+03 0.  0.
         25    1    1    2    0    0 -0.82118097025E+02  0.35606441431E+02 -0.14873396721E+03  0.21391118141E+03  0.12500000000E+03 0.  0.
         25    1    1    2    0    0  0.86357887332E+02 -0.17870729582E+02 -0.32849829545E+03  0.36237160181E+03  0.12500000000E+03 0.  0.
</event>
<event>
 5    0  0.5648525E-005  0.2525542E+03  0.7546771E-02  0.1111701E+00
         21   -1    0    0  502  501  0.00000000000E+00  0.00000000000E+00  0.71697008591E+03  0.71697008591E+03  0.00000000000E+00 0. -1.
         21   -1    0    0  501  502 -0.00000000000E+00 -0.00000000000E+00 -0.88962709132E+02  0.88962709132E+02  0.00000000000E+00 0. -1.
         25    1    1    2    0    0 -0.19655082449E+02  0.49507337404E+01  0.50487168318E+02  0.13632602905E+03  0.12500000000E+03 0.  0.
         25    1    1    2    0    0  0.46090033274E+02 -0.45463229526E+02  0.97533189323E+02  0.17125688140E+03  0.12500000000E+03 0.  0.
         25    1    1    2    0    0 -0.26434950824E+02  0.40512495786E+02  0.47998701914E+03  0.49834988460E+03  0.12500000000E+03 0.  0.
</event>
<event>
 5    0  0.5648525E-005  0.4198047E+03  0.7546771E-02  0.1037130E+00
         21   -1    0    0  502  501  0.00000000000E+00  0.00000000000E+00  0.79387232294E+03  0.79387232294E+03  0.00000000000E+00 0. -1.
         21   -1    0    0  501  502 -0.00000000000E+00 -0.00000000000E+00 -0.22199541714E+03  0.22199541714E+03  0.00000000000E+00 0.  1.
         25    1    1    2    0    0  0.12396345428E+03  0.28960409353E+03  0.41013975793E+03  0.53204989429E+03  0.12500000000E+03 0.  0.
         25    1    1    2    0    0 -0.12423968354E+03 -0.27957115407E+03  0.12165981645E+03  0.35216706276E+03  0.12500000000E+03 0.  0.
         25    1    1    2    0    0  0.27622926032E+00 -0.10032939465E+02  0.40077331421E+02  0.13165078302E+03  0.12500000000E+03 0.  0.
</event>
<event>
 5    0  0.5648525E-005  0.2817013E+03  0.7546771E-02  0.1094763E+00
         21   -1    0    0  502  501  0.00000000000E+00  0.00000000000E+00  0.12895084198E+03  0.12895084198E+03  0.00000000000E+00 0.  1.
         21   -1    0    0  501  502 -0.00000000000E+00 -0.00000000000E+00 -0.61539441434E+03  0.61539441434E+03  0.00000000000E+00 0.  1.
         25    1    1    2    0    0  0.51537232526E+02 -0.74141417955E+02 -0.58218204761E+02  0.16482534865E+03  0.12500000000E+03 0.  0.
         25    1    1    2    0    0  0.52466588380E+02  0.15385735206E+03 -0.18424978704E+03  0.27567700612E+03  0.12500000000E+03 0.  0.
         25    1    1    2    0    0 -0.10400382091E+03 -0.79715934108E+02 -0.24397558055E+03  0.30384290155E+03  0.12500000000E+03 0.  0.
</event>
<event>
 5    0  0.5648525E-005  0.2544783E+03  0.7546771E-02  0.1110507E+00
         21   -1    0    0  502  501  0.00000000000E+00  0.00000000000E+00  0.41759791544E+03  0.41759791544E+03  0.00000000000E+00 0.  1.
         21   -1    0    0  501  502 -0.00000000000E+00 -0.00000000000E+00 -0.15507544776E+03  0.15507544776E+03  0.00000000000E+00 0.  1.
         25    1    1    2    0    0 -0.37292857480E+02  0.40785974867E+02  0.12485218242E+03  0.18511434418E+03  0.12500000000E+03 0.  0.
         25    1    1    2    0    0  0.73165407722E+02  0.86101634769E+01 -0.50428911441E+02  0.15360789990E+03  0.12500000000E+03 0.  0.
         25    1    1    2    0    0 -0.35872550242E+02 -0.49396138344E+02  0.18809919670E+03  0.23395111913E+03  0.12500000000E+03 0.  0.
</event>
<event>
 5    0  0.5648525E-005  0.3538708E+03  0.7546771E-02  0.1061037E+00
         21   -1    0    0  502  501  0.00000000000E+00  0.00000000000E+00  0.29290928431E+03  0.29290928431E+03  0.00000000000E+00 0.  1.
         21   -1    0    0  501  502 -0.00000000000E+00 -0.00000000000E+00 -0.42751992246E+03  0.42751992246E+03  0.00000000000E+00 0.  1.
         25    1    1    2    0    0 -0.33395022927E+02  0.18682416087E+03 -0.12343785911E+03  0.25861245078E+03  0.12500000000E+03 0.  0.
         25    1    1    2    0    0  0.17988426897E+00 -0.18102885661E+03  0.14155374543E+03  0.26159881905E+03  0.12500000000E+03 0.  0.
         25    1    1    2    0    0  0.33215138658E+02 -0.57953042534E+01 -0.15272652448E+03  0.20021793692E+03  0.12500000000E+03 0.  0.
</event>
<event>
 5    0  0.6074028E-005  0.3142877E+03  0.7546771E-02  0.1078309E+00
         21   -1    0    0  502  501  0.00000000000E+00  0.00000000000E+00  0.47404368840E+03  0.47404368840E+03  0.00000000000E+00 0. -1.
         21   -1    0    0  501  502 -0.00000000000E+00 -0.00000000000E+00 -0.20837052141E+03  0.20837052141E+03  0.00000000000E+00 0. -1.
         25    1    1    2    0    0 -0.15739491567E+03 -0.58383346598E+01  0.24746611010E+03  0.31886003400E+03  0.12500000000E+03 0.  0.
         25    1    1    2    0    0  0.10997465785E+03  0.92820149525E+02  0.57852289107E+02  0.19920314476E+03  0.12500000000E+03 0.  0.
         25    1    1    2    0    0  0.47420257819E+02 -0.86981814865E+02 -0.39645232229E+02  0.16435103105E+03  0.12500000000E+03 0.  0.
</event>
<event>
 5    0  0.5648525E-005  0.4336135E+03  0.7546771E-02  0.1032725E+00
         21   -1    0    0  502  501  0.00000000000E+00  0.00000000000E+00  0.11828843346E+04  0.11828843346E+04  0.00000000000E+00 0. -1.
         21   -1    0    0  501  502 -0.00000000000E+00 -0.00000000000E+00 -0.15895100911E+03  0.15895100911E+03  0.00000000000E+00 0.  1.
         25    1    1    2    0    0 -0.69851621413E+02 -0.10022474951E+03 -0.67905408772E+02  0.18751105026E+03  0.12500000000E+03 0.  0.
         25    1    1    2    0    0  0.37583834092E+02 -0.37609984899E+02  0.19393751410E+03  0.23677798657E+03  0.12500000000E+03 0.  0.
         25    1    1    2    0    0  0.32267787321E+02  0.13783473441E+03  0.89790122018E+03  0.91754630690E+03  0.12500000000E+03 0.  0.
</event>
<event>
 5    0  0.5648525E-005  0.2698636E+03  0.7546771E-02  0.1101358E+00
         21   -1    0    0  502  501  0.00000000000E+00  0.00000000000E+00  0.36369741629E+03  0.36369741629E+03  0.00000000000E+00 0.  1.
         21   -1    0    0  501  502 -0.00000000000E+00 -0.00000000000E+00 -0.20023885169E+03  0.20023885169E+03  0.00000000000E+00 0.  1.
         25    1    1    2    0    0  0.68770385191E+02  0.16131116741E+03  0.13184466698E+03  0.25250480158E+03  0.12500000000E+03 0.  0.
         25    1    1    2    0    0 -0.17083290049E+02 -0.10150032954E+03  0.16094638187E+02  0.16272121273E+03  0.12500000000E+03 0.  0.
         25    1    1    2    0    0 -0.51687095141E+02 -0.59810837877E+02  0.15519259433E+02  0.14871025366E+03  0.12500000000E+03 0.  0.
</event>
<event>
 5    0  0.5648525E-005  0.2771759E+03  0.7546771E-02  0.1097241E+00
         21   -1    0    0  502  501  0.00000000000E+00  0.00000000000E+00  0.14274372199E+03  0.14274372199E+03  0.00000000000E+00 0. -1.
         21   -1    0    0  501  502 -0.00000000000E+00 -0.00000000000E+00 -0.53821279267E+03  0.53821279267E+03  0.00000000000E+00 0. -1.
         25    1    1    2    0    0  0.80453065841E+02 -0.95616455022E+02 -0.26531139294E+03  0.31879513406E+03  0.12500000000E+03 0.  0.
         25    1    1    2    0    0  0.56618825344E+02  0.51945606123E+02 -0.67834372740E+02  0.16164943397E+03  0.12500000000E+03 0.  0.
         25    1    1    2    0    0 -0.13707189118E+03  0.43670848899E+02 -0.62323304998E+02  0.20051194663E+03  0.12500000000E+03 0.  0.
</event>
<event>
 5    0  0.5648525E-005  0.3921171E+03  0.7546771E-02  0.1046544E+00
         21   -1    0    0  502  501  0.00000000000E+00  0.00000000000E+00  0.17034870734E+03  0.17034870734E+03  0.00000000000E+00 0. -1.
         21   -1    0    0  501  502 -0.00000000000E+00 -0.00000000000E+00 -0.90259447061E+03  0.90259447061E+03  0.00000000000E+00 0. -1.
         25    1    1    2    0    0 -0.18786796356E+03  0.41127025914E+02 -0.59742032195E+03  0.63993893855E+03  0.12500000000E+03 0.  0.
         25    1    1    2    0    0  0.14651568767E+03  0.15691484908E+02  0.49497881859E+02  0.19946957097E+03  0.12500000000E+03 0.  0.
         25    1    1    2    0    0  0.41352275891E+02 -0.56818510822E+02 -0.18432332318E+03  0.23353466843E+03  0.12500000000E+03 0.  0.
</event>
<event>
 5    0  0.5648525E-005  0.2981613E+03  0.7546771E-02  0.1086163E+00
         21   -1    0    0  502  501  0.00000000000E+00  0.00000000000E+00  0.77320418131E+03  0.77320418131E+03  0.00000000000E+00 0. -1.
         21   -1    0    0  501  502 -0.00000000000E+00 -0.00000000000E+00 -0.11497626867E+03  0.11497626867E+03  0.00000000000E+00 0. -1.
         25    1    1    2    0    0 -0.22445250322E+02  0.39926395534E+02  0.67975372576E+02  0.14947761571E+03  0.12500000000E+03 0.  0.
         25    1    1    2    0    0  0.12759149202E+03  0.99088570540E+02  0.16560708785E+03  0.26296167248E+03  0.12500000000E+03 0.  0.
         25    1    1    2    0    0 -0.10514624170E+03 -0.13901496607E+03  0.42464545221E+03  0.47574116179E+03  0.12500000000E+03 0.  0.
</event>
<event>
 5    0  0.5648525E-005  0.2003545E+03  0.7546771E-02  0.1149440E+00
         21   -1    0    0  502  501  0.00000000000E+00  0.00000000000E+00  0.33249000601E+03  0.33249000601E+03  0.00000000000E+00 0.  1.
         21   -1    0    0  501  502 -0.00000000000E+00 -0.00000000000E+00 -0.12073124950E+03  0.12073124950E+03  0.00000000000E+00 0.  1.
         25    1    1    2    0    0 -0.20718415413E+02  0.50118311172E+02  0.67840009603E+02  0.15221157891E+03  0.12500000000E+03 0.  0.
         25    1    1    2    0    0  0.10910599895E+02 -0.57352117311E+02  0.63474935785E+02  0.15186301071E+03  0.12500000000E+03 0.  0.
         25    1    1    2    0    0  0.98078155188E+01  0.72338061399E+01  0.80443811124E+02  0.14914666589E+03  0.12500000000E+03 0.  0.
</event>
<event>
 5    0  0.5648525E-005  0.3634526E+03  0.7546771E-02  0.1057225E+00
         21   -1    0    0  502  501  0.00000000000E+00  0.00000000000E+00  0.16020722165E+03  0.16020722165E+03  0.00000000000E+00 0. -1.
         21   -1    0    0  501  502 -0.00000000000E+00 -0.00000000000E+00 -0.82454326104E+03  0.82454326104E+03  0.00000000000E+00 0. -1.
         25    1    1    2    0    0  0.12488626840E+03  0.22305119743E+03 -0.32300778043E+03  0.43047351014E+03  0.12500000000E+03 0.  0.
         25    1    1    2    0    0 -0.14181136169E+03 -0.10799504190E+02 -0.16081232751E+03  0.24842040229E+03  0.12500000000E+03 0.  0.
         25    1    1    2    0    0  0.16925093286E+02 -0.21225169324E+03 -0.18051593145E+03  0.30585657026E+03  0.12500000000E+03 0.  0.
</event>
<event>
 5    0  0.5648525E-005  0.2826435E+03  0.7546771E-02  0.1094254E+00
         21   -1    0    0  502  501  0.00000000000E+00  0.00000000000E+00  0.40353713127E+02  0.40353713127E+02  0.00000000000E+00 0.  1.
         21   -1    0    0  501  502 -0.00000000000E+00 -0.00000000000E+00 -0.19796775565E+04  0.19796775565E+04  0.00000000000E+00 0.  1.
         25    1    1    2    0    0 -0.31649810345E+02  0.53063920279E+02 -0.87129881518E+03  0.88238546875E+03  0.12500000000E+03 0.  0.
         25    1    1    2    0    0 -0.48821380062E+01 -0.13503304063E+03 -0.85658592025E+03  0.87614051162E+03  0.12500000000E+03 0.  0.
         25    1    1    2    0    0  0.36531948352E+02  0.81969120355E+02 -0.21143910797E+03  0.26150528928E+03  0.12500000000E+03 0.  0.
</event>
<event>
 5    0  0.5648525E-005  0.2480030E+03  0.7546771E-02  0.1114573E+00
         21   -1    0    0  502  501  0.00000000000E+00  0.00000000000E+00  0.15726505292E+03  0.15726505292E+03  0.00000000000E+00 0.  1.
         21   -1    0    0  501  502 -0.00000000000E+00 -0.00000000000E+00 -0.39109441783E+03  0.39109441783E+03  0.00000000000E+00 0.  1.
         25    1    1    2    0    0  0.63140797794E+02 -0.87156562066E+02 -0.15593937880E+03  0.22699144592E+03  0.12500000000E+03 0.  0.
         25    1    1    2    0    0 -0.30362005473E+02  0.11958308425E+03 -0.65929084173E+02  0.18759959903E+03  0.12500000000E+03 0.  0.
         25    1    1    2    0    0 -0.32778792321E+02 -0.32426522189E+02 -0.11960901933E+02  0.13376842581E+03  0.12500000000E+03 0.  0.
</event>
<event>
 5    0  0.5648525E-005  0.3650417E+03  0.7546771E-02  0.1056605E+00
         21   -1    0    0  502  501  0.00000000000E+00  0.00000000000E+00  0.21155716434E+03  0.21155716434E+03  0.00000000000E+00 0.  1.
         21   -1    0    0  501  502 -0.00000000000E+00 -0.00000000000E+00 -0.62987908427E+03  0.62987908427E+03  0.00000000000E+00 0.  1.
         25    1    1    2    0    0  0.77153799982E+02 -0.22855976514E+03 -0.35087058537E+03  0.44376507610E+03  0.12500000000E+03 0.  0.
         25    1    1    2    0    0 -0.14963204873E+02  0.14259986684E+03  0.49166208863E+02  0.19647120811E+03  0.12500000000E+03 0.  0.
         25    1    1    2    0    0 -0.62190595110E+02  0.85959898302E+02 -0.11661754343E+03  0.20119996439E+03  0.12500000000E+03 0.  0.
</event>
<event>
 5    0  0.5648525E-005  0.3131033E+03  0.7546771E-02  0.1078868E+00
         21   -1    0    0  502  501  0.00000000000E+00  0.00000000000E+00  0.19380653000E+04  0.19380653000E+04  0.00000000000E+00 0. -1.
         21   -1    0    0  501  502 -0.00000000000E+00 -0.00000000000E+00 -0.50583252323E+02  0.50583252323E+02  0.00000000000E+00 0. -1.
         25    1    1    2    0    0 -0.14967955772E+03 -0.36684141945E+02  0.23157643412E+03  0.30496285202E+03  0.12500000000E+03 0.  0.
         25    1    1    2    0    0  0.10326301898E+03  0.50247326839E+02  0.98595689543E+03  0.10004619156E+04  0.12500000000E+03 0.  0.
         25    1    1    2    0    0  0.46416538742E+02 -0.13563184894E+02  0.66994871816E+03  0.68322378473E+03  0.12500000000E+03 0.  0.
</event>
<event>
 5    0  0.5648525E-005  0.4056006E+03  0.7546771E-02  0.1041857E+00
         21   -1    0    0  502  501  0.00000000000E+00  0.00000000000E+00  0.45792374220E+03  0.45792374220E+03  0.00000000000E+00 0. -1.
         21   -1    0    0  501  502 -0.00000000000E+00 -0.00000000000E+00 -0.35925601379E+03  0.35925601379E+03  0.00000000000E+00 0. -1.
         25    1    1    2    0    0  0.40317797772E+02  0.85166838788E+02  0.11198992531E+03  0.19247248795E+03  0.12500000000E+03 0.  0.
         25    1    1    2    0    0 -0.25137597148E+03 -0.15763596076E+03  0.11067256395E+03  0.34045908942E+03  0.12500000000E+03 0.  0.
         25    1    1    2    0    0  0.21105817371E+03  0.72469121971E+02 -0.12399476084E+03  0.28424817861E+03  0.12500000000E+03 0.  0.
</event>
<event>
 5    0  0.5648525E-005  0.3634412E+03  0.7546771E-02  0.1057230E+00
         21   -1    0    0  502  501  0.00000000000E+00  0.00000000000E+00  0.68775903125E+03  0.68775903125E+03  0.00000000000E+00 0. -1.
         21   -1    0    0  501  502 -0.00000000000E+00 -0.00000000000E+00 -0.19205783168E+03  0.19205783168E+03  0.00000000000E+00 0. -1.
         25    1    1    2    0    0 -0.23368224655E+03  0.60577579969E+02  0.22273156573E+03  0.35144186706E+03  0.12500000000E+03 0.  0.
         25    1    1    2    0    0 -0.43426506720E+02 -0.66646069581E+02  0.96477049825E+02  0.17680605538E+03  0.12500000000E+03 0.  0.
         25    1    1    2    0    0  0.27710875327E+03  0.60684896120E+01  0.17649258402E+03  0.35156894049E+03  0.12500000000E+03 0.  0.
</event>
<event>
 5    0  0.6100226E-005  0.2949563E+03  0.7546771E-02  0.1087789E+00
         21   -1    0    0  502  501  0.00000000000E+00  0.00000000000E+00  0.38307678968E+03  0.38307678968E+03  0.00000000000E+00 0.  1.
         21   -1    0    0  501  502 -0.00000000000E+00 -0.00000000000E+00 -0.22710651763E+03  0.22710651763E+03  0.00000000000E+00 0.  1.
         25    1    1    2    0    0  0.79256321083E+02 -0.13081034137E+03  0.19293807841E+03  0.27612137176E+03  0.12500000000E+03 0.  0.
         25    1    1    2    0    0  0.28367423138E-02  0.11463503814E+03  0.27485522443E+02  0.17181864253E+03  0.12500000000E+03 0.  0.
         25    1    1    2    0    0 -0.79259157825E+02  0.16175303232E+02 -0.64453328809E+02  0.16224329301E+03  0.12500000000E+03 0.  0.
</event>
<event>
 5    0  0.5648525E-005  0.2917182E+03  0.7546771E-02  0.1089455E+00
         21   -1    0    0  502  501  0.00000000000E+00  0.00000000000E+00  0.31492440285E+03  0.31492440285E+03  0.00000000000E+00 0. -1.
         21   -1    0    0  501  502 -0.00000000000E+00 -0.00000000000E+00 -0.27022196287E+03  0.27022196287E+03  0.00000000000E+00 0. -1.
         25    1    1    2    0    0 -0.42324023167E+01  0.58477865652E+02 -0.31573467517E+02  0.14163141548E+03  0.12500000000E+03 0.  0.
         25    1    1    2    0    0 -0.12767677641E+03 -0.12506356341E+03  0.11435710194E+03  0.24626165128E+03  0.12500000000E+03 0.  0.
         25    1    1    2    0    0  0.13190917873E+03  0.66585697763E+02 -0.38081194444E+02  0.19725329896E+03  0.12500000000E+03 0.  0.
</event>
<event>
 5    0  0.5648525E-005  0.4610134E+03  0.7546771E-02  0.1024488E+00
         21   -1    0    0  502  501  0.00000000000E+00  0.00000000000E+00  0.14396298571E+03  0.14396298571E+03  0.00000000000E+00 0. -1.
         21   -1    0    0  501  502 -0.00000000000E+00 -0.00000000000E+00 -0.14763052645E+04  0.14763052645E+04  0.00000000000E+00 0. -1.
         25    1    1    2    0    0 -0.67667145440E+02 -0.29313925311E+03 -0.70914233906E+03  0.78039561848E+03  0.12500000000E+03 0.  0.
         25    1    1    2    0    0 -0.13788079139E+03  0.18715258374E+03 -0.16397060734E+03  0.31072264531E+03  0.12500000000E+03 0.  0.
         25    1    1    2    0    0  0.20554793683E+03  0.10598666937E+03 -0.45922933236E+03  0.52914998641E+03  0.12500000000E+03 0.  0.
</event>
<event>
 5    0  0.6039211E-005  0.3667585E+03  0.7546771E-02  0.1055939E+00
         21   -1    0    0  502  501  0.00000000000E+00  0.00000000000E+00  0.21634614578E+03  0.21634614578E+03  0.00000000000E+00 0.  1.
         21   -1    0    0  501  502 -0.00000000000E+00 -0.00000000000E+00 -0.62174360440E+03  0.62174360440E+03  0.00000000000E+00 0.  1.
         25    1    1    2    0    0  0.86834264031E+02 -0.16812484794E+03 -0.67764183910E+02  0.23669207534E+03  0.12500000000E+03 0.  0.
         25    1    1    2    0    0 -0.19238983528E+02  0.15530574099E+03 -0.39871224463E+03  0.44619106410E+03  0.12500000000E+03 0.  0.
         25    1    1    2    0    0 -0.67595280503E+02  0.12819106956E+02  0.61078969916E+02  0.15520661073E+03  0.12500000000E+03 0.  0.
</event>
<event>
 5    0  0.5648525E-005  0.4634638E+03  0.7546771E-02  0.1023781E+00
         21   -1    0    0  502  501  0.00000000000E+00  0.00000000000E+00  0.92730923141E+02  0.92730923141E+02  0.00000000000E+00 0. -1.
         21   -1    0    0  501  502 -0.00000000000E+00 -0.00000000000E+00 -0.23163652309E+04  0.23163652309E+04  0.00000000000E+00 0. -1.
         25    1    1    2    0    0  0.13843978666E+03  0.10812590356E+03 -0.19232487676E+04  0.19352952250E+04  0.12500000000E+03 0.  0.
         25    1    1    2    0    0 -0.56570496449E+02  0.51194045336E+02 -0.99553439118E+02  0.17707890497E+03  0.12500000000E+03 0.  0.
         25    1    1    2    0    0 -0.81869290213E+02 -0.15931994889E+03 -0.20083210101E+03  0.29672202411E+03  0.12500000000E+03 0.  0.
</event>
<event>
 5    0  0.5648525E-005  0.2562720E+03  0.7546771E-02  0.1109404E+00
         21   -1    0    0  502  501  0.00000000000E+00  0.00000000000E+00  0.42436376771E+03  0.42436376771E+03  0.00000000000E+00 0.  1.
         21   -1    0    0  501  502 -0.00000000000E+00 -0.00000000000E+00 -0.15476193288E+03  0.15476193288E+03  0.00000000000E+00 0.  1.
         25    1    1    2    0    0  0.34726194366E+02  0.27116924613E+02  0.24987765971E+02  0.13487262370E+03  0.12500000000E+03 0.  0.
         25    1    1    2    0    0  0.11423738916E+03 -0.23524749017E+02  0.15230036596E+03  0.22896287116E+03  0.12500000000E+03 0.  0.
         25    1    1    2    0    0 -0.14896358352E+03 -0.35921755965E+01  0.92313702897E+02  0.21529020573E+03  0.12500000000E+03 0.  0.
</event>
<event>
 5    0  0.5648525E-005  0.2666230E+03  0.7546771E-02  0.1103228E+00
         21   -1    0    0  502  501  0.00000000000E+00  0.00000000000E+00  0.33294228413E+03  0.33294228413E+03  0.00000000000E+00 0. -1.
         21   -1    0    0  501  502 -0.00000000000E+00 -0.00000000000E+00 -0.21351398553E+03  0.21351398553E+03  0.00000000000E+00 0. -1.
         25    1    1    2    0    0 -0.11382837097E+03 -0.65044518074E+02 -0.28220584840E+02  0.18332781779E+03  0.12500000000E+03 0.  0.
         25    1    1    2    0    0 -0.12245169083E+02 -0.44284572300E+01  0.11371335795E+03  0.16948534797E+03  0.12500000000E+03 0.  0.
         25    1    1    2    0    0  0.12607354005E+03  0.69472975304E+02  0.33935525489E+02  0.19364310390E+03  0.12500000000E+03 0.  0.
</event>
<event>
 5    0  0.5648525E-005  0.3248255E+03  0.7546771E-02  0.1073450E+00
         21   -1    0    0  502  501  0.00000000000E+00  0.00000000000E+00  0.72926250303E+03  0.72926250303E+03  0.00000000000E+00 0.  1.
         21   -1    0    0  501  502 -0.00000000000E+00 -0.00000000000E+00 -0.14468257879E+03  0.14468257879E+03  0.00000000000E+00 0.  1.
         25    1    1    2    0    0 -0.95982306370E+02  0.66143316287E+01 -0.21112282694E+02  0.15914484283E+03  0.12500000000E+03 0.  0.
         25    1    1    2    0    0  0.14540940564E+03  0.80415633558E+02  0.25317566230E+03  0.32761789535E+03  0.12500000000E+03 0.  0.
         25    1    1    2    0    0 -0.49427099274E+02 -0.87029965186E+02  0.35251654464E+03  0.38718234364E+03  0.12500000000E+03 0.  0.
</event>
<event>
 5    0  0.6581238E-005  0.3341146E+03  0.7546771E-02  0.1069331E+00
         21   -1    0    0  502  501  0.00000000000E+00  0.00000000000E+00  0.53698857795E+03  0.53698857795E+03  0.00000000000E+00 0.  1.
         21   -1    0    0  501  502 -0.00000000000E+00 -0.00000000000E+00 -0.20788628463E+03  0.20788628463E+03  0.00000000000E+00 0.  1.
         25    1    1    2    0    0  0.14393763224E+03  0.24060319396E+02  0.12062322765E+03  0.22687420301E+03  0.12500000000E+03 0.  0.
         25    1    1    2    0    0 -0.19943808867E+03  0.60351550181E+02  0.25344611669E+03  0.35110937739E+03  0.12500000000E+03 0.  0.
         25    1    1    2    0    0  0.55500456434E+02 -0.84411869577E+02 -0.44967051033E+02  0.16689128218E+03  0.12500000000E+03 0.  0.
</event>
<event>
 5    0  0.5648525E-005  0.2781562E+03  0.7546771E-02  0.1096700E+00
         21   -1    0    0  502  501  0.00000000000E+00  0.00000000000E+00  0.15871258364E+03  0.15871258364E+03  0.00000000000E+00 0. -1.
         21   -1    0    0  501  502 -0.00000000000E+00 -0.00000000000E+00 -0.48749030199E+03  0.48749030199E+03  0.00000000000E+00 0. -1.
         25    1    1    2    0    0  0.55184928646E+02 -0.77019259485E+02 -0.79119407366E+02  0.17567647339E+03  0.12500000000E+03 0.  0.
         25    1    1    2    0    0  0.69837994996E+02 -0.32504344314E+02 -0.16204012811E+01  0.14683835890E+03  0.12500000000E+03 0.  0.
         25    1    1    2    0    0 -0.12502292364E+03  0.10952360380E+03 -0.24803790971E+03  0.32368805334E+03  0.12500000000E+03 0.  0.
</event>
<event>
 5    0  0.5648525E-005  0.2408138E+03  0.7546771E-02  0.1119252E+00
         21   -1    0    0  502  501  0.00000000000E+00  0.00000000000E+00  0.74456566149E+02  0.74456566149E+02  0.00000000000E+00 0.  1.
         21   -1    0    0  501  502 -0.00000000000E+00 -0.00000000000E+00 -0.77886044998E+03  0.77886044998E+03  0.00000000000E+00 0.  1.
         25    1    1    2    0    0  0.12608827963E+03  0.10341310847E+02 -0.31023407719E+03  0.35759667171E+03  0.12500000000E+03 0.  0.
         25    1    1    2    0    0 -0.12053056571E+03 -0.17938645296E+02 -0.24584521004E+03  0.30151994887E+03  0.12500000000E+03 0.  0.
         25    1    1    2    0    0 -0.55577139234E+01  0.75973344490E+01 -0.14832459660E+03  0.19420039555E+03  0.12500000000E+03 0.  0.
</event>
<event>
 5    0  0.7219973E-005  0.6169996E+03  0.7546771E-02  0.9870752E-01
         21   -1    0    0  502  501  0.00000000000E+00  0.00000000000E+00  0.15101647664E+04  0.15101647664E+04  0.00000000000E+00 0.  1.
         21   -1    0    0  501  502 -0.00000000000E+00 -0.00000000000E+00 -0.25208406075E+03  0.25208406075E+03  0.00000000000E+00 0.  1.
         25    1    1    2    0    0 -0.38815500902E+03 -0.65261651838E+02  0.39533599467E+03  0.57169829710E+03  0.12500000000E+03 0.  0.
         25    1    1    2    0    0  0.17838154498E+03  0.14852227457E+03 -0.26189864506E+02  0.26493348342E+03  0.12500000000E+03 0.  0.
         25    1    1    2    0    0  0.20977346404E+03 -0.83260622732E+02  0.88893457547E+03  0.92561704661E+03  0.12500000000E+03 0.  0.
</event>
<event>
 5    0  0.7719619E-005  0.6170990E+03  0.7546771E-02  0.9870553E-01
         21   -1    0    0  502  501  0.00000000000E+00  0.00000000000E+00  0.93653274911E+03  0.93653274911E+03  0.00000000000E+00 0. -1.
         21   -1    0    0  501  502 -0.00000000000E+00 -0.00000000000E+00 -0.40661815307E+03  0.40661815307E+03  0.00000000000E+00 0. -1.
         25    1    1    2    0    0 -0.17848720031E+03 -0.23439291421E+03  0.36901865625E+03  0.48846441791E+03  0.12500000000E+03 0.  0.
         25    1    1    2    0    0 -0.26011987050E+03  0.24537137277E+03  0.11655765327E+03  0.39633337500E+03  0.12500000000E+03 0.  0.
         25    1    1    2    0    0  0.43860707081E+03 -0.10978458562E+02  0.44338286518E+02  0.45835310926E+03  0.12500000000E+03 0.  0.
</event>
<event>
 5    0  0.5648525E-005  0.7563538E+03  0.7546771E-02  0.9625435E-01
         21   -1    0    0  502  501  0.00000000000E+00  0.00000000000E+00  0.54937375629E+03  0.54937375629E+03  0.00000000000E+00 0.  1.
         21   -1    0    0  501  502 -0.00000000000E+00 -0.00000000000E+00 -0.10413149161E+04  0.10413149161E+04  0.00000000000E+00 0.  1.
         25    1    1    2    0    0  0.46489140266E+01 -0.63821666986E+03 -0.31119646407E+03  0.72097875790E+03  0.12500000000E+03 0.  0.
         25    1    1    2    0    0  0.10275574286E+03 -0.34866266912E+01 -0.12564081971E+03  0.20489391116E+03  0.12500000000E+03 0.  0.
         25    1    1    2    0    0 -0.10740465688E+03  0.64170329655E+03 -0.55103876033E+02  0.66481600333E+03  0.12500000000E+03 0.  0.
</event>
<event>
 5    0  0.5648525E-005  0.2382513E+03  0.7546771E-02  0.1120963E+00
         21   -1    0    0  502  501  0.00000000000E+00  0.00000000000E+00  0.37836097561E+03  0.37836097561E+03  0.00000000000E+00 0.  1.
         21   -1    0    0  501  502 -0.00000000000E+00 -0.00000000000E+00 -0.15002516572E+03  0.15002516572E+03  0.00000000000E+00 0.  1.
         25    1    1    2    0    0 -0.48215207812E+02 -0.16846388781E+02  0.12977932702E+03  0.18728636043E+03  0.12500000000E+03 0.  0.
         25    1    1    2    0    0 -0.25732032036E+02 -0.16662323394E+02  0.13617814436E+03  0.18737464475E+03  0.12500000000E+03 0.  0.
         25    1    1    2    0    0  0.73947239848E+02  0.33508712175E+02 -0.37621661482E+02  0.15372513615E+03  0.12500000000E+03 0.  0.
</event>
<event>
 5    0  0.5648525E-005  0.3323003E+03  0.7546771E-02  0.1070124E+00
         21   -1    0    0  502  501  0.00000000000E+00  0.00000000000E+00  0.97994322633E+02  0.97994322633E+02  0.00000000000E+00 0. -1.
         21   -1    0    0  501  502 -0.00000000000E+00 -0.00000000000E+00 -0.11268353556E+04  0.11268353556E+04  0.00000000000E+00 0. -1.
         25    1    1    2    0    0  0.58557681763E+02 -0.20361231278E+03 -0.56148448597E+03  0.61300636538E+03  0.12500000000E+03 0.  0.
         25    1    1    2    0    0  0.56488605473E+02  0.45054768623E+02 -0.94760776402E+02  0.17270060645E+03  0.12500000000E+03 0.  0.
         25    1    1    2    0    0 -0.11504628724E+03  0.15855754416E+03 -0.37259577060E+03  0.43912270641E+03  0.12500000000E+03 0.  0.
</event>
<event>
 5    0  0.5648525E-005  0.4515740E+03  0.7546771E-02  0.1027254E+00
         21   -1    0    0  502  501  0.00000000000E+00  0.00000000000E+00  0.37982140224E+03  0.37982140224E+03  0.00000000000E+00 0.  1.
         21   -1    0    0  501  502 -0.00000000000E+00 -0.00000000000E+00 -0.53688157290E+03  0.53688157290E+03  0.00000000000E+00 0.  1.
         25    1    1    2    0    0 -0.28277366033E+03 -0.51493039324E+02 -0.25165115939E+03  0.40195246249E+03  0.12500000000E+03 0.  0.
         25    1    1    2    0    0  0.13822633119E+03  0.16108423810E+03  0.14893070047E+03  0.28785413657E+03  0.12500000000E+03 0.  0.
         25    1    1    2    0    0  0.14454732914E+03 -0.10959119877E+03 -0.54339711732E+02  0.22689637609E+03  0.12500000000E+03 0.  0.
</event>
<event>
 5    0  0.5648525E-005  0.3282172E+03  0.7546771E-02  0.1071928E+00
         21   -1    0    0  502  501  0.00000000000E+00  0.00000000000E+00  0.20088573067E+03  0.20088573067E+03  0.00000000000E+00 0.  1.
         21   -1    0    0  501  502 -0.00000000000E+00 -0.00000000000E+00 -0.53625782740E+03  0.53625782740E+03  0.00000000000E+00 0.  1.
         25    1    1    2    0    0 -0.14886070776E+03 -0.17142912439E+03 -0.37634788332E+02  0.26189469696E+03  0.12500000000E+03 0.  0.
         25    1    1    2    0    0  0.57615766338E+02  0.12568326810E+03 -0.23994590150E+03  0.30383366512E+03  0.12500000000E+03 0.  0.
         25    1    1    2    0    0  0.91244941417E+02  0.45745856291E+02 -0.57791406899E+02  0.17141519598E+03  0.12500000000E+03 0.  0.
</event>
<event>
 5    0  0.5648525E-005  0.2995902E+03  0.7546771E-02  0.1085446E+00
         21   -1    0    0  502  501  0.00000000000E+00  0.00000000000E+00  0.14511904734E+03  0.14511904734E+03  0.00000000000E+00 0.  1.
         21   -1    0    0  501  502 -0.00000000000E+00 -0.00000000000E+00 -0.61848731358E+03  0.61848731358E+03  0.00000000000E+00 0.  1.
         25    1    1    2    0    0  0.14807530710E+03  0.91686119739E+02 -0.16646484174E+03  0.27141883623E+03  0.12500000000E+03 0.  0.
         25    1    1    2    0    0  0.30371488698E+02 -0.42634636178E+02 -0.34310450871E+02  0.13979394324E+03  0.12500000000E+03 0.  0.
         25    1    1    2    0    0 -0.17844679580E+03 -0.49051483562E+02 -0.27259297363E+03  0.35239358145E+03  0.12500000000E+03 0.  0.
</event>
<event>
 5    0  0.5648525E-005  0.2363534E+03  0.7546771E-02  0.1122246E+00
         21   -1    0    0  502  501  0.00000000000E+00  0.00000000000E+00  0.77696351129E+02  0.77696351129E+02  0.00000000000E+00 0. -1.
         21   -1    0    0  501  502 -0.00000000000E+00 -0.00000000000E+00 -0.71899036772E+03  0.71899036772E+03  0.00000000000E+00 0. -1.
         25    1    1    2    0    0  0.67993166050E+02 -0.19576607140E+01 -0.67398213609E+02  0.15746244715E+03  0.12500000000E+03 0.  0.
         25    1    1    2    0    0 -0.32355559406E+02 -0.47346716569E+02 -0.34525437925E+03  0.37163716201E+03  0.12500000000E+03 0.  0.
         25    1    1    2    0    0 -0.35637606644E+02  0.49304377283E+02 -0.22864142373E+03  0.26758710969E+03  0.12500000000E+03 0.  0.
</event>
<event>
 5    0  0.5648525E-005  0.2606249E+03  0.7546771E-02  0.1106768E+00
         21   -1    0    0  502  501  0.00000000000E+00  0.00000000000E+00  0.16988631182E+03  0.16988631182E+03  0.00000000000E+00 0.  1.
         21   -1    0    0  501  502 -0.00000000000E+00 -0.00000000000E+00 -0.39982819037E+03  0.39982819037E+03  0.00000000000E+00 0.  1.
         25    1    1    2    0    0  0.87717238514E+02 -0.44925875968E+02  0.41207379914E+02  0.16442535213E+03  0.12500000000E+03 0.  0.
         25    1    1    2    0    0 -0.10643576737E+03  0.14208667451E+02 -0.19202959699E+03  0.25304312860E+03  0.12500000000E+03 0.  0.
         25    1    1    2    0    0  0.18718528861E+02  0.30717208517E+02 -0.79119661468E+02  0.15224602147E+03  0.12500000000E+03 0.  0.
</event>
<event>
 5    0  0.5648525E-005  0.3493029E+03  0.7546771E-02  0.1062902E+00
         21   -1    0    0  502  501  0.00000000000E+00  0.00000000000E+00  0.41676882351E+03  0.41676882351E+03  0.00000000000E+00 0. -1.
         21   -1    0    0  501  502 -0.00000000000E+00 -0.00000000000E+00 -0.29275819009E+03  0.29275819009E+03  0.00000000000E+00 0. -1.
         25    1    1    2    0    0  0.18015008239E+03 -0.11799947231E+03 -0.10667252655E+03  0.27089104003E+03  0.12500000000E+03 0.  0.
         25    1    1    2    0    0 -0.62350844704E+02  0.13992205446E+03  0.14667253329E+03  0.24617806803E+03  0.12500000000E+03 0.  0.
         25    1    1    2    0    0 -0.11779923769E+03 -0.21922582149E+02  0.84010626678E+02  0.19245790553E+03  0.12500000000E+03 0.  0.
</event>
<event>
 5    0  0.5648525E-005  0.2967157E+03  0.7546771E-02  0.1086894E+00
         21   -1    0    0  502  501  0.00000000000E+00  0.00000000000E+00  0.37132804165E+02  0.37132804165E+02  0.00000000000E+00 0.  1.
         21   -1    0    0  501  502 -0.00000000000E+00 -0.00000000000E+00 -0.23709544026E+04  0.23709544026E+04  0.00000000000E+00 0.  1.
         25    1    1    2    0    0 -0.47585476159E+02  0.67608794918E+02 -0.25627914733E+03  0.29688268398E+03  0.12500000000E+03 0.  0.
         25    1    1    2    0    0  0.11802110820E+03 -0.11875990253E+03 -0.14740535720E+04  0.14887887122E+04  0.12500000000E+03 0.  0.
         25    1    1    2    0    0 -0.70435632037E+02  0.51151107613E+02 -0.60348887916E+03  0.62241581064E+03  0.12500000000E+03 0.  0.
</event>
<event>
 5    0  0.5648525E-005  0.2809503E+03  0.7546771E-02  0.1095171E+00
         21   -1    0    0  502  501  0.00000000000E+00  0.00000000000E+00  0.18574600798E+04  0.18574600798E+04  0.00000000000E+00 0. -1.
         21   -1    0    0  501  502 -0.00000000000E+00 -0.00000000000E+00 -0.42495169750E+02  0.42495169750E+02  0.00000000000E+00 0. -1.
         25    1    1    2    0    0  0.15987352297E+03  0.64983742683E+02  0.50413039224E+03  0.54731607188E+03  0.12500000000E+03 0.  0.
         25    1    1    2    0    0 -0.63475742310E+02 -0.22001309299E+01  0.85006676517E+03  0.86155238708E+03  0.12500000000E+03 0.  0.
         25    1    1    2    0    0 -0.96397780655E+02 -0.62783611753E+02  0.46076775268E+03  0.49108679062E+03  0.12500000000E+03 0.  0.
</event>
<event>
 5    0  0.5648525E-005  0.3535587E+03  0.7546771E-02  0.1061164E+00
         21   -1    0    0  502  501  0.00000000000E+00  0.00000000000E+00  0.20190437509E+03  0.20190437509E+03  0.00000000000E+00 0.  1.
         21   -1    0    0  501  502 -0.00000000000E+00 -0.00000000000E+00 -0.61912365933E+03  0.61912365933E+03  0.00000000000E+00 0.  1.
         25    1    1    2    0    0 -0.77346653461E+02  0.20375790320E+03 -0.54365884731E+01  0.25130528130E+03  0.12500000000E+03 0.  0.
         25    1    1    2    0    0 -0.22207115992E+02 -0.61413523127E+02 -0.50472485055E+02  0.14979068252E+03  0.12500000000E+03 0.  0.
         25    1    1    2    0    0  0.99553769453E+02 -0.14234438007E+03 -0.36131021071E+03  0.41993207059E+03  0.12500000000E+03 0.  0.
</event>
<event>
 5    0  0.5648525E-005  0.3048319E+03  0.7546771E-02  0.1082850E+00
         21   -1    0    0  502  501  0.00000000000E+00  0.00000000000E+00  0.29629447227E+03  0.29629447227E+03  0.00000000000E+00 0. -1.
         21   -1    0    0  501  502 -0.00000000000E+00 -0.00000000000E+00 -0.31361542768E+03  0.31361542768E+03  0.00000000000E+00 0. -1.
         25    1    1    2    0    0 -0.48323649322E+02 -0.70978232507E+02 -0.63449381497E+02  0.16438950266E+03  0.12500000000E+03 0.  0.
         25    1    1    2    0    0 -0.85141141283E+02 -0.10245851886E+03 -0.23159050412E+02  0.18414153155E+03  0.12500000000E+03 0.  0.
         25    1    1    2    0    0  0.13346479061E+03  0.17343675136E+03  0.69287476502E+02  0.26137886574E+03  0.12500000000E+03 0.  0.
</event>
<event>
 5    0  0.5648525E-005  0.3805439E+03  0.7546771E-02  0.1050733E+00
         21   -1    0    0  502  501  0.00000000000E+00  0.00000000000E+00  0.13393407251E+04  0.13393407251E+04  0.00000000000E+00 0. -1.
         21   -1    0    0  501  502 -0.00000000000E+00 -0.00000000000E+00 -0.10812308471E+03  0.10812308471E+03  0.00000000000E+00 0. -1.
         25    1    1    2    0    0 -0.78620222171E+02 -0.10416448908E+03  0.31692276936E+03  0.36482382305E+03  0.12500000000E+03 0.  0.
         25    1    1    2    0    0 -0.20644379402E+03 -0.25342459995E+02  0.37993863105E+03  0.45082107730E+03  0.12500000000E+03 0.  0.
         25    1    1    2    0    0  0.28506401619E+03  0.12950694908E+03  0.53435624000E+03  0.63181890951E+03  0.12500000000E+03 0.  0.
</event>
<event>
 5    0  0.5648525E-005  0.4016843E+03  0.7546771E-02  0.1043198E+00
         21   -1    0    0  502  501  0.00000000000E+00  0.00000000000E+00  0.70032155493E+03  0.70032155493E+03  0.00000000000E+00 0. -1.
         21   -1    0    0  501  502 -0.00000000000E+00 -0.00000000000E+00 -0.23039461223E+03  0.23039461223E+03  0.00000000000E+00 0. -1.
         25    1    1    2    0    0  0.11998607176E+03  0.23509332651E+02 -0.40414610694E+02  0.17946500187E+03  0.12500000000E+03 0.  0.
         25    1    1    2    0    0 -0.24271195547E+02  0.20512895775E+03  0.11307522639E+03  0.26660455184E+03  0.12500000000E+03 0.  0.
         25    1    1    2    0    0 -0.95714876210E+02 -0.22863829040E+03  0.39726632700E+03  0.48464661345E+03  0.12500000000E+03 0.  0.
</event>
<event>
 5    0  0.5648525E-005  0.2031311E+03  0.7546771E-02  0.1147124E+00
         21   -1    0    0  502  501  0.00000000000E+00  0.00000000000E+00  0.39429421250E+02  0.39429421250E+02  0.00000000000E+00 0.  1.
         21   -1    0    0  501  502 -0.00000000000E+00 -0.00000000000E+00 -0.10464833385E+04  0.10464833385E+04  0.00000000000E+00 0.  1.
         25    1    1    2    0    0  0.45597246637E+02  0.20706583961E+02 -0.38188358113E+03  0.40492955073E+03  0.12500000000E+03 0.  0.
         25    1    1    2    0    0 -0.39075997952E+02  0.10614544605E+02 -0.40510108081E+03  0.42587731548E+03  0.12500000000E+03 0.  0.
         25    1    1    2    0    0 -0.65212486844E+01 -0.31321128567E+02 -0.22006925529E+03  0.25510589351E+03  0.12500000000E+03 0.  0.
</event>
<event>
 5    0  0.5648525E-005  0.2168402E+03  0.7546771E-02  0.1136261E+00
         21   -1    0    0  502  501  0.00000000000E+00  0.00000000000E+00  0.36803428073E+02  0.36803428073E+02  0.00000000000E+00 0.  1.
         21   -1    0    0  501  502 -0.00000000000E+00 -0.00000000000E+00 -0.12775891379E+04  0.12775891379E+04  0.00000000000E+00 0.  1.
         25    1    1    2    0    0 -0.23710259453E+02 -0.38201837595E+02 -0.30075186674E+03  0.32878297120E+03  0.12500000000E+03 0.  0.
         25    1    1    2    0    0  0.73453302812E+02  0.37999713730E+02 -0.35569339793E+03  0.38598207118E+03  0.12500000000E+03 0.  0.
         25    1    1    2    0    0 -0.49743043359E+02  0.20212386517E+00 -0.58434044511E+03  0.59962752356E+03  0.12500000000E+03 0.  0.
</event>
<event>
 5    0  0.5648525E-005  0.3118566E+03  0.7546771E-02  0.1079459E+00
         21   -1    0    0  502  501  0.00000000000E+00  0.00000000000E+00  0.26082512156E+03  0.26082512156E+03  0.00000000000E+00 0. -1.
         21   -1    0    0  501  502 -0.00000000000E+00 -0.00000000000E+00 -0.37287257214E+03  0.37287257214E+03  0.00000000000E+00 0. -1.
         25    1    1    2    0    0 -0.12753076690E+03  0.27109327120E+02  0.12066711696E+03  0.21722008479E+03  0.12500000000E+03 0.  0.
         25    1    1    2    0    0 -0.10786605555E+02  0.60603322336E+02 -0.96382908328E+02  0.16942189515E+03  0.12500000000E+03 0.  0.
         25    1    1    2    0    0  0.13831737245E+03 -0.87712649456E+02 -0.13633165921E+03  0.24705571376E+03  0.12500000000E+03 0.  0.
</event>
<event>
 5    0  0.5648525E-005  0.4209110E+03  0.7546771E-02  0.1036770E+00
         21   -1    0    0  502  501  0.00000000000E+00  0.00000000000E+00  0.23887014174E+04  0.23887014174E+04  0.00000000000E+00 0.  1.
         21   -1    0    0  501  502 -0.00000000000E+00 -0.00000000000E+00 -0.74168359633E+02  0.74168359633E+02  0.00000000000E+00 0.  1.
         25    1    1    2    0    0  0.60697169943E+02  0.12818702517E+03  0.83347037751E+03  0.85464257444E+03  0.12500000000E+03 0.  0.
         25    1    1    2    0    0 -0.73894341807E+02  0.75040526809E+02  0.71248597974E+02  0.17830540409E+03  0.12500000000E+03 0.  0.
         25    1    1    2    0    0  0.13197171863E+02 -0.20322755198E+03  0.14098140823E+04  0.14299217985E+04  0.12500000000E+03 0.  0.
</event>
<event>
 5    0  0.6171239E-005  0.3781075E+03  0.7546771E-02  0.1051635E+00
         21   -1    0    0  502  501  0.00000000000E+00  0.00000000000E+00  0.29081932463E+03  0.29081932463E+03  0.00000000000E+00 0.  1.
         21   -1    0    0  501  502 -0.00000000000E+00 -0.00000000000E+00 -0.49159481100E+03  0.49159481100E+03  0.00000000000E+00 0.  1.
         25    1    1    2    0    0 -0.51501957040E+00 -0.14922537133E+03  0.11321400054E+03  0.22519077826E+03  0.12500000000E+03 0.  0.
         25    1    1    2    0    0 -0.27499057500E+02 -0.18008303390E+01 -0.33447336023E+03  0.35812968301E+03  0.12500000000E+03 0.  0.
         25    1    1    2    0    0  0.28014077071E+02  0.15102620166E+03  0.20483873311E+02  0.19909367436E+03  0.12500000000E+03 0.  0.
</event>
<event>
 5    0  0.6698405E-005  0.2996195E+03  0.7546771E-02  0.1085431E+00
         21   -1    0    0  502  501  0.00000000000E+00  0.00000000000E+00  0.24857875632E+03  0.24857875632E+03  0.00000000000E+00 0.  1.
         21   -1    0    0  501  502 -0.00000000000E+00 -0.00000000000E+00 -0.36114056876E+03  0.36114056876E+03  0.00000000000E+00 0.  1.
         25    1    1    2    0    0 -0.91448191428E+01 -0.16811907432E+03  0.23029675211E+01  0.20970921422E+03  0.12500000000E+03 0.  0.
         25    1    1    2    0    0 -0.10534553624E+03  0.79727579224E+02 -0.10434635132E+02  0.18217587795E+03  0.12500000000E+03 0.  0.
         25    1    1    2    0    0  0.11449035538E+03  0.88391495100E+02 -0.10443014482E+03  0.21783423291E+03  0.12500000000E+03 0.  0.
</event>
<event>
 5    0  0.5648525E-005  0.2425756E+03  0.7546771E-02  0.1118089E+00
         21   -1    0    0  502  501  0.00000000000E+00  0.00000000000E+00  0.68274815889E+02  0.68274815889E+02  0.00000000000E+00 0.  1.
         21   -1    0    0  501  502 -0.00000000000E+00 -0.00000000000E+00 -0.86185365152E+03  0.86185365152E+03  0.00000000000E+00 0.  1.
         25    1    1    2    0    0  0.22503495314E+02  0.67931922984E+01 -0.34021277086E+03  0.36321107392E+03  0.12500000000E+03 0.  0.
         25    1    1    2    0    0 -0.94378867019E+02  0.38336725365E+02 -0.34549506546E+03  0.38127275710E+03  0.12500000000E+03 0.  0.
         25    1    1    2    0    0  0.71875371704E+02 -0.45129917664E+02 -0.10787099931E+03  0.18564463639E+03  0.12500000000E+03 0.  0.
</event>
<event>
 5    0  0.5648525E-005  0.2615181E+03  0.7546771E-02  0.1106235E+00
         21   -1    0    0  502  501  0.00000000000E+00  0.00000000000E+00  0.14885458204E+03  0.14885458204E+03  0.00000000000E+00 0. -1.
         21   -1    0    0  501  502 -0.00000000000E+00 -0.00000000000E+00 -0.45945323647E+03  0.45945323647E+03  0.00000000000E+00 0. -1.
         25    1    1    2    0    0 -0.13053658776E+03  0.20663306953E+02 -0.15601164408E+03  0.23964850529E+03  0.12500000000E+03 0.  0.
         25    1    1    2    0    0 -0.93265113288E+01  0.45599135099E+01 -0.12501825578E+03  0.17709415830E+03  0.12500000000E+03 0.  0.
         25    1    1    2    0    0  0.13986309909E+03 -0.25223220463E+02 -0.29568754569E+02  0.19156515493E+03  0.12500000000E+03 0.  0.
</event>
<event>
 5    0  0.7498123E-005  0.3008485E+03  0.7546771E-02  0.1084817E+00
         21   -1    0    0  502  501  0.00000000000E+00  0.00000000000E+00  0.75121959292E+03  0.75121959292E+03  0.00000000000E+00 0.  1.
         21   -1    0    0  501  502 -0.00000000000E+00 -0.00000000000E+00 -0.12048384178E+03  0.12048384178E+03  0.00000000000E+00 0.  1.
         25    1    1    2    0    0 -0.33142385848E+02  0.15565806596E+03  0.39463597076E+03  0.44349791505E+03  0.12500000000E+03 0.  0.
         25    1    1    2    0    0 -0.73862659506E+02 -0.84682485889E+02  0.64317516615E+02  0.17996821616E+03  0.12500000000E+03 0.  0.
         25    1    1    2    0    0  0.10700504535E+03 -0.70975580070E+02  0.17178226377E+03  0.24823730349E+03  0.12500000000E+03 0.  0.
</event>
<event>
 5    0  0.5648525E-005  0.3468013E+03  0.7546771E-02  0.1063936E+00
         21   -1    0    0  502  501  0.00000000000E+00  0.00000000000E+00  0.41432120362E+03  0.41432120362E+03  0.00000000000E+00 0.  1.
         21   -1    0    0  501  502 -0.00000000000E+00 -0.00000000000E+00 -0.29028482019E+03  0.29028482019E+03  0.00000000000E+00 0.  1.
         25    1    1    2    0    0 -0.12336808643E+03  0.38928987327E+02 -0.12608751278E+03  0.21967751747E+03  0.12500000000E+03 0.  0.
         25    1    1    2    0    0  0.14421272938E+03  0.10928466609E+03  0.12047180412E+03  0.25075666520E+03  0.12500000000E+03 0.  0.
         25    1    1    2    0    0 -0.20844642946E+02 -0.14821365341E+03  0.12965209209E+03  0.23417184114E+03  0.12500000000E+03 0.  0.
</event>
<event>
 5    0  0.5648525E-005  0.3994442E+03  0.7546771E-02  0.1043972E+00
         21   -1    0    0  502  501  0.00000000000E+00  0.00000000000E+00  0.65692539032E+03  0.65692539032E+03  0.00000000000E+00 0. -1.
         21   -1    0    0  501  502 -0.00000000000E+00 -0.00000000000E+00 -0.24288242847E+03  0.24288242847E+03  0.00000000000E+00 0. -1.
         25    1    1    2    0    0  0.14368396565E+03  0.46411425154E+02  0.40969446436E+03  0.45417359731E+03  0.12500000000E+03 0.  0.
         25    1    1    2    0    0 -0.74679238669E+02 -0.16086611315E+03 -0.95621161428E+02  0.23711453258E+03  0.12500000000E+03 0.  0.
         25    1    1    2    0    0 -0.69004726976E+02  0.11445468800E+03  0.99969658920E+02  0.20851968889E+03  0.12500000000E+03 0.  0.
</event>
<event>
 5    0  0.5648525E-005  0.2435956E+03  0.7546771E-02  0.1117420E+00
         21   -1    0    0  502  501  0.00000000000E+00  0.00000000000E+00  0.46677737211E+03  0.46677737211E+03  0.00000000000E+00 0. -1.
         21   -1    0    0  501  502 -0.00000000000E+00 -0.00000000000E+00 -0.12712448502E+03  0.12712448502E+03  0.00000000000E+00 0. -1.
         25    1    1    2    0    0  0.10272605456E+03  0.44901409070E+02  0.10464586770E+03  0.19784978253E+03  0.12500000000E+03 0.  0.
         25    1    1    2    0    0 -0.30078456476E+02 -0.70061120416E+02  0.19517701259E+03  0.24399250067E+03  0.12500000000E+03 0.  0.
         25    1    1    2    0    0 -0.72647598086E+02  0.25159711346E+02  0.39830006796E+02  0.15205957393E+03  0.12500000000E+03 0.  0.
</event>
<event>
 5    0  0.5648525E-005  0.4554807E+03  0.7546771E-02  0.1026100E+00
         21   -1    0    0  502  501  0.00000000000E+00  0.00000000000E+00  0.12464151934E+03  0.12464151934E+03  0.00000000000E+00 0.  1.
         21   -1    0    0  501  502 -0.00000000000E+00 -0.00000000000E+00 -0.16644747481E+04  0.16644747481E+04  0.00000000000E+00 0.  1.
         25    1    1    2    0    0 -0.29386739581E+03 -0.52634001057E+02 -0.32867511106E+03  0.46128159840E+03  0.12500000000E+03 0.  0.
         25    1    1    2    0    0  0.33491632737E+03  0.14190979318E+03 -0.82649267899E+03  0.91160434629E+03  0.12500000000E+03 0.  0.
         25    1    1    2    0    0 -0.41048931563E+02 -0.89275792120E+02 -0.38466543868E+03  0.41623032273E+03  0.12500000000E+03 0.  0.
</event>
<event>
 5    0  0.5648525E-005  0.2839916E+03  0.7546771E-02  0.1093529E+00
         21   -1    0    0  502  501  0.00000000000E+00  0.00000000000E+00  0.58825459665E+03  0.58825459665E+03  0.00000000000E+00 0. -1.
         21   -1    0    0  501  502 -0.00000000000E+00 -0.00000000000E+00 -0.13710258564E+03  0.13710258564E+03  0.00000000000E+00 0. -1.
         25    1    1    2    0    0  0.11815462730E+03  0.19494898050E+02  0.25875609720E+03  0.31132022877E+03  0.12500000000E+03 0.  0.
         25    1    1    2    0    0 -0.73685543066E+02  0.10738715892E+03  0.71155878740E+02  0.19403535822E+03  0.12500000000E+03 0.  0.
         25    1    1    2    0    0 -0.44469084237E+02 -0.12688205697E+03  0.12124003508E+03  0.22000159531E+03  0.12500000000E+03 0.  0.
</event>
<event>
 5    0  0.5648525E-005  0.4590826E+03  0.7546771E-02  0.1025048E+00
         21   -1    0    0  502  501  0.00000000000E+00  0.00000000000E+00  0.13088817183E+03  0.13088817183E+03  0.00000000000E+00 0. -1.
         21   -1    0    0  501  502 -0.00000000000E+00 -0.00000000000E+00 -0.16102050449E+04  0.16102050449E+04  0.00000000000E+00 0. -1.
         25    1    1    2    0    0  0.19570871451E+03  0.20719197956E+03 -0.97943734428E+03  0.10276930129E+04  0.12500000000E+03 0.  0.
         25    1    1    2    0    0 -0.79841519295E+02 -0.36838223860E+02  0.61167439918E+01  0.15295142202E+03  0.12500000000E+03 0.  0.
         25    1    1    2    0    0 -0.11586719522E+03 -0.17035375570E+03 -0.50599627279E+03  0.56044878185E+03  0.12500000000E+03 0.  0.
</event>
<event>
 5    0  0.6008601E-005  0.2792521E+03  0.7546771E-02  0.1096098E+00
         21   -1    0    0  502  501  0.00000000000E+00  0.00000000000E+00  0.61739801022E+03  0.61739801022E+03  0.00000000000E+00 0. -1.
         21   -1    0    0  501  502 -0.00000000000E+00 -0.00000000000E+00 -0.12630706217E+03  0.12630706217E+03  0.00000000000E+00 0. -1.
         25    1    1    2    0    0 -0.62105094993E+02  0.75811118812E+02  0.25364157322E+02  0.16084995815E+03  0.12500000000E+03 0.  0.
         25    1    1    2    0    0  0.98820097531E+02 -0.10576547389E+03  0.16063109792E+03  0.24975807647E+03  0.12500000000E+03 0.  0.
         25    1    1    2    0    0 -0.36715002538E+02  0.29954355074E+02  0.30509569282E+03  0.33309703777E+03  0.12500000000E+03 0.  0.
</event>
<event>
 5    0  0.5648525E-005  0.3045860E+03  0.7546771E-02  0.1082970E+00
         21   -1    0    0  502  501  0.00000000000E+00  0.00000000000E+00  0.15800069220E+03  0.15800069220E+03  0.00000000000E+00 0.  1.
         21   -1    0    0  501  502 -0.00000000000E+00 -0.00000000000E+00 -0.58716585085E+03  0.58716585085E+03  0.00000000000E+00 0.  1.
         25    1    1    2    0    0  0.13417319183E+03  0.60622075169E+02 -0.36042805396E+02  0.19647281040E+03  0.12500000000E+03 0.  0.
         25    1    1    2    0    0  0.60517206198E+02 -0.60188482524E+02 -0.15998439492E+03  0.22023848958E+03  0.12500000000E+03 0.  0.
         25    1    1    2    0    0 -0.19469039803E+03 -0.43359264463E+00 -0.23313795834E+03  0.32845524308E+03  0.12500000000E+03 0.  0.
</event>
<event>
 5    0  0.5648525E-005  0.2425795E+03  0.7546771E-02  0.1118086E+00
         21   -1    0    0  502  501  0.00000000000E+00  0.00000000000E+00  0.23440669275E+03  0.23440669275E+03  0.00000000000E+00 0. -1.
         21   -1    0    0  501  502 -0.00000000000E+00 -0.00000000000E+00 -0.25103727869E+03  0.25103727869E+03  0.00000000000E+00 0. -1.
         25    1    1    2    0    0 -0.48851814269E+01  0.80572360869E+02 -0.67094911268E+02  0.16322529660E+03  0.12500000000E+03 0.  0.
         25    1    1    2    0    0  0.11737598600E+02 -0.90786574263E+02  0.10302378382E+03  0.18606147726E+03  0.12500000000E+03 0.  0.
         25    1    1    2    0    0 -0.68524171731E+01  0.10214213393E+02 -0.52559458485E+02  0.13615719758E+03  0.12500000000E+03 0.  0.
</event>
<event>
 5    0  0.5648525E-005  0.3045031E+03  0.7546771E-02  0.1083011E+00
         21   -1    0    0  502  501  0.00000000000E+00  0.00000000000E+00  0.61924476413E+03  0.61924476413E+03  0.00000000000E+00 0.  1.
         21   -1    0    0  501  502 -0.00000000000E+00 -0.00000000000E+00 -0.14973425205E+03  0.14973425205E+03  0.00000000000E+00 0.  1.
         25    1    1    2    0    0 -0.96445483766E+02 -0.11657146179E+03  0.62743556834E+02  0.20603978006E+03  0.12500000000E+03 0.  0.
         25    1    1    2    0    0 -0.70825023674E+01  0.16948890853E+03  0.27937842966E+03  0.34993422084E+03  0.12500000000E+03 0.  0.
         25    1    1    2    0    0  0.10352798613E+03 -0.52917446738E+02  0.12738852559E+03  0.21300501528E+03  0.12500000000E+03 0.  0.
</event>
<event>
 5    0  0.5648525E-005  0.2375244E+03  0.7546771E-02  0.1121453E+00
         21   -1    0    0  502  501  0.00000000000E+00  0.00000000000E+00  0.53360809798E+02  0.53360809798E+02  0.00000000000E+00 0.  1.
         21   -1    0    0  501  502 -0.00000000000E+00 -0.00000000000E+00 -0.10572902440E+04  0.10572902440E+04  0.00000000000E+00 0.  1.
         25    1    1    2    0    0  0.57082931132E+02  0.42167501583E+02 -0.24631325062E+03  0.28518726592E+03  0.12500000000E+03 0.  0.
         25    1    1    2    0    0  0.17428979383E+02 -0.75390358986E+01 -0.57823470031E+03  0.59189608465E+03  0.12500000000E+03 0.  0.
         25    1    1    2    0    0 -0.74511910515E+02 -0.34628465685E+02 -0.17938148326E+03  0.23356770321E+03  0.12500000000E+03 0.  0.
</event>
<event>
 5    0  0.5648525E-005  0.3793264E+03  0.7546771E-02  0.1051183E+00
         21   -1    0    0  502  501  0.00000000000E+00  0.00000000000E+00  0.19326350584E+03  0.19326350584E+03  0.00000000000E+00 0.  1.
         21   -1    0    0  501  502 -0.00000000000E+00 -0.00000000000E+00 -0.74451980608E+03  0.74451980608E+03  0.00000000000E+00 0.  1.
         25    1    1    2    0    0 -0.43267710415E+02  0.35331394096E+02  0.19556530182E+02  0.13830350699E+03  0.12500000000E+03 0.  0.
         25    1    1    2    0    0 -0.16280912567E+03  0.13675388874E+03 -0.16362498225E+03  0.29598407441E+03  0.12500000000E+03 0.  0.
         25    1    1    2    0    0  0.20607683609E+03 -0.17208528284E+03 -0.40718784817E+03  0.50349573051E+03  0.12500000000E+03 0.  0.
</event>
<event>
 5    0  0.5648525E-005  0.3874134E+03  0.7546771E-02  0.1048227E+00
         21   -1    0    0  502  501  0.00000000000E+00  0.00000000000E+00  0.11728717599E+03  0.11728717599E+03  0.00000000000E+00 0. -1.
         21   -1    0    0  501  502 -0.00000000000E+00 -0.00000000000E+00 -0.12796719261E+04  0.12796719261E+04  0.00000000000E+00 0. -1.
         25    1    1    2    0    0  0.11216882964E+03  0.11282337082E+03 -0.22454178526E+03  0.30224985141E+03  0.12500000000E+03 0.  0.
         25    1    1    2    0    0 -0.19654633237E+03  0.12141726263E+03 -0.30039789471E+03  0.39904449323E+03  0.12500000000E+03 0.  0.
         25    1    1    2    0    0  0.84377502727E+02 -0.23424063346E+03 -0.63744507017E+03  0.69566475749E+03  0.12500000000E+03 0.  0.
</event>
<event>
 5    0  0.5648525E-005  0.3409498E+03  0.7546771E-02  0.1066392E+00
         21   -1    0    0  502  501  0.00000000000E+00  0.00000000000E+00  0.14251525482E+03  0.14251525482E+03  0.00000000000E+00 0. -1.
         21   -1    0    0  501  502 -0.00000000000E+00 -0.00000000000E+00 -0.81567969160E+03  0.81567969160E+03  0.00000000000E+00 0. -1.
         25    1    1    2    0    0  0.75813660363E+02  0.23154691346E+03 -0.22986861545E+03  0.35752799135E+03  0.12500000000E+03 0.  0.
         25    1    1    2    0    0 -0.37422508780E+02 -0.24116197104E+03 -0.30212448435E+03  0.40799968687E+03  0.12500000000E+03 0.  0.
         25    1    1    2    0    0 -0.38391151583E+02  0.96150575865E+01 -0.14117133699E+03  0.19266726821E+03  0.12500000000E+03 0.  0.
</event>
<event>
 5    0  0.5648525E-005  0.3208728E+03  0.7546771E-02  0.1075248E+00
         21   -1    0    0  502  501  0.00000000000E+00  0.00000000000E+00  0.11510817968E+03  0.11510817968E+03  0.00000000000E+00 0.  1.
         21   -1    0    0  501  502 -0.00000000000E+00 -0.00000000000E+00 -0.89445742532E+03  0.89445742532E+03  0.00000000000E+00 0.  1.
         25    1    1    2    0    0  0.48739581843E+02  0.20036255544E+03 -0.15834395016E+03  0.28847618102E+03  0.12500000000E+03 0.  0.
         25    1    1    2    0    0 -0.27261790782E+02 -0.13024317507E+03 -0.17799991542E+03  0.25498129299E+03  0.12500000000E+03 0.  0.
         25    1    1    2    0    0 -0.21477791061E+02 -0.70119380378E+02 -0.44300538006E+03  0.46610813100E+03  0.12500000000E+03 0.  0.
</event>
<event>
 5    0  0.5648525E-005  0.4582295E+03  0.7546771E-02  0.1025296E+00
         21   -1    0    0  502  501  0.00000000000E+00  0.00000000000E+00  0.56691640197E+03  0.56691640197E+03  0.00000000000E+00 0. -1.
         21   -1    0    0  501  502 -0.00000000000E+00 -0.00000000000E+00 -0.37037968269E+03  0.37037968269E+03  0.00000000000E+00 0. -1.
         25    1    1    2    0    0 -0.22193954887E+03  0.13447074855E+03 -0.64819418744E+02  0.29523906011E+03  0.12500000000E+03 0.  0.
         25    1    1    2    0    0 -0.32143588087E+00 -0.10796826042E+03 -0.10439718104E+03  0.19539964173E+03  0.12500000000E+03 0.  0.
         25    1    1    2    0    0  0.22226098475E+03 -0.26502488122E+02  0.36575331906E+03  0.44665738282E+03  0.12500000000E+03 0.  0.
</event>
<event>
 5    0  0.5648525E-005  0.2892716E+03  0.7546771E-02  0.1090730E+00
         21   -1    0    0  502  501  0.00000000000E+00  0.00000000000E+00  0.75577633084E+03  0.75577633084E+03  0.00000000000E+00 0.  1.
         21   -1    0    0  501  502 -0.00000000000E+00 -0.00000000000E+00 -0.11071804968E+03  0.11071804968E+03  0.00000000000E+00 0.  1.
         25    1    1    2    0    0 -0.11647415049E+02 -0.88718844842E+02  0.15152706273E+03  0.21585214024E+03  0.12500000000E+03 0.  0.
         25    1    1    2    0    0  0.17025421470E+03  0.55084612100E+02  0.23254721259E+03  0.31894202953E+03  0.12500000000E+03 0.  0.
         25    1    1    2    0    0 -0.15860679965E+03  0.33634232741E+02  0.26098400584E+03  0.33170021075E+03  0.12500000000E+03 0.  0.
</event>
<event>
 5    0  0.5648525E-005  0.2990946E+03  0.7546771E-02  0.1085694E+00
         21   -1    0    0  502  501  0.00000000000E+00  0.00000000000E+00  0.30826658017E+03  0.30826658017E+03  0.00000000000E+00 0.  1.
         21   -1    0    0  501  502 -0.00000000000E+00 -0.00000000000E+00 -0.29019550732E+03  0.29019550732E+03  0.00000000000E+00 0.  1.
         25    1    1    2    0    0  0.93703341094E+01 -0.64528203380E+02 -0.14006258454E+03  0.19873152689E+03  0.12500000000E+03 0.  0.
         25    1    1    2    0    0  0.65625640366E+02 -0.58892594448E+02  0.19211681646E+01  0.15298285277E+03  0.12500000000E+03 0.  0.
         25    1    1    2    0    0 -0.74995974476E+02  0.12342079783E+03  0.15621248923E+03  0.24674770782E+03  0.12500000000E+03 0.  0.
</event>
<event>
 5    0  0.5648525E-005  0.4382760E+03  0.7546771E-02  0.1031277E+00
         21   -1    0    0  502  501  0.00000000000E+00  0.00000000000E+00  0.36362025696E+03  0.36362025696E+03  0.00000000000E+00 0.  1.
         21   -1    0    0  501  502 -0.00000000000E+00 -0.00000000000E+00 -0.52825955345E+03  0.52825955345E+03  0.00000000000E+00 0.  1.
         25    1    1    2    0    0  0.89638545161E+01  0.22040271825E+03 -0.16222356582E+03  0.30099700032E+03  0.12500000000E+03 0.  0.
         25    1    1    2    0    0 -0.10996220151E+03  0.99270105707E+02  0.10083047447E+03  0.21849032983E+03  0.12500000000E+03 0.  0.
         25    1    1    2    0    0  0.10099834699E+03 -0.31967282395E+03 -0.10324620514E+03  0.37239248025E+03  0.12500000000E+03 0.  0.
</event>
<event>
 5    0  0.5648525E-005  0.3323505E+03  0.7546771E-02  0.1070102E+00
         21   -1    0    0  502  501  0.00000000000E+00  0.00000000000E+00  0.37974133802E+03  0.37974133802E+03  0.00000000000E+00 0. -1.
         21   -1    0    0  501  502 -0.00000000000E+00 -0.00000000000E+00 -0.29087391576E+03  0.29087391576E+03  0.00000000000E+00 0. -1.
         25    1    1    2    0    0  0.10583266935E+03  0.32522020934E+02  0.64259816851E+02  0.17892054049E+03  0.12500000000E+03 0.  0.
         25    1    1    2    0    0 -0.18654128286E+03 -0.28824557770E+00 -0.14225370742E+03  0.26581732557E+03  0.12500000000E+03 0.  0.
         25    1    1    2    0    0  0.80708613503E+02 -0.32233775357E+02  0.16686131283E+03  0.22587738773E+03  0.12500000000E+03 0.  0.
</event>
<event>
 5    0  0.5648525E-005  0.4092592E+03  0.7546771E-02  0.1040620E+00
         21   -1    0    0  502  501  0.00000000000E+00  0.00000000000E+00  0.54144843505E+03  0.54144843505E+03  0.00000000000E+00 0.  1.
         21   -1    0    0  501  502 -0.00000000000E+00 -0.00000000000E+00 -0.30934260994E+03  0.30934260994E+03  0.00000000000E+00 0.  1.
         25    1    1    2    0    0 -0.45145774162E+02 -0.44389197771E+02 -0.15212491319E+03  0.20682246256E+03  0.12500000000E+03 0.  0.
         25    1    1    2    0    0  0.23494457515E+03 -0.13782445799E+02  0.28224004198E+03  0.38816665300E+03  0.12500000000E+03 0.  0.
         25    1    1    2    0    0 -0.18979880098E+03  0.58171643569E+02  0.10199069632E+03  0.25580192944E+03  0.12500000000E+03 0.  0.
</event>
<event>
 5    0  0.5648525E-005  0.3949626E+03  0.7546771E-02  0.1045538E+00
         21   -1    0    0  502  501  0.00000000000E+00  0.00000000000E+00  0.56227049014E+03  0.56227049014E+03  0.00000000000E+00 0.  1.
         21   -1    0    0  501  502 -0.00000000000E+00 -0.00000000000E+00 -0.27743840246E+03  0.27743840246E+03  0.00000000000E+00 0.  1.
         25    1    1    2    0    0 -0.10876472456E+03 -0.23110957129E+02  0.69052963313E+02  0.18098948420E+03  0.12500000000E+03 0.  0.
         25    1    1    2    0    0 -0.16504947225E+03 -0.19605670783E+02  0.27921879965E+03  0.34815779281E+03  0.12500000000E+03 0.  0.
         25    1    1    2    0    0  0.27381419681E+03  0.42716627912E+02 -0.63439675289E+02  0.31056161559E+03  0.12500000000E+03 0.  0.
</event>
<event>
 5    0  0.5648525E-005  0.3931097E+03  0.7546771E-02  0.1046192E+00
         21   -1    0    0  502  501  0.00000000000E+00  0.00000000000E+00  0.16725345285E+04  0.16725345285E+04  0.00000000000E+00 0. -1.
         21   -1    0    0  501  502 -0.00000000000E+00 -0.00000000000E+00 -0.92395831431E+02  0.92395831431E+02  0.00000000000E+00 0. -1.
         25    1    1    2    0    0 -0.16655096740E+02 -0.16373405810E+01  0.24610954629E+03  0.27654110347E+03  0.12500000000E+03 0.  0.
         25    1    1    2    0    0  0.22796805696E+03 -0.77450769481E+02  0.23317515539E+03  0.35772015568E+03  0.12500000000E+03 0.  0.
         25    1    1    2    0    0 -0.21131296022E+03  0.79088110062E+02  0.11008539954E+04  0.11306691008E+04  0.12500000000E+03 0.  0.
</event>
<event>
 5    0  0.5648525E-005  0.2719953E+03  0.7546771E-02  0.1100143E+00
         21   -1    0    0  502  501  0.00000000000E+00  0.00000000000E+00  0.88261173956E+02  0.88261173956E+02  0.00000000000E+00 0. -1.
         21   -1    0    0  501  502 -0.00000000000E+00 -0.00000000000E+00 -0.83821073880E+03  0.83821073880E+03  0.00000000000E+00 0. -1.
         25    1    1    2    0    0 -0.98415809112E+02  0.13565207911E+03 -0.26805901796E+03  0.33995263664E+03  0.12500000000E+03 0.  0.
         25    1    1    2    0    0  0.10452859329E+03 -0.10618434520E+03 -0.21278733751E+03  0.28827901933E+03  0.12500000000E+03 0.  0.
         25    1    1    2    0    0 -0.61127841817E+01 -0.29467733912E+02 -0.26910320938E+03  0.29824025679E+03  0.12500000000E+03 0.  0.
</event>
<event>
 5    0  0.5648525E-005  0.3938762E+03  0.7546771E-02  0.1045921E+00
         21   -1    0    0  502  501  0.00000000000E+00  0.00000000000E+00  0.25189726476E+03  0.25189726476E+03  0.00000000000E+00 0. -1.
         21   -1    0    0  501  502 -0.00000000000E+00 -0.00000000000E+00 -0.61587999696E+03  0.61587999696E+03  0.00000000000E+00 0. -1.
         25    1    1    2    0    0 -0.34637930281E+02 -0.30738677878E+03 -0.16544043097E+03  0.37240026072E+03  0.12500000000E+03 0.  0.
         25    1    1    2    0    0  0.85606967454E+02  0.20133510590E+03 -0.28210996058E+02  0.25354533726E+03  0.12500000000E+03 0.  0.
         25    1    1    2    0    0 -0.50969037173E+02  0.10605167287E+03 -0.17033130516E+03  0.24183166374E+03  0.12500000000E+03 0.  0.
</event>
<event>
 5    0  0.5648525E-005  0.2881877E+03  0.7546771E-02  0.1091299E+00
         21   -1    0    0  502  501  0.00000000000E+00  0.00000000000E+00  0.65020647969E+02  0.65020647969E+02  0.00000000000E+00 0. -1.
         21   -1    0    0  501  502 -0.00000000000E+00 -0.00000000000E+00 -0.12773200378E+04  0.12773200378E+04  0.00000000000E+00 0. -1.
         25    1    1    2    0    0  0.69323668357E+02 -0.41825201424E+02 -0.37144960666E+03  0.40019361409E+03  0.12500000000E+03 0.  0.
         25    1    1    2    0    0 -0.91339129232E+02  0.56145911519E+02 -0.10503142590E+03  0.19532485847E+03  0.12500000000E+03 0.  0.
         25    1    1    2    0    0  0.22015460875E+02 -0.14320710095E+02 -0.73581835731E+03  0.74682221326E+03  0.12500000000E+03 0.  0.
</event>
<event>
 5    0  0.5648525E-005  0.3537728E+03  0.7546771E-02  0.1061077E+00
         21   -1    0    0  502  501  0.00000000000E+00  0.00000000000E+00  0.91454944694E+02  0.91454944694E+02  0.00000000000E+00 0. -1.
         21   -1    0    0  501  502 -0.00000000000E+00 -0.00000000000E+00 -0.13684902586E+04  0.13684902586E+04  0.00000000000E+00 0. -1.
         25    1    1    2    0    0 -0.41798170642E+02 -0.14363500033E+03 -0.47096306408E+03  0.50971492829E+03  0.12500000000E+03 0.  0.
         25    1    1    2    0    0  0.12777725744E+03 -0.49972814869E+02 -0.60407752548E+03  0.63194854738E+03  0.12500000000E+03 0.  0.
         25    1    1    2    0    0 -0.85979086796E+02  0.19360781520E+03 -0.20199472432E+03  0.31828172760E+03  0.12500000000E+03 0.  0.
</event>
<event>
 5    0  0.5648525E-005  0.3060699E+03  0.7546771E-02  0.1082245E+00
         21   -1    0    0  502  501  0.00000000000E+00  0.00000000000E+00  0.20631187636E+04  0.20631187636E+04  0.00000000000E+00 0. -1.
         21   -1    0    0  501  502 -0.00000000000E+00 -0.00000000000E+00 -0.45406398606E+02  0.45406398606E+02  0.00000000000E+00 0. -1.
         25    1    1    2    0    0 -0.12411855445E+03 -0.11020051050E+03  0.76397152549E+03  0.79172410588E+03  0.12500000000E+03 0.  0.
         25    1    1    2    0    0  0.65519238843E+02  0.53606912972E+02  0.10677014141E+04  0.10783217430E+04  0.12500000000E+03 0.  0.
         25    1    1    2    0    0  0.58599315603E+02  0.56593597529E+02  0.18603942536E+03  0.23847931327E+03  0.12500000000E+03 0.  0.
</event>
<event>
 5    0  0.5648525E-005  0.3131999E+03  0.7546771E-02  0.1078822E+00
         21   -1    0    0  502  501  0.00000000000E+00  0.00000000000E+00  0.47197457238E+03  0.47197457238E+03  0.00000000000E+00 0. -1.
         21   -1    0    0  501  502 -0.00000000000E+00 -0.00000000000E+00 -0.20783786130E+03  0.20783786130E+03  0.00000000000E+00 0. -1.
         25    1    1    2    0    0 -0.13896725009E+03  0.11529874185E+03  0.21839330674E+02  0.22069810338E+03  0.12500000000E+03 0.  0.
         25    1    1    2    0    0  0.16304154329E+03 -0.15356587438E+03  0.17105813024E+03  0.30830327039E+03  0.12500000000E+03 0.  0.
         25    1    1    2    0    0 -0.24074293206E+02  0.38267132530E+02  0.71239250166E+02  0.15081105991E+03  0.12500000000E+03 0.  0.
</event>
<event>
 5    0  0.5648525E-005  0.4628148E+03  0.7546771E-02  0.1023968E+00
         21   -1    0    0  502  501  0.00000000000E+00  0.00000000000E+00  0.98832931050E+03  0.98832931050E+03  0.00000000000E+00 0. -1.
         21   -1    0    0  501  502 -0.00000000000E+00 -0.00000000000E+00 -0.21672688412E+03  0.21672688412E+03  0.00000000000E+00 0. -1.
         25    1    1    2    0    0 -0.10440758961E+03 -0.14301603854E+03  0.50872372786E+03  0.55297320309E+03  0.12500000000E+03 0.  0.
         25    1    1    2    0    0 -0.12789044565E+03 -0.73438815491E+02  0.24265508202E+03  0.31025105082E+03  0.12500000000E+03 0.  0.
         25    1    1    2    0    0  0.23229803526E+03  0.21645485404E+03  0.20223616504E+02  0.34183194071E+03  0.12500000000E+03 0.  0.
</event>
<event>
 5    0  0.5648525E-005  0.2867932E+03  0.7546771E-02  0.1092035E+00
         21   -1    0    0  502  501  0.00000000000E+00  0.00000000000E+00  0.74227510695E+03  0.74227510695E+03  0.00000000000E+00 0. -1.
         21   -1    0    0  501  502 -0.00000000000E+00 -0.00000000000E+00 -0.11080839356E+03  0.11080839356E+03  0.00000000000E+00 0. -1.
         25    1    1    2    0    0 -0.69475819376E+02  0.23932766675E+02 -0.21980348869E+02  0.14665538700E+03  0.12500000000E+03 0.  0.
         25    1    1    2    0    0  0.15946455716E+02 -0.22412863339E+02  0.38108818623E+03  0.40200725314E+03  0.12500000000E+03 0.  0.
         25    1    1    2    0    0  0.53529363660E+02 -0.15199033360E+01  0.27235887603E+03  0.30442086038E+03  0.12500000000E+03 0.  0.
</event>
<event>
 5    0  0.5648525E-005  0.4262689E+03  0.7546771E-02  0.1035045E+00
         21   -1    0    0  502  501  0.00000000000E+00  0.00000000000E+00  0.72946782334E+03  0.72946782334E+03  0.00000000000E+00 0.  1.
         21   -1    0    0  501  502 -0.00000000000E+00 -0.00000000000E+00 -0.24909282191E+03  0.24909282191E+03  0.00000000000E+00 0.  1.
         25    1    1    2    0    0  0.18887903592E+03 -0.21479560670E+03  0.25586933571E+03  0.40361684780E+03  0.12500000000E+03 0.  0.
         25    1    1    2    0    0 -0.11813846739E+03  0.22628572368E+03  0.29916867535E+03  0.41266066269E+03  0.12500000000E+03 0.  0.
         25    1    1    2    0    0 -0.70740568528E+02 -0.11490116974E+02 -0.74663009624E+02  0.16228313477E+03  0.12500000000E+03 0.  0.
</event>
<event>
 5    0  0.5648525E-005  0.3816268E+03  0.7546771E-02  0.1050334E+00
         21   -1    0    0  502  501  0.00000000000E+00  0.00000000000E+00  0.59671544962E+02  0.59671544962E+02  0.00000000000E+00 0.  1.
         21   -1    0    0  501  502 -0.00000000000E+00 -0.00000000000E+00 -0.24406780710E+04  0.24406780710E+04  0.00000000000E+00 0.  1.
         25    1    1    2    0    0  0.12225769513E+03  0.15043150237E+03 -0.17183175366E+04  0.17337291419E+04  0.12500000000E+03 0.  0.
         25    1    1    2    0    0 -0.86603647747E+02  0.36254460686E+02 -0.30481953408E+03  0.34257046877E+03  0.12500000000E+03 0.  0.
         25    1    1    2    0    0 -0.35654047380E+02 -0.18668596305E+03 -0.35786945537E+03  0.42405000529E+03  0.12500000000E+03 0.  0.
</event>
<event>
 5    0  0.5648525E-005  0.3527797E+03  0.7546771E-02  0.1061480E+00
         21   -1    0    0  502  501  0.00000000000E+00  0.00000000000E+00  0.12542717718E+03  0.12542717718E+03  0.00000000000E+00 0. -1.
         21   -1    0    0  501  502 -0.00000000000E+00 -0.00000000000E+00 -0.99223748469E+03  0.99223748469E+03  0.00000000000E+00 0. -1.
         25    1    1    2    0    0 -0.29363765670E+02  0.94635162491E+02 -0.89665731782E+01  0.15976058384E+03  0.12500000000E+03 0.  0.
         25    1    1    2    0    0  0.66350156257E+02 -0.19578073508E+03 -0.36092360669E+03  0.43430782785E+03  0.12500000000E+03 0.  0.
         25    1    1    2    0    0 -0.36986390587E+02  0.10114557259E+03 -0.49692012764E+03  0.52359625018E+03  0.12500000000E+03 0.  0.
</event>
<event>
 5    0  0.5648525E-005  0.3005282E+03  0.7546771E-02  0.1084977E+00
         21   -1    0    0  502  501  0.00000000000E+00  0.00000000000E+00  0.12284524582E+04  0.12284524582E+04  0.00000000000E+00 0.  1.
         21   -1    0    0  501  502 -0.00000000000E+00 -0.00000000000E+00 -0.73521095334E+02  0.73521095334E+02  0.00000000000E+00 0.  1.
         25    1    1    2    0    0 -0.20272558922E+03 -0.40203462329E+02  0.56816246078E+03  0.61737149654E+03  0.12500000000E+03 0.  0.
         25    1    1    2    0    0  0.13230894977E+03  0.64755879120E+01  0.44181134424E+03  0.47788058689E+03  0.12500000000E+03 0.  0.
         25    1    1    2    0    0  0.70416639450E+02  0.33727874417E+02  0.14495755786E+03  0.20672147011E+03  0.12500000000E+03 0.  0.
</event>
<event>
 5    0  0.5648525E-005  0.4268830E+03  0.7546771E-02  0.1034849E+00
         21   -1    0    0  502  501  0.00000000000E+00  0.00000000000E+00  0.47617283136E+03  0.47617283136E+03  0.00000000000E+00 0.  1.
         21   -1    0    0  501  502 -0.00000000000E+00 -0.00000000000E+00 -0.38269532875E+03  0.38269532875E+03  0.00000000000E+00 0.  1.
         25    1    1    2    0    0  0.11616206727E+03 -0.10761811059E+01  0.60876639902E+02  0.18117877725E+03  0.12500000000E+03 0.  0.
         25    1    1    2    0    0 -0.34903585569E+03 -0.53282439513E+02 -0.83811226905E+02  0.38381553991E+03  0.12500000000E+03 0.  0.
         25    1    1    2    0    0  0.23287378842E+03  0.54358620619E+02  0.11641208961E+03  0.29387384296E+03  0.12500000000E+03 0.  0.
</event>
<event>
 5    0  0.5648525E-005  0.5664551E+03  0.7546771E-02  0.9977554E-01
         21   -1    0    0  502  501  0.00000000000E+00  0.00000000000E+00  0.93150926905E+03  0.93150926905E+03  0.00000000000E+00 0. -1.
         21   -1    0    0  501  502 -0.00000000000E+00 -0.00000000000E+00 -0.34446394139E+03  0.34446394139E+03  0.00000000000E+00 0. -1.
         25    1    1    2    0    0 -0.12564568202E+03 -0.13889968847E+03  0.23852104606E+03  0.32802019798E+03  0.12500000000E+03 0.  0.
         25    1    1    2    0    0 -0.18366564642E+03  0.30951535490E+03  0.41938019722E+03  0.56660177763E+03  0.12500000000E+03 0.  0.
         25    1    1    2    0    0  0.30931132844E+03 -0.17061566643E+03 -0.70855915615E+02  0.38135123483E+03  0.12500000000E+03 0.  0.
</event>
<event>
 5    0  0.5648525E-005  0.2665187E+03  0.7546771E-02  0.1103289E+00
         21   -1    0    0  502  501  0.00000000000E+00  0.00000000000E+00  0.12920264253E+03  0.12920264253E+03  0.00000000000E+00 0. -1.
         21   -1    0    0  501  502 -0.00000000000E+00 -0.00000000000E+00 -0.54977377847E+03  0.54977377847E+03  0.00000000000E+00 0. -1.
         25    1    1    2    0    0  0.88153490815E+02 -0.31842024175E+02 -0.16591859662E+03  0.22790114776E+03  0.12500000000E+03 0.  0.
         25    1    1    2    0    0 -0.14851209174E+02  0.13076358372E+03 -0.65208903586E+02  0.19286491218E+03  0.12500000000E+03 0.  0.
         25    1    1    2    0    0 -0.73302281641E+02 -0.98921559550E+02 -0.18944363574E+03  0.25821036106E+03  0.12500000000E+03 0.  0.
</event>
<event>
 5    0  0.5648525E-005  0.2611363E+03  0.7546771E-02  0.1106462E+00
         21   -1    0    0  502  501  0.00000000000E+00  0.00000000000E+00  0.81379643533E+03  0.81379643533E+03  0.00000000000E+00 0. -1.
         21   -1    0    0  501  502 -0.00000000000E+00 -0.00000000000E+00 -0.83795086138E+02  0.83795086138E+02  0.00000000000E+00 0. -1.
         25    1    1    2    0    0 -0.72373795133E+02  0.68120910294E+02  0.13316383377E+03  0.20793275659E+03  0.12500000000E+03 0.  0.
         25    1    1    2    0    0  0.52239593678E+02 -0.13624912914E+03  0.41912875840E+03  0.46107127047E+03  0.12500000000E+03 0.  0.
         25    1    1    2    0    0  0.20134201455E+02  0.68128218850E+02  0.17770875703E+03  0.22858749440E+03  0.12500000000E+03 0.  0.
</event>
<event>
 5    0  0.5648525E-005  0.2305798E+03  0.7546771E-02  0.1126232E+00
         21   -1    0    0  502  501  0.00000000000E+00  0.00000000000E+00  0.11518394442E+04  0.11518394442E+04  0.00000000000E+00 0. -1.
         21   -1    0    0  501  502 -0.00000000000E+00 -0.00000000000E+00 -0.46158400257E+02  0.46158400257E+02  0.00000000000E+00 0. -1.
         25    1    1    2    0    0  0.17219144509E+02 -0.77039072213E+02  0.60791552405E+03  0.62563392009E+03  0.12500000000E+03 0.  0.
         25    1    1    2    0    0  0.10875380397E+02  0.29756861424E+02  0.34038533564E+03  0.36399302387E+03  0.12500000000E+03 0.  0.
         25    1    1    2    0    0 -0.28094524906E+02  0.47282210789E+02  0.15738018429E+03  0.20837090055E+03  0.12500000000E+03 0.  0.
</event>
<event>
 5    0  0.5648525E-005  0.3056345E+03  0.7546771E-02  0.1082457E+00
         21   -1    0    0  502  501  0.00000000000E+00  0.00000000000E+00  0.15878545815E+04  0.15878545815E+04  0.00000000000E+00 0. -1.
         21   -1    0    0  501  502 -0.00000000000E+00 -0.00000000000E+00 -0.58829347560E+02  0.58829347560E+02  0.00000000000E+00 0. -1.
         25    1    1    2    0    0  0.38939651331E+02 -0.12243549568E+03  0.64513639374E+03  0.66957651809E+03  0.12500000000E+03 0.  0.
         25    1    1    2    0    0 -0.16172629269E+03  0.96814721944E+02  0.61379425537E+03  0.65413826678E+03  0.12500000000E+03 0.  0.
         25    1    1    2    0    0  0.12278664136E+03  0.25620773735E+02  0.27009458478E+03  0.32296914415E+03  0.12500000000E+03 0.  0.
</event>
<event>
 5    0  0.5648525E-005  0.3032474E+03  0.7546771E-02  0.1083628E+00
         21   -1    0    0  502  501  0.00000000000E+00  0.00000000000E+00  0.30856989358E+03  0.30856989358E+03  0.00000000000E+00 0.  1.
         21   -1    0    0  501  502 -0.00000000000E+00 -0.00000000000E+00 -0.29801662137E+03  0.29801662137E+03  0.00000000000E+00 0.  1.
         25    1    1    2    0    0  0.16812464889E+03  0.77807265871E+02  0.24233273694E+02  0.22479350467E+03  0.12500000000E+03 0.  0.
         25    1    1    2    0    0 -0.15769663726E+03 -0.13558824763E+03  0.31602646086E+01  0.24266724041E+03  0.12500000000E+03 0.  0.
         25    1    1    2    0    0 -0.10428011634E+02  0.57780981759E+02 -0.16840266097E+02  0.13912576987E+03  0.12500000000E+03 0.  0.
</event>
<event>
 5    0  0.5648525E-005  0.3431407E+03  0.7546771E-02  0.1065466E+00
         21   -1    0    0  502  501  0.00000000000E+00  0.00000000000E+00  0.49045457011E+03  0.49045457011E+03  0.00000000000E+00 0. -1.
         21   -1    0    0  501  502 -0.00000000000E+00 -0.00000000000E+00 -0.24007437231E+03  0.24007437231E+03  0.00000000000E+00 0. -1.
         25    1    1    2    0    0 -0.36871280426E+02  0.42843185258E+02  0.13018016900E+03  0.18912140610E+03  0.12500000000E+03 0.  0.
         25    1    1    2    0    0 -0.40699453636E+02 -0.24369718675E+03  0.39548824344E+02  0.27970318887E+03  0.12500000000E+03 0.  0.
         25    1    1    2    0    0  0.77570734062E+02  0.20085400149E+03  0.80651204453E+02  0.26170434746E+03  0.12500000000E+03 0.  0.
</event>
<event>
 5    0  0.5648525E-005  0.2979654E+03  0.7546771E-02  0.1086262E+00
         21   -1    0    0  502  501  0.00000000000E+00  0.00000000000E+00  0.43082988560E+03  0.43082988560E+03  0.00000000000E+00 0. -1.
         21   -1    0    0  501  502 -0.00000000000E+00 -0.00000000000E+00 -0.20607525482E+03  0.20607525482E+03  0.00000000000E+00 0. -1.
         25    1    1    2    0    0  0.12376142337E+03  0.11188378561E+03  0.60789006570E+02  0.21715242277E+03  0.12500000000E+03 0.  0.
         25    1    1    2    0    0  0.36208448537E+02 -0.64780077446E+01 -0.12429482728E+02  0.13089120815E+03  0.12500000000E+03 0.  0.
         25    1    1    2    0    0 -0.15996987190E+03 -0.10540577786E+03  0.17639510693E+03  0.28886150950E+03  0.12500000000E+03 0.  0.
</event>
<event>
 5    0  0.5648525E-005  0.2982540E+03  0.7546771E-02  0.1086117E+00
         21   -1    0    0  502  501  0.00000000000E+00  0.00000000000E+00  0.20504335543E+03  0.20504335543E+03  0.00000000000E+00 0.  1.
         21   -1    0    0  501  502 -0.00000000000E+00 -0.00000000000E+00 -0.43383717097E+03  0.43383717097E+03  0.00000000000E+00 0.  1.
         25    1    1    2    0    0  0.11282286445E+02  0.47000798667E+02 -0.22668631316E+03  0.26334017855E+03  0.12500000000E+03 0.  0.
         25    1    1    2    0    0  0.31153155957E+02 -0.11600249664E+03  0.95048436424E+02  0.19770256351E+03  0.12500000000E+03 0.  0.
         25    1    1    2    0    0 -0.42435442402E+02  0.69001697973E+02 -0.97155938803E+02  0.17783778434E+03  0.12500000000E+03 0.  0.
</event>
<event>
 5    0  0.5648525E-005  0.3167492E+03  0.7546771E-02  0.1077155E+00
         21   -1    0    0  502  501  0.00000000000E+00  0.00000000000E+00  0.20925035444E+03  0.20925035444E+03  0.00000000000E+00 0.  1.
         21   -1    0    0  501  502 -0.00000000000E+00 -0.00000000000E+00 -0.47947365483E+03  0.47947365483E+03  0.00000000000E+00 0.  1.
         25    1    1    2    0    0 -0.20204358993E+03 -0.10331130009E+03 -0.45251634834E+02  0.26299723842E+03  0.12500000000E+03 0.  0.
         25    1    1    2    0    0  0.11326275351E+03  0.82391023928E+01 -0.16370341033E+03  0.23520233990E+03  0.12500000000E+03 0.  0.
         25    1    1    2    0    0  0.88780836421E+02  0.95072197700E+02 -0.61268255228E+02  0.19052443095E+03  0.12500000000E+03 0.  0.
</event>
<event>
 5    0  0.5648525E-005  0.3993821E+03  0.7546771E-02  0.1043994E+00
         21   -1    0    0  502  501  0.00000000000E+00  0.00000000000E+00  0.21668099067E+03  0.21668099067E+03  0.00000000000E+00 0. -1.
         21   -1    0    0  501  502 -0.00000000000E+00 -0.00000000000E+00 -0.73613301575E+03  0.73613301575E+03  0.00000000000E+00 0. -1.
         25    1    1    2    0    0 -0.13520915046E+03  0.12164958555E+03 -0.45207117208E+02  0.22527498636E+03  0.12500000000E+03 0.  0.
         25    1    1    2    0    0  0.23875165011E+03 -0.16706443545E+03 -0.45958897854E+03  0.55835464108E+03  0.12500000000E+03 0.  0.
         25    1    1    2    0    0 -0.10354249965E+03  0.45414849905E+02 -0.14655929330E+02  0.16918437898E+03  0.12500000000E+03 0.  0.
</event>
<event>
 5    0  0.5648525E-005  0.3884687E+03  0.7546771E-02  0.1047847E+00
         21   -1    0    0  502  501  0.00000000000E+00  0.00000000000E+00  0.38792846636E+03  0.38792846636E+03  0.00000000000E+00 0. -1.
         21   -1    0    0  501  502 -0.00000000000E+00 -0.00000000000E+00 -0.38900959992E+03  0.38900959992E+03  0.00000000000E+00 0. -1.
         25    1    1    2    0    0 -0.10319852349E+03  0.24626144730E+02  0.69075492806E+02  0.17791235472E+03  0.12500000000E+03 0.  0.
         25    1    1    2    0    0  0.14785317303E+03 -0.16461382416E+03  0.15877227969E+03  0.29965298043E+03  0.12500000000E+03 0.  0.
         25    1    1    2    0    0 -0.44654649536E+02  0.13998767943E+03 -0.22892890606E+03  0.29937273114E+03  0.12500000000E+03 0.  0.
</event>
<event>
 5    0  0.5648525E-005  0.2272511E+03  0.7546771E-02  0.1128590E+00
         21   -1    0    0  502  501  0.00000000000E+00  0.00000000000E+00  0.37498919030E+03  0.37498919030E+03  0.00000000000E+00 0.  1.
         21   -1    0    0  501  502 -0.00000000000E+00 -0.00000000000E+00 -0.13771879704E+03  0.13771879704E+03  0.00000000000E+00 0.  1.
         25    1    1    2    0    0  0.89776813913E+02 -0.65104439577E+01  0.15096855148E+02  0.15477460138E+03  0.12500000000E+03 0.  0.
         25    1    1    2    0    0 -0.19430771503E+02 -0.34136800654E+02  0.11486441807E+03  0.17424612070E+03  0.12500000000E+03 0.  0.
         25    1    1    2    0    0 -0.70346042410E+02  0.40647244611E+02  0.10730912004E+03  0.18368726527E+03  0.12500000000E+03 0.  0.
</event>
<event>
 5    0  0.5648525E-005  0.2439718E+03  0.7546771E-02  0.1117175E+00
         21   -1    0    0  502  501  0.00000000000E+00  0.00000000000E+00  0.26661671841E+03  0.26661671841E+03  0.00000000000E+00 0. -1.
         21   -1    0    0  501  502 -0.00000000000E+00 -0.00000000000E+00 -0.22325019001E+03  0.22325019001E+03  0.00000000000E+00 0. -1.
         25    1    1    2    0    0  0.44923874204E+02  0.79972099103E+01  0.57645860318E+02  0.14501777495E+03  0.12500000000E+03 0.  0.
         25    1    1    2    0    0  0.20371094847E+02  0.23383899499E+02 -0.11179528402E+03  0.17054317280E+03  0.12500000000E+03 0.  0.
         25    1    1    2    0    0 -0.65294969050E+02 -0.31381109410E+02  0.97515952097E+02  0.17430596067E+03  0.12500000000E+03 0.  0.
</event>
<event>
 5    0  0.5648525E-005  0.2999807E+03  0.7546771E-02  0.1085250E+00
         21   -1    0    0  502  501  0.00000000000E+00  0.00000000000E+00  0.10151072924E+03  0.10151072924E+03  0.00000000000E+00 0.  1.
         21   -1    0    0  501  502 -0.00000000000E+00 -0.00000000000E+00 -0.88649142973E+03  0.88649142973E+03  0.00000000000E+00 0.  1.
         25    1    1    2    0    0 -0.11650660348E+03  0.48036176293E+02 -0.67369062325E+02  0.18985482203E+03  0.12500000000E+03 0.  0.
         25    1    1    2    0    0  0.16783860522E+03 -0.23098863953E+02 -0.46892981963E+03  0.51402678009E+03  0.12500000000E+03 0.  0.
         25    1    1    2    0    0 -0.51332001736E+02 -0.24937312340E+02 -0.24868181854E+03  0.28412055684E+03  0.12500000000E+03 0.  0.
</event>
<event>
 5    0  0.5648525E-005  0.2724033E+03  0.7546771E-02  0.1099912E+00
         21   -1    0    0  502  501  0.00000000000E+00  0.00000000000E+00  0.82084734994E+03  0.82084734994E+03  0.00000000000E+00 0. -1.
         21   -1    0    0  501  502 -0.00000000000E+00 -0.00000000000E+00 -0.90398751615E+02  0.90398751615E+02  0.00000000000E+00 0. -1.
         25    1    1    2    0    0 -0.27808762630E+02  0.13439882713E+03  0.26061444715E+03  0.31997072065E+03  0.12500000000E+03 0.  0.
         25    1    1    2    0    0  0.60839986337E+02  0.18664249353E+02  0.10561409495E+03  0.17558244557E+03  0.12500000000E+03 0.  0.
         25    1    1    2    0    0 -0.33031223707E+02 -0.15306307649E+03  0.36422005623E+03  0.41569293533E+03  0.12500000000E+03 0.  0.
</event>
<event>
 5    0  0.6350038E-005  0.3000545E+03  0.7546771E-02  0.1085213E+00
         21   -1    0    0  502  501  0.00000000000E+00  0.00000000000E+00  0.29525194892E+03  0.29525194892E+03  0.00000000000E+00 0. -1.
         21   -1    0    0  501  502 -0.00000000000E+00 -0.00000000000E+00 -0.30493520706E+03  0.30493520706E+03  0.00000000000E+00 0. -1.
         25    1    1    2    0    0 -0.27194937188E+01 -0.10791805706E+03 -0.56052783473E+02  0.17441507165E+03  0.12500000000E+03 0.  0.
         25    1    1    2    0    0 -0.11969196512E+03  0.52943993111E+02 -0.85234687751E+02  0.20004795654E+03  0.12500000000E+03 0.  0.
         25    1    1    2    0    0  0.12241145884E+03  0.54974063944E+02  0.13160421309E+03  0.22572412779E+03  0.12500000000E+03 0.  0.
</event>
<event>
 5    0  0.5648525E-005  0.3007041E+03  0.7546771E-02  0.1084889E+00
         21   -1    0    0  502  501  0.00000000000E+00  0.00000000000E+00  0.80473732498E+03  0.80473732498E+03  0.00000000000E+00 0. -1.
         21   -1    0    0  501  502 -0.00000000000E+00 -0.00000000000E+00 -0.11236330596E+03  0.11236330596E+03  0.00000000000E+00 0. -1.
         25    1    1    2    0    0 -0.34078741045E+02  0.75559891036E+02  0.51702090786E+02  0.15864666374E+03  0.12500000000E+03 0.  0.
         25    1    1    2    0    0  0.14871235672E+03 -0.12074277162E+03  0.32786706652E+03  0.39976992789E+03  0.12500000000E+03 0.  0.
         25    1    1    2    0    0 -0.11463361568E+03  0.45182880585E+02  0.31280486172E+03  0.35868403931E+03  0.12500000000E+03 0.  0.
</event>
<event>
 5    0  0.6061726E-005  0.2811766E+03  0.7546771E-02  0.1095048E+00
         21   -1    0    0  502  501  0.00000000000E+00  0.00000000000E+00  0.37880271043E+03  0.37880271043E+03  0.00000000000E+00 0.  1.
         21   -1    0    0  501  502 -0.00000000000E+00 -0.00000000000E+00 -0.20871092847E+03  0.20871092847E+03  0.00000000000E+00 0.  1.
         25    1    1    2    0    0  0.10726081286E+03  0.27294250591E+02  0.12620339231E+03  0.20928964217E+03  0.12500000000E+03 0.  0.
         25    1    1    2    0    0 -0.13973847117E+03  0.40376172489E+02 -0.57978955578E+02  0.20035876551E+03  0.12500000000E+03 0.  0.
         25    1    1    2    0    0  0.32477658306E+02 -0.67670423080E+02  0.10186734523E+03  0.17786523121E+03  0.12500000000E+03 0.  0.
</event>
<event>
 5    0  0.5648525E-005  0.2432231E+03  0.7546771E-02  0.1117664E+00
         21   -1    0    0  502  501  0.00000000000E+00  0.00000000000E+00  0.93159116390E+03  0.93159116390E+03  0.00000000000E+00 0. -1.
         21   -1    0    0  501  502 -0.00000000000E+00 -0.00000000000E+00 -0.63501530357E+02  0.63501530357E+02  0.00000000000E+00 0. -1.
         25    1    1    2    0    0 -0.31486755900E+02 -0.76759357811E+02  0.47594483064E+03  0.49903095757E+03  0.12500000000E+03 0.  0.
         25    1    1    2    0    0 -0.50317052676E+02  0.24240701993E+02  0.24089815139E+03  0.27708543225E+03  0.12500000000E+03 0.  0.
         25    1    1    2    0    0  0.81803808576E+02  0.52518655819E+02  0.15124665152E+03  0.21897630443E+03  0.12500000000E+03 0.  0.
</event>
<event>
 5    0  0.5648525E-005  0.2468674E+03  0.7546771E-02  0.1115301E+00
         21   -1    0    0  502  501  0.00000000000E+00  0.00000000000E+00  0.46516700258E+03  0.46516700258E+03  0.00000000000E+00 0.  1.
         21   -1    0    0  501  502 -0.00000000000E+00 -0.00000000000E+00 -0.13101422756E+03  0.13101422756E+03  0.00000000000E+00 0.  1.
         25    1    1    2    0    0  0.11878886263E+03 -0.26793977526E+02  0.14785520539E+03  0.22872444748E+03  0.12500000000E+03 0.  0.
         25    1    1    2    0    0 -0.79271626507E+02  0.65778120560E+02  0.16097538177E+03  0.22836117326E+03  0.12500000000E+03 0.  0.
         25    1    1    2    0    0 -0.39517236123E+02 -0.38984143035E+02  0.25322187859E+02  0.13909560941E+03  0.12500000000E+03 0.  0.
</event>
<event>
 5    0  0.6442798E-005  0.2928555E+03  0.7546771E-02  0.1088868E+00
         21   -1    0    0  502  501  0.00000000000E+00  0.00000000000E+00  0.61299263596E+03  0.61299263596E+03  0.00000000000E+00 0. -1.
         21   -1    0    0  501  502 -0.00000000000E+00 -0.00000000000E+00 -0.13991092245E+03  0.13991092245E+03  0.00000000000E+00 0. -1.
         25    1    1    2    0    0  0.72101724323E+02 -0.69864185148E+02  0.12064191407E+03  0.20064679027E+03  0.12500000000E+03 0.  0.
         25    1    1    2    0    0  0.26716625053E+01 -0.11236210220E+03  0.24070652016E+03  0.29359327076E+03  0.12500000000E+03 0.  0.
         25    1    1    2    0    0 -0.74773386828E+02  0.18222628735E+03  0.11173327928E+03  0.25866349738E+03  0.12500000000E+03 0.  0.
</event>
<event>
 5    0  0.5884046E-005  0.2870326E+03  0.7546771E-02  0.1091909E+00
         21   -1    0    0  502  501  0.00000000000E+00  0.00000000000E+00  0.16545049892E+03  0.16545049892E+03  0.00000000000E+00 0.  1.
         21   -1    0    0  501  502 -0.00000000000E+00 -0.00000000000E+00 -0.49795996906E+03  0.49795996906E+03  0.00000000000E+00 0. -1.
         25    1    1    2    0    0  0.77514365432E+02 -0.79992389954E+02 -0.34391866214E+03  0.38250791556E+03  0.12500000000E+03 0.  0.
         25    1    1    2    0    0 -0.57130120102E+02  0.40012975418E+02  0.31533646419E+02  0.14657509912E+03  0.12500000000E+03 0.  0.
         25    1    1    2    0    0 -0.20384245330E+02  0.39979414536E+02 -0.20124454419E+02  0.13432745330E+03  0.12500000000E+03 0.  0.
</event>
<event>
 5    0  0.5648525E-005  0.2502063E+03  0.7546771E-02  0.1113175E+00
         21   -1    0    0  502  501  0.00000000000E+00  0.00000000000E+00  0.15249805464E+04  0.15249805464E+04  0.00000000000E+00 0. -1.
         21   -1    0    0  501  502 -0.00000000000E+00 -0.00000000000E+00 -0.41051803384E+02  0.41051803384E+02  0.00000000000E+00 0. -1.
         25    1    1    2    0    0 -0.48248431870E+02  0.13592992979E+03  0.40277965359E+03  0.44571437753E+03  0.12500000000E+03 0.  0.
         25    1    1    2    0    0  0.17272389386E+02 -0.61880169694E+02  0.62426632901E+03  0.63989135045E+03  0.12500000000E+03 0.  0.
         25    1    1    2    0    0  0.30976042484E+02 -0.74049760098E+02  0.45688276040E+03  0.48042662179E+03  0.12500000000E+03 0.  0.
</event>
<event>
 5    0  0.5648525E-005  0.3581513E+03  0.7546771E-02  0.1059318E+00
         21   -1    0    0  502  501  0.00000000000E+00  0.00000000000E+00  0.96929095178E+02  0.96929095178E+02  0.00000000000E+00 0.  1.
         21   -1    0    0  501  502 -0.00000000000E+00 -0.00000000000E+00 -0.13233625089E+04  0.13233625089E+04  0.00000000000E+00 0.  1.
         25    1    1    2    0    0 -0.44930403062E+02 -0.13615515052E+03 -0.69256966189E+03  0.71821633419E+03  0.12500000000E+03 0.  0.
         25    1    1    2    0    0  0.14195844917E+03 -0.64599338401E+02 -0.21862436714E+03  0.29622101499E+03  0.12500000000E+03 0.  0.
         25    1    1    2    0    0 -0.97028046106E+02  0.20075448892E+03 -0.31523938466E+03  0.40585425487E+03  0.12500000000E+03 0.  0.
</event>
<event>
 5    0  0.5648525E-005  0.3953107E+03  0.7546771E-02  0.1045416E+00
         21   -1    0    0  502  501  0.00000000000E+00  0.00000000000E+00  0.14805662019E+03  0.14805662019E+03  0.00000000000E+00 0. -1.
         21   -1    0    0  501  502 -0.00000000000E+00 -0.00000000000E+00 -0.10554785126E+04  0.10554785126E+04  0.00000000000E+00 0. -1.
         25    1    1    2    0    0 -0.42309136844E+02  0.16626213082E+03 -0.16460198296E+03  0.26861119113E+03  0.12500000000E+03 0.  0.
         25    1    1    2    0    0 -0.95790862212E+02 -0.28246840226E+03 -0.57065253342E+03  0.65592194769E+03  0.12500000000E+03 0.  0.
         25    1    1    2    0    0  0.13809999906E+03  0.11620627144E+03 -0.17216737600E+03  0.27900199394E+03  0.12500000000E+03 0.  0.
</event>
<event>
 5    0  0.5648525E-005  0.3322864E+03  0.7546771E-02  0.1070130E+00
         21   -1    0    0  502  501  0.00000000000E+00  0.00000000000E+00  0.64897306292E+03  0.64897306292E+03  0.00000000000E+00 0.  1.
         21   -1    0    0  501  502 -0.00000000000E+00 -0.00000000000E+00 -0.17013684350E+03  0.17013684350E+03  0.00000000000E+00 0.  1.
         25    1    1    2    0    0  0.23778803869E+03 -0.27666447183E+02  0.16100067940E+03  0.31441183567E+03  0.12500000000E+03 0.  0.
         25    1    1    2    0    0 -0.19139910672E+03  0.25150598145E+01  0.10332914409E+03  0.25088215481E+03  0.12500000000E+03 0.  0.
         25    1    1    2    0    0 -0.46388931963E+02  0.25151387368E+02  0.21450639593E+03  0.25381591595E+03  0.12500000000E+03 0.  0.
</event>
<event>
 5    0  0.5648525E-005  0.2706041E+03  0.7546771E-02  0.1100934E+00
         21   -1    0    0  502  501  0.00000000000E+00  0.00000000000E+00  0.45968037728E+03  0.45968037728E+03  0.00000000000E+00 0. -1.
         21   -1    0    0  501  502 -0.00000000000E+00 -0.00000000000E+00 -0.15929887883E+03  0.15929887883E+03  0.00000000000E+00 0. -1.
         25    1    1    2    0    0 -0.25199530546E+02 -0.15806959262E+02  0.63381352178E+02  0.14327271933E+03  0.12500000000E+03 0.  0.
         25    1    1    2    0    0 -0.14547144418E+03 -0.30583382159E+02  0.13342827954E+03  0.23563826114E+03  0.12500000000E+03 0.  0.
         25    1    1    2    0    0  0.17067097472E+03  0.46390341421E+02  0.10357186674E+03  0.24006827564E+03  0.12500000000E+03 0.  0.
</event>
<event>
 5    0  0.6344016E-005  0.3305990E+03  0.7546771E-02  0.1070872E+00
         21   -1    0    0  502  501  0.00000000000E+00  0.00000000000E+00  0.65797997096E+03  0.65797997096E+03  0.00000000000E+00 0. -1.
         21   -1    0    0  501  502 -0.00000000000E+00 -0.00000000000E+00 -0.16610791699E+03  0.16610791699E+03  0.00000000000E+00 0. -1.
         25    1    1    2    0    0  0.71152857436E+02  0.84898502207E+02  0.42714330393E+03  0.45863589795E+03  0.12500000000E+03 0.  0.
         25    1    1    2    0    0  0.59421994087E+02  0.13700039289E+02 -0.24188580168E+02  0.14116923131E+03  0.12500000000E+03 0.  0.
         25    1    1    2    0    0 -0.13057485152E+03 -0.98598541495E+02  0.88917330207E+02  0.22428275869E+03  0.12500000000E+03 0.  0.
</event>
<event>
 5    0  0.5648525E-005  0.5166755E+03  0.7546771E-02  0.1009516E+00
         21   -1    0    0  502  501  0.00000000000E+00  0.00000000000E+00  0.72574187543E+03  0.72574187543E+03  0.00000000000E+00 0.  1.
         21   -1    0    0  501  502 -0.00000000000E+00 -0.00000000000E+00 -0.36783543341E+03  0.36783543341E+03  0.00000000000E+00 0.  1.
         25    1    1    2    0    0 -0.20430150539E+03  0.13861781056E+03  0.55023200261E+02  0.28214633628E+03  0.12500000000E+03 0.  0.
         25    1    1    2    0    0  0.22163822696E+03 -0.21986559178E+03 -0.12439577048E+03  0.35855779145E+03  0.12500000000E+03 0.  0.
         25    1    1    2    0    0 -0.17336721575E+02  0.81247781223E+02  0.42727901224E+03  0.45287318111E+03  0.12500000000E+03 0.  0.
</event>
<event>
 5    0  0.5648525E-005  0.3818341E+03  0.7546771E-02  0.1050258E+00
         21   -1    0    0  502  501  0.00000000000E+00  0.00000000000E+00  0.88584945482E+02  0.88584945482E+02  0.00000000000E+00 0. -1.
         21   -1    0    0  501  502 -0.00000000000E+00 -0.00000000000E+00 -0.16458471355E+04  0.16458471355E+04  0.00000000000E+00 0. -1.
         25    1    1    2    0    0  0.74855985629E+02  0.15770755359E+03 -0.12497168368E+04  0.12680269174E+04  0.12500000000E+03 0.  0.
         25    1    1    2    0    0  0.35798947250E+02 -0.14776656285E+02 -0.11646757947E+03  0.17518450634E+03  0.12500000000E+03 0.  0.
         25    1    1    2    0    0 -0.11065493288E+03 -0.14293089731E+03 -0.19107777369E+03  0.29122065719E+03  0.12500000000E+03 0.  0.
</event>
<event>
 5    0  0.5648525E-005  0.4031735E+03  0.7546771E-02  0.1042686E+00
         21   -1    0    0  502  501  0.00000000000E+00  0.00000000000E+00  0.11252945280E+03  0.11252945280E+03  0.00000000000E+00 0. -1.
         21   -1    0    0  501  502 -0.00000000000E+00 -0.00000000000E+00 -0.14445005995E+04  0.14445005995E+04  0.00000000000E+00 0. -1.
         25    1    1    2    0    0  0.73610342724E+02  0.10316181954E+03 -0.36439801567E+03  0.40555117728E+03  0.12500000000E+03 0.  0.
         25    1    1    2    0    0 -0.27740483828E+03 -0.72718128694E+02 -0.79705496276E+03  0.85624937033E+03  0.12500000000E+03 0.  0.
         25    1    1    2    0    0  0.20379449555E+03 -0.30443690843E+02 -0.17051816827E+03  0.29522950469E+03  0.12500000000E+03 0.  0.
</event>
<event>
 5    0  0.5648525E-005  0.5668291E+03  0.7546771E-02  0.9976720E-01
         21   -1    0    0  502  501  0.00000000000E+00  0.00000000000E+00  0.50933988751E+03  0.50933988751E+03  0.00000000000E+00 0. -1.
         21   -1    0    0  501  502 -0.00000000000E+00 -0.00000000000E+00 -0.63080705107E+03  0.63080705107E+03  0.00000000000E+00 0.  1.
         25    1    1    2    0    0 -0.14427786667E+03 -0.23347798440E+03  0.14268793676E+03  0.33363590830E+03  0.12500000000E+03 0.  0.
         25    1    1    2    0    0  0.37840737102E+03  0.15948990540E+03 -0.30691484328E+03  0.52768446006E+03  0.12500000000E+03 0.  0.
         25    1    1    2    0    0 -0.23412950435E+03  0.73988078997E+02  0.42759742954E+02  0.27882657022E+03  0.12500000000E+03 0.  0.
</event>
<event>
 5    0  0.5648525E-005  0.3293249E+03  0.7546771E-02  0.1071436E+00
         21   -1    0    0  502  501  0.00000000000E+00  0.00000000000E+00  0.12237256431E+03  0.12237256431E+03  0.00000000000E+00 0.  1.
         21   -1    0    0  501  502 -0.00000000000E+00 -0.00000000000E+00 -0.88626796147E+03  0.88626796147E+03  0.00000000000E+00 0.  1.
         25    1    1    2    0    0 -0.13464735869E+02 -0.12530952495E+03 -0.79226644104E+02  0.19438528054E+03  0.12500000000E+03 0.  0.
         25    1    1    2    0    0  0.10583544553E+01  0.17613090274E+03 -0.63367622544E+03  0.66947275800E+03  0.12500000000E+03 0.  0.
         25    1    1    2    0    0  0.12406381413E+02 -0.50821377786E+02 -0.50992527612E+02  0.14478248724E+03  0.12500000000E+03 0.  0.
</event>
<event>
 5    0  0.5648525E-005  0.4891293E+03  0.7546771E-02  0.1016656E+00
         21   -1    0    0  502  501  0.00000000000E+00  0.00000000000E+00  0.87245502691E+03  0.87245502691E+03  0.00000000000E+00 0.  1.
         21   -1    0    0  501  502 -0.00000000000E+00 -0.00000000000E+00 -0.27422326310E+03  0.27422326310E+03  0.00000000000E+00 0.  1.
         25    1    1    2    0    0 -0.10753009720E+03  0.85277219151E+02  0.52684153494E+03  0.55858923088E+03  0.12500000000E+03 0.  0.
         25    1    1    2    0    0  0.16787739260E+03  0.18023423638E+03  0.82531470996E+02  0.28827702408E+03  0.12500000000E+03 0.  0.
         25    1    1    2    0    0 -0.60347295397E+02 -0.26551145553E+03 -0.11141242128E+02  0.29981203504E+03  0.12500000000E+03 0.  0.
</event>
<event>
 5    0  0.5648525E-005  0.2397161E+03  0.7546771E-02  0.1119982E+00
         21   -1    0    0  502  501  0.00000000000E+00  0.00000000000E+00  0.15696262787E+02  0.15696262787E+02  0.00000000000E+00 0.  1.
         21   -1    0    0  501  502 -0.00000000000E+00 -0.00000000000E+00 -0.36609878801E+04  0.36609878801E+04  0.00000000000E+00 0.  1.
         25    1    1    2    0    0 -0.38236349300E+02  0.11291160873E+03 -0.16031379468E+04  0.16124166106E+04  0.12500000000E+03 0.  0.
         25    1    1    2    0    0  0.17905141532E+02  0.72976984223E+01 -0.81677863286E+03  0.82651447997E+03  0.12500000000E+03 0.  0.
         25    1    1    2    0    0  0.20331207768E+02 -0.12020930715E+03 -0.12253750377E+04  0.12377530523E+04  0.12500000000E+03 0.  0.
</event>
<event>
 5    0  0.5648525E-005  0.3687604E+03  0.7546771E-02  0.1055168E+00
         21   -1    0    0  502  501  0.00000000000E+00  0.00000000000E+00  0.18029242634E+04  0.18029242634E+04  0.00000000000E+00 0. -1.
         21   -1    0    0  501  502 -0.00000000000E+00 -0.00000000000E+00 -0.75424261860E+02  0.75424261860E+02  0.00000000000E+00 0. -1.
         25    1    1    2    0    0  0.22995937694E+03 -0.80340184280E+02  0.35821916084E+03  0.45086786030E+03  0.12500000000E+03 0.  0.
         25    1    1    2    0    0 -0.18655685436E+03  0.12181505977E+03  0.73240190388E+03  0.77568029335E+03  0.12500000000E+03 0.  0.
         25    1    1    2    0    0 -0.43402522586E+02 -0.41474875490E+02  0.63687893679E+03  0.65180037158E+03  0.12500000000E+03 0.  0.
</event>
<event>
 5    0  0.5648525E-005  0.5119279E+03  0.7546771E-02  0.1010712E+00
         21   -1    0    0  502  501  0.00000000000E+00  0.00000000000E+00  0.15015773810E+03  0.15015773810E+03  0.00000000000E+00 0.  1.
         21   -1    0    0  501  502 -0.00000000000E+00 -0.00000000000E+00 -0.17452988629E+04  0.17452988629E+04  0.00000000000E+00 0.  1.
         25    1    1    2    0    0 -0.22778457793E+03 -0.25715996262E+03 -0.38144462108E+03  0.52833896248E+03  0.12500000000E+03 0.  0.
         25    1    1    2    0    0  0.23771947438E+03  0.49774423363E+02 -0.23966633438E+03  0.36339096515E+03  0.12500000000E+03 0.  0.
         25    1    1    2    0    0 -0.99348964466E+01  0.20738553926E+03 -0.97403016932E+03  0.10037266734E+04  0.12500000000E+03 0.  0.
</event>
<event>
 5    0  0.5648525E-005  0.2876194E+03  0.7546771E-02  0.1091599E+00
         21   -1    0    0  502  501  0.00000000000E+00  0.00000000000E+00  0.31959903766E+03  0.31959903766E+03  0.00000000000E+00 0.  1.
         21   -1    0    0  501  502 -0.00000000000E+00 -0.00000000000E+00 -0.25883961594E+03  0.25883961594E+03  0.00000000000E+00 0.  1.
         25    1    1    2    0    0 -0.45201164171E+02  0.28295117132E+02  0.34404599819E+02  0.14018714415E+03  0.12500000000E+03 0.  0.
         25    1    1    2    0    0 -0.20323894783E+02 -0.13022625031E+02  0.18550592035E+03  0.22498910184E+03  0.12500000000E+03 0.  0.
         25    1    1    2    0    0  0.65525058954E+02 -0.15272492101E+02 -0.15915109845E+03  0.21326240762E+03  0.12500000000E+03 0.  0.
</event>
<event>
 5    0  0.5648525E-005  0.2789536E+03  0.7546771E-02  0.1096262E+00
         21   -1    0    0  502  501  0.00000000000E+00  0.00000000000E+00  0.77854349469E+03  0.77854349469E+03  0.00000000000E+00 0.  1.
         21   -1    0    0  501  502 -0.00000000000E+00 -0.00000000000E+00 -0.99949584904E+02  0.99949584904E+02  0.00000000000E+00 0.  1.
         25    1    1    2    0    0 -0.17198552231E+01  0.13436621664E+03  0.11662984864E+03  0.21745059133E+03  0.12500000000E+03 0.  0.
         25    1    1    2    0    0  0.99984250663E+02 -0.72516320547E+02  0.25184986617E+03  0.30709741486E+03  0.12500000000E+03 0.  0.
         25    1    1    2    0    0 -0.98264395440E+02 -0.61849896093E+02  0.31011419498E+03  0.35394507340E+03  0.12500000000E+03 0.  0.
</event>
<event>
 5    0  0.5648525E-005  0.2352904E+03  0.7546771E-02  0.1122971E+00
         21   -1    0    0  502  501  0.00000000000E+00  0.00000000000E+00  0.13118495455E+03  0.13118495455E+03  0.00000000000E+00 0.  1.
         21   -1    0    0  501  502 -0.00000000000E+00 -0.00000000000E+00 -0.42201143527E+03  0.42201143527E+03  0.00000000000E+00 0.  1.
         25    1    1    2    0    0  0.94730797463E+01 -0.43661014175E+02 -0.10512593621E+02  0.13315982135E+03  0.12500000000E+03 0.  0.
         25    1    1    2    0    0 -0.76601273050E+02  0.21089640570E+02 -0.21772130429E+03  0.26332507346E+03  0.12500000000E+03 0.  0.
         25    1    1    2    0    0  0.67128193304E+02  0.22571373605E+02 -0.62592582816E+02  0.15671149500E+03  0.12500000000E+03 0.  0.
</event>
<event>
 5    0  0.5648525E-005  0.3434590E+03  0.7546771E-02  0.1065332E+00
         21   -1    0    0  502  501  0.00000000000E+00  0.00000000000E+00  0.33377842623E+03  0.33377842623E+03  0.00000000000E+00 0. -1.
         21   -1    0    0  501  502 -0.00000000000E+00 -0.00000000000E+00 -0.35342031349E+03  0.35342031349E+03  0.00000000000E+00 0. -1.
         25    1    1    2    0    0 -0.39666957948E+02 -0.19763368522E+03  0.95470736545E+02  0.25567988310E+03  0.12500000000E+03 0.  0.
         25    1    1    2    0    0  0.15185339123E+03  0.90866248348E+02 -0.66678698148E+02  0.22668739776E+03  0.12500000000E+03 0.  0.
         25    1    1    2    0    0 -0.11218643328E+03  0.10676743687E+03 -0.48433925653E+02  0.20483145887E+03  0.12500000000E+03 0.  0.
</event>
<event>
 5    0  0.5648525E-005  0.3605320E+03  0.7546771E-02  0.1058373E+00
         21   -1    0    0  502  501  0.00000000000E+00  0.00000000000E+00  0.10931410508E+03  0.10931410508E+03  0.00000000000E+00 0. -1.
         21   -1    0    0  501  502 -0.00000000000E+00 -0.00000000000E+00 -0.11890809684E+04  0.11890809684E+04  0.00000000000E+00 0. -1.
         25    1    1    2    0    0  0.13346338699E+03  0.56964460836E+02 -0.21233864148E+03  0.28595475889E+03  0.12500000000E+03 0.  0.
         25    1    1    2    0    0 -0.24617449286E+03 -0.23698125159E+02 -0.76259072095E+03  0.81137727953E+03  0.12500000000E+03 0.  0.
         25    1    1    2    0    0  0.11271110587E+03 -0.33266335677E+02 -0.10483750090E+03  0.20106303507E+03  0.12500000000E+03 0.  0.
</event>
<event>
 5    0  0.5648525E-005  0.2817264E+03  0.7546771E-02  0.1094750E+00
         21   -1    0    0  502  501  0.00000000000E+00  0.00000000000E+00  0.26103268739E+03  0.26103268739E+03  0.00000000000E+00 0.  1.
         21   -1    0    0  501  502 -0.00000000000E+00 -0.00000000000E+00 -0.30406052683E+03  0.30406052683E+03  0.00000000000E+00 0.  1.
         25    1    1    2    0    0  0.59736806414E+02 -0.29116624841E+02  0.10922733572E+02  0.14198792199E+03  0.12500000000E+03 0.  0.
         25    1    1    2    0    0  0.98846451591E+02  0.99972788894E+02 -0.85777112221E+02  0.20675563473E+03  0.12500000000E+03 0.  0.
         25    1    1    2    0    0 -0.15858325801E+03 -0.70856164053E+02  0.31826539209E+02  0.21634965750E+03  0.12500000000E+03 0.  0.
</event>
<event>
 5    0  0.5648525E-005  0.3810922E+03  0.7546771E-02  0.1050531E+00
         21   -1    0    0  502  501  0.00000000000E+00  0.00000000000E+00  0.89550743734E+03  0.89550743734E+03  0.00000000000E+00 0. -1.
         21   -1    0    0  501  502 -0.00000000000E+00 -0.00000000000E+00 -0.16217758401E+03  0.16217758401E+03  0.00000000000E+00 0. -1.
         25    1    1    2    0    0  0.23186783420E+02 -0.90452705147E+02 -0.22710596227E+02  0.15767082791E+03  0.12500000000E+03 0.  0.
         25    1    1    2    0    0 -0.12856813904E+03 -0.20107683182E+02  0.65279335810E+03  0.67727265830E+03  0.12500000000E+03 0.  0.
         25    1    1    2    0    0  0.10538135562E+03  0.11056038833E+03  0.10324709146E+03  0.22274153514E+03  0.12500000000E+03 0.  0.
</event>
<event>
 5    0  0.5648525E-005  0.3315227E+03  0.7546771E-02  0.1070465E+00
         21   -1    0    0  502  501  0.00000000000E+00  0.00000000000E+00  0.12419838841E+03  0.12419838841E+03  0.00000000000E+00 0. -1.
         21   -1    0    0  501  502 -0.00000000000E+00 -0.00000000000E+00 -0.88493324611E+03  0.88493324611E+03  0.00000000000E+00 0. -1.
         25    1    1    2    0    0  0.15277298212E+03  0.48505452769E+02 -0.34264568880E+03  0.39840109320E+03  0.12500000000E+03 0.  0.
         25    1    1    2    0    0 -0.14107121341E+03 -0.64823858176E+01 -0.18171921238E+02  0.18946853908E+03  0.12500000000E+03 0.  0.
         25    1    1    2    0    0 -0.11701768707E+02 -0.42023066951E+02 -0.39991724767E+03  0.42126200224E+03  0.12500000000E+03 0.  0.
</event>
<event>
 5    0  0.5648525E-005  0.4397137E+03  0.7546771E-02  0.1030835E+00
         21   -1    0    0  502  501  0.00000000000E+00  0.00000000000E+00  0.27583757083E+03  0.27583757083E+03  0.00000000000E+00 0.  1.
         21   -1    0    0  501  502 -0.00000000000E+00 -0.00000000000E+00 -0.70094921900E+03  0.70094921900E+03  0.00000000000E+00 0.  1.
         25    1    1    2    0    0  0.60819105273E+02  0.18241563229E+03 -0.52446351068E+03  0.57241715602E+03  0.12500000000E+03 0.  0.
         25    1    1    2    0    0  0.27182165831E+01 -0.20528441228E+03  0.18914109685E+02  0.24110541714E+03  0.12500000000E+03 0.  0.
         25    1    1    2    0    0 -0.63537321857E+02  0.22868779997E+02  0.80437752830E+02  0.16326421668E+03  0.12500000000E+03 0.  0.
</event>
<event>
 5    0  0.5648525E-005  0.4203062E+03  0.7546771E-02  0.1036967E+00
         21   -1    0    0  502  501  0.00000000000E+00  0.00000000000E+00  0.66479879075E+02  0.66479879075E+02  0.00000000000E+00 0. -1.
         21   -1    0    0  501  502 -0.00000000000E+00 -0.00000000000E+00 -0.26573046964E+04  0.26573046964E+04  0.00000000000E+00 0. -1.
         25    1    1    2    0    0 -0.13485577263E+03 -0.14039561974E+03 -0.15930683865E+04  0.16097791443E+04  0.12500000000E+03 0.  0.
         25    1    1    2    0    0  0.15519385167E+03  0.19004080399E+03 -0.91326129075E+03  0.95387201655E+03  0.12500000000E+03 0.  0.
         25    1    1    2    0    0 -0.20338079040E+02 -0.49645184246E+02 -0.84495140106E+02  0.16013341462E+03  0.12500000000E+03 0.  0.
</event>
<event>
 5    0  0.5648525E-005  0.3029271E+03  0.7546771E-02  0.1083786E+00
         21   -1    0    0  502  501  0.00000000000E+00  0.00000000000E+00  0.23350556283E+03  0.23350556283E+03  0.00000000000E+00 0.  1.
         21   -1    0    0  501  502 -0.00000000000E+00 -0.00000000000E+00 -0.39298767757E+03  0.39298767757E+03  0.00000000000E+00 0.  1.
         25    1    1    2    0    0  0.17008805520E+02 -0.18429303777E+03 -0.86230674596E+02  0.23940332595E+03  0.12500000000E+03 0.  0.
         25    1    1    2    0    0 -0.10615772889E+03  0.54507441508E+02 -0.68780701976E+02  0.18600083211E+03  0.12500000000E+03 0.  0.
         25    1    1    2    0    0  0.89148923367E+02  0.12978559626E+03 -0.44707381711E+01  0.20108908234E+03  0.12500000000E+03 0.  0.
</event>
<event>
 5    0  0.5648525E-005  0.3076221E+03  0.7546771E-02  0.1081491E+00
         21   -1    0    0  502  501  0.00000000000E+00  0.00000000000E+00  0.11366113771E+03  0.11366113771E+03  0.00000000000E+00 0. -1.
         21   -1    0    0  501  502 -0.00000000000E+00 -0.00000000000E+00 -0.83257428046E+03  0.83257428046E+03  0.00000000000E+00 0. -1.
         25    1    1    2    0    0 -0.18754762492E+03  0.72430931314E+02 -0.15466123163E+03  0.28278162598E+03  0.12500000000E+03 0.  0.
         25    1    1    2    0    0  0.14813360055E+03 -0.63081591959E+02 -0.42857391153E+03  0.47457712598E+03  0.12500000000E+03 0.  0.
         25    1    1    2    0    0  0.39414024371E+02 -0.93493393552E+01 -0.13567799959E+03  0.18887666620E+03  0.12500000000E+03 0.  0.
</event>
<event>
 5    0  0.6174617E-005  0.3060112E+03  0.7546771E-02  0.1082274E+00
         21   -1    0    0  502  501  0.00000000000E+00  0.00000000000E+00  0.26768675360E+03  0.26768675360E+03  0.00000000000E+00 0. -1.
         21   -1    0    0  501  502 -0.00000000000E+00 -0.00000000000E+00 -0.34982258829E+03  0.34982258829E+03  0.00000000000E+00 0. -1.
         25    1    1    2    0    0  0.22360723977E+02  0.89291462571E+02  0.15452668059E+03  0.21903529916E+03  0.12500000000E+03 0.  0.
         25    1    1    2    0    0 -0.19735607631E+02 -0.11254512190E+03 -0.57670216023E+02  0.17890431098E+03  0.12500000000E+03 0.  0.
         25    1    1    2    0    0 -0.26251163457E+01  0.23253659324E+02 -0.17899229926E+03  0.21956973175E+03  0.12500000000E+03 0.  0.
</event>
<event>
 5    0  0.5648525E-005  0.2848118E+03  0.7546771E-02  0.1093089E+00
         21   -1    0    0  502  501  0.00000000000E+00  0.00000000000E+00  0.61331950456E+03  0.61331950456E+03  0.00000000000E+00 0. -1.
         21   -1    0    0  501  502 -0.00000000000E+00 -0.00000000000E+00 -0.13226021864E+03  0.13226021864E+03  0.00000000000E+00 0. -1.
         25    1    1    2    0    0 -0.79896486817E+02  0.49911047519E+02  0.69608090957E+01  0.15667805888E+03  0.12500000000E+03 0.  0.
         25    1    1    2    0    0  0.14762674863E+03  0.12979659451E+02  0.26429170471E+03  0.32777619445E+03  0.12500000000E+03 0.  0.
         25    1    1    2    0    0 -0.67730261817E+02 -0.62890706969E+02  0.20980677212E+03  0.26112546987E+03  0.12500000000E+03 0.  0.
</event>
<event>
 5    0  0.5648525E-005  0.3181834E+03  0.7546771E-02  0.1076488E+00
         21   -1    0    0  502  501  0.00000000000E+00  0.00000000000E+00  0.20620467911E+03  0.20620467911E+03  0.00000000000E+00 0. -1.
         21   -1    0    0  501  502 -0.00000000000E+00 -0.00000000000E+00 -0.49097186893E+03  0.49097186893E+03  0.00000000000E+00 0. -1.
         25    1    1    2    0    0 -0.95225715238E+02  0.97522730844E+02 -0.22904507777E+01  0.18495638956E+03  0.12500000000E+03 0.  0.
         25    1    1    2    0    0  0.84091282159E+02 -0.20764679818E+03 -0.20384861638E+03  0.32767025335E+03  0.12500000000E+03 0.  0.
         25    1    1    2    0    0  0.11134433078E+02  0.11012406734E+03 -0.78628122665E+02  0.18454990512E+03  0.12500000000E+03 0.  0.
</event>
<event>
 5    0  0.6369491E-005  0.2611763E+03  0.7546771E-02  0.1106439E+00
         21   -1    0    0  502  501  0.00000000000E+00  0.00000000000E+00  0.36778438600E+03  0.36778438600E+03  0.00000000000E+00 0.  1.
         21   -1    0    0  501  502 -0.00000000000E+00 -0.00000000000E+00 -0.18547028388E+03  0.18547028388E+03  0.00000000000E+00 0.  1.
         25    1    1    2    0    0 -0.14936225655E+03 -0.62023675478E+02  0.52182941726E+02  0.21095990000E+03  0.12500000000E+03 0.  0.
         25    1    1    2    0    0  0.58404490693E+02  0.28243554372E+01  0.11182547170E+02  0.13845255822E+03  0.12500000000E+03 0.  0.
         25    1    1    2    0    0  0.90957765861E+02  0.59199320041E+02  0.11894861322E+03  0.20384221165E+03  0.12500000000E+03 0.  0.
</event>
<event>
 5    0  0.5648525E-005  0.2996630E+03  0.7546771E-02  0.1085409E+00
         21   -1    0    0  502  501  0.00000000000E+00  0.00000000000E+00  0.14646630829E+03  0.14646630829E+03  0.00000000000E+00 0.  1.
         21   -1    0    0  501  502 -0.00000000000E+00 -0.00000000000E+00 -0.61309603522E+03  0.61309603522E+03  0.00000000000E+00 0.  1.
         25    1    1    2    0    0  0.20796160881E+03 -0.45715976230E+01 -0.24610084544E+03  0.34562921805E+03  0.12500000000E+03 0.  0.
         25    1    1    2    0    0 -0.14471836430E+03 -0.52787952141E+02 -0.11366232248E+03  0.22863529125E+03  0.12500000000E+03 0.  0.
         25    1    1    2    0    0 -0.63243244508E+02  0.57359549764E+02 -0.10686655901E+03  0.18529783420E+03  0.12500000000E+03 0.  0.
</event>
<event>
 5    0  0.5648525E-005  0.5008474E+03  0.7546771E-02  0.1013558E+00
         21   -1    0    0  502  501  0.00000000000E+00  0.00000000000E+00  0.13113187075E+03  0.13113187075E+03  0.00000000000E+00 0.  1.
         21   -1    0    0  501  502 -0.00000000000E+00 -0.00000000000E+00 -0.19129451396E+04  0.19129451396E+04  0.00000000000E+00 0.  1.
         25    1    1    2    0    0 -0.36803033863E+03 -0.78505326966E+02 -0.39465258360E+03  0.55945069332E+03  0.12500000000E+03 0.  0.
         25    1    1    2    0    0  0.27809882617E+03  0.11410972431E+03 -0.60877471834E+03  0.69035617184E+03  0.12500000000E+03 0.  0.
         25    1    1    2    0    0  0.89931512461E+02 -0.35604397348E+02 -0.77838596691E+03  0.79427014518E+03  0.12500000000E+03 0.  0.
</event>
<event>
 5    0  0.5648525E-005  0.2281294E+03  0.7546771E-02  0.1127963E+00
         21   -1    0    0  502  501  0.00000000000E+00  0.00000000000E+00  0.22871749296E+03  0.22871749296E+03  0.00000000000E+00 0. -1.
         21   -1    0    0  501  502 -0.00000000000E+00 -0.00000000000E+00 -0.22754275599E+03  0.22754275599E+03  0.00000000000E+00 0. -1.
         25    1    1    2    0    0 -0.26188854219E+02  0.68666839625E+02 -0.44621186337E+02  0.15171368171E+03  0.12500000000E+03 0.  0.
         25    1    1    2    0    0 -0.29169796102E+02 -0.57689312268E+02 -0.35470552250E+02  0.14512785340E+03  0.12500000000E+03 0.  0.
         25    1    1    2    0    0  0.55358650321E+02 -0.10977527356E+02  0.81266475561E+02  0.15941871384E+03  0.12500000000E+03 0.  0.
</event>
<event>
 5    0  0.5648525E-005  0.4399830E+03  0.7546771E-02  0.1030752E+00
         21   -1    0    0  502  501  0.00000000000E+00  0.00000000000E+00  0.34808671862E+03  0.34808671862E+03  0.00000000000E+00 0. -1.
         21   -1    0    0  501  502 -0.00000000000E+00 -0.00000000000E+00 -0.55614027510E+03  0.55614027510E+03  0.00000000000E+00 0. -1.
         25    1    1    2    0    0 -0.10697149263E+03 -0.26142636852E+03  0.62760475767E+02  0.31519918101E+03  0.12500000000E+03 0.  0.
         25    1    1    2    0    0  0.84612060646E+02  0.26909000856E+03 -0.32733291764E+03  0.44982271228E+03  0.12500000000E+03 0.  0.
         25    1    1    2    0    0  0.22359431988E+02 -0.76636400449E+01  0.56518885390E+02  0.13920510042E+03  0.12500000000E+03 0.  0.
</event>
<event>
 5    0  0.5648525E-005  0.2328708E+03  0.7546771E-02  0.1124635E+00
         21   -1    0    0  502  501  0.00000000000E+00  0.00000000000E+00  0.31001934032E+02  0.31001934032E+02  0.00000000000E+00 0.  1.
         21   -1    0    0  501  502 -0.00000000000E+00 -0.00000000000E+00 -0.17492077894E+04  0.17492077894E+04  0.00000000000E+00 0.  1.
         25    1    1    2    0    0  0.38996592221E+02 -0.53370121131E+02 -0.47736439570E+03  0.49786631772E+03  0.12500000000E+03 0.  0.
         25    1    1    2    0    0  0.55892320497E+02 -0.21703689018E+02 -0.71971109636E+03  0.73294206035E+03  0.12500000000E+03 0.  0.
         25    1    1    2    0    0 -0.94888912718E+02  0.75073810148E+02 -0.52113036331E+03  0.54940134537E+03  0.12500000000E+03 0.  0.
</event>
<event>
 5    0  0.5648525E-005  0.2659331E+03  0.7546771E-02  0.1103630E+00
         21   -1    0    0  502  501  0.00000000000E+00  0.00000000000E+00  0.71986526656E+02  0.71986526656E+02  0.00000000000E+00 0.  1.
         21   -1    0    0  501  502 -0.00000000000E+00 -0.00000000000E+00 -0.98241207071E+03  0.98241207071E+03  0.00000000000E+00 0.  1.
         25    1    1    2    0    0 -0.58069356809E+02 -0.21361918462E+02 -0.40156896164E+03  0.42510117939E+03  0.12500000000E+03 0.  0.
         25    1    1    2    0    0  0.14674525801E+03 -0.52002160295E+02 -0.25595135609E+03  0.32461437446E+03  0.12500000000E+03 0.  0.
         25    1    1    2    0    0 -0.88675901200E+02  0.73364078757E+02 -0.25290522632E+03  0.30468304351E+03  0.12500000000E+03 0.  0.
</event>
<event>
 5    0  0.5648525E-005  0.3769508E+03  0.7546771E-02  0.1052067E+00
         21   -1    0    0  502  501  0.00000000000E+00  0.00000000000E+00  0.21253028724E+03  0.21253028724E+03  0.00000000000E+00 0.  1.
         21   -1    0    0  501  502 -0.00000000000E+00 -0.00000000000E+00 -0.66857233051E+03  0.66857233051E+03  0.00000000000E+00 0.  1.
         25    1    1    2    0    0  0.87496139757E+02 -0.16036407793E+03 -0.38879495999E+03  0.44739102905E+03  0.12500000000E+03 0.  0.
         25    1    1    2    0    0  0.45566176965E+02  0.20022884904E+03 -0.53882279312E+02  0.24636592397E+03  0.12500000000E+03 0.  0.
         25    1    1    2    0    0 -0.13306231672E+03 -0.39864771108E+02 -0.13364803969E+02  0.18734566473E+03  0.12500000000E+03 0.  0.
</event>
<event>
 5    0  0.5648525E-005  0.4876791E+03  0.7546771E-02  0.1017046E+00
         21   -1    0    0  502  501  0.00000000000E+00  0.00000000000E+00  0.15618557663E+04  0.15618557663E+04  0.00000000000E+00 0.  1.
         21   -1    0    0  501  502 -0.00000000000E+00 -0.00000000000E+00 -0.15227455660E+03  0.15227455660E+03  0.00000000000E+00 0.  1.
         25    1    1    2    0    0 -0.20582270352E+02 -0.24849249568E+03  0.99049875806E+03  0.10290213506E+04  0.12500000000E+03 0.  0.
         25    1    1    2    0    0 -0.70032271634E+02  0.11153699197E+03  0.44162983418E+03  0.47750071214E+03  0.12500000000E+03 0.  0.
         25    1    1    2    0    0  0.90614541986E+02  0.13695550370E+03 -0.22547382584E+02  0.20760826013E+03  0.12500000000E+03 0.  0.
</event>
<event>
 5    0  0.5648525E-005  0.3312040E+03  0.7546771E-02  0.1070605E+00
         21   -1    0    0  502  501  0.00000000000E+00  0.00000000000E+00  0.14430862439E+03  0.14430862439E+03  0.00000000000E+00 0. -1.
         21   -1    0    0  501  502 -0.00000000000E+00 -0.00000000000E+00 -0.76014927104E+03  0.76014927104E+03  0.00000000000E+00 0. -1.
         25    1    1    2    0    0 -0.16836341926E+03 -0.17768657952E+03 -0.18934552854E+03  0.33375963007E+03  0.12500000000E+03 0.  0.
         25    1    1    2    0    0  0.33669594695E+02  0.13376304397E+03 -0.25366294524E+03  0.31463643039E+03  0.12500000000E+03 0.  0.
         25    1    1    2    0    0  0.13469382456E+03  0.43923535555E+02 -0.17283217286E+03  0.25606183497E+03  0.12500000000E+03 0.  0.
</event>
<event>
 5    0  0.5648525E-005  0.3365173E+03  0.7546771E-02  0.1068289E+00
         21   -1    0    0  502  501  0.00000000000E+00  0.00000000000E+00  0.13185511719E+04  0.13185511719E+04  0.00000000000E+00 0. -1.
         21   -1    0    0  501  502 -0.00000000000E+00 -0.00000000000E+00 -0.85885081993E+02  0.85885081993E+02  0.00000000000E+00 0. -1.
         25    1    1    2    0    0 -0.14886027950E+03 -0.28287278074E+01  0.65151360329E+03  0.67989878643E+03  0.12500000000E+03 0.  0.
         25    1    1    2    0    0 -0.27408385000E+02  0.12860483562E+03  0.21770118819E+03  0.28338883297E+03  0.12500000000E+03 0.  0.
         25    1    1    2    0    0  0.17626866450E+03 -0.12577610781E+03  0.36345129840E+03  0.44114863447E+03  0.12500000000E+03 0.  0.
</event>
<event>
 5    0  0.5648525E-005  0.2399605E+03  0.7546771E-02  0.1119819E+00
         21   -1    0    0  502  501  0.00000000000E+00  0.00000000000E+00  0.18570362640E+03  0.18570362640E+03  0.00000000000E+00 0. -1.
         21   -1    0    0  501  502 -0.00000000000E+00 -0.00000000000E+00 -0.31006949651E+03  0.31006949651E+03  0.00000000000E+00 0. -1.
         25    1    1    2    0    0 -0.57688140117E+02  0.30097759547E+02 -0.12653409648E+03  0.18939290961E+03  0.12500000000E+03 0.  0.
         25    1    1    2    0    0 -0.23138557073E+02  0.41104025040E+02 -0.33105363736E+02  0.13764410197E+03  0.12500000000E+03 0.  0.
         25    1    1    2    0    0  0.80826697189E+02 -0.71201784587E+02  0.35273590101E+02  0.16873611133E+03  0.12500000000E+03 0.  0.
</event>
<event>
 5    0  0.6626838E-005  0.2686491E+03  0.7546771E-02  0.1102055E+00
         21   -1    0    0  502  501  0.00000000000E+00  0.00000000000E+00  0.20619451337E+03  0.20619451337E+03  0.00000000000E+00 0.  1.
         21   -1    0    0  501  502 -0.00000000000E+00 -0.00000000000E+00 -0.35002067658E+03  0.35002067658E+03  0.00000000000E+00 0.  1.
         25    1    1    2    0    0 -0.68139889365E+02  0.85681411038E+02 -0.22746036796E+02  0.16771025881E+03  0.12500000000E+03 0.  0.
         25    1    1    2    0    0 -0.67492804094E+02 -0.17833092193E+02  0.22745264061E+02  0.14496773717E+03  0.12500000000E+03 0.  0.
         25    1    1    2    0    0  0.13563269346E+03 -0.67848318845E+02 -0.14382539047E+03  0.24353719397E+03  0.12500000000E+03 0.  0.
</event>
<event>
 5    0  0.5648525E-005  0.2192213E+03  0.7546771E-02  0.1134465E+00
         21   -1    0    0  502  501  0.00000000000E+00  0.00000000000E+00  0.33893528012E+03  0.33893528012E+03  0.00000000000E+00 0.  1.
         21   -1    0    0  501  502 -0.00000000000E+00 -0.00000000000E+00 -0.14179105730E+03  0.14179105730E+03  0.00000000000E+00 0.  1.
         25    1    1    2    0    0 -0.25384352417E+02  0.69985147508E+02  0.24262385171E+02  0.14749898153E+03  0.12500000000E+03 0.  0.
         25    1    1    2    0    0  0.52840989465E+02 -0.43388252526E+02  0.42682262668E+02  0.14873293573E+03  0.12500000000E+03 0.  0.
         25    1    1    2    0    0 -0.27456637048E+02 -0.26596894982E+02  0.13019957499E+03  0.18449442015E+03  0.12500000000E+03 0.  0.
</event>
<event>
 5    0  0.5648525E-005  0.4304480E+03  0.7546771E-02  0.1033719E+00
         21   -1    0    0  502  501  0.00000000000E+00  0.00000000000E+00  0.84899418271E+02  0.84899418271E+02  0.00000000000E+00 0.  1.
         21   -1    0    0  501  502 -0.00000000000E+00 -0.00000000000E+00 -0.21824120016E+04  0.21824120016E+04  0.00000000000E+00 0.  1.
         25    1    1    2    0    0 -0.87184592142E+02  0.76674258833E+02 -0.13113732053E+04  0.13224238272E+04  0.12500000000E+03 0.  0.
         25    1    1    2    0    0  0.50660661226E+02 -0.12950403699E+03 -0.47397464994E+02  0.19289716919E+03  0.12500000000E+03 0.  0.
         25    1    1    2    0    0  0.36523930916E+02  0.52829778155E+02 -0.73874191299E+03  0.75199042347E+03  0.12500000000E+03 0.  0.
</event>
<event>
 5    0  0.5648525E-005  0.4266623E+03  0.7546771E-02  0.1034920E+00
         21   -1    0    0  502  501  0.00000000000E+00  0.00000000000E+00  0.85116495791E+03  0.85116495791E+03  0.00000000000E+00 0.  1.
         21   -1    0    0  501  502 -0.00000000000E+00 -0.00000000000E+00 -0.21387240578E+03  0.21387240578E+03  0.00000000000E+00 0.  1.
         25    1    1    2    0    0  0.68819448342E+02 -0.32383646764E+03  0.19272324663E+03  0.40295585867E+03  0.12500000000E+03 0.  0.
         25    1    1    2    0    0  0.66084315475E+01  0.23000702246E+03  0.10771691292E+03  0.28315161147E+03  0.12500000000E+03 0.  0.
         25    1    1    2    0    0 -0.75427879889E+02  0.93829445175E+02  0.33685239258E+03  0.37892989356E+03  0.12500000000E+03 0.  0.
</event>
<event>
 5    0  0.5648525E-005  0.3310060E+03  0.7546771E-02  0.1070693E+00
         21   -1    0    0  502  501  0.00000000000E+00  0.00000000000E+00  0.46291697205E+03  0.46291697205E+03  0.00000000000E+00 0.  1.
         21   -1    0    0  501  502 -0.00000000000E+00 -0.00000000000E+00 -0.23668379458E+03  0.23668379458E+03  0.00000000000E+00 0.  1.
         25    1    1    2    0    0 -0.17470620230E+03  0.58604548057E+02  0.76962675709E+02  0.23559499916E+03  0.12500000000E+03 0.  0.
         25    1    1    2    0    0  0.85346411460E+02  0.76762784302E+02 -0.51371440539E+02  0.17731486093E+03  0.12500000000E+03 0.  0.
         25    1    1    2    0    0  0.89359790840E+02 -0.13536733236E+03  0.20064194230E+03  0.28669090655E+03  0.12500000000E+03 0.  0.
</event>
<event>
 5    0  0.5648525E-005  0.3592392E+03  0.7546771E-02  0.1058886E+00
         21   -1    0    0  502  501  0.00000000000E+00  0.00000000000E+00  0.52863909053E+03  0.52863909053E+03  0.00000000000E+00 0.  1.
         21   -1    0    0  501  502 -0.00000000000E+00 -0.00000000000E+00 -0.24412271548E+03  0.24412271548E+03  0.00000000000E+00 0.  1.
         25    1    1    2    0    0  0.12192181420E+03 -0.16689777871E+03  0.12982423728E+03  0.27422459755E+03  0.12500000000E+03 0.  0.
         25    1    1    2    0    0 -0.12975508067E+03 -0.71459742850E+02  0.11766388193E+03  0.22674361054E+03  0.12500000000E+03 0.  0.
         25    1    1    2    0    0  0.78332664710E+01  0.23835752156E+03  0.37028255837E+02  0.27179359793E+03  0.12500000000E+03 0.  0.
</event>
<event>
 5    0  0.5648525E-005  0.3225407E+03  0.7546771E-02  0.1074486E+00
         21   -1    0    0  502  501  0.00000000000E+00  0.00000000000E+00  0.46343826096E+02  0.46343826096E+02  0.00000000000E+00 0. -1.
         21   -1    0    0  501  502 -0.00000000000E+00 -0.00000000000E+00 -0.22447972055E+04  0.22447972055E+04  0.00000000000E+00 0. -1.
         25    1    1    2    0    0  0.21507335314E+03 -0.83517252914E+02 -0.13633192436E+04  0.13883429111E+04  0.12500000000E+03 0.  0.
         25    1    1    2    0    0 -0.10382043409E+03  0.57500280785E+02 -0.45906699451E+03  0.49035953164E+03  0.12500000000E+03 0.  0.
         25    1    1    2    0    0 -0.11125291905E+03  0.26016972130E+02 -0.37606714133E+03  0.41243858891E+03  0.12500000000E+03 0.  0.
</event>
<event>
 5    0  0.5648525E-005  0.2835589E+03  0.7546771E-02  0.1093761E+00
         21   -1    0    0  502  501  0.00000000000E+00  0.00000000000E+00  0.45558946061E+02  0.45558946061E+02  0.00000000000E+00 0.  1.
         21   -1    0    0  501  502 -0.00000000000E+00 -0.00000000000E+00 -0.17648704033E+04  0.17648704033E+04  0.00000000000E+00 0.  1.
         25    1    1    2    0    0  0.40886332065E+02  0.10753670096E+03 -0.33793143635E+03  0.37823073629E+03  0.12500000000E+03 0.  0.
         25    1    1    2    0    0 -0.71266113986E+02  0.64232926249E+02 -0.46301723030E+03  0.48909578139E+03  0.12500000000E+03 0.  0.
         25    1    1    2    0    0  0.30379781921E+02 -0.17176962721E+03 -0.91836279060E+03  0.94310283169E+03  0.12500000000E+03 0.  0.
</event>
<event>
 5    0  0.5648525E-005  0.2552056E+03  0.7546771E-02  0.1110058E+00
         21   -1    0    0  502  501  0.00000000000E+00  0.00000000000E+00  0.13765905116E+04  0.13765905116E+04  0.00000000000E+00 0.  1.
         21   -1    0    0  501  502 -0.00000000000E+00 -0.00000000000E+00 -0.47312485943E+02  0.47312485943E+02  0.00000000000E+00 0.  1.
         25    1    1    2    0    0 -0.10070948558E+03 -0.14056381893E+02  0.58569457992E+03  0.60745627276E+03  0.12500000000E+03 0.  0.
         25    1    1    2    0    0  0.36157076632E+02  0.80326354035E+02  0.20432173736E+03  0.25520977587E+03  0.12500000000E+03 0.  0.
         25    1    1    2    0    0  0.64552408952E+02 -0.66269972142E+02  0.53926170835E+03  0.56123694889E+03  0.12500000000E+03 0.  0.
</event>
<event>
 5    0  0.5648525E-005  0.2790506E+03  0.7546771E-02  0.1096209E+00
         21   -1    0    0  502  501  0.00000000000E+00  0.00000000000E+00  0.16416661120E+04  0.16416661120E+04  0.00000000000E+00 0. -1.
         21   -1    0    0  501  502 -0.00000000000E+00 -0.00000000000E+00 -0.47433040563E+02  0.47433040563E+02  0.00000000000E+00 0. -1.
         25    1    1    2    0    0  0.84454572124E+02 -0.72109915719E+02  0.86615704146E+03  0.88214819343E+03  0.12500000000E+03 0.  0.
         25    1    1    2    0    0 -0.14016439114E+03  0.47832660171E+02  0.53523997987E+03  0.56924586601E+03  0.12500000000E+03 0.  0.
         25    1    1    2    0    0  0.55709819019E+02  0.24277255548E+02  0.19283605008E+03  0.23770509309E+03  0.12500000000E+03 0.  0.
</event>
<event>
 5    0  0.5648525E-005  0.4265818E+03  0.7546771E-02  0.1034945E+00
         21   -1    0    0  502  501  0.00000000000E+00  0.00000000000E+00  0.11899719654E+04  0.11899719654E+04  0.00000000000E+00 0. -1.
         21   -1    0    0  501  502 -0.00000000000E+00 -0.00000000000E+00 -0.15292130971E+03  0.15292130971E+03  0.00000000000E+00 0. -1.
         25    1    1    2    0    0 -0.20062542398E+03 -0.76620293441E+02  0.36808589515E+03  0.44410973455E+03  0.12500000000E+03 0.  0.
         25    1    1    2    0    0 -0.15859348458E+03 -0.21509162299E+02  0.28089510526E+03  0.34661447975E+03  0.12500000000E+03 0.  0.
         25    1    1    2    0    0  0.35921890856E+03  0.98129455740E+02  0.38806965524E+03  0.55216906077E+03  0.12500000000E+03 0.  0.
</event>
<event>
 5    0  0.5648525E-005  0.2676570E+03  0.7546771E-02  0.1102628E+00
         21   -1    0    0  502  501  0.00000000000E+00  0.00000000000E+00  0.42222322744E+03  0.42222322744E+03  0.00000000000E+00 0.  1.
         21   -1    0    0  501  502 -0.00000000000E+00 -0.00000000000E+00 -0.16967392482E+03  0.16967392482E+03  0.00000000000E+00 0.  1.
         25    1    1    2    0    0 -0.30619838506E+02 -0.44227807123E+02  0.49653177562E+02  0.14485893647E+03  0.12500000000E+03 0.  0.
         25    1    1    2    0    0 -0.73657335920E+02  0.12627097513E+03  0.27913499055E+02  0.19435515358E+03  0.12500000000E+03 0.  0.
         25    1    1    2    0    0  0.10427717443E+03 -0.82043168004E+02  0.17498262600E+03  0.25268306221E+03  0.12500000000E+03 0.  0.
</event>
<event>
 5    0  0.5648525E-005  0.2755404E+03  0.7546771E-02  0.1098150E+00
         21   -1    0    0  502  501  0.00000000000E+00  0.00000000000E+00  0.18160824063E+03  0.18160824063E+03  0.00000000000E+00 0. -1.
         21   -1    0    0  501  502 -0.00000000000E+00 -0.00000000000E+00 -0.41805641567E+03  0.41805641567E+03  0.00000000000E+00 0. -1.
         25    1    1    2    0    0 -0.98247797789E+02 -0.84233274520E+02 -0.84673885100E+02  0.19885306416E+03  0.12500000000E+03 0.  0.
         25    1    1    2    0    0  0.11527807053E+03 -0.92946510026E+01  0.15952245039E+02  0.17104063320E+03  0.12500000000E+03 0.  0.
         25    1    1    2    0    0 -0.17030272742E+02  0.93527925522E+02 -0.16772653498E+03  0.22977095895E+03  0.12500000000E+03 0.  0.
</event>
<event>
 5    0  0.5648525E-005  0.2324612E+03  0.7546771E-02  0.1124919E+00
         21   -1    0    0  502  501  0.00000000000E+00  0.00000000000E+00  0.16056697023E+03  0.16056697023E+03  0.00000000000E+00 0. -1.
         21   -1    0    0  501  502 -0.00000000000E+00 -0.00000000000E+00 -0.33654625878E+03  0.33654625878E+03  0.00000000000E+00 0. -1.
         25    1    1    2    0    0 -0.19184272191E+01  0.35817860836E+02  0.37251403746E+02  0.13527478183E+03  0.12500000000E+03 0.  0.
         25    1    1    2    0    0 -0.19579682059E+02 -0.56348195318E+02 -0.36310806449E+02  0.14318504716E+03  0.12500000000E+03 0.  0.
         25    1    1    2    0    0  0.21498109278E+02  0.20530334482E+02 -0.17691988585E+03  0.21865340003E+03  0.12500000000E+03 0.  0.
</event>
<event>
 5    0  0.5648525E-005  0.2614849E+03  0.7546771E-02  0.1106254E+00
         21   -1    0    0  502  501  0.00000000000E+00  0.00000000000E+00  0.32602573609E+03  0.32602573609E+03  0.00000000000E+00 0.  1.
         21   -1    0    0  501  502 -0.00000000000E+00 -0.00000000000E+00 -0.20972065239E+03  0.20972065239E+03  0.00000000000E+00 0.  1.
         25    1    1    2    0    0 -0.49785753910E+02  0.84142464101E+02  0.94231264055E+02  0.18456193184E+03  0.12500000000E+03 0.  0.
         25    1    1    2    0    0 -0.64155228922E+02  0.30564535432E+02 -0.10793632083E+02  0.14419288026E+03  0.12500000000E+03 0.  0.
         25    1    1    2    0    0  0.11394098283E+03 -0.11470699953E+03  0.32867451736E+02  0.20699157638E+03  0.12500000000E+03 0.  0.
</event>
<event>
 5    0  0.5648525E-005  0.4084889E+03  0.7546771E-02  0.1040879E+00
         21   -1    0    0  502  501  0.00000000000E+00  0.00000000000E+00  0.46229184926E+03  0.46229184926E+03  0.00000000000E+00 0.  1.
         21   -1    0    0  501  502 -0.00000000000E+00 -0.00000000000E+00 -0.36094773274E+03  0.36094773274E+03  0.00000000000E+00 0.  1.
         25    1    1    2    0    0 -0.14961877447E+03 -0.21791533928E+03  0.92385218906E+02  0.30664784597E+03  0.12500000000E+03 0.  0.
         25    1    1    2    0    0  0.21196376726E+03  0.11256133544E+02 -0.68005754980E+02  0.25554866833E+03  0.12500000000E+03 0.  0.
         25    1    1    2    0    0 -0.62344992798E+02  0.20665920574E+03  0.76964652597E+02  0.26104306770E+03  0.12500000000E+03 0.  0.
</event>
<event>
 5    0  0.5648525E-005  0.2889895E+03  0.7546771E-02  0.1090878E+00
         21   -1    0    0  502  501  0.00000000000E+00  0.00000000000E+00  0.29506587118E+03  0.29506587118E+03  0.00000000000E+00 0.  1.
         21   -1    0    0  501  502 -0.00000000000E+00 -0.00000000000E+00 -0.28303835474E+03  0.28303835474E+03  0.00000000000E+00 0.  1.
         25    1    1    2    0    0 -0.16451646136E+03 -0.63518960779E+02  0.72086760516E+02  0.22786361157E+03  0.12500000000E+03 0.  0.
         25    1    1    2    0    0  0.11518362564E+03  0.57518285421E+02 -0.10561532858E+03  0.20821915955E+03  0.12500000000E+03 0.  0.
         25    1    1    2    0    0  0.49332835724E+02  0.60006753582E+01  0.45556084515E+02  0.14202145479E+03  0.12500000000E+03 0.  0.
</event>
<event>
 5    0  0.5648525E-005  0.2896140E+03  0.7546771E-02  0.1090551E+00
         21   -1    0    0  502  501  0.00000000000E+00  0.00000000000E+00  0.53220697387E+03  0.53220697387E+03  0.00000000000E+00 0. -1.
         21   -1    0    0  501  502 -0.00000000000E+00 -0.00000000000E+00 -0.15760084787E+03  0.15760084787E+03  0.00000000000E+00 0. -1.
         25    1    1    2    0    0 -0.23917050008E+02  0.62943098939E+02  0.20587621443E+03  0.25008773391E+03  0.12500000000E+03 0.  0.
         25    1    1    2    0    0  0.15128918728E+02  0.26441678389E+02  0.23829445008E+03  0.27080858826E+03  0.12500000000E+03 0.  0.
         25    1    1    2    0    0  0.87881312791E+01 -0.89384777328E+02 -0.69564538506E+02  0.16891149957E+03  0.12500000000E+03 0.  0.
</event>
<event>
 5    0  0.5648525E-005  0.4750893E+03  0.7546771E-02  0.1020494E+00
         21   -1    0    0  502  501  0.00000000000E+00  0.00000000000E+00  0.29344664714E+03  0.29344664714E+03  0.00000000000E+00 0. -1.
         21   -1    0    0  501  502 -0.00000000000E+00 -0.00000000000E+00 -0.76916808821E+03  0.76916808821E+03  0.00000000000E+00 0. -1.
         25    1    1    2    0    0 -0.94070926282E+02 -0.99997751067E+02 -0.67011549431E+03  0.69536225459E+03  0.12500000000E+03 0.  0.
         25    1    1    2    0    0  0.65076182900E+02  0.34976079358E+02  0.29028676344E+02  0.14807396719E+03  0.12500000000E+03 0.  0.
         25    1    1    2    0    0  0.28994743382E+02  0.65021671708E+02  0.16536537690E+03  0.21917851358E+03  0.12500000000E+03 0.  0.
</event>
<event>
 5    0  0.6474198E-005  0.2937579E+03  0.7546771E-02  0.1088403E+00
         21   -1    0    0  502  501  0.00000000000E+00  0.00000000000E+00  0.57418773125E+03  0.57418773125E+03  0.00000000000E+00 0.  1.
         21   -1    0    0  501  502 -0.00000000000E+00 -0.00000000000E+00 -0.15028828563E+03  0.15028828563E+03  0.00000000000E+00 0.  1.
         25    1    1    2    0    0 -0.12277290225E+03 -0.19476643134E+02  0.12684551974E+03  0.21718036522E+03  0.12500000000E+03 0.  0.
         25    1    1    2    0    0 -0.66272035162E+02  0.30096599821E+02  0.15159993284E+02  0.14543938037E+03  0.12500000000E+03 0.  0.
         25    1    1    2    0    0  0.18904493742E+03 -0.10619956688E+02  0.28189393260E+03  0.36185627130E+03  0.12500000000E+03 0.  0.
</event>
<event>
 5    0  0.5648525E-005  0.3277168E+03  0.7546771E-02  0.1072152E+00
         21   -1    0    0  502  501  0.00000000000E+00  0.00000000000E+00  0.64359148731E+03  0.64359148731E+03  0.00000000000E+00 0. -1.
         21   -1    0    0  501  502 -0.00000000000E+00 -0.00000000000E+00 -0.16687341257E+03  0.16687341257E+03  0.00000000000E+00 0. -1.
         25    1    1    2    0    0 -0.48259653410E+01 -0.19685232063E+01  0.77220152983E+02  0.14702080483E+03  0.12500000000E+03 0.  0.
         25    1    1    2    0    0 -0.83255391959E+02 -0.21599358741E+03  0.18652903175E+03  0.32249460426E+03  0.12500000000E+03 0.  0.
         25    1    1    2    0    0  0.88081357300E+02  0.21796211061E+03  0.21296889000E+03  0.34094949079E+03  0.12500000000E+03 0.  0.
</event>
<event>
 5    0  0.5648525E-005  0.3076116E+03  0.7546771E-02  0.1081496E+00
         21   -1    0    0  502  501  0.00000000000E+00  0.00000000000E+00  0.23716028349E+03  0.23716028349E+03  0.00000000000E+00 0.  1.
         21   -1    0    0  501  502 -0.00000000000E+00 -0.00000000000E+00 -0.39899129107E+03  0.39899129107E+03  0.00000000000E+00 0.  1.
         25    1    1    2    0    0 -0.82053577790E+02 -0.11082345708E+03  0.10640754097E+03  0.21438794985E+03  0.12500000000E+03 0.  0.
         25    1    1    2    0    0  0.45665608068E+02  0.42508520571E+02 -0.31699622064E+02  0.14325567396E+03  0.12500000000E+03 0.  0.
         25    1    1    2    0    0  0.36387969722E+02  0.68314936509E+02 -0.23653892649E+03  0.27850795075E+03  0.12500000000E+03 0.  0.
</event>
<event>
 5    0  0.5648525E-005  0.3243406E+03  0.7546771E-02  0.1073669E+00
         21   -1    0    0  502  501  0.00000000000E+00  0.00000000000E+00  0.46141819217E+03  0.46141819217E+03  0.00000000000E+00 0.  1.
         21   -1    0    0  501  502 -0.00000000000E+00 -0.00000000000E+00 -0.22798583289E+03  0.22798583289E+03  0.00000000000E+00 0.  1.
         25    1    1    2    0    0 -0.32956783581E+02  0.11638607907E+03  0.24331588047E+02  0.17563853553E+03  0.12500000000E+03 0.  0.
         25    1    1    2    0    0 -0.13222474411E+02 -0.23317513982E+03  0.20762150874E+03  0.33656674011E+03  0.12500000000E+03 0.  0.
         25    1    1    2    0    0  0.46179257992E+02  0.11678906075E+03  0.14792624985E+01  0.17719874942E+03  0.12500000000E+03 0.  0.
</event>
<event>
 5    0  0.5648525E-005  0.2625536E+03  0.7546771E-02  0.1105619E+00
         21   -1    0    0  502  501  0.00000000000E+00  0.00000000000E+00  0.30832380064E+02  0.30832380064E+02  0.00000000000E+00 0.  1.
         21   -1    0    0  501  502 -0.00000000000E+00 -0.00000000000E+00 -0.22357784877E+04  0.22357784877E+04  0.00000000000E+00 0.  1.
         25    1    1    2    0    0  0.13891650132E+02  0.19322929919E+02 -0.65649646875E+03  0.66871441367E+03  0.12500000000E+03 0.  0.
         25    1    1    2    0    0  0.35725973449E+02  0.11934138098E+03 -0.46501086581E+03  0.49737190885E+03  0.12500000000E+03 0.  0.
         25    1    1    2    0    0 -0.49617623581E+02 -0.13866431090E+03 -0.10834387731E+04  0.11005245452E+04  0.12500000000E+03 0.  0.
</event>
<event>
 5    0  0.5648525E-005  0.2520517E+03  0.7546771E-02  0.1112015E+00
         21   -1    0    0  502  501  0.00000000000E+00  0.00000000000E+00  0.76073927394E+03  0.76073927394E+03  0.00000000000E+00 0. -1.
         21   -1    0    0  501  502 -0.00000000000E+00 -0.00000000000E+00 -0.83510918469E+02  0.83510918469E+02  0.00000000000E+00 0. -1.
         25    1    1    2    0    0 -0.59925805437E+02  0.83302384168E+02  0.17546640460E+03  0.23862910239E+03  0.12500000000E+03 0.  0.
         25    1    1    2    0    0  0.45469973310E+02 -0.14639956278E+03  0.27576291292E+03  0.33936784555E+03  0.12500000000E+03 0.  0.
         25    1    1    2    0    0  0.14455832127E+02  0.63097178610E+02  0.22599903795E+03  0.26625324446E+03  0.12500000000E+03 0.  0.
</event>
<event>
 5    0  0.5648525E-005  0.2731669E+03  0.7546771E-02  0.1099481E+00
         21   -1    0    0  502  501  0.00000000000E+00  0.00000000000E+00  0.14987874600E+03  0.14987874600E+03  0.00000000000E+00 0.  1.
         21   -1    0    0  501  502 -0.00000000000E+00 -0.00000000000E+00 -0.49787003225E+03  0.49787003225E+03  0.00000000000E+00 0.  1.
         25    1    1    2    0    0  0.52266734526E+02  0.50267308223E+02 -0.19631107074E+03  0.24376556424E+03  0.12500000000E+03 0.  0.
         25    1    1    2    0    0 -0.85413438937E+02  0.68137704475E+02 -0.15708990328E+03  0.22856167665E+03  0.12500000000E+03 0.  0.
         25    1    1    2    0    0  0.33146704411E+02 -0.11840501270E+03  0.54096877662E+01  0.17542153735E+03  0.12500000000E+03 0.  0.
</event>
<event>
 5    0  0.5648525E-005  0.2685932E+03  0.7546771E-02  0.1102087E+00
         21   -1    0    0  502  501  0.00000000000E+00  0.00000000000E+00  0.81815349183E+02  0.81815349183E+02  0.00000000000E+00 0. -1.
         21   -1    0    0  501  502 -0.00000000000E+00 -0.00000000000E+00 -0.88176987306E+03  0.88176987306E+03  0.00000000000E+00 0. -1.
         25    1    1    2    0    0 -0.49078085578E+02  0.69553328540E+02 -0.33186054320E+03  0.36469541281E+03  0.12500000000E+03 0.  0.
         25    1    1    2    0    0 -0.94293805874E+02 -0.92675228509E+02 -0.23054425646E+03  0.29369316300E+03  0.12500000000E+03 0.  0.
         25    1    1    2    0    0  0.14337189145E+03  0.23121899969E+02 -0.23754972422E+03  0.30519664643E+03  0.12500000000E+03 0.  0.
</event>
<event>
 5    0  0.5648525E-005  0.2295934E+03  0.7546771E-02  0.1126926E+00
         21   -1    0    0  502  501  0.00000000000E+00  0.00000000000E+00  0.54917496197E+03  0.54917496197E+03  0.00000000000E+00 0. -1.
         21   -1    0    0  501  502 -0.00000000000E+00 -0.00000000000E+00 -0.95986019780E+02  0.95986019780E+02  0.00000000000E+00 0. -1.
         25    1    1    2    0    0 -0.47661139947E+02 -0.64025803363E+02  0.22322415407E+03  0.26800169910E+03  0.12500000000E+03 0.  0.
         25    1    1    2    0    0  0.10728640088E+02  0.86927348637E+02  0.65579905251E+02  0.16612402485E+03  0.12500000000E+03 0.  0.
         25    1    1    2    0    0  0.36932499860E+02 -0.22901545274E+02  0.16438488287E+03  0.21103525781E+03  0.12500000000E+03 0.  0.
</event>
<event>
 5    0  0.5648525E-005  0.2572121E+03  0.7546771E-02  0.1108830E+00
         21   -1    0    0  502  501  0.00000000000E+00  0.00000000000E+00  0.80537100159E+03  0.80537100159E+03  0.00000000000E+00 0.  1.
         21   -1    0    0  501  502 -0.00000000000E+00 -0.00000000000E+00 -0.82146076858E+02  0.82146076858E+02  0.00000000000E+00 0.  1.
         25    1    1    2    0    0  0.60183250742E+02 -0.87245386676E+02  0.44686039062E+03  0.47596532423E+03  0.12500000000E+03 0.  0.
         25    1    1    2    0    0 -0.90852266581E+02  0.43395757423E+02  0.19701345311E+03  0.25411931609E+03  0.12500000000E+03 0.  0.
         25    1    1    2    0    0  0.30669015839E+02  0.43849629253E+02  0.79351081008E+02  0.15743243813E+03  0.12500000000E+03 0.  0.
</event>
<event>
 5    0  0.5648525E-005  0.4067286E+03  0.7546771E-02  0.1041474E+00
         21   -1    0    0  502  501  0.00000000000E+00  0.00000000000E+00  0.25551112034E+03  0.25551112034E+03  0.00000000000E+00 0. -1.
         21   -1    0    0  501  502 -0.00000000000E+00 -0.00000000000E+00 -0.64744018324E+03  0.64744018324E+03  0.00000000000E+00 0. -1.
         25    1    1    2    0    0  0.33037079036E+03  0.55131627229E+02 -0.15432894108E+03  0.38939283186E+03  0.12500000000E+03 0.  0.
         25    1    1    2    0    0 -0.89351950396E+02 -0.61616934375E+02 -0.22409399020E+02  0.16705567577E+03  0.12500000000E+03 0.  0.
         25    1    1    2    0    0 -0.24101883997E+03  0.64853071463E+01 -0.21519072281E+03  0.34650279596E+03  0.12500000000E+03 0.  0.
</event>
<event>
 5    0  0.5648525E-005  0.2903801E+03  0.7546771E-02  0.1090151E+00
         21   -1    0    0  502  501  0.00000000000E+00  0.00000000000E+00  0.38131632227E+03  0.38131632227E+03  0.00000000000E+00 0.  1.
         21   -1    0    0  501  502 -0.00000000000E+00 -0.00000000000E+00 -0.22113035964E+03  0.22113035964E+03  0.00000000000E+00 0.  1.
         25    1    1    2    0    0 -0.98873733812E+01  0.10222176901E+03  0.12694165816E+03  0.20563617091E+03  0.12500000000E+03 0.  0.
         25    1    1    2    0    0  0.96206086886E+02 -0.43518455611E+02  0.12857821932E+03  0.20810292073E+03  0.12500000000E+03 0.  0.
         25    1    1    2    0    0 -0.86318713504E+02 -0.58703313398E+02 -0.95333914840E+02  0.18870759027E+03  0.12500000000E+03 0.  0.
</event>
<event>
 5    0  0.5648525E-005  0.3996422E+03  0.7546771E-02  0.1043904E+00
         21   -1    0    0  502  501  0.00000000000E+00  0.00000000000E+00  0.10378808156E+04  0.10378808156E+04  0.00000000000E+00 0.  1.
         21   -1    0    0  501  502 -0.00000000000E+00 -0.00000000000E+00 -0.15388459031E+03  0.15388459031E+03  0.00000000000E+00 0. -1.
         25    1    1    2    0    0  0.75727062514E+01 -0.10131316859E+03  0.17770298085E+03  0.23984381045E+03  0.12500000000E+03 0.  0.
         25    1    1    2    0    0 -0.59245856950E+02 -0.22224281520E+03  0.43842914371E+03  0.51063397315E+03  0.12500000000E+03 0.  0.
         25    1    1    2    0    0  0.51673150698E+02  0.32355598379E+03  0.26786410073E+03  0.44128762231E+03  0.12500000000E+03 0.  0.
</event>
<event>
 5    0  0.5648525E-005  0.4121154E+03  0.7546771E-02  0.1039663E+00
         21   -1    0    0  502  501  0.00000000000E+00  0.00000000000E+00  0.41093139132E+03  0.41093139132E+03  0.00000000000E+00 0.  1.
         21   -1    0    0  501  502 -0.00000000000E+00 -0.00000000000E+00 -0.41330282315E+03  0.41330282315E+03  0.00000000000E+00 0.  1.
         25    1    1    2    0    0 -0.51197020361E+02  0.68618482626E+02  0.20065118587E+03  0.25142698631E+03  0.12500000000E+03 0.  0.
         25    1    1    2    0    0 -0.59988648688E+02 -0.82517218507E+01 -0.32749071208E+03  0.35572727670E+03  0.12500000000E+03 0.  0.
         25    1    1    2    0    0  0.11118566905E+03 -0.60366760775E+02  0.12446809439E+03  0.21707995147E+03  0.12500000000E+03 0.  0.
</event>
<event>
 5    0  0.5648525E-005  0.3074464E+03  0.7546771E-02  0.1081576E+00
         21   -1    0    0  502  501  0.00000000000E+00  0.00000000000E+00  0.47076470135E+03  0.47076470135E+03  0.00000000000E+00 0.  1.
         21   -1    0    0  501  502 -0.00000000000E+00 -0.00000000000E+00 -0.20078664438E+03  0.20078664438E+03  0.00000000000E+00 0.  1.
         25    1    1    2    0    0 -0.33538244543E+02 -0.11153436539E+03 -0.22230662176E+02  0.17229025176E+03  0.12500000000E+03 0.  0.
         25    1    1    2    0    0  0.15922274604E+03  0.85321255588E+02  0.11806289717E+03  0.24939015057E+03  0.12500000000E+03 0.  0.
         25    1    1    2    0    0 -0.12568450150E+03  0.26213109807E+02  0.17414582198E+03  0.24987094340E+03  0.12500000000E+03 0.  0.
</event>
<event>
 5    0  0.5648525E-005  0.2530262E+03  0.7546771E-02  0.1111407E+00
         21   -1    0    0  502  501  0.00000000000E+00  0.00000000000E+00  0.83717328720E+02  0.83717328720E+02  0.00000000000E+00 0.  1.
         21   -1    0    0  501  502 -0.00000000000E+00 -0.00000000000E+00 -0.76474345766E+03  0.76474345766E+03  0.00000000000E+00 0.  1.
         25    1    1    2    0    0  0.24788567194E+02  0.13612933856E+03 -0.28030458270E+03  0.33666203968E+03  0.12500000000E+03 0.  0.
         25    1    1    2    0    0  0.44975542230E+01 -0.24149905194E+02 -0.26484272448E+03  0.29388792868E+03  0.12500000000E+03 0.  0.
         25    1    1    2    0    0 -0.29286121417E+02 -0.11197943337E+03 -0.13587882176E+03  0.21791081802E+03  0.12500000000E+03 0.  0.
</event>
<event>
 5    0  0.5648525E-005  0.3998635E+03  0.7546771E-02  0.1043827E+00
         21   -1    0    0  502  501  0.00000000000E+00  0.00000000000E+00  0.65957605923E+03  0.65957605923E+03  0.00000000000E+00 0.  1.
         21   -1    0    0  501  502 -0.00000000000E+00 -0.00000000000E+00 -0.24241449754E+03  0.24241449754E+03  0.00000000000E+00 0.  1.
         25    1    1    2    0    0 -0.48220877005E+02  0.95974841339E+02  0.51750089778E+03  0.54311011991E+03  0.12500000000E+03 0.  0.
         25    1    1    2    0    0 -0.59890065560E+02  0.11462581424E+02 -0.31767550080E+01  0.13911614751E+03  0.12500000000E+03 0.  0.
         25    1    1    2    0    0  0.10811094257E+03 -0.10743742276E+03 -0.97162581081E+02  0.21976428935E+03  0.12500000000E+03 0.  0.
</event>
<event>
 5    0  0.6166574E-005  0.3632239E+03  0.7546771E-02  0.1057315E+00
         21   -1    0    0  502  501  0.00000000000E+00  0.00000000000E+00  0.74497176103E+03  0.74497176103E+03  0.00000000000E+00 0. -1.
         21   -1    0    0  501  502 -0.00000000000E+00 -0.00000000000E+00 -0.17709615283E+03  0.17709615283E+03  0.00000000000E+00 0. -1.
         25    1    1    2    0    0  0.11028423662E+03  0.18851897572E+03  0.13646383601E+03  0.28626804850E+03  0.12500000000E+03 0.  0.
         25    1    1    2    0    0 -0.69879075410E+02 -0.12017193175E+03  0.78659501129E+01  0.18711293791E+03  0.12500000000E+03 0.  0.
         25    1    1    2    0    0 -0.40405161215E+02 -0.68347043965E+02  0.42354582208E+03  0.44868692746E+03  0.12500000000E+03 0.  0.
</event>
<event>
 5    0  0.9052303E-005  0.3172348E+03  0.7546771E-02  0.1076929E+00
         21   -1    0    0  502  501  0.00000000000E+00  0.00000000000E+00  0.10780566575E+03  0.10780566575E+03  0.00000000000E+00 0. -1.
         21   -1    0    0  501  502 -0.00000000000E+00 -0.00000000000E+00 -0.93351213795E+03  0.93351213795E+03  0.00000000000E+00 0. -1.
         25    1    1    2    0    0  0.19018013479E+03 -0.31511585902E+02 -0.32731360117E+03  0.39990080923E+03  0.12500000000E+03 0.  0.
         25    1    1    2    0    0 -0.10968762595E+03  0.16198629216E+02 -0.58836940878E+02  0.17714557993E+03  0.12500000000E+03 0.  0.
         25    1    1    2    0    0 -0.80492508838E+02  0.15312956687E+02 -0.43955593015E+03  0.46427141454E+03  0.12500000000E+03 0.  0.
</event>
<event>
 5    0  0.5648525E-005  0.3725776E+03  0.7546771E-02  0.1053712E+00
         21   -1    0    0  502  501  0.00000000000E+00  0.00000000000E+00  0.46299893008E+03  0.46299893008E+03  0.00000000000E+00 0.  1.
         21   -1    0    0  501  502 -0.00000000000E+00 -0.00000000000E+00 -0.29981506175E+03  0.29981506175E+03  0.00000000000E+00 0.  1.
         25    1    1    2    0    0 -0.99947023027E+02  0.31755271533E+02  0.12734844929E+03  0.20697930384E+03  0.12500000000E+03 0.  0.
         25    1    1    2    0    0  0.17541807588E+03 -0.17136472603E+03  0.16032575579E+03  0.31853841000E+03  0.12500000000E+03 0.  0.
         25    1    1    2    0    0 -0.75471052855E+02  0.13960945450E+03 -0.12449033675E+03  0.23729627799E+03  0.12500000000E+03 0.  0.
</event>
<event>
 5    0  0.5648525E-005  0.2972073E+03  0.7546771E-02  0.1086645E+00
         21   -1    0    0  502  501  0.00000000000E+00  0.00000000000E+00  0.16416295877E+03  0.16416295877E+03  0.00000000000E+00 0. -1.
         21   -1    0    0  501  502 -0.00000000000E+00 -0.00000000000E+00 -0.53807633553E+03  0.53807633553E+03  0.00000000000E+00 0. -1.
         25    1    1    2    0    0 -0.42363099036E+02  0.41870270769E+02 -0.14467038157E+03  0.20025551437E+03  0.12500000000E+03 0.  0.
         25    1    1    2    0    0 -0.15501558382E+03  0.15164214260E+02 -0.14639671970E+03  0.24762226104E+03  0.12500000000E+03 0.  0.
         25    1    1    2    0    0  0.19737868286E+03 -0.57034485029E+02 -0.82846275495E+02  0.25436151889E+03  0.12500000000E+03 0.  0.
</event>
<event>
 5    0  0.5648525E-005  0.3029184E+03  0.7546771E-02  0.1083791E+00
         21   -1    0    0  502  501  0.00000000000E+00  0.00000000000E+00  0.70754792043E+03  0.70754792043E+03  0.00000000000E+00 0. -1.
         21   -1    0    0  501  502 -0.00000000000E+00 -0.00000000000E+00 -0.12968673186E+03  0.12968673186E+03  0.00000000000E+00 0. -1.
         25    1    1    2    0    0 -0.16103616794E+03 -0.11214299354E+03  0.28359073881E+03  0.36682067216E+03  0.12500000000E+03 0.  0.
         25    1    1    2    0    0  0.10802884544E+03  0.14218678916E+02  0.47994725604E+02  0.17262936008E+03  0.12500000000E+03 0.  0.
         25    1    1    2    0    0  0.53007322503E+02  0.97924314621E+02  0.24627572415E+03  0.29778462005E+03  0.12500000000E+03 0.  0.
</event>
<event>
 5    0  0.5648525E-005  0.3099165E+03  0.7546771E-02  0.1080386E+00
         21   -1    0    0  502  501  0.00000000000E+00  0.00000000000E+00  0.77732315549E+02  0.77732315549E+02  0.00000000000E+00 0.  1.
         21   -1    0    0  501  502 -0.00000000000E+00 -0.00000000000E+00 -0.12356283901E+04  0.12356283901E+04  0.00000000000E+00 0.  1.
         25    1    1    2    0    0  0.25714040070E+02 -0.10383397336E+03 -0.66431486472E+03  0.68438435500E+03  0.12500000000E+03 0.  0.
         25    1    1    2    0    0 -0.40935314406E+02  0.14739857145E+03 -0.44547149576E+03  0.48731087856E+03  0.12500000000E+03 0.  0.
         25    1    1    2    0    0  0.15221274336E+02 -0.43564598083E+02 -0.48109714099E+02  0.14166547211E+03  0.12500000000E+03 0.  0.
</event>
<event>
 5    0  0.5648525E-005  0.4529786E+03  0.7546771E-02  0.1026837E+00
         21   -1    0    0  502  501  0.00000000000E+00  0.00000000000E+00  0.13973767170E+03  0.13973767170E+03  0.00000000000E+00 0.  1.
         21   -1    0    0  501  502 -0.00000000000E+00 -0.00000000000E+00 -0.14683917676E+04  0.14683917676E+04  0.00000000000E+00 0.  1.
         25    1    1    2    0    0 -0.13668033281E+03  0.10579405459E+02 -0.12312883633E+03  0.22266375442E+03  0.12500000000E+03 0.  0.
         25    1    1    2    0    0  0.24244668809E+03 -0.58974179576E+02 -0.15119803338E+03  0.31740226168E+03  0.12500000000E+03 0.  0.
         25    1    1    2    0    0 -0.10576635527E+03  0.48394774117E+02 -0.10543272262E+04  0.10680634232E+04  0.12500000000E+03 0.  0.
</event>
<event>
 5    0  0.6217456E-005  0.2946773E+03  0.7546771E-02  0.1087932E+00
         21   -1    0    0  502  501  0.00000000000E+00  0.00000000000E+00  0.58111088701E+03  0.58111088701E+03  0.00000000000E+00 0.  1.
         21   -1    0    0  501  502 -0.00000000000E+00 -0.00000000000E+00 -0.14942883292E+03  0.14942883292E+03  0.00000000000E+00 0.  1.
         25    1    1    2    0    0 -0.10337340745E+03  0.42283194625E+02  0.27002949769E+02  0.16978836595E+03  0.12500000000E+03 0.  0.
         25    1    1    2    0    0  0.52561304381E+02 -0.83302076805E+02  0.32066842753E+02  0.16234287518E+03  0.12500000000E+03 0.  0.
         25    1    1    2    0    0  0.50812103065E+02  0.41018882181E+02  0.37261226157E+03  0.39840847880E+03  0.12500000000E+03 0.  0.
</event>
<event>
 5    0  0.5648525E-005  0.3419455E+03  0.7546771E-02  0.1065970E+00
         21   -1    0    0  502  501  0.00000000000E+00  0.00000000000E+00  0.11033992021E+03  0.11033992021E+03  0.00000000000E+00 0.  1.
         21   -1    0    0  501  502 -0.00000000000E+00 -0.00000000000E+00 -0.10596957191E+04  0.10596957191E+04  0.00000000000E+00 0.  1.
         25    1    1    2    0    0 -0.78721417049E+02  0.32839725331E+02 -0.62251880151E+03  0.64064823991E+03  0.12500000000E+03 0.  0.
         25    1    1    2    0    0  0.16771932338E+03  0.80678361171E+02 -0.19791451702E+03  0.29905505420E+03  0.12500000000E+03 0.  0.
         25    1    1    2    0    0 -0.88997906336E+02 -0.11351808650E+03 -0.12892248031E+03  0.23033234515E+03  0.12500000000E+03 0.  0.
</event>
<event>
 5    0  0.5648525E-005  0.3512624E+03  0.7546771E-02  0.1062098E+00
         21   -1    0    0  502  501  0.00000000000E+00  0.00000000000E+00  0.74409684930E+03  0.74409684930E+03  0.00000000000E+00 0. -1.
         21   -1    0    0  501  502 -0.00000000000E+00 -0.00000000000E+00 -0.16581886749E+03  0.16581886749E+03  0.00000000000E+00 0. -1.
         25    1    1    2    0    0 -0.87614747641E+01 -0.95858062251E+02  0.33439445943E+03  0.36974340567E+03  0.12500000000E+03 0.  0.
         25    1    1    2    0    0 -0.81426656001E+02  0.86561793532E+02  0.32337305841E+03  0.36649471936E+03  0.12500000000E+03 0.  0.
         25    1    1    2    0    0  0.90188130765E+02  0.92962687186E+01 -0.79489536036E+02  0.17367759177E+03  0.12500000000E+03 0.  0.
</event>
<event>
 5    0  0.5648525E-005  0.3276987E+03  0.7546771E-02  0.1072160E+00
         21   -1    0    0  502  501  0.00000000000E+00  0.00000000000E+00  0.16787124723E+03  0.16787124723E+03  0.00000000000E+00 0. -1.
         21   -1    0    0  501  502 -0.00000000000E+00 -0.00000000000E+00 -0.63969525745E+03  0.63969525745E+03  0.00000000000E+00 0. -1.
         25    1    1    2    0    0 -0.36216341441E+02  0.10427715203E+03  0.14985789376E+02  0.16743632134E+03  0.12500000000E+03 0.  0.
         25    1    1    2    0    0 -0.52912987907E+02 -0.68519586303E+02 -0.45444890550E+03  0.47921135808E+03  0.12500000000E+03 0.  0.
         25    1    1    2    0    0  0.89129329348E+02 -0.35757565722E+02 -0.32360894086E+02  0.16091882526E+03  0.12500000000E+03 0.  0.
</event>
<event>
 5    0  0.5648525E-005  0.3308054E+03  0.7546771E-02  0.1070781E+00
         21   -1    0    0  502  501  0.00000000000E+00  0.00000000000E+00  0.50516230264E+03  0.50516230264E+03  0.00000000000E+00 0.  1.
         21   -1    0    0  501  502 -0.00000000000E+00 -0.00000000000E+00 -0.21662784553E+03  0.21662784553E+03  0.00000000000E+00 0.  1.
         25    1    1    2    0    0 -0.19102416458E+03 -0.11821985476E+03  0.17212546144E+02  0.25765759693E+03  0.12500000000E+03 0.  0.
         25    1    1    2    0    0  0.27162410444E+02  0.96509711406E+02  0.68850324475E+02  0.17440552777E+03  0.12500000000E+03 0.  0.
         25    1    1    2    0    0  0.16386175413E+03  0.21710143352E+02  0.20247158649E+03  0.28972702347E+03  0.12500000000E+03 0.  0.
</event>
<event>
 5    0  0.5648525E-005  0.2823098E+03  0.7546771E-02  0.1094434E+00
         21   -1    0    0  502  501  0.00000000000E+00  0.00000000000E+00  0.64174925851E+03  0.64174925851E+03  0.00000000000E+00 0.  1.
         21   -1    0    0  501  502 -0.00000000000E+00 -0.00000000000E+00 -0.12419000224E+03  0.12419000224E+03  0.00000000000E+00 0.  1.
         25    1    1    2    0    0 -0.74965207696E+02 -0.48414739378E+02  0.10943895793E+03  0.18858858626E+03  0.12500000000E+03 0.  0.
         25    1    1    2    0    0 -0.51047886130E+02 -0.63549921342E+02  0.41460621908E+02  0.15488209177E+03  0.12500000000E+03 0.  0.
         25    1    1    2    0    0  0.12601309383E+03  0.11196466072E+03  0.36665967644E+03  0.42246858273E+03  0.12500000000E+03 0.  0.
</event>
<event>
 5    0  0.5648525E-005  0.4304452E+03  0.7546771E-02  0.1033719E+00
         21   -1    0    0  502  501  0.00000000000E+00  0.00000000000E+00  0.17927802065E+03  0.17927802065E+03  0.00000000000E+00 0. -1.
         21   -1    0    0  501  502 -0.00000000000E+00 -0.00000000000E+00 -0.10334959130E+04  0.10334959130E+04  0.00000000000E+00 0. -1.
         25    1    1    2    0    0 -0.15310612624E+03 -0.17084163087E+03 -0.60801121756E+02  0.26823520488E+03  0.12500000000E+03 0.  0.
         25    1    1    2    0    0  0.20979006946E+03  0.53599429221E+02 -0.18808753028E+03  0.31286848851E+03  0.12500000000E+03 0.  0.
         25    1    1    2    0    0 -0.56683943226E+02  0.11724220165E+03 -0.60532924034E+03  0.63167024030E+03  0.12500000000E+03 0.  0.
</event>
<event>
 5    0  0.5648525E-005  0.2681531E+03  0.7546771E-02  0.1102341E+00
         21   -1    0    0  502  501  0.00000000000E+00  0.00000000000E+00  0.97545058036E+02  0.97545058036E+02  0.00000000000E+00 0.  1.
         21   -1    0    0  501  502 -0.00000000000E+00 -0.00000000000E+00 -0.73715775913E+03  0.73715775913E+03  0.00000000000E+00 0.  1.
         25    1    1    2    0    0 -0.14461493802E+03  0.86090389530E+02 -0.22666312843E+03  0.30874942794E+03  0.12500000000E+03 0.  0.
         25    1    1    2    0    0  0.79087982366E+02 -0.27609696829E+02 -0.10910858487E+03  0.18586793055E+03  0.12500000000E+03 0.  0.
         25    1    1    2    0    0  0.65526955653E+02 -0.58480692701E+02 -0.30384098779E+03  0.34008545867E+03  0.12500000000E+03 0.  0.
</event>
<event>
 5    0  0.5648525E-005  0.3861235E+03  0.7546771E-02  0.1048693E+00
         21   -1    0    0  502  501  0.00000000000E+00  0.00000000000E+00  0.26716561811E+03  0.26716561811E+03  0.00000000000E+00 0.  1.
         21   -1    0    0  501  502 -0.00000000000E+00 -0.00000000000E+00 -0.55804839041E+03  0.55804839041E+03  0.00000000000E+00 0.  1.
         25    1    1    2    0    0  0.20712992744E+03 -0.14292714650E+03 -0.30349143534E+03  0.41359766364E+03  0.12500000000E+03 0.  0.
         25    1    1    2    0    0 -0.12843072234E+03  0.18518723045E+03  0.40462086952E+01  0.25774043642E+03  0.12500000000E+03 0.  0.
         25    1    1    2    0    0 -0.78699205101E+02 -0.42260083942E+02  0.85624543405E+01  0.15387590845E+03  0.12500000000E+03 0.  0.
</event>
<event>
 5    0  0.5648525E-005  0.2904088E+03  0.7546771E-02  0.1090136E+00
         21   -1    0    0  502  501  0.00000000000E+00  0.00000000000E+00  0.14554994283E+03  0.14554994283E+03  0.00000000000E+00 0.  1.
         21   -1    0    0  501  502 -0.00000000000E+00 -0.00000000000E+00 -0.57943859925E+03  0.57943859925E+03  0.00000000000E+00 0.  1.
         25    1    1    2    0    0  0.11021632265E+03 -0.12741916703E+03 -0.21996410584E+03  0.30396132939E+03  0.12500000000E+03 0.  0.
         25    1    1    2    0    0  0.24712635659E+02  0.12439052696E+02 -0.19053815304E+02  0.12943528217E+03  0.12500000000E+03 0.  0.
         25    1    1    2    0    0 -0.13492895831E+03  0.11498011434E+03 -0.19487073527E+03  0.29159193052E+03  0.12500000000E+03 0.  0.
</event>
<event>
 5    0  0.5648525E-005  0.2341007E+03  0.7546771E-02  0.1123786E+00
         21   -1    0    0  502  501  0.00000000000E+00  0.00000000000E+00  0.73233615119E+03  0.73233615119E+03  0.00000000000E+00 0. -1.
         21   -1    0    0  501  502 -0.00000000000E+00 -0.00000000000E+00 -0.74833309259E+02  0.74833309259E+02  0.00000000000E+00 0. -1.
         25    1    1    2    0    0 -0.30752717187E+02 -0.86661188284E+01  0.16320337602E+03  0.20804127757E+03  0.12500000000E+03 0.  0.
         25    1    1    2    0    0  0.78449325113E+02  0.98373441286E+02  0.26691390427E+03  0.32046788116E+03  0.12500000000E+03 0.  0.
         25    1    1    2    0    0 -0.47696607926E+02 -0.89707322457E+02  0.22738556164E+03  0.27866030171E+03  0.12500000000E+03 0.  0.
</event>
<event>
 5    0  0.5648525E-005  0.2552156E+03  0.7546771E-02  0.1110052E+00
         21   -1    0    0  502  501  0.00000000000E+00  0.00000000000E+00  0.57873422563E+03  0.57873422563E+03  0.00000000000E+00 0. -1.
         21   -1    0    0  501  502 -0.00000000000E+00 -0.00000000000E+00 -0.11254735112E+03  0.11254735112E+03  0.00000000000E+00 0. -1.
         25    1    1    2    0    0 -0.58098907807E+02  0.10064360716E+03  0.31752082850E+03  0.36048452849E+03  0.12500000000E+03 0.  0.
         25    1    1    2    0    0  0.60777930509E+01 -0.16533509170E+02  0.24125286741E+02  0.12851974928E+03  0.12500000000E+03 0.  0.
         25    1    1    2    0    0  0.52021114756E+02 -0.84110097988E+02  0.12454075927E+03  0.20227729898E+03  0.12500000000E+03 0.  0.
</event>
<event>
 5    0  0.5648525E-005  0.3585888E+03  0.7546771E-02  0.1059144E+00
         21   -1    0    0  502  501  0.00000000000E+00  0.00000000000E+00  0.41757706349E+03  0.41757706349E+03  0.00000000000E+00 0. -1.
         21   -1    0    0  501  502 -0.00000000000E+00 -0.00000000000E+00 -0.30793337004E+03  0.30793337004E+03  0.00000000000E+00 0. -1.
         25    1    1    2    0    0 -0.66919624906E+02 -0.18173065590E+02  0.34451903642E+02  0.14703887301E+03  0.12500000000E+03 0.  0.
         25    1    1    2    0    0  0.14178974326E+03  0.15778652161E+03 -0.14018083116E+03  0.28333122511E+03  0.12500000000E+03 0.  0.
         25    1    1    2    0    0 -0.74870118353E+02 -0.13961345602E+03  0.21537262097E+03  0.29514033541E+03  0.12500000000E+03 0.  0.
</event>
<event>
 5    0  0.5648525E-005  0.2238561E+03  0.7546771E-02  0.1131040E+00
         21   -1    0    0  502  501  0.00000000000E+00  0.00000000000E+00  0.82712705266E+02  0.82712705266E+02  0.00000000000E+00 0. -1.
         21   -1    0    0  501  502 -0.00000000000E+00 -0.00000000000E+00 -0.60585092375E+03  0.60585092375E+03  0.00000000000E+00 0. -1.
         25    1    1    2    0    0  0.76502345736E+02 -0.15777094787E+02 -0.17810850847E+03  0.23119075763E+03  0.12500000000E+03 0.  0.
         25    1    1    2    0    0 -0.37187415558E+02 -0.27376602235E+02 -0.71992042465E+02  0.15146034598E+03  0.12500000000E+03 0.  0.
         25    1    1    2    0    0 -0.39314930178E+02  0.43153697022E+02 -0.27303766755E+03  0.30591252541E+03  0.12500000000E+03 0.  0.
</event>
<event>
 5    0  0.5648525E-005  0.2267529E+03  0.7546771E-02  0.1128946E+00
         21   -1    0    0  502  501  0.00000000000E+00  0.00000000000E+00  0.19736259230E+04  0.19736259230E+04  0.00000000000E+00 0. -1.
         21   -1    0    0  501  502 -0.00000000000E+00 -0.00000000000E+00 -0.26051998570E+02  0.26051998570E+02  0.00000000000E+00 0. -1.
         25    1    1    2    0    0 -0.88843036748E+01 -0.79447152565E+02  0.46944023825E+03  0.49233110625E+03  0.12500000000E+03 0.  0.
         25    1    1    2    0    0  0.41369401259E+02  0.21327735098E+01  0.47238371698E+03  0.49039509801E+03  0.12500000000E+03 0.  0.
         25    1    1    2    0    0 -0.32485097584E+02  0.77314379055E+02  0.10057499692E+04  0.10169517173E+04  0.12500000000E+03 0.  0.
</event>
<event>
 5    0  0.5648525E-005  0.2879240E+03  0.7546771E-02  0.1091438E+00
         21   -1    0    0  502  501  0.00000000000E+00  0.00000000000E+00  0.18781870738E+03  0.18781870738E+03  0.00000000000E+00 0.  1.
         21   -1    0    0  501  502 -0.00000000000E+00 -0.00000000000E+00 -0.44138432331E+03  0.44138432331E+03  0.00000000000E+00 0.  1.
         25    1    1    2    0    0  0.17891099026E+03 -0.98731517875E+02 -0.12017043386E+03  0.26799811237E+03  0.12500000000E+03 0.  0.
         25    1    1    2    0    0 -0.14448453273E+03  0.54411620146E+02 -0.78366602734E+02  0.21354795487E+03  0.12500000000E+03 0.  0.
         25    1    1    2    0    0 -0.34426457537E+02  0.44319897729E+02 -0.55028579330E+02  0.14765696345E+03  0.12500000000E+03 0.  0.
</event>
<event>
 5    0  0.5648525E-005  0.2483437E+03  0.7546771E-02  0.1114356E+00
         21   -1    0    0  502  501  0.00000000000E+00  0.00000000000E+00  0.18650050153E+03  0.18650050153E+03  0.00000000000E+00 0. -1.
         21   -1    0    0  501  502 -0.00000000000E+00 -0.00000000000E+00 -0.33069405543E+03  0.33069405543E+03  0.00000000000E+00 0. -1.
         25    1    1    2    0    0  0.14057738797E+03 -0.49895930298E+02 -0.53685584273E+02  0.20188795860E+03  0.12500000000E+03 0.  0.
         25    1    1    2    0    0 -0.43270340913E+02 -0.82749132274E+01 -0.28828847173E+02  0.13563516882E+03  0.12500000000E+03 0.  0.
         25    1    1    2    0    0 -0.97307047062E+02  0.58170843526E+02 -0.61679122460E+02  0.17967142954E+03  0.12500000000E+03 0.  0.
</event>
<event>
 5    0  0.5648525E-005  0.4062860E+03  0.7546771E-02  0.1041625E+00
         21   -1    0    0  502  501  0.00000000000E+00  0.00000000000E+00  0.10589598255E+04  0.10589598255E+04  0.00000000000E+00 0. -1.
         21   -1    0    0  501  502 -0.00000000000E+00 -0.00000000000E+00 -0.15587780430E+03  0.15587780430E+03  0.00000000000E+00 0. -1.
         25    1    1    2    0    0 -0.47068471974E+02  0.21413797967E+02  0.25359472133E+03  0.28741829184E+03  0.12500000000E+03 0.  0.
         25    1    1    2    0    0 -0.24076139236E+03 -0.14984975390E+03  0.21922528293E+03  0.37961259393E+03  0.12500000000E+03 0.  0.
         25    1    1    2    0    0  0.28782986433E+03  0.12843595593E+03  0.43026201695E+03  0.54780674403E+03  0.12500000000E+03 0.  0.
</event>
<event>
 5    0  0.5648525E-005  0.2922447E+03  0.7546771E-02  0.1089183E+00
         21   -1    0    0  502  501  0.00000000000E+00  0.00000000000E+00  0.46888339739E+02  0.46888339739E+02  0.00000000000E+00 0.  1.
         21   -1    0    0  501  502 -0.00000000000E+00 -0.00000000000E+00 -0.18214971843E+04  0.18214971843E+04  0.00000000000E+00 0.  1.
         25    1    1    2    0    0  0.25781062093E+02  0.14342540339E+03 -0.64120556832E+03  0.66933182379E+03  0.12500000000E+03 0.  0.
         25    1    1    2    0    0  0.75156278455E+02  0.36204025867E+02 -0.44321338869E+03  0.46799818974E+03  0.12500000000E+03 0.  0.
         25    1    1    2    0    0 -0.10093734055E+03 -0.17962942926E+03 -0.69018988760E+03  0.73105551056E+03  0.12500000000E+03 0.  0.
</event>
<event>
 5    0  0.5648525E-005  0.4535438E+03  0.7546771E-02  0.1026670E+00
         21   -1    0    0  502  501  0.00000000000E+00  0.00000000000E+00  0.14078773615E+03  0.14078773615E+03  0.00000000000E+00 0. -1.
         21   -1    0    0  501  502 -0.00000000000E+00 -0.00000000000E+00 -0.14610791216E+04  0.14610791216E+04  0.00000000000E+00 0. -1.
         25    1    1    2    0    0  0.25500646427E+03 -0.10038259793E+03 -0.30365854734E+03  0.42771307691E+03  0.12500000000E+03 0.  0.
         25    1    1    2    0    0 -0.15481632381E+03 -0.15204729615E+03 -0.67617895094E+03  0.72106133447E+03  0.12500000000E+03 0.  0.
         25    1    1    2    0    0 -0.10019014046E+03  0.25242989408E+03 -0.34045388719E+03  0.45309244639E+03  0.12500000000E+03 0.  0.
</event>
<event>
 5    0  0.5648525E-005  0.3067435E+03  0.7546771E-02  0.1081917E+00
         21   -1    0    0  502  501  0.00000000000E+00  0.00000000000E+00  0.44878717593E+02  0.44878717593E+02  0.00000000000E+00 0.  1.
         21   -1    0    0  501  502 -0.00000000000E+00 -0.00000000000E+00 -0.20965750931E+04  0.20965750931E+04  0.00000000000E+00 0.  1.
         25    1    1    2    0    0 -0.12182257118E+03 -0.12642644172E+03 -0.12283116722E+04  0.12470761597E+04  0.12500000000E+03 0.  0.
         25    1    1    2    0    0 -0.15949508728E+02  0.18388191780E+02 -0.22558178787E+03  0.25904566285E+03  0.12500000000E+03 0.  0.
         25    1    1    2    0    0  0.13777207991E+03  0.10803824994E+03 -0.59780291545E+03  0.63533198816E+03  0.12500000000E+03 0.  0.
</event>
<event>
 5    0  0.5648525E-005  0.4523457E+03  0.7546771E-02  0.1027025E+00
         21   -1    0    0  502  501  0.00000000000E+00  0.00000000000E+00  0.28276324102E+03  0.28276324102E+03  0.00000000000E+00 0. -1.
         21   -1    0    0  501  502 -0.00000000000E+00 -0.00000000000E+00 -0.72363228838E+03  0.72363228838E+03  0.00000000000E+00 0.  1.
         25    1    1    2    0    0 -0.11759163590E+03  0.58330388582E+02 -0.71442465538E+02  0.19483134488E+03  0.12500000000E+03 0.  0.
         25    1    1    2    0    0  0.12081925309E+03  0.22195063970E+03 -0.41457251856E+03  0.50135292113E+03  0.12500000000E+03 0.  0.
         25    1    1    2    0    0 -0.32276171864E+01 -0.28028102829E+03  0.45145936732E+02  0.31021126339E+03  0.12500000000E+03 0.  0.
</event>
<event>
 5    0  0.5648525E-005  0.2493489E+03  0.7546771E-02  0.1113717E+00
         21   -1    0    0  502  501  0.00000000000E+00  0.00000000000E+00  0.41638818635E+03  0.41638818635E+03  0.00000000000E+00 0.  1.
         21   -1    0    0  501  502 -0.00000000000E+00 -0.00000000000E+00 -0.14931944407E+03  0.14931944407E+03  0.00000000000E+00 0. -1.
         25    1    1    2    0    0 -0.10395094028E+03  0.19118440028E+02  0.64080331337E+02  0.17579135814E+03  0.12500000000E+03 0.  0.
         25    1    1    2    0    0 -0.25951618384E+02 -0.66597532799E+02  0.11228855627E+03  0.18259911758E+03  0.12500000000E+03 0.  0.
         25    1    1    2    0    0  0.12990255866E+03  0.47479092771E+02  0.90699854670E+02  0.20731715470E+03  0.12500000000E+03 0.  0.
</event>
<event>
 5    0  0.5648525E-005  0.3633864E+03  0.7546771E-02  0.1057251E+00
         21   -1    0    0  502  501  0.00000000000E+00  0.00000000000E+00  0.14733239299E+03  0.14733239299E+03  0.00000000000E+00 0. -1.
         21   -1    0    0  501  502 -0.00000000000E+00 -0.00000000000E+00 -0.89627070697E+03  0.89627070697E+03  0.00000000000E+00 0. -1.
         25    1    1    2    0    0  0.25194602922E+03  0.12095337965E+03 -0.16695293448E+03  0.34871880365E+03  0.12500000000E+03 0.  0.
         25    1    1    2    0    0 -0.16004341167E+03 -0.62638086128E+02 -0.35649288717E+03  0.41502963997E+03  0.12500000000E+03 0.  0.
         25    1    1    2    0    0 -0.91902617551E+02 -0.58315293521E+02 -0.22549249234E+03  0.27985465634E+03  0.12500000000E+03 0.  0.
</event>
<event>
 5    0  0.5648525E-005  0.4776074E+03  0.7546771E-02  0.1019795E+00
         21   -1    0    0  502  501  0.00000000000E+00  0.00000000000E+00  0.11926251040E+03  0.11926251040E+03  0.00000000000E+00 0.  1.
         21   -1    0    0  501  502 -0.00000000000E+00 -0.00000000000E+00 -0.19126612505E+04  0.19126612505E+04  0.00000000000E+00 0.  1.
         25    1    1    2    0    0 -0.36196747397E+02  0.27926191344E+03 -0.34265686408E+03  0.46079946541E+03  0.12500000000E+03 0.  0.
         25    1    1    2    0    0  0.79689393672E+02 -0.30162020895E+03 -0.13781285906E+04  0.14185163243E+04  0.12500000000E+03 0.  0.
         25    1    1    2    0    0 -0.43492646275E+02  0.22358295517E+02 -0.72613285358E+02  0.15260797118E+03  0.12500000000E+03 0.  0.
</event>
<event>
 5    0  0.5648525E-005  0.2579203E+03  0.7546771E-02  0.1108399E+00
         21   -1    0    0  502  501  0.00000000000E+00  0.00000000000E+00  0.29931954421E+03  0.29931954421E+03  0.00000000000E+00 0.  1.
         21   -1    0    0  501  502 -0.00000000000E+00 -0.00000000000E+00 -0.22224706516E+03  0.22224706516E+03  0.00000000000E+00 0.  1.
         25    1    1    2    0    0 -0.14732942126E+02  0.89991195842E+02  0.10543587871E+02  0.15508591863E+03  0.12500000000E+03 0.  0.
         25    1    1    2    0    0  0.58810109364E+02 -0.74376016313E+02  0.14332470008E+03  0.21250268332E+03  0.12500000000E+03 0.  0.
         25    1    1    2    0    0 -0.44077167237E+02 -0.15615179529E+02 -0.76795808897E+02  0.15397800742E+03  0.12500000000E+03 0.  0.
</event>
<event>
 5    0  0.5648525E-005  0.5367908E+03  0.7546771E-02  0.1004598E+00
         21   -1    0    0  502  501  0.00000000000E+00  0.00000000000E+00  0.58772048940E+03  0.58772048940E+03  0.00000000000E+00 0. -1.
         21   -1    0    0  501  502 -0.00000000000E+00 -0.00000000000E+00 -0.49027455771E+03  0.49027455771E+03  0.00000000000E+00 0. -1.
         25    1    1    2    0    0 -0.54561824262E+02  0.14547682253E+02  0.46063306479E+03  0.48062089853E+03  0.12500000000E+03 0.  0.
         25    1    1    2    0    0 -0.80250999005E+02  0.14111108442E+03 -0.66928816087E+02  0.21553892319E+03  0.12500000000E+03 0.  0.
         25    1    1    2    0    0  0.13481282327E+03 -0.15565876667E+03 -0.29625831701E+03  0.38183522540E+03  0.12500000000E+03 0.  0.
</event>
<event>
 5    0  0.5648525E-005  0.3887359E+03  0.7546771E-02  0.1047751E+00
         21   -1    0    0  502  501  0.00000000000E+00  0.00000000000E+00  0.49655797176E+03  0.49655797176E+03  0.00000000000E+00 0.  1.
         21   -1    0    0  501  502 -0.00000000000E+00 -0.00000000000E+00 -0.30432618015E+03  0.30432618015E+03  0.00000000000E+00 0.  1.
         25    1    1    2    0    0 -0.53553331498E+02  0.22079766801E+03 -0.55913751163E+02  0.26527517238E+03  0.12500000000E+03 0.  0.
         25    1    1    2    0    0 -0.39675672095E+02 -0.24374473566E+03  0.25705433595E+03  0.37774010477E+03  0.12500000000E+03 0.  0.
         25    1    1    2    0    0  0.93229003593E+02  0.22947067657E+02 -0.89087931726E+01  0.15786887477E+03  0.12500000000E+03 0.  0.
</event>
<event>
 5    0  0.5648525E-005  0.3244461E+03  0.7546771E-02  0.1073621E+00
         21   -1    0    0  502  501  0.00000000000E+00  0.00000000000E+00  0.46592311191E+02  0.46592311191E+02  0.00000000000E+00 0.  1.
         21   -1    0    0  501  502 -0.00000000000E+00 -0.00000000000E+00 -0.22592841628E+04  0.22592841628E+04  0.00000000000E+00 0.  1.
         25    1    1    2    0    0 -0.53218460254E+02  0.49783190114E+02 -0.15584390706E+04  0.15651414975E+04  0.12500000000E+03 0.  0.
         25    1    1    2    0    0 -0.82875201325E+02  0.29748200091E+01 -0.35111531840E+03  0.38181686102E+03  0.12500000000E+03 0.  0.
         25    1    1    2    0    0  0.13609366158E+03 -0.52758010123E+02 -0.30313746267E+03  0.35891811549E+03  0.12500000000E+03 0.  0.
</event>
<event>
 5    0  0.5648525E-005  0.6764975E+03  0.7546771E-02  0.9758291E-01
         21   -1    0    0  502  501  0.00000000000E+00  0.00000000000E+00  0.68644876807E+03  0.68644876807E+03  0.00000000000E+00 0.  1.
         21   -1    0    0  501  502 -0.00000000000E+00 -0.00000000000E+00 -0.66669055664E+03  0.66669055664E+03  0.00000000000E+00 0.  1.
         25    1    1    2    0    0  0.17483688906E+03  0.16773615974E+03 -0.54302735225E+02  0.27798766899E+03  0.12500000000E+03 0.  0.
         25    1    1    2    0    0  0.11474567580E+03  0.24589665010E+03  0.37088865685E+03  0.47625111908E+03  0.12500000000E+03 0.  0.
         25    1    1    2    0    0 -0.28958256486E+03 -0.41363280983E+03 -0.29682771020E+03  0.59890053663E+03  0.12500000000E+03 0.  0.
</event>
<event>
 5    0  0.5648525E-005  0.2016116E+03  0.7546771E-02  0.1148386E+00
         21   -1    0    0  502  501  0.00000000000E+00  0.00000000000E+00  0.14150860723E+03  0.14150860723E+03  0.00000000000E+00 0. -1.
         21   -1    0    0  501  502 -0.00000000000E+00 -0.00000000000E+00 -0.28724218065E+03  0.28724218065E+03  0.00000000000E+00 0. -1.
         25    1    1    2    0    0  0.39297391710E+02  0.61880776349E+01 -0.70882043361E+02  0.14910345862E+03  0.12500000000E+03 0.  0.
         25    1    1    2    0    0 -0.86197891186E+01  0.26689948947E+02 -0.71613366941E+02  0.14676555612E+03  0.12500000000E+03 0.  0.
         25    1    1    2    0    0 -0.30677602591E+02 -0.32878026582E+02 -0.32381631160E+01  0.13288177314E+03  0.12500000000E+03 0.  0.
</event>
<event>
 5    0  0.5648525E-005  0.3670768E+03  0.7546771E-02  0.1055816E+00
         21   -1    0    0  502  501  0.00000000000E+00  0.00000000000E+00  0.20217297491E+04  0.20217297491E+04  0.00000000000E+00 0. -1.
         21   -1    0    0  501  502 -0.00000000000E+00 -0.00000000000E+00 -0.66648549903E+02  0.66648549903E+02  0.00000000000E+00 0. -1.
         25    1    1    2    0    0 -0.10341265319E+02  0.16049078131E+03  0.83484367634E+03  0.85933299517E+03  0.12500000000E+03 0.  0.
         25    1    1    2    0    0  0.99746186579E+02 -0.51832430862E+01  0.91630151260E+03  0.93016645270E+03  0.12500000000E+03 0.  0.
         25    1    1    2    0    0 -0.89404921260E+02 -0.15530753823E+03  0.20393601027E+03  0.29887885114E+03  0.12500000000E+03 0.  0.
</event>
<event>
 5    0  0.5648525E-005  0.3318542E+03  0.7546771E-02  0.1070319E+00
         21   -1    0    0  502  501  0.00000000000E+00  0.00000000000E+00  0.13622559407E+03  0.13622559407E+03  0.00000000000E+00 0. -1.
         21   -1    0    0  501  502 -0.00000000000E+00 -0.00000000000E+00 -0.80841773116E+03  0.80841773116E+03  0.00000000000E+00 0. -1.
         25    1    1    2    0    0  0.87980467552E+02 -0.58497963628E+02 -0.16977637976E+03  0.23582110496E+03  0.12500000000E+03 0.  0.
         25    1    1    2    0    0 -0.27084410192E+02 -0.14595900313E+03 -0.61974825410E+02  0.20372401639E+03  0.12500000000E+03 0.  0.
         25    1    1    2    0    0 -0.60896057361E+02  0.20445696676E+03 -0.44044093192E+03  0.50509820389E+03  0.12500000000E+03 0.  0.
</event>
<event>
 5    0  0.5648525E-005  0.4320311E+03  0.7546771E-02  0.1033220E+00
         21   -1    0    0  502  501  0.00000000000E+00  0.00000000000E+00  0.60588054762E+03  0.60588054762E+03  0.00000000000E+00 0.  1.
         21   -1    0    0  501  502 -0.00000000000E+00 -0.00000000000E+00 -0.30806546231E+03  0.30806546231E+03  0.00000000000E+00 0.  1.
         25    1    1    2    0    0  0.14249496719E+03 -0.17523649021E+03  0.25886139507E+03  0.36557744054E+03  0.12500000000E+03 0.  0.
         25    1    1    2    0    0  0.57002440435E+02 -0.10830036845E+03 -0.16382364797E+02  0.17570324385E+03  0.12500000000E+03 0.  0.
         25    1    1    2    0    0 -0.19949740763E+03  0.28353685866E+03  0.55336055032E+02  0.37266532554E+03  0.12500000000E+03 0.  0.
</event>
<event>
 5    0  0.5648525E-005  0.3704452E+03  0.7546771E-02  0.1054523E+00
         21   -1    0    0  502  501  0.00000000000E+00  0.00000000000E+00  0.18166355129E+04  0.18166355129E+04  0.00000000000E+00 0.  1.
         21   -1    0    0  501  502 -0.00000000000E+00 -0.00000000000E+00 -0.75540558488E+02  0.75540558488E+02  0.00000000000E+00 0.  1.
         25    1    1    2    0    0 -0.18134179467E+03 -0.60325982710E+02  0.72219614651E+03  0.75744065426E+03  0.12500000000E+03 0.  0.
         25    1    1    2    0    0 -0.16409215130E+02  0.18049920813E+03  0.32397051099E+03  0.39170284460E+03  0.12500000000E+03 0.  0.
         25    1    1    2    0    0  0.19775100980E+03 -0.12017322542E+03  0.69492829687E+03  0.74303257249E+03  0.12500000000E+03 0.  0.
</event>
<event>
 5    0  0.5648525E-005  0.3183409E+03  0.7546771E-02  0.1076415E+00
         21   -1    0    0  502  501  0.00000000000E+00  0.00000000000E+00  0.79262213781E+02  0.79262213781E+02  0.00000000000E+00 0. -1.
         21   -1    0    0  501  502 -0.00000000000E+00 -0.00000000000E+00 -0.12785532041E+04  0.12785532041E+04  0.00000000000E+00 0. -1.
         25    1    1    2    0    0 -0.47072450840E+02 -0.16499594250E+02 -0.18642239935E+02  0.13586973669E+03  0.12500000000E+03 0.  0.
         25    1    1    2    0    0  0.33833505791E+02 -0.83165342476E+02 -0.53825558109E+03  0.55982608985E+03  0.12500000000E+03 0.  0.
         25    1    1    2    0    0  0.13238945049E+02  0.99664936726E+02 -0.64239316926E+03  0.66211959130E+03  0.12500000000E+03 0.  0.
</event>
<event>
 5    0  0.5648525E-005  0.3932072E+03  0.7546771E-02  0.1046157E+00
         21   -1    0    0  502  501  0.00000000000E+00  0.00000000000E+00  0.17907761245E+03  0.17907761245E+03  0.00000000000E+00 0.  1.
         21   -1    0    0  501  502 -0.00000000000E+00 -0.00000000000E+00 -0.86337947555E+03  0.86337947555E+03  0.00000000000E+00 0.  1.
         25    1    1    2    0    0 -0.53306754577E+01  0.91328561764E+02  0.58764618425E+02  0.16567318031E+03  0.12500000000E+03 0.  0.
         25    1    1    2    0    0  0.85308734474E+02  0.12861329063E+03 -0.35299337405E+03  0.40502874075E+03  0.12500000000E+03 0.  0.
         25    1    1    2    0    0 -0.79978059016E+02 -0.21994185240E+03 -0.39007310747E+03  0.47175516694E+03  0.12500000000E+03 0.  0.
</event>
<event>
 5    0  0.5648525E-005  0.2603137E+03  0.7546771E-02  0.1106955E+00
         21   -1    0    0  502  501  0.00000000000E+00  0.00000000000E+00  0.96796975604E+03  0.96796975604E+03  0.00000000000E+00 0. -1.
         21   -1    0    0  501  502 -0.00000000000E+00 -0.00000000000E+00 -0.70005533588E+02  0.70005533588E+02  0.00000000000E+00 0. -1.
         25    1    1    2    0    0  0.83464713656E+02 -0.54823050919E+02  0.19493870706E+03  0.25218648824E+03  0.12500000000E+03 0.  0.
         25    1    1    2    0    0  0.10550005144E+02  0.11216757872E+03  0.23530090012E+03  0.28928252958E+03  0.12500000000E+03 0.  0.
         25    1    1    2    0    0 -0.94014718800E+02 -0.57344527797E+02  0.46772461527E+03  0.49650627181E+03  0.12500000000E+03 0.  0.
</event>
<event>
 5    0  0.5648525E-005  0.4270798E+03  0.7546771E-02  0.1034786E+00
         21   -1    0    0  502  501  0.00000000000E+00  0.00000000000E+00  0.12231324146E+03  0.12231324146E+03  0.00000000000E+00 0.  1.
         21   -1    0    0  501  502 -0.00000000000E+00 -0.00000000000E+00 -0.14912298495E+04  0.14912298495E+04  0.00000000000E+00 0.  1.
         25    1    1    2    0    0  0.16815396885E+02  0.30721150561E+03 -0.22911255742E+03  0.40345908184E+03  0.12500000000E+03 0.  0.
         25    1    1    2    0    0  0.81995546574E+01 -0.13636984832E+03 -0.65099617493E+03  0.67681976035E+03  0.12500000000E+03 0.  0.
         25    1    1    2    0    0 -0.25014951542E+02 -0.17084165729E+03 -0.48880787566E+03  0.53326424873E+03  0.12500000000E+03 0.  0.
</event>
<event>
 5    0  0.5648525E-005  0.3919802E+03  0.7546771E-02  0.1046593E+00
         21   -1    0    0  502  501  0.00000000000E+00  0.00000000000E+00  0.18753895307E+04  0.18753895307E+04  0.00000000000E+00 0. -1.
         21   -1    0    0  501  502 -0.00000000000E+00 -0.00000000000E+00 -0.81928844245E+02  0.81928844245E+02  0.00000000000E+00 0. -1.
         25    1    1    2    0    0 -0.40529533905E+02 -0.10730717332E+02  0.33822737000E+03  0.36301590218E+03  0.12500000000E+03 0.  0.
         25    1    1    2    0    0  0.63003464188E+02  0.39285434332E+01  0.14603158017E+04  0.14670146934E+04  0.12500000000E+03 0.  0.
         25    1    1    2    0    0 -0.22473930284E+02  0.68021738990E+01 -0.50824852818E+01  0.12728777934E+03  0.12500000000E+03 0.  0.
</event>
<event>
 5    0  0.5648525E-005  0.2045636E+03  0.7546771E-02  0.1145945E+00
         21   -1    0    0  502  501  0.00000000000E+00  0.00000000000E+00  0.21866986760E+03  0.21866986760E+03  0.00000000000E+00 0.  1.
         21   -1    0    0  501  502 -0.00000000000E+00 -0.00000000000E+00 -0.19136730008E+03  0.19136730008E+03  0.00000000000E+00 0.  1.
         25    1    1    2    0    0 -0.24575184827E+02  0.30234554589E+02 -0.51634887921E+02  0.14074526511E+03  0.12500000000E+03 0.  0.
         25    1    1    2    0    0 -0.83041593612E+01 -0.24373438795E+02  0.47186299529E+02  0.13606825657E+03  0.12500000000E+03 0.  0.
         25    1    1    2    0    0  0.32879344188E+02 -0.58611157932E+01  0.31751155908E+02  0.13322364600E+03  0.12500000000E+03 0.  0.
</event>
<event>
 5    0  0.5648525E-005  0.2113289E+03  0.7546771E-02  0.1140518E+00
         21   -1    0    0  502  501  0.00000000000E+00  0.00000000000E+00  0.76371567205E+03  0.76371567205E+03  0.00000000000E+00 0. -1.
         21   -1    0    0  501  502 -0.00000000000E+00 -0.00000000000E+00 -0.58477112376E+02  0.58477112376E+02  0.00000000000E+00 0. -1.
         25    1    1    2    0    0  0.13058645443E+02 -0.10190461861E+02  0.18597274290E+03  0.22468919608E+03  0.12500000000E+03 0.  0.
         25    1    1    2    0    0 -0.79072857394E+02  0.32192870297E+02  0.29326584165E+03  0.33002841022E+03  0.12500000000E+03 0.  0.
         25    1    1    2    0    0  0.66014211951E+02 -0.22002408436E+02  0.22599997513E+03  0.26747517813E+03  0.12500000000E+03 0.  0.
</event>
<event>
 5    0  0.5648525E-005  0.3254082E+03  0.7546771E-02  0.1073187E+00
         21   -1    0    0  502  501  0.00000000000E+00  0.00000000000E+00  0.21889589307E+03  0.21889589307E+03  0.00000000000E+00 0.  1.
         21   -1    0    0  501  502 -0.00000000000E+00 -0.00000000000E+00 -0.48374808825E+03  0.48374808825E+03  0.00000000000E+00 0.  1.
         25    1    1    2    0    0 -0.13895070330E+03 -0.66198792501E+02 -0.15078165062E+03  0.24909774033E+03  0.12500000000E+03 0.  0.
         25    1    1    2    0    0 -0.84463923483E+02 -0.32654088807E+02  0.49153400846E+01  0.15443317148E+03  0.12500000000E+03 0.  0.
         25    1    1    2    0    0  0.22341462678E+03  0.98852881308E+02 -0.11898588465E+03  0.29911306951E+03  0.12500000000E+03 0.  0.
</event>
<event>
 5    0  0.5648525E-005  0.3913041E+03  0.7546771E-02  0.1046833E+00
         21   -1    0    0  502  501  0.00000000000E+00  0.00000000000E+00  0.13764840568E+04  0.13764840568E+04  0.00000000000E+00 0.  1.
         21   -1    0    0  501  502 -0.00000000000E+00 -0.00000000000E+00 -0.11123913091E+03  0.11123913091E+03  0.00000000000E+00 0.  1.
         25    1    1    2    0    0  0.82949932077E+01 -0.14488792753E+02 -0.17347577799E+02  0.12729756668E+03  0.12500000000E+03 0.  0.
         25    1    1    2    0    0  0.99385848406E+01  0.90682202223E+02  0.14103363371E+03  0.20937412234E+03  0.12500000000E+03 0.  0.
         25    1    1    2    0    0 -0.18233578048E+02 -0.76193409471E+02  0.11415588699E+04  0.11510514987E+04  0.12500000000E+03 0.  0.
</event>
<event>
 5    0  0.5648525E-005  0.4087694E+03  0.7546771E-02  0.1040785E+00
         21   -1    0    0  502  501  0.00000000000E+00  0.00000000000E+00  0.62354803007E+03  0.62354803007E+03  0.00000000000E+00 0.  1.
         21   -1    0    0  501  502 -0.00000000000E+00 -0.00000000000E+00 -0.26797041050E+03  0.26797041050E+03  0.00000000000E+00 0.  1.
         25    1    1    2    0    0  0.14360485682E+03  0.10955216991E+03  0.23337601562E+02  0.22089290727E+03  0.12500000000E+03 0.  0.
         25    1    1    2    0    0 -0.89601215498E+02 -0.22721695159E+02 -0.11613449234E+03  0.19405379038E+03  0.12500000000E+03 0.  0.
         25    1    1    2    0    0 -0.54003641322E+02 -0.86830474749E+02  0.44837451035E+03  0.47657174293E+03  0.12500000000E+03 0.  0.
</event>
<event>
 5    0  0.5648525E-005  0.2545674E+03  0.7546771E-02  0.1110452E+00
         21   -1    0    0  502  501  0.00000000000E+00  0.00000000000E+00  0.19973850844E+03  0.19973850844E+03  0.00000000000E+00 0.  1.
         21   -1    0    0  501  502 -0.00000000000E+00 -0.00000000000E+00 -0.32444706701E+03  0.32444706701E+03  0.00000000000E+00 0.  1.
         25    1    1    2    0    0  0.58126896339E+02  0.82034423737E+02 -0.73862010262E+01  0.16058623453E+03  0.12500000000E+03 0.  0.
         25    1    1    2    0    0 -0.67622681673E+02  0.45152962933E+02 -0.10920793029E+03  0.18483232719E+03  0.12500000000E+03 0.  0.
         25    1    1    2    0    0  0.94957853336E+01 -0.12718738667E+03 -0.81144272651E+01  0.17876701373E+03  0.12500000000E+03 0.  0.
</event>
<event>
 5    0  0.5648525E-005  0.7558358E+03  0.7546771E-02  0.9626239E-01
         21   -1    0    0  502  501  0.00000000000E+00  0.00000000000E+00  0.26081142531E+03  0.26081142531E+03  0.00000000000E+00 0. -1.
         21   -1    0    0  501  502 -0.00000000000E+00 -0.00000000000E+00 -0.21904244737E+04  0.21904244737E+04  0.00000000000E+00 0. -1.
         25    1    1    2    0    0 -0.13058828047E+03 -0.39873663763E+03 -0.36733947005E+03  0.57149583677E+03  0.12500000000E+03 0.  0.
         25    1    1    2    0    0  0.20968424898E+03  0.68158291501E+03 -0.11387025399E+04  0.13493669733E+04  0.12500000000E+03 0.  0.
         25    1    1    2    0    0 -0.79095968505E+02 -0.28284627738E+03 -0.42357103851E+03  0.53037308899E+03  0.12500000000E+03 0.  0.
</event>
<event>
 5    0  0.6058924E-005  0.5935563E+03  0.7546771E-02  0.9918866E-01
         21   -1    0    0  502  501  0.00000000000E+00  0.00000000000E+00  0.47639260286E+03  0.47639260286E+03  0.00000000000E+00 0.  1.
         21   -1    0    0  501  502 -0.00000000000E+00 -0.00000000000E+00 -0.73953507844E+03  0.73953507844E+03  0.00000000000E+00 0.  1.
         25    1    1    2    0    0  0.23050847395E+03 -0.13528044879E+03  0.21517327314E+03  0.36518419169E+03  0.12500000000E+03 0.  0.
         25    1    1    2    0    0  0.59430013804E+02 -0.19860094952E+03 -0.19551128861E+03  0.31116543456E+03  0.12500000000E+03 0.  0.
         25    1    1    2    0    0 -0.28993848775E+03  0.33388139831E+03 -0.28280446011E+03  0.53957805504E+03  0.12500000000E+03 0.  0.
</event>
<event>
 5    0  0.6057953E-005  0.2486151E+03  0.7546771E-02  0.1114183E+00
         21   -1    0    0  502  501  0.00000000000E+00  0.00000000000E+00  0.18958654403E+03  0.18958654403E+03  0.00000000000E+00 0.  1.
         21   -1    0    0  501  502 -0.00000000000E+00 -0.00000000000E+00 -0.32602239156E+03  0.32602239156E+03  0.00000000000E+00 0.  1.
         25    1    1    2    0    0  0.52965216201E+02  0.38159139414E+01 -0.66921886039E+01  0.13597669181E+03  0.12500000000E+03 0.  0.
         25    1    1    2    0    0  0.93078070212E+01 -0.86790624387E+02  0.25917083165E+02  0.15464780294E+03  0.12500000000E+03 0.  0.
         25    1    1    2    0    0 -0.62273023222E+02  0.82974710446E+02 -0.15566074209E+03  0.22498444085E+03  0.12500000000E+03 0.  0.
</event>
<event>
 5    0  0.5648525E-005  0.4219974E+03  0.7546771E-02  0.1036418E+00
         21   -1    0    0  502  501  0.00000000000E+00  0.00000000000E+00  0.73860421625E+03  0.73860421625E+03  0.00000000000E+00 0.  1.
         21   -1    0    0  501  502 -0.00000000000E+00 -0.00000000000E+00 -0.24110582090E+03  0.24110582090E+03  0.00000000000E+00 0.  1.
         25    1    1    2    0    0 -0.22345083179E+02 -0.10259701809E+03 -0.13916468392E+03  0.21451633997E+03  0.12500000000E+03 0.  0.
         25    1    1    2    0    0 -0.14316417965E+03 -0.57382105579E+01  0.30066579709E+03  0.35574405257E+03  0.12500000000E+03 0.  0.
         25    1    1    2    0    0  0.16550926283E+03  0.10833522865E+03  0.33599728217E+03  0.40944964462E+03  0.12500000000E+03 0.  0.
</event>
<event>
 5    0  0.5648525E-005  0.3009939E+03  0.7546771E-02  0.1084745E+00
         21   -1    0    0  502  501  0.00000000000E+00  0.00000000000E+00  0.18981127697E+03  0.18981127697E+03  0.00000000000E+00 0. -1.
         21   -1    0    0  501  502 -0.00000000000E+00 -0.00000000000E+00 -0.47730203330E+03  0.47730203330E+03  0.00000000000E+00 0. -1.
         25    1    1    2    0    0  0.58359224969E+02  0.72976022107E+02 -0.26443369439E+03  0.30705289068E+03  0.12500000000E+03 0.  0.
         25    1    1    2    0    0 -0.97879632659E+02 -0.11693899246E+03 -0.76938781710E+02  0.21165945898E+03  0.12500000000E+03 0.  0.
         25    1    1    2    0    0  0.39520407690E+02  0.43962970349E+02  0.53881719776E+02  0.14840096062E+03  0.12500000000E+03 0.  0.
</event>
<event>
 5    0  0.5648525E-005  0.3894122E+03  0.7546771E-02  0.1047509E+00
         21   -1    0    0  502  501  0.00000000000E+00  0.00000000000E+00  0.12098327171E+04  0.12098327171E+04  0.00000000000E+00 0. -1.
         21   -1    0    0  501  502 -0.00000000000E+00 -0.00000000000E+00 -0.12534115071E+03  0.12534115071E+03  0.00000000000E+00 0. -1.
         25    1    1    2    0    0 -0.77275517172E+02  0.18310403542E+03  0.19381495713E+03  0.30444676209E+03  0.12500000000E+03 0.  0.
         25    1    1    2    0    0 -0.90807677922E+02 -0.81231920828E+02  0.72287496272E+03  0.74365171355E+03  0.12500000000E+03 0.  0.
         25    1    1    2    0    0  0.16808319509E+03 -0.10187211459E+03  0.16780164653E+03  0.28707539216E+03  0.12500000000E+03 0.  0.
</event>
<event>
 5    0  0.5648525E-005  0.3019360E+03  0.7546771E-02  0.1084277E+00
         21   -1    0    0  502  501  0.00000000000E+00  0.00000000000E+00  0.69614678262E+02  0.69614678262E+02  0.00000000000E+00 0. -1.
         21   -1    0    0  501  502 -0.00000000000E+00 -0.00000000000E+00 -0.13095709741E+04  0.13095709741E+04  0.00000000000E+00 0. -1.
         25    1    1    2    0    0 -0.14620543219E+03  0.14846895552E+02 -0.80489188657E+03  0.82769100984E+03  0.12500000000E+03 0.  0.
         25    1    1    2    0    0  0.28413026536E+02 -0.64854965078E+01 -0.65981506662E+02  0.14431881708E+03  0.12500000000E+03 0.  0.
         25    1    1    2    0    0  0.11779240565E+03 -0.83613990447E+01 -0.36908290257E+03  0.40717582540E+03  0.12500000000E+03 0.  0.
</event>
<event>
 5    0  0.5648525E-005  0.3775828E+03  0.7546771E-02  0.1051831E+00
         21   -1    0    0  502  501  0.00000000000E+00  0.00000000000E+00  0.14109522997E+03  0.14109522997E+03  0.00000000000E+00 0.  1.
         21   -1    0    0  501  502 -0.00000000000E+00 -0.00000000000E+00 -0.10104434735E+04  0.10104434735E+04  0.00000000000E+00 0.  1.
         25    1    1    2    0    0  0.78326685646E+02  0.11011131986E+03 -0.83717220062E+03  0.85717084991E+03  0.12500000000E+03 0.  0.
         25    1    1    2    0    0 -0.38553344081E+02 -0.26597625767E+02  0.81007436020E+01  0.13373262909E+03  0.12500000000E+03 0.  0.
         25    1    1    2    0    0 -0.39773341565E+02 -0.83513694095E+02 -0.40276786468E+02  0.16063522443E+03  0.12500000000E+03 0.  0.
</event>
<event>
 5    0  0.6123876E-005  0.4218805E+03  0.7546771E-02  0.1036456E+00
         21   -1    0    0  502  501  0.00000000000E+00  0.00000000000E+00  0.28161081952E+03  0.28161081952E+03  0.00000000000E+00 0. -1.
         21   -1    0    0  501  502 -0.00000000000E+00 -0.00000000000E+00 -0.63201809368E+03  0.63201809368E+03  0.00000000000E+00 0. -1.
         25    1    1    2    0    0  0.22103330047E+02  0.14403207409E+03  0.12752726673E+03  0.23048210196E+03  0.12500000000E+03 0.  0.
         25    1    1    2    0    0 -0.81930941857E+01  0.24968593021E+02 -0.45341068115E+03  0.47105923535E+03  0.12500000000E+03 0.  0.
         25    1    1    2    0    0 -0.13910235862E+02 -0.16900066711E+03 -0.24523859735E+02  0.21208757588E+03  0.12500000000E+03 0.  0.
</event>
<event>
 5    0  0.5648525E-005  0.4770299E+03  0.7546771E-02  0.1019955E+00
         21   -1    0    0  502  501  0.00000000000E+00  0.00000000000E+00  0.36782839304E+03  0.36782839304E+03  0.00000000000E+00 0. -1.
         21   -1    0    0  501  502 -0.00000000000E+00 -0.00000000000E+00 -0.61865129745E+03  0.61865129745E+03  0.00000000000E+00 0. -1.
         25    1    1    2    0    0 -0.12175960059E+03  0.32986316645E+03  0.64352741675E+02  0.37868375233E+03  0.12500000000E+03 0.  0.
         25    1    1    2    0    0  0.11439545154E+03 -0.34864383842E+03 -0.27382035119E+03  0.47459607049E+03  0.12500000000E+03 0.  0.
         25    1    1    2    0    0  0.73641490525E+01  0.18780671965E+02 -0.41355294896E+02  0.13319986767E+03  0.12500000000E+03 0.  0.
</event>
<event>
 5    0  0.5648525E-005  0.2589469E+03  0.7546771E-02  0.1107778E+00
         21   -1    0    0  502  501  0.00000000000E+00  0.00000000000E+00  0.26480690252E+03  0.26480690252E+03  0.00000000000E+00 0. -1.
         21   -1    0    0  501  502 -0.00000000000E+00 -0.00000000000E+00 -0.25321654963E+03  0.25321654963E+03  0.00000000000E+00 0. -1.
         25    1    1    2    0    0 -0.18161165321E+02  0.28526488769E+02 -0.61293116820E+02  0.14326700477E+03  0.12500000000E+03 0.  0.
         25    1    1    2    0    0 -0.99594954432E+02  0.11779993912E+01  0.11322050863E+03  0.19586839001E+03  0.12500000000E+03 0.  0.
         25    1    1    2    0    0  0.11775611975E+03 -0.29704488160E+02 -0.40337038920E+02  0.17888805736E+03  0.12500000000E+03 0.  0.
</event>
<event>
 5    0  0.5648525E-005  0.3436565E+03  0.7546771E-02  0.1065249E+00
         21   -1    0    0  502  501  0.00000000000E+00  0.00000000000E+00  0.16869634857E+03  0.16869634857E+03  0.00000000000E+00 0. -1.
         21   -1    0    0  501  502 -0.00000000000E+00 -0.00000000000E+00 -0.70007322081E+03  0.70007322081E+03  0.00000000000E+00 0. -1.
         25    1    1    2    0    0 -0.12644705338E+01  0.20603243613E+03 -0.21668980812E+03  0.32408399616E+03  0.12500000000E+03 0.  0.
         25    1    1    2    0    0  0.27028449826E+01 -0.18677388599E+03 -0.34765036064E+03  0.41397773263E+03  0.12500000000E+03 0.  0.
         25    1    1    2    0    0 -0.14383744489E+01 -0.19258550138E+02  0.32963296518E+02  0.13070784059E+03  0.12500000000E+03 0.  0.
</event>
<event>
 5    0  0.5648525E-005  0.3962753E+03  0.7546771E-02  0.1045077E+00
         21   -1    0    0  502  501  0.00000000000E+00  0.00000000000E+00  0.21053441516E+04  0.21053441516E+04  0.00000000000E+00 0. -1.
         21   -1    0    0  501  502 -0.00000000000E+00 -0.00000000000E+00 -0.74588329355E+02  0.74588329355E+02  0.00000000000E+00 0. -1.
         25    1    1    2    0    0 -0.27191198300E+01  0.81015251642E+02  0.50498125488E+03  0.52649969838E+03  0.12500000000E+03 0.  0.
         25    1    1    2    0    0 -0.52196955953E+02 -0.26779582671E+03  0.37837918204E+03  0.48294402618E+03  0.12500000000E+03 0.  0.
         25    1    1    2    0    0  0.54916075783E+02  0.18678057507E+03  0.11473953853E+04  0.11704887564E+04  0.12500000000E+03 0.  0.
</event>
<event>
 5    0  0.5648525E-005  0.4124064E+03  0.7546771E-02  0.1039566E+00
         21   -1    0    0  502  501  0.00000000000E+00  0.00000000000E+00  0.14978966241E+04  0.14978966241E+04  0.00000000000E+00 0. -1.
         21   -1    0    0  501  502 -0.00000000000E+00 -0.00000000000E+00 -0.11354527048E+03  0.11354527048E+03  0.00000000000E+00 0. -1.
         25    1    1    2    0    0  0.18648283953E+03 -0.82606012784E+02  0.24034122571E+03  0.33909955406E+03  0.12500000000E+03 0.  0.
         25    1    1    2    0    0  0.19289821072E+02  0.16118498170E+03  0.89137376310E+03  0.91461734133E+03  0.12500000000E+03 0.  0.
         25    1    1    2    0    0 -0.20577266060E+03 -0.78578968916E+02  0.25263636477E+03  0.35772499914E+03  0.12500000000E+03 0.  0.
</event>
<event>
 5    0  0.5648525E-005  0.4725908E+03  0.7546771E-02  0.1021192E+00
         21   -1    0    0  502  501  0.00000000000E+00  0.00000000000E+00  0.15743489954E+03  0.15743489954E+03  0.00000000000E+00 0. -1.
         21   -1    0    0  501  502 -0.00000000000E+00 -0.00000000000E+00 -0.14186310206E+04  0.14186310206E+04  0.00000000000E+00 0. -1.
         25    1    1    2    0    0  0.21387264761E+03 -0.12517205771E+03 -0.78482617254E+03  0.83245821188E+03  0.12500000000E+03 0.  0.
         25    1    1    2    0    0 -0.62598413691E+02  0.26456829494E+03 -0.14097929744E+03  0.33077954348E+03  0.12500000000E+03 0.  0.
         25    1    1    2    0    0 -0.15127423392E+03 -0.13939623723E+03 -0.33539065107E+03  0.41282816477E+03  0.12500000000E+03 0.  0.
</event>
<event>
 5    0  0.5648525E-005  0.4124401E+03  0.7546771E-02  0.1039555E+00
         21   -1    0    0  502  501  0.00000000000E+00  0.00000000000E+00  0.44554060608E+03  0.44554060608E+03  0.00000000000E+00 0.  1.
         21   -1    0    0  501  502 -0.00000000000E+00 -0.00000000000E+00 -0.38179873532E+03  0.38179873532E+03  0.00000000000E+00 0.  1.
         25    1    1    2    0    0  0.15657531679E+03 -0.84976082434E+02  0.10075614649E+03  0.23981986046E+03  0.12500000000E+03 0.  0.
         25    1    1    2    0    0  0.12415909698E+03  0.18881098296E+03  0.16455865087E+02  0.25876797357E+03  0.12500000000E+03 0.  0.
         25    1    1    2    0    0 -0.28073441377E+03 -0.10383490053E+03 -0.53470140819E+02  0.32875150738E+03  0.12500000000E+03 0.  0.
</event>
<event>
 5    0  0.5648525E-005  0.2148388E+03  0.7546771E-02  0.1137790E+00
         21   -1    0    0  502  501  0.00000000000E+00  0.00000000000E+00  0.44634526546E+02  0.44634526546E+02  0.00000000000E+00 0. -1.
         21   -1    0    0  501  502 -0.00000000000E+00 -0.00000000000E+00 -0.10340809906E+04  0.10340809906E+04  0.00000000000E+00 0. -1.
         25    1    1    2    0    0 -0.27627142017E+02  0.98638450076E+01 -0.27980252664E+03  0.30785549910E+03  0.12500000000E+03 0.  0.
         25    1    1    2    0    0 -0.66665503857E+02 -0.21491560562E+02 -0.31144251905E+03  0.34282301447E+03  0.12500000000E+03 0.  0.
         25    1    1    2    0    0  0.94292645874E+02  0.11627715554E+02 -0.39820141831E+03  0.42803700352E+03  0.12500000000E+03 0.  0.
</event>
<event>
 5    0  0.5648525E-005  0.4680662E+03  0.7546771E-02  0.1022467E+00
         21   -1    0    0  502  501  0.00000000000E+00  0.00000000000E+00  0.28773900652E+03  0.28773900652E+03  0.00000000000E+00 0.  1.
         21   -1    0    0  501  502 -0.00000000000E+00 -0.00000000000E+00 -0.76140525606E+03  0.76140525606E+03  0.00000000000E+00 0.  1.
         25    1    1    2    0    0  0.10237642513E+03  0.36352983800E+03 -0.10752001038E+03  0.41209274220E+03  0.12500000000E+03 0.  0.
         25    1    1    2    0    0  0.91037356879E+01 -0.11726081687E+03 -0.87898716254E+01  0.17185819451E+03  0.12500000000E+03 0.  0.
         25    1    1    2    0    0 -0.11148016082E+03 -0.24626902113E+03 -0.35735636753E+03  0.46519332587E+03  0.12500000000E+03 0.  0.
</event>
<event>
 5    0  0.5648525E-005  0.2845059E+03  0.7546771E-02  0.1093253E+00
         21   -1    0    0  502  501  0.00000000000E+00  0.00000000000E+00  0.56104195598E+03  0.56104195598E+03  0.00000000000E+00 0. -1.
         21   -1    0    0  501  502 -0.00000000000E+00 -0.00000000000E+00 -0.14427371441E+03  0.14427371441E+03  0.00000000000E+00 0. -1.
         25    1    1    2    0    0 -0.10979922734E+02 -0.40956577842E+01  0.49081088396E+02  0.13480091377E+03  0.12500000000E+03 0.  0.
         25    1    1    2    0    0 -0.75337574573E+02  0.19457663873E+02  0.38939039357E+03  0.41629824577E+03  0.12500000000E+03 0.  0.
         25    1    1    2    0    0  0.86317497308E+02 -0.15362006089E+02 -0.21703240405E+02  0.15421651084E+03  0.12500000000E+03 0.  0.
</event>
<event>
 5    0  0.6570692E-005  0.3436569E+03  0.7546771E-02  0.1065249E+00
         21   -1    0    0  502  501  0.00000000000E+00  0.00000000000E+00  0.66143612961E+03  0.66143612961E+03  0.00000000000E+00 0. -1.
         21   -1    0    0  501  502 -0.00000000000E+00 -0.00000000000E+00 -0.17855093747E+03  0.17855093747E+03  0.00000000000E+00 0. -1.
         25    1    1    2    0    0  0.46609491286E+02 -0.15351975556E+03  0.32091560739E+03  0.37993760947E+03  0.12500000000E+03 0.  0.
         25    1    1    2    0    0 -0.52952582957E+02  0.20322019520E+03  0.20466961450E+03  0.31877433222E+03  0.12500000000E+03 0.  0.
         25    1    1    2    0    0  0.63430916704E+01 -0.49700439640E+02 -0.42700029758E+02  0.14127512539E+03  0.12500000000E+03 0.  0.
</event>
<event>
 5    0  0.5648525E-005  0.2977841E+03  0.7546771E-02  0.1086354E+00
         21   -1    0    0  502  501  0.00000000000E+00  0.00000000000E+00  0.52247585487E+03  0.52247585487E+03  0.00000000000E+00 0. -1.
         21   -1    0    0  501  502 -0.00000000000E+00 -0.00000000000E+00 -0.16972149918E+03  0.16972149918E+03  0.00000000000E+00 0. -1.
         25    1    1    2    0    0  0.38969267881E+02 -0.10694039098E+02  0.40933785493E+02  0.13759920460E+03  0.12500000000E+03 0.  0.
         25    1    1    2    0    0  0.99496873182E+02  0.12674534666E+03  0.25715630025E+03  0.32820477363E+03  0.12500000000E+03 0.  0.
         25    1    1    2    0    0 -0.13846614106E+03 -0.11605130756E+03  0.54664269942E+02  0.22639337582E+03  0.12500000000E+03 0.  0.
</event>
<event>
 5    0  0.5648525E-005  0.2959966E+03  0.7546771E-02  0.1087259E+00
         21   -1    0    0  502  501  0.00000000000E+00  0.00000000000E+00  0.36828116350E+03  0.36828116350E+03  0.00000000000E+00 0.  1.
         21   -1    0    0  501  502 -0.00000000000E+00 -0.00000000000E+00 -0.23789972187E+03  0.23789972187E+03  0.00000000000E+00 0.  1.
         25    1    1    2    0    0  0.69510369176E+02 -0.16561251576E+03  0.93524419607E+01  0.21902434789E+03  0.12500000000E+03 0.  0.
         25    1    1    2    0    0 -0.13525682815E+03  0.92339340279E+02  0.45315155157E+02  0.21094887203E+03  0.12500000000E+03 0.  0.
         25    1    1    2    0    0  0.65746458976E+02  0.73273175479E+02  0.75713844508E+02  0.17620766545E+03  0.12500000000E+03 0.  0.
</event>
<event>
 5    0  0.5648525E-005  0.3086636E+03  0.7546771E-02  0.1080988E+00
         21   -1    0    0  502  501  0.00000000000E+00  0.00000000000E+00  0.37030901432E+03  0.37030901432E+03  0.00000000000E+00 0. -1.
         21   -1    0    0  501  502 -0.00000000000E+00 -0.00000000000E+00 -0.25728038351E+03  0.25728038351E+03  0.00000000000E+00 0. -1.
         25    1    1    2    0    0  0.11695178030E+02  0.25734304399E+02 -0.15311721005E+03  0.19967201012E+03  0.12500000000E+03 0.  0.
         25    1    1    2    0    0 -0.10222378392E+02  0.91501659674E+02  0.79130105509E+02  0.17425161216E+03  0.12500000000E+03 0.  0.
         25    1    1    2    0    0 -0.14727996376E+01 -0.11723596407E+03  0.18701573536E+03  0.25366577555E+03  0.12500000000E+03 0.  0.
</event>
<event>
 5    0  0.5648525E-005  0.2178610E+03  0.7546771E-02  0.1135488E+00
         21   -1    0    0  502  501  0.00000000000E+00  0.00000000000E+00  0.11726143980E+04  0.11726143980E+04  0.00000000000E+00 0.  1.
         21   -1    0    0  501  502 -0.00000000000E+00 -0.00000000000E+00 -0.40476585533E+02  0.40476585533E+02  0.00000000000E+00 0.  1.
         25    1    1    2    0    0  0.27322193202E+02  0.18502119803E+01  0.19525903778E+03  0.23345452954E+03  0.12500000000E+03 0.  0.
         25    1    1    2    0    0  0.14729613289E+02 -0.59279273849E+02  0.38676022616E+03  0.41102246454E+03  0.12500000000E+03 0.  0.
         25    1    1    2    0    0 -0.42051806491E+02  0.57429061869E+02  0.55011854853E+03  0.56861398946E+03  0.12500000000E+03 0.  0.
</event>
<event>
 5    0  0.5648525E-005  0.2793749E+03  0.7546771E-02  0.1096031E+00
         21   -1    0    0  502  501  0.00000000000E+00  0.00000000000E+00  0.26976523001E+03  0.26976523001E+03  0.00000000000E+00 0. -1.
         21   -1    0    0  501  502 -0.00000000000E+00 -0.00000000000E+00 -0.28932699236E+03  0.28932699236E+03  0.00000000000E+00 0. -1.
         25    1    1    2    0    0 -0.50675903451E+02 -0.42148198538E+02  0.13508478709E+03  0.19549275571E+03  0.12500000000E+03 0.  0.
         25    1    1    2    0    0  0.16745751948E+01 -0.58537191700E+02 -0.40211226609E+01  0.13809625788E+03  0.12500000000E+03 0.  0.
         25    1    1    2    0    0  0.49001328256E+02  0.10068539024E+03 -0.15062542678E+03  0.22550320878E+03  0.12500000000E+03 0.  0.
</event>
<event>
 5    0  0.5648525E-005  0.2639415E+03  0.7546771E-02  0.1104798E+00
         21   -1    0    0  502  501  0.00000000000E+00  0.00000000000E+00  0.32142106818E+03  0.32142106818E+03  0.00000000000E+00 0.  1.
         21   -1    0    0  501  502 -0.00000000000E+00 -0.00000000000E+00 -0.21674090434E+03  0.21674090434E+03  0.00000000000E+00 0.  1.
         25    1    1    2    0    0  0.13011683658E+03 -0.42795472929E+02 -0.50219916009E+02  0.19211684890E+03  0.12500000000E+03 0.  0.
         25    1    1    2    0    0 -0.90166487847E+02  0.51493387699E+02  0.13848913274E+03  0.21350832395E+03  0.12500000000E+03 0.  0.
         25    1    1    2    0    0 -0.39950348738E+02 -0.86979147705E+01  0.16410947110E+02  0.13253679968E+03  0.12500000000E+03 0.  0.
</event>
<event>
 5    0  0.5648525E-005  0.3627727E+03  0.7546771E-02  0.1057491E+00
         21   -1    0    0  502  501  0.00000000000E+00  0.00000000000E+00  0.60478999775E+03  0.60478999775E+03  0.00000000000E+00 0. -1.
         21   -1    0    0  501  502 -0.00000000000E+00 -0.00000000000E+00 -0.21760287688E+03  0.21760287688E+03  0.00000000000E+00 0. -1.
         25    1    1    2    0    0 -0.21485446603E+03 -0.15193903544E+03  0.47970659001E+02  0.29525259726E+03  0.12500000000E+03 0.  0.
         25    1    1    2    0    0  0.14930457289E+02  0.38671342927E+02  0.17220636038E+03  0.21679119418E+03  0.12500000000E+03 0.  0.
         25    1    1    2    0    0  0.19992400874E+03  0.11326769251E+03  0.16701010149E+03  0.31034908319E+03  0.12500000000E+03 0.  0.
</event>
<event>
 5    0  0.5648525E-005  0.2246399E+03  0.7546771E-02  0.1130470E+00
         21   -1    0    0  502  501  0.00000000000E+00  0.00000000000E+00  0.48882162921E+02  0.48882162921E+02  0.00000000000E+00 0. -1.
         21   -1    0    0  501  502 -0.00000000000E+00 -0.00000000000E+00 -0.10323414567E+04  0.10323414567E+04  0.00000000000E+00 0. -1.
         25    1    1    2    0    0 -0.51230715675E+01 -0.47518904090E+02 -0.55016556366E+03  0.56620794726E+03  0.12500000000E+03 0.  0.
         25    1    1    2    0    0 -0.19711583108E+02 -0.27567171756E+02 -0.22362295384E+03  0.25841966054E+03  0.12500000000E+03 0.  0.
         25    1    1    2    0    0  0.24834654676E+02  0.75086075847E+02 -0.20967077630E+03  0.25659601184E+03  0.12500000000E+03 0.  0.
</event>
<event>
 5    0  0.5648525E-005  0.2867915E+03  0.7546771E-02  0.1092036E+00
         21   -1    0    0  502  501  0.00000000000E+00  0.00000000000E+00  0.20134688704E+04  0.20134688704E+04  0.00000000000E+00 0.  1.
         21   -1    0    0  501  502 -0.00000000000E+00 -0.00000000000E+00 -0.40849581883E+02  0.40849581883E+02  0.00000000000E+00 0.  1.
         25    1    1    2    0    0 -0.47294595580E+02 -0.19114803171E+02  0.53675685488E+03  0.55347545178E+03  0.12500000000E+03 0.  0.
         25    1    1    2    0    0  0.77823631147E+02 -0.15821501363E+03  0.77746410797E+03  0.80694730143E+03  0.12500000000E+03 0.  0.
         25    1    1    2    0    0 -0.30529035567E+02  0.17732981680E+03  0.65839832566E+03  0.69389569906E+03  0.12500000000E+03 0.  0.
</event>
<event>
 5    0  0.5648525E-005  0.3265866E+03  0.7546771E-02  0.1072657E+00
         21   -1    0    0  502  501  0.00000000000E+00  0.00000000000E+00  0.56578992224E+03  0.56578992224E+03  0.00000000000E+00 0. -1.
         21   -1    0    0  501  502 -0.00000000000E+00 -0.00000000000E+00 -0.18851310982E+03  0.18851310982E+03  0.00000000000E+00 0. -1.
         25    1    1    2    0    0  0.11870724441E+03  0.35963063097E+02 -0.61554107104E+02  0.18654398914E+03  0.12500000000E+03 0.  0.
         25    1    1    2    0    0  0.93872498273E+01 -0.56939419075E+02  0.63928255800E+02  0.15179604670E+03  0.12500000000E+03 0.  0.
         25    1    1    2    0    0 -0.12809449423E+03  0.20976355977E+02  0.37490266372E+03  0.41596299622E+03  0.12500000000E+03 0.  0.
</event>
<event>
 5    0  0.5648525E-005  0.3820232E+03  0.7546771E-02  0.1050188E+00
         21   -1    0    0  502  501  0.00000000000E+00  0.00000000000E+00  0.10739756840E+03  0.10739756840E+03  0.00000000000E+00 0.  1.
         21   -1    0    0  501  502 -0.00000000000E+00 -0.00000000000E+00 -0.13588925991E+04  0.13588925991E+04  0.00000000000E+00 0.  1.
         25    1    1    2    0    0  0.82064082178E+02 -0.22105215060E+03 -0.14668622720E+03  0.30453311170E+03  0.12500000000E+03 0.  0.
         25    1    1    2    0    0 -0.86166425757E+02  0.83609140349E+02 -0.54836387343E+03  0.57510266819E+03  0.12500000000E+03 0.  0.
         25    1    1    2    0    0  0.41023435782E+01  0.13744301025E+03 -0.55644493009E+03  0.58665438762E+03  0.12500000000E+03 0.  0.
</event>
<event>
 5    0  0.5648525E-005  0.3093013E+03  0.7546771E-02  0.1080681E+00
         21   -1    0    0  502  501  0.00000000000E+00  0.00000000000E+00  0.70349390289E+02  0.70349390289E+02  0.00000000000E+00 0. -1.
         21   -1    0    0  501  502 -0.00000000000E+00 -0.00000000000E+00 -0.13598881903E+04  0.13598881903E+04  0.00000000000E+00 0. -1.
         25    1    1    2    0    0 -0.66917561661E+02  0.68442048017E+02 -0.28641394688E+03  0.32683363193E+03  0.12500000000E+03 0.  0.
         25    1    1    2    0    0  0.44531635414E+02 -0.12264111424E+03 -0.92955795245E+03  0.94695664970E+03  0.12500000000E+03 0.  0.
         25    1    1    2    0    0  0.22385926247E+02  0.54199066224E+02 -0.73566900682E+02  0.15644729895E+03  0.12500000000E+03 0.  0.
</event>
<event>
 5    0  0.5648525E-005  0.3075691E+03  0.7546771E-02  0.1081517E+00
         21   -1    0    0  502  501  0.00000000000E+00  0.00000000000E+00  0.67989656854E+03  0.67989656854E+03  0.00000000000E+00 0. -1.
         21   -1    0    0  501  502 -0.00000000000E+00 -0.00000000000E+00 -0.13913698610E+03  0.13913698610E+03  0.00000000000E+00 0. -1.
         25    1    1    2    0    0 -0.51526855592E+02  0.45026947156E+02  0.25341884535E+03  0.29073794729E+03  0.12500000000E+03 0.  0.
         25    1    1    2    0    0  0.47749313780E+02  0.35280160477E+02  0.34278874709E+03  0.36966716357E+03  0.12500000000E+03 0.  0.
         25    1    1    2    0    0  0.37775418120E+01 -0.80307107633E+02 -0.55448010003E+02  0.15862844377E+03  0.12500000000E+03 0.  0.
</event>
<event>
 5    0  0.5648525E-005  0.3304358E+03  0.7546771E-02  0.1070944E+00
         21   -1    0    0  502  501  0.00000000000E+00  0.00000000000E+00  0.58179875935E+02  0.58179875935E+02  0.00000000000E+00 0.  1.
         21   -1    0    0  501  502 -0.00000000000E+00 -0.00000000000E+00 -0.18767285679E+04  0.18767285679E+04  0.00000000000E+00 0.  1.
         25    1    1    2    0    0 -0.15591187451E+03 -0.97988377943E+02 -0.38177848737E+03  0.44191633625E+03  0.12500000000E+03 0.  0.
         25    1    1    2    0    0  0.12047232003E+03  0.11832639203E+03 -0.12309134699E+04  0.12487144130E+04  0.12500000000E+03 0.  0.
         25    1    1    2    0    0  0.35439554485E+02 -0.20338014084E+02 -0.20585673474E+03  0.24427769460E+03  0.12500000000E+03 0.  0.
</event>
<event>
 5    0  0.5648525E-005  0.7003879E+03  0.7546771E-02  0.9716569E-01
         21   -1    0    0  502  501  0.00000000000E+00  0.00000000000E+00  0.42803309964E+03  0.42803309964E+03  0.00000000000E+00 0. -1.
         21   -1    0    0  501  502 -0.00000000000E+00 -0.00000000000E+00 -0.11460404404E+04  0.11460404404E+04  0.00000000000E+00 0. -1.
         25    1    1    2    0    0 -0.62512864738E+02  0.39575509110E+03  0.12019503184E+03  0.43657965604E+03  0.12500000000E+03 0.  0.
         25    1    1    2    0    0  0.41197067274E+02 -0.17062511637E+02  0.66591296857E+02  0.14848477522E+03  0.12500000000E+03 0.  0.
         25    1    1    2    0    0  0.21315797463E+02 -0.37869257946E+03 -0.90479366948E+03  0.98900910880E+03  0.12500000000E+03 0.  0.
</event>
<event>
 5    0  0.5648525E-005  0.3722505E+03  0.7546771E-02  0.1053836E+00
         21   -1    0    0  502  501  0.00000000000E+00  0.00000000000E+00  0.17637803914E+03  0.17637803914E+03  0.00000000000E+00 0.  1.
         21   -1    0    0  501  502 -0.00000000000E+00 -0.00000000000E+00 -0.78564464681E+03  0.78564464681E+03  0.00000000000E+00 0.  1.
         25    1    1    2    0    0 -0.26651612639E+03  0.10311736700E+03 -0.38246095773E+03  0.49352347583E+03  0.12500000000E+03 0.  0.
         25    1    1    2    0    0  0.37144597580E+02 -0.53979140086E+01 -0.83462482600E+02  0.15491883232E+03  0.12500000000E+03 0.  0.
         25    1    1    2    0    0  0.22937152881E+03 -0.97719452990E+02 -0.14334316733E+03  0.31358037780E+03  0.12500000000E+03 0.  0.
</event>
<event>
 5    0  0.5648525E-005  0.2881724E+03  0.7546771E-02  0.1091307E+00
         21   -1    0    0  502  501  0.00000000000E+00  0.00000000000E+00  0.61923955285E+02  0.61923955285E+02  0.00000000000E+00 0.  1.
         21   -1    0    0  501  502 -0.00000000000E+00 -0.00000000000E+00 -0.13410535849E+04  0.13410535849E+04  0.00000000000E+00 0.  1.
         25    1    1    2    0    0  0.87272908909E+02  0.93644199141E+02 -0.58131404444E+03  0.60822431300E+03  0.12500000000E+03 0.  0.
         25    1    1    2    0    0 -0.17468844956E+03 -0.42436143082E+02 -0.38155800513E+03  0.43991861967E+03  0.12500000000E+03 0.  0.
         25    1    1    2    0    0  0.87415540655E+02 -0.51208056058E+02 -0.31625758000E+03  0.35483460748E+03  0.12500000000E+03 0.  0.
</event>
<event>
 5    0  0.5648525E-005  0.3138435E+03  0.7546771E-02  0.1078518E+00
         21   -1    0    0  502  501  0.00000000000E+00  0.00000000000E+00  0.13292351380E+03  0.13292351380E+03  0.00000000000E+00 0. -1.
         21   -1    0    0  501  502 -0.00000000000E+00 -0.00000000000E+00 -0.74101067982E+03  0.74101067982E+03  0.00000000000E+00 0. -1.
         25    1    1    2    0    0  0.15502645845E+03 -0.97287402467E+02 -0.26464342706E+03  0.34519441621E+03  0.12500000000E+03 0.  0.
         25    1    1    2    0    0  0.27459349142E+02 -0.44375222565E+02 -0.83118087498E+02  0.15892385819E+03  0.12500000000E+03 0.  0.
         25    1    1    2    0    0 -0.18248580759E+03  0.14166262503E+03 -0.26032565146E+03  0.36981591922E+03  0.12500000000E+03 0.  0.
</event>
<event>
 5    0  0.5648525E-005  0.2852962E+03  0.7546771E-02  0.1092831E+00
         21   -1    0    0  502  501  0.00000000000E+00  0.00000000000E+00  0.25138437560E+03  0.25138437560E+03  0.00000000000E+00 0. -1.
         21   -1    0    0  501  502 -0.00000000000E+00 -0.00000000000E+00 -0.32378284516E+03  0.32378284516E+03  0.00000000000E+00 0. -1.
         25    1    1    2    0    0 -0.58480304633E+02  0.55713068633E+02 -0.19510294637E+03  0.24538551654E+03  0.12500000000E+03 0.  0.
         25    1    1    2    0    0  0.59660746817E+01 -0.67292141717E+02 -0.63647691395E+01  0.14222987264E+03  0.12500000000E+03 0.  0.
         25    1    1    2    0    0  0.52514229952E+02  0.11579073084E+02  0.12906924595E+03  0.18755183159E+03  0.12500000000E+03 0.  0.
</event>
<event>
 5    0  0.5648525E-005  0.3566770E+03  0.7546771E-02  0.1059907E+00
         21   -1    0    0  502  501  0.00000000000E+00  0.00000000000E+00  0.21247346767E+04  0.21247346767E+04  0.00000000000E+00 0. -1.
         21   -1    0    0  501  502 -0.00000000000E+00 -0.00000000000E+00 -0.59874999604E+02  0.59874999604E+02  0.00000000000E+00 0. -1.
         25    1    1    2    0    0  0.38099668432E+02 -0.11850510038E+03  0.15280405570E+03  0.23338620994E+03  0.12500000000E+03 0.  0.
         25    1    1    2    0    0  0.60346801280E+02  0.16751802506E+03  0.12337505303E+04  0.12527846568E+04  0.12500000000E+03 0.  0.
         25    1    1    2    0    0 -0.98446469711E+02 -0.49012924675E+02  0.67830509109E+03  0.69843880962E+03  0.12500000000E+03 0.  0.
</event>
<event>
 5    0  0.5648525E-005  0.2648552E+03  0.7546771E-02  0.1104261E+00
         21   -1    0    0  502  501  0.00000000000E+00  0.00000000000E+00  0.82518360757E+03  0.82518360757E+03  0.00000000000E+00 0.  1.
         21   -1    0    0  501  502 -0.00000000000E+00 -0.00000000000E+00 -0.85009306630E+02  0.85009306630E+02  0.00000000000E+00 0.  1.
         25    1    1    2    0    0 -0.10038537181E+03  0.93328846891E+02  0.26762863297E+03  0.32563412248E+03  0.12500000000E+03 0.  0.
         25    1    1    2    0    0  0.62937059140E+02 -0.14698318735E+03  0.27318914659E+03  0.34032696131E+03  0.12500000000E+03 0.  0.
         25    1    1    2    0    0  0.37448312675E+02  0.53654340457E+02  0.19935652138E+03  0.24423183041E+03  0.12500000000E+03 0.  0.
</event>
<event>
 5    0  0.5768426E-005  0.3137377E+03  0.7546771E-02  0.1078568E+00
         21   -1    0    0  502  501  0.00000000000E+00  0.00000000000E+00  0.39264433861E+03  0.39264433861E+03  0.00000000000E+00 0.  1.
         21   -1    0    0  501  502 -0.00000000000E+00 -0.00000000000E+00 -0.25068830774E+03  0.25068830774E+03  0.00000000000E+00 0.  1.
         25    1    1    2    0    0 -0.13083099805E+02 -0.15075635443E+03 -0.43276973339E+02  0.20098891095E+03  0.12500000000E+03 0.  0.
         25    1    1    2    0    0 -0.11968268639E+03  0.12678342464E+03  0.71651512331E+02  0.22617895880E+03  0.12500000000E+03 0.  0.
         25    1    1    2    0    0  0.13276578620E+03  0.23972929791E+02  0.11358149188E+03  0.21616477661E+03  0.12500000000E+03 0.  0.
</event>
<event>
 5    0  0.5648525E-005  0.2657538E+03  0.7546771E-02  0.1103735E+00
         21   -1    0    0  502  501  0.00000000000E+00  0.00000000000E+00  0.16639462897E+04  0.16639462897E+04  0.00000000000E+00 0.  1.
         21   -1    0    0  501  502 -0.00000000000E+00 -0.00000000000E+00 -0.42444336987E+02  0.42444336987E+02  0.00000000000E+00 0.  1.
         25    1    1    2    0    0  0.28775484434E+02 -0.12864564783E+03  0.46477275117E+03  0.49901547214E+03  0.12500000000E+03 0.  0.
         25    1    1    2    0    0 -0.84949311595E+02  0.10764048429E+03  0.44271962982E+03  0.48002971786E+03  0.12500000000E+03 0.  0.
         25    1    1    2    0    0  0.56173827160E+02  0.21005163542E+02  0.71400957175E+03  0.72734543671E+03  0.12500000000E+03 0.  0.
</event>
<event>
 5    0  0.5648525E-005  0.3004259E+03  0.7546771E-02  0.1085028E+00
         21   -1    0    0  502  501  0.00000000000E+00  0.00000000000E+00  0.89406994940E+03  0.89406994940E+03  0.00000000000E+00 0.  1.
         21   -1    0    0  501  502 -0.00000000000E+00 -0.00000000000E+00 -0.10094925361E+03  0.10094925361E+03  0.00000000000E+00 0.  1.
         25    1    1    2    0    0  0.48307286061E+02 -0.88481646415E+02  0.57545847102E+03  0.59744459786E+03  0.12500000000E+03 0.  0.
         25    1    1    2    0    0 -0.11406401818E+03  0.77890837505E+02  0.89970026837E+02  0.20687481369E+03  0.12500000000E+03 0.  0.
         25    1    1    2    0    0  0.65756732124E+02  0.10590808910E+02  0.12769219793E+03  0.19069979146E+03  0.12500000000E+03 0.  0.
</event>
<event>
 5    0  0.5648525E-005  0.3381802E+03  0.7546771E-02  0.1067574E+00
         21   -1    0    0  502  501  0.00000000000E+00  0.00000000000E+00  0.26785399426E+03  0.26785399426E+03  0.00000000000E+00 0. -1.
         21   -1    0    0  501  502 -0.00000000000E+00 -0.00000000000E+00 -0.42697083132E+03  0.42697083132E+03  0.00000000000E+00 0. -1.
         25    1    1    2    0    0  0.13280447173E+03  0.94811798783E+02 -0.99281376336E+02  0.22827197942E+03  0.12500000000E+03 0.  0.
         25    1    1    2    0    0 -0.79208690298E+02  0.12713070113E+03 -0.66650603284E+02  0.20616385403E+03  0.12500000000E+03 0.  0.
         25    1    1    2    0    0 -0.53595781430E+02 -0.22194249992E+03  0.68151425672E+01  0.26038899213E+03  0.12500000000E+03 0.  0.
</event>
<event>
 5    0  0.5732840E-005  0.2806709E+03  0.7546771E-02  0.1095323E+00
         21   -1    0    0  502  501  0.00000000000E+00  0.00000000000E+00  0.13859861207E+03  0.13859861207E+03  0.00000000000E+00 0. -1.
         21   -1    0    0  501  502 -0.00000000000E+00 -0.00000000000E+00 -0.56837616260E+03  0.56837616260E+03  0.00000000000E+00 0. -1.
         25    1    1    2    0    0  0.94252427168E+01 -0.38401546985E+02  0.81894317825E+01  0.13136049941E+03  0.12500000000E+03 0.  0.
         25    1    1    2    0    0  0.18608214343E+02  0.17228257955E+02 -0.42661800740E+03  0.44527632180E+03  0.12500000000E+03 0.  0.
         25    1    1    2    0    0 -0.28033457059E+02  0.21173289030E+02 -0.11348974914E+02  0.13033795347E+03  0.12500000000E+03 0.  0.
</event>
<event>
 5    0  0.5648525E-005  0.2835801E+03  0.7546771E-02  0.1093749E+00
         21   -1    0    0  502  501  0.00000000000E+00  0.00000000000E+00  0.16710629558E+04  0.16710629558E+04  0.00000000000E+00 0. -1.
         21   -1    0    0  501  502 -0.00000000000E+00 -0.00000000000E+00 -0.48123681197E+02  0.48123681197E+02  0.00000000000E+00 0. -1.
         25    1    1    2    0    0  0.73315726898E+02 -0.46242952970E+02  0.73523613621E+03  0.75080675443E+03  0.12500000000E+03 0.  0.
         25    1    1    2    0    0  0.84589681147E+02 -0.52496338569E+02  0.31239033673E+03  0.35089029939E+03  0.12500000000E+03 0.  0.
         25    1    1    2    0    0 -0.15790540804E+03  0.98739291540E+02  0.57531280170E+03  0.61748958322E+03  0.12500000000E+03 0.  0.
</event>
<event>
 5    0  0.5648525E-005  0.5998900E+03  0.7546771E-02  0.9905634E-01
         21   -1    0    0  502  501  0.00000000000E+00  0.00000000000E+00  0.70838945368E+03  0.70838945368E+03  0.00000000000E+00 0.  1.
         21   -1    0    0  501  502 -0.00000000000E+00 -0.00000000000E+00 -0.50800874879E+03  0.50800874879E+03  0.00000000000E+00 0.  1.
         25    1    1    2    0    0  0.12427728359E+03  0.38861140738E+02 -0.42483864078E+03  0.46159278827E+03  0.12500000000E+03 0.  0.
         25    1    1    2    0    0 -0.10552750974E+03  0.93162715567E+02  0.49722489650E+03  0.53166995832E+03  0.12500000000E+03 0.  0.
         25    1    1    2    0    0 -0.18749773858E+02 -0.13202385631E+03  0.12799444918E+03  0.22313545589E+03  0.12500000000E+03 0.  0.
</event>
<event>
 5    0  0.5648525E-005  0.4245957E+03  0.7546771E-02  0.1035581E+00
         21   -1    0    0  502  501  0.00000000000E+00  0.00000000000E+00  0.10251898643E+04  0.10251898643E+04  0.00000000000E+00 0. -1.
         21   -1    0    0  501  502 -0.00000000000E+00 -0.00000000000E+00 -0.17585183849E+03  0.17585183849E+03  0.00000000000E+00 0. -1.
         25    1    1    2    0    0 -0.19241956920E+03 -0.26771094154E+03  0.60561699013E+03  0.70077912182E+03  0.12500000000E+03 0.  0.
         25    1    1    2    0    0  0.10412748283E+03  0.21319368927E+03  0.11004534569E+03  0.28987766374E+03  0.12500000000E+03 0.  0.
         25    1    1    2    0    0  0.88292086373E+02  0.54517252266E+02  0.13367569002E+03  0.21038491727E+03  0.12500000000E+03 0.  0.
</event>
<event>
 5    0  0.5648525E-005  0.6758761E+03  0.7546771E-02  0.9759400E-01
         21   -1    0    0  502  501  0.00000000000E+00  0.00000000000E+00  0.89182193525E+03  0.89182193525E+03  0.00000000000E+00 0. -1.
         21   -1    0    0  501  502 -0.00000000000E+00 -0.00000000000E+00 -0.51221944359E+03  0.51221944359E+03  0.00000000000E+00 0. -1.
         25    1    1    2    0    0 -0.38298543289E+02  0.31873139024E+02  0.85673836886E+01  0.13483721843E+03  0.12500000000E+03 0.  0.
         25    1    1    2    0    0  0.54279254669E+03  0.73809997570E+02  0.46651156858E+03  0.73029426131E+03  0.12500000000E+03 0.  0.
         25    1    1    2    0    0 -0.50449400340E+03 -0.10568313659E+03 -0.95476460608E+02  0.53890989911E+03  0.12500000000E+03 0.  0.
</event>
<event>
 5    0  0.5648525E-005  0.4171963E+03  0.7546771E-02  0.1037983E+00
         21   -1    0    0  502  501  0.00000000000E+00  0.00000000000E+00  0.46936811582E+02  0.46936811582E+02  0.00000000000E+00 0.  1.
         21   -1    0    0  501  502 -0.00000000000E+00 -0.00000000000E+00 -0.37082355173E+04  0.37082355173E+04  0.00000000000E+00 0.  1.
         25    1    1    2    0    0 -0.27699878171E+02 -0.31363784322E+03 -0.11480111367E+04  0.11969505211E+04  0.12500000000E+03 0.  0.
         25    1    1    2    0    0  0.80074696413E+02  0.18608500611E+03 -0.79469036738E+03  0.82957661883E+03  0.12500000000E+03 0.  0.
         25    1    1    2    0    0 -0.52374818242E+02  0.12755283711E+03 -0.17185972016E+04  0.17286451889E+04  0.12500000000E+03 0.  0.
</event>
<event>
 5    0  0.5842015E-005  0.4614938E+03  0.7546771E-02  0.1024349E+00
         21   -1    0    0  502  501  0.00000000000E+00  0.00000000000E+00  0.18349979770E+03  0.18349979770E+03  0.00000000000E+00 0.  1.
         21   -1    0    0  501  502 -0.00000000000E+00 -0.00000000000E+00 -0.11606363615E+04  0.11606363615E+04  0.00000000000E+00 0.  1.
         25    1    1    2    0    0  0.23031232102E+03 -0.68769483749E+01 -0.23709328777E+02  0.26320750351E+03  0.12500000000E+03 0.  0.
         25    1    1    2    0    0  0.75219052053E+01 -0.10060168381E+03 -0.61508048051E+03  0.63570926951E+03  0.12500000000E+03 0.  0.
         25    1    1    2    0    0 -0.23783422622E+03  0.10747863219E+03 -0.33834675453E+03  0.44521938619E+03  0.12500000000E+03 0.  0.
</event>
<event>
 5    0  0.5648525E-005  0.2914433E+03  0.7546771E-02  0.1089598E+00
         21   -1    0    0  502  501  0.00000000000E+00  0.00000000000E+00  0.10345454072E+04  0.10345454072E+04  0.00000000000E+00 0.  1.
         21   -1    0    0  501  502 -0.00000000000E+00 -0.00000000000E+00 -0.82102931972E+02  0.82102931972E+02  0.00000000000E+00 0.  1.
         25    1    1    2    0    0 -0.85117220790E+01 -0.47035289967E+02  0.56693460006E+03  0.58251575829E+03  0.12500000000E+03 0.  0.
         25    1    1    2    0    0 -0.66732879803E+02  0.10227480897E+03  0.82339553685E+02  0.19317923257E+03  0.12500000000E+03 0.  0.
         25    1    1    2    0    0  0.75244601882E+02 -0.55239519000E+02  0.30316832149E+03  0.34095334832E+03  0.12500000000E+03 0.  0.
</event>
<event>
 5    0  0.5648525E-005  0.3356079E+03  0.7546771E-02  0.1068682E+00
         21   -1    0    0  502  501  0.00000000000E+00  0.00000000000E+00  0.14333895338E+04  0.14333895338E+04  0.00000000000E+00 0.  1.
         21   -1    0    0  501  502 -0.00000000000E+00 -0.00000000000E+00 -0.78577847727E+02  0.78577847727E+02  0.00000000000E+00 0.  1.
         25    1    1    2    0    0 -0.69444455716E+02  0.53060735954E+02  0.82571414710E+03  0.83968257505E+03  0.12500000000E+03 0.  0.
         25    1    1    2    0    0  0.34396987231E+02 -0.17437022924E+03  0.18647504835E+03  0.28633210304E+03  0.12500000000E+03 0.  0.
         25    1    1    2    0    0  0.35047468485E+02  0.12130949328E+03  0.34262249066E+03  0.38595270347E+03  0.12500000000E+03 0.  0.
</event>
<event>
 5    0  0.5648525E-005  0.2704227E+03  0.7546771E-02  0.1101038E+00
         21   -1    0    0  502  501  0.00000000000E+00  0.00000000000E+00  0.84499487909E+03  0.84499487909E+03  0.00000000000E+00 0.  1.
         21   -1    0    0  501  502 -0.00000000000E+00 -0.00000000000E+00 -0.86543053277E+02  0.86543053277E+02  0.00000000000E+00 0.  1.
         25    1    1    2    0    0  0.72170159915E+01 -0.30910074453E+02  0.46620104664E+03  0.48371058900E+03  0.12500000000E+03 0.  0.
         25    1    1    2    0    0  0.84150501460E+02  0.18871311628E+02  0.23992797746E+03  0.28395046692E+03  0.12500000000E+03 0.  0.
         25    1    1    2    0    0 -0.91367517452E+02  0.12038762825E+02  0.52322801724E+02  0.16387687645E+03  0.12500000000E+03 0.  0.
</event>
<event>
 5    0  0.5648525E-005  0.3414461E+03  0.7546771E-02  0.1066182E+00
         21   -1    0    0  502  501  0.00000000000E+00  0.00000000000E+00  0.15419570626E+04  0.15419570626E+04  0.00000000000E+00 0. -1.
         21   -1    0    0  501  502 -0.00000000000E+00 -0.00000000000E+00 -0.75608728408E+02  0.75608728408E+02  0.00000000000E+00 0. -1.
         25    1    1    2    0    0 -0.44776832084E+02  0.25078670453E+03  0.45501580532E+03  0.53624930671E+03  0.12500000000E+03 0.  0.
         25    1    1    2    0    0  0.74131800280E+02 -0.10453176168E+03  0.60233471419E+03  0.62837450691E+03  0.12500000000E+03 0.  0.
         25    1    1    2    0    0 -0.29354968196E+02 -0.14625494285E+03  0.40899781473E+03  0.45294197743E+03  0.12500000000E+03 0.  0.
</event>
<event>
 5    0  0.5648525E-005  0.3392305E+03  0.7546771E-02  0.1067124E+00
         21   -1    0    0  502  501  0.00000000000E+00  0.00000000000E+00  0.17906847918E+03  0.17906847918E+03  0.00000000000E+00 0.  1.
         21   -1    0    0  501  502 -0.00000000000E+00 -0.00000000000E+00 -0.64264415671E+03  0.64264415671E+03  0.00000000000E+00 0.  1.
         25    1    1    2    0    0  0.15962681913E+03 -0.20486241574E+03 -0.15758501844E+03  0.32849257040E+03  0.12500000000E+03 0.  0.
         25    1    1    2    0    0 -0.12024218284E+03  0.12045903919E+03 -0.25077785557E+03  0.32784614608E+03  0.12500000000E+03 0.  0.
         25    1    1    2    0    0 -0.39384636296E+02  0.84403376556E+02 -0.55212803513E+02  0.16537391941E+03  0.12500000000E+03 0.  0.
</event>
<event>
 5    0  0.5648525E-005  0.4501433E+03  0.7546771E-02  0.1027679E+00
         21   -1    0    0  502  501  0.00000000000E+00  0.00000000000E+00  0.15161109453E+03  0.15161109453E+03  0.00000000000E+00 0.  1.
         21   -1    0    0  501  502 -0.00000000000E+00 -0.00000000000E+00 -0.13365050195E+04  0.13365050195E+04  0.00000000000E+00 0.  1.
         25    1    1    2    0    0  0.31728126549E+03 -0.37025706569E+02 -0.72162607249E+03  0.79900406311E+03  0.12500000000E+03 0.  0.
         25    1    1    2    0    0 -0.12292353932E+01 -0.23804742570E+02 -0.22526852577E+02  0.12923094009E+03  0.12500000000E+03 0.  0.
         25    1    1    2    0    0 -0.31605203009E+03  0.60830449140E+02 -0.44074099990E+03  0.55988111083E+03  0.12500000000E+03 0.  0.
</event>
<event>
 5    0  0.5648525E-005  0.5049431E+03  0.7546771E-02  0.1012497E+00
         21   -1    0    0  502  501  0.00000000000E+00  0.00000000000E+00  0.40429737876E+03  0.40429737876E+03  0.00000000000E+00 0.  1.
         21   -1    0    0  501  502 -0.00000000000E+00 -0.00000000000E+00 -0.63064361187E+03  0.63064361187E+03  0.00000000000E+00 0.  1.
         25    1    1    2    0    0  0.16968368156E+03  0.38270115116E+02  0.20812524765E+03  0.29866079791E+03  0.12500000000E+03 0.  0.
         25    1    1    2    0    0  0.15219205126E+03  0.92638702627E+01 -0.25304228408E+02  0.19878013919E+03  0.12500000000E+03 0.  0.
         25    1    1    2    0    0 -0.32187573282E+03 -0.47533985379E+02 -0.40916725235E+03  0.53750005353E+03  0.12500000000E+03 0.  0.
</event>
<event>
 5    0  0.5648525E-005  0.2355933E+03  0.7546771E-02  0.1122764E+00
         21   -1    0    0  502  501  0.00000000000E+00  0.00000000000E+00  0.81526818941E+03  0.81526818941E+03  0.00000000000E+00 0. -1.
         21   -1    0    0  501  502 -0.00000000000E+00 -0.00000000000E+00 -0.68080889901E+02  0.68080889901E+02  0.00000000000E+00 0. -1.
         25    1    1    2    0    0  0.49882138141E+01  0.40163025620E+02  0.49994984680E+02  0.14057897922E+03  0.12500000000E+03 0.  0.
         25    1    1    2    0    0  0.14572291836E+02 -0.11179111975E+02  0.33705828820E+03  0.35995918363E+03  0.12500000000E+03 0.  0.
         25    1    1    2    0    0 -0.19560505650E+02 -0.28983913646E+02  0.36013402663E+03  0.38281091647E+03  0.12500000000E+03 0.  0.
</event>
<event>
 5    0  0.5648525E-005  0.3025505E+03  0.7546771E-02  0.1083973E+00
         21   -1    0    0  502  501  0.00000000000E+00  0.00000000000E+00  0.37130139612E+03  0.37130139612E+03  0.00000000000E+00 0.  1.
         21   -1    0    0  501  502 -0.00000000000E+00 -0.00000000000E+00 -0.24652958222E+03  0.24652958222E+03  0.00000000000E+00 0.  1.
         25    1    1    2    0    0 -0.19586756128E+02  0.13412357978E+03  0.59747785413E+02  0.19382356289E+03  0.12500000000E+03 0.  0.
         25    1    1    2    0    0 -0.11169183106E+03 -0.16466408151E+03  0.30157906975E+02  0.23690467327E+03  0.12500000000E+03 0.  0.
         25    1    1    2    0    0  0.13127858719E+03  0.30540501729E+02  0.34866121513E+02  0.18710274218E+03  0.12500000000E+03 0.  0.
</event>
<event>
 5    0  0.5648525E-005  0.2966809E+03  0.7546771E-02  0.1086912E+00
         21   -1    0    0  502  501  0.00000000000E+00  0.00000000000E+00  0.44650696159E+03  0.44650696159E+03  0.00000000000E+00 0.  1.
         21   -1    0    0  501  502 -0.00000000000E+00 -0.00000000000E+00 -0.19712924865E+03  0.19712924865E+03  0.00000000000E+00 0.  1.
         25    1    1    2    0    0 -0.71101909138E+02  0.12860995363E+03  0.17065634985E+03  0.25757443856E+03  0.12500000000E+03 0.  0.
         25    1    1    2    0    0  0.11526808192E+03 -0.16571595924E+03  0.72498976356E+02  0.24825311968E+03  0.12500000000E+03 0.  0.
         25    1    1    2    0    0 -0.44166172780E+02  0.37106005612E+02  0.62223867475E+01  0.13780865200E+03  0.12500000000E+03 0.  0.
</event>
<event>
 5    0  0.5648525E-005  0.2698076E+03  0.7546771E-02  0.1101390E+00
         21   -1    0    0  502  501  0.00000000000E+00  0.00000000000E+00  0.11151293919E+04  0.11151293919E+04  0.00000000000E+00 0. -1.
         21   -1    0    0  501  502 -0.00000000000E+00 -0.00000000000E+00 -0.65280435167E+02  0.65280435167E+02  0.00000000000E+00 0. -1.
         25    1    1    2    0    0 -0.11809605726E+03 -0.10642466586E+03  0.32241489571E+03  0.38059066360E+03  0.12500000000E+03 0.  0.
         25    1    1    2    0    0  0.49593952239E+02  0.13081466374E+03  0.42672766811E+03  0.46614755076E+03  0.12500000000E+03 0.  0.
         25    1    1    2    0    0  0.68502105022E+02 -0.24389997878E+02  0.30070639291E+03  0.33367161271E+03  0.12500000000E+03 0.  0.
</event>
<event>
 5    0  0.5648525E-005  0.2939691E+03  0.7546771E-02  0.1088295E+00
         21   -1    0    0  502  501  0.00000000000E+00  0.00000000000E+00  0.16426346881E+03  0.16426346881E+03  0.00000000000E+00 0.  1.
         21   -1    0    0  501  502 -0.00000000000E+00 -0.00000000000E+00 -0.52609276157E+03  0.52609276157E+03  0.00000000000E+00 0.  1.
         25    1    1    2    0    0  0.12327156562E+03  0.48579826710E+02 -0.24643739572E+03  0.30645108657E+03  0.12500000000E+03 0.  0.
         25    1    1    2    0    0 -0.24944974705E+02  0.79304322678E+02 -0.97588525379E+02  0.17905291856E+03  0.12500000000E+03 0.  0.
         25    1    1    2    0    0 -0.98326590919E+02 -0.12788414939E+03 -0.17803371667E+02  0.20485222525E+03  0.12500000000E+03 0.  0.
</event>
<event>
 5    0  0.5648525E-005  0.4253588E+03  0.7546771E-02  0.1035336E+00
         21   -1    0    0  502  501  0.00000000000E+00  0.00000000000E+00  0.40611645293E+03  0.40611645293E+03  0.00000000000E+00 0. -1.
         21   -1    0    0  501  502 -0.00000000000E+00 -0.00000000000E+00 -0.44551278027E+03  0.44551278027E+03  0.00000000000E+00 0. -1.
         25    1    1    2    0    0  0.30187558099E+01  0.16952411510E+03  0.11581375389E+03  0.24038586497E+03  0.12500000000E+03 0.  0.
         25    1    1    2    0    0 -0.11847152761E+03  0.15029194635E+03 -0.70520883263E+02  0.23920988058E+03  0.12500000000E+03 0.  0.
         25    1    1    2    0    0  0.11545277180E+03 -0.31981606145E+03 -0.84689197965E+02  0.37203348765E+03  0.12500000000E+03 0.  0.
</event>
<event>
 5    0  0.5648525E-005  0.3512622E+03  0.7546771E-02  0.1062098E+00
         21   -1    0    0  502  501  0.00000000000E+00  0.00000000000E+00  0.41322040212E+03  0.41322040212E+03  0.00000000000E+00 0. -1.
         21   -1    0    0  501  502 -0.00000000000E+00 -0.00000000000E+00 -0.29859403716E+03  0.29859403716E+03  0.00000000000E+00 0. -1.
         25    1    1    2    0    0 -0.10669419418E+03  0.93441212021E+02 -0.12823359145E+03  0.22843766141E+03  0.12500000000E+03 0.  0.
         25    1    1    2    0    0  0.18225709206E+03 -0.87014121325E+02  0.23924941901E+03  0.33712666672E+03  0.12500000000E+03 0.  0.
         25    1    1    2    0    0 -0.75562897879E+02 -0.64270906957E+01  0.36105374042E+01  0.14625011115E+03  0.12500000000E+03 0.  0.
</event>
<event>
 5    0  0.6440318E-005  0.2557059E+03  0.7546771E-02  0.1109751E+00
         21   -1    0    0  502  501  0.00000000000E+00  0.00000000000E+00  0.52675483705E+03  0.52675483705E+03  0.00000000000E+00 0.  1.
         21   -1    0    0  501  502 -0.00000000000E+00 -0.00000000000E+00 -0.12412893972E+03  0.12412893972E+03  0.00000000000E+00 0.  1.
         25    1    1    2    0    0 -0.84333238739E+02 -0.65711588907E+02  0.12307288302E+03  0.20543135741E+03  0.12500000000E+03 0.  0.
         25    1    1    2    0    0 -0.25874936161E+02  0.21068999248E+01  0.22539501664E+03  0.25904027655E+03  0.12500000000E+03 0.  0.
         25    1    1    2    0    0  0.11020817490E+03  0.63604688982E+02  0.54157997665E+02  0.18641214281E+03  0.12500000000E+03 0.  0.
</event>
<event>
 5    0  0.6680691E-005  0.5264662E+03  0.7546771E-02  0.1007093E+00
         21   -1    0    0  502  501  0.00000000000E+00  0.00000000000E+00  0.26997360290E+03  0.26997360290E+03  0.00000000000E+00 0. -1.
         21   -1    0    0  501  502 -0.00000000000E+00 -0.00000000000E+00 -0.10266434749E+04  0.10266434749E+04  0.00000000000E+00 0. -1.
         25    1    1    2    0    0 -0.29314095390E+03  0.12100813366E+03 -0.83855892298E+02  0.35104329924E+03  0.12500000000E+03 0.  0.
         25    1    1    2    0    0  0.16346940164E+03 -0.24107780782E+03 -0.98648845236E+02  0.33195986107E+03  0.12500000000E+03 0.  0.
         25    1    1    2    0    0  0.12967155227E+03  0.12006967415E+03 -0.57416513448E+03  0.61361391752E+03  0.12500000000E+03 0.  0.
</event>
<event>
 5    0  0.5648525E-005  0.7170439E+03  0.7546771E-02  0.9688521E-01
         21   -1    0    0  502  501  0.00000000000E+00  0.00000000000E+00  0.60799676489E+03  0.60799676489E+03  0.00000000000E+00 0. -1.
         21   -1    0    0  501  502 -0.00000000000E+00 -0.00000000000E+00 -0.84564913436E+03  0.84564913436E+03  0.00000000000E+00 0. -1.
         25    1    1    2    0    0 -0.19193333150E+03  0.39920007102E+03  0.21618845901E+03  0.50848947900E+03  0.12500000000E+03 0.  0.
         25    1    1    2    0    0 -0.96249933420E+02  0.12084395067E+03 -0.22373252840E+02  0.19998218055E+03  0.12500000000E+03 0.  0.
         25    1    1    2    0    0  0.28818326492E+03 -0.52004402168E+03 -0.43146757564E+03  0.74517423969E+03  0.12500000000E+03 0.  0.
</event>
<event>
 5    0  0.5648525E-005  0.3706553E+03  0.7546771E-02  0.1054443E+00
         21   -1    0    0  502  501  0.00000000000E+00  0.00000000000E+00  0.54569999655E+03  0.54569999655E+03  0.00000000000E+00 0. -1.
         21   -1    0    0  501  502 -0.00000000000E+00 -0.00000000000E+00 -0.25175985574E+03  0.25175985574E+03  0.00000000000E+00 0. -1.
         25    1    1    2    0    0  0.23131774686E+03  0.43986991523E+01  0.38618144217E+02  0.26578865594E+03  0.12500000000E+03 0.  0.
         25    1    1    2    0    0 -0.17744413969E+03  0.20898306802E+02  0.31318569619E+03  0.38161949929E+03  0.12500000000E+03 0.  0.
         25    1    1    2    0    0 -0.53873607165E+02 -0.25297005954E+02 -0.57863699594E+02  0.15005169706E+03  0.12500000000E+03 0.  0.
</event>
<event>
 5    0  0.5648525E-005  0.2698702E+03  0.7546771E-02  0.1101354E+00
         21   -1    0    0  502  501  0.00000000000E+00  0.00000000000E+00  0.91862152551E+03  0.91862152551E+03  0.00000000000E+00 0.  1.
         21   -1    0    0  501  502 -0.00000000000E+00 -0.00000000000E+00 -0.79281762739E+02  0.79281762739E+02  0.00000000000E+00 0.  1.
         25    1    1    2    0    0 -0.27960897161E+02 -0.91512593902E+02  0.25939870958E+03  0.30342883374E+03  0.12500000000E+03 0.  0.
         25    1    1    2    0    0 -0.92885487603E+02 -0.41818712283E+01  0.38916639312E+03  0.41919050966E+03  0.12500000000E+03 0.  0.
         25    1    1    2    0    0  0.12084638476E+03  0.95694465131E+02  0.19077466008E+03  0.27528394486E+03  0.12500000000E+03 0.  0.
</event>
<event>
 5    0  0.5648525E-005  0.3634450E+03  0.7546771E-02  0.1057228E+00
         21   -1    0    0  502  501  0.00000000000E+00  0.00000000000E+00  0.33289098167E+03  0.33289098167E+03  0.00000000000E+00 0.  1.
         21   -1    0    0  501  502 -0.00000000000E+00 -0.00000000000E+00 -0.39680336504E+03  0.39680336504E+03  0.00000000000E+00 0.  1.
         25    1    1    2    0    0  0.14439635042E+03 -0.11580677489E+03  0.14604056172E+03  0.26686018959E+03  0.12500000000E+03 0.  0.
         25    1    1    2    0    0 -0.91999218113E+02  0.18462765011E+03 -0.19486446270E+03  0.31007802912E+03  0.12500000000E+03 0.  0.
         25    1    1    2    0    0 -0.52397132302E+02 -0.68820875221E+02 -0.15088482384E+02  0.15275612800E+03  0.12500000000E+03 0.  0.
</event>
<event>
 5    0  0.5648525E-005  0.2715506E+03  0.7546771E-02  0.1100395E+00
         21   -1    0    0  502  501  0.00000000000E+00  0.00000000000E+00  0.22584626652E+02  0.22584626652E+02  0.00000000000E+00 0. -1.
         21   -1    0    0  501  502 -0.00000000000E+00 -0.00000000000E+00 -0.32650415544E+04  0.32650415544E+04  0.00000000000E+00 0. -1.
         25    1    1    2    0    0 -0.51450912356E+02 -0.62353391513E+01 -0.18669703543E+04  0.18718678852E+04  0.12500000000E+03 0.  0.
         25    1    1    2    0    0  0.98959919120E+02  0.17196354477E+02 -0.10721143379E+04  0.10840400979E+04  0.12500000000E+03 0.  0.
         25    1    1    2    0    0 -0.47509006764E+02 -0.10961015326E+02 -0.30337223548E+03  0.33171819794E+03  0.12500000000E+03 0.  0.
</event>
<event>
 5    0  0.5648525E-005  0.5554091E+03  0.7546771E-02  0.1000250E+00
         21   -1    0    0  502  501  0.00000000000E+00  0.00000000000E+00  0.36505257031E+04  0.36505257031E+04  0.00000000000E+00 0.  1.
         21   -1    0    0  501  502 -0.00000000000E+00 -0.00000000000E+00 -0.84502709708E+02  0.84502709708E+02  0.00000000000E+00 0.  1.
         25    1    1    2    0    0  0.23446670859E+02  0.13261544336E+03  0.26777181519E+04  0.26840149223E+04  0.12500000000E+03 0.  0.
         25    1    1    2    0    0 -0.16945554477E+03 -0.35381587673E+02  0.10368974104E+03  0.23736807029E+03  0.12500000000E+03 0.  0.
         25    1    1    2    0    0  0.14600887391E+03 -0.97233855687E+02  0.78461510049E+03  0.81364542024E+03  0.12500000000E+03 0.  0.
</event>
<event>
 5    0  0.5648525E-005  0.3672565E+03  0.7546771E-02  0.1055747E+00
         21   -1    0    0  502  501  0.00000000000E+00  0.00000000000E+00  0.27747440525E+03  0.27747440525E+03  0.00000000000E+00 0.  1.
         21   -1    0    0  501  502 -0.00000000000E+00 -0.00000000000E+00 -0.48608918806E+03  0.48608918806E+03  0.00000000000E+00 0.  1.
         25    1    1    2    0    0 -0.19066990135E+03 -0.67821759805E+00 -0.16141065673E+03  0.27934543377E+03  0.12500000000E+03 0.  0.
         25    1    1    2    0    0  0.29371644161E+03 -0.71588990891E+01 -0.41005541686E+02  0.32191155984E+03  0.12500000000E+03 0.  0.
         25    1    1    2    0    0 -0.10304654026E+03  0.78371166872E+01 -0.61985843904E+01  0.16230659970E+03  0.12500000000E+03 0.  0.
</event>
<event>
 5    0  0.5648525E-005  0.2118471E+03  0.7546771E-02  0.1140112E+00
         21   -1    0    0  502  501  0.00000000000E+00  0.00000000000E+00  0.11677325828E+03  0.11677325828E+03  0.00000000000E+00 0. -1.
         21   -1    0    0  501  502 -0.00000000000E+00 -0.00000000000E+00 -0.38432748537E+03  0.38432748537E+03  0.00000000000E+00 0. -1.
         25    1    1    2    0    0 -0.18918322497E+02 -0.71364019459E+01 -0.14814576743E+02  0.12748844200E+03  0.12500000000E+03 0.  0.
         25    1    1    2    0    0  0.55281667137E+02  0.36449201915E+02 -0.12199543029E+03  0.18679532128E+03  0.12500000000E+03 0.  0.
         25    1    1    2    0    0 -0.36363344640E+02 -0.29312799969E+02 -0.13074422006E+03  0.18681698037E+03  0.12500000000E+03 0.  0.
</event>
<event>
 5    0  0.5648525E-005  0.4316323E+03  0.7546771E-02  0.1033346E+00
         21   -1    0    0  502  501  0.00000000000E+00  0.00000000000E+00  0.12018112933E+04  0.12018112933E+04  0.00000000000E+00 0.  1.
         21   -1    0    0  501  502 -0.00000000000E+00 -0.00000000000E+00 -0.15502139142E+03  0.15502139142E+03  0.00000000000E+00 0.  1.
         25    1    1    2    0    0 -0.10487807023E+03 -0.18397965650E+03  0.58601090081E+03  0.63551687584E+03  0.12500000000E+03 0.  0.
         25    1    1    2    0    0  0.92989894498E+01  0.24024209049E+03  0.46940939373E+02  0.27501124529E+03  0.12500000000E+03 0.  0.
         25    1    1    2    0    0  0.95579080778E+02 -0.56262433995E+02  0.41383806172E+03  0.44630456360E+03  0.12500000000E+03 0.  0.
</event>
<event>
 5    0  0.5739297E-005  0.2964492E+03  0.7546771E-02  0.1087029E+00
         21   -1    0    0  502  501  0.00000000000E+00  0.00000000000E+00  0.64744295461E+03  0.64744295461E+03  0.00000000000E+00 0.  1.
         21   -1    0    0  501  502 -0.00000000000E+00 -0.00000000000E+00 -0.13573724699E+03  0.13573724699E+03  0.00000000000E+00 0.  1.
         25    1    1    2    0    0 -0.93743475686E+01  0.20422003577E+03  0.26178656276E+03  0.35489562669E+03  0.12500000000E+03 0.  0.
         25    1    1    2    0    0 -0.33261139415E+02 -0.85798830260E+02  0.17982706139E+03  0.23755107804E+03  0.12500000000E+03 0.  0.
         25    1    1    2    0    0  0.42635486984E+02 -0.11842120551E+03  0.70092083467E+02  0.19073349687E+03  0.12500000000E+03 0.  0.
</event>
<event>
 5    0  0.5648525E-005  0.5519972E+03  0.7546771E-02  0.1001033E+00
         21   -1    0    0  502  501  0.00000000000E+00  0.00000000000E+00  0.37742320290E+03  0.37742320290E+03  0.00000000000E+00 0.  1.
         21   -1    0    0  501  502 -0.00000000000E+00 -0.00000000000E+00 -0.80731889192E+03  0.80731889192E+03  0.00000000000E+00 0.  1.
         25    1    1    2    0    0  0.31153833872E+03 -0.17074787268E+03  0.15684041389E+03  0.40796432190E+03  0.12500000000E+03 0.  0.
         25    1    1    2    0    0 -0.11667933909E+03 -0.44674412388E+02 -0.30864890087E+03  0.35566700058E+03  0.12500000000E+03 0.  0.
         25    1    1    2    0    0 -0.19485899963E+03  0.21542228507E+03 -0.27808720204E+03  0.42111077233E+03  0.12500000000E+03 0.  0.
</event>
<event>
 5    0  0.5648525E-005  0.2835852E+03  0.7546771E-02  0.1093747E+00
         21   -1    0    0  502  501  0.00000000000E+00  0.00000000000E+00  0.19630767933E+03  0.19630767933E+03  0.00000000000E+00 0. -1.
         21   -1    0    0  501  502 -0.00000000000E+00 -0.00000000000E+00 -0.40966590627E+03  0.40966590627E+03  0.00000000000E+00 0. -1.
         25    1    1    2    0    0 -0.24910214539E+02 -0.15608115019E+03 -0.11212196191E+03  0.23060394310E+03  0.12500000000E+03 0.  0.
         25    1    1    2    0    0  0.10573488450E+03  0.13237321153E+03 -0.53008164546E+02  0.21711148850E+03  0.12500000000E+03 0.  0.
         25    1    1    2    0    0 -0.80824669962E+02  0.23707938655E+02 -0.48228100488E+02  0.15825815400E+03  0.12500000000E+03 0.  0.
</event>
<event>
 5    0  0.5648525E-005  0.3182637E+03  0.7546771E-02  0.1076451E+00
         21   -1    0    0  502  501  0.00000000000E+00  0.00000000000E+00  0.80456037878E+02  0.80456037878E+02  0.00000000000E+00 0. -1.
         21   -1    0    0  501  502 -0.00000000000E+00 -0.00000000000E+00 -0.12589702563E+04  0.12589702563E+04  0.00000000000E+00 0. -1.
         25    1    1    2    0    0  0.83884237752E+02  0.15236435358E+03 -0.22636199699E+03  0.31163474656E+03  0.12500000000E+03 0.  0.
         25    1    1    2    0    0 -0.60642051197E+02  0.16907755118E+02 -0.18507546957E+03  0.23203719528E+03  0.12500000000E+03 0.  0.
         25    1    1    2    0    0 -0.23242186555E+02 -0.16927210869E+03 -0.76707675189E+03  0.79575435236E+03  0.12500000000E+03 0.  0.
</event>
<event>
 5    0  0.5648525E-005  0.2716112E+03  0.7546771E-02  0.1100361E+00
         21   -1    0    0  502  501  0.00000000000E+00  0.00000000000E+00  0.41739645833E+03  0.41739645833E+03  0.00000000000E+00 0.  1.
         21   -1    0    0  501  502 -0.00000000000E+00 -0.00000000000E+00 -0.17674481108E+03  0.17674481108E+03  0.00000000000E+00 0.  1.
         25    1    1    2    0    0  0.59251008885E+02 -0.95812256840E+02  0.23054279567E+03  0.28542188292E+03  0.12500000000E+03 0.  0.
         25    1    1    2    0    0 -0.23705404563E+02  0.62695905805E+02 -0.63875590831E+02  0.15555646536E+03  0.12500000000E+03 0.  0.
         25    1    1    2    0    0 -0.35545604322E+02  0.33116351035E+02  0.73984442404E+02  0.15316292113E+03  0.12500000000E+03 0.  0.
</event>
<event>
 5    0  0.5648525E-005  0.4949820E+03  0.7546771E-02  0.1015097E+00
         21   -1    0    0  502  501  0.00000000000E+00  0.00000000000E+00  0.40530498684E+03  0.40530498684E+03  0.00000000000E+00 0.  1.
         21   -1    0    0  501  502 -0.00000000000E+00 -0.00000000000E+00 -0.60450067166E+03  0.60450067166E+03  0.00000000000E+00 0.  1.
         25    1    1    2    0    0  0.19421397375E+03 -0.14790711708E+03 -0.33333620046E+03  0.43166376431E+03  0.12500000000E+03 0.  0.
         25    1    1    2    0    0 -0.17266248382E+03  0.28087082614E+03  0.16915252965E+03  0.39107330845E+03  0.12500000000E+03 0.  0.
         25    1    1    2    0    0 -0.21551489934E+02 -0.13296370906E+03 -0.35012014004E+02  0.18706858574E+03  0.12500000000E+03 0.  0.
</event>
<event>
 5    0  0.5648525E-005  0.4943825E+03  0.7546771E-02  0.1015256E+00
         21   -1    0    0  502  501  0.00000000000E+00  0.00000000000E+00  0.13448444550E+04  0.13448444550E+04  0.00000000000E+00 0. -1.
         21   -1    0    0  501  502 -0.00000000000E+00 -0.00000000000E+00 -0.18174151584E+03  0.18174151584E+03  0.00000000000E+00 0. -1.
         25    1    1    2    0    0 -0.46973983175E+02  0.66152320974E+02 -0.11951950508E+03  0.19103035560E+03  0.12500000000E+03 0.  0.
         25    1    1    2    0    0 -0.10383804715E+03 -0.68494519519E+02  0.61629460202E+03  0.64102876357E+03  0.12500000000E+03 0.  0.
         25    1    1    2    0    0  0.15081203033E+03  0.23421985452E+01  0.66632784222E+03  0.69452685168E+03  0.12500000000E+03 0.  0.
</event>
<event>
 5    0  0.8876126E-005  0.4474887E+03  0.7546771E-02  0.1028474E+00
         21   -1    0    0  502  501  0.00000000000E+00  0.00000000000E+00  0.54802827814E+03  0.54802827814E+03  0.00000000000E+00 0. -1.
         21   -1    0    0  501  502 -0.00000000000E+00 -0.00000000000E+00 -0.36539388361E+03  0.36539388361E+03  0.00000000000E+00 0. -1.
         25    1    1    2    0    0 -0.16307076932E+03 -0.36083528771E+02  0.22874376888E+03  0.30958489733E+03  0.12500000000E+03 0.  0.
         25    1    1    2    0    0 -0.10372370191E+03 -0.31513177854E+02 -0.20411318990E+03  0.26275250904E+03  0.12500000000E+03 0.  0.
         25    1    1    2    0    0  0.26679447123E+03  0.67596706625E+02  0.15800381555E+03  0.34108475538E+03  0.12500000000E+03 0.  0.
</event>
<event>
 5    0  0.5648525E-005  0.3248401E+03  0.7546771E-02  0.1073443E+00
         21   -1    0    0  502  501  0.00000000000E+00  0.00000000000E+00  0.44164199153E+03  0.44164199153E+03  0.00000000000E+00 0.  1.
         21   -1    0    0  501  502 -0.00000000000E+00 -0.00000000000E+00 -0.23892905281E+03  0.23892905281E+03  0.00000000000E+00 0.  1.
         25    1    1    2    0    0 -0.56642171635E+02  0.19867395294E+03  0.65495265078E+02  0.25018853877E+03  0.12500000000E+03 0.  0.
         25    1    1    2    0    0 -0.44198367810E+02  0.20906238309E+02  0.27304212715E+02  0.13697111575E+03  0.12500000000E+03 0.  0.
         25    1    1    2    0    0  0.10084053944E+03 -0.21958019125E+03  0.10991346093E+03  0.29341138982E+03  0.12500000000E+03 0.  0.
</event>
<event>
 5    0  0.5648525E-005  0.2970168E+03  0.7546771E-02  0.1086741E+00
         21   -1    0    0  502  501  0.00000000000E+00  0.00000000000E+00  0.30467970951E+03  0.30467970951E+03  0.00000000000E+00 0.  1.
         21   -1    0    0  501  502 -0.00000000000E+00 -0.00000000000E+00 -0.28954661146E+03  0.28954661146E+03  0.00000000000E+00 0.  1.
         25    1    1    2    0    0 -0.61677074244E+01  0.43215570322E+01  0.12485178251E+03  0.17683236148E+03  0.12500000000E+03 0.  0.
         25    1    1    2    0    0  0.43634644357E+02 -0.41829227094E+02 -0.20778382196E+03  0.24990554835E+03  0.12500000000E+03 0.  0.
         25    1    1    2    0    0 -0.37466936932E+02  0.37507670061E+02  0.98065137492E+02  0.16748841115E+03  0.12500000000E+03 0.  0.
</event>
<event>
 5    0  0.5648525E-005  0.2537953E+03  0.7546771E-02  0.1110929E+00
         21   -1    0    0  502  501  0.00000000000E+00  0.00000000000E+00  0.18633985633E+03  0.18633985633E+03  0.00000000000E+00 0.  1.
         21   -1    0    0  501  502 -0.00000000000E+00 -0.00000000000E+00 -0.34566987616E+03  0.34566987616E+03  0.00000000000E+00 0.  1.
         25    1    1    2    0    0 -0.15551208028E+02 -0.68449273480E+02 -0.11323806658E+03  0.18268826682E+03  0.12500000000E+03 0.  0.
         25    1    1    2    0    0  0.58332013018E+01 -0.19064908353E+02 -0.12445136117E+03  0.17751236088E+03  0.12500000000E+03 0.  0.
         25    1    1    2    0    0  0.97180067259E+01  0.87514181834E+02  0.78359407924E+02  0.17180910478E+03  0.12500000000E+03 0.  0.
</event>
<event>
 5    0  0.5648525E-005  0.2589729E+03  0.7546771E-02  0.1107762E+00
         21   -1    0    0  502  501  0.00000000000E+00  0.00000000000E+00  0.14128332980E+03  0.14128332980E+03  0.00000000000E+00 0. -1.
         21   -1    0    0  501  502 -0.00000000000E+00 -0.00000000000E+00 -0.47469834976E+03  0.47469834976E+03  0.00000000000E+00 0. -1.
         25    1    1    2    0    0  0.78113779232E+01 -0.14553756647E+02 -0.84333201953E+02  0.15169020538E+03  0.12500000000E+03 0.  0.
         25    1    1    2    0    0  0.37742707295E+02 -0.73646912959E+02 -0.26439281088E+03  0.30393574680E+03  0.12500000000E+03 0.  0.
         25    1    1    2    0    0 -0.45554085219E+02  0.88200669606E+02  0.15310992865E+02  0.16035572737E+03  0.12500000000E+03 0.  0.
</event>
<event>
 5    0  0.5648525E-005  0.3451465E+03  0.7546771E-02  0.1064625E+00
         21   -1    0    0  502  501  0.00000000000E+00  0.00000000000E+00  0.10973576698E+04  0.10973576698E+04  0.00000000000E+00 0. -1.
         21   -1    0    0  501  502 -0.00000000000E+00 -0.00000000000E+00 -0.10855723191E+03  0.10855723191E+03  0.00000000000E+00 0. -1.
         25    1    1    2    0    0  0.83492011588E+02 -0.21619460811E+03  0.62435811564E+03  0.67761278112E+03  0.12500000000E+03 0.  0.
         25    1    1    2    0    0  0.78815804458E+01  0.22542989988E+02  0.17445630842E+03  0.21594052249E+03  0.12500000000E+03 0.  0.
         25    1    1    2    0    0 -0.91373592034E+02  0.19365161812E+03  0.18998601385E+03  0.31236159812E+03  0.12500000000E+03 0.  0.
</event>
<event>
 5    0  0.5648525E-005  0.2589705E+03  0.7546771E-02  0.1107763E+00
         21   -1    0    0  502  501  0.00000000000E+00  0.00000000000E+00  0.31767442970E+03  0.31767442970E+03  0.00000000000E+00 0. -1.
         21   -1    0    0  501  502 -0.00000000000E+00 -0.00000000000E+00 -0.21111471023E+03  0.21111471023E+03  0.00000000000E+00 0. -1.
         25    1    1    2    0    0 -0.92403551837E+02  0.62947750778E+02 -0.28982799683E+02  0.17019353219E+03  0.12500000000E+03 0.  0.
         25    1    1    2    0    0  0.71810175562E+02  0.53769198427E+02  0.97619007658E+02  0.18221497927E+03  0.12500000000E+03 0.  0.
         25    1    1    2    0    0  0.20593376275E+02 -0.11671694920E+03  0.37923511491E+02  0.17638062848E+03  0.12500000000E+03 0.  0.
</event>
<event>
 5    0  0.5938961E-005  0.2923921E+03  0.7546771E-02  0.1089107E+00
         21   -1    0    0  502  501  0.00000000000E+00  0.00000000000E+00  0.13380746032E+03  0.13380746032E+03  0.00000000000E+00 0. -1.
         21   -1    0    0  501  502 -0.00000000000E+00 -0.00000000000E+00 -0.63892647831E+03  0.63892647831E+03  0.00000000000E+00 0. -1.
         25    1    1    2    0    0  0.11378498168E+03 -0.11247033635E+03 -0.26451886827E+03  0.33345439011E+03  0.12500000000E+03 0.  0.
         25    1    1    2    0    0 -0.85319396039E+02  0.11693359267E+03 -0.24514120636E+03  0.31092133328E+03  0.12500000000E+03 0.  0.
         25    1    1    2    0    0 -0.28465585642E+02 -0.44632563236E+01  0.45410566286E+01  0.12835821523E+03  0.12500000000E+03 0.  0.
</event>
<event>
 5    0  0.5648525E-005  0.2579391E+03  0.7546771E-02  0.1108388E+00
         21   -1    0    0  502  501  0.00000000000E+00  0.00000000000E+00  0.26969054674E+02  0.26969054674E+02  0.00000000000E+00 0. -1.
         21   -1    0    0  501  502 -0.00000000000E+00 -0.00000000000E+00 -0.24669963138E+04  0.24669963138E+04  0.00000000000E+00 0. -1.
         25    1    1    2    0    0  0.90320552836E+02  0.30251163873E+01 -0.66822276214E+03  0.68579414801E+03  0.12500000000E+03 0.  0.
         25    1    1    2    0    0 -0.11186481383E+03  0.36385947716E+02 -0.48400791215E+03  0.51354292205E+03  0.12500000000E+03 0.  0.
         25    1    1    2    0    0  0.21544260991E+02 -0.39411064103E+02 -0.12877965848E+04  0.12946282984E+04  0.12500000000E+03 0.  0.
</event>
<event>
 5    0  0.5648525E-005  0.5022573E+03  0.7546771E-02  0.1013191E+00
         21   -1    0    0  502  501  0.00000000000E+00  0.00000000000E+00  0.28119012557E+04  0.28119012557E+04  0.00000000000E+00 0.  1.
         21   -1    0    0  501  502 -0.00000000000E+00 -0.00000000000E+00 -0.89712406804E+02  0.89712406804E+02  0.00000000000E+00 0.  1.
         25    1    1    2    0    0 -0.39510694033E+01 -0.16563899541E+03  0.13334709373E+04  0.13495264459E+04  0.12500000000E+03 0.  0.
         25    1    1    2    0    0 -0.11258630631E+03 -0.17276920274E+03  0.91014178982E+03  0.94154551210E+03  0.12500000000E+03 0.  0.
         25    1    1    2    0    0  0.11653737571E+03  0.33840819815E+03  0.47857612177E+03  0.61054170442E+03  0.12500000000E+03 0.  0.
</event>
<event>
 5    0  0.5648525E-005  0.2356495E+03  0.7546771E-02  0.1122725E+00
         21   -1    0    0  502  501  0.00000000000E+00  0.00000000000E+00  0.64506492626E+02  0.64506492626E+02  0.00000000000E+00 0.  1.
         21   -1    0    0  501  502 -0.00000000000E+00 -0.00000000000E+00 -0.86085438485E+03  0.86085438485E+03  0.00000000000E+00 0.  1.
         25    1    1    2    0    0 -0.99488607306E+01 -0.30191907358E+02 -0.22517820636E+03  0.25950097441E+03  0.12500000000E+03 0.  0.
         25    1    1    2    0    0 -0.12320839828E+02  0.22767970576E+02 -0.50811070094E+03  0.52390043709E+03  0.12500000000E+03 0.  0.
         25    1    1    2    0    0  0.22269700559E+02  0.74239367813E+01 -0.63058984931E+02  0.14195946598E+03  0.12500000000E+03 0.  0.
</event>
<event>
 5    0  0.5648525E-005  0.3151831E+03  0.7546771E-02  0.1077888E+00
         21   -1    0    0  502  501  0.00000000000E+00  0.00000000000E+00  0.19565254852E+04  0.19565254852E+04  0.00000000000E+00 0. -1.
         21   -1    0    0  501  502 -0.00000000000E+00 -0.00000000000E+00 -0.50773886625E+02  0.50773886625E+02  0.00000000000E+00 0. -1.
         25    1    1    2    0    0 -0.14592696573E+03 -0.43347449313E+02  0.45238649726E+03  0.49340877940E+03  0.12500000000E+03 0.  0.
         25    1    1    2    0    0  0.50249754094E+02  0.12129252085E+03  0.32677963829E+03  0.37369351801E+03  0.12500000000E+03 0.  0.
         25    1    1    2    0    0  0.95677211633E+02 -0.77945071539E+02  0.11265854631E+04  0.11401970745E+04  0.12500000000E+03 0.  0.
</event>
<event>
 5    0  0.5648525E-005  0.2581455E+03  0.7546771E-02  0.1108263E+00
         21   -1    0    0  502  501  0.00000000000E+00  0.00000000000E+00  0.93494959784E+02  0.93494959784E+02  0.00000000000E+00 0.  1.
         21   -1    0    0  501  502 -0.00000000000E+00 -0.00000000000E+00 -0.71275589013E+03  0.71275589013E+03  0.00000000000E+00 0.  1.
         25    1    1    2    0    0 -0.55442104069E+02  0.85881874378E+02 -0.47857984372E+02  0.16841885262E+03  0.12500000000E+03 0.  0.
         25    1    1    2    0    0  0.62434886996E+02 -0.23058743094E+02 -0.32246644498E+03  0.35219231804E+03  0.12500000000E+03 0.  0.
         25    1    1    2    0    0 -0.69927829275E+01 -0.62823131284E+02 -0.24893650098E+03  0.28563967925E+03  0.12500000000E+03 0.  0.
</event>
<event>
 5    0  0.5652174E-005  0.2901610E+03  0.7546771E-02  0.1090265E+00
         21   -1    0    0  502  501  0.00000000000E+00  0.00000000000E+00  0.26491377685E+03  0.26491377685E+03  0.00000000000E+00 0. -1.
         21   -1    0    0  501  502 -0.00000000000E+00 -0.00000000000E+00 -0.31781435734E+03  0.31781435734E+03  0.00000000000E+00 0. -1.
         25    1    1    2    0    0  0.43568212443E+02  0.92761226672E+02  0.63277893487E+02  0.17358550087E+03  0.12500000000E+03 0.  0.
         25    1    1    2    0    0  0.79279665538E+02 -0.14717596557E+03 -0.58564160136E+02  0.21679665833E+03  0.12500000000E+03 0.  0.
         25    1    1    2    0    0 -0.12284787798E+03  0.54414738897E+02 -0.57614313839E+02  0.19234597498E+03  0.12500000000E+03 0.  0.
</event>
<event>
 5    0  0.5648525E-005  0.3381294E+03  0.7546771E-02  0.1067595E+00
         21   -1    0    0  502  501  0.00000000000E+00  0.00000000000E+00  0.12146511838E+03  0.12146511838E+03  0.00000000000E+00 0.  1.
         21   -1    0    0  501  502 -0.00000000000E+00 -0.00000000000E+00 -0.94127011699E+03  0.94127011699E+03  0.00000000000E+00 0.  1.
         25    1    1    2    0    0 -0.78226493385E+02  0.48957208609E+02 -0.50638532752E+03  0.52968603198E+03  0.12500000000E+03 0.  0.
         25    1    1    2    0    0  0.11720373903E+03 -0.16832255962E+03 -0.24504651845E+03  0.34313553696E+03  0.12500000000E+03 0.  0.
         25    1    1    2    0    0 -0.38977245646E+02  0.11936535101E+03 -0.68373152633E+02  0.18991366644E+03  0.12500000000E+03 0.  0.
</event>
<event>
 5    0  0.5648525E-005  0.6584288E+03  0.7546771E-02  0.9791090E-01
         21   -1    0    0  502  501  0.00000000000E+00  0.00000000000E+00  0.18552894318E+04  0.18552894318E+04  0.00000000000E+00 0.  1.
         21   -1    0    0  501  502 -0.00000000000E+00 -0.00000000000E+00 -0.23367160149E+03  0.23367160149E+03  0.00000000000E+00 0.  1.
         25    1    1    2    0    0 -0.56050593028E+03  0.12116287181E+03  0.54801124497E+03  0.80298733739E+03  0.12500000000E+03 0.  0.
         25    1    1    2    0    0  0.26487900532E+03 -0.49710783020E+02  0.21546973654E+03  0.36699353778E+03  0.12500000000E+03 0.  0.
         25    1    1    2    0    0  0.29562692497E+03 -0.71452088788E+02  0.85813684875E+03  0.91898015808E+03  0.12500000000E+03 0.  0.
</event>
<event>
 5    0  0.5648525E-005  0.2955441E+03  0.7546771E-02  0.1087490E+00
         21   -1    0    0  502  501  0.00000000000E+00  0.00000000000E+00  0.30501691970E+03  0.30501691970E+03  0.00000000000E+00 0. -1.
         21   -1    0    0  501  502 -0.00000000000E+00 -0.00000000000E+00 -0.28636538408E+03  0.28636538408E+03  0.00000000000E+00 0. -1.
         25    1    1    2    0    0  0.11466694976E+03 -0.59120363139E+02  0.25147387164E+02  0.18138665272E+03  0.12500000000E+03 0.  0.
         25    1    1    2    0    0 -0.11196763359E+03 -0.44893258706E+01 -0.13830297190E+03  0.21750774022E+03  0.12500000000E+03 0.  0.
         25    1    1    2    0    0 -0.26993161640E+01  0.63609689010E+02  0.13180712036E+03  0.19248791084E+03  0.12500000000E+03 0.  0.
</event>
<event>
 5    0  0.5881007E-005  0.5576017E+03  0.7546771E-02  0.9997496E-01
         21   -1    0    0  502  501  0.00000000000E+00  0.00000000000E+00  0.21924367006E+03  0.21924367006E+03  0.00000000000E+00 0. -1.
         21   -1    0    0  501  502 -0.00000000000E+00 -0.00000000000E+00 -0.14181464115E+04  0.14181464115E+04  0.00000000000E+00 0. -1.
         25    1    1    2    0    0  0.25849588329E+03 -0.16128536997E+03 -0.67934030707E+03  0.75495784323E+03  0.12500000000E+03 0.  0.
         25    1    1    2    0    0 -0.28388237931E+03 -0.13900188458E+01 -0.58789838591E+03  0.66471095191E+03  0.12500000000E+03 0.  0.
         25    1    1    2    0    0  0.25386496013E+02  0.16267538881E+03  0.68335951514E+02  0.21772128645E+03  0.12500000000E+03 0.  0.
</event>
<event>
 5    0  0.5648525E-005  0.2761127E+03  0.7546771E-02  0.1097831E+00
         21   -1    0    0  502  501  0.00000000000E+00  0.00000000000E+00  0.11432147230E+03  0.11432147230E+03  0.00000000000E+00 0. -1.
         21   -1    0    0  501  502 -0.00000000000E+00 -0.00000000000E+00 -0.66687580377E+03  0.66687580377E+03  0.00000000000E+00 0. -1.
         25    1    1    2    0    0 -0.95312098881E+02 -0.21641252267E+02 -0.20989220389E+03  0.26312065150E+03  0.12500000000E+03 0.  0.
         25    1    1    2    0    0  0.44869291072E+02 -0.67728821718E+02 -0.11490869777E+02  0.14952420092E+03  0.12500000000E+03 0.  0.
         25    1    1    2    0    0  0.50442807810E+02  0.89370073985E+02 -0.33117125780E+03  0.36855242365E+03  0.12500000000E+03 0.  0.
</event>
<event>
 5    0  0.5648525E-005  0.2525517E+03  0.7546771E-02  0.1111703E+00
         21   -1    0    0  502  501  0.00000000000E+00  0.00000000000E+00  0.77539923582E+02  0.77539923582E+02  0.00000000000E+00 0.  1.
         21   -1    0    0  501  502 -0.00000000000E+00 -0.00000000000E+00 -0.82257475917E+03  0.82257475917E+03  0.00000000000E+00 0.  1.
         25    1    1    2    0    0 -0.22974423876E+02  0.23130057513E+02 -0.21340822057E+03  0.24946120404E+03  0.12500000000E+03 0.  0.
         25    1    1    2    0    0  0.74576546263E+02  0.11218773639E+03 -0.26574863254E+03  0.32310228280E+03  0.12500000000E+03 0.  0.
         25    1    1    2    0    0 -0.51602122387E+02 -0.13531779391E+03 -0.26587798247E+03  0.32755119592E+03  0.12500000000E+03 0.  0.
</event>
<event>
 5    0  0.5648525E-005  0.3009876E+03  0.7546771E-02  0.1084748E+00
         21   -1    0    0  502  501  0.00000000000E+00  0.00000000000E+00  0.43782035387E+02  0.43782035387E+02  0.00000000000E+00 0.  1.
         21   -1    0    0  501  502 -0.00000000000E+00 -0.00000000000E+00 -0.20691946880E+04  0.20691946880E+04  0.00000000000E+00 0.  1.
         25    1    1    2    0    0  0.79826581867E+02  0.20423756590E+03 -0.68533326420E+03  0.73033687399E+03  0.12500000000E+03 0.  0.
         25    1    1    2    0    0 -0.44098187015E+02 -0.95522581598E+02 -0.80315858216E+03  0.81960839539E+03  0.12500000000E+03 0.  0.
         25    1    1    2    0    0 -0.35728394852E+02 -0.10871498430E+03 -0.53692080627E+03  0.56303145402E+03  0.12500000000E+03 0.  0.
</event>
<event>
 5    0  0.5648525E-005  0.6806407E+03  0.7546771E-02  0.9750924E-01
         21   -1    0    0  502  501  0.00000000000E+00  0.00000000000E+00  0.30343751949E+03  0.30343751949E+03  0.00000000000E+00 0.  1.
         21   -1    0    0  501  502 -0.00000000000E+00 -0.00000000000E+00 -0.15267452403E+04  0.15267452403E+04  0.00000000000E+00 0.  1.
         25    1    1    2    0    0  0.48986487953E+03 -0.23134104520E+02 -0.77096643776E+03  0.92223480478E+03  0.12500000000E+03 0.  0.
         25    1    1    2    0    0  0.76310091148E+02  0.49678729890E+02 -0.24866513825E+03  0.29283196068E+03  0.12500000000E+03 0.  0.
         25    1    1    2    0    0 -0.56617497068E+03 -0.26544625369E+02 -0.20367614484E+03  0.61511599437E+03  0.12500000000E+03 0.  0.
</event>
<event>
 5    0  0.5648525E-005  0.2750924E+03  0.7546771E-02  0.1098400E+00
         21   -1    0    0  502  501  0.00000000000E+00  0.00000000000E+00  0.69607663578E+02  0.69607663578E+02  0.00000000000E+00 0.  1.
         21   -1    0    0  501  502 -0.00000000000E+00 -0.00000000000E+00 -0.10871768981E+04  0.10871768981E+04  0.00000000000E+00 0.  1.
         25    1    1    2    0    0  0.79409960905E+02  0.38196261732E+02 -0.78264852242E+03  0.79745131886E+03  0.12500000000E+03 0.  0.
         25    1    1    2    0    0 -0.43056840197E+02 -0.45930114442E+02 -0.10248989944E+03  0.17347232167E+03  0.12500000000E+03 0.  0.
         25    1    1    2    0    0 -0.36353120709E+02  0.77338527097E+01 -0.13243081264E+03  0.18586092112E+03  0.12500000000E+03 0.  0.
</event>
<event>
 5    0  0.5648525E-005  0.2836289E+03  0.7546771E-02  0.1093723E+00
         21   -1    0    0  502  501  0.00000000000E+00  0.00000000000E+00  0.16191567219E+04  0.16191567219E+04  0.00000000000E+00 0. -1.
         21   -1    0    0  501  502 -0.00000000000E+00 -0.00000000000E+00 -0.49683482570E+02  0.49683482570E+02  0.00000000000E+00 0. -1.
         25    1    1    2    0    0  0.31199978045E+02  0.11933125985E+02  0.39789536868E+03  0.41840358811E+03  0.12500000000E+03 0.  0.
         25    1    1    2    0    0 -0.13140155266E+03 -0.35980596760E+02  0.23038341188E+03  0.29540224754E+03  0.12500000000E+03 0.  0.
         25    1    1    2    0    0  0.10020157461E+03  0.24047470775E+02  0.94119445873E+03  0.95503436878E+03  0.12500000000E+03 0.  0.
</event>
<event>
 5    0  0.5648525E-005  0.5157012E+03  0.7546771E-02  0.1009760E+00
         21   -1    0    0  502  501  0.00000000000E+00  0.00000000000E+00  0.19471836307E+03  0.19471836307E+03  0.00000000000E+00 0.  1.
         21   -1    0    0  501  502 -0.00000000000E+00 -0.00000000000E+00 -0.13658069975E+04  0.13658069975E+04  0.00000000000E+00 0.  1.
         25    1    1    2    0    0  0.31662336366E+03 -0.74397161636E+02 -0.90460716578E+03  0.96939383971E+03  0.12500000000E+03 0.  0.
         25    1    1    2    0    0 -0.59897661233E+02 -0.96667974118E+02 -0.70938258804E+01  0.16913825530E+03  0.12500000000E+03 0.  0.
         25    1    1    2    0    0 -0.25672570243E+03  0.17106513575E+03 -0.25938764274E+03  0.42199326554E+03  0.12500000000E+03 0.  0.
</event>
<event>
 5    0  0.5648525E-005  0.3343764E+03  0.7546771E-02  0.1069217E+00
         21   -1    0    0  502  501  0.00000000000E+00  0.00000000000E+00  0.13050037365E+04  0.13050037365E+04  0.00000000000E+00 0.  1.
         21   -1    0    0  501  502 -0.00000000000E+00 -0.00000000000E+00 -0.85676035088E+02  0.85676035088E+02  0.00000000000E+00 0.  1.
         25    1    1    2    0    0  0.71797253530E+02  0.84518290592E+02  0.90494749405E+03  0.92024624642E+03  0.12500000000E+03 0.  0.
         25    1    1    2    0    0  0.21757636552E+02 -0.41024875281E+02  0.20626017622E+02  0.13493282678E+03  0.12500000000E+03 0.  0.
         25    1    1    2    0    0 -0.93554890082E+02 -0.43493415311E+02  0.29375418978E+03  0.33550069843E+03  0.12500000000E+03 0.  0.
</event>
<event>
 5    0  0.6113969E-005  0.5108876E+03  0.7546771E-02  0.1010976E+00
         21   -1    0    0  502  501  0.00000000000E+00  0.00000000000E+00  0.35212356746E+03  0.35212356746E+03  0.00000000000E+00 0. -1.
         21   -1    0    0  501  502 -0.00000000000E+00 -0.00000000000E+00 -0.74123444421E+03  0.74123444421E+03  0.00000000000E+00 0. -1.
         25    1    1    2    0    0  0.61472113854E+02  0.32441504133E+03 -0.11253850785E+03  0.37055884225E+03  0.12500000000E+03 0.  0.
         25    1    1    2    0    0 -0.21376656631E+02 -0.15951769170E+03 -0.42070388408E+03  0.46746081493E+03  0.12500000000E+03 0.  0.
         25    1    1    2    0    0 -0.40095457223E+02 -0.16489734963E+03  0.14413151518E+03  0.25533835449E+03  0.12500000000E+03 0.  0.
</event>
<event>
 5    0  0.5648525E-005  0.4160837E+03  0.7546771E-02  0.1038349E+00
         21   -1    0    0  502  501  0.00000000000E+00  0.00000000000E+00  0.23482544220E+03  0.23482544220E+03  0.00000000000E+00 0.  1.
         21   -1    0    0  501  502 -0.00000000000E+00 -0.00000000000E+00 -0.73725243036E+03  0.73725243036E+03  0.00000000000E+00 0.  1.
         25    1    1    2    0    0  0.78605469135E+02  0.30790774191E+02 -0.28257342850E+03  0.32031177631E+03  0.12500000000E+03 0.  0.
         25    1    1    2    0    0 -0.37293171629E+02 -0.24324919725E+03 -0.28159599017E+03  0.39431238161E+03  0.12500000000E+03 0.  0.
         25    1    1    2    0    0 -0.41312297505E+02  0.21245842306E+03  0.61742430501E+02  0.25745371463E+03  0.12500000000E+03 0.  0.
</event>
<event>
 5    0  0.5648525E-005  0.2357944E+03  0.7546771E-02  0.1122627E+00
         21   -1    0    0  502  501  0.00000000000E+00  0.00000000000E+00  0.13670337926E+04  0.13670337926E+04  0.00000000000E+00 0. -1.
         21   -1    0    0  501  502 -0.00000000000E+00 -0.00000000000E+00 -0.40671259390E+02  0.40671259390E+02  0.00000000000E+00 0. -1.
         25    1    1    2    0    0  0.81952788622E+02  0.86484863812E+01  0.47048934959E+03  0.49373705954E+03  0.12500000000E+03 0.  0.
         25    1    1    2    0    0 -0.34702485076E+02 -0.43180391164E+02  0.19083954069E+03  0.23476272903E+03  0.12500000000E+03 0.  0.
         25    1    1    2    0    0 -0.47250303545E+02  0.34531904783E+02  0.66503364288E+03  0.67920526338E+03  0.12500000000E+03 0.  0.
</event>
<event>
 5    0  0.5648525E-005  0.3169947E+03  0.7546771E-02  0.1077041E+00
         21   -1    0    0  502  501  0.00000000000E+00  0.00000000000E+00  0.88247951862E+03  0.88247951862E+03  0.00000000000E+00 0.  1.
         21   -1    0    0  501  502 -0.00000000000E+00 -0.00000000000E+00 -0.11386742543E+03  0.11386742543E+03  0.00000000000E+00 0.  1.
         25    1    1    2    0    0  0.69895498149E+02 -0.17561850172E+03  0.18404314963E+03  0.29193170389E+03  0.12500000000E+03 0.  0.
         25    1    1    2    0    0 -0.10150674857E+03  0.83466830152E+02  0.48362736204E+03  0.51651791552E+03  0.12500000000E+03 0.  0.
         25    1    1    2    0    0  0.31611250420E+02  0.92151671571E+02  0.10094158152E+03  0.18789732464E+03  0.12500000000E+03 0.  0.
</event>
<event>
 5    0  0.5648525E-005  0.3212873E+03  0.7546771E-02  0.1075058E+00
         21   -1    0    0  502  501  0.00000000000E+00  0.00000000000E+00  0.18522189292E+03  0.18522189292E+03  0.00000000000E+00 0.  1.
         21   -1    0    0  501  502 -0.00000000000E+00 -0.00000000000E+00 -0.55730736079E+03  0.55730736079E+03  0.00000000000E+00 0.  1.
         25    1    1    2    0    0 -0.12704334375E+03 -0.54521372775E+02  0.43856027688E+02  0.19147047408E+03  0.12500000000E+03 0.  0.
         25    1    1    2    0    0  0.46404438230E+01  0.12096983476E+03 -0.18900346321E+03  0.25690960229E+03  0.12500000000E+03 0.  0.
         25    1    1    2    0    0  0.12240289993E+03 -0.66448461987E+02 -0.22693803234E+03  0.29414917735E+03  0.12500000000E+03 0.  0.
</event>
<event>
 5    0  0.5648525E-005  0.2722553E+03  0.7546771E-02  0.1099996E+00
         21   -1    0    0  502  501  0.00000000000E+00  0.00000000000E+00  0.19919261851E+04  0.19919261851E+04  0.00000000000E+00 0. -1.
         21   -1    0    0  501  502 -0.00000000000E+00 -0.00000000000E+00 -0.37211705482E+02  0.37211705482E+02  0.00000000000E+00 0. -1.
         25    1    1    2    0    0 -0.10482046092E+03  0.67271012834E+02  0.86376775625E+03  0.88160788048E+03  0.12500000000E+03 0.  0.
         25    1    1    2    0    0  0.15910099383E+03  0.31765383350E+01  0.60520401023E+03  0.63813800281E+03  0.12500000000E+03 0.  0.
         25    1    1    2    0    0 -0.54280532909E+02 -0.70447551169E+02  0.48574271310E+03  0.50939200725E+03  0.12500000000E+03 0.  0.
</event>
<event>
 5    0  0.5648525E-005  0.2998452E+03  0.7546771E-02  0.1085318E+00
         21   -1    0    0  502  501  0.00000000000E+00  0.00000000000E+00  0.18359883708E+03  0.18359883708E+03  0.00000000000E+00 0. -1.
         21   -1    0    0  501  502 -0.00000000000E+00 -0.00000000000E+00 -0.48969337660E+03  0.48969337660E+03  0.00000000000E+00 0. -1.
         25    1    1    2    0    0  0.74875354413E+02  0.13890243132E+03 -0.35219418585E+02  0.20436636605E+03  0.12500000000E+03 0.  0.
         25    1    1    2    0    0  0.20280310231E+02 -0.15232580852E+02  0.56738827799E+01  0.12767347198E+03  0.12500000000E+03 0.  0.
         25    1    1    2    0    0 -0.95155664643E+02 -0.12366985047E+03 -0.27654900371E+03  0.34125237565E+03  0.12500000000E+03 0.  0.
</event>
<event>
 5    0  0.5648525E-005  0.3343335E+03  0.7546771E-02  0.1069235E+00
         21   -1    0    0  502  501  0.00000000000E+00  0.00000000000E+00  0.60485893312E+03  0.60485893312E+03  0.00000000000E+00 0. -1.
         21   -1    0    0  501  502 -0.00000000000E+00 -0.00000000000E+00 -0.18480157136E+03  0.18480157136E+03  0.00000000000E+00 0. -1.
         25    1    1    2    0    0 -0.11817672407E+03  0.37807694728E+02  0.37165101839E+03  0.41127197736E+03  0.12500000000E+03 0.  0.
         25    1    1    2    0    0  0.18938465855E+03 -0.12918656095E+02  0.48451223857E+02  0.23239182787E+03  0.12500000000E+03 0.  0.
         25    1    1    2    0    0 -0.71207934478E+02 -0.24889038634E+02 -0.44880486906E-01  0.14599669925E+03  0.12500000000E+03 0.  0.
</event>
<event>
 5    0  0.5648525E-005  0.5288585E+03  0.7546771E-02  0.1006509E+00
         21   -1    0    0  502  501  0.00000000000E+00  0.00000000000E+00  0.37053822553E+03  0.37053822553E+03  0.00000000000E+00 0. -1.
         21   -1    0    0  501  502 -0.00000000000E+00 -0.00000000000E+00 -0.75482449208E+03  0.75482449208E+03  0.00000000000E+00 0. -1.
         25    1    1    2    0    0 -0.21563933327E+03 -0.12356714807E+03 -0.17596589176E+03  0.32917800230E+03  0.12500000000E+03 0.  0.
         25    1    1    2    0    0  0.39382296816E+03 -0.31999515986E+02 -0.30193006167E+03  0.51274483070E+03  0.12500000000E+03 0.  0.
         25    1    1    2    0    0 -0.17818363489E+03  0.15556666405E+03  0.93609686888E+02  0.28343988461E+03  0.12500000000E+03 0.  0.
</event>
<event>
 5    0  0.5648525E-005  0.2333827E+03  0.7546771E-02  0.1124281E+00
         21   -1    0    0  502  501  0.00000000000E+00  0.00000000000E+00  0.49317479553E+03  0.49317479553E+03  0.00000000000E+00 0.  1.
         21   -1    0    0  501  502 -0.00000000000E+00 -0.00000000000E+00 -0.11044254712E+03  0.11044254712E+03  0.00000000000E+00 0.  1.
         25    1    1    2    0    0 -0.12805457077E+02 -0.42490199546E+02  0.18702624949E+03  0.22928849684E+03  0.12500000000E+03 0.  0.
         25    1    1    2    0    0 -0.44439768768E+02  0.93451847254E+02  0.55625162093E+02  0.17154387037E+03  0.12500000000E+03 0.  0.
         25    1    1    2    0    0  0.57245225845E+02 -0.50961647708E+02  0.14008083683E+03  0.20278497545E+03  0.12500000000E+03 0.  0.
</event>
<event>
 5    0  0.5648525E-005  0.4165391E+03  0.7546771E-02  0.1038199E+00
         21   -1    0    0  502  501  0.00000000000E+00  0.00000000000E+00  0.88885442805E+02  0.88885442805E+02  0.00000000000E+00 0. -1.
         21   -1    0    0  501  502 -0.00000000000E+00 -0.00000000000E+00 -0.19520045079E+04  0.19520045079E+04  0.00000000000E+00 0. -1.
         25    1    1    2    0    0  0.19032747014E+03  0.25752410078E+02 -0.55668491619E+03  0.60200567143E+03  0.12500000000E+03 0.  0.
         25    1    1    2    0    0 -0.17615342820E+03 -0.89046483000E+02 -0.15845188384E+03  0.28229648580E+03  0.12500000000E+03 0.  0.
         25    1    1    2    0    0 -0.14174041937E+02  0.63294072922E+02 -0.11479822650E+04  0.11565877935E+04  0.12500000000E+03 0.  0.
</event>
<event>
 5    0  0.5648525E-005  0.2813486E+03  0.7546771E-02  0.1094955E+00
         21   -1    0    0  502  501  0.00000000000E+00  0.00000000000E+00  0.25927156129E+03  0.25927156129E+03  0.00000000000E+00 0. -1.
         21   -1    0    0  501  502 -0.00000000000E+00 -0.00000000000E+00 -0.30530542696E+03  0.30530542696E+03  0.00000000000E+00 0. -1.
         25    1    1    2    0    0  0.42996439062E+02  0.14283800171E+03  0.92175508086E+02  0.21534324414E+03  0.12500000000E+03 0.  0.
         25    1    1    2    0    0 -0.28527997462E+02 -0.14437594695E+03 -0.65504721713E+02  0.20389734982E+03  0.12500000000E+03 0.  0.
         25    1    1    2    0    0 -0.14468441600E+02  0.15379452387E+01 -0.72704652034E+02  0.14533639429E+03  0.12500000000E+03 0.  0.
</event>
<event>
 5    0  0.5648525E-005  0.2598241E+03  0.7546771E-02  0.1107249E+00
         21   -1    0    0  502  501  0.00000000000E+00  0.00000000000E+00  0.84904202644E+02  0.84904202644E+02  0.00000000000E+00 0.  1.
         21   -1    0    0  501  502 -0.00000000000E+00 -0.00000000000E+00 -0.79511427619E+03  0.79511427619E+03  0.00000000000E+00 0.  1.
         25    1    1    2    0    0 -0.24496342458E+02 -0.48236379304E+02 -0.14151619354E+03  0.19641449060E+03  0.12500000000E+03 0.  0.
         25    1    1    2    0    0 -0.78925557508E+02  0.26573250400E+01 -0.45974142959E+03  0.48293217648E+03  0.12500000000E+03 0.  0.
         25    1    1    2    0    0  0.10342189997E+03  0.45579054264E+02 -0.10895245041E+03  0.20067181175E+03  0.12500000000E+03 0.  0.
</event>
<event>
 5    0  0.5911565E-005  0.3456953E+03  0.7546771E-02  0.1064396E+00
         21   -1    0    0  502  501  0.00000000000E+00  0.00000000000E+00  0.39275160469E+03  0.39275160469E+03  0.00000000000E+00 0.  1.
         21   -1    0    0  501  502 -0.00000000000E+00 -0.00000000000E+00 -0.30427689791E+03  0.30427689791E+03  0.00000000000E+00 0.  1.
         25    1    1    2    0    0  0.31917061553E+02 -0.15395899735E+03 -0.90570686167E+02  0.22034091966E+03  0.12500000000E+03 0.  0.
         25    1    1    2    0    0  0.58944032284E+02  0.27791720823E+02  0.23092863362E+03  0.27055463869E+03  0.12500000000E+03 0.  0.
         25    1    1    2    0    0 -0.90861093838E+02  0.12616727653E+03 -0.51883240679E+02  0.20613294425E+03  0.12500000000E+03 0.  0.
</event>
<event>
 5    0  0.5648525E-005  0.3028093E+03  0.7546771E-02  0.1083845E+00
         21   -1    0    0  502  501  0.00000000000E+00  0.00000000000E+00  0.20888570878E+03  0.20888570878E+03  0.00000000000E+00 0. -1.
         21   -1    0    0  501  502 -0.00000000000E+00 -0.00000000000E+00 -0.43896475918E+03  0.43896475918E+03  0.00000000000E+00 0. -1.
         25    1    1    2    0    0  0.41677404879E+02 -0.15461993273E+03 -0.14077174425E+03  0.24715584892E+03  0.12500000000E+03 0.  0.
         25    1    1    2    0    0  0.82116889518E+02 -0.97115349137E+01 -0.34934795314E+02  0.15389261639E+03  0.12500000000E+03 0.  0.
         25    1    1    2    0    0 -0.12379429440E+03  0.16433146764E+03 -0.54372510842E+02  0.24680200266E+03  0.12500000000E+03 0.  0.
</event>
<event>
 5    0  0.5648525E-005  0.2354057E+03  0.7546771E-02  0.1122892E+00
         21   -1    0    0  502  501  0.00000000000E+00  0.00000000000E+00  0.40489997035E+02  0.40489997035E+02  0.00000000000E+00 0.  1.
         21   -1    0    0  501  502 -0.00000000000E+00 -0.00000000000E+00 -0.13686306397E+04  0.13686306397E+04  0.00000000000E+00 0.  1.
         25    1    1    2    0    0  0.35337035281E+02  0.39834481657E+02 -0.38510846801E+03  0.40837363299E+03  0.12500000000E+03 0.  0.
         25    1    1    2    0    0  0.68202017223E+02  0.63139667810E+01 -0.62138016060E+03  0.63751838038E+03  0.12500000000E+03 0.  0.
         25    1    1    2    0    0 -0.10353905250E+03 -0.46148448438E+02 -0.32165201406E+03  0.36322862337E+03  0.12500000000E+03 0.  0.
</event>
<event>
 5    0  0.5648525E-005  0.3484095E+03  0.7546771E-02  0.1063270E+00
         21   -1    0    0  502  501  0.00000000000E+00  0.00000000000E+00  0.68385871769E+03  0.68385871769E+03  0.00000000000E+00 0. -1.
         21   -1    0    0  501  502 -0.00000000000E+00 -0.00000000000E+00 -0.17750623484E+03  0.17750623484E+03  0.00000000000E+00 0. -1.
         25    1    1    2    0    0  0.25950634046E+03 -0.68473053179E+02  0.17322424763E+03  0.34302148580E+03  0.12500000000E+03 0.  0.
         25    1    1    2    0    0 -0.52993481227E+02  0.45430194566E+02  0.18595065583E+03  0.23468033158E+03  0.12500000000E+03 0.  0.
         25    1    1    2    0    0 -0.20651285923E+03  0.23042858613E+02  0.14717757940E+03  0.28366313515E+03  0.12500000000E+03 0.  0.
</event>
<event>
 5    0  0.5648525E-005  0.3783662E+03  0.7546771E-02  0.1051539E+00
         21   -1    0    0  502  501  0.00000000000E+00  0.00000000000E+00  0.81593564607E+03  0.81593564607E+03  0.00000000000E+00 0. -1.
         21   -1    0    0  501  502 -0.00000000000E+00 -0.00000000000E+00 -0.17545621540E+03  0.17545621540E+03  0.00000000000E+00 0. -1.
         25    1    1    2    0    0  0.78976104232E+02  0.20610414807E+03  0.30758890572E+03  0.39868794792E+03  0.12500000000E+03 0.  0.
         25    1    1    2    0    0  0.96218830613E+02 -0.22327859760E+03  0.20569140991E+03  0.34211891445E+03  0.12500000000E+03 0.  0.
         25    1    1    2    0    0 -0.17519493484E+03  0.17174449528E+02  0.12719911502E+03  0.25058499910E+03  0.12500000000E+03 0.  0.
</event>
<event>
 5    0  0.5648525E-005  0.3273860E+03  0.7546771E-02  0.1072299E+00
         21   -1    0    0  502  501  0.00000000000E+00  0.00000000000E+00  0.41657080069E+03  0.41657080069E+03  0.00000000000E+00 0.  1.
         21   -1    0    0  501  502 -0.00000000000E+00 -0.00000000000E+00 -0.25729496067E+03  0.25729496067E+03  0.00000000000E+00 0.  1.
         25    1    1    2    0    0 -0.61236565896E+02  0.13970534727E+02  0.15216162431E+03  0.20669603953E+03  0.12500000000E+03 0.  0.
         25    1    1    2    0    0 -0.52850540050E+02 -0.17457061840E+03  0.57521499313E+02  0.22847713950E+03  0.12500000000E+03 0.  0.
         25    1    1    2    0    0  0.11408710595E+03  0.16060008368E+03 -0.50407283602E+02  0.23869258233E+03  0.12500000000E+03 0.  0.
</event>
<event>
 5    0  0.5648525E-005  0.2497967E+03  0.7546771E-02  0.1113433E+00
         21   -1    0    0  502  501  0.00000000000E+00  0.00000000000E+00  0.10695777434E+03  0.10695777434E+03  0.00000000000E+00 0.  1.
         21   -1    0    0  501  502 -0.00000000000E+00 -0.00000000000E+00 -0.58339291934E+03  0.58339291934E+03  0.00000000000E+00 0.  1.
         25    1    1    2    0    0  0.10595813034E+03 -0.52791882766E+02 -0.22810010189E+03  0.28577747419E+03  0.12500000000E+03 0.  0.
         25    1    1    2    0    0 -0.25537989639E+02  0.68973112107E+02 -0.20077176678E+03  0.24767676808E+03  0.12500000000E+03 0.  0.
         25    1    1    2    0    0 -0.80420140699E+02 -0.16181229341E+02 -0.47563276324E+02  0.15689645142E+03  0.12500000000E+03 0.  0.
</event>
<event>
 5    0  0.5648525E-005  0.2589556E+03  0.7546771E-02  0.1107772E+00
         21   -1    0    0  502  501  0.00000000000E+00  0.00000000000E+00  0.37131377713E+03  0.37131377713E+03  0.00000000000E+00 0.  1.
         21   -1    0    0  501  502 -0.00000000000E+00 -0.00000000000E+00 -0.18059663250E+03  0.18059663250E+03  0.00000000000E+00 0.  1.
         25    1    1    2    0    0  0.13049760764E+03  0.19495251284E+02  0.11858710523E+03  0.21701979622E+03  0.12500000000E+03 0.  0.
         25    1    1    2    0    0  0.30437949267E+00 -0.59756744894E+02  0.53825186682E+02  0.14863751858E+03  0.12500000000E+03 0.  0.
         25    1    1    2    0    0 -0.13080198713E+03  0.40261493610E+02  0.18304852717E+02  0.18625309484E+03  0.12500000000E+03 0.  0.
</event>
<event>
 5    0  0.5648525E-005  0.4596085E+03  0.7546771E-02  0.1024895E+00
         21   -1    0    0  502  501  0.00000000000E+00  0.00000000000E+00  0.29228446821E+04  0.29228446821E+04  0.00000000000E+00 0.  1.
         21   -1    0    0  501  502 -0.00000000000E+00 -0.00000000000E+00 -0.72272064365E+02  0.72272064365E+02  0.00000000000E+00 0.  1.
         25    1    1    2    0    0  0.92516886165E+02 -0.14710269902E+03  0.17473351723E+04  0.17603987568E+04  0.12500000000E+03 0.  0.
         25    1    1    2    0    0 -0.69073848144E+02  0.31318902997E+03  0.72221329636E+03  0.80004725512E+03  0.12500000000E+03 0.  0.
         25    1    1    2    0    0 -0.23443038020E+02 -0.16608633095E+03  0.38102414904E+03  0.43467073459E+03  0.12500000000E+03 0.  0.
</event>
<event>
 5    0  0.5648525E-005  0.4275530E+03  0.7546771E-02  0.1034636E+00
         21   -1    0    0  502  501  0.00000000000E+00  0.00000000000E+00  0.82963420438E+03  0.82963420438E+03  0.00000000000E+00 0.  1.
         21   -1    0    0  501  502 -0.00000000000E+00 -0.00000000000E+00 -0.22033996980E+03  0.22033996980E+03  0.00000000000E+00 0.  1.
         25    1    1    2    0    0  0.13731488916E+03  0.18182997033E+03  0.10324914331E+03  0.27964781868E+03  0.12500000000E+03 0.  0.
         25    1    1    2    0    0 -0.25118485981E+02 -0.29055833507E+03  0.12711942267E+03  0.34181783458E+03  0.12500000000E+03 0.  0.
         25    1    1    2    0    0 -0.11219640318E+03  0.10872836474E+03  0.37892566860E+03  0.42850852093E+03  0.12500000000E+03 0.  0.
</event>
<event>
 5    0  0.5648525E-005  0.2250093E+03  0.7546771E-02  0.1130203E+00
         21   -1    0    0  502  501  0.00000000000E+00  0.00000000000E+00  0.22300842338E+03  0.22300842338E+03  0.00000000000E+00 0. -1.
         21   -1    0    0  501  502 -0.00000000000E+00 -0.00000000000E+00 -0.22702820050E+03  0.22702820050E+03  0.00000000000E+00 0. -1.
         25    1    1    2    0    0 -0.34194390470E+02 -0.64194137127E+02  0.42908761399E+02  0.15085193199E+03  0.12500000000E+03 0.  0.
         25    1    1    2    0    0  0.51534123976E+02  0.21201795079E+02  0.36842891291E+02  0.14173101526E+03  0.12500000000E+03 0.  0.
         25    1    1    2    0    0 -0.17339733506E+02  0.42992342048E+02 -0.83771429810E+02  0.15745367663E+03  0.12500000000E+03 0.  0.
</event>
<event>
 5    0  0.5648525E-005  0.7740499E+03  0.7546771E-02  0.9598357E-01
         21   -1    0    0  502  501  0.00000000000E+00  0.00000000000E+00  0.61974525392E+03  0.61974525392E+03  0.00000000000E+00 0. -1.
         21   -1    0    0  501  502 -0.00000000000E+00 -0.00000000000E+00 -0.96677342766E+03  0.96677342766E+03  0.00000000000E+00 0. -1.
         25    1    1    2    0    0 -0.25834715212E+03  0.58660106932E+03 -0.31613648646E+03  0.72554210326E+03  0.12500000000E+03 0.  0.
         25    1    1    2    0    0  0.33450405079E+03 -0.13917882855E+03  0.38271179859E+02  0.38516670354E+03  0.12500000000E+03 0.  0.
         25    1    1    2    0    0 -0.76156898669E+02 -0.44742224077E+03 -0.69162867145E+02  0.47580987478E+03  0.12500000000E+03 0.  0.
</event>
<event>
 5    0  0.5648525E-005  0.4031763E+03  0.7546771E-02  0.1042685E+00
         21   -1    0    0  502  501  0.00000000000E+00  0.00000000000E+00  0.22328823385E+03  0.22328823385E+03  0.00000000000E+00 0.  1.
         21   -1    0    0  501  502 -0.00000000000E+00 -0.00000000000E+00 -0.72798803083E+03  0.72798803083E+03  0.00000000000E+00 0.  1.
         25    1    1    2    0    0  0.13487617110E+03  0.30384155627E+03 -0.13811784323E+03  0.38106798798E+03  0.12500000000E+03 0.  0.
         25    1    1    2    0    0 -0.22278171204E+01 -0.13907602040E+03 -0.12051584945E+03  0.22247735297E+03  0.12500000000E+03 0.  0.
         25    1    1    2    0    0 -0.13264835398E+03 -0.16476553587E+03 -0.24606610431E+03  0.34773092372E+03  0.12500000000E+03 0.  0.
</event>
<event>
 5    0  0.5648525E-005  0.2189414E+03  0.7546771E-02  0.1134675E+00
         21   -1    0    0  502  501  0.00000000000E+00  0.00000000000E+00  0.15010970457E+03  0.15010970457E+03  0.00000000000E+00 0.  1.
         21   -1    0    0  501  502 -0.00000000000E+00 -0.00000000000E+00 -0.31933536115E+03  0.31933536115E+03  0.00000000000E+00 0.  1.
         25    1    1    2    0    0 -0.50986965935E+02 -0.14093177374E+01 -0.45617676094E+02  0.14250483937E+03  0.12500000000E+03 0.  0.
         25    1    1    2    0    0 -0.39929703668E+02 -0.33026492877E+02 -0.17782392996E+02  0.13647836447E+03  0.12500000000E+03 0.  0.
         25    1    1    2    0    0  0.90916669602E+02  0.34435810615E+02 -0.10582558749E+03  0.19046186188E+03  0.12500000000E+03 0.  0.
</event>
<event>
 5    0  0.5648525E-005  0.4568574E+03  0.7546771E-02  0.1025697E+00
         21   -1    0    0  502  501  0.00000000000E+00  0.00000000000E+00  0.27670460992E+03  0.27670460992E+03  0.00000000000E+00 0.  1.
         21   -1    0    0  501  502 -0.00000000000E+00 -0.00000000000E+00 -0.75430154792E+03  0.75430154792E+03  0.00000000000E+00 0.  1.
         25    1    1    2    0    0  0.18819715985E+02 -0.11794174841E+03 -0.48664445098E+03  0.51644192258E+03  0.12500000000E+03 0.  0.
         25    1    1    2    0    0  0.16501971974E+03  0.10835374678E+03 -0.11433030628E+03  0.26013162299E+03  0.12500000000E+03 0.  0.
         25    1    1    2    0    0 -0.18383943572E+03  0.95880016349E+01  0.12337781926E+03  0.25443261227E+03  0.12500000000E+03 0.  0.
</event>
<event>
 5    0  0.5648525E-005  0.3672381E+03  0.7546771E-02  0.1055754E+00
         21   -1    0    0  502  501  0.00000000000E+00  0.00000000000E+00  0.17473429331E+04  0.17473429331E+04  0.00000000000E+00 0. -1.
         21   -1    0    0  501  502 -0.00000000000E+00 -0.00000000000E+00 -0.77182225382E+02  0.77182225382E+02  0.00000000000E+00 0. -1.
         25    1    1    2    0    0  0.32244075815E+02  0.23294455788E+03  0.38685125958E+03  0.46966130829E+03  0.12500000000E+03 0.  0.
         25    1    1    2    0    0  0.76801425560E+02 -0.17696292845E+03  0.47351318835E+03  0.52635926567E+03  0.12500000000E+03 0.  0.
         25    1    1    2    0    0 -0.10904550138E+03 -0.55981629431E+02  0.80979625978E+03  0.82850458451E+03  0.12500000000E+03 0.  0.
</event>
<event>
 5    0  0.5648525E-005  0.2943980E+03  0.7546771E-02  0.1088075E+00
         21   -1    0    0  502  501  0.00000000000E+00  0.00000000000E+00  0.54185326465E+03  0.54185326465E+03  0.00000000000E+00 0.  1.
         21   -1    0    0  501  502 -0.00000000000E+00 -0.00000000000E+00 -0.15995141699E+03  0.15995141699E+03  0.00000000000E+00 0.  1.
         25    1    1    2    0    0 -0.10599011317E+03 -0.42355667899E+02  0.17471103388E+03  0.24326292782E+03  0.12500000000E+03 0.  0.
         25    1    1    2    0    0  0.98666907086E+02 -0.10617526040E+03  0.17933489951E+03  0.26228677179E+03  0.12500000000E+03 0.  0.
         25    1    1    2    0    0  0.73232060828E+01  0.14853092830E+03  0.27855914280E+02  0.19625498203E+03  0.12500000000E+03 0.  0.
</event>
<event>
 5    0  0.5648525E-005  0.3810713E+03  0.7546771E-02  0.1050538E+00
         21   -1    0    0  502  501  0.00000000000E+00  0.00000000000E+00  0.35958585932E+03  0.35958585932E+03  0.00000000000E+00 0. -1.
         21   -1    0    0  501  502 -0.00000000000E+00 -0.00000000000E+00 -0.40384058106E+03  0.40384058106E+03  0.00000000000E+00 0. -1.
         25    1    1    2    0    0 -0.73034822963E+02 -0.51357216743E+02 -0.16624190702E+02  0.15450894082E+03  0.12500000000E+03 0.  0.
         25    1    1    2    0    0  0.14229434439E+03 -0.21597724075E+03 -0.86748638729E+02  0.30007361645E+03  0.12500000000E+03 0.  0.
         25    1    1    2    0    0 -0.69259521428E+02  0.26733445750E+03  0.59118107694E+02  0.30884388310E+03  0.12500000000E+03 0.  0.
</event>
<event>
 5    0  0.5648525E-005  0.5072708E+03  0.7546771E-02  0.1011898E+00
         21   -1    0    0  502  501  0.00000000000E+00  0.00000000000E+00  0.11261655639E+04  0.11261655639E+04  0.00000000000E+00 0.  1.
         21   -1    0    0  501  502 -0.00000000000E+00 -0.00000000000E+00 -0.22849539932E+03  0.22849539932E+03  0.00000000000E+00 0.  1.
         25    1    1    2    0    0  0.13451961250E+03 -0.27827154975E+03  0.89239824166E+03  0.95264379664E+03  0.12500000000E+03 0.  0.
         25    1    1    2    0    0 -0.79350923666E+02  0.18131629665E+03  0.11423243550E+02  0.23436650574E+03  0.12500000000E+03 0.  0.
         25    1    1    2    0    0 -0.55168688836E+02  0.96955253098E+02 -0.61513206404E+01  0.16765066083E+03  0.12500000000E+03 0.  0.
</event>
<event>
 5    0  0.5648525E-005  0.3998005E+03  0.7546771E-02  0.1043849E+00
         21   -1    0    0  502  501  0.00000000000E+00  0.00000000000E+00  0.37295907751E+03  0.37295907751E+03  0.00000000000E+00 0. -1.
         21   -1    0    0  501  502 -0.00000000000E+00 -0.00000000000E+00 -0.42857358585E+03  0.42857358585E+03  0.00000000000E+00 0. -1.
         25    1    1    2    0    0  0.72358515637E+02  0.60743025772E+01  0.22743138391E+03  0.26948596684E+03  0.12500000000E+03 0.  0.
         25    1    1    2    0    0  0.14983080475E+03  0.21825834547E+00 -0.11207157097E+03  0.22502078728E+03  0.12500000000E+03 0.  0.
         25    1    1    2    0    0 -0.22218932038E+03 -0.62925609226E+01 -0.17097432127E+03  0.30702590925E+03  0.12500000000E+03 0.  0.
</event>
<event>
 5    0  0.5648525E-005  0.2222103E+03  0.7546771E-02  0.1132246E+00
         21   -1    0    0  502  501  0.00000000000E+00  0.00000000000E+00  0.33144881645E+03  0.33144881645E+03  0.00000000000E+00 0. -1.
         21   -1    0    0  501  502 -0.00000000000E+00 -0.00000000000E+00 -0.14897444941E+03  0.14897444941E+03  0.00000000000E+00 0. -1.
         25    1    1    2    0    0  0.66464203325E+02  0.30337917378E+02  0.84512735558E+02  0.16764630036E+03  0.12500000000E+03 0.  0.
         25    1    1    2    0    0  0.10661634347E+02 -0.71231164986E+02  0.54764785422E+02  0.15431050202E+03  0.12500000000E+03 0.  0.
         25    1    1    2    0    0 -0.77125837672E+02  0.40893247608E+02  0.43196846057E+02  0.15846646347E+03  0.12500000000E+03 0.  0.
</event>
<event>
 5    0  0.5648525E-005  0.3658891E+03  0.7546771E-02  0.1056276E+00
         21   -1    0    0  502  501  0.00000000000E+00  0.00000000000E+00  0.96519645212E+02  0.96519645212E+02  0.00000000000E+00 0.  1.
         21   -1    0    0  501  502 -0.00000000000E+00 -0.00000000000E+00 -0.13870217897E+04  0.13870217897E+04  0.00000000000E+00 0.  1.
         25    1    1    2    0    0 -0.16931156401E+03  0.24708615756E+02 -0.26219942973E+03  0.33712084236E+03  0.12500000000E+03 0.  0.
         25    1    1    2    0    0  0.16231575103E+03 -0.19020189943E+03 -0.74127877306E+03  0.79223884339E+03  0.12500000000E+03 0.  0.
         25    1    1    2    0    0  0.69958129789E+01  0.16549328367E+03 -0.28702394171E+03  0.35418174918E+03  0.12500000000E+03 0.  0.
</event>
<event>
 5    0  0.5648525E-005  0.3080927E+03  0.7546771E-02  0.1081264E+00
         21   -1    0    0  502  501  0.00000000000E+00  0.00000000000E+00  0.29476655558E+03  0.29476655558E+03  0.00000000000E+00 0.  1.
         21   -1    0    0  501  502 -0.00000000000E+00 -0.00000000000E+00 -0.32202123629E+03  0.32202123629E+03  0.00000000000E+00 0.  1.
         25    1    1    2    0    0  0.15843467285E+03  0.43570949967E+01  0.68157392988E+02  0.21305154319E+03  0.12500000000E+03 0.  0.
         25    1    1    2    0    0 -0.10308302010E+03  0.10742970029E+03 -0.11530642656E+03  0.22602615234E+03  0.12500000000E+03 0.  0.
         25    1    1    2    0    0 -0.55351652751E+02 -0.11178679529E+03  0.19894352857E+02  0.17771009633E+03  0.12500000000E+03 0.  0.
</event>
<event>
 5    0  0.6151385E-005  0.3400128E+03  0.7546771E-02  0.1066790E+00
         21   -1    0    0  502  501  0.00000000000E+00  0.00000000000E+00  0.55075490467E+03  0.55075490467E+03  0.00000000000E+00 0. -1.
         21   -1    0    0  501  502 -0.00000000000E+00 -0.00000000000E+00 -0.20990950188E+03  0.20990950188E+03  0.00000000000E+00 0. -1.
         25    1    1    2    0    0  0.99336380102E+02 -0.80226131542E+02  0.33521295677E+02  0.18180381145E+03  0.12500000000E+03 0.  0.
         25    1    1    2    0    0 -0.14432895355E+03  0.19588722628E+03  0.68300028407E+02  0.28194422521E+03  0.12500000000E+03 0.  0.
         25    1    1    2    0    0  0.44992573445E+02 -0.11566109473E+03  0.23902407871E+03  0.29691636988E+03  0.12500000000E+03 0.  0.
</event>
<event>
 5    0  0.5648525E-005  0.3857965E+03  0.7546771E-02  0.1048812E+00
         21   -1    0    0  502  501  0.00000000000E+00  0.00000000000E+00  0.10966149528E+04  0.10966149528E+04  0.00000000000E+00 0.  1.
         21   -1    0    0  501  502 -0.00000000000E+00 -0.00000000000E+00 -0.13572578390E+03  0.13572578390E+03  0.00000000000E+00 0.  1.
         25    1    1    2    0    0 -0.52141954599E+02  0.95065734421E+02  0.15172492567E+03  0.22450329699E+03  0.12500000000E+03 0.  0.
         25    1    1    2    0    0 -0.72360827696E+02  0.18718282915E+02  0.78282349570E+03  0.79625629600E+03  0.12500000000E+03 0.  0.
         25    1    1    2    0    0  0.12450278230E+03 -0.11378401734E+03  0.26340747554E+02  0.21158114373E+03  0.12500000000E+03 0.  0.
</event>
<event>
 5    0  0.5648525E-005  0.2826194E+03  0.7546771E-02  0.1094267E+00
         21   -1    0    0  502  501  0.00000000000E+00  0.00000000000E+00  0.38701805345E+03  0.38701805345E+03  0.00000000000E+00 0.  1.
         21   -1    0    0  501  502 -0.00000000000E+00 -0.00000000000E+00 -0.20638246681E+03  0.20638246681E+03  0.00000000000E+00 0.  1.
         25    1    1    2    0    0  0.10006522489E+03 -0.50573065428E+02  0.34358952190E+02  0.17139492926E+03  0.12500000000E+03 0.  0.
         25    1    1    2    0    0 -0.16678119696E+03  0.86732872091E+02  0.16265414274E+02  0.22633630390E+03  0.12500000000E+03 0.  0.
         25    1    1    2    0    0  0.66715972067E+02 -0.36159806664E+02  0.13001122017E+03  0.19566928711E+03  0.12500000000E+03 0.  0.
</event>
<event>
 5    0  0.5648525E-005  0.3577790E+03  0.7546771E-02  0.1059467E+00
         21   -1    0    0  502  501  0.00000000000E+00  0.00000000000E+00  0.77831869784E+03  0.77831869784E+03  0.00000000000E+00 0.  1.
         21   -1    0    0  501  502 -0.00000000000E+00 -0.00000000000E+00 -0.16446454333E+03  0.16446454333E+03  0.00000000000E+00 0.  1.
         25    1    1    2    0    0 -0.23870915525E+03 -0.11423096227E+03  0.36958575510E+03  0.47143335045E+03  0.12500000000E+03 0.  0.
         25    1    1    2    0    0  0.66341106652E+02  0.95700366453E+02  0.18001530660E+03  0.24817375603E+03  0.12500000000E+03 0.  0.
         25    1    1    2    0    0  0.17236804860E+03  0.18530595821E+02  0.64253092810E+02  0.22317613469E+03  0.12500000000E+03 0.  0.
</event>
<event>
 5    0  0.5648525E-005  0.3219234E+03  0.7546771E-02  0.1074767E+00
         21   -1    0    0  502  501  0.00000000000E+00  0.00000000000E+00  0.24135719180E+03  0.24135719180E+03  0.00000000000E+00 0.  1.
         21   -1    0    0  501  502 -0.00000000000E+00 -0.00000000000E+00 -0.42938299209E+03  0.42938299209E+03  0.00000000000E+00 0.  1.
         25    1    1    2    0    0  0.81705852069E+02 -0.11615264477E+03 -0.10860411944E+03  0.21814476366E+03  0.12500000000E+03 0.  0.
         25    1    1    2    0    0 -0.84488584498E+02 -0.89244199017E+02 -0.11481141567E+03  0.20954595949E+03  0.12500000000E+03 0.  0.
         25    1    1    2    0    0  0.27827324288E+01  0.20539684379E+03  0.35389734823E+02  0.24304946075E+03  0.12500000000E+03 0.  0.
</event>
<event>
 5    0  0.5648525E-005  0.2597053E+03  0.7546771E-02  0.1107320E+00
         21   -1    0    0  502  501  0.00000000000E+00  0.00000000000E+00  0.83594708142E+02  0.83594708142E+02  0.00000000000E+00 0.  1.
         21   -1    0    0  501  502 -0.00000000000E+00 -0.00000000000E+00 -0.80683171198E+03  0.80683171198E+03  0.00000000000E+00 0.  1.
         25    1    1    2    0    0  0.27394365743E+02  0.88418123706E+02 -0.49367718659E+03  0.51760059934E+03  0.12500000000E+03 0.  0.
         25    1    1    2    0    0 -0.63369892782E+02 -0.84305660816E+02 -0.13223916186E+03  0.21032209510E+03  0.12500000000E+03 0.  0.
         25    1    1    2    0    0  0.35975527039E+02 -0.41124628899E+01 -0.97320655386E+02  0.16250372569E+03  0.12500000000E+03 0.  0.
</event>
<event>
 5    0  0.5648525E-005  0.3244264E+03  0.7546771E-02  0.1073630E+00
         21   -1    0    0  502  501  0.00000000000E+00  0.00000000000E+00  0.23444908844E+03  0.23444908844E+03  0.00000000000E+00 0. -1.
         21   -1    0    0  501  502 -0.00000000000E+00 -0.00000000000E+00 -0.44893527884E+03  0.44893527884E+03  0.00000000000E+00 0. -1.
         25    1    1    2    0    0 -0.12567628714E+03 -0.86309247439E+02 -0.25737986423E+03  0.32421167445E+03  0.12500000000E+03 0.  0.
         25    1    1    2    0    0 -0.14960336908E+02  0.44632554715E+02  0.89645626617E+02  0.16086396424E+03  0.12500000000E+03 0.  0.
         25    1    1    2    0    0  0.14063662405E+03  0.41676692724E+02 -0.46751952796E+02  0.19830872858E+03  0.12500000000E+03 0.  0.
</event>
<event>
 5    0  0.5648525E-005  0.2243112E+03  0.7546771E-02  0.1130709E+00
         21   -1    0    0  502  501  0.00000000000E+00  0.00000000000E+00  0.49584890880E+02  0.49584890880E+02  0.00000000000E+00 0. -1.
         21   -1    0    0  501  502 -0.00000000000E+00 -0.00000000000E+00 -0.10147351783E+04  0.10147351783E+04  0.00000000000E+00 0. -1.
         25    1    1    2    0    0 -0.69921836115E+02  0.34083402239E+02 -0.26399413281E+03  0.30227246589E+03  0.12500000000E+03 0.  0.
         25    1    1    2    0    0  0.86275626289E+02  0.33121367672E+02 -0.35221011811E+03  0.38499022843E+03  0.12500000000E+03 0.  0.
         25    1    1    2    0    0 -0.16353790175E+02 -0.67204769911E+02 -0.34894603652E+03  0.37705737488E+03  0.12500000000E+03 0.  0.
</event>
<event>
 5    0  0.5648525E-005  0.2392916E+03  0.7546771E-02  0.1120266E+00
         21   -1    0    0  502  501  0.00000000000E+00  0.00000000000E+00  0.16096796453E+04  0.16096796453E+04  0.00000000000E+00 0. -1.
         21   -1    0    0  501  502 -0.00000000000E+00 -0.00000000000E+00 -0.35572583287E+02  0.35572583287E+02  0.00000000000E+00 0. -1.
         25    1    1    2    0    0  0.92223643542E+02 -0.81694165489E+02  0.52279881188E+03  0.55147324034E+03  0.12500000000E+03 0.  0.
         25    1    1    2    0    0 -0.62252636345E+02 -0.34084034307E+01  0.62594236308E+03  0.64133910675E+03  0.12500000000E+03 0.  0.
         25    1    1    2    0    0 -0.29971007197E+02  0.85102568920E+02  0.42536588709E+03  0.45243988154E+03  0.12500000000E+03 0.  0.
</event>
<event>
 5    0  0.5648525E-005  0.2859877E+03  0.7546771E-02  0.1092463E+00
         21   -1    0    0  502  501  0.00000000000E+00  0.00000000000E+00  0.76909995374E+03  0.76909995374E+03  0.00000000000E+00 0.  1.
         21   -1    0    0  501  502 -0.00000000000E+00 -0.00000000000E+00 -0.10634375657E+03  0.10634375657E+03  0.00000000000E+00 0.  1.
         25    1    1    2    0    0  0.14268364385E+02 -0.97998031832E+02  0.18550266366E+03  0.24462918610E+03  0.12500000000E+03 0.  0.
         25    1    1    2    0    0  0.13245990947E+03 -0.90286305796E+01  0.28470640716E+03  0.33809744463E+03  0.12500000000E+03 0.  0.
         25    1    1    2    0    0 -0.14672827385E+03  0.10702666241E+03  0.19254712635E+03  0.29271707958E+03  0.12500000000E+03 0.  0.
</event>
<event>
 5    0  0.5648525E-005  0.3002878E+03  0.7546771E-02  0.1085097E+00
         21   -1    0    0  502  501  0.00000000000E+00  0.00000000000E+00  0.52692056178E+03  0.52692056178E+03  0.00000000000E+00 0.  1.
         21   -1    0    0  501  502 -0.00000000000E+00 -0.00000000000E+00 -0.17113163002E+03  0.17113163002E+03  0.00000000000E+00 0.  1.
         25    1    1    2    0    0  0.18141427764E+03 -0.11001375177E+03  0.12307837085E+03  0.27529520715E+03  0.12500000000E+03 0.  0.
         25    1    1    2    0    0 -0.12661914265E+03  0.12174827229E+03  0.13287022951E+03  0.25324799502E+03  0.12500000000E+03 0.  0.
         25    1    1    2    0    0 -0.54795134992E+02 -0.11734520518E+02  0.99840331401E+02  0.16950898963E+03  0.12500000000E+03 0.  0.
</event>
<event>
 5    0  0.5648525E-005  0.4324417E+03  0.7546771E-02  0.1033091E+00
         21   -1    0    0  502  501  0.00000000000E+00  0.00000000000E+00  0.36487340045E+03  0.36487340045E+03  0.00000000000E+00 0.  1.
         21   -1    0    0  501  502 -0.00000000000E+00 -0.00000000000E+00 -0.51252240907E+03  0.51252240907E+03  0.00000000000E+00 0.  1.
         25    1    1    2    0    0 -0.21503989779E+03 -0.13922005579E+03  0.83659654634E+02  0.29706618688E+03  0.12500000000E+03 0.  0.
         25    1    1    2    0    0  0.29939105404E+03  0.16061015624E+03 -0.22830173683E+03  0.42799218283E+03  0.12500000000E+03 0.  0.
         25    1    1    2    0    0 -0.84351156254E+02 -0.21390100452E+02 -0.30069264207E+01  0.15233743980E+03  0.12500000000E+03 0.  0.
</event>
<event>
 5    0  0.5648525E-005  0.4716127E+03  0.7546771E-02  0.1021466E+00
         21   -1    0    0  502  501  0.00000000000E+00  0.00000000000E+00  0.74423436532E+03  0.74423436532E+03  0.00000000000E+00 0. -1.
         21   -1    0    0  501  502 -0.00000000000E+00 -0.00000000000E+00 -0.29885548391E+03  0.29885548391E+03  0.00000000000E+00 0. -1.
         25    1    1    2    0    0  0.46450279428E+01 -0.59039204364E+02  0.59728942360E+03  0.61309612581E+03  0.12500000000E+03 0.  0.
         25    1    1    2    0    0 -0.10475484161E+03 -0.59779647163E+01 -0.19258095763E+03  0.25243165045E+03  0.12500000000E+03 0.  0.
         25    1    1    2    0    0  0.10010981367E+03  0.65017169080E+02  0.40670415445E+02  0.17756207298E+03  0.12500000000E+03 0.  0.
</event>
<event>
 5    0  0.5648525E-005  0.4493964E+03  0.7546771E-02  0.1027902E+00
         21   -1    0    0  502  501  0.00000000000E+00  0.00000000000E+00  0.99896078930E+03  0.99896078930E+03  0.00000000000E+00 0. -1.
         21   -1    0    0  501  502 -0.00000000000E+00 -0.00000000000E+00 -0.20216722492E+03  0.20216722492E+03  0.00000000000E+00 0. -1.
         25    1    1    2    0    0  0.89067063770E+02 -0.16715367858E+03  0.68395578464E+02  0.23701529331E+03  0.12500000000E+03 0.  0.
         25    1    1    2    0    0 -0.25802161434E+03 -0.18798492252E+02  0.57859920688E+03  0.64601128394E+03  0.12500000000E+03 0.  0.
         25    1    1    2    0    0  0.16895455057E+03  0.18595217083E+03  0.14979877904E+03  0.31810143696E+03  0.12500000000E+03 0.  0.
</event>
<event>
 5    0  0.5648525E-005  0.3458057E+03  0.7546771E-02  0.1064350E+00
         21   -1    0    0  502  501  0.00000000000E+00  0.00000000000E+00  0.38132726721E+02  0.38132726721E+02  0.00000000000E+00 0. -1.
         21   -1    0    0  501  502 -0.00000000000E+00 -0.00000000000E+00 -0.31359302758E+04  0.31359302758E+04  0.00000000000E+00 0. -1.
         25    1    1    2    0    0  0.27027563849E+02 -0.10921245426E+02 -0.13866836358E+03  0.18895416869E+03  0.12500000000E+03 0.  0.
         25    1    1    2    0    0 -0.83586943501E+02 -0.10579292650E+03 -0.20551650599E+04  0.20633728078E+04  0.12500000000E+03 0.  0.
         25    1    1    2    0    0  0.56559379653E+02  0.11671417193E+03 -0.90396412562E+03  0.92173602607E+03  0.12500000000E+03 0.  0.
</event>
<event>
 5    0  0.5648525E-005  0.3726592E+03  0.7546771E-02  0.1053681E+00
         21   -1    0    0  502  501  0.00000000000E+00  0.00000000000E+00  0.11669753064E+04  0.11669753064E+04  0.00000000000E+00 0.  1.
         21   -1    0    0  501  502 -0.00000000000E+00 -0.00000000000E+00 -0.11900415612E+03  0.11900415612E+03  0.00000000000E+00 0.  1.
         25    1    1    2    0    0 -0.20195151936E+03  0.10604772033E+03  0.39054723517E+03  0.46923627104E+03  0.12500000000E+03 0.  0.
         25    1    1    2    0    0  0.92750898345E+02 -0.26477575452E+02  0.60513255599E+03  0.62539123871E+03  0.12500000000E+03 0.  0.
         25    1    1    2    0    0  0.10920062101E+03 -0.79570144876E+02  0.52291359103E+02  0.19135195275E+03  0.12500000000E+03 0.  0.
</event>
<event>
 5    0  0.5648525E-005  0.3728985E+03  0.7546771E-02  0.1053590E+00
         21   -1    0    0  502  501  0.00000000000E+00  0.00000000000E+00  0.25543939990E+04  0.25543939990E+04  0.00000000000E+00 0.  1.
         21   -1    0    0  501  502 -0.00000000000E+00 -0.00000000000E+00 -0.54436908962E+02  0.54436908962E+02  0.00000000000E+00 0.  1.
         25    1    1    2    0    0  0.22157066342E+02  0.47619175942E+02  0.81546926856E+02  0.15821953984E+03  0.12500000000E+03 0.  0.
         25    1    1    2    0    0 -0.38947064252E+02 -0.16711116994E+03  0.15954295727E+04  0.16094917019E+04  0.12500000000E+03 0.  0.
         25    1    1    2    0    0  0.16789997911E+02  0.11949199400E+03  0.82298059050E+03  0.84111966627E+03  0.12500000000E+03 0.  0.
</event>
<event>
 5    0  0.5648525E-005  0.2887166E+03  0.7546771E-02  0.1091021E+00
         21   -1    0    0  502  501  0.00000000000E+00  0.00000000000E+00  0.35806986847E+03  0.35806986847E+03  0.00000000000E+00 0.  1.
         21   -1    0    0  501  502 -0.00000000000E+00 -0.00000000000E+00 -0.23279604817E+03  0.23279604817E+03  0.00000000000E+00 0.  1.
         25    1    1    2    0    0 -0.26612835606E+02 -0.79461517265E+02  0.22699205537E+03  0.27234678068E+03  0.12500000000E+03 0.  0.
         25    1    1    2    0    0 -0.37064892432E+02  0.93992048142E+02 -0.57786403501E+02  0.17079982375E+03  0.12500000000E+03 0.  0.
         25    1    1    2    0    0  0.63677728038E+02 -0.14530530877E+02 -0.43931831568E+02  0.14771931221E+03  0.12500000000E+03 0.  0.
</event>
<event>
 5    0  0.5648525E-005  0.3163767E+03  0.7546771E-02  0.1077329E+00
         21   -1    0    0  502  501  0.00000000000E+00  0.00000000000E+00  0.15030440695E+03  0.15030440695E+03  0.00000000000E+00 0.  1.
         21   -1    0    0  501  502 -0.00000000000E+00 -0.00000000000E+00 -0.66594337911E+03  0.66594337911E+03  0.00000000000E+00 0.  1.
         25    1    1    2    0    0 -0.17991115815E+03 -0.65705067696E+02 -0.36599145763E+03  0.43157841443E+03  0.12500000000E+03 0.  0.
         25    1    1    2    0    0  0.70087787791E+02  0.96262598902E+02 -0.24788454424E+02  0.17440829515E+03  0.12500000000E+03 0.  0.
         25    1    1    2    0    0  0.10982337036E+03 -0.30557531206E+02 -0.12485906011E+03  0.21026107648E+03  0.12500000000E+03 0.  0.
</event>
<event>
 5    0  0.5648525E-005  0.3925747E+03  0.7546771E-02  0.1046382E+00
         21   -1    0    0  502  501  0.00000000000E+00  0.00000000000E+00  0.11316407480E+04  0.11316407480E+04  0.00000000000E+00 0. -1.
         21   -1    0    0  501  502 -0.00000000000E+00 -0.00000000000E+00 -0.13618711592E+03  0.13618711592E+03  0.00000000000E+00 0. -1.
         25    1    1    2    0    0 -0.10845542433E+03 -0.11677884418E+03  0.61890204841E+02  0.21179063947E+03  0.12500000000E+03 0.  0.
         25    1    1    2    0    0 -0.42497688974E+02  0.63213659439E+02  0.58401498573E+02  0.15759998523E+03  0.12500000000E+03 0.  0.
         25    1    1    2    0    0  0.15095311330E+03  0.53565184741E+02  0.87516192863E+03  0.89843723918E+03  0.12500000000E+03 0.  0.
</event>
<event>
 5    0  0.5648525E-005  0.2712639E+03  0.7546771E-02  0.1100558E+00
         21   -1    0    0  502  501  0.00000000000E+00  0.00000000000E+00  0.17655782810E+03  0.17655782810E+03  0.00000000000E+00 0. -1.
         21   -1    0    0  501  502 -0.00000000000E+00 -0.00000000000E+00 -0.41677047676E+03  0.41677047676E+03  0.00000000000E+00 0. -1.
         25    1    1    2    0    0 -0.87513183516E+01 -0.12742185625E+03 -0.42344961445E+02  0.18366004134E+03  0.12500000000E+03 0.  0.
         25    1    1    2    0    0  0.38558823966E+02  0.12866001758E+02  0.18966357955E+02  0.13280451664E+03  0.12500000000E+03 0.  0.
         25    1    1    2    0    0 -0.29807505614E+02  0.11455585449E+03 -0.21683404518E+03  0.27686374688E+03  0.12500000000E+03 0.  0.
</event>
<event>
 5    0  0.5648525E-005  0.3760381E+03  0.7546771E-02  0.1052408E+00
         21   -1    0    0  502  501  0.00000000000E+00  0.00000000000E+00  0.13196467409E+04  0.13196467409E+04  0.00000000000E+00 0.  1.
         21   -1    0    0  501  502 -0.00000000000E+00 -0.00000000000E+00 -0.10715338725E+03  0.10715338725E+03  0.00000000000E+00 0.  1.
         25    1    1    2    0    0 -0.22366081015E+01  0.10217850343E+03  0.77043881470E+02  0.17890279107E+03  0.12500000000E+03 0.  0.
         25    1    1    2    0    0 -0.16494801454E+03  0.54724138950E+02  0.76683476501E+03  0.79615522086E+03  0.12500000000E+03 0.  0.
         25    1    1    2    0    0  0.16718462264E+03 -0.15690264238E+03  0.36861470722E+03  0.45174211627E+03  0.12500000000E+03 0.  0.
</event>
<event>
 5    0  0.5648525E-005  0.2450916E+03  0.7546771E-02  0.1116447E+00
         21   -1    0    0  502  501  0.00000000000E+00  0.00000000000E+00  0.18269535817E+03  0.18269535817E+03  0.00000000000E+00 0.  1.
         21   -1    0    0  501  502 -0.00000000000E+00 -0.00000000000E+00 -0.32879822171E+03  0.32879822171E+03  0.00000000000E+00 0.  1.
         25    1    1    2    0    0 -0.22405406191E+02 -0.86012587667E+01 -0.17315691847E+03  0.21490533333E+03  0.12500000000E+03 0.  0.
         25    1    1    2    0    0  0.63328665895E+02  0.59981613957E+01  0.71886752575E+02  0.15760457817E+03  0.12500000000E+03 0.  0.
         25    1    1    2    0    0 -0.40923259704E+02  0.26030973710E+01 -0.44832697652E+02  0.13898366839E+03  0.12500000000E+03 0.  0.
</event>
<event>
 5    0  0.5648525E-005  0.3247145E+03  0.7546771E-02  0.1073500E+00
         21   -1    0    0  502  501  0.00000000000E+00  0.00000000000E+00  0.12321985546E+04  0.12321985546E+04  0.00000000000E+00 0. -1.
         21   -1    0    0  501  502 -0.00000000000E+00 -0.00000000000E+00 -0.85570201863E+02  0.85570201863E+02  0.00000000000E+00 0. -1.
         25    1    1    2    0    0 -0.48638126309E+02 -0.53864807885E+02  0.11784614983E+03  0.18649343122E+03  0.12500000000E+03 0.  0.
         25    1    1    2    0    0  0.13398059482E+03 -0.84142566528E+02  0.79630694257E+03  0.82143807927E+03  0.12500000000E+03 0.  0.
         25    1    1    2    0    0 -0.85342468509E+02  0.13800737441E+03  0.23247526035E+03  0.30983724598E+03  0.12500000000E+03 0.  0.
</event>
<event>
 5    0  0.5648525E-005  0.3205792E+03  0.7546771E-02  0.1075383E+00
         21   -1    0    0  502  501  0.00000000000E+00  0.00000000000E+00  0.19150710179E+03  0.19150710179E+03  0.00000000000E+00 0.  1.
         21   -1    0    0  501  502 -0.00000000000E+00 -0.00000000000E+00 -0.53664326972E+03  0.53664326972E+03  0.00000000000E+00 0.  1.
         25    1    1    2    0    0 -0.55978063447E+02  0.10789002114E+03 -0.61905980768E+01  0.17446238492E+03  0.12500000000E+03 0.  0.
         25    1    1    2    0    0 -0.13570596053E+03 -0.32650277903E+02 -0.20631073055E+03  0.27869565104E+03  0.12500000000E+03 0.  0.
         25    1    1    2    0    0  0.19168402397E+03 -0.75239743237E+02 -0.13263483931E+03  0.27499233554E+03  0.12500000000E+03 0.  0.
</event>
<event>
 5    0  0.5648525E-005  0.2975653E+03  0.7546771E-02  0.1086464E+00
         21   -1    0    0  502  501  0.00000000000E+00  0.00000000000E+00  0.17997967401E+04  0.17997967401E+04  0.00000000000E+00 0.  1.
         21   -1    0    0  501  502 -0.00000000000E+00 -0.00000000000E+00 -0.49197281408E+02  0.49197281408E+02  0.00000000000E+00 0.  1.
         25    1    1    2    0    0 -0.78570229274E+02 -0.12262378686E+03  0.11555540258E+04  0.11713837887E+04  0.12500000000E+03 0.  0.
         25    1    1    2    0    0  0.89307115817E+02  0.12387702678E+03  0.33321177799E+03  0.38726782424E+03  0.12500000000E+03 0.  0.
         25    1    1    2    0    0 -0.10736886543E+02 -0.12532399215E+01  0.26183365499E+03  0.29034240859E+03  0.12500000000E+03 0.  0.
</event>
<event>
 5    0  0.5648525E-005  0.3726456E+03  0.7546771E-02  0.1053686E+00
         21   -1    0    0  502  501  0.00000000000E+00  0.00000000000E+00  0.18789478011E+03  0.18789478011E+03  0.00000000000E+00 0. -1.
         21   -1    0    0  501  502 -0.00000000000E+00 -0.00000000000E+00 -0.73905587488E+03  0.73905587488E+03  0.00000000000E+00 0. -1.
         25    1    1    2    0    0 -0.14718101868E+03  0.15175772652E+02 -0.23139217853E+03  0.30176132393E+03  0.12500000000E+03 0.  0.
         25    1    1    2    0    0  0.21296915760E+03 -0.10098051948E+03 -0.36660581428E+03  0.45340682667E+03  0.12500000000E+03 0.  0.
         25    1    1    2    0    0 -0.65788138922E+02  0.85804746830E+02  0.46836898029E+02  0.17178250440E+03  0.12500000000E+03 0.  0.
</event>
<event>
 5    0  0.5648525E-005  0.3212821E+03  0.7546771E-02  0.1075061E+00
         21   -1    0    0  502  501  0.00000000000E+00  0.00000000000E+00  0.15318045667E+03  0.15318045667E+03  0.00000000000E+00 0. -1.
         21   -1    0    0  501  502 -0.00000000000E+00 -0.00000000000E+00 -0.67385992971E+03  0.67385992971E+03  0.00000000000E+00 0. -1.
         25    1    1    2    0    0  0.10696904196E+02 -0.76633570274E+02 -0.78693982930E+02  0.16674792593E+03  0.12500000000E+03 0.  0.
         25    1    1    2    0    0 -0.15594859565E+03  0.88721926006E+02 -0.41133701897E+03  0.46584835281E+03  0.12500000000E+03 0.  0.
         25    1    1    2    0    0  0.14525169145E+03 -0.12088355732E+02 -0.30648471145E+02  0.19444410764E+03  0.12500000000E+03 0.  0.
</event>
<event>
 5    0  0.5648525E-005  0.3742196E+03  0.7546771E-02  0.1053091E+00
         21   -1    0    0  502  501  0.00000000000E+00  0.00000000000E+00  0.37105013640E+03  0.37105013640E+03  0.00000000000E+00 0. -1.
         21   -1    0    0  501  502 -0.00000000000E+00 -0.00000000000E+00 -0.37741606694E+03  0.37741606694E+03  0.00000000000E+00 0. -1.
         25    1    1    2    0    0 -0.41830857029E+02  0.11642058430E+03 -0.84927233949E+02  0.19529774222E+03  0.12500000000E+03 0.  0.
         25    1    1    2    0    0  0.95830083965E+02 -0.24006572349E+03  0.18413590931E+03  0.34109527949E+03  0.12500000000E+03 0.  0.
         25    1    1    2    0    0 -0.53999226935E+02  0.12364513919E+03 -0.10557460591E+03  0.21207318164E+03  0.12500000000E+03 0.  0.
</event>
<event>
 5    0  0.5648525E-005  0.4582981E+03  0.7546771E-02  0.1025276E+00
         21   -1    0    0  502  501  0.00000000000E+00  0.00000000000E+00  0.20002412809E+03  0.20002412809E+03  0.00000000000E+00 0.  1.
         21   -1    0    0  501  502 -0.00000000000E+00 -0.00000000000E+00 -0.10500589934E+04  0.10500589934E+04  0.00000000000E+00 0.  1.
         25    1    1    2    0    0  0.43125459885E+02 -0.14772884660E+03 -0.95868857010E+02  0.22022591844E+03  0.12500000000E+03 0.  0.
         25    1    1    2    0    0 -0.29487084674E+03 -0.90552784296E+02 -0.35614868716E+03  0.48745821397E+03  0.12500000000E+03 0.  0.
         25    1    1    2    0    0  0.25174538685E+03  0.23828163090E+03 -0.39801732118E+03  0.54239898911E+03  0.12500000000E+03 0.  0.
</event>
<event>
 5    0  0.5877618E-005  0.5911856E+03  0.7546771E-02  0.9923864E-01
         21   -1    0    0  502  501  0.00000000000E+00  0.00000000000E+00  0.94333197229E+03  0.94333197229E+03  0.00000000000E+00 0.  1.
         21   -1    0    0  501  502 -0.00000000000E+00 -0.00000000000E+00 -0.37049569379E+03  0.37049569379E+03  0.00000000000E+00 0.  1.
         25    1    1    2    0    0  0.26598360147E+03 -0.14150421499E+03  0.29127249325E+03  0.43730468147E+03  0.12500000000E+03 0.  0.
         25    1    1    2    0    0 -0.12440402883E+03 -0.21030614453E+03 -0.12947268671E+03  0.30346863663E+03  0.12500000000E+03 0.  0.
         25    1    1    2    0    0 -0.14157957264E+03  0.35181035952E+03  0.41103647196E+03  0.57305434798E+03  0.12500000000E+03 0.  0.
</event>
<event>
 5    0  0.5648525E-005  0.3418885E+03  0.7546771E-02  0.1065994E+00
         21   -1    0    0  502  501  0.00000000000E+00  0.00000000000E+00  0.17842485329E+04  0.17842485329E+04  0.00000000000E+00 0.  1.
         21   -1    0    0  501  502 -0.00000000000E+00 -0.00000000000E+00 -0.65510918399E+02  0.65510918399E+02  0.00000000000E+00 0.  1.
         25    1    1    2    0    0  0.21091094615E+02 -0.10670084341E+02  0.64096838684E+02  0.14245030608E+03  0.12500000000E+03 0.  0.
         25    1    1    2    0    0  0.74830725626E+02  0.15098416136E+03  0.82478098221E+03  0.85104907208E+03  0.12500000000E+03 0.  0.
         25    1    1    2    0    0 -0.95921820241E+02 -0.14031407702E+03  0.82985979360E+03  0.85626007313E+03  0.12500000000E+03 0.  0.
</event>
<event>
 5    0  0.5648525E-005  0.3222059E+03  0.7546771E-02  0.1074639E+00
         21   -1    0    0  502  501  0.00000000000E+00  0.00000000000E+00  0.36639921789E+03  0.36639921789E+03  0.00000000000E+00 0. -1.
         21   -1    0    0  501  502 -0.00000000000E+00 -0.00000000000E+00 -0.28334304177E+03  0.28334304177E+03  0.00000000000E+00 0. -1.
         25    1    1    2    0    0 -0.71103836648E+02 -0.65583740300E+02 -0.23794063715E+02  0.15983785548E+03  0.12500000000E+03 0.  0.
         25    1    1    2    0    0  0.19963482030E+03  0.14060081090E+03  0.14417902204E+02  0.27469169155E+03  0.12500000000E+03 0.  0.
         25    1    1    2    0    0 -0.12853098365E+03 -0.75017070599E+02  0.92432337634E+02  0.21521271263E+03  0.12500000000E+03 0.  0.
</event>
<event>
 5    0  0.6724891E-005  0.3054874E+03  0.7546771E-02  0.1082529E+00
         21   -1    0    0  502  501  0.00000000000E+00  0.00000000000E+00  0.22146261146E+03  0.22146261146E+03  0.00000000000E+00 0. -1.
         21   -1    0    0  501  502 -0.00000000000E+00 -0.00000000000E+00 -0.42139187949E+03  0.42139187949E+03  0.00000000000E+00 0. -1.
         25    1    1    2    0    0  0.65698870755E+02  0.16780586609E+03  0.45539363907E+02  0.22399549991E+03  0.12500000000E+03 0.  0.
         25    1    1    2    0    0 -0.25299870604E+02 -0.41654704297E+02 -0.18174901855E+03  0.22590463383E+03  0.12500000000E+03 0.  0.
         25    1    1    2    0    0 -0.40399000151E+02 -0.12615116180E+03 -0.63719613392E+02  0.19295435721E+03  0.12500000000E+03 0.  0.
</event>
<event>
 5    0  0.5648525E-005  0.3053873E+03  0.7546771E-02  0.1082578E+00
         21   -1    0    0  502  501  0.00000000000E+00  0.00000000000E+00  0.13462518352E+03  0.13462518352E+03  0.00000000000E+00 0.  1.
         21   -1    0    0  501  502 -0.00000000000E+00 -0.00000000000E+00 -0.69274838080E+03  0.69274838080E+03  0.00000000000E+00 0.  1.
         25    1    1    2    0    0 -0.82578084098E+02 -0.93911896401E+02 -0.13650116636E+02  0.17734122460E+03  0.12500000000E+03 0.  0.
         25    1    1    2    0    0  0.12508657252E+03  0.11899267492E+03 -0.39636254739E+03  0.45003797205E+03  0.12500000000E+03 0.  0.
         25    1    1    2    0    0 -0.42508488423E+02 -0.25080778521E+02 -0.14811053326E+03  0.19999436767E+03  0.12500000000E+03 0.  0.
</event>
<event>
 5    0  0.5648525E-005  0.3881702E+03  0.7546771E-02  0.1047955E+00
         21   -1    0    0  502  501  0.00000000000E+00  0.00000000000E+00  0.18792790682E+03  0.18792790682E+03  0.00000000000E+00 0. -1.
         21   -1    0    0  501  502 -0.00000000000E+00 -0.00000000000E+00 -0.80177591545E+03  0.80177591545E+03  0.00000000000E+00 0. -1.
         25    1    1    2    0    0  0.52239844066E+02 -0.29427705416E+02 -0.20886850774E+03  0.25069113403E+03  0.12500000000E+03 0.  0.
         25    1    1    2    0    0  0.13387283646E+03  0.22730841516E+03 -0.91831200666E+02  0.30602127600E+03  0.12500000000E+03 0.  0.
         25    1    1    2    0    0 -0.18611268053E+03 -0.19788070975E+03 -0.31314830022E+03  0.43299141224E+03  0.12500000000E+03 0.  0.
</event>
<event>
 5    0  0.5648525E-005  0.4349226E+03  0.7546771E-02  0.1032316E+00
         21   -1    0    0  502  501  0.00000000000E+00  0.00000000000E+00  0.63221736544E+03  0.63221736544E+03  0.00000000000E+00 0. -1.
         21   -1    0    0  501  502 -0.00000000000E+00 -0.00000000000E+00 -0.29919718183E+03  0.29919718183E+03  0.00000000000E+00 0. -1.
         25    1    1    2    0    0  0.25471516431E+03  0.16041048022E+03  0.36685045840E+03  0.49072965666E+03  0.12500000000E+03 0.  0.
         25    1    1    2    0    0 -0.13643032158E+03 -0.13728188152E+03  0.66931674280E+02  0.23992581491E+03  0.12500000000E+03 0.  0.
         25    1    1    2    0    0 -0.11828484273E+03 -0.23128598703E+02 -0.10076194906E+03  0.20075907570E+03  0.12500000000E+03 0.  0.
</event>
<event>
 5    0  0.5648525E-005  0.2304516E+03  0.7546771E-02  0.1126322E+00
         21   -1    0    0  502  501  0.00000000000E+00  0.00000000000E+00  0.78789735311E+03  0.78789735311E+03  0.00000000000E+00 0. -1.
         21   -1    0    0  501  502 -0.00000000000E+00 -0.00000000000E+00 -0.67404661544E+02  0.67404661544E+02  0.00000000000E+00 0. -1.
         25    1    1    2    0    0 -0.46716771054E+02  0.48062209763E+02  0.10637751514E+03  0.17729525779E+03  0.12500000000E+03 0.  0.
         25    1    1    2    0    0  0.11430122447E+02 -0.85817356015E+02  0.32787867076E+03  0.36142037717E+03  0.12500000000E+03 0.  0.
         25    1    1    2    0    0  0.35286648607E+02  0.37755146253E+02  0.28623650566E+03  0.31658637970E+03  0.12500000000E+03 0.  0.
</event>
<event>
 5    0  0.5648525E-005  0.2523150E+03  0.7546771E-02  0.1111850E+00
         21   -1    0    0  502  501  0.00000000000E+00  0.00000000000E+00  0.10970330519E+04  0.10970330519E+04  0.00000000000E+00 0.  1.
         21   -1    0    0  501  502 -0.00000000000E+00 -0.00000000000E+00 -0.58031864329E+02  0.58031864329E+02  0.00000000000E+00 0.  1.
         25    1    1    2    0    0  0.81569763301E+02  0.30188299740E+02  0.46388830208E+03  0.48824411572E+03  0.12500000000E+03 0.  0.
         25    1    1    2    0    0 -0.95471289456E+02  0.37842878644E+02  0.15903002310E+03  0.22685325394E+03  0.12500000000E+03 0.  0.
         25    1    1    2    0    0  0.13901526155E+02 -0.68031178384E+02  0.41608286236E+03  0.43996754654E+03  0.12500000000E+03 0.  0.
</event>
<event>
 5    0  0.5648525E-005  0.2956215E+03  0.7546771E-02  0.1087450E+00
         21   -1    0    0  502  501  0.00000000000E+00  0.00000000000E+00  0.19475189820E+04  0.19475189820E+04  0.00000000000E+00 0.  1.
         21   -1    0    0  501  502 -0.00000000000E+00 -0.00000000000E+00 -0.44873548204E+02  0.44873548204E+02  0.00000000000E+00 0.  1.
         25    1    1    2    0    0 -0.10485045367E+03  0.24720812170E+02  0.33461751949E+03  0.37309331344E+03  0.12500000000E+03 0.  0.
         25    1    1    2    0    0 -0.88287752229E+02 -0.42246389453E+02  0.86289620089E+03  0.87737924418E+03  0.12500000000E+03 0.  0.
         25    1    1    2    0    0  0.19313820590E+03  0.17525577283E+02  0.70513171342E+03  0.74191997257E+03  0.12500000000E+03 0.  0.
</event>
<event>
 5    0  0.5648525E-005  0.2422786E+03  0.7546771E-02  0.1118284E+00
         21   -1    0    0  502  501  0.00000000000E+00  0.00000000000E+00  0.21737627359E+03  0.21737627359E+03  0.00000000000E+00 0. -1.
         21   -1    0    0  501  502 -0.00000000000E+00 -0.00000000000E+00 -0.27003378878E+03  0.27003378878E+03  0.00000000000E+00 0. -1.
         25    1    1    2    0    0  0.60611937463E+02  0.38118351447E+01  0.10057429270E+02  0.13933588530E+03  0.12500000000E+03 0.  0.
         25    1    1    2    0    0 -0.10772837365E+03  0.50672664102E+02  0.31904446376E+02  0.17554490900E+03  0.12500000000E+03 0.  0.
         25    1    1    2    0    0  0.47116436183E+02 -0.54484499247E+02 -0.94619390842E+02  0.17252926807E+03  0.12500000000E+03 0.  0.
</event>
<event>
 5    0  0.5648525E-005  0.2865585E+03  0.7546771E-02  0.1092160E+00
         21   -1    0    0  502  501  0.00000000000E+00  0.00000000000E+00  0.72795842110E+02  0.72795842110E+02  0.00000000000E+00 0. -1.
         21   -1    0    0  501  502 -0.00000000000E+00 -0.00000000000E+00 -0.11280286366E+04  0.11280286366E+04  0.00000000000E+00 0. -1.
         25    1    1    2    0    0 -0.16688370429E+03 -0.15411669928E+02 -0.47388960964E+03  0.51796143916E+03  0.12500000000E+03 0.  0.
         25    1    1    2    0    0  0.16401761041E+03 -0.54024272286E+02 -0.38303748373E+03  0.43836413227E+03  0.12500000000E+03 0.  0.
         25    1    1    2    0    0  0.28660938822E+01  0.69435942214E+02 -0.19830570112E+03  0.24449890728E+03  0.12500000000E+03 0.  0.
</event>
<event>
 5    0  0.5835858E-005  0.3284926E+03  0.7546771E-02  0.1071806E+00
         21   -1    0    0  502  501  0.00000000000E+00  0.00000000000E+00  0.23476498841E+03  0.23476498841E+03  0.00000000000E+00 0. -1.
         21   -1    0    0  501  502 -0.00000000000E+00 -0.00000000000E+00 -0.45964014782E+03  0.45964014782E+03  0.00000000000E+00 0. -1.
         25    1    1    2    0    0 -0.68609487964E+02 -0.77767685389E+02  0.10111944820E+03  0.19132490046E+03  0.12500000000E+03 0.  0.
         25    1    1    2    0    0  0.74912675703E+02  0.15777677897E+03 -0.11102320605E+03  0.24177794202E+03  0.12500000000E+03 0.  0.
         25    1    1    2    0    0 -0.63031877391E+01 -0.80009093582E+02 -0.21497140156E+03  0.26130229375E+03  0.12500000000E+03 0.  0.
</event>
<event>
 5    0  0.5648525E-005  0.3438073E+03  0.7546771E-02  0.1065186E+00
         21   -1    0    0  502  501  0.00000000000E+00  0.00000000000E+00  0.17055465827E+03  0.17055465827E+03  0.00000000000E+00 0. -1.
         21   -1    0    0  501  502 -0.00000000000E+00 -0.00000000000E+00 -0.69305308050E+03  0.69305308050E+03  0.00000000000E+00 0. -1.
         25    1    1    2    0    0 -0.56359457882E+02  0.55947527311E+02  0.34513828258E+02  0.15206156203E+03  0.12500000000E+03 0.  0.
         25    1    1    2    0    0 -0.62244378990E+02  0.10158303705E+03 -0.38374425205E+03  0.42080651981E+03  0.12500000000E+03 0.  0.
         25    1    1    2    0    0  0.11860383687E+03 -0.15753056436E+03 -0.17326799844E+03  0.29073965693E+03  0.12500000000E+03 0.  0.
</event>
<event>
 5    0  0.5648525E-005  0.2275477E+03  0.7546771E-02  0.1128378E+00
         21   -1    0    0  502  501  0.00000000000E+00  0.00000000000E+00  0.22812761456E+03  0.22812761456E+03  0.00000000000E+00 0. -1.
         21   -1    0    0  501  502 -0.00000000000E+00 -0.00000000000E+00 -0.22696929163E+03  0.22696929163E+03  0.00000000000E+00 0. -1.
         25    1    1    2    0    0 -0.30581773435E+02 -0.36097802733E+02  0.38157817952E+01  0.13370810155E+03  0.12500000000E+03 0.  0.
         25    1    1    2    0    0  0.94298954262E+02  0.28802289116E+02 -0.59321656762E+02  0.16989974572E+03  0.12500000000E+03 0.  0.
         25    1    1    2    0    0 -0.63717180827E+02  0.72955136161E+01  0.56664197901E+02  0.15148905893E+03  0.12500000000E+03 0.  0.
</event>
<event>
 5    0  0.5648525E-005  0.3248989E+03  0.7546771E-02  0.1073416E+00
         21   -1    0    0  502  501  0.00000000000E+00  0.00000000000E+00  0.20584739783E+03  0.20584739783E+03  0.00000000000E+00 0.  1.
         21   -1    0    0  501  502 -0.00000000000E+00 -0.00000000000E+00 -0.51280374245E+03  0.51280374245E+03  0.00000000000E+00 0.  1.
         25    1    1    2    0    0  0.15738499806E+03 -0.74827982405E+02 -0.83736872674E+02  0.23023059833E+03  0.12500000000E+03 0.  0.
         25    1    1    2    0    0  0.34290817237E+02  0.13031335046E+03 -0.16230565474E+03  0.24520512845E+03  0.12500000000E+03 0.  0.
         25    1    1    2    0    0 -0.19167581529E+03 -0.55485368057E+02 -0.60913817204E+02  0.24321541350E+03  0.12500000000E+03 0.  0.
</event>
<event>
 5    0  0.5648525E-005  0.5043032E+03  0.7546771E-02  0.1012662E+00
         21   -1    0    0  502  501  0.00000000000E+00  0.00000000000E+00  0.12950275520E+04  0.12950275520E+04  0.00000000000E+00 0.  1.
         21   -1    0    0  501  502 -0.00000000000E+00 -0.00000000000E+00 -0.19638325192E+03  0.19638325192E+03  0.00000000000E+00 0.  1.
         25    1    1    2    0    0  0.37177051840E+02 -0.21085711503E+03  0.17342868361E+03  0.30256464506E+03  0.12500000000E+03 0.  0.
         25    1    1    2    0    0  0.11942037769E+03  0.11356219907E+03 -0.29103712301E+02  0.20887705890E+03  0.12500000000E+03 0.  0.
         25    1    1    2    0    0 -0.15659742953E+03  0.97294915959E+02  0.95431932880E+03  0.97996909999E+03  0.12500000000E+03 0.  0.
</event>
<event>
 5    0  0.5648525E-005  0.3572455E+03  0.7546771E-02  0.1059680E+00
         21   -1    0    0  502  501  0.00000000000E+00  0.00000000000E+00  0.84788382339E+02  0.84788382339E+02  0.00000000000E+00 0. -1.
         21   -1    0    0  501  502 -0.00000000000E+00 -0.00000000000E+00 -0.15052103985E+04  0.15052103985E+04  0.00000000000E+00 0. -1.
         25    1    1    2    0    0 -0.12454563469E+03  0.51667765773E+02 -0.42585276476E+03  0.46384992228E+03  0.12500000000E+03 0.  0.
         25    1    1    2    0    0  0.19097027904E+03  0.14377950809E+03 -0.38099892422E+03  0.46682692155E+03  0.12500000000E+03 0.  0.
         25    1    1    2    0    0 -0.66424644351E+02 -0.19544727386E+03 -0.61357032717E+03  0.65932193701E+03  0.12500000000E+03 0.  0.
</event>
<event>
 5    0  0.5648525E-005  0.3883010E+03  0.7546771E-02  0.1047908E+00
         21   -1    0    0  502  501  0.00000000000E+00  0.00000000000E+00  0.18638108257E+03  0.18638108257E+03  0.00000000000E+00 0. -1.
         21   -1    0    0  501  502 -0.00000000000E+00 -0.00000000000E+00 -0.80897530269E+03  0.80897530269E+03  0.00000000000E+00 0. -1.
         25    1    1    2    0    0  0.16653700046E+03 -0.13953212209E+03 -0.72764415253E+01  0.25076230223E+03  0.12500000000E+03 0.  0.
         25    1    1    2    0    0 -0.21168936890E+03  0.86567293072E+02 -0.48724180155E+03  0.55257203903E+03  0.12500000000E+03 0.  0.
         25    1    1    2    0    0  0.45152368439E+02  0.52964829016E+02 -0.12807597704E+03  0.19202204400E+03  0.12500000000E+03 0.  0.
</event>
<event>
 5    0  0.5648525E-005  0.3088251E+03  0.7546771E-02  0.1080910E+00
         21   -1    0    0  502  501  0.00000000000E+00  0.00000000000E+00  0.18324157249E+03  0.18324157249E+03  0.00000000000E+00 0.  1.
         21   -1    0    0  501  502 -0.00000000000E+00 -0.00000000000E+00 -0.52047665031E+03  0.52047665031E+03  0.00000000000E+00 0.  1.
         25    1    1    2    0    0  0.30563383137E+02 -0.33581041200E+02 -0.20336211781E+01  0.13300730180E+03  0.12500000000E+03 0.  0.
         25    1    1    2    0    0  0.23717660242E+02 -0.72243321187E+02 -0.36715785611E+03  0.39523602590E+03  0.12500000000E+03 0.  0.
         25    1    1    2    0    0 -0.54281043379E+02  0.10582436239E+03  0.31956399471E+02  0.17547489510E+03  0.12500000000E+03 0.  0.
</event>
<event>
 5    0  0.5648525E-005  0.3115221E+03  0.7546771E-02  0.1079619E+00
         21   -1    0    0  502  501  0.00000000000E+00  0.00000000000E+00  0.46867970966E+03  0.46867970966E+03  0.00000000000E+00 0.  1.
         21   -1    0    0  501  502 -0.00000000000E+00 -0.00000000000E+00 -0.20706249365E+03  0.20706249365E+03  0.00000000000E+00 0.  1.
         25    1    1    2    0    0  0.22842741473E+02 -0.74299304560E+02  0.23821882992E+03  0.28002747798E+03  0.12500000000E+03 0.  0.
         25    1    1    2    0    0 -0.64983426772E+02  0.14167815016E+03 -0.79840406216E+02  0.21516280917E+03  0.12500000000E+03 0.  0.
         25    1    1    2    0    0  0.42140685299E+02 -0.67378845598E+02  0.10323879231E+03  0.18055191616E+03  0.12500000000E+03 0.  0.
</event>
<event>
 5    0  0.5648525E-005  0.2635712E+03  0.7546771E-02  0.1105016E+00
         21   -1    0    0  502  501  0.00000000000E+00  0.00000000000E+00  0.15896517216E+03  0.15896517216E+03  0.00000000000E+00 0.  1.
         21   -1    0    0  501  502 -0.00000000000E+00 -0.00000000000E+00 -0.43701259684E+03  0.43701259684E+03  0.00000000000E+00 0.  1.
         25    1    1    2    0    0 -0.39797102058E+02 -0.40258799274E+02 -0.12636184160E+03  0.18653925931E+03  0.12500000000E+03 0.  0.
         25    1    1    2    0    0 -0.68615751668E+02 -0.90536237334E+02 -0.57256837706E+02  0.17834875136E+03  0.12500000000E+03 0.  0.
         25    1    1    2    0    0  0.10841285373E+03  0.13079503661E+03 -0.94428745370E+02  0.23108975833E+03  0.12500000000E+03 0.  0.
</event>
<event>
 5    0  0.5648525E-005  0.2076200E+03  0.7546771E-02  0.1143465E+00
         21   -1    0    0  502  501  0.00000000000E+00  0.00000000000E+00  0.65679617579E+03  0.65679617579E+03  0.00000000000E+00 0. -1.
         21   -1    0    0  501  502 -0.00000000000E+00 -0.00000000000E+00 -0.65630834352E+02  0.65630834352E+02  0.00000000000E+00 0. -1.
         25    1    1    2    0    0 -0.41494122015E+01  0.23022077270E+02  0.32063231620E+03  0.34493088562E+03  0.12500000000E+03 0.  0.
         25    1    1    2    0    0  0.39035773521E+02 -0.41445561396E+01  0.15256448102E+03  0.20110169027E+03  0.12500000000E+03 0.  0.
         25    1    1    2    0    0 -0.34886361319E+02 -0.18877521131E+02  0.11796854421E+03  0.17639443425E+03  0.12500000000E+03 0.  0.
</event>
<event>
 5    0  0.5648525E-005  0.6429764E+03  0.7546771E-02  0.9820048E-01
         21   -1    0    0  502  501  0.00000000000E+00  0.00000000000E+00  0.18002120957E+04  0.18002120957E+04  0.00000000000E+00 0. -1.
         21   -1    0    0  501  502 -0.00000000000E+00 -0.00000000000E+00 -0.22964999824E+03  0.22964999824E+03  0.00000000000E+00 0. -1.
         25    1    1    2    0    0  0.32481552515E+03  0.18720686849E+03  0.12748034609E+03  0.41524423611E+03  0.12500000000E+03 0.  0.
         25    1    1    2    0    0 -0.16010761730E+03 -0.24602614397E+03  0.13376713545E+04  0.13751919740E+04  0.12500000000E+03 0.  0.
         25    1    1    2    0    0 -0.16470790784E+03  0.58819275477E+02  0.10541039682E+03  0.23942588379E+03  0.12500000000E+03 0.  0.
</event>
<event>
 5    0  0.5648525E-005  0.4449339E+03  0.7546771E-02  0.1029244E+00
         21   -1    0    0  502  501  0.00000000000E+00  0.00000000000E+00  0.12083564436E+03  0.12083564436E+03  0.00000000000E+00 0.  1.
         21   -1    0    0  501  502 -0.00000000000E+00 -0.00000000000E+00 -0.16383097515E+04  0.16383097515E+04  0.00000000000E+00 0.  1.
         25    1    1    2    0    0 -0.73364453567E+02 -0.21780613905E+03 -0.95023886484E+02  0.27834582134E+03  0.12500000000E+03 0.  0.
         25    1    1    2    0    0 -0.24251584692E+02  0.21263225325E+03 -0.97638524187E+03  0.10073498672E+04  0.12500000000E+03 0.  0.
         25    1    1    2    0    0  0.97616038259E+02  0.51738857977E+01 -0.44606497875E+03  0.47344970725E+03  0.12500000000E+03 0.  0.
</event>
<event>
 5    0  0.5648525E-005  0.3848384E+03  0.7546771E-02  0.1049160E+00
         21   -1    0    0  502  501  0.00000000000E+00  0.00000000000E+00  0.20444110947E+03  0.20444110947E+03  0.00000000000E+00 0.  1.
         21   -1    0    0  501  502 -0.00000000000E+00 -0.00000000000E+00 -0.72441686914E+03  0.72441686914E+03  0.00000000000E+00 0. -1.
         25    1    1    2    0    0 -0.19624508109E+01 -0.14290069414E+03 -0.20948859832E+03  0.28272766476E+03  0.12500000000E+03 0.  0.
         25    1    1    2    0    0 -0.16983666059E+03 -0.60465538411E+02 -0.27211702383E+03  0.34953289870E+03  0.12500000000E+03 0.  0.
         25    1    1    2    0    0  0.17179911140E+03  0.20336623255E+03 -0.38370137520E+02  0.29659741515E+03  0.12500000000E+03 0.  0.
</event>
<event>
 5    0  0.5648525E-005  0.6579080E+03  0.7546771E-02  0.9792053E-01
         21   -1    0    0  502  501  0.00000000000E+00  0.00000000000E+00  0.16802616317E+03  0.16802616317E+03  0.00000000000E+00 0.  1.
         21   -1    0    0  501  502 -0.00000000000E+00 -0.00000000000E+00 -0.25760445665E+04  0.25760445665E+04  0.00000000000E+00 0.  1.
         25    1    1    2    0    0 -0.30181990066E+03  0.56679753264E+02 -0.12977866967E+03  0.35605526252E+03  0.12500000000E+03 0.  0.
         25    1    1    2    0    0  0.39627513874E+03  0.44855991038E+02 -0.84541849039E+03  0.94308189963E+03  0.12500000000E+03 0.  0.
         25    1    1    2    0    0 -0.94455238075E+02 -0.10153574430E+03 -0.14328212433E+04  0.14449335675E+04  0.12500000000E+03 0.  0.
</event>
<event>
 5    0  0.5648525E-005  0.3857994E+03  0.7546771E-02  0.1048811E+00
         21   -1    0    0  502  501  0.00000000000E+00  0.00000000000E+00  0.52758525060E+03  0.52758525060E+03  0.00000000000E+00 0. -1.
         21   -1    0    0  501  502 -0.00000000000E+00 -0.00000000000E+00 -0.28211773957E+03  0.28211773957E+03  0.00000000000E+00 0. -1.
         25    1    1    2    0    0  0.18516734245E+03  0.66783328304E+02 -0.36393161787E+02  0.23600088956E+03  0.12500000000E+03 0.  0.
         25    1    1    2    0    0  0.10112873671E+03 -0.75336173047E+02  0.15752670678E+03  0.23736516953E+03  0.12500000000E+03 0.  0.
         25    1    1    2    0    0 -0.28629607916E+03  0.85528447437E+01  0.12433396603E+03  0.33633693107E+03  0.12500000000E+03 0.  0.
</event>
<event>
 5    0  0.5648525E-005  0.4259450E+03  0.7546771E-02  0.1035149E+00
         21   -1    0    0  502  501  0.00000000000E+00  0.00000000000E+00  0.61639162584E+02  0.61639162584E+02  0.00000000000E+00 0.  1.
         21   -1    0    0  501  502 -0.00000000000E+00 -0.00000000000E+00 -0.29434064419E+04  0.29434064419E+04  0.00000000000E+00 0.  1.
         25    1    1    2    0    0  0.15300277224E+03  0.53421399032E+02 -0.11616662342E+04  0.11795580248E+04  0.12500000000E+03 0.  0.
         25    1    1    2    0    0 -0.42127742838E+02  0.74481876347E+02 -0.78800889489E+02  0.17075384858E+03  0.12500000000E+03 0.  0.
         25    1    1    2    0    0 -0.11087502940E+03 -0.12790327538E+03 -0.16413001557E+04  0.16547337311E+04  0.12500000000E+03 0.  0.
</event>
<event>
 5    0  0.5648525E-005  0.3769446E+03  0.7546771E-02  0.1052069E+00
         21   -1    0    0  502  501  0.00000000000E+00  0.00000000000E+00  0.41346192360E+03  0.41346192360E+03  0.00000000000E+00 0.  1.
         21   -1    0    0  501  502 -0.00000000000E+00 -0.00000000000E+00 -0.34365257163E+03  0.34365257163E+03  0.00000000000E+00 0.  1.
         25    1    1    2    0    0 -0.21013205636E+03  0.22298073130E+03 -0.83564518319E+00  0.33091023850E+03  0.12500000000E+03 0.  0.
         25    1    1    2    0    0  0.13895795361E+03 -0.68941980135E+02  0.81324035767E+02  0.21517645850E+03  0.12500000000E+03 0.  0.
         25    1    1    2    0    0  0.71174102750E+02 -0.15403875116E+03 -0.10679038620E+02  0.21102779824E+03  0.12500000000E+03 0.  0.
</event>
<event>
 5    0  0.5648525E-005  0.4386723E+03  0.7546771E-02  0.1031155E+00
         21   -1    0    0  502  501  0.00000000000E+00  0.00000000000E+00  0.20226415819E+03  0.20226415819E+03  0.00000000000E+00 0. -1.
         21   -1    0    0  501  502 -0.00000000000E+00 -0.00000000000E+00 -0.95139650290E+03  0.95139650290E+03  0.00000000000E+00 0. -1.
         25    1    1    2    0    0 -0.42410847800E+02 -0.21654598314E+03 -0.45545974347E+02  0.25766311068E+03  0.12500000000E+03 0.  0.
         25    1    1    2    0    0 -0.16594026600E+03 -0.27761232535E+02 -0.28682258595E+03  0.35524506151E+03  0.12500000000E+03 0.  0.
         25    1    1    2    0    0  0.20835111380E+03  0.24430721568E+03 -0.41676378441E+03  0.54075248890E+03  0.12500000000E+03 0.  0.
</event>
<event>
 5    0  0.5648525E-005  0.3070983E+03  0.7546771E-02  0.1081745E+00
         21   -1    0    0  502  501  0.00000000000E+00  0.00000000000E+00  0.47501706806E+03  0.47501706806E+03  0.00000000000E+00 0. -1.
         21   -1    0    0  501  502 -0.00000000000E+00 -0.00000000000E+00 -0.19853890783E+03  0.19853890783E+03  0.00000000000E+00 0. -1.
         25    1    1    2    0    0 -0.17442543145E+03  0.92019360273E+02  0.10457789497E+03  0.25583848405E+03  0.12500000000E+03 0.  0.
         25    1    1    2    0    0 -0.79830760898E+00 -0.10570515239E+03  0.56991776174E+02  0.17334151000E+03  0.12500000000E+03 0.  0.
         25    1    1    2    0    0  0.17522373906E+03  0.13685792115E+02  0.11490848909E+03  0.24437598184E+03  0.12500000000E+03 0.  0.
</event>
<event>
 5    0  0.5648525E-005  0.4030723E+03  0.7546771E-02  0.1042721E+00
         21   -1    0    0  502  501  0.00000000000E+00  0.00000000000E+00  0.10204540427E+04  0.10204540427E+04  0.00000000000E+00 0.  1.
         21   -1    0    0  501  502 -0.00000000000E+00 -0.00000000000E+00 -0.15921075111E+03  0.15921075111E+03  0.00000000000E+00 0.  1.
         25    1    1    2    0    0  0.12636749868E+03  0.60689800612E+02  0.27401394730E+02  0.18980999198E+03  0.12500000000E+03 0.  0.
         25    1    1    2    0    0 -0.66688936818E+01 -0.16552016146E+03  0.73675934305E+03  0.76542846012E+03  0.12500000000E+03 0.  0.
         25    1    1    2    0    0 -0.11969860500E+03  0.10483036085E+03  0.97082553790E+02  0.22442634169E+03  0.12500000000E+03 0.  0.
</event>
<event>
 5    0  0.5648525E-005  0.2805732E+03  0.7546771E-02  0.1095376E+00
         21   -1    0    0  502  501  0.00000000000E+00  0.00000000000E+00  0.71370694382E+03  0.71370694382E+03  0.00000000000E+00 0. -1.
         21   -1    0    0  501  502 -0.00000000000E+00 -0.00000000000E+00 -0.11029925034E+03  0.11029925034E+03  0.00000000000E+00 0. -1.
         25    1    1    2    0    0  0.53053667385E+02 -0.22705655201E+01  0.10121783348E+03  0.16938092250E+03  0.12500000000E+03 0.  0.
         25    1    1    2    0    0 -0.10801627910E+03  0.89780014936E+02  0.44425134580E+03  0.48240255583E+03  0.12500000000E+03 0.  0.
         25    1    1    2    0    0  0.54962611711E+02 -0.87509449416E+02  0.57938514198E+02  0.17222271584E+03  0.12500000000E+03 0.  0.
</event>
<event>
 5    0  0.5648525E-005  0.2574204E+03  0.7546771E-02  0.1108703E+00
         21   -1    0    0  502  501  0.00000000000E+00  0.00000000000E+00  0.11722877229E+03  0.11722877229E+03  0.00000000000E+00 0. -1.
         21   -1    0    0  501  502 -0.00000000000E+00 -0.00000000000E+00 -0.56526442799E+03  0.56526442799E+03  0.00000000000E+00 0. -1.
         25    1    1    2    0    0  0.91615057072E+02  0.42588900873E+02 -0.45063114430E+02  0.16692159070E+03  0.12500000000E+03 0.  0.
         25    1    1    2    0    0 -0.94071737453E+02 -0.93323650621E+02 -0.27322363689E+03  0.32838232490E+03  0.12500000000E+03 0.  0.
         25    1    1    2    0    0  0.24566803815E+01  0.50734749748E+02 -0.12974890438E+03  0.18718928468E+03  0.12500000000E+03 0.  0.
</event>
<event>
 5    0  0.5648525E-005  0.3286188E+03  0.7546771E-02  0.1071750E+00
         21   -1    0    0  502  501  0.00000000000E+00  0.00000000000E+00  0.19513283928E+04  0.19513283928E+04  0.00000000000E+00 0. -1.
         21   -1    0    0  501  502 -0.00000000000E+00 -0.00000000000E+00 -0.55341958371E+02  0.55341958371E+02  0.00000000000E+00 0. -1.
         25    1    1    2    0    0 -0.10756547427E+03  0.10471652601E+02  0.15078063209E+03  0.22369574376E+03  0.12500000000E+03 0.  0.
         25    1    1    2    0    0  0.82960227373E+02 -0.12332145206E+03  0.98270946195E+03  0.10017152622E+04  0.12500000000E+03 0.  0.
         25    1    1    2    0    0  0.24605246897E+02  0.11284979946E+03  0.76249634038E+03  0.78125934523E+03  0.12500000000E+03 0.  0.
</event>
<event>
 5    0  0.5648525E-005  0.2842345E+03  0.7546771E-02  0.1093398E+00
         21   -1    0    0  502  501  0.00000000000E+00  0.00000000000E+00  0.25664049332E+02  0.25664049332E+02  0.00000000000E+00 0. -1.
         21   -1    0    0  501  502 -0.00000000000E+00 -0.00000000000E+00 -0.31479534756E+04  0.31479534756E+04  0.00000000000E+00 0. -1.
         25    1    1    2    0    0 -0.35870236085E+02  0.85827355339E+02 -0.47904727539E+03  0.50375023655E+03  0.12500000000E+03 0.  0.
         25    1    1    2    0    0 -0.28020792147E+02  0.65554429220E+02 -0.63810616444E+03  0.65413074005E+03  0.12500000000E+03 0.  0.
         25    1    1    2    0    0  0.63891028232E+02 -0.15138178456E+03 -0.20051359864E+04  0.20157365483E+04  0.12500000000E+03 0.  0.
</event>
<event>
 5    0  0.5648525E-005  0.6163130E+03  0.7546771E-02  0.9872128E-01
         21   -1    0    0  502  501  0.00000000000E+00  0.00000000000E+00  0.45786931272E+03  0.45786931272E+03  0.00000000000E+00 0. -1.
         21   -1    0    0  501  502 -0.00000000000E+00 -0.00000000000E+00 -0.82958542478E+03  0.82958542478E+03  0.00000000000E+00 0. -1.
         25    1    1    2    0    0 -0.45712090516E+03 -0.27748711513E+03  0.58684543182E+02  0.55229294456E+03  0.12500000000E+03 0.  0.
         25    1    1    2    0    0  0.30249768560E+03  0.15204114508E+03 -0.25860537788E+03  0.44398547393E+03  0.12500000000E+03 0.  0.
         25    1    1    2    0    0  0.15462321956E+03  0.12544597005E+03 -0.17179527736E+03  0.29117631901E+03  0.12500000000E+03 0.  0.
</event>
<event>
 5    0  0.5860390E-005  0.3720743E+03  0.7546771E-02  0.1053903E+00
         21   -1    0    0  502  501  0.00000000000E+00  0.00000000000E+00  0.82207939983E+03  0.82207939983E+03  0.00000000000E+00 0. -1.
         21   -1    0    0  501  502 -0.00000000000E+00 -0.00000000000E+00 -0.16840136485E+03  0.16840136485E+03  0.00000000000E+00 0. -1.
         25    1    1    2    0    0  0.73186763209E+02 -0.53394687056E+00  0.60632403209E+03  0.62338625209E+03  0.12500000000E+03 0.  0.
         25    1    1    2    0    0 -0.12772195480E+03 -0.88199634515E+02  0.45309806081E+02  0.20437722915E+03  0.12500000000E+03 0.  0.
         25    1    1    2    0    0  0.54535191592E+02  0.88733581385E+02  0.20441968096E+01  0.16271728343E+03  0.12500000000E+03 0.  0.
</event>
<event>
 5    0  0.5648525E-005  0.4281502E+03  0.7546771E-02  0.1034446E+00
         21   -1    0    0  502  501  0.00000000000E+00  0.00000000000E+00  0.16366597135E+04  0.16366597135E+04  0.00000000000E+00 0.  1.
         21   -1    0    0  501  502 -0.00000000000E+00 -0.00000000000E+00 -0.11200409798E+03  0.11200409798E+03  0.00000000000E+00 0.  1.
         25    1    1    2    0    0  0.36678243368E+02  0.12446240614E+03  0.15721661008E+03  0.23911973269E+03  0.12500000000E+03 0.  0.
         25    1    1    2    0    0  0.25245433663E+03 -0.78208896533E+02  0.88042916186E+03  0.92770163988E+03  0.12500000000E+03 0.  0.
         25    1    1    2    0    0 -0.28913257999E+03 -0.46253509602E+02  0.48700984357E+03  0.58184243889E+03  0.12500000000E+03 0.  0.
</event>
<event>
 5    0  0.5648525E-005  0.2632417E+03  0.7546771E-02  0.1105211E+00
         21   -1    0    0  502  501  0.00000000000E+00  0.00000000000E+00  0.13923787991E+03  0.13923787991E+03  0.00000000000E+00 0. -1.
         21   -1    0    0  501  502 -0.00000000000E+00 -0.00000000000E+00 -0.49768201977E+03  0.49768201977E+03  0.00000000000E+00 0. -1.
         25    1    1    2    0    0 -0.40921352809E+02  0.14997588837E+03 -0.17912145336E+03  0.26809852529E+03  0.12500000000E+03 0.  0.
         25    1    1    2    0    0 -0.33131661741E+02 -0.44089866172E+02 -0.11264589374E+03  0.17707546607E+03  0.12500000000E+03 0.  0.
         25    1    1    2    0    0  0.74053014550E+02 -0.10588602220E+03 -0.66676792757E+02  0.19174590831E+03  0.12500000000E+03 0.  0.
</event>
<event>
 5    0  0.5648525E-005  0.4573043E+03  0.7546771E-02  0.1025566E+00
         21   -1    0    0  502  501  0.00000000000E+00  0.00000000000E+00  0.18448507332E+03  0.18448507332E+03  0.00000000000E+00 0.  1.
         21   -1    0    0  501  502 -0.00000000000E+00 -0.00000000000E+00 -0.11335723569E+04  0.11335723569E+04  0.00000000000E+00 0.  1.
         25    1    1    2    0    0  0.25755152451E+03 -0.11746642134E+02 -0.41293066071E+02  0.28948383148E+03  0.12500000000E+03 0.  0.
         25    1    1    2    0    0  0.45481891198E+02  0.60422750567E+02 -0.35745449933E+03  0.38615829695E+03  0.12500000000E+03 0.  0.
         25    1    1    2    0    0 -0.30303341571E+03 -0.48676108433E+02 -0.55033971822E+03  0.64241530183E+03  0.12500000000E+03 0.  0.
</event>
<event>
 5    0  0.5648525E-005  0.3329211E+03  0.7546771E-02  0.1069852E+00
         21   -1    0    0  502  501  0.00000000000E+00  0.00000000000E+00  0.78659605051E+03  0.78659605051E+03  0.00000000000E+00 0. -1.
         21   -1    0    0  501  502 -0.00000000000E+00 -0.00000000000E+00 -0.14090645212E+03  0.14090645212E+03  0.00000000000E+00 0. -1.
         25    1    1    2    0    0 -0.51142568989E+02 -0.30263543301E+02  0.22371797266E+02  0.14020321583E+03  0.12500000000E+03 0.  0.
         25    1    1    2    0    0 -0.16227371659E+03  0.21610130540E+02  0.15558820469E+03  0.25813261374E+03  0.12500000000E+03 0.  0.
         25    1    1    2    0    0  0.21341628558E+03  0.86534127612E+01  0.46772959643E+03  0.52916667306E+03  0.12500000000E+03 0.  0.
</event>
<event>
 5    0  0.5648525E-005  0.3625299E+03  0.7546771E-02  0.1057587E+00
         21   -1    0    0  502  501  0.00000000000E+00  0.00000000000E+00  0.17914783726E+03  0.17914783726E+03  0.00000000000E+00 0. -1.
         21   -1    0    0  501  502 -0.00000000000E+00 -0.00000000000E+00 -0.73362848431E+03  0.73362848431E+03  0.00000000000E+00 0. -1.
         25    1    1    2    0    0  0.37972629734E+02  0.25658471822E+02 -0.10227540542E+03  0.16788548579E+03  0.12500000000E+03 0.  0.
         25    1    1    2    0    0 -0.10585535874E+03 -0.23747751000E+03 -0.38490316911E+03  0.48101598136E+03  0.12500000000E+03 0.  0.
         25    1    1    2    0    0  0.67882729009E+02  0.21181903818E+03 -0.67302072520E+02  0.26387485442E+03  0.12500000000E+03 0.  0.
</event>
<event>
 5    0  0.5648525E-005  0.4136976E+03  0.7546771E-02  0.1039137E+00
         21   -1    0    0  502  501  0.00000000000E+00  0.00000000000E+00  0.88944878712E+03  0.88944878712E+03  0.00000000000E+00 0.  1.
         21   -1    0    0  501  502 -0.00000000000E+00 -0.00000000000E+00 -0.19241769798E+03  0.19241769798E+03  0.00000000000E+00 0.  1.
         25    1    1    2    0    0 -0.29561717425E+03 -0.17858076725E+02  0.13903631440E+03  0.35023495162E+03  0.12500000000E+03 0.  0.
         25    1    1    2    0    0  0.10851959354E+03 -0.79479777144E+02  0.92697190412E+02  0.20569712265E+03  0.12500000000E+03 0.  0.
         25    1    1    2    0    0  0.18709758071E+03  0.97337853869E+02  0.46529758433E+03  0.52593441083E+03  0.12500000000E+03 0.  0.
</event>
<event>
 5    0  0.5648525E-005  0.3178220E+03  0.7546771E-02  0.1076656E+00
         21   -1    0    0  502  501  0.00000000000E+00  0.00000000000E+00  0.15450040486E+04  0.15450040486E+04  0.00000000000E+00 0. -1.
         21   -1    0    0  501  502 -0.00000000000E+00 -0.00000000000E+00 -0.65378991187E+02  0.65378991187E+02  0.00000000000E+00 0. -1.
         25    1    1    2    0    0 -0.77868125055E+02  0.20123229473E+03  0.65953641881E+03  0.70510365839E+03  0.12500000000E+03 0.  0.
         25    1    1    2    0    0  0.54177397211E+02 -0.20644412739E+03  0.44437102446E+03  0.50857150478E+03  0.12500000000E+03 0.  0.
         25    1    1    2    0    0  0.23690727844E+02  0.52118326657E+01  0.37571761416E+03  0.39670787662E+03  0.12500000000E+03 0.  0.
</event>
<event>
 5    0  0.5648525E-005  0.3138223E+03  0.7546771E-02  0.1078528E+00
         21   -1    0    0  502  501  0.00000000000E+00  0.00000000000E+00  0.12381682280E+03  0.12381682280E+03  0.00000000000E+00 0. -1.
         21   -1    0    0  501  502 -0.00000000000E+00 -0.00000000000E+00 -0.79540413831E+03  0.79540413831E+03  0.00000000000E+00 0. -1.
         25    1    1    2    0    0  0.14816596481E+03 -0.56647986070E+02 -0.11110722654E+03  0.23050371634E+03  0.12500000000E+03 0.  0.
         25    1    1    2    0    0 -0.15756082508E+03 -0.21155375195E+02 -0.47953798061E+03  0.52043696866E+03  0.12500000000E+03 0.  0.
         25    1    1    2    0    0  0.93948602656E+01  0.77803361264E+02 -0.80942108366E+02  0.16828027612E+03  0.12500000000E+03 0.  0.
</event>
<event>
 5    0  0.5648525E-005  0.2465326E+03  0.7546771E-02  0.1115516E+00
         21   -1    0    0  502  501  0.00000000000E+00  0.00000000000E+00  0.12988908032E+04  0.12988908032E+04  0.00000000000E+00 0.  1.
         21   -1    0    0  501  502 -0.00000000000E+00 -0.00000000000E+00 -0.46792490468E+02  0.46792490468E+02  0.00000000000E+00 0.  1.
         25    1    1    2    0    0  0.38600721070E+02 -0.67064152249E+02  0.27696103210E+03  0.31356024857E+03  0.12500000000E+03 0.  0.
         25    1    1    2    0    0 -0.58554444872E+02  0.17925672019E+02  0.19112843279E+03  0.23644244660E+03  0.12500000000E+03 0.  0.
         25    1    1    2    0    0  0.19953723802E+02  0.49138480230E+02  0.78400884787E+03  0.79568059853E+03  0.12500000000E+03 0.  0.
</event>
<event>
 5    0  0.5648525E-005  0.2761920E+03  0.7546771E-02  0.1097787E+00
         21   -1    0    0  502  501  0.00000000000E+00  0.00000000000E+00  0.92473579544E+02  0.92473579544E+02  0.00000000000E+00 0. -1.
         21   -1    0    0  501  502 -0.00000000000E+00 -0.00000000000E+00 -0.82490625454E+03  0.82490625454E+03  0.00000000000E+00 0. -1.
         25    1    1    2    0    0 -0.73375597192E+02  0.48620863625E+02 -0.22386976565E+03  0.27109156869E+03  0.12500000000E+03 0.  0.
         25    1    1    2    0    0 -0.10684998151E+03 -0.27334260606E+02 -0.29823238861E+03  0.34166012054E+03  0.12500000000E+03 0.  0.
         25    1    1    2    0    0  0.18022557870E+03 -0.21286603019E+02 -0.21033052074E+03  0.30462814486E+03  0.12500000000E+03 0.  0.
</event>
<event>
 5    0  0.5648525E-005  0.2597507E+03  0.7546771E-02  0.1107293E+00
         21   -1    0    0  502  501  0.00000000000E+00  0.00000000000E+00  0.39400885481E+02  0.39400885481E+02  0.00000000000E+00 0.  1.
         21   -1    0    0  501  502 -0.00000000000E+00 -0.00000000000E+00 -0.17124087408E+04  0.17124087408E+04  0.00000000000E+00 0.  1.
         25    1    1    2    0    0  0.26558695157E+02  0.45658923220E+01 -0.11957841183E+04  0.12026017084E+04  0.12500000000E+03 0.  0.
         25    1    1    2    0    0 -0.25791088381E+00  0.42120258128E+02 -0.18864053448E+03  0.23018347880E+03  0.12500000000E+03 0.  0.
         25    1    1    2    0    0 -0.26300784273E+02 -0.46686150450E+02 -0.28858320261E+03  0.31902443907E+03  0.12500000000E+03 0.  0.
</event>
<event>
 5    0  0.5648525E-005  0.3416861E+03  0.7546771E-02  0.1066080E+00
         21   -1    0    0  502  501  0.00000000000E+00  0.00000000000E+00  0.75301684449E+03  0.75301684449E+03  0.00000000000E+00 0.  1.
         21   -1    0    0  501  502 -0.00000000000E+00 -0.00000000000E+00 -0.15504222197E+03  0.15504222197E+03  0.00000000000E+00 0.  1.
         25    1    1    2    0    0  0.74606830190E+02 -0.23834133362E+03  0.27620096827E+03  0.39279096896E+03  0.12500000000E+03 0.  0.
         25    1    1    2    0    0  0.13137159354E+02  0.45066698190E+02  0.20001363768E+03  0.24048710464E+03  0.12500000000E+03 0.  0.
         25    1    1    2    0    0 -0.87743989544E+02  0.19327463543E+03  0.12176001657E+03  0.27478099285E+03  0.12500000000E+03 0.  0.
</event>
<event>
 5    0  0.5648525E-005  0.2192247E+03  0.7546771E-02  0.1134462E+00
         21   -1    0    0  502  501  0.00000000000E+00  0.00000000000E+00  0.22003736986E+03  0.22003736986E+03  0.00000000000E+00 0. -1.
         21   -1    0    0  501  502 -0.00000000000E+00 -0.00000000000E+00 -0.21841503079E+03  0.21841503079E+03  0.00000000000E+00 0. -1.
         25    1    1    2    0    0 -0.56160813765E+02 -0.69860250509E+02 -0.39790717350E+02  0.15887980611E+03  0.12500000000E+03 0.  0.
         25    1    1    2    0    0  0.21515473069E+02  0.46622214418E+02  0.57416108866E+02  0.14682695943E+03  0.12500000000E+03 0.  0.
         25    1    1    2    0    0  0.34645340696E+02  0.23238036090E+02 -0.16003052446E+02  0.13274563511E+03  0.12500000000E+03 0.  0.
</event>
<event>
 5    0  0.5648525E-005  0.3488088E+03  0.7546771E-02  0.1063105E+00
         21   -1    0    0  502  501  0.00000000000E+00  0.00000000000E+00  0.81818080105E+03  0.81818080105E+03  0.00000000000E+00 0.  1.
         21   -1    0    0  501  502 -0.00000000000E+00 -0.00000000000E+00 -0.14870501333E+03  0.14870501333E+03  0.00000000000E+00 0.  1.
         25    1    1    2    0    0  0.26416971453E+03 -0.83495834295E+02  0.35269398869E+03  0.46559128222E+03  0.12500000000E+03 0.  0.
         25    1    1    2    0    0 -0.15939506539E+03  0.90811068145E+02  0.21416923075E+03  0.30845890548E+03  0.12500000000E+03 0.  0.
         25    1    1    2    0    0 -0.10477464914E+03 -0.73152338501E+01  0.10261256827E+03  0.19283562668E+03  0.12500000000E+03 0.  0.
</event>
<event>
 5    0  0.5648525E-005  0.3919385E+03  0.7546771E-02  0.1046607E+00
         21   -1    0    0  502  501  0.00000000000E+00  0.00000000000E+00  0.18723528547E+03  0.18723528547E+03  0.00000000000E+00 0. -1.
         21   -1    0    0  501  502 -0.00000000000E+00 -0.00000000000E+00 -0.82044256458E+03  0.82044256458E+03  0.00000000000E+00 0. -1.
         25    1    1    2    0    0  0.26732750616E+03  0.18259739072E+03 -0.36640450045E+03  0.50466133258E+03  0.12500000000E+03 0.  0.
         25    1    1    2    0    0 -0.11015055664E+03 -0.14195152795E+03 -0.10974189784E+03  0.24485029213E+03  0.12500000000E+03 0.  0.
         25    1    1    2    0    0 -0.15717694952E+03 -0.40645862774E+02 -0.15706088082E+03  0.25816622533E+03  0.12500000000E+03 0.  0.
</event>
<event>
 5    0  0.5648525E-005  0.2575921E+03  0.7546771E-02  0.1108599E+00
         21   -1    0    0  502  501  0.00000000000E+00  0.00000000000E+00  0.14487668997E+03  0.14487668997E+03  0.00000000000E+00 0. -1.
         21   -1    0    0  501  502 -0.00000000000E+00 -0.00000000000E+00 -0.45800114436E+03  0.45800114436E+03  0.00000000000E+00 0. -1.
         25    1    1    2    0    0 -0.83200665900E+02  0.28819612303E+02 -0.86348999016E+02  0.17559632824E+03  0.12500000000E+03 0.  0.
         25    1    1    2    0    0 -0.11501282218E+02  0.29646905928E+02 -0.22564847729E+03  0.25991047272E+03  0.12500000000E+03 0.  0.
         25    1    1    2    0    0  0.94701948119E+02 -0.58466518231E+02 -0.11269780841E+01  0.16737103337E+03  0.12500000000E+03 0.  0.
</event>
<event>
 5    0  0.5648525E-005  0.3475991E+03  0.7546771E-02  0.1063605E+00
         21   -1    0    0  502  501  0.00000000000E+00  0.00000000000E+00  0.85617289256E+03  0.85617289256E+03  0.00000000000E+00 0. -1.
         21   -1    0    0  501  502 -0.00000000000E+00 -0.00000000000E+00 -0.14112238261E+03  0.14112238261E+03  0.00000000000E+00 0. -1.
         25    1    1    2    0    0 -0.10741648819E+03 -0.86724485746E+02  0.79980403588E+02  0.20268523213E+03  0.12500000000E+03 0.  0.
         25    1    1    2    0    0  0.12608799208E+02  0.22969294971E+03  0.30232053291E+03  0.39992566507E+03  0.12500000000E+03 0.  0.
         25    1    1    2    0    0  0.94807688987E+02 -0.14296846396E+03  0.33274957346E+03  0.39468437797E+03  0.12500000000E+03 0.  0.
</event>
<event>
 5    0  0.5648525E-005  0.3705687E+03  0.7546771E-02  0.1054476E+00
         21   -1    0    0  502  501  0.00000000000E+00  0.00000000000E+00  0.36437492481E+03  0.36437492481E+03  0.00000000000E+00 0.  1.
         21   -1    0    0  501  502 -0.00000000000E+00 -0.00000000000E+00 -0.37686781886E+03  0.37686781886E+03  0.00000000000E+00 0.  1.
         25    1    1    2    0    0  0.36977928879E+02  0.12497516416E+03 -0.70408411132E+02  0.19382596121E+03  0.12500000000E+03 0.  0.
         25    1    1    2    0    0 -0.31114300308E+02  0.91903707425E+00 -0.19784954507E+03  0.23608978546E+03  0.12500000000E+03 0.  0.
         25    1    1    2    0    0 -0.58636285708E+01 -0.12589420123E+03  0.25576506215E+03  0.31132699700E+03  0.12500000000E+03 0.  0.
</event>
<event>
 5    0  0.5648525E-005  0.3657042E+03  0.7546771E-02  0.1056348E+00
         21   -1    0    0  502  501  0.00000000000E+00  0.00000000000E+00  0.35955916644E+03  0.35955916644E+03  0.00000000000E+00 0. -1.
         21   -1    0    0  501  502 -0.00000000000E+00 -0.00000000000E+00 -0.37195433683E+03  0.37195433683E+03  0.00000000000E+00 0. -1.
         25    1    1    2    0    0  0.20513313322E+03 -0.99992608686E+02 -0.52591424026E+02  0.26545994428E+03  0.12500000000E+03 0.  0.
         25    1    1    2    0    0 -0.94269736719E+02 -0.77394686733E+02 -0.82580546070E+02  0.19318713048E+03  0.12500000000E+03 0.  0.
         25    1    1    2    0    0 -0.11086339650E+03  0.17738729542E+03  0.12277679970E+03  0.27286642850E+03  0.12500000000E+03 0.  0.
</event>
<event>
 5    0  0.5648525E-005  0.4043728E+03  0.7546771E-02  0.1042276E+00
         21   -1    0    0  502  501  0.00000000000E+00  0.00000000000E+00  0.30570283379E+03  0.30570283379E+03  0.00000000000E+00 0.  1.
         21   -1    0    0  501  502 -0.00000000000E+00 -0.00000000000E+00 -0.53488986351E+03  0.53488986351E+03  0.00000000000E+00 0.  1.
         25    1    1    2    0    0  0.15749319833E+03 -0.31787013274E+02 -0.23413611093E+03  0.31025673268E+03  0.12500000000E+03 0.  0.
         25    1    1    2    0    0 -0.19321685654E+03  0.20570449671E+03 -0.31108645093E+02  0.31022546868E+03  0.12500000000E+03 0.  0.
         25    1    1    2    0    0  0.35723658206E+02 -0.17391748343E+03  0.36057726304E+02  0.22011049595E+03  0.12500000000E+03 0.  0.
</event>
<event>
 5    0  0.5648525E-005  0.2276490E+03  0.7546771E-02  0.1128306E+00
         21   -1    0    0  502  501  0.00000000000E+00  0.00000000000E+00  0.35710431344E+02  0.35710431344E+02  0.00000000000E+00 0. -1.
         21   -1    0    0  501  502 -0.00000000000E+00 -0.00000000000E+00 -0.14512305594E+04  0.14512305594E+04  0.00000000000E+00 0. -1.
         25    1    1    2    0    0  0.82111470449E+02 -0.23747502389E+01 -0.78558858133E+03  0.79970141436E+03  0.12500000000E+03 0.  0.
         25    1    1    2    0    0 -0.56725218585E+02  0.81872874713E+01 -0.23610164931E+03  0.27322842258E+03  0.12500000000E+03 0.  0.
         25    1    1    2    0    0 -0.25386251864E+02 -0.58125372324E+01 -0.39382989744E+03  0.41401115383E+03  0.12500000000E+03 0.  0.
</event>
<event>
 5    0  0.5648525E-005  0.4177439E+03  0.7546771E-02  0.1037803E+00
         21   -1    0    0  502  501  0.00000000000E+00  0.00000000000E+00  0.12542011399E+04  0.12542011399E+04  0.00000000000E+00 0.  1.
         21   -1    0    0  501  502 -0.00000000000E+00 -0.00000000000E+00 -0.13914032016E+03  0.13914032016E+03  0.00000000000E+00 0.  1.
         25    1    1    2    0    0  0.26790184095E+03 -0.59220770807E+02  0.35928893080E+03  0.46903308186E+03  0.12500000000E+03 0.  0.
         25    1    1    2    0    0 -0.29940923857E+03  0.16410821595E+03  0.47728346070E+03  0.60000158378E+03  0.12500000000E+03 0.  0.
         25    1    1    2    0    0  0.31507397627E+02 -0.10488744514E+03  0.27848842826E+03  0.32430679445E+03  0.12500000000E+03 0.  0.
</event>
<event>
 5    0  0.5648525E-005  0.5360022E+03  0.7546771E-02  0.1004787E+00
         21   -1    0    0  502  501  0.00000000000E+00  0.00000000000E+00  0.19875609572E+04  0.19875609572E+04  0.00000000000E+00 0.  1.
         21   -1    0    0  501  502 -0.00000000000E+00 -0.00000000000E+00 -0.14454818335E+03  0.14454818335E+03  0.00000000000E+00 0.  1.
         25    1    1    2    0    0 -0.30095406849E+03  0.11197777105E+03  0.61162356975E+03  0.70201193980E+03  0.12500000000E+03 0.  0.
         25    1    1    2    0    0 -0.97474157950E+02  0.87518014126E+02  0.71101337408E+03  0.73370677548E+03  0.12500000000E+03 0.  0.
         25    1    1    2    0    0  0.39842822644E+03 -0.19949578518E+03  0.52037582997E+03  0.69639042522E+03  0.12500000000E+03 0.  0.
</event>
<event>
 5    0  0.5648525E-005  0.3029172E+03  0.7546771E-02  0.1083791E+00
         21   -1    0    0  502  501  0.00000000000E+00  0.00000000000E+00  0.17122593724E+03  0.17122593724E+03  0.00000000000E+00 0.  1.
         21   -1    0    0  501  502 -0.00000000000E+00 -0.00000000000E+00 -0.53589321057E+03  0.53589321057E+03  0.00000000000E+00 0.  1.
         25    1    1    2    0    0 -0.81928851875E+02  0.93136139308E+01 -0.21375483640E+03  0.26098890830E+03  0.12500000000E+03 0.  0.
         25    1    1    2    0    0 -0.10934337657E+03 -0.46826270127E+02 -0.12512858727E+03  0.21314510768E+03  0.12500000000E+03 0.  0.
         25    1    1    2    0    0  0.19127222845E+03  0.37512656196E+02 -0.25783849660E+02  0.23298513183E+03  0.12500000000E+03 0.  0.
</event>
<event>
 5    0  0.5648525E-005  0.4789775E+03  0.7546771E-02  0.1019417E+00
         21   -1    0    0  502  501  0.00000000000E+00  0.00000000000E+00  0.55548114056E+03  0.55548114056E+03  0.00000000000E+00 0.  1.
         21   -1    0    0  501  502 -0.00000000000E+00 -0.00000000000E+00 -0.41301033388E+03  0.41301033388E+03  0.00000000000E+00 0.  1.
         25    1    1    2    0    0 -0.33942344715E+02 -0.63867532205E+01 -0.11499821287E+03  0.17332761565E+03  0.12500000000E+03 0.  0.
         25    1    1    2    0    0  0.12795186019E+03  0.21665145910E+02  0.48570953109E+03  0.51805386368E+03  0.12500000000E+03 0.  0.
         25    1    1    2    0    0 -0.94009515479E+02 -0.15278392690E+02 -0.22824051154E+03  0.27710999512E+03  0.12500000000E+03 0.  0.
</event>
<event>
 5    0  0.5648525E-005  0.2101019E+03  0.7546771E-02  0.1141485E+00
         21   -1    0    0  502  501  0.00000000000E+00  0.00000000000E+00  0.24379218465E+02  0.24379218465E+02  0.00000000000E+00 0. -1.
         21   -1    0    0  501  502 -0.00000000000E+00 -0.00000000000E+00 -0.18106735744E+04  0.18106735744E+04  0.00000000000E+00 0. -1.
         25    1    1    2    0    0 -0.34941871151E+02 -0.52892137518E+01 -0.35342044274E+03  0.37653674387E+03  0.12500000000E+03 0.  0.
         25    1    1    2    0    0  0.13001549322E+02 -0.22185291321E+02 -0.47357270024E+03  0.49046644111E+03  0.12500000000E+03 0.  0.
         25    1    1    2    0    0  0.21940321830E+02  0.27474505073E+02 -0.95930121298E+03  0.96804960791E+03  0.12500000000E+03 0.  0.
</event>
<event>
 5    0  0.5648525E-005  0.2729159E+03  0.7546771E-02  0.1099622E+00
         21   -1    0    0  502  501  0.00000000000E+00  0.00000000000E+00  0.45164482598E+03  0.45164482598E+03  0.00000000000E+00 0. -1.
         21   -1    0    0  501  502 -0.00000000000E+00 -0.00000000000E+00 -0.16491518112E+03  0.16491518112E+03  0.00000000000E+00 0. -1.
         25    1    1    2    0    0 -0.41346687048E+02 -0.84920839506E+02  0.94312910423E+02  0.18286886718E+03  0.12500000000E+03 0.  0.
         25    1    1    2    0    0 -0.10191678798E+03  0.10711031603E+03  0.67140722289E+02  0.20492078484E+03  0.12500000000E+03 0.  0.
         25    1    1    2    0    0  0.14326347502E+03 -0.22189476520E+02  0.12527601214E+03  0.22877035508E+03  0.12500000000E+03 0.  0.
</event>
<event>
 5    0  0.5648525E-005  0.3073965E+03  0.7546771E-02  0.1081601E+00
         21   -1    0    0  502  501  0.00000000000E+00  0.00000000000E+00  0.53533117980E+03  0.53533117980E+03  0.00000000000E+00 0. -1.
         21   -1    0    0  501  502 -0.00000000000E+00 -0.00000000000E+00 -0.17651237544E+03  0.17651237544E+03  0.00000000000E+00 0. -1.
         25    1    1    2    0    0 -0.13477308671E+03 -0.65327682168E+02  0.13144599247E+03  0.23523294815E+03  0.12500000000E+03 0.  0.
         25    1    1    2    0    0  0.10462895798E+03 -0.10571611729E+03  0.16169989053E+03  0.25277454559E+03  0.12500000000E+03 0.  0.
         25    1    1    2    0    0  0.30144128726E+02  0.17104379946E+03  0.65672921368E+02  0.22383606150E+03  0.12500000000E+03 0.  0.
</event>
<event>
 5    0  0.5648525E-005  0.2246200E+03  0.7546771E-02  0.1130485E+00
         21   -1    0    0  502  501  0.00000000000E+00  0.00000000000E+00  0.18224785759E+04  0.18224785759E+04  0.00000000000E+00 0.  1.
         21   -1    0    0  501  502 -0.00000000000E+00 -0.00000000000E+00 -0.27684357284E+02  0.27684357284E+02  0.00000000000E+00 0.  1.
         25    1    1    2    0    0 -0.32911475927E+02 -0.15219968306E+02  0.31492880359E+03  0.34076379504E+03  0.12500000000E+03 0.  0.
         25    1    1    2    0    0  0.31982099168E+02 -0.37679618615E+01  0.36045012256E+03  0.38286595965E+03  0.12500000000E+03 0.  0.
         25    1    1    2    0    0  0.92937675857E+00  0.18987930168E+02  0.11194152925E+04  0.11265331785E+04  0.12500000000E+03 0.  0.
</event>
<event>
 5    0  0.5648525E-005  0.2948246E+03  0.7546771E-02  0.1087857E+00
         21   -1    0    0  502  501  0.00000000000E+00  0.00000000000E+00  0.10315628262E+03  0.10315628262E+03  0.00000000000E+00 0.  1.
         21   -1    0    0  501  502 -0.00000000000E+00 -0.00000000000E+00 -0.84261995335E+03  0.84261995335E+03  0.00000000000E+00 0.  1.
         25    1    1    2    0    0 -0.55188898375E+02 -0.38421308363E+02 -0.17054257760E+03  0.22188236121E+03  0.12500000000E+03 0.  0.
         25    1    1    2    0    0  0.80603328768E+02  0.19503413175E+03 -0.32606970248E+03  0.40802164162E+03  0.12500000000E+03 0.  0.
         25    1    1    2    0    0 -0.25414430394E+02 -0.15661282339E+03 -0.24285139065E+03  0.31587223313E+03  0.12500000000E+03 0.  0.
</event>
<event>
 5    0  0.5648525E-005  0.3197491E+03  0.7546771E-02  0.1075765E+00
         21   -1    0    0  502  501  0.00000000000E+00  0.00000000000E+00  0.66087761032E+03  0.66087761032E+03  0.00000000000E+00 0.  1.
         21   -1    0    0  501  502 -0.00000000000E+00 -0.00000000000E+00 -0.15470263074E+03  0.15470263074E+03  0.00000000000E+00 0.  1.
         25    1    1    2    0    0 -0.88464112057E+02 -0.87763292291E+02 -0.13996007436E+02  0.17705700444E+03  0.12500000000E+03 0.  0.
         25    1    1    2    0    0  0.18635054789E+02 -0.44612441633E+02  0.77529469465E+02  0.15483330989E+03  0.12500000000E+03 0.  0.
         25    1    1    2    0    0  0.69829057269E+02  0.13237573392E+03  0.44264151754E+03  0.48368992674E+03  0.12500000000E+03 0.  0.
</event>
<event>
 5    0  0.5648525E-005  0.2984712E+03  0.7546771E-02  0.1086007E+00
         21   -1    0    0  502  501  0.00000000000E+00  0.00000000000E+00  0.48087338779E+03  0.48087338779E+03  0.00000000000E+00 0. -1.
         21   -1    0    0  501  502 -0.00000000000E+00 -0.00000000000E+00 -0.18525681429E+03  0.18525681429E+03  0.00000000000E+00 0. -1.
         25    1    1    2    0    0  0.31706798009E+02  0.15582160622E+03  0.22696361549E+03  0.30401180366E+03  0.12500000000E+03 0.  0.
         25    1    1    2    0    0 -0.22496176303E+02 -0.81049269172E+02 -0.65122420071E+02  0.16413711213E+03  0.12500000000E+03 0.  0.
         25    1    1    2    0    0 -0.92106217058E+01 -0.74772337052E+02  0.13377537808E+03  0.19798128629E+03  0.12500000000E+03 0.  0.
</event>
<event>
 5    0  0.5648525E-005  0.4199592E+03  0.7546771E-02  0.1037080E+00
         21   -1    0    0  502  501  0.00000000000E+00  0.00000000000E+00  0.58335923522E+03  0.58335923522E+03  0.00000000000E+00 0.  1.
         21   -1    0    0  501  502 -0.00000000000E+00 -0.00000000000E+00 -0.30232779908E+03  0.30232779908E+03  0.00000000000E+00 0.  1.
         25    1    1    2    0    0 -0.69564247378E+02 -0.35301578897E+03  0.13058665476E+03  0.40266264562E+03  0.12500000000E+03 0.  0.
         25    1    1    2    0    0 -0.25159203044E+02  0.21548688703E+03  0.84213460118E+02  0.26416754313E+03  0.12500000000E+03 0.  0.
         25    1    1    2    0    0  0.94723450422E+02  0.13752890194E+03  0.66231321266E+02  0.21885684555E+03  0.12500000000E+03 0.  0.
</event>
<event>
 5    0  0.5668989E-005  0.3693211E+03  0.7546771E-02  0.1054953E+00
         21   -1    0    0  502  501  0.00000000000E+00  0.00000000000E+00  0.66837220975E+03  0.66837220975E+03  0.00000000000E+00 0.  1.
         21   -1    0    0  501  502 -0.00000000000E+00 -0.00000000000E+00 -0.20407503386E+03  0.20407503386E+03  0.00000000000E+00 0.  1.
         25    1    1    2    0    0 -0.10728093404E+03 -0.11424351022E+03  0.22377686947E+03  0.30043612590E+03  0.12500000000E+03 0.  0.
         25    1    1    2    0    0 -0.53876275374E+02  0.16324335122E+03 -0.45459272765E+02  0.21735360647E+03  0.12500000000E+03 0.  0.
         25    1    1    2    0    0  0.16115720941E+03 -0.48999840995E+02  0.28597957918E+03  0.35465751123E+03  0.12500000000E+03 0.  0.
</event>
<event>
 5    0  0.5648525E-005  0.3028511E+03  0.7546771E-02  0.1083824E+00
         21   -1    0    0  502  501  0.00000000000E+00  0.00000000000E+00  0.96035827329E+03  0.96035827329E+03  0.00000000000E+00 0. -1.
         21   -1    0    0  501  502 -0.00000000000E+00 -0.00000000000E+00 -0.95504743361E+02  0.95504743361E+02  0.00000000000E+00 0. -1.
         25    1    1    2    0    0 -0.21521453382E+02  0.88518321519E+02  0.24339876824E+03  0.28838624548E+03  0.12500000000E+03 0.  0.
         25    1    1    2    0    0  0.12782310126E+03 -0.29804651527E+02  0.55004296288E+03  0.57913670535E+03  0.12500000000E+03 0.  0.
         25    1    1    2    0    0 -0.10630164787E+03 -0.58713669991E+02  0.71411798801E+02  0.18834006582E+03  0.12500000000E+03 0.  0.
</event>
<event>
 5    0  0.5648525E-005  0.3191985E+03  0.7546771E-02  0.1076019E+00
         21   -1    0    0  502  501  0.00000000000E+00  0.00000000000E+00  0.13553546103E+03  0.13553546103E+03  0.00000000000E+00 0. -1.
         21   -1    0    0  501  502 -0.00000000000E+00 -0.00000000000E+00 -0.75174204213E+03  0.75174204213E+03  0.00000000000E+00 0. -1.
         25    1    1    2    0    0 -0.98969549548E+02  0.13480574447E+02 -0.44437993268E+03  0.47230839733E+03  0.12500000000E+03 0.  0.
         25    1    1    2    0    0 -0.50024355689E+01 -0.12601036206E+03 -0.57901714585E+02  0.18676521159E+03  0.12500000000E+03 0.  0.
         25    1    1    2    0    0  0.10397198512E+03  0.11252978762E+03 -0.11392493384E+03  0.22820389423E+03  0.12500000000E+03 0.  0.
</event>
<event>
 5    0  0.5648525E-005  0.2415363E+03  0.7546771E-02  0.1118774E+00
         21   -1    0    0  502  501  0.00000000000E+00  0.00000000000E+00  0.23955586091E+02  0.23955586091E+02  0.00000000000E+00 0.  1.
         21   -1    0    0  501  502 -0.00000000000E+00 -0.00000000000E+00 -0.24353314958E+04  0.24353314958E+04  0.00000000000E+00 0.  1.
         25    1    1    2    0    0  0.34835548550E+02  0.21901579085E+02 -0.38351066362E+03  0.40546100148E+03  0.12500000000E+03 0.  0.
         25    1    1    2    0    0 -0.29918865176E+02  0.81252831917E+02 -0.71529760438E+03  0.73128163113E+03  0.12500000000E+03 0.  0.
         25    1    1    2    0    0 -0.49166833740E+01 -0.10315441100E+03 -0.13125676417E+04  0.13225444493E+04  0.12500000000E+03 0.  0.
</event>
<event>
 5    0  0.5648525E-005  0.5606774E+03  0.7546771E-02  0.9990523E-01
         21   -1    0    0  502  501  0.00000000000E+00  0.00000000000E+00  0.24540325422E+03  0.24540325422E+03  0.00000000000E+00 0. -1.
         21   -1    0    0  501  502 -0.00000000000E+00 -0.00000000000E+00 -0.12809900996E+04  0.12809900996E+04  0.00000000000E+00 0. -1.
         25    1    1    2    0    0  0.57053398301E+02  0.33849734383E+03 -0.34805642793E+03  0.50458281685E+03  0.12500000000E+03 0.  0.
         25    1    1    2    0    0 -0.58033697069E+01 -0.36091159143E+03 -0.77169985442E+03  0.86106708289E+03  0.12500000000E+03 0.  0.
         25    1    1    2    0    0 -0.51250028594E+02  0.22414247597E+02  0.84169436929E+02  0.16074345411E+03  0.12500000000E+03 0.  0.
</event>
<event>
 5    0  0.5648525E-005  0.3168907E+03  0.7546771E-02  0.1077089E+00
         21   -1    0    0  502  501  0.00000000000E+00  0.00000000000E+00  0.10300945385E+03  0.10300945385E+03  0.00000000000E+00 0. -1.
         21   -1    0    0  501  502 -0.00000000000E+00 -0.00000000000E+00 -0.97485950061E+03  0.97485950061E+03  0.00000000000E+00 0. -1.
         25    1    1    2    0    0 -0.10510874156E+03  0.61706737962E+02 -0.37738025526E+03  0.41580816024E+03  0.12500000000E+03 0.  0.
         25    1    1    2    0    0 -0.28632728827E+02 -0.66955103138E+02 -0.45127890406E+03  0.47389921739E+03  0.12500000000E+03 0.  0.
         25    1    1    2    0    0  0.13374147039E+03  0.52483651755E+01 -0.43190887443E+02  0.18816157683E+03  0.12500000000E+03 0.  0.
</event>
<event>
 5    0  0.5648525E-005  0.3116958E+03  0.7546771E-02  0.1079536E+00
         21   -1    0    0  502  501  0.00000000000E+00  0.00000000000E+00  0.17857752652E+04  0.17857752652E+04  0.00000000000E+00 0.  1.
         21   -1    0    0  501  502 -0.00000000000E+00 -0.00000000000E+00 -0.54404548779E+02  0.54404548779E+02  0.00000000000E+00 0.  1.
         25    1    1    2    0    0  0.75691826767E+02 -0.49030387444E+02  0.60630514542E+03  0.62559104924E+03  0.12500000000E+03 0.  0.
         25    1    1    2    0    0 -0.16368575853E+03 -0.39104860103E+02  0.92216891451E+03  0.94569695174E+03  0.12500000000E+03 0.  0.
         25    1    1    2    0    0  0.87993931765E+02  0.88135247546E+02  0.20289665652E+03  0.26889181303E+03  0.12500000000E+03 0.  0.
</event>
<event>
 5    0  0.5648525E-005  0.3134845E+03  0.7546771E-02  0.1078688E+00
         21   -1    0    0  502  501  0.00000000000E+00  0.00000000000E+00  0.28562536150E+03  0.28562536150E+03  0.00000000000E+00 0. -1.
         21   -1    0    0  501  502 -0.00000000000E+00 -0.00000000000E+00 -0.34406094457E+03  0.34406094457E+03  0.00000000000E+00 0. -1.
         25    1    1    2    0    0  0.22370799916E+02  0.93097425528E+02  0.48304722506E+02  0.16469951289E+03  0.12500000000E+03 0.  0.
         25    1    1    2    0    0 -0.11674416598E+03  0.91064721490E+02 -0.11076578640E+03  0.22319507886E+03  0.12500000000E+03 0.  0.
         25    1    1    2    0    0  0.94373366069E+02 -0.18416214702E+03  0.40254808257E+01  0.24179171432E+03  0.12500000000E+03 0.  0.
</event>
<event>
 5    0  0.5648525E-005  0.2415754E+03  0.7546771E-02  0.1118748E+00
         21   -1    0    0  502  501  0.00000000000E+00  0.00000000000E+00  0.73305806370E+02  0.73305806370E+02  0.00000000000E+00 0.  1.
         21   -1    0    0  501  502 -0.00000000000E+00 -0.00000000000E+00 -0.79609920035E+03  0.79609920035E+03  0.00000000000E+00 0.  1.
         25    1    1    2    0    0 -0.85364387695E+02 -0.41299419414E+02 -0.25554392131E+03  0.29986733141E+03  0.12500000000E+03 0.  0.
         25    1    1    2    0    0  0.12562897292E+02 -0.66592501387E+02 -0.16807880524E+03  0.22015420142E+03  0.12500000000E+03 0.  0.
         25    1    1    2    0    0  0.72801490403E+02  0.10789192080E+03 -0.29917066743E+03  0.34938347390E+03  0.12500000000E+03 0.  0.
</event>
<event>
 5    0  0.5648525E-005  0.3217802E+03  0.7546771E-02  0.1074833E+00
         21   -1    0    0  502  501  0.00000000000E+00  0.00000000000E+00  0.36900649393E+03  0.36900649393E+03  0.00000000000E+00 0. -1.
         21   -1    0    0  501  502 -0.00000000000E+00 -0.00000000000E+00 -0.28059807891E+03  0.28059807891E+03  0.00000000000E+00 0. -1.
         25    1    1    2    0    0  0.11195742960E+03 -0.60210169479E+02 -0.34757765923E+02  0.18163929323E+03  0.12500000000E+03 0.  0.
         25    1    1    2    0    0  0.26756245094E+02  0.18182560563E+03  0.10065330015E+03  0.24399289815E+03  0.12500000000E+03 0.  0.
         25    1    1    2    0    0 -0.13871367469E+03 -0.12161543615E+03  0.22512880781E+02  0.22397238147E+03  0.12500000000E+03 0.  0.
</event>
<event>
 5    0  0.5648525E-005  0.4079907E+03  0.7546771E-02  0.1041047E+00
         21   -1    0    0  502  501  0.00000000000E+00  0.00000000000E+00  0.62183932324E+03  0.62183932324E+03  0.00000000000E+00 0. -1.
         21   -1    0    0  501  502 -0.00000000000E+00 -0.00000000000E+00 -0.26768399923E+03  0.26768399923E+03  0.00000000000E+00 0. -1.
         25    1    1    2    0    0 -0.16150650809E+02  0.78604619156E+02  0.42593861479E+03  0.45109670055E+03  0.12500000000E+03 0.  0.
         25    1    1    2    0    0 -0.29441872395E+02 -0.85050204597E+02 -0.20073731145E+03  0.25302337710E+03  0.12500000000E+03 0.  0.
         25    1    1    2    0    0  0.45592523204E+02  0.64455854409E+01  0.12895402067E+03  0.18540324482E+03  0.12500000000E+03 0.  0.
</event>
<event>
 5    0  0.5648525E-005  0.2452195E+03  0.7546771E-02  0.1116364E+00
         21   -1    0    0  502  501  0.00000000000E+00  0.00000000000E+00  0.58610636023E+02  0.58610636023E+02  0.00000000000E+00 0. -1.
         21   -1    0    0  501  502 -0.00000000000E+00 -0.00000000000E+00 -0.10259670608E+04  0.10259670608E+04  0.00000000000E+00 0. -1.
         25    1    1    2    0    0  0.26837591623E+02 -0.23819249587E+02 -0.41021043620E+03  0.43033151748E+03  0.12500000000E+03 0.  0.
         25    1    1    2    0    0 -0.10094619320E+02 -0.90162866113E+02 -0.37256871810E+03  0.40331587307E+03  0.12500000000E+03 0.  0.
         25    1    1    2    0    0 -0.16742972303E+02  0.11398211570E+03 -0.18457727044E+03  0.25093030623E+03  0.12500000000E+03 0.  0.
</event>
<event>
 5    0  0.5648525E-005  0.2554542E+03  0.7546771E-02  0.1109906E+00
         21   -1    0    0  502  501  0.00000000000E+00  0.00000000000E+00  0.10101547582E+04  0.10101547582E+04  0.00000000000E+00 0.  1.
         21   -1    0    0  501  502 -0.00000000000E+00 -0.00000000000E+00 -0.64600839028E+02  0.64600839028E+02  0.00000000000E+00 0.  1.
         25    1    1    2    0    0 -0.30233657960E+02 -0.11046248350E+03  0.37141633805E+03  0.40827825133E+03  0.12500000000E+03 0.  0.
         25    1    1    2    0    0 -0.55544638920E+02  0.12309116856E+03  0.35272972253E+03  0.39784406473E+03  0.12500000000E+03 0.  0.
         25    1    1    2    0    0  0.85778296880E+02 -0.12628685053E+02  0.22140785857E+03  0.26863328114E+03  0.12500000000E+03 0.  0.
</event>
<event>
 5    0  0.5648525E-005  0.3377292E+03  0.7546771E-02  0.1067767E+00
         21   -1    0    0  502  501  0.00000000000E+00  0.00000000000E+00  0.68959820415E+03  0.68959820415E+03  0.00000000000E+00 0.  1.
         21   -1    0    0  501  502 -0.00000000000E+00 -0.00000000000E+00 -0.16540214253E+03  0.16540214253E+03  0.00000000000E+00 0.  1.
         25    1    1    2    0    0 -0.18993308107E+03 -0.26412887575E+02  0.35634693188E+02  0.23166149286E+03  0.12500000000E+03 0.  0.
         25    1    1    2    0    0  0.61281188155E+01  0.56983267337E+02  0.85187472545E+02  0.16176078658E+03  0.12500000000E+03 0.  0.
         25    1    1    2    0    0  0.18380496225E+03 -0.30570379761E+02  0.40337389589E+03  0.46157806724E+03  0.12500000000E+03 0.  0.
</event>
<event>
 5    0  0.5648525E-005  0.3350518E+03  0.7546771E-02  0.1068923E+00
         21   -1    0    0  502  501  0.00000000000E+00  0.00000000000E+00  0.13538846748E+04  0.13538846748E+04  0.00000000000E+00 0.  1.
         21   -1    0    0  501  502 -0.00000000000E+00 -0.00000000000E+00 -0.82916767363E+02  0.82916767363E+02  0.00000000000E+00 0.  1.
         25    1    1    2    0    0 -0.15048447903E+03 -0.14755115665E+03  0.25539825162E+03  0.35393528955E+03  0.12500000000E+03 0.  0.
         25    1    1    2    0    0  0.35230042772E+02  0.14814247517E+03  0.42750939305E+03  0.47071926879E+03  0.12500000000E+03 0.  0.
         25    1    1    2    0    0  0.11525443626E+03 -0.59131851801E+00  0.58806026277E+03  0.61214688383E+03  0.12500000000E+03 0.  0.
</event>
<event>
 5    0  0.5648525E-005  0.4204955E+03  0.7546771E-02  0.1036905E+00
         21   -1    0    0  502  501  0.00000000000E+00  0.00000000000E+00  0.60701951835E+03  0.60701951835E+03  0.00000000000E+00 0. -1.
         21   -1    0    0  501  502 -0.00000000000E+00 -0.00000000000E+00 -0.29128635279E+03  0.29128635279E+03  0.00000000000E+00 0. -1.
         25    1    1    2    0    0  0.14229208285E+03  0.19534942996E+03 -0.94915516160E+02  0.28817076854E+03  0.12500000000E+03 0.  0.
         25    1    1    2    0    0 -0.18061162509E+03 -0.29528799099E+02  0.29624936783E+03  0.36997458972E+03  0.12500000000E+03 0.  0.
         25    1    1    2    0    0  0.38319542236E+02 -0.16582063087E+03  0.11439931389E+03  0.24016051290E+03  0.12500000000E+03 0.  0.
</event>
<event>
 5    0  0.5648525E-005  0.2489325E+03  0.7546771E-02  0.1113981E+00
         21   -1    0    0  502  501  0.00000000000E+00  0.00000000000E+00  0.10753131265E+04  0.10753131265E+04  0.00000000000E+00 0.  1.
         21   -1    0    0  501  502 -0.00000000000E+00 -0.00000000000E+00 -0.57627306131E+02  0.57627306131E+02  0.00000000000E+00 0.  1.
         25    1    1    2    0    0 -0.10683941142E+02 -0.99964016767E+02  0.37281847738E+03  0.40586397761E+03  0.12500000000E+03 0.  0.
         25    1    1    2    0    0  0.45260001240E+02 -0.34088214152E+02  0.18127184152E+03  0.22736524489E+03  0.12500000000E+03 0.  0.
         25    1    1    2    0    0 -0.34576060097E+02  0.13405223092E+03  0.46359550147E+03  0.49971121013E+03  0.12500000000E+03 0.  0.
</event>
<event>
 5    0  0.5648525E-005  0.2871637E+03  0.7546771E-02  0.1091839E+00
         21   -1    0    0  502  501  0.00000000000E+00  0.00000000000E+00  0.55954883007E+02  0.55954883007E+02  0.00000000000E+00 0. -1.
         21   -1    0    0  501  502 -0.00000000000E+00 -0.00000000000E+00 -0.14737404142E+04  0.14737404142E+04  0.00000000000E+00 0. -1.
         25    1    1    2    0    0 -0.10509532381E+03  0.20821716279E+02 -0.41140905655E+03  0.44312637335E+03  0.12500000000E+03 0.  0.
         25    1    1    2    0    0  0.14322635114E+03 -0.12403512006E+03 -0.42507093576E+03  0.48188048217E+03  0.12500000000E+03 0.  0.
         25    1    1    2    0    0 -0.38131027333E+02  0.10321340378E+03 -0.58130553890E+03  0.60468844170E+03  0.12500000000E+03 0.  0.
</event>
<event>
 5    0  0.5648525E-005  0.3472851E+03  0.7546771E-02  0.1063735E+00
         21   -1    0    0  502  501  0.00000000000E+00  0.00000000000E+00  0.93043684948E+02  0.93043684948E+02  0.00000000000E+00 0. -1.
         21   -1    0    0  501  502 -0.00000000000E+00 -0.00000000000E+00 -0.12962398950E+04  0.12962398950E+04  0.00000000000E+00 0. -1.
         25    1    1    2    0    0 -0.17487626830E+03 -0.61266899516E+02 -0.35965833529E+03  0.42345538175E+03  0.12500000000E+03 0.  0.
         25    1    1    2    0    0  0.25861817520E+03 -0.35135957992E+02 -0.47402619832E+03  0.55537710862E+03  0.12500000000E+03 0.  0.
         25    1    1    2    0    0 -0.83741906899E+02  0.96402857508E+02 -0.36951167646E+03  0.41045108959E+03  0.12500000000E+03 0.  0.
</event>
<event>
 5    0  0.5648525E-005  0.3310141E+03  0.7546771E-02  0.1070689E+00
         21   -1    0    0  502  501  0.00000000000E+00  0.00000000000E+00  0.24876574538E+03  0.24876574538E+03  0.00000000000E+00 0. -1.
         21   -1    0    0  501  502 -0.00000000000E+00 -0.00000000000E+00 -0.44045588104E+03  0.44045588104E+03  0.00000000000E+00 0. -1.
         25    1    1    2    0    0  0.56859500245E+02  0.11527242703E+03  0.11617593164E+03  0.21364124670E+03  0.12500000000E+03 0.  0.
         25    1    1    2    0    0 -0.35236594558E+02 -0.17351901161E+03 -0.22878006407E+03  0.31514406658E+03  0.12500000000E+03 0.  0.
         25    1    1    2    0    0 -0.21622905686E+02  0.58246584584E+02 -0.79086003224E+02  0.16043631313E+03  0.12500000000E+03 0.  0.
</event>
<event>
 5    0  0.5648525E-005  0.3426096E+03  0.7546771E-02  0.1065690E+00
         21   -1    0    0  502  501  0.00000000000E+00  0.00000000000E+00  0.17946987763E+03  0.17946987763E+03  0.00000000000E+00 0. -1.
         21   -1    0    0  501  502 -0.00000000000E+00 -0.00000000000E+00 -0.65404478662E+03  0.65404478662E+03  0.00000000000E+00 0. -1.
         25    1    1    2    0    0  0.18268114996E+03 -0.17086518485E+03 -0.77976682352E+02  0.29029756619E+03  0.12500000000E+03 0.  0.
         25    1    1    2    0    0 -0.87509324986E+02  0.12850284571E+03 -0.27661864831E+03  0.34104800235E+03  0.12500000000E+03 0.  0.
         25    1    1    2    0    0 -0.95171824977E+02  0.42362339136E+02 -0.11997957832E+03  0.20216909571E+03  0.12500000000E+03 0.  0.
</event>
<event>
 5    0  0.5648525E-005  0.2310410E+03  0.7546771E-02  0.1125909E+00
         21   -1    0    0  502  501  0.00000000000E+00  0.00000000000E+00  0.14401907204E+03  0.14401907204E+03  0.00000000000E+00 0. -1.
         21   -1    0    0  501  502 -0.00000000000E+00 -0.00000000000E+00 -0.37064511681E+03  0.37064511681E+03  0.00000000000E+00 0. -1.
         25    1    1    2    0    0  0.12026158109E+02  0.33298037536E+00  0.24333133098E+02  0.12791341103E+03  0.12500000000E+03 0.  0.
         25    1    1    2    0    0 -0.37571929751E+02 -0.49908831264E+02 -0.19259366834E+03  0.23794928541E+03  0.12500000000E+03 0.  0.
         25    1    1    2    0    0  0.25545771642E+02  0.49575850889E+02 -0.58365509534E+02  0.14880149241E+03  0.12500000000E+03 0.  0.
</event>
<event>
 5    0  0.5648525E-005  0.2353970E+03  0.7546771E-02  0.1122898E+00
         21   -1    0    0  502  501  0.00000000000E+00  0.00000000000E+00  0.10757042611E+03  0.10757042611E+03  0.00000000000E+00 0. -1.
         21   -1    0    0  501  502 -0.00000000000E+00 -0.00000000000E+00 -0.51512086379E+03  0.51512086379E+03  0.00000000000E+00 0. -1.
         25    1    1    2    0    0  0.40606971670E+02  0.30885587798E+02 -0.21830228384E+02  0.13676404700E+03  0.12500000000E+03 0.  0.
         25    1    1    2    0    0  0.38486107147E+02  0.29034017842E+02 -0.14834250846E+03  0.19988660398E+03  0.12500000000E+03 0.  0.
         25    1    1    2    0    0 -0.79093078818E+02 -0.59919605639E+02 -0.23737770084E+03  0.28604063892E+03  0.12500000000E+03 0.  0.
</event>
<event>
 5    0  0.5648525E-005  0.2912328E+03  0.7546771E-02  0.1089707E+00
         21   -1    0    0  502  501  0.00000000000E+00  0.00000000000E+00  0.21423450511E+03  0.21423450511E+03  0.00000000000E+00 0. -1.
         21   -1    0    0  501  502 -0.00000000000E+00 -0.00000000000E+00 -0.39590518649E+03  0.39590518649E+03  0.00000000000E+00 0. -1.
         25    1    1    2    0    0  0.33931510264E+02 -0.10002535209E+03 -0.21753849396E+01  0.16366475109E+03  0.12500000000E+03 0.  0.
         25    1    1    2    0    0 -0.43808673826E+02  0.10169133892E+03  0.58930826004E+02  0.17708238356E+03  0.12500000000E+03 0.  0.
         25    1    1    2    0    0  0.98771635618E+01 -0.16659868299E+01 -0.23842612245E+03  0.26939255695E+03  0.12500000000E+03 0.  0.
</event>
<event>
 5    0  0.5648525E-005  0.3138489E+03  0.7546771E-02  0.1078516E+00
         21   -1    0    0  502  501  0.00000000000E+00  0.00000000000E+00  0.11120323918E+04  0.11120323918E+04  0.00000000000E+00 0. -1.
         21   -1    0    0  501  502 -0.00000000000E+00 -0.00000000000E+00 -0.88577599236E+02  0.88577599236E+02  0.00000000000E+00 0. -1.
         25    1    1    2    0    0  0.91167992562E+02  0.13676230592E+03  0.34206288775E+03  0.39955919507E+03  0.12500000000E+03 0.  0.
         25    1    1    2    0    0  0.67045013306E+02 -0.14956125497E+03  0.44266260448E+03  0.48830193959E+03  0.12500000000E+03 0.  0.
         25    1    1    2    0    0 -0.15821300587E+03  0.12798949051E+02  0.23872930028E+03  0.31274885633E+03  0.12500000000E+03 0.  0.
</event>
<event>
 5    0  0.5648525E-005  0.3729336E+03  0.7546771E-02  0.1053577E+00
         21   -1    0    0  502  501  0.00000000000E+00  0.00000000000E+00  0.39422366567E+03  0.39422366567E+03  0.00000000000E+00 0.  1.
         21   -1    0    0  501  502 -0.00000000000E+00 -0.00000000000E+00 -0.35279330313E+03  0.35279330313E+03  0.00000000000E+00 0.  1.
         25    1    1    2    0    0 -0.44689415621E+02 -0.84706059142E+02 -0.28307879972E+02  0.15999561367E+03  0.12500000000E+03 0.  0.
         25    1    1    2    0    0 -0.13357293906E+03 -0.10878927477E+03 -0.11517424535E+03  0.24200608081E+03  0.12500000000E+03 0.  0.
         25    1    1    2    0    0  0.17826235469E+03  0.19349533392E+03  0.18491248787E+03  0.34501527432E+03  0.12500000000E+03 0.  0.
</event>
<event>
 5    0  0.6129830E-005  0.3519226E+03  0.7546771E-02  0.1061829E+00
         21   -1    0    0  502  501  0.00000000000E+00  0.00000000000E+00  0.27835321351E+03  0.27835321351E+03  0.00000000000E+00 0. -1.
         21   -1    0    0  501  502 -0.00000000000E+00 -0.00000000000E+00 -0.44493642433E+03  0.44493642433E+03  0.00000000000E+00 0. -1.
         25    1    1    2    0    0  0.74930393593E+02 -0.12888082997E+03 -0.15431953353E+03  0.24832307715E+03  0.12500000000E+03 0.  0.
         25    1    1    2    0    0  0.91916387909E+02  0.15360137859E+03  0.96296299396E+02  0.23862100316E+03  0.12500000000E+03 0.  0.
         25    1    1    2    0    0 -0.16684678150E+03 -0.24720548628E+02 -0.10855997668E+03  0.23634555752E+03  0.12500000000E+03 0.  0.
</event>
<event>
 5    0  0.5648525E-005  0.2245423E+03  0.7546771E-02  0.1130541E+00
         21   -1    0    0  502  501  0.00000000000E+00  0.00000000000E+00  0.21594304095E+03  0.21594304095E+03  0.00000000000E+00 0. -1.
         21   -1    0    0  501  502 -0.00000000000E+00 -0.00000000000E+00 -0.23348408607E+03  0.23348408607E+03  0.00000000000E+00 0. -1.
         25    1    1    2    0    0 -0.58938555636E+02 -0.39703855084E+02 -0.29851464330E+02  0.14685455176E+03  0.12500000000E+03 0.  0.
         25    1    1    2    0    0  0.12581394126E+02 -0.35106575348E+02  0.58372546173E+02  0.14290947225E+03  0.12500000000E+03 0.  0.
         25    1    1    2    0    0  0.46357161510E+02  0.74810430432E+02 -0.46062126967E+02  0.15966310302E+03  0.12500000000E+03 0.  0.
</event>
<event>
 5    0  0.5648525E-005  0.4468256E+03  0.7546771E-02  0.1028673E+00
         21   -1    0    0  502  501  0.00000000000E+00  0.00000000000E+00  0.12337660111E+04  0.12337660111E+04  0.00000000000E+00 0. -1.
         21   -1    0    0  501  502 -0.00000000000E+00 -0.00000000000E+00 -0.16182410909E+03  0.16182410909E+03  0.00000000000E+00 0. -1.
         25    1    1    2    0    0 -0.65868384347E+02 -0.16806229400E+03  0.10193214575E+04  0.10427007300E+04  0.12500000000E+03 0.  0.
         25    1    1    2    0    0  0.61261029636E+02  0.15617877782E+03  0.80535328035E+02  0.22417774969E+03  0.12500000000E+03 0.  0.
         25    1    1    2    0    0  0.46073547113E+01  0.11883516175E+02 -0.27914883507E+02  0.12871164048E+03  0.12500000000E+03 0.  0.
</event>
<event>
 5    0  0.5648525E-005  0.3182808E+03  0.7546771E-02  0.1076443E+00
         21   -1    0    0  502  501  0.00000000000E+00  0.00000000000E+00  0.46768229857E+03  0.46768229857E+03  0.00000000000E+00 0. -1.
         21   -1    0    0  501  502 -0.00000000000E+00 -0.00000000000E+00 -0.21660566614E+03  0.21660566614E+03  0.00000000000E+00 0. -1.
         25    1    1    2    0    0  0.61561693349E+02 -0.28068984522E+02  0.12330945992E+03  0.18816995745E+03  0.12500000000E+03 0.  0.
         25    1    1    2    0    0 -0.82651101908E+02 -0.16053783677E+03 -0.26866456755E+02  0.22124739135E+03  0.12500000000E+03 0.  0.
         25    1    1    2    0    0  0.21089408558E+02  0.18860682130E+03  0.15463362926E+03  0.27487061591E+03  0.12500000000E+03 0.  0.
</event>
<event>
 5    0  0.5648525E-005  0.3641235E+03  0.7546771E-02  0.1056963E+00
         21   -1    0    0  502  501  0.00000000000E+00  0.00000000000E+00  0.16858475622E+03  0.16858475622E+03  0.00000000000E+00 0. -1.
         21   -1    0    0  501  502 -0.00000000000E+00 -0.00000000000E+00 -0.78646428620E+03  0.78646428620E+03  0.00000000000E+00 0. -1.
         25    1    1    2    0    0  0.40726077787E+02  0.98659876333E+01 -0.10579548668E+03  0.16903738085E+03  0.12500000000E+03 0.  0.
         25    1    1    2    0    0 -0.15552802751E+02 -0.27453045473E+03 -0.24381561701E+03  0.38817510913E+03  0.12500000000E+03 0.  0.
         25    1    1    2    0    0 -0.25173275036E+02  0.26466446710E+03 -0.26826842629E+03  0.39783655245E+03  0.12500000000E+03 0.  0.
</event>
<event>
 5    0  0.5648525E-005  0.2722484E+03  0.7546771E-02  0.1100000E+00
         21   -1    0    0  502  501  0.00000000000E+00  0.00000000000E+00  0.62898017313E+02  0.62898017313E+02  0.00000000000E+00 0. -1.
         21   -1    0    0  501  502 -0.00000000000E+00 -0.00000000000E+00 -0.11784024726E+04  0.11784024726E+04  0.00000000000E+00 0. -1.
         25    1    1    2    0    0 -0.60620529963E+02 -0.94763697787E+02 -0.16339147095E+03  0.23447127724E+03  0.12500000000E+03 0.  0.
         25    1    1    2    0    0  0.38312955965E+01  0.30292243894E+02 -0.18807280957E+03  0.22787865316E+03  0.12500000000E+03 0.  0.
         25    1    1    2    0    0  0.56789234367E+02  0.64471453892E+02 -0.76404017477E+03  0.77895055952E+03  0.12500000000E+03 0.  0.
</event>
<event>
 5    0  0.5648525E-005  0.2852139E+03  0.7546771E-02  0.1092875E+00
         21   -1    0    0  502  501  0.00000000000E+00  0.00000000000E+00  0.45968325407E+02  0.45968325407E+02  0.00000000000E+00 0.  1.
         21   -1    0    0  501  502 -0.00000000000E+00 -0.00000000000E+00 -0.17696311328E+04  0.17696311328E+04  0.00000000000E+00 0.  1.
         25    1    1    2    0    0  0.85709596376E+02 -0.79665346252E+01 -0.17399768218E+03  0.23088913788E+03  0.12500000000E+03 0.  0.
         25    1    1    2    0    0 -0.13751137721E+03  0.43601186791E+02 -0.94181657773E+03  0.96096509221E+03  0.12500000000E+03 0.  0.
         25    1    1    2    0    0  0.51801780831E+02 -0.35634652166E+02 -0.60784854748E+03  0.62374522812E+03  0.12500000000E+03 0.  0.
</event>
<event>
 5    0  0.5648525E-005  0.3484713E+03  0.7546771E-02  0.1063244E+00
         21   -1    0    0  502  501  0.00000000000E+00  0.00000000000E+00  0.13257621757E+03  0.13257621757E+03  0.00000000000E+00 0.  1.
         21   -1    0    0  501  502 -0.00000000000E+00 -0.00000000000E+00 -0.91594276793E+03  0.91594276793E+03  0.00000000000E+00 0.  1.
         25    1    1    2    0    0  0.95867214042E+01  0.17010607655E+02 -0.21256316657E+03  0.24736484347E+03  0.12500000000E+03 0.  0.
         25    1    1    2    0    0 -0.20868728396E+03 -0.13470716116E+03 -0.18389158234E+03  0.33337293803E+03  0.12500000000E+03 0.  0.
         25    1    1    2    0    0  0.19910056256E+03  0.11769655350E+03 -0.38691180145E+03  0.46778120400E+03  0.12500000000E+03 0.  0.
</event>
<event>
 5    0  0.7817462E-005  0.2938624E+03  0.7546771E-02  0.1088350E+00
         21   -1    0    0  502  501  0.00000000000E+00  0.00000000000E+00  0.44986644832E+03  0.44986644832E+03  0.00000000000E+00 0.  1.
         21   -1    0    0  501  502 -0.00000000000E+00 -0.00000000000E+00 -0.19195725583E+03  0.19195725583E+03  0.00000000000E+00 0.  1.
         25    1    1    2    0    0  0.43233823339E+02  0.98332249486E+02  0.17913214775E+02  0.16578382923E+03  0.12500000000E+03 0.  0.
         25    1    1    2    0    0 -0.76473898879E+02 -0.53143953127E+02  0.29077620578E+03  0.32992171619E+03  0.12500000000E+03 0.  0.
         25    1    1    2    0    0  0.33240075540E+02 -0.45188296358E+02 -0.50780228072E+02  0.14611815874E+03  0.12500000000E+03 0.  0.
</event>
<event>
 5    0  0.5648525E-005  0.4248325E+03  0.7546771E-02  0.1035505E+00
         21   -1    0    0  502  501  0.00000000000E+00  0.00000000000E+00  0.21813776623E+03  0.21813776623E+03  0.00000000000E+00 0.  1.
         21   -1    0    0  501  502 -0.00000000000E+00 -0.00000000000E+00 -0.82737934167E+03  0.82737934167E+03  0.00000000000E+00 0.  1.
         25    1    1    2    0    0 -0.21004851690E+03  0.97571576700E+02 -0.16929739856E+03  0.31293322162E+03  0.12500000000E+03 0.  0.
         25    1    1    2    0    0 -0.96781476326E+02 -0.17378597791E+03 -0.25036304084E+03  0.34332910231E+03  0.12500000000E+03 0.  0.
         25    1    1    2    0    0  0.30682999323E+03  0.76214401213E+02 -0.18958113604E+03  0.38925478396E+03  0.12500000000E+03 0.  0.
</event>
<event>
 5    0  0.5648525E-005  0.2954861E+03  0.7546771E-02  0.1087519E+00
         21   -1    0    0  502  501  0.00000000000E+00  0.00000000000E+00  0.11431224055E+03  0.11431224055E+03  0.00000000000E+00 0.  1.
         21   -1    0    0  501  502 -0.00000000000E+00 -0.00000000000E+00 -0.76380284469E+03  0.76380284469E+03  0.00000000000E+00 0.  1.
         25    1    1    2    0    0  0.52263526243E+00 -0.72078788849E+00 -0.22751316957E+03  0.25959205499E+03  0.12500000000E+03 0.  0.
         25    1    1    2    0    0  0.84320843328E+02  0.63398837530E+02  0.25392288673E+01  0.16358748394E+03  0.12500000000E+03 0.  0.
         25    1    1    2    0    0 -0.84843478590E+02 -0.62678049642E+02 -0.42451666343E+03  0.45493554631E+03  0.12500000000E+03 0.  0.
</event>
<event>
 5    0  0.5648525E-005  0.2573820E+03  0.7546771E-02  0.1108726E+00
         21   -1    0    0  502  501  0.00000000000E+00  0.00000000000E+00  0.12478427948E+03  0.12478427948E+03  0.00000000000E+00 0. -1.
         21   -1    0    0  501  502 -0.00000000000E+00 -0.00000000000E+00 -0.53088028120E+03  0.53088028120E+03  0.00000000000E+00 0. -1.
         25    1    1    2    0    0  0.21529132657E+02 -0.14253832030E+03 -0.11805698674E+03  0.22437274439E+03  0.12500000000E+03 0.  0.
         25    1    1    2    0    0 -0.53427111470E+02  0.12104088241E+03 -0.21424367217E+03  0.28112399848E+03  0.12500000000E+03 0.  0.
         25    1    1    2    0    0  0.31897978812E+02  0.21497437889E+02 -0.73795342813E+02  0.15016781782E+03  0.12500000000E+03 0.  0.
</event>
<event>
 5    0  0.5648525E-005  0.3125081E+03  0.7546771E-02  0.1079150E+00
         21   -1    0    0  502  501  0.00000000000E+00  0.00000000000E+00  0.71153605406E+02  0.71153605406E+02  0.00000000000E+00 0. -1.
         21   -1    0    0  501  502 -0.00000000000E+00 -0.00000000000E+00 -0.13725420084E+04  0.13725420084E+04  0.00000000000E+00 0. -1.
         25    1    1    2    0    0 -0.19976707988E+02 -0.21126168644E+03 -0.51478964201E+03  0.57066973333E+03  0.12500000000E+03 0.  0.
         25    1    1    2    0    0  0.57050932307E+02  0.52383125966E+02 -0.17928466990E+03  0.23187667762E+03  0.12500000000E+03 0.  0.
         25    1    1    2    0    0 -0.37074224319E+02  0.15887856048E+03 -0.60731409106E+03  0.64114920283E+03  0.12500000000E+03 0.  0.
</event>
<event>
 5    0  0.5648525E-005  0.2230702E+03  0.7546771E-02  0.1131615E+00
         21   -1    0    0  502  501  0.00000000000E+00  0.00000000000E+00  0.44087594815E+03  0.44087594815E+03  0.00000000000E+00 0. -1.
         21   -1    0    0  501  502 -0.00000000000E+00 -0.00000000000E+00 -0.11286689382E+03  0.11286689382E+03  0.00000000000E+00 0. -1.
         25    1    1    2    0    0 -0.79909805196E+02  0.46213665631E+02  0.14768832833E+03  0.21437845550E+03  0.12500000000E+03 0.  0.
         25    1    1    2    0    0  0.38138412568E+02 -0.20440505044E+02  0.15312396546E+03  0.20234698307E+03  0.12500000000E+03 0.  0.
         25    1    1    2    0    0  0.41771392628E+02 -0.25773160587E+02  0.27196760537E+02  0.13701740339E+03  0.12500000000E+03 0.  0.
</event>
<event>
 5    0  0.5648525E-005  0.2916905E+03  0.7546771E-02  0.1089470E+00
         21   -1    0    0  502  501  0.00000000000E+00  0.00000000000E+00  0.96101624776E+03  0.96101624776E+03  0.00000000000E+00 0. -1.
         21   -1    0    0  501  502 -0.00000000000E+00 -0.00000000000E+00 -0.88534736427E+02  0.88534736427E+02  0.00000000000E+00 0. -1.
         25    1    1    2    0    0  0.49839821386E+02 -0.16968792623E+03  0.22672841077E+03  0.31354229755E+03  0.12500000000E+03 0.  0.
         25    1    1    2    0    0 -0.40920578564E+00  0.13187512602E+03  0.50941744083E+03  0.54085334919E+03  0.12500000000E+03 0.  0.
         25    1    1    2    0    0 -0.49430615600E+02  0.37812800212E+02  0.13633565973E+03  0.19515533745E+03  0.12500000000E+03 0.  0.
</event>
<event>
 5    0  0.5648525E-005  0.3974213E+03  0.7546771E-02  0.1044676E+00
         21   -1    0    0  502  501  0.00000000000E+00  0.00000000000E+00  0.80219344225E+03  0.80219344225E+03  0.00000000000E+00 0.  1.
         21   -1    0    0  501  502 -0.00000000000E+00 -0.00000000000E+00 -0.19688973836E+03  0.19688973836E+03  0.00000000000E+00 0.  1.
         25    1    1    2    0    0 -0.33625912206E+01 -0.57675937104E+02  0.36192399687E+03  0.38723610401E+03  0.12500000000E+03 0.  0.
         25    1    1    2    0    0  0.77053010861E+02  0.19901384820E+03 -0.52923344527E+02  0.25292204067E+03  0.12500000000E+03 0.  0.
         25    1    1    2    0    0 -0.73690419640E+02 -0.14133791110E+03  0.29630305155E+03  0.35892503593E+03  0.12500000000E+03 0.  0.
</event>
<event>
 5    0  0.5648525E-005  0.2576349E+03  0.7546771E-02  0.1108573E+00
         21   -1    0    0  502  501  0.00000000000E+00  0.00000000000E+00  0.15992664512E+03  0.15992664512E+03  0.00000000000E+00 0. -1.
         21   -1    0    0  501  502 -0.00000000000E+00 -0.00000000000E+00 -0.41503872349E+03  0.41503872349E+03  0.00000000000E+00 0. -1.
         25    1    1    2    0    0 -0.13857564978E+03 -0.22079573849E+01 -0.49695758397E+02  0.19313920936E+03  0.12500000000E+03 0.  0.
         25    1    1    2    0    0  0.64990220929E+02  0.45797397856E+02 -0.31960391263E+02  0.15155064195E+03  0.12500000000E+03 0.  0.
         25    1    1    2    0    0  0.73585428852E+02 -0.43589440471E+02 -0.17345592872E+03  0.23027551730E+03  0.12500000000E+03 0.  0.
</event>
<event>
 5    0  0.5648525E-005  0.3827552E+03  0.7546771E-02  0.1049920E+00
         21   -1    0    0  502  501  0.00000000000E+00  0.00000000000E+00  0.87363819381E+03  0.87363819381E+03  0.00000000000E+00 0. -1.
         21   -1    0    0  501  502 -0.00000000000E+00 -0.00000000000E+00 -0.16769130077E+03  0.16769130077E+03  0.00000000000E+00 0. -1.
         25    1    1    2    0    0  0.15626050604E+02  0.22522054258E+02  0.32996403791E+03  0.35391055748E+03  0.12500000000E+03 0.  0.
         25    1    1    2    0    0 -0.16740586844E+03  0.50683864509E+02  0.42110575469E+03  0.47280930146E+03  0.12500000000E+03 0.  0.
         25    1    1    2    0    0  0.15177981783E+03 -0.73205918768E+02 -0.45122899561E+02  0.21460963564E+03  0.12500000000E+03 0.  0.
</event>
<event>
 5    0  0.5648525E-005  0.3406865E+03  0.7546771E-02  0.1066504E+00
         21   -1    0    0  502  501  0.00000000000E+00  0.00000000000E+00  0.26934645156E+03  0.26934645156E+03  0.00000000000E+00 0. -1.
         21   -1    0    0  501  502 -0.00000000000E+00 -0.00000000000E+00 -0.43092191982E+03  0.43092191982E+03  0.00000000000E+00 0. -1.
         25    1    1    2    0    0 -0.10457683387E+03  0.13109073472E+03 -0.81853821954E+02  0.22460218850E+03  0.12500000000E+03 0.  0.
         25    1    1    2    0    0  0.14113157931E+03  0.24119388925E+02 -0.16892764989E+03  0.25428609576E+03  0.12500000000E+03 0.  0.
         25    1    1    2    0    0 -0.36554745438E+02 -0.15521012364E+03  0.89206003593E+02  0.22138008712E+03  0.12500000000E+03 0.  0.
</event>
<event>
 5    0  0.5648525E-005  0.3688993E+03  0.7546771E-02  0.1055115E+00
         21   -1    0    0  502  501  0.00000000000E+00  0.00000000000E+00  0.71075450368E+03  0.71075450368E+03  0.00000000000E+00 0. -1.
         21   -1    0    0  501  502 -0.00000000000E+00 -0.00000000000E+00 -0.19146793652E+03  0.19146793652E+03  0.00000000000E+00 0. -1.
         25    1    1    2    0    0  0.89279600094E+01 -0.13351774378E+03 -0.69741193170E+02  0.19594777467E+03  0.12500000000E+03 0.  0.
         25    1    1    2    0    0  0.82416563488E+02  0.88813243266E+01  0.10516890963E+03  0.18318533623E+03  0.12500000000E+03 0.  0.
         25    1    1    2    0    0 -0.91344523497E+02  0.12463641945E+03  0.48385885070E+03  0.52308932930E+03  0.12500000000E+03 0.  0.
</event>
<event>
 5    0  0.5648525E-005  0.2760767E+03  0.7546771E-02  0.1097851E+00
         21   -1    0    0  502  501  0.00000000000E+00  0.00000000000E+00  0.10409507912E+04  0.10409507912E+04  0.00000000000E+00 0.  1.
         21   -1    0    0  501  502 -0.00000000000E+00 -0.00000000000E+00 -0.73219912649E+02  0.73219912649E+02  0.00000000000E+00 0.  1.
         25    1    1    2    0    0 -0.22375689011E+02 -0.12092911694E+02  0.45646528012E+03  0.47395407154E+03  0.12500000000E+03 0.  0.
         25    1    1    2    0    0 -0.71397338115E+02 -0.96226756301E+02  0.13838824595E+03  0.22166072078E+03  0.12500000000E+03 0.  0.
         25    1    1    2    0    0  0.93773027126E+02  0.10831966800E+03  0.37287735253E+03  0.41855591158E+03  0.12500000000E+03 0.  0.
</event>
<event>
 5    0  0.5648525E-005  0.3798599E+03  0.7546771E-02  0.1050986E+00
         21   -1    0    0  502  501  0.00000000000E+00  0.00000000000E+00  0.31897010741E+03  0.31897010741E+03  0.00000000000E+00 0. -1.
         21   -1    0    0  501  502 -0.00000000000E+00 -0.00000000000E+00 -0.45237332462E+03  0.45237332462E+03  0.00000000000E+00 0. -1.
         25    1    1    2    0    0 -0.28109498685E+03  0.36903019480E+02 -0.97574251356E+02  0.32484143671E+03  0.12500000000E+03 0.  0.
         25    1    1    2    0    0  0.10487379949E+03 -0.11929141000E+03 -0.67538919092E+02  0.21310903292E+03  0.12500000000E+03 0.  0.
         25    1    1    2    0    0  0.17622118736E+03  0.82388390520E+02  0.31709953232E+02  0.23339296240E+03  0.12500000000E+03 0.  0.
</event>
<event>
 5    0  0.5648525E-005  0.2456251E+03  0.7546771E-02  0.1116101E+00
         21   -1    0    0  502  501  0.00000000000E+00  0.00000000000E+00  0.76098467023E+02  0.76098467023E+02  0.00000000000E+00 0. -1.
         21   -1    0    0  501  502 -0.00000000000E+00 -0.00000000000E+00 -0.79281055843E+03  0.79281055843E+03  0.00000000000E+00 0. -1.
         25    1    1    2    0    0 -0.11848644477E+03  0.17804590661E+02 -0.24973552717E+03  0.30388957628E+03  0.12500000000E+03 0.  0.
         25    1    1    2    0    0  0.88188728744E+01 -0.49833264526E+02 -0.29135246909E+03  0.32104888727E+03  0.12500000000E+03 0.  0.
         25    1    1    2    0    0  0.10966757190E+03  0.32028673864E+02 -0.17562409514E+03  0.24397056189E+03  0.12500000000E+03 0.  0.
</event>
<event>
 5    0  0.5648525E-005  0.2567722E+03  0.7546771E-02  0.1109098E+00
         21   -1    0    0  502  501  0.00000000000E+00  0.00000000000E+00  0.26067363732E+03  0.26067363732E+03  0.00000000000E+00 0. -1.
         21   -1    0    0  501  502 -0.00000000000E+00 -0.00000000000E+00 -0.25292920948E+03  0.25292920948E+03  0.00000000000E+00 0. -1.
         25    1    1    2    0    0  0.24936060216E+02 -0.63116533229E+02  0.36523723907E+00  0.14223444472E+03  0.12500000000E+03 0.  0.
         25    1    1    2    0    0 -0.84257390142E+02  0.29223852244E+02  0.11582218454E+03  0.19233595546E+03  0.12500000000E+03 0.  0.
         25    1    1    2    0    0  0.59321329926E+02  0.33892680985E+02 -0.10844299394E+03  0.17903244662E+03  0.12500000000E+03 0.  0.
</event>
<event>
 5    0  0.5648525E-005  0.3092772E+03  0.7546771E-02  0.1080693E+00
         21   -1    0    0  502  501  0.00000000000E+00  0.00000000000E+00  0.52390552780E+03  0.52390552780E+03  0.00000000000E+00 0.  1.
         21   -1    0    0  501  502 -0.00000000000E+00 -0.00000000000E+00 -0.18257569710E+03  0.18257569710E+03  0.00000000000E+00 0.  1.
         25    1    1    2    0    0  0.31791427910E+01  0.99896276921E+02 -0.52302665445E+02  0.16837440989E+03  0.12500000000E+03 0.  0.
         25    1    1    2    0    0 -0.12421548199E+03 -0.30147638394E+02  0.17608442338E+03  0.25093642666E+03  0.12500000000E+03 0.  0.
         25    1    1    2    0    0  0.12103633920E+03 -0.69748638527E+02  0.21754807276E+03  0.28717038835E+03  0.12500000000E+03 0.  0.
</event>
<event>
 5    0  0.5648525E-005  0.4037633E+03  0.7546771E-02  0.1042484E+00
         21   -1    0    0  502  501  0.00000000000E+00  0.00000000000E+00  0.39209530061E+03  0.39209530061E+03  0.00000000000E+00 0.  1.
         21   -1    0    0  501  502 -0.00000000000E+00 -0.00000000000E+00 -0.41577845303E+03  0.41577845303E+03  0.00000000000E+00 0.  1.
         25    1    1    2    0    0 -0.31405031318E+02 -0.10875579175E+03 -0.24524798565E+03  0.29763345359E+03  0.12500000000E+03 0.  0.
         25    1    1    2    0    0  0.11268176238E+03 -0.17620180094E+02 -0.49274903507E+02  0.17624036551E+03  0.12500000000E+03 0.  0.
         25    1    1    2    0    0 -0.81276731059E+02  0.12637597184E+03  0.27083973675E+03  0.33399993454E+03  0.12500000000E+03 0.  0.
</event>
<event>
 5    0  0.5648525E-005  0.4312679E+03  0.7546771E-02  0.1033460E+00
         21   -1    0    0  502  501  0.00000000000E+00  0.00000000000E+00  0.18077968048E+04  0.18077968048E+04  0.00000000000E+00 0.  1.
         21   -1    0    0  501  502 -0.00000000000E+00 -0.00000000000E+00 -0.10288324846E+03  0.10288324846E+03  0.00000000000E+00 0.  1.
         25    1    1    2    0    0 -0.27541381687E+03  0.18572793263E+03  0.11211762442E+04  0.11760139480E+04  0.12500000000E+03 0.  0.
         25    1    1    2    0    0  0.18553881615E+03 -0.17045745172E+03  0.44735474190E+03  0.52842375064E+03  0.12500000000E+03 0.  0.
         25    1    1    2    0    0  0.89875000721E+02 -0.15270480914E+02  0.13638257023E+03  0.20624235454E+03  0.12500000000E+03 0.  0.
</event>
<event>
 5    0  0.5648525E-005  0.3365440E+03  0.7546771E-02  0.1068277E+00
         21   -1    0    0  502  501  0.00000000000E+00  0.00000000000E+00  0.26512940747E+03  0.26512940747E+03  0.00000000000E+00 0. -1.
         21   -1    0    0  501  502 -0.00000000000E+00 -0.00000000000E+00 -0.42719467911E+03  0.42719467911E+03  0.00000000000E+00 0. -1.
         25    1    1    2    0    0  0.67117886578E+02  0.13507594468E+03 -0.17818875152E+03  0.26481418522E+03  0.12500000000E+03 0.  0.
         25    1    1    2    0    0 -0.18612553669E+02 -0.19576678177E+03  0.10499925245E+03  0.25557954342E+03  0.12500000000E+03 0.  0.
         25    1    1    2    0    0 -0.48505332909E+02  0.60690837098E+02 -0.88875772581E+02  0.17193035794E+03  0.12500000000E+03 0.  0.
</event>
<event>
 5    0  0.5648525E-005  0.2956753E+03  0.7546771E-02  0.1087423E+00
         21   -1    0    0  502  501  0.00000000000E+00  0.00000000000E+00  0.10312098265E+03  0.10312098265E+03  0.00000000000E+00 0. -1.
         21   -1    0    0  501  502 -0.00000000000E+00 -0.00000000000E+00 -0.84777955272E+03  0.84777955272E+03  0.00000000000E+00 0. -1.
         25    1    1    2    0    0  0.18082233721E+02  0.14428994298E+02 -0.26203637301E+03  0.29124426833E+03  0.12500000000E+03 0.  0.
         25    1    1    2    0    0 -0.32737545826E+02 -0.83356995810E+02  0.24657547733E+01  0.15378951721E+03  0.12500000000E+03 0.  0.
         25    1    1    2    0    0  0.14655312105E+02  0.68928001512E+02 -0.48508795184E+03  0.50586674983E+03  0.12500000000E+03 0.  0.
</event>
<event>
 5    0  0.5648525E-005  0.3228871E+03  0.7546771E-02  0.1074328E+00
         21   -1    0    0  502  501  0.00000000000E+00  0.00000000000E+00  0.87383150164E+03  0.87383150164E+03  0.00000000000E+00 0.  1.
         21   -1    0    0  501  502 -0.00000000000E+00 -0.00000000000E+00 -0.11930916698E+03  0.11930916698E+03  0.00000000000E+00 0.  1.
         25    1    1    2    0    0  0.13110160385E+03  0.13687363056E+03  0.45879317544E+03  0.51189666838E+03  0.12500000000E+03 0.  0.
         25    1    1    2    0    0 -0.11220895993E+02 -0.16375056475E+02  0.22600762733E+03  0.25903377886E+03  0.12500000000E+03 0.  0.
         25    1    1    2    0    0 -0.11988070785E+03 -0.12049857408E+03  0.69721531899E+02  0.22221022137E+03  0.12500000000E+03 0.  0.
</event>
<event>
 5    0  0.5648525E-005  0.3921931E+03  0.7546771E-02  0.1046517E+00
         21   -1    0    0  502  501  0.00000000000E+00  0.00000000000E+00  0.27659428095E+03  0.27659428095E+03  0.00000000000E+00 0.  1.
         21   -1    0    0  501  502 -0.00000000000E+00 -0.00000000000E+00 -0.55610484935E+03  0.55610484935E+03  0.00000000000E+00 0.  1.
         25    1    1    2    0    0 -0.89909132016E+02  0.52891732890E+02 -0.45811562276E+02  0.16912979237E+03  0.12500000000E+03 0.  0.
         25    1    1    2    0    0 -0.47093234900E+02 -0.87606241427E+02 -0.38814999090E+03  0.41973568081E+03  0.12500000000E+03 0.  0.
         25    1    1    2    0    0  0.13700236692E+03  0.34714508536E+02  0.15445098478E+03  0.24383365711E+03  0.12500000000E+03 0.  0.
</event>
<event>
 5    0  0.5648525E-005  0.2938861E+03  0.7546771E-02  0.1088337E+00
         21   -1    0    0  502  501  0.00000000000E+00  0.00000000000E+00  0.17593083145E+04  0.17593083145E+04  0.00000000000E+00 0.  1.
         21   -1    0    0  501  502 -0.00000000000E+00 -0.00000000000E+00 -0.49092620423E+02  0.49092620423E+02  0.00000000000E+00 0.  1.
         25    1    1    2    0    0 -0.19311287474E+03  0.41730347185E+02  0.82059068440E+03  0.85324561270E+03  0.12500000000E+03 0.  0.
         25    1    1    2    0    0  0.17140173888E+03 -0.56714012207E+02  0.54160670450E+03  0.58442951468E+03  0.12500000000E+03 0.  0.
         25    1    1    2    0    0  0.21711135859E+02  0.14983665022E+02  0.34801830513E+03  0.37072580749E+03  0.12500000000E+03 0.  0.
</event>
<event>
 5    0  0.5648525E-005  0.2529853E+03  0.7546771E-02  0.1111433E+00
         21   -1    0    0  502  501  0.00000000000E+00  0.00000000000E+00  0.31781519091E+02  0.31781519091E+02  0.00000000000E+00 0. -1.
         21   -1    0    0  501  502 -0.00000000000E+00 -0.00000000000E+00 -0.20137982152E+04  0.20137982152E+04  0.00000000000E+00 0. -1.
         25    1    1    2    0    0  0.26320055846E+02  0.28147227321E+02 -0.24701368321E+03  0.27950987718E+03  0.12500000000E+03 0.  0.
         25    1    1    2    0    0 -0.11427201264E+03 -0.72658076122E+01 -0.10746762151E+04  0.10879636263E+04  0.12500000000E+03 0.  0.
         25    1    1    2    0    0  0.87951956792E+02 -0.20881419709E+02 -0.66032679779E+03  0.67810623082E+03  0.12500000000E+03 0.  0.
</event>
<event>
 5    0  0.5648525E-005  0.3758898E+03  0.7546771E-02  0.1052463E+00
         21   -1    0    0  502  501  0.00000000000E+00  0.00000000000E+00  0.63868640181E+02  0.63868640181E+02  0.00000000000E+00 0.  1.
         21   -1    0    0  501  502 -0.00000000000E+00 -0.00000000000E+00 -0.22122464226E+04  0.22122464226E+04  0.00000000000E+00 0.  1.
         25    1    1    2    0    0 -0.76824494005E+02  0.13371312925E+03 -0.25254261965E+03  0.32122263082E+03  0.12500000000E+03 0.  0.
         25    1    1    2    0    0 -0.14443127170E+03 -0.79221386844E+02 -0.64487007422E+03  0.67721402304E+03  0.12500000000E+03 0.  0.
         25    1    1    2    0    0  0.22125576570E+03 -0.54491742402E+02 -0.12509650886E+04  0.12776784089E+04  0.12500000000E+03 0.  0.
</event>
<event>
 5    0  0.5648525E-005  0.3377748E+03  0.7546771E-02  0.1067748E+00
         21   -1    0    0  502  501  0.00000000000E+00  0.00000000000E+00  0.19926675261E+03  0.19926675261E+03  0.00000000000E+00 0. -1.
         21   -1    0    0  501  502 -0.00000000000E+00 -0.00000000000E+00 -0.57255812884E+03  0.57255812884E+03  0.00000000000E+00 0. -1.
         25    1    1    2    0    0  0.15058529719E+03  0.78418106947E+02  0.64973408950E+02  0.22061703266E+03  0.12500000000E+03 0.  0.
         25    1    1    2    0    0 -0.12088263190E+03  0.12541018531E+02 -0.26397955139E+03  0.31635437628E+03  0.12500000000E+03 0.  0.
         25    1    1    2    0    0 -0.29702665290E+02 -0.90959125478E+02 -0.17428523379E+03  0.23485347251E+03  0.12500000000E+03 0.  0.
</event>
<event>
 5    0  0.5648525E-005  0.3397145E+03  0.7546771E-02  0.1066918E+00
         21   -1    0    0  502  501  0.00000000000E+00  0.00000000000E+00  0.79965382975E+03  0.79965382975E+03  0.00000000000E+00 0.  1.
         21   -1    0    0  501  502 -0.00000000000E+00 -0.00000000000E+00 -0.14431987102E+03  0.14431987102E+03  0.00000000000E+00 0.  1.
         25    1    1    2    0    0 -0.55461402494E+02  0.17232499844E+03  0.14172356918E+03  0.26169150218E+03  0.12500000000E+03 0.  0.
         25    1    1    2    0    0 -0.13686853222E+03 -0.76476159670E+02  0.23128189417E+03  0.30610114779E+03  0.12500000000E+03 0.  0.
         25    1    1    2    0    0  0.19232993471E+03 -0.95848838768E+02  0.28232849539E+03  0.37618105081E+03  0.12500000000E+03 0.  0.
</event>
<event>
 5    0  0.5648525E-005  0.2434579E+03  0.7546771E-02  0.1117510E+00
         21   -1    0    0  502  501  0.00000000000E+00  0.00000000000E+00  0.16561446731E+03  0.16561446731E+03  0.00000000000E+00 0. -1.
         21   -1    0    0  501  502 -0.00000000000E+00 -0.00000000000E+00 -0.35789003332E+03  0.35789003332E+03  0.00000000000E+00 0. -1.
         25    1    1    2    0    0  0.42167280440E+02 -0.54310412402E+02 -0.15782775598E+03  0.21274938541E+03  0.12500000000E+03 0.  0.
         25    1    1    2    0    0 -0.33081058345E+02  0.70315572601E+02  0.53723602329E+02  0.15668395457E+03  0.12500000000E+03 0.  0.
         25    1    1    2    0    0 -0.90862220951E+01 -0.16005160199E+02 -0.88171412362E+02  0.15407116065E+03  0.12500000000E+03 0.  0.
</event>
<event>
 5    0  0.5648525E-005  0.2269443E+03  0.7546771E-02  0.1128809E+00
         21   -1    0    0  502  501  0.00000000000E+00  0.00000000000E+00  0.11870966898E+04  0.11870966898E+04  0.00000000000E+00 0.  1.
         21   -1    0    0  501  502 -0.00000000000E+00 -0.00000000000E+00 -0.43386300716E+02  0.43386300716E+02  0.00000000000E+00 0.  1.
         25    1    1    2    0    0  0.80967386832E+02 -0.34922182239E+02  0.46281526448E+03  0.48744050465E+03  0.12500000000E+03 0.  0.
         25    1    1    2    0    0 -0.10480155374E+03  0.52843546265E+01  0.43464310260E+03  0.46427461347E+03  0.12500000000E+03 0.  0.
         25    1    1    2    0    0  0.23834166912E+02  0.29637827613E+02  0.24625202199E+03  0.27876787238E+03  0.12500000000E+03 0.  0.
</event>
<event>
 5    0  0.5648525E-005  0.3357772E+03  0.7546771E-02  0.1068609E+00
         21   -1    0    0  502  501  0.00000000000E+00  0.00000000000E+00  0.10746314541E+04  0.10746314541E+04  0.00000000000E+00 0.  1.
         21   -1    0    0  501  502 -0.00000000000E+00 -0.00000000000E+00 -0.10491625877E+03  0.10491625877E+03  0.00000000000E+00 0.  1.
         25    1    1    2    0    0 -0.28419795823E+02  0.74590907439E+01  0.70125161723E+02  0.14630741996E+03  0.12500000000E+03 0.  0.
         25    1    1    2    0    0 -0.62816644243E+02 -0.19181934770E+03  0.62230761250E+03  0.66605732300E+03  0.12500000000E+03 0.  0.
         25    1    1    2    0    0  0.91236440066E+02  0.18436025695E+03  0.27728242114E+03  0.36718296994E+03  0.12500000000E+03 0.  0.
</event>
<event>
 5    0  0.5648525E-005  0.2341328E+03  0.7546771E-02  0.1123764E+00
         21   -1    0    0  502  501  0.00000000000E+00  0.00000000000E+00  0.21573955095E+03  0.21573955095E+03  0.00000000000E+00 0.  1.
         21   -1    0    0  501  502 -0.00000000000E+00 -0.00000000000E+00 -0.25409427521E+03  0.25409427521E+03  0.00000000000E+00 0.  1.
         25    1    1    2    0    0  0.59063591769E+02 -0.35767096729E+02 -0.11322685218E+03  0.18224465187E+03  0.12500000000E+03 0.  0.
         25    1    1    2    0    0 -0.59140820453E+02  0.56276632279E+02  0.24618621877E+02  0.15131349090E+03  0.12500000000E+03 0.  0.
         25    1    1    2    0    0  0.77228684465E-01 -0.20509535549E+02  0.50253506046E+02  0.13627568339E+03  0.12500000000E+03 0.  0.
</event>
<event>
 5    0  0.5961521E-005  0.2826488E+03  0.7546771E-02  0.1094251E+00
         21   -1    0    0  502  501  0.00000000000E+00  0.00000000000E+00  0.67732980852E+03  0.67732980852E+03  0.00000000000E+00 0. -1.
         21   -1    0    0  501  502 -0.00000000000E+00 -0.00000000000E+00 -0.11794891958E+03  0.11794891958E+03  0.00000000000E+00 0. -1.
         25    1    1    2    0    0  0.13047148183E+03 -0.47700845143E+02  0.14505259356E+03  0.23656591702E+03  0.12500000000E+03 0.  0.
         25    1    1    2    0    0 -0.14796301889E+03 -0.57284816290E+02  0.28698059422E+03  0.35093798112E+03  0.12500000000E+03 0.  0.
         25    1    1    2    0    0  0.17491537065E+02  0.10498566143E+03  0.12734770116E+03  0.20777482996E+03  0.12500000000E+03 0.  0.
</event>
<event>
 5    0  0.5648525E-005  0.2514245E+03  0.7546771E-02  0.1112408E+00
         21   -1    0    0  502  501  0.00000000000E+00  0.00000000000E+00  0.11489860046E+03  0.11489860046E+03  0.00000000000E+00 0.  1.
         21   -1    0    0  501  502 -0.00000000000E+00 -0.00000000000E+00 -0.55017447737E+03  0.55017447737E+03  0.00000000000E+00 0.  1.
         25    1    1    2    0    0  0.15827348715E+02  0.40133566931E+02 -0.24502569751E+03  0.27843096201E+03  0.12500000000E+03 0.  0.
         25    1    1    2    0    0 -0.55622141438E+02 -0.11099572002E+03 -0.52967698359E+02  0.18396861023E+03  0.12500000000E+03 0.  0.
         25    1    1    2    0    0  0.39794792723E+02  0.70862153093E+02 -0.13728248104E+03  0.20267350559E+03  0.12500000000E+03 0.  0.
</event>
<event>
 5    0  0.5648525E-005  0.2545428E+03  0.7546771E-02  0.1110467E+00
         21   -1    0    0  502  501  0.00000000000E+00  0.00000000000E+00  0.61687531845E+02  0.61687531845E+02  0.00000000000E+00 0. -1.
         21   -1    0    0  501  502 -0.00000000000E+00 -0.00000000000E+00 -0.10503260729E+04  0.10503260729E+04  0.00000000000E+00 0. -1.
         25    1    1    2    0    0 -0.83800764864E+01 -0.10740420786E+03 -0.41921865408E+03  0.45052765672E+03  0.12500000000E+03 0.  0.
         25    1    1    2    0    0  0.68495522618E+02  0.13155820676E+03 -0.36386579054E+03  0.41233786136E+03  0.12500000000E+03 0.  0.
         25    1    1    2    0    0 -0.60115446132E+02 -0.24153998899E+02 -0.20555409646E+03  0.24914808668E+03  0.12500000000E+03 0.  0.
</event>
<event>
 5    0  0.5648525E-005  0.2903894E+03  0.7546771E-02  0.1090146E+00
         21   -1    0    0  502  501  0.00000000000E+00  0.00000000000E+00  0.10913380693E+03  0.10913380693E+03  0.00000000000E+00 0.  1.
         21   -1    0    0  501  502 -0.00000000000E+00 -0.00000000000E+00 -0.77268478470E+03  0.77268478470E+03  0.00000000000E+00 0.  1.
         25    1    1    2    0    0 -0.53676951737E+02 -0.96120001957E+02 -0.80345624266E+02  0.18493428363E+03  0.12500000000E+03 0.  0.
         25    1    1    2    0    0 -0.43613106357E+02 -0.71342749978E+02 -0.24910396336E+03  0.29098054159E+03  0.12500000000E+03 0.  0.
         25    1    1    2    0    0  0.97290058095E+02  0.16746275193E+03 -0.33410139013E+03  0.40590376640E+03  0.12500000000E+03 0.  0.
</event>
<event>
 5    0  0.5648525E-005  0.4355177E+03  0.7546771E-02  0.1032131E+00
         21   -1    0    0  502  501  0.00000000000E+00  0.00000000000E+00  0.61305335051E+03  0.61305335051E+03  0.00000000000E+00 0. -1.
         21   -1    0    0  501  502 -0.00000000000E+00 -0.00000000000E+00 -0.30939502943E+03  0.30939502943E+03  0.00000000000E+00 0. -1.
         25    1    1    2    0    0 -0.99955300517E+01 -0.21695612469E+03 -0.15398220713E+03  0.29411798784E+03  0.12500000000E+03 0.  0.
         25    1    1    2    0    0 -0.11881552620E+03  0.56749387719E+02  0.13690809344E+03  0.22739051942E+03  0.12500000000E+03 0.  0.
         25    1    1    2    0    0  0.12881105626E+03  0.16020673697E+03  0.32073243477E+03  0.40093987267E+03  0.12500000000E+03 0.  0.
</event>
<event>
 5    0  0.5648525E-005  0.2805685E+03  0.7546771E-02  0.1095379E+00
         21   -1    0    0  502  501  0.00000000000E+00  0.00000000000E+00  0.23635621246E+03  0.23635621246E+03  0.00000000000E+00 0.  1.
         21   -1    0    0  501  502 -0.00000000000E+00 -0.00000000000E+00 -0.33305101274E+03  0.33305101274E+03  0.00000000000E+00 0.  1.
         25    1    1    2    0    0  0.80288214989E+02 -0.60135749317E+02  0.41612532891E+02  0.16558716347E+03  0.12500000000E+03 0.  0.
         25    1    1    2    0    0 -0.73007722036E+02  0.13714279526E+03 -0.15943940807E+03  0.25531196332E+03  0.12500000000E+03 0.  0.
         25    1    1    2    0    0 -0.72804929530E+01 -0.77007045947E+02  0.21132074900E+02  0.14850809841E+03  0.12500000000E+03 0.  0.
</event>
<event>
 5    0  0.5648525E-005  0.3117228E+03  0.7546771E-02  0.1079523E+00
         21   -1    0    0  502  501  0.00000000000E+00  0.00000000000E+00  0.94242572817E+03  0.94242572817E+03  0.00000000000E+00 0. -1.
         21   -1    0    0  501  502 -0.00000000000E+00 -0.00000000000E+00 -0.10310744139E+03  0.10310744139E+03  0.00000000000E+00 0. -1.
         25    1    1    2    0    0  0.69043219128E+02 -0.20487165158E+03  0.39531535768E+03  0.46758805775E+03  0.12500000000E+03 0.  0.
         25    1    1    2    0    0  0.46138577015E+02  0.11583242003E+03  0.18654263874E+03  0.25684445465E+03  0.12500000000E+03 0.  0.
         25    1    1    2    0    0 -0.11518179614E+03  0.89039231551E+02  0.25746029036E+03  0.32110065716E+03  0.12500000000E+03 0.  0.
</event>
<event>
 5    0  0.5648525E-005  0.3287810E+03  0.7546771E-02  0.1071678E+00
         21   -1    0    0  502  501  0.00000000000E+00  0.00000000000E+00  0.39319047200E+03  0.39319047200E+03  0.00000000000E+00 0.  1.
         21   -1    0    0  501  502 -0.00000000000E+00 -0.00000000000E+00 -0.27492254768E+03  0.27492254768E+03  0.00000000000E+00 0.  1.
         25    1    1    2    0    0 -0.99319803337E+01 -0.94645616271E+01 -0.10934221083E+03  0.16664015491E+03  0.12500000000E+03 0.  0.
         25    1    1    2    0    0 -0.80068472534E+02 -0.14982387342E+03  0.17419442342E+03  0.27354496977E+03  0.12500000000E+03 0.  0.
         25    1    1    2    0    0  0.90000452868E+02  0.15928843504E+03  0.53415711734E+02  0.22792789499E+03  0.12500000000E+03 0.  0.
</event>
<event>
 5    0  0.5856492E-005  0.2920345E+03  0.7546771E-02  0.1089292E+00
         21   -1    0    0  502  501  0.00000000000E+00  0.00000000000E+00  0.37983130421E+03  0.37983130421E+03  0.00000000000E+00 0.  1.
         21   -1    0    0  501  502 -0.00000000000E+00 -0.00000000000E+00 -0.22453170578E+03  0.22453170578E+03  0.00000000000E+00 0.  1.
         25    1    1    2    0    0  0.95959088864E+02  0.48380783394E+02  0.12553741375E+03  0.20720397966E+03  0.12500000000E+03 0.  0.
         25    1    1    2    0    0 -0.92526403146E+01 -0.24130299456E+02  0.15345031132E+03  0.19959930047E+03  0.12500000000E+03 0.  0.
         25    1    1    2    0    0 -0.86706448550E+02 -0.24250483937E+02 -0.12368812663E+03  0.19755972986E+03  0.12500000000E+03 0.  0.
</event>
<event>
 5    0  0.5648525E-005  0.5724494E+03  0.7546771E-02  0.9964273E-01
         21   -1    0    0  502  501  0.00000000000E+00  0.00000000000E+00  0.28244244179E+03  0.28244244179E+03  0.00000000000E+00 0.  1.
         21   -1    0    0  501  502 -0.00000000000E+00 -0.00000000000E+00 -0.11602303208E+04  0.11602303208E+04  0.00000000000E+00 0.  1.
         25    1    1    2    0    0 -0.12954756918E+03  0.22091527514E+03  0.79111643331E+02  0.29575290967E+03  0.12500000000E+03 0.  0.
         25    1    1    2    0    0 -0.95826061894E+02  0.48629427960E+02 -0.59726703226E+02  0.17532750634E+03  0.12500000000E+03 0.  0.
         25    1    1    2    0    0  0.22537363107E+03 -0.26954470310E+03 -0.89717281912E+03  0.97159234657E+03  0.12500000000E+03 0.  0.
</event>
<event>
 5    0  0.5648525E-005  0.3247908E+03  0.7546771E-02  0.1073465E+00
         21   -1    0    0  502  501  0.00000000000E+00  0.00000000000E+00  0.30960701819E+03  0.30960701819E+03  0.00000000000E+00 0.  1.
         21   -1    0    0  501  502 -0.00000000000E+00 -0.00000000000E+00 -0.34071917029E+03  0.34071917029E+03  0.00000000000E+00 0.  1.
         25    1    1    2    0    0  0.14884432185E+03 -0.14644928710E+02 -0.41252623834E+02  0.19923826203E+03  0.12500000000E+03 0.  0.
         25    1    1    2    0    0 -0.16918587464E+02  0.14949929745E+03  0.84218313788E+02  0.21296479267E+03  0.12500000000E+03 0.  0.
         25    1    1    2    0    0 -0.13192573438E+03 -0.13485436874E+03 -0.74077842052E+02  0.23812313379E+03  0.12500000000E+03 0.  0.
</event>
<event>
 5    0  0.5648525E-005  0.2342219E+03  0.7546771E-02  0.1123703E+00
         21   -1    0    0  502  501  0.00000000000E+00  0.00000000000E+00  0.19786376809E+03  0.19786376809E+03  0.00000000000E+00 0. -1.
         21   -1    0    0  501  502 -0.00000000000E+00 -0.00000000000E+00 -0.27726100704E+03  0.27726100704E+03  0.00000000000E+00 0. -1.
         25    1    1    2    0    0  0.20782708059E+02 -0.88574148584E+02 -0.55163453708E+02  0.16415025853E+03  0.12500000000E+03 0.  0.
         25    1    1    2    0    0  0.20365085830E+02  0.97891392016E+02 -0.65189755888E+02  0.17283566074E+03  0.12500000000E+03 0.  0.
         25    1    1    2    0    0 -0.41147793889E+02 -0.93172434325E+01  0.40955970644E+02  0.13813885586E+03  0.12500000000E+03 0.  0.
</event>
<event>
 5    0  0.5648525E-005  0.2390459E+03  0.7546771E-02  0.1120430E+00
         21   -1    0    0  502  501  0.00000000000E+00  0.00000000000E+00  0.20305531327E+03  0.20305531327E+03  0.00000000000E+00 0.  1.
         21   -1    0    0  501  502 -0.00000000000E+00 -0.00000000000E+00 -0.28141573085E+03  0.28141573085E+03  0.00000000000E+00 0.  1.
         25    1    1    2    0    0  0.11149411137E+03 -0.36891655944E+02 -0.78483012687E+02  0.18861737574E+03  0.12500000000E+03 0.  0.
         25    1    1    2    0    0 -0.69363430536E+01 -0.11830487629E+02 -0.12616455188E+01  0.12575637177E+03  0.12500000000E+03 0.  0.
         25    1    1    2    0    0 -0.10455776832E+03  0.48722143573E+02  0.13842406287E+01  0.17009729660E+03  0.12500000000E+03 0.  0.
</event>
<event>
 5    0  0.5648525E-005  0.4131208E+03  0.7546771E-02  0.1039329E+00
         21   -1    0    0  502  501  0.00000000000E+00  0.00000000000E+00  0.17722803014E+03  0.17722803014E+03  0.00000000000E+00 0. -1.
         21   -1    0    0  501  502 -0.00000000000E+00 -0.00000000000E+00 -0.96298998907E+03  0.96298998907E+03  0.00000000000E+00 0. -1.
         25    1    1    2    0    0 -0.12462437864E+03 -0.13267799759E+03  0.28411843729E+02  0.22263629457E+03  0.12500000000E+03 0.  0.
         25    1    1    2    0    0 -0.64973775262E+02  0.12303568412E+03 -0.27633632517E+03  0.33368568391E+03  0.12500000000E+03 0.  0.
         25    1    1    2    0    0  0.18959815391E+03  0.96423134667E+01 -0.53783747749E+03  0.58389604072E+03  0.12500000000E+03 0.  0.
</event>
<event>
 5    0  0.5648525E-005  0.3895623E+03  0.7546771E-02  0.1047455E+00
         21   -1    0    0  502  501  0.00000000000E+00  0.00000000000E+00  0.51825146781E+03  0.51825146781E+03  0.00000000000E+00 0.  1.
         21   -1    0    0  501  502 -0.00000000000E+00 -0.00000000000E+00 -0.29282841022E+03  0.29282841022E+03  0.00000000000E+00 0.  1.
         25    1    1    2    0    0  0.10716304781E+03 -0.36589595098E+02 -0.80559453723E+02  0.18691587110E+03  0.12500000000E+03 0.  0.
         25    1    1    2    0    0 -0.11822635875E+02 -0.22241845588E+02  0.40818688727E+03  0.42764004648E+03  0.12500000000E+03 0.  0.
         25    1    1    2    0    0 -0.95340411936E+02  0.58831440686E+02 -0.10220437596E+03  0.19652396044E+03  0.12500000000E+03 0.  0.
</event>
<event>
 5    0  0.5648525E-005  0.2705109E+03  0.7546771E-02  0.1100988E+00
         21   -1    0    0  502  501  0.00000000000E+00  0.00000000000E+00  0.18947168160E+03  0.18947168160E+03  0.00000000000E+00 0. -1.
         21   -1    0    0  501  502 -0.00000000000E+00 -0.00000000000E+00 -0.38621154667E+03  0.38621154667E+03  0.00000000000E+00 0. -1.
         25    1    1    2    0    0 -0.60461332408E+02  0.98015683468E+02  0.32293518598E+02  0.17300438800E+03  0.12500000000E+03 0.  0.
         25    1    1    2    0    0  0.12266952337E+03 -0.60142774344E+02 -0.14652836581E+03  0.23613667072E+03  0.12500000000E+03 0.  0.
         25    1    1    2    0    0 -0.62208190963E+02 -0.37872909124E+02 -0.82505017863E+02  0.16654216956E+03  0.12500000000E+03 0.  0.
</event>
<event>
 5    0  0.5648525E-005  0.3006761E+03  0.7546771E-02  0.1084903E+00
         21   -1    0    0  502  501  0.00000000000E+00  0.00000000000E+00  0.76037610296E+03  0.76037610296E+03  0.00000000000E+00 0.  1.
         21   -1    0    0  501  502 -0.00000000000E+00 -0.00000000000E+00 -0.11889660138E+03  0.11889660138E+03  0.00000000000E+00 0.  1.
         25    1    1    2    0    0 -0.41898559892E+02 -0.14769715497E+03  0.49750568597E+03  0.53545013445E+03  0.12500000000E+03 0.  0.
         25    1    1    2    0    0  0.72978436876E+02  0.73348935740E+02  0.90360422582E+02  0.18573078526E+03  0.12500000000E+03 0.  0.
         25    1    1    2    0    0 -0.31079876984E+02  0.74348219228E+02  0.53613393025E+02  0.15809178463E+03  0.12500000000E+03 0.  0.
</event>
<event>
 5    0  0.6463895E-005  0.2959030E+03  0.7546771E-02  0.1087307E+00
         21   -1    0    0  502  501  0.00000000000E+00  0.00000000000E+00  0.48981730694E+03  0.48981730694E+03  0.00000000000E+00 0. -1.
         21   -1    0    0  501  502 -0.00000000000E+00 -0.00000000000E+00 -0.17875764190E+03  0.17875764190E+03  0.00000000000E+00 0. -1.
         25    1    1    2    0    0  0.66220919691E+02 -0.16824703886E+03 -0.28125122900E+01  0.21982990360E+03  0.12500000000E+03 0.  0.
         25    1    1    2    0    0 -0.18277384318E+02  0.41189547705E+02  0.16341143951E+03  0.21061562188E+03  0.12500000000E+03 0.  0.
         25    1    1    2    0    0 -0.47943535373E+02  0.12705749116E+03  0.15046073782E+03  0.23812942336E+03  0.12500000000E+03 0.  0.
</event>
<event>
 5    0  0.5648525E-005  0.3381496E+03  0.7546771E-02  0.1067587E+00
         21   -1    0    0  502  501  0.00000000000E+00  0.00000000000E+00  0.74576698803E+03  0.74576698803E+03  0.00000000000E+00 0. -1.
         21   -1    0    0  501  502 -0.00000000000E+00 -0.00000000000E+00 -0.15332558258E+03  0.15332558258E+03  0.00000000000E+00 0. -1.
         25    1    1    2    0    0  0.12110058841E+03 -0.14782837901E+03  0.10341453643E+03  0.25067538471E+03  0.12500000000E+03 0.  0.
         25    1    1    2    0    0 -0.17494672199E+03  0.51469613977E+02  0.14024491417E+03  0.26181885465E+03  0.12500000000E+03 0.  0.
         25    1    1    2    0    0  0.53846133576E+02  0.96358765038E+02  0.34878195485E+03  0.38659833126E+03  0.12500000000E+03 0.  0.
</event>
<event>
 5    0  0.5648525E-005  0.2172039E+03  0.7546771E-02  0.1135985E+00
         21   -1    0    0  502  501  0.00000000000E+00  0.00000000000E+00  0.10188046521E+03  0.10188046521E+03  0.00000000000E+00 0. -1.
         21   -1    0    0  501  502 -0.00000000000E+00 -0.00000000000E+00 -0.46306757049E+03  0.46306757049E+03  0.00000000000E+00 0. -1.
         25    1    1    2    0    0  0.74516230272E+01 -0.61433558242E+02 -0.45527919430E+02  0.14672218718E+03  0.12500000000E+03 0.  0.
         25    1    1    2    0    0  0.15876831443E+02  0.73396186668E+02 -0.15213216213E+03  0.21073269501E+03  0.12500000000E+03 0.  0.
         25    1    1    2    0    0 -0.23328454471E+02 -0.11962628426E+02 -0.16352702372E+03  0.20749315351E+03  0.12500000000E+03 0.  0.
</event>
<event>
 5    0  0.5648525E-005  0.2969215E+03  0.7546771E-02  0.1086790E+00
         21   -1    0    0  502  501  0.00000000000E+00  0.00000000000E+00  0.98230094106E+02  0.98230094106E+02  0.00000000000E+00 0. -1.
         21   -1    0    0  501  502 -0.00000000000E+00 -0.00000000000E+00 -0.89750909614E+03  0.89750909614E+03  0.00000000000E+00 0. -1.
         25    1    1    2    0    0  0.78560395471E+02  0.11880048964E+03 -0.18431859190E+03  0.26435513121E+03  0.12500000000E+03 0.  0.
         25    1    1    2    0    0 -0.66220391536E+02 -0.76769246542E+02 -0.56877715004E+03  0.59111006071E+03  0.12500000000E+03 0.  0.
         25    1    1    2    0    0 -0.12340003935E+02 -0.42031243098E+02 -0.46183260094E+02  0.14027399833E+03  0.12500000000E+03 0.  0.
</event>
<event>
 5    0  0.5648525E-005  0.5574689E+03  0.7546771E-02  0.9997798E-01
         21   -1    0    0  502  501  0.00000000000E+00  0.00000000000E+00  0.14757290654E+04  0.14757290654E+04  0.00000000000E+00 0. -1.
         21   -1    0    0  501  502 -0.00000000000E+00 -0.00000000000E+00 -0.21058851556E+03  0.21058851556E+03  0.00000000000E+00 0. -1.
         25    1    1    2    0    0 -0.20654642769E+03 -0.21674670948E+03  0.32024123264E+02  0.32602316993E+03  0.12500000000E+03 0.  0.
         25    1    1    2    0    0  0.87433836621E+02 -0.32049041623E+02  0.88614497288E+03  0.89974981512E+03  0.12500000000E+03 0.  0.
         25    1    1    2    0    0  0.11911259107E+03  0.24879575110E+03  0.34697145365E+03  0.46054459585E+03  0.12500000000E+03 0.  0.
</event>
<event>
 5    0  0.5648525E-005  0.2872024E+03  0.7546771E-02  0.1091819E+00
         21   -1    0    0  502  501  0.00000000000E+00  0.00000000000E+00  0.36679397601E+03  0.36679397601E+03  0.00000000000E+00 0. -1.
         21   -1    0    0  501  502 -0.00000000000E+00 -0.00000000000E+00 -0.22488158310E+03  0.22488158310E+03  0.00000000000E+00 0. -1.
         25    1    1    2    0    0  0.99021533453E+02  0.64646282763E+02  0.71228499832E+02  0.18623346947E+03  0.12500000000E+03 0.  0.
         25    1    1    2    0    0  0.94095602085E+02  0.62246500506E+01  0.47445223736E+02  0.16361166785E+03  0.12500000000E+03 0.  0.
         25    1    1    2    0    0 -0.19311713554E+03 -0.70870932813E+02  0.23238669341E+02  0.24183042180E+03  0.12500000000E+03 0.  0.
</event>
<event>
 5    0  0.5648525E-005  0.4951053E+03  0.7546771E-02  0.1015064E+00
         21   -1    0    0  502  501  0.00000000000E+00  0.00000000000E+00  0.16290604638E+04  0.16290604638E+04  0.00000000000E+00 0. -1.
         21   -1    0    0  501  502 -0.00000000000E+00 -0.00000000000E+00 -0.15047279262E+03  0.15047279262E+03  0.00000000000E+00 0. -1.
         25    1    1    2    0    0  0.28341925995E+03 -0.30744107692E+03  0.52705907982E+03  0.68429727919E+03  0.12500000000E+03 0.  0.
         25    1    1    2    0    0 -0.27460468213E+03  0.14179969277E+03  0.54939596011E+03  0.64263193611E+03  0.12500000000E+03 0.  0.
         25    1    1    2    0    0 -0.88145778151E+01  0.16564138415E+03  0.40213263129E+03  0.45260404116E+03  0.12500000000E+03 0.  0.
</event>
<event>
 5    0  0.5821596E-005  0.3389233E+03  0.7546771E-02  0.1067255E+00
         21   -1    0    0  502  501  0.00000000000E+00  0.00000000000E+00  0.19454451308E+03  0.19454451308E+03  0.00000000000E+00 0.  1.
         21   -1    0    0  501  502 -0.00000000000E+00 -0.00000000000E+00 -0.59045099946E+03  0.59045099946E+03  0.00000000000E+00 0.  1.
         25    1    1    2    0    0 -0.80150429316E+02  0.16858583884E+03 -0.69501624989E+02  0.23516111977E+03  0.12500000000E+03 0.  0.
         25    1    1    2    0    0 -0.34803617552E+02 -0.18844931188E+03 -0.65668653628E+02  0.23803740675E+03  0.12500000000E+03 0.  0.
         25    1    1    2    0    0  0.11495404687E+03  0.19863473036E+02 -0.26073620776E+03  0.31179698602E+03  0.12500000000E+03 0.  0.
</event>
<event>
 5    0  0.5648525E-005  0.2734903E+03  0.7546771E-02  0.1099298E+00
         21   -1    0    0  502  501  0.00000000000E+00  0.00000000000E+00  0.16160591424E+03  0.16160591424E+03  0.00000000000E+00 0. -1.
         21   -1    0    0  501  502 -0.00000000000E+00 -0.00000000000E+00 -0.46283546109E+03  0.46283546109E+03  0.00000000000E+00 0. -1.
         25    1    1    2    0    0  0.15661756666E+02 -0.12377091964E+03 -0.15506788483E+03  0.23502250972E+03  0.12500000000E+03 0.  0.
         25    1    1    2    0    0 -0.24036165435E+02 -0.49871818388E+02 -0.13133231932E+02  0.13734051587E+03  0.12500000000E+03 0.  0.
         25    1    1    2    0    0  0.83744087685E+01  0.17364273803E+03 -0.13302843009E+03  0.25207834973E+03  0.12500000000E+03 0.  0.
</event>
<event>
 5    0  0.5648525E-005  0.3481028E+03  0.7546771E-02  0.1063396E+00
         21   -1    0    0  502  501  0.00000000000E+00  0.00000000000E+00  0.65554135620E+03  0.65554135620E+03  0.00000000000E+00 0. -1.
         21   -1    0    0  501  502 -0.00000000000E+00 -0.00000000000E+00 -0.18484809566E+03  0.18484809566E+03  0.00000000000E+00 0. -1.
         25    1    1    2    0    0 -0.16723181979E+03 -0.12118964786E+03  0.33300081967E+03  0.41130032603E+03  0.12500000000E+03 0.  0.
         25    1    1    2    0    0  0.49923129350E+02  0.17866409728E+03  0.96693541868E+02  0.24369616234E+03  0.12500000000E+03 0.  0.
         25    1    1    2    0    0  0.11730869044E+03 -0.57474449426E+02  0.40998899009E+02  0.18539296348E+03  0.12500000000E+03 0.  0.
</event>
<event>
 5    0  0.5648525E-005  0.2395937E+03  0.7546771E-02  0.1120064E+00
         21   -1    0    0  502  501  0.00000000000E+00  0.00000000000E+00  0.31272718045E+03  0.31272718045E+03  0.00000000000E+00 0. -1.
         21   -1    0    0  501  502 -0.00000000000E+00 -0.00000000000E+00 -0.18356299246E+03  0.18356299246E+03  0.00000000000E+00 0. -1.
         25    1    1    2    0    0  0.62442218644E+02  0.26544861013E+02  0.13245720798E+03  0.19435424426E+03  0.12500000000E+03 0.  0.
         25    1    1    2    0    0 -0.32881839408E+01 -0.58627487788E+02 -0.58009177298E+02  0.14979338813E+03  0.12500000000E+03 0.  0.
         25    1    1    2    0    0 -0.59154034703E+02  0.32082626775E+02  0.54716157313E+02  0.15214254051E+03  0.12500000000E+03 0.  0.
</event>
<event>
 5    0  0.5648525E-005  0.2910654E+03  0.7546771E-02  0.1089794E+00
         21   -1    0    0  502  501  0.00000000000E+00  0.00000000000E+00  0.83953207314E+02  0.83953207314E+02  0.00000000000E+00 0.  1.
         21   -1    0    0  501  502 -0.00000000000E+00 -0.00000000000E+00 -0.10091223935E+04  0.10091223935E+04  0.00000000000E+00 0.  1.
         25    1    1    2    0    0  0.94674900438E+02  0.12659432898E+03 -0.27052269452E+03  0.33733809325E+03  0.12500000000E+03 0.  0.
         25    1    1    2    0    0 -0.39941633102E+02 -0.18685170615E+03 -0.38761905633E+03  0.44986934434E+03  0.12500000000E+03 0.  0.
         25    1    1    2    0    0 -0.54733267337E+02  0.60257377166E+02 -0.26702743533E+03  0.30586816323E+03  0.12500000000E+03 0.  0.
</event>
<event>
 5    0  0.5648525E-005  0.5889359E+03  0.7546771E-02  0.9928630E-01
         21   -1    0    0  502  501  0.00000000000E+00  0.00000000000E+00  0.61281309992E+03  0.61281309992E+03  0.00000000000E+00 0.  1.
         21   -1    0    0  501  502 -0.00000000000E+00 -0.00000000000E+00 -0.56598896667E+03  0.56598896667E+03  0.00000000000E+00 0. -1.
         25    1    1    2    0    0 -0.43659026037E+02  0.69675900896E+02 -0.10125825588E+03  0.18066287971E+03  0.12500000000E+03 0.  0.
         25    1    1    2    0    0  0.26360108465E+03  0.22649573643E+03  0.39197943197E+03  0.53857100325E+03  0.12500000000E+03 0.  0.
         25    1    1    2    0    0 -0.21994205861E+03 -0.29617163733E+03 -0.24389704283E+03  0.45956818363E+03  0.12500000000E+03 0.  0.
</event>
<event>
 5    0  0.5648525E-005  0.3232153E+03  0.7546771E-02  0.1074179E+00
         21   -1    0    0  502  501  0.00000000000E+00  0.00000000000E+00  0.15583741017E+04  0.15583741017E+04  0.00000000000E+00 0. -1.
         21   -1    0    0  501  502 -0.00000000000E+00 -0.00000000000E+00 -0.67036626746E+02  0.67036626746E+02  0.00000000000E+00 0. -1.
         25    1    1    2    0    0 -0.85928474369E+02 -0.20816705583E+03  0.77439120676E+03  0.81610291444E+03  0.12500000000E+03 0.  0.
         25    1    1    2    0    0  0.82657860849E+02  0.16148051811E+03  0.30474851579E+03  0.37603847884E+03  0.12500000000E+03 0.  0.
         25    1    1    2    0    0  0.32706135204E+01  0.46686537716E+02  0.41219775237E+03  0.43326933515E+03  0.12500000000E+03 0.  0.
</event>
<event>
 5    0  0.5648525E-005  0.4498095E+03  0.7546771E-02  0.1027779E+00
         21   -1    0    0  502  501  0.00000000000E+00  0.00000000000E+00  0.56547764694E+03  0.56547764694E+03  0.00000000000E+00 0. -1.
         21   -1    0    0  501  502 -0.00000000000E+00 -0.00000000000E+00 -0.35780115379E+03  0.35780115379E+03  0.00000000000E+00 0. -1.
         25    1    1    2    0    0 -0.77706392171E+02  0.19624386574E+03  0.28976260287E+02  0.24701125862E+03  0.12500000000E+03 0.  0.
         25    1    1    2    0    0  0.17033623671E+02 -0.39119203983E+03  0.13703053906E+03  0.43327096025E+03  0.12500000000E+03 0.  0.
         25    1    1    2    0    0  0.60672768500E+02  0.19494817408E+03  0.41669693806E+02  0.24299658186E+03  0.12500000000E+03 0.  0.
</event>
<event>
 5    0  0.5648525E-005  0.2805747E+03  0.7546771E-02  0.1095375E+00
         21   -1    0    0  502  501  0.00000000000E+00  0.00000000000E+00  0.11721135229E+03  0.11721135229E+03  0.00000000000E+00 0. -1.
         21   -1    0    0  501  502 -0.00000000000E+00 -0.00000000000E+00 -0.67162555178E+03  0.67162555178E+03  0.00000000000E+00 0. -1.
         25    1    1    2    0    0 -0.19851328867E+02 -0.74505913067E+02 -0.91216574982E+02  0.17288918385E+03  0.12500000000E+03 0.  0.
         25    1    1    2    0    0 -0.83054008816E+02 -0.30139119815E+02 -0.37284109264E+03  0.40304071170E+03  0.12500000000E+03 0.  0.
         25    1    1    2    0    0  0.10290533768E+03  0.10464503288E+03 -0.90356531863E+02  0.21290700853E+03  0.12500000000E+03 0.  0.
</event>
<event>
 5    0  0.5648525E-005  0.6126183E+03  0.7546771E-02  0.9879567E-01
         21   -1    0    0  502  501  0.00000000000E+00  0.00000000000E+00  0.17664159105E+04  0.17664159105E+04  0.00000000000E+00 0.  1.
         21   -1    0    0  501  502 -0.00000000000E+00 -0.00000000000E+00 -0.21246481723E+03  0.21246481723E+03  0.00000000000E+00 0.  1.
         25    1    1    2    0    0  0.67467274902E+02 -0.89460139815E+02  0.73723317154E+03  0.75610362981E+03  0.12500000000E+03 0.  0.
         25    1    1    2    0    0 -0.67740046751E+02 -0.29005258225E+03  0.10752959944E+02  0.32320247609E+03  0.12500000000E+03 0.  0.
         25    1    1    2    0    0  0.27277184847E+00  0.37951272207E+03  0.80596496179E+03  0.89957462184E+03  0.12500000000E+03 0.  0.
</event>
<event>
 5    0  0.5648525E-005  0.2741954E+03  0.7546771E-02  0.1098902E+00
         21   -1    0    0  502  501  0.00000000000E+00  0.00000000000E+00  0.29911470900E+03  0.29911470900E+03  0.00000000000E+00 0. -1.
         21   -1    0    0  501  502 -0.00000000000E+00 -0.00000000000E+00 -0.25135218081E+03  0.25135218081E+03  0.00000000000E+00 0. -1.
         25    1    1    2    0    0  0.62187415223E+02 -0.31408775757E+02  0.51592910574E+02  0.15212039386E+03  0.12500000000E+03 0.  0.
         25    1    1    2    0    0 -0.15935586632E+03  0.84251220898E+02  0.46057394236E+02  0.22414023271E+03  0.12500000000E+03 0.  0.
         25    1    1    2    0    0  0.97168451098E+02 -0.52842445141E+02 -0.49887776621E+02  0.17420626324E+03  0.12500000000E+03 0.  0.
</event>
<event>
 5    0  0.6886433E-005  0.3294831E+03  0.7546771E-02  0.1071366E+00
         21   -1    0    0  502  501  0.00000000000E+00  0.00000000000E+00  0.15040393689E+03  0.15040393689E+03  0.00000000000E+00 0. -1.
         21   -1    0    0  501  502 -0.00000000000E+00 -0.00000000000E+00 -0.72178386648E+03  0.72178386648E+03  0.00000000000E+00 0. -1.
         25    1    1    2    0    0  0.60037569819E+02  0.19120365598E+03 -0.73805630852E+02  0.24745831769E+03  0.12500000000E+03 0.  0.
         25    1    1    2    0    0 -0.93927965679E+02 -0.10412346812E+03 -0.13907438667E+03  0.23373242047E+03  0.12500000000E+03 0.  0.
         25    1    1    2    0    0  0.33890395861E+02 -0.87080187862E+02 -0.35849991207E+03  0.39099706521E+03  0.12500000000E+03 0.  0.
</event>
<event>
 5    0  0.5648525E-005  0.2737575E+03  0.7546771E-02  0.1099148E+00
         21   -1    0    0  502  501  0.00000000000E+00  0.00000000000E+00  0.16192690166E+03  0.16192690166E+03  0.00000000000E+00 0. -1.
         21   -1    0    0  501  502 -0.00000000000E+00 -0.00000000000E+00 -0.46282104255E+03  0.46282104255E+03  0.00000000000E+00 0. -1.
         25    1    1    2    0    0 -0.19383350662E+02  0.56448113840E+02 -0.13835660258E+02  0.13920678623E+03  0.12500000000E+03 0.  0.
         25    1    1    2    0    0  0.90196265011E+02 -0.13348565395E+03 -0.73228470236E+02  0.21665916755E+03  0.12500000000E+03 0.  0.
         25    1    1    2    0    0 -0.70812914349E+02  0.77037540107E+02 -0.21383001040E+03  0.26888199042E+03  0.12500000000E+03 0.  0.
</event>
<event>
 5    0  0.5648525E-005  0.2429934E+03  0.7546771E-02  0.1117815E+00
         21   -1    0    0  502  501  0.00000000000E+00  0.00000000000E+00  0.59021543486E+03  0.59021543486E+03  0.00000000000E+00 0. -1.
         21   -1    0    0  501  502 -0.00000000000E+00 -0.00000000000E+00 -0.10004106994E+03  0.10004106994E+03  0.00000000000E+00 0. -1.
         25    1    1    2    0    0  0.41489410738E+02  0.35169920114E+02  0.52434663590E+01  0.13642136352E+03  0.12500000000E+03 0.  0.
         25    1    1    2    0    0 -0.13912535587E+02 -0.49460821812E+02  0.29332082369E+03  0.32295825915E+03  0.12500000000E+03 0.  0.
         25    1    1    2    0    0 -0.27576875151E+02  0.14290901698E+02  0.19161007487E+03  0.23087688214E+03  0.12500000000E+03 0.  0.
</event>
<event>
 5    0  0.5648525E-005  0.3413382E+03  0.7546771E-02  0.1066227E+00
         21   -1    0    0  502  501  0.00000000000E+00  0.00000000000E+00  0.14360395724E+03  0.14360395724E+03  0.00000000000E+00 0. -1.
         21   -1    0    0  501  502 -0.00000000000E+00 -0.00000000000E+00 -0.81134080010E+03  0.81134080010E+03  0.00000000000E+00 0. -1.
         25    1    1    2    0    0  0.62396940306E+02  0.34833426628E+02 -0.33989364630E+03  0.36913335878E+03  0.12500000000E+03 0.  0.
         25    1    1    2    0    0  0.11778663474E+03  0.63158114742E+02 -0.45460024919E+01  0.18305273809E+03  0.12500000000E+03 0.  0.
         25    1    1    2    0    0 -0.18018357505E+03 -0.97991541370E+02 -0.32329719406E+03  0.40275866047E+03  0.12500000000E+03 0.  0.
</event>
<event>
 5    0  0.5648525E-005  0.4636239E+03  0.7546771E-02  0.1023735E+00
         21   -1    0    0  502  501  0.00000000000E+00  0.00000000000E+00  0.29607188978E+03  0.29607188978E+03  0.00000000000E+00 0. -1.
         21   -1    0    0  501  502 -0.00000000000E+00 -0.00000000000E+00 -0.72599650784E+03  0.72599650784E+03  0.00000000000E+00 0. -1.
         25    1    1    2    0    0 -0.10038788542E+03  0.91388317622E+02 -0.52398073928E+03  0.55552710760E+03  0.12500000000E+03 0.  0.
         25    1    1    2    0    0 -0.10600406674E+03  0.56389522925E+02  0.23356199560E+02  0.17489183091E+03  0.12500000000E+03 0.  0.
         25    1    1    2    0    0  0.20639195216E+03 -0.14777784055E+03  0.70699921664E+02  0.29164945911E+03  0.12500000000E+03 0.  0.
</event>
<event>
 5    0  0.5648525E-005  0.2697900E+03  0.7546771E-02  0.1101400E+00
         21   -1    0    0  502  501  0.00000000000E+00  0.00000000000E+00  0.21061201163E+03  0.21061201163E+03  0.00000000000E+00 0.  1.
         21   -1    0    0  501  502 -0.00000000000E+00 -0.00000000000E+00 -0.34559596267E+03  0.34559596267E+03  0.00000000000E+00 0.  1.
         25    1    1    2    0    0 -0.28601584551E+02 -0.76452269852E+02 -0.18956703378E+03  0.24129579462E+03  0.12500000000E+03 0.  0.
         25    1    1    2    0    0  0.68717780259E+00  0.77168691959E+02  0.10144659589E+03  0.17852700370E+03  0.12500000000E+03 0.  0.
         25    1    1    2    0    0  0.27914406748E+02 -0.71642210615E+00 -0.46863513153E+02  0.13638517599E+03  0.12500000000E+03 0.  0.
</event>
<event>
 5    0  0.5648525E-005  0.4186391E+03  0.7546771E-02  0.1037510E+00
         21   -1    0    0  502  501  0.00000000000E+00  0.00000000000E+00  0.40462837844E+03  0.40462837844E+03  0.00000000000E+00 0. -1.
         21   -1    0    0  501  502 -0.00000000000E+00 -0.00000000000E+00 -0.43313497142E+03  0.43313497142E+03  0.00000000000E+00 0. -1.
         25    1    1    2    0    0 -0.73619366734E+02 -0.45397554938E+02 -0.14524199820E+03  0.21024030820E+03  0.12500000000E+03 0.  0.
         25    1    1    2    0    0  0.92668401780E+02  0.12402532262E+03  0.31923602395E+03  0.37617330092E+03  0.12500000000E+03 0.  0.
         25    1    1    2    0    0 -0.19049035046E+02 -0.78627767680E+02 -0.20250061873E+03  0.25134974075E+03  0.12500000000E+03 0.  0.
</event>
<event>
 5    0  0.5648525E-005  0.4989896E+03  0.7546771E-02  0.1014043E+00
         21   -1    0    0  502  501  0.00000000000E+00  0.00000000000E+00  0.22963867624E+04  0.22963867624E+04  0.00000000000E+00 0. -1.
         21   -1    0    0  501  502 -0.00000000000E+00 -0.00000000000E+00 -0.10842712799E+03  0.10842712799E+03  0.00000000000E+00 0. -1.
         25    1    1    2    0    0 -0.59266638503E+02 -0.14389501985E+03  0.85102469809E+02  0.21699249191E+03  0.12500000000E+03 0.  0.
         25    1    1    2    0    0  0.15706144116E+03  0.14001270179E+03  0.34600977497E+03  0.42381554636E+03  0.12500000000E+03 0.  0.
         25    1    1    2    0    0 -0.97794802656E+02  0.38823180616E+01  0.17568473896E+04  0.17640058521E+04  0.12500000000E+03 0.  0.
</event>
<event>
 5    0  0.5648525E-005  0.2460168E+03  0.7546771E-02  0.1115848E+00
         21   -1    0    0  502  501  0.00000000000E+00  0.00000000000E+00  0.11410978267E+04  0.11410978267E+04  0.00000000000E+00 0.  1.
         21   -1    0    0  501  502 -0.00000000000E+00 -0.00000000000E+00 -0.53040380407E+02  0.53040380407E+02  0.00000000000E+00 0.  1.
         25    1    1    2    0    0  0.56551034547E+02  0.75190989045E+02  0.67794042475E+03  0.69575852410E+03  0.12500000000E+03 0.  0.
         25    1    1    2    0    0 -0.52516488746E+02 -0.73093700034E+02  0.26753563132E+03  0.30870857552E+03  0.12500000000E+03 0.  0.
         25    1    1    2    0    0 -0.40345458008E+01 -0.20972890114E+01  0.14258139026E+03  0.18967110752E+03  0.12500000000E+03 0.  0.
</event>
<event>
 5    0  0.7442931E-005  0.7684938E+03  0.7546771E-02  0.9606775E-01
         21   -1    0    0  502  501  0.00000000000E+00  0.00000000000E+00  0.14997283207E+04  0.14997283207E+04  0.00000000000E+00 0.  1.
         21   -1    0    0  501  502 -0.00000000000E+00 -0.00000000000E+00 -0.39379318140E+03  0.39379318140E+03  0.00000000000E+00 0.  1.
         25    1    1    2    0    0 -0.19098622230E+02 -0.54977957333E+03  0.36392700899E+03  0.67133464419E+03  0.12500000000E+03 0.  0.
         25    1    1    2    0    0 -0.20323131758E+03  0.12225680953E+03 -0.63264628863E+02  0.27545799895E+03  0.12500000000E+03 0.  0.
         25    1    1    2    0    0  0.22232993981E+03  0.42752276380E+03  0.80527275913E+03  0.94672885891E+03  0.12500000000E+03 0.  0.
</event>
<event>
 5    0  0.5648525E-005  0.3768829E+03  0.7546771E-02  0.1052092E+00
         21   -1    0    0  502  501  0.00000000000E+00  0.00000000000E+00  0.23729197017E+03  0.23729197017E+03  0.00000000000E+00 0. -1.
         21   -1    0    0  501  502 -0.00000000000E+00 -0.00000000000E+00 -0.59859064591E+03  0.59859064591E+03  0.00000000000E+00 0. -1.
         25    1    1    2    0    0 -0.15974092104E+03 -0.11742185386E+03 -0.29468861616E+03  0.37652547605E+03  0.12500000000E+03 0.  0.
         25    1    1    2    0    0  0.43892052672E+02  0.20959553610E+03  0.16551335781E+02  0.24850703764E+03  0.12500000000E+03 0.  0.
         25    1    1    2    0    0  0.11584886837E+03 -0.92173682243E+02 -0.83161395365E+02  0.21085010239E+03  0.12500000000E+03 0.  0.
</event>
<event>
 5    0  0.5648525E-005  0.4095951E+03  0.7546771E-02  0.1040507E+00
         21   -1    0    0  502  501  0.00000000000E+00  0.00000000000E+00  0.26716281899E+03  0.26716281899E+03  0.00000000000E+00 0. -1.
         21   -1    0    0  501  502 -0.00000000000E+00 -0.00000000000E+00 -0.62796227747E+03  0.62796227747E+03  0.00000000000E+00 0. -1.
         25    1    1    2    0    0 -0.14423107814E+03  0.23497236005E+03 -0.18078193804E+03  0.35259285729E+03  0.12500000000E+03 0.  0.
         25    1    1    2    0    0  0.96931560426E+02 -0.21037485778E+02  0.81503394542E+02  0.17918176954E+03  0.12500000000E+03 0.  0.
         25    1    1    2    0    0  0.47299517718E+02 -0.21393487427E+03 -0.26152091497E+03  0.36335046962E+03  0.12500000000E+03 0.  0.
</event>
<event>
 5    0  0.6306454E-005  0.2794224E+03  0.7546771E-02  0.1096005E+00
         21   -1    0    0  502  501  0.00000000000E+00  0.00000000000E+00  0.60132212533E+03  0.60132212533E+03  0.00000000000E+00 0. -1.
         21   -1    0    0  501  502 -0.00000000000E+00 -0.00000000000E+00 -0.12984198661E+03  0.12984198661E+03  0.00000000000E+00 0. -1.
         25    1    1    2    0    0  0.74190526876E+02  0.75015897646E+02  0.19294214286E+03  0.25294918396E+03  0.12500000000E+03 0.  0.
         25    1    1    2    0    0 -0.16621711411E+03 -0.10027478525E+03  0.15284949149E+03  0.27689551934E+03  0.12500000000E+03 0.  0.
         25    1    1    2    0    0  0.92026587231E+02  0.25258887607E+02  0.12568850437E+03  0.20131940863E+03  0.12500000000E+03 0.  0.
</event>
<event>
 5    0  0.5648525E-005  0.2626826E+03  0.7546771E-02  0.1105542E+00
         21   -1    0    0  502  501  0.00000000000E+00  0.00000000000E+00  0.73901990618E+02  0.73901990618E+02  0.00000000000E+00 0. -1.
         21   -1    0    0  501  502 -0.00000000000E+00 -0.00000000000E+00 -0.93369792798E+03  0.93369792798E+03  0.00000000000E+00 0. -1.
         25    1    1    2    0    0  0.20339003619E+02 -0.72875068338E+02 -0.51471518903E+03  0.53505249880E+03  0.12500000000E+03 0.  0.
         25    1    1    2    0    0  0.26652528635E+02  0.50214140390E+02 -0.29976012464E+03  0.32971646835E+03  0.12500000000E+03 0.  0.
         25    1    1    2    0    0 -0.46991532255E+02  0.22660927948E+02 -0.45320623691E+02  0.14283095145E+03  0.12500000000E+03 0.  0.
</event>
<event>
 5    0  0.5648525E-005  0.4746875E+03  0.7546771E-02  0.1020605E+00
         21   -1    0    0  502  501  0.00000000000E+00  0.00000000000E+00  0.38463404833E+03  0.38463404833E+03  0.00000000000E+00 0.  1.
         21   -1    0    0  501  502 -0.00000000000E+00 -0.00000000000E+00 -0.58582494346E+03  0.58582494346E+03  0.00000000000E+00 0.  1.
         25    1    1    2    0    0  0.14739714366E+03  0.15819453387E+03 -0.32455110091E+03  0.40952392556E+03  0.12500000000E+03 0.  0.
         25    1    1    2    0    0  0.18483400083E+02  0.65733670347E+02  0.20047673193E+03  0.24592371081E+03  0.12500000000E+03 0.  0.
         25    1    1    2    0    0 -0.16588054374E+03 -0.22392820421E+03 -0.77116526142E+02  0.31501135541E+03  0.12500000000E+03 0.  0.
</event>
<event>
 5    0  0.5648525E-005  0.2486600E+03  0.7546771E-02  0.1114155E+00
         21   -1    0    0  502  501  0.00000000000E+00  0.00000000000E+00  0.12058972648E+03  0.12058972648E+03  0.00000000000E+00 0.  1.
         21   -1    0    0  501  502 -0.00000000000E+00 -0.00000000000E+00 -0.51274502154E+03  0.51274502154E+03  0.00000000000E+00 0.  1.
         25    1    1    2    0    0 -0.83157258275E+02 -0.60550213147E+01 -0.25090484666E+03  0.29245518454E+03  0.12500000000E+03 0.  0.
         25    1    1    2    0    0  0.54463990565E+02  0.76908832305E+02 -0.10926878676E+03  0.19090825680E+03  0.12500000000E+03 0.  0.
         25    1    1    2    0    0  0.28693267710E+02 -0.70853810990E+02 -0.31981661642E+02  0.14997130667E+03  0.12500000000E+03 0.  0.
</event>
<event>
 5    0  0.5648525E-005  0.4008122E+03  0.7546771E-02  0.1043499E+00
         21   -1    0    0  502  501  0.00000000000E+00  0.00000000000E+00  0.87467232714E+03  0.87467232714E+03  0.00000000000E+00 0. -1.
         21   -1    0    0  501  502 -0.00000000000E+00 -0.00000000000E+00 -0.18366924169E+03  0.18366924169E+03  0.00000000000E+00 0. -1.
         25    1    1    2    0    0  0.13070017166E+01  0.98976262882E+01  0.69887030049E+02  0.14355789156E+03  0.12500000000E+03 0.  0.
         25    1    1    2    0    0 -0.46668923864E+02 -0.31311038180E+03  0.32462184811E+03  0.47034077425E+03  0.12500000000E+03 0.  0.
         25    1    1    2    0    0  0.45361922148E+02  0.30321275552E+03  0.29649420730E+03  0.44444290303E+03  0.12500000000E+03 0.  0.
</event>
<event>
 5    0  0.5648525E-005  0.5633058E+03  0.7546771E-02  0.9984602E-01
         21   -1    0    0  502  501  0.00000000000E+00  0.00000000000E+00  0.39479600538E+03  0.39479600538E+03  0.00000000000E+00 0. -1.
         21   -1    0    0  501  502 -0.00000000000E+00 -0.00000000000E+00 -0.80374031949E+03  0.80374031949E+03  0.00000000000E+00 0. -1.
         25    1    1    2    0    0  0.13630565617E+03  0.20538700644E+03 -0.18456057550E+03  0.33234118064E+03  0.12500000000E+03 0.  0.
         25    1    1    2    0    0  0.11698036890E+03  0.12207255997E+03 -0.35661343766E+03  0.41398582165E+03  0.12500000000E+03 0.  0.
         25    1    1    2    0    0 -0.25328602506E+03 -0.32745956641E+03  0.13222969905E+03  0.45220932259E+03  0.12500000000E+03 0.  0.
</event>
<event>
 5    0  0.5648525E-005  0.3452069E+03  0.7546771E-02  0.1064600E+00
         21   -1    0    0  502  501  0.00000000000E+00  0.00000000000E+00  0.21158989688E+04  0.21158989688E+04  0.00000000000E+00 0.  1.
         21   -1    0    0  501  502 -0.00000000000E+00 -0.00000000000E+00 -0.56320167186E+02  0.56320167186E+02  0.00000000000E+00 0.  1.
         25    1    1    2    0    0 -0.27286409604E+02  0.76250676831E+02  0.31014883315E+03  0.34405815289E+03  0.12500000000E+03 0.  0.
         25    1    1    2    0    0 -0.41491639308E+02  0.18851364998E+03  0.75811536437E+03  0.79222651941E+03  0.12500000000E+03 0.  0.
         25    1    1    2    0    0  0.68778048911E+02 -0.26476432681E+03  0.99131460413E+03  0.10359344637E+04  0.12500000000E+03 0.  0.
</event>
<event>
 5    0  0.5648525E-005  0.2780052E+03  0.7546771E-02  0.1096783E+00
         21   -1    0    0  502  501  0.00000000000E+00  0.00000000000E+00  0.12544559940E+03  0.12544559940E+03  0.00000000000E+00 0. -1.
         21   -1    0    0  501  502 -0.00000000000E+00 -0.00000000000E+00 -0.61609871862E+03  0.61609871862E+03  0.00000000000E+00 0. -1.
         25    1    1    2    0    0 -0.29118309312E+02 -0.13799773202E+03 -0.49495675215E+02  0.19484884358E+03  0.12500000000E+03 0.  0.
         25    1    1    2    0    0 -0.14861121042E+02  0.77039700743E+00 -0.22950736433E+03  0.26176339834E+03  0.12500000000E+03 0.  0.
         25    1    1    2    0    0  0.43979430355E+02  0.13722733501E+03 -0.21165007968E+03  0.28493207611E+03  0.12500000000E+03 0.  0.
</event>
<event>
 5    0  0.5648525E-005  0.4285604E+03  0.7546771E-02  0.1034316E+00
         21   -1    0    0  502  501  0.00000000000E+00  0.00000000000E+00  0.16408000863E+03  0.16408000863E+03  0.00000000000E+00 0.  1.
         21   -1    0    0  501  502 -0.00000000000E+00 -0.00000000000E+00 -0.11193564952E+04  0.11193564952E+04  0.00000000000E+00 0.  1.
         25    1    1    2    0    0  0.87559017940E+02  0.96662880070E+01 -0.57503022385E+02  0.16337569076E+03  0.12500000000E+03 0.  0.
         25    1    1    2    0    0  0.16576022540E+03 -0.10931066213E+03 -0.77963725217E+02  0.24724201833E+03  0.12500000000E+03 0.  0.
         25    1    1    2    0    0 -0.25331924334E+03  0.99644374120E+02 -0.81980973893E+03  0.87281879470E+03  0.12500000000E+03 0.  0.
</event>
<event>
 5    0  0.5648525E-005  0.3226070E+03  0.7546771E-02  0.1074456E+00
         21   -1    0    0  502  501  0.00000000000E+00  0.00000000000E+00  0.46320651115E+03  0.46320651115E+03  0.00000000000E+00 0. -1.
         21   -1    0    0  501  502 -0.00000000000E+00 -0.00000000000E+00 -0.22468444979E+03  0.22468444979E+03  0.00000000000E+00 0. -1.
         25    1    1    2    0    0 -0.46980604573E+02  0.11877910856E+03  0.13548381823E+03  0.22426885392E+03  0.12500000000E+03 0.  0.
         25    1    1    2    0    0  0.86699993557E+02  0.46685261679E+02 -0.85422139113E+02  0.18060549380E+03  0.12500000000E+03 0.  0.
         25    1    1    2    0    0 -0.39719388984E+02 -0.16546437023E+03  0.18846038225E+03  0.28301661321E+03  0.12500000000E+03 0.  0.
</event>
<event>
 5    0  0.5648525E-005  0.2310677E+03  0.7546771E-02  0.1125891E+00
         21   -1    0    0  502  501  0.00000000000E+00  0.00000000000E+00  0.11976127823E+04  0.11976127823E+04  0.00000000000E+00 0. -1.
         21   -1    0    0  501  502 -0.00000000000E+00 -0.00000000000E+00 -0.44582262855E+02  0.44582262855E+02  0.00000000000E+00 0. -1.
         25    1    1    2    0    0  0.42140685034E+02  0.15161896527E+02  0.22179507001E+03  0.25850294683E+03  0.12500000000E+03 0.  0.
         25    1    1    2    0    0  0.64290714148E+02  0.12356915869E+02  0.31113506728E+03  0.34163726288E+03  0.12500000000E+03 0.  0.
         25    1    1    2    0    0 -0.10643139918E+03 -0.27518812396E+02  0.62010038216E+03  0.64205483545E+03  0.12500000000E+03 0.  0.
</event>
<event>
 5    0  0.5648525E-005  0.4232739E+03  0.7546771E-02  0.1036006E+00
         21   -1    0    0  502  501  0.00000000000E+00  0.00000000000E+00  0.46220296908E+03  0.46220296908E+03  0.00000000000E+00 0.  1.
         21   -1    0    0  501  502 -0.00000000000E+00 -0.00000000000E+00 -0.38762367020E+03  0.38762367020E+03  0.00000000000E+00 0.  1.
         25    1    1    2    0    0  0.29752522452E+02 -0.75003488664E+02  0.99415473556E+01  0.14911260935E+03  0.12500000000E+03 0.  0.
         25    1    1    2    0    0  0.27706081084E+03 -0.30196600097E+02  0.15362003189E+03  0.34190443366E+03  0.12500000000E+03 0.  0.
         25    1    1    2    0    0 -0.30681333329E+03  0.10520008876E+03 -0.88982280364E+02  0.35880959627E+03  0.12500000000E+03 0.  0.
</event>
<event>
 5    0  0.5648525E-005  0.4999454E+03  0.7546771E-02  0.1013793E+00
         21   -1    0    0  502  501  0.00000000000E+00  0.00000000000E+00  0.40119377828E+03  0.40119377828E+03  0.00000000000E+00 0. -1.
         21   -1    0    0  501  502 -0.00000000000E+00 -0.00000000000E+00 -0.62300426321E+03  0.62300426321E+03  0.00000000000E+00 0. -1.
         25    1    1    2    0    0 -0.10318202270E+03  0.21360678787E+03  0.17429566764E+03  0.31980989570E+03  0.12500000000E+03 0.  0.
         25    1    1    2    0    0  0.81192869483E+02  0.94788698004E+02  0.12360071938E+02  0.17707329189E+03  0.12500000000E+03 0.  0.
         25    1    1    2    0    0  0.21989153216E+02 -0.30839548587E+03 -0.40846622451E+03  0.52731485389E+03  0.12500000000E+03 0.  0.
</event>
<event>
 5    0  0.5648525E-005  0.2459053E+03  0.7546771E-02  0.1115920E+00
         21   -1    0    0  502  501  0.00000000000E+00  0.00000000000E+00  0.14362785841E+04  0.14362785841E+04  0.00000000000E+00 0.  1.
         21   -1    0    0  501  502 -0.00000000000E+00 -0.00000000000E+00 -0.42101453382E+02  0.42101453382E+02  0.00000000000E+00 0.  1.
         25    1    1    2    0    0 -0.76340556313E+02 -0.11918023129E+03  0.64445623364E+03  0.67155092521E+03  0.12500000000E+03 0.  0.
         25    1    1    2    0    0  0.53826859815E+02  0.97343309915E+02  0.46852504863E+03  0.49750755976E+03  0.12500000000E+03 0.  0.
         25    1    1    2    0    0  0.22513696499E+02  0.21836921377E+02  0.28119584842E+03  0.30932155249E+03  0.12500000000E+03 0.  0.
</event>
<event>
 5    0  0.5648525E-005  0.3837004E+03  0.7546771E-02  0.1049574E+00
         21   -1    0    0  502  501  0.00000000000E+00  0.00000000000E+00  0.79964469651E+02  0.79964469651E+02  0.00000000000E+00 0.  1.
         21   -1    0    0  501  502 -0.00000000000E+00 -0.00000000000E+00 -0.18411425386E+04  0.18411425386E+04  0.00000000000E+00 0.  1.
         25    1    1    2    0    0  0.93726218371E+02 -0.11465022613E+02 -0.14209556187E+04  0.14295649412E+04  0.12500000000E+03 0.  0.
         25    1    1    2    0    0  0.43179447278E+02 -0.68637180039E+02 -0.10942484924E+03  0.18486298922E+03  0.12500000000E+03 0.  0.
         25    1    1    2    0    0 -0.13690566565E+03  0.80102202652E+02 -0.23079760100E+03  0.30667907784E+03  0.12500000000E+03 0.  0.
</event>
<event>
 5    0  0.5648525E-005  0.2543572E+03  0.7546771E-02  0.1110582E+00
         21   -1    0    0  502  501  0.00000000000E+00  0.00000000000E+00  0.30278062832E+03  0.30278062832E+03  0.00000000000E+00 0. -1.
         21   -1    0    0  501  502 -0.00000000000E+00 -0.00000000000E+00 -0.21367815210E+03  0.21367815210E+03  0.00000000000E+00 0. -1.
         25    1    1    2    0    0 -0.48463326486E+02 -0.61914687703E+01  0.87094267957E+02  0.15999199921E+03  0.12500000000E+03 0.  0.
         25    1    1    2    0    0 -0.39331040463E+02  0.64281103863E+01  0.10850621982E+03  0.17025525274E+03  0.12500000000E+03 0.  0.
         25    1    1    2    0    0  0.87794366949E+02 -0.23664161606E+00 -0.10649801156E+03  0.18621152846E+03  0.12500000000E+03 0.  0.
</event>
<event>
 5    0  0.5648525E-005  0.2537486E+03  0.7546771E-02  0.1110958E+00
         21   -1    0    0  502  501  0.00000000000E+00  0.00000000000E+00  0.65003751266E+03  0.65003751266E+03  0.00000000000E+00 0. -1.
         21   -1    0    0  501  502 -0.00000000000E+00 -0.00000000000E+00 -0.99053307022E+02  0.99053307022E+02  0.00000000000E+00 0. -1.
         25    1    1    2    0    0  0.35862640000E+02 -0.22140989586E+02  0.50376348040E+02  0.14120598008E+03  0.12500000000E+03 0.  0.
         25    1    1    2    0    0 -0.61993007355E+02 -0.55547151172E+02  0.40115968420E+03  0.42834881953E+03  0.12500000000E+03 0.  0.
         25    1    1    2    0    0  0.26130367355E+02  0.77688140758E+02  0.99448173397E+02  0.17953602008E+03  0.12500000000E+03 0.  0.
</event>
<event>
 5    0  0.5648525E-005  0.2891197E+03  0.7546771E-02  0.1090810E+00
         21   -1    0    0  502  501  0.00000000000E+00  0.00000000000E+00  0.14367167246E+04  0.14367167246E+04  0.00000000000E+00 0. -1.
         21   -1    0    0  501  502 -0.00000000000E+00 -0.00000000000E+00 -0.58181421103E+02  0.58181421103E+02  0.00000000000E+00 0. -1.
         25    1    1    2    0    0  0.94179523746E+02 -0.17370857832E+03  0.54825389499E+03  0.59603002126E+03  0.12500000000E+03 0.  0.
         25    1    1    2    0    0 -0.10218840661E+03  0.52247233818E+02  0.42488055506E+03  0.45751582482E+03  0.12500000000E+03 0.  0.
         25    1    1    2    0    0  0.80088828660E+01  0.12146134450E+03  0.40540085348E+03  0.44135229966E+03  0.12500000000E+03 0.  0.
</event>
<event>
 5    0  0.5648525E-005  0.3894034E+03  0.7546771E-02  0.1047512E+00
         21   -1    0    0  502  501  0.00000000000E+00  0.00000000000E+00  0.92440306356E+03  0.92440306356E+03  0.00000000000E+00 0. -1.
         21   -1    0    0  501  502 -0.00000000000E+00 -0.00000000000E+00 -0.16403561962E+03  0.16403561962E+03  0.00000000000E+00 0. -1.
         25    1    1    2    0    0  0.20659779015E+03 -0.76598786411E+02  0.43602511428E+03  0.50427464864E+03  0.12500000000E+03 0.  0.
         25    1    1    2    0    0 -0.18032986134E+03  0.24332649914E+02 -0.11509340754E+02  0.22106198603E+03  0.12500000000E+03 0.  0.
         25    1    1    2    0    0 -0.26267928807E+02  0.52266136496E+02  0.33585167042E+03  0.36310204851E+03  0.12500000000E+03 0.  0.
</event>
<event>
 5    0  0.5648525E-005  0.2777498E+03  0.7546771E-02  0.1096924E+00
         21   -1    0    0  502  501  0.00000000000E+00  0.00000000000E+00  0.21660084888E+03  0.21660084888E+03  0.00000000000E+00 0.  1.
         21   -1    0    0  501  502 -0.00000000000E+00 -0.00000000000E+00 -0.35616190883E+03  0.35616190883E+03  0.00000000000E+00 0.  1.
         25    1    1    2    0    0 -0.12528945088E+02  0.79633182889E+02 -0.84312292172E+02  0.17097362631E+03  0.12500000000E+03 0.  0.
         25    1    1    2    0    0  0.31513295570E+01 -0.16763568368E+03  0.51153595095E+02  0.21529826663E+03  0.12500000000E+03 0.  0.
         25    1    1    2    0    0  0.93776155314E+01  0.88002500795E+02 -0.10640236287E+03  0.18649086477E+03  0.12500000000E+03 0.  0.
</event>
<event>
 5    0  0.5648525E-005  0.2432386E+03  0.7546771E-02  0.1117654E+00
         21   -1    0    0  502  501  0.00000000000E+00  0.00000000000E+00  0.23020067458E+03  0.23020067458E+03  0.00000000000E+00 0.  1.
         21   -1    0    0  501  502 -0.00000000000E+00 -0.00000000000E+00 -0.25701500200E+03  0.25701500200E+03  0.00000000000E+00 0.  1.
         25    1    1    2    0    0 -0.13875587625E+02 -0.58518303316E+02 -0.86378149808E+02  0.16341085802E+03  0.12500000000E+03 0.  0.
         25    1    1    2    0    0 -0.26757972451E+02 -0.54891248881E+02  0.56558817165E+02  0.15017635664E+03  0.12500000000E+03 0.  0.
         25    1    1    2    0    0  0.40633560076E+02  0.11340955220E+03  0.30050052170E+01  0.17362846192E+03  0.12500000000E+03 0.  0.
</event>
<event>
 5    0  0.5648525E-005  0.3661842E+03  0.7546771E-02  0.1056162E+00
         21   -1    0    0  502  501  0.00000000000E+00  0.00000000000E+00  0.31159130997E+03  0.31159130997E+03  0.00000000000E+00 0.  1.
         21   -1    0    0  501  502 -0.00000000000E+00 -0.00000000000E+00 -0.43034204932E+03  0.43034204932E+03  0.00000000000E+00 0.  1.
         25    1    1    2    0    0 -0.57113666471E+02  0.17998835704E+03 -0.24015352204E+03  0.33008558544E+03  0.12500000000E+03 0.  0.
         25    1    1    2    0    0 -0.81531183925E+02 -0.27719600732E+02  0.60204986191E+02  0.16329528646E+03  0.12500000000E+03 0.  0.
         25    1    1    2    0    0  0.13864485040E+03 -0.15226875631E+03  0.61197796500E+02  0.24855248739E+03  0.12500000000E+03 0.  0.
</event>
<event>
 5    0  0.5648525E-005  0.2230848E+03  0.7546771E-02  0.1131604E+00
         21   -1    0    0  502  501  0.00000000000E+00  0.00000000000E+00  0.33498898952E+04  0.33498898952E+04  0.00000000000E+00 0.  1.
         21   -1    0    0  501  502 -0.00000000000E+00 -0.00000000000E+00 -0.14856258431E+02  0.14856258431E+02  0.00000000000E+00 0.  1.
         25    1    1    2    0    0  0.21582237441E+02  0.25537143191E+02  0.90217613975E+03  0.91140810057E+03  0.12500000000E+03 0.  0.
         25    1    1    2    0    0  0.35055317848E+02 -0.95853015563E+02  0.13294073764E+04  0.13391660272E+04  0.12500000000E+03 0.  0.
         25    1    1    2    0    0 -0.56637555289E+02  0.70315872372E+02  0.11034501206E+04  0.11141720259E+04  0.12500000000E+03 0.  0.
</event>
<event>
 5    0  0.6286108E-005  0.3125754E+03  0.7546771E-02  0.1079118E+00
         21   -1    0    0  502  501  0.00000000000E+00  0.00000000000E+00  0.30250017567E+03  0.30250017567E+03  0.00000000000E+00 0.  1.
         21   -1    0    0  501  502 -0.00000000000E+00 -0.00000000000E+00 -0.32298620908E+03  0.32298620908E+03  0.00000000000E+00 0.  1.
         25    1    1    2    0    0 -0.46501582753E+02  0.45905890633E+02 -0.12622337283E+03  0.18928044760E+03  0.12500000000E+03 0.  0.
         25    1    1    2    0    0  0.10877873586E+03 -0.16890912326E+03  0.48880057721E+02  0.24161408348E+03  0.12500000000E+03 0.  0.
         25    1    1    2    0    0 -0.62277153105E+02  0.12300323262E+03  0.56857281693E+02  0.19459185367E+03  0.12500000000E+03 0.  0.
</event>
<event>
 5    0  0.5648525E-005  0.2833289E+03  0.7546771E-02  0.1093885E+00
         21   -1    0    0  502  501  0.00000000000E+00  0.00000000000E+00  0.22796031886E+03  0.22796031886E+03  0.00000000000E+00 0. -1.
         21   -1    0    0  501  502 -0.00000000000E+00 -0.00000000000E+00 -0.35214576521E+03  0.35214576521E+03  0.00000000000E+00 0. -1.
         25    1    1    2    0    0  0.14988617599E+03  0.28675369373E+01  0.24382920255E+02  0.19670692748E+03  0.12500000000E+03 0.  0.
         25    1    1    2    0    0 -0.16601043396E+03  0.54441433889E+02 -0.84545538048E+02  0.23085987506E+03  0.12500000000E+03 0.  0.
         25    1    1    2    0    0  0.16124257974E+02 -0.57308970826E+02 -0.64022828555E+02  0.15253928153E+03  0.12500000000E+03 0.  0.
</event>
<event>
 5    0  0.5648525E-005  0.3427196E+03  0.7546771E-02  0.1065643E+00
         21   -1    0    0  502  501  0.00000000000E+00  0.00000000000E+00  0.14556397934E+04  0.14556397934E+04  0.00000000000E+00 0. -1.
         21   -1    0    0  501  502 -0.00000000000E+00 -0.00000000000E+00 -0.80690812951E+02  0.80690812951E+02  0.00000000000E+00 0. -1.
         25    1    1    2    0    0  0.85133906134E+02 -0.15615795805E+03  0.80729351466E+03  0.83605078115E+03  0.12500000000E+03 0.  0.
         25    1    1    2    0    0 -0.10763592791E+03  0.90764257436E+02  0.10394983339E+03  0.21506792245E+03  0.12500000000E+03 0.  0.
         25    1    1    2    0    0  0.22502021771E+02  0.65393700612E+02  0.46370563235E+03  0.48521190272E+03  0.12500000000E+03 0.  0.
</event>
<event>
 5    0  0.5648525E-005  0.3590879E+03  0.7546771E-02  0.1058946E+00
         21   -1    0    0  502  501  0.00000000000E+00  0.00000000000E+00  0.98257187036E+03  0.98257187036E+03  0.00000000000E+00 0.  1.
         21   -1    0    0  501  502 -0.00000000000E+00 -0.00000000000E+00 -0.13123124322E+03  0.13123124322E+03  0.00000000000E+00 0.  1.
         25    1    1    2    0    0  0.17755714386E+02 -0.92952712744E+02  0.29249776149E+03  0.33186655854E+03  0.12500000000E+03 0.  0.
         25    1    1    2    0    0 -0.38047634836E+02 -0.14440956776E+03  0.45253964574E+03  0.49266507563E+03  0.12500000000E+03 0.  0.
         25    1    1    2    0    0  0.20291920450E+02  0.23736228051E+03  0.10630321991E+03  0.28927147942E+03  0.12500000000E+03 0.  0.
</event>
<event>
 5    0  0.5648525E-005  0.4088944E+03  0.7546771E-02  0.1040743E+00
         21   -1    0    0  502  501  0.00000000000E+00  0.00000000000E+00  0.14394930505E+04  0.14394930505E+04  0.00000000000E+00 0. -1.
         21   -1    0    0  501  502 -0.00000000000E+00 -0.00000000000E+00 -0.11614824486E+03  0.11614824486E+03  0.00000000000E+00 0. -1.
         25    1    1    2    0    0 -0.25064577125E+03  0.21183934194E+03  0.65429888483E+03  0.74258416366E+03  0.12500000000E+03 0.  0.
         25    1    1    2    0    0  0.37594894085E+02 -0.50283567042E+00  0.25666540414E+03  0.28795096559E+03  0.12500000000E+03 0.  0.
         25    1    1    2    0    0  0.21305087717E+03 -0.21133650627E+03  0.41238051666E+03  0.52510616608E+03  0.12500000000E+03 0.  0.
</event>
<event>
 5    0  0.5648525E-005  0.4595087E+03  0.7546771E-02  0.1024924E+00
         21   -1    0    0  502  501  0.00000000000E+00  0.00000000000E+00  0.11160532175E+04  0.11160532175E+04  0.00000000000E+00 0. -1.
         21   -1    0    0  501  502 -0.00000000000E+00 -0.00000000000E+00 -0.18919191611E+03  0.18919191611E+03  0.00000000000E+00 0. -1.
         25    1    1    2    0    0 -0.19767831473E+02  0.11280203836E+03 -0.12794884787E+03  0.21239344314E+03  0.12500000000E+03 0.  0.
         25    1    1    2    0    0  0.47634443582E+02 -0.66425935972E+02  0.57547050522E+03  0.59453574120E+03  0.12500000000E+03 0.  0.
         25    1    1    2    0    0 -0.27866612109E+02 -0.46376102389E+02  0.47933964404E+03  0.49831594926E+03  0.12500000000E+03 0.  0.
</event>
<event>
 5    0  0.5648525E-005  0.2858606E+03  0.7546771E-02  0.1092530E+00
         21   -1    0    0  502  501  0.00000000000E+00  0.00000000000E+00  0.96577767619E+02  0.96577767619E+02  0.00000000000E+00 0.  1.
         21   -1    0    0  501  502 -0.00000000000E+00 -0.00000000000E+00 -0.84611905872E+03  0.84611905872E+03  0.00000000000E+00 0.  1.
         25    1    1    2    0    0  0.90738595900E+02  0.59253912901E+02 -0.16827277591E+03  0.23597721520E+03  0.12500000000E+03 0.  0.
         25    1    1    2    0    0 -0.88772828481E+02  0.11558566599E+02 -0.58397152879E+02  0.16446714870E+03  0.12500000000E+03 0.  0.
         25    1    1    2    0    0 -0.19657674191E+01 -0.70812479500E+02 -0.52287136231E+03  0.54225246243E+03  0.12500000000E+03 0.  0.
</event>
<event>
 5    0  0.5648525E-005  0.3672804E+03  0.7546771E-02  0.1055738E+00
         21   -1    0    0  502  501  0.00000000000E+00  0.00000000000E+00  0.17451323743E+03  0.17451323743E+03  0.00000000000E+00 0. -1.
         21   -1    0    0  501  502 -0.00000000000E+00 -0.00000000000E+00 -0.77297815569E+03  0.77297815569E+03  0.00000000000E+00 0. -1.
         25    1    1    2    0    0  0.11689204612E+03 -0.82526928486E+01 -0.14783027834E+03  0.22629769901E+03  0.12500000000E+03 0.  0.
         25    1    1    2    0    0  0.58655669132E+02 -0.16092299167E+03 -0.22950456321E+02  0.21328014491E+03  0.12500000000E+03 0.  0.
         25    1    1    2    0    0 -0.17554771525E+03  0.16917568451E+03 -0.42768418360E+03  0.50791354920E+03  0.12500000000E+03 0.  0.
</event>
<event>
 5    0  0.5648525E-005  0.4838229E+03  0.7546771E-02  0.1018090E+00
         21   -1    0    0  502  501  0.00000000000E+00  0.00000000000E+00  0.31137454611E+03  0.31137454611E+03  0.00000000000E+00 0.  1.
         21   -1    0    0  501  502 -0.00000000000E+00 -0.00000000000E+00 -0.75177813241E+03  0.75177813241E+03  0.00000000000E+00 0.  1.
         25    1    1    2    0    0  0.10737348019E+03  0.99730355375E+02 -0.43322159382E+03  0.47411091253E+03  0.12500000000E+03 0.  0.
         25    1    1    2    0    0  0.88199999585E+02  0.82109578588E+02 -0.17769027472E+03  0.24843521601E+03  0.12500000000E+03 0.  0.
         25    1    1    2    0    0 -0.19557347978E+03 -0.18183993396E+03  0.17050828225E+03  0.34060654998E+03  0.12500000000E+03 0.  0.
</event>
<event>
 5    0  0.5648525E-005  0.2623053E+03  0.7546771E-02  0.1105766E+00
         21   -1    0    0  502  501  0.00000000000E+00  0.00000000000E+00  0.12498067211E+03  0.12498067211E+03  0.00000000000E+00 0.  1.
         21   -1    0    0  501  502 -0.00000000000E+00 -0.00000000000E+00 -0.55051749768E+03  0.55051749768E+03  0.00000000000E+00 0.  1.
         25    1    1    2    0    0 -0.35864008691E+02  0.23048778946E+02 -0.24561500785E+02  0.13433443583E+03  0.12500000000E+03 0.  0.
         25    1    1    2    0    0 -0.10430837638E+03 -0.44374220730E+02 -0.23697897987E+03  0.29091810833E+03  0.12500000000E+03 0.  0.
         25    1    1    2    0    0  0.14017238507E+03  0.21325441785E+02 -0.16399634491E+03  0.25024562563E+03  0.12500000000E+03 0.  0.
</event>
<event>
 5    0  0.5648525E-005  0.3258803E+03  0.7546771E-02  0.1072974E+00
         21   -1    0    0  502  501  0.00000000000E+00  0.00000000000E+00  0.82469583309E+03  0.82469583309E+03  0.00000000000E+00 0. -1.
         21   -1    0    0  501  502 -0.00000000000E+00 -0.00000000000E+00 -0.12877229500E+03  0.12877229500E+03  0.00000000000E+00 0. -1.
         25    1    1    2    0    0 -0.19594043446E+03 -0.35387108095E+02  0.36723798126E+03  0.43604315860E+03  0.12500000000E+03 0.  0.
         25    1    1    2    0    0 -0.22331660414E+02 -0.14278182962E+02  0.18095244929E+03  0.22152055992E+03  0.12500000000E+03 0.  0.
         25    1    1    2    0    0  0.21827209488E+03  0.49665291057E+02  0.14773310755E+03  0.29590440957E+03  0.12500000000E+03 0.  0.
</event>
<event>
 5    0  0.5648525E-005  0.3025728E+03  0.7546771E-02  0.1083962E+00
         21   -1    0    0  502  501  0.00000000000E+00  0.00000000000E+00  0.29845877457E+03  0.29845877457E+03  0.00000000000E+00 0. -1.
         21   -1    0    0  501  502 -0.00000000000E+00 -0.00000000000E+00 -0.30674343596E+03  0.30674343596E+03  0.00000000000E+00 0. -1.
         25    1    1    2    0    0  0.26973097633E+02  0.12121763051E+02  0.96165977473E+02  0.16045990265E+03  0.12500000000E+03 0.  0.
         25    1    1    2    0    0  0.11001702126E+02  0.18777498771E+02 -0.22888265731E+03  0.26169811373E+03  0.12500000000E+03 0.  0.
         25    1    1    2    0    0 -0.37974799759E+02 -0.30899261822E+02  0.12443201845E+03  0.18304419415E+03  0.12500000000E+03 0.  0.
</event>
<event>
 5    0  0.5648525E-005  0.3520208E+03  0.7546771E-02  0.1061789E+00
         21   -1    0    0  502  501  0.00000000000E+00  0.00000000000E+00  0.97939581922E+03  0.97939581922E+03  0.00000000000E+00 0.  1.
         21   -1    0    0  501  502 -0.00000000000E+00 -0.00000000000E+00 -0.12652559879E+03  0.12652559879E+03  0.00000000000E+00 0.  1.
         25    1    1    2    0    0  0.33978892939E+02 -0.12042738273E+02 -0.27494285712E+02  0.13296814828E+03  0.12500000000E+03 0.  0.
         25    1    1    2    0    0 -0.43381648358E+01 -0.10828010348E+03  0.70626403977E+03  0.72538079265E+03  0.12500000000E+03 0.  0.
         25    1    1    2    0    0 -0.29640728104E+02  0.12032284175E+03  0.17410046637E+03  0.24757247707E+03  0.12500000000E+03 0.  0.
</event>
<event>
 5    0  0.5648525E-005  0.4036425E+03  0.7546771E-02  0.1042526E+00
         21   -1    0    0  502  501  0.00000000000E+00  0.00000000000E+00  0.19749468825E+03  0.19749468825E+03  0.00000000000E+00 0.  1.
         21   -1    0    0  501  502 -0.00000000000E+00 -0.00000000000E+00 -0.82497056726E+03  0.82497056726E+03  0.00000000000E+00 0.  1.
         25    1    1    2    0    0 -0.91893696711E+01  0.47858574497E+02 -0.33797777752E+03  0.36363287223E+03  0.12500000000E+03 0.  0.
         25    1    1    2    0    0 -0.22414231409E+03  0.93393920071E+02 -0.56348257103E+02  0.27885897394E+03  0.12500000000E+03 0.  0.
         25    1    1    2    0    0  0.23333168376E+03 -0.14125249457E+03 -0.23314984439E+03  0.37997340934E+03  0.12500000000E+03 0.  0.
</event>
<event>
 5    0  0.5648525E-005  0.4590634E+03  0.7546771E-02  0.1025053E+00
         21   -1    0    0  502  501  0.00000000000E+00  0.00000000000E+00  0.45119978913E+03  0.45119978913E+03  0.00000000000E+00 0.  1.
         21   -1    0    0  501  502 -0.00000000000E+00 -0.00000000000E+00 -0.46706404305E+03  0.46706404305E+03  0.00000000000E+00 0.  1.
         25    1    1    2    0    0  0.73347251853E+01 -0.21732907287E+03 -0.22031056940E+03  0.33383749205E+03  0.12500000000E+03 0.  0.
         25    1    1    2    0    0  0.18888403257E+02 -0.12305515371E+03  0.22401076063E+02  0.17783742812E+03  0.12500000000E+03 0.  0.
         25    1    1    2    0    0 -0.26223128442E+02  0.34038422658E+03  0.18204523942E+03  0.40658891201E+03  0.12500000000E+03 0.  0.
</event>
<event>
 5    0  0.5648525E-005  0.4912694E+03  0.7546771E-02  0.1016083E+00
         21   -1    0    0  502  501  0.00000000000E+00  0.00000000000E+00  0.60993166952E+03  0.60993166952E+03  0.00000000000E+00 0.  1.
         21   -1    0    0  501  502 -0.00000000000E+00 -0.00000000000E+00 -0.39569294557E+03  0.39569294557E+03  0.00000000000E+00 0.  1.
         25    1    1    2    0    0  0.21994881771E+03  0.21814632045E+03 -0.18843216915E+03  0.38353224363E+03  0.12500000000E+03 0.  0.
         25    1    1    2    0    0  0.74841019571E+00 -0.13453423517E+03  0.26282938472E+03  0.32063110582E+03  0.12500000000E+03 0.  0.
         25    1    1    2    0    0 -0.22069722790E+03 -0.83612085272E+02  0.13984150839E+03  0.30146126563E+03  0.12500000000E+03 0.  0.
</event>
<event>
 5    0  0.5648525E-005  0.3851409E+03  0.7546771E-02  0.1049050E+00
         21   -1    0    0  502  501  0.00000000000E+00  0.00000000000E+00  0.13145936878E+04  0.13145936878E+04  0.00000000000E+00 0. -1.
         21   -1    0    0  501  502 -0.00000000000E+00 -0.00000000000E+00 -0.11283604080E+03  0.11283604080E+03  0.00000000000E+00 0. -1.
         25    1    1    2    0    0 -0.16697178886E+03  0.68859569242E+02  0.22775126946E+03  0.31641248283E+03  0.12500000000E+03 0.  0.
         25    1    1    2    0    0  0.21745422634E+03 -0.47202077263E+02  0.19781635774E+03  0.32290972119E+03  0.12500000000E+03 0.  0.
         25    1    1    2    0    0 -0.50482437486E+02 -0.21657491980E+02  0.77619001985E+03  0.78810752462E+03  0.12500000000E+03 0.  0.
</event>
<event>
 5    0  0.5648525E-005  0.4157875E+03  0.7546771E-02  0.1038446E+00
         21   -1    0    0  502  501  0.00000000000E+00  0.00000000000E+00  0.13592241787E+04  0.13592241787E+04  0.00000000000E+00 0. -1.
         21   -1    0    0  501  502 -0.00000000000E+00 -0.00000000000E+00 -0.12718967512E+03  0.12718967512E+03  0.00000000000E+00 0. -1.
         25    1    1    2    0    0 -0.41065919616E+02 -0.25864738028E+02  0.25059713641E+03  0.28421702835E+03  0.12500000000E+03 0.  0.
         25    1    1    2    0    0 -0.27221435940E+03 -0.43380376588E+02  0.68096236012E+03  0.74519611542E+03  0.12500000000E+03 0.  0.
         25    1    1    2    0    0  0.31328027902E+03  0.69245114616E+02  0.30047500704E+03  0.45700071004E+03  0.12500000000E+03 0.  0.
</event>
<event>
 5    0  0.5648525E-005  0.3427863E+03  0.7546771E-02  0.1065615E+00
         21   -1    0    0  502  501  0.00000000000E+00  0.00000000000E+00  0.16507386587E+04  0.16507386587E+04  0.00000000000E+00 0.  1.
         21   -1    0    0  501  502 -0.00000000000E+00 -0.00000000000E+00 -0.71181733393E+02  0.71181733393E+02  0.00000000000E+00 0. -1.
         25    1    1    2    0    0  0.98144726973E+02  0.25773446907E+02  0.28919016924E+03  0.33098732904E+03  0.12500000000E+03 0.  0.
         25    1    1    2    0    0  0.98979378746E+02 -0.17249886335E+03  0.72154237883E+03  0.75881564277E+03  0.12500000000E+03 0.  0.
         25    1    1    2    0    0 -0.19712410572E+03  0.14672541644E+03  0.56882437726E+03  0.63211742030E+03  0.12500000000E+03 0.  0.
</event>
<event>
 5    0  0.5648525E-005  0.2691862E+03  0.7546771E-02  0.1101746E+00
         21   -1    0    0  502  501  0.00000000000E+00  0.00000000000E+00  0.41196190097E+03  0.41196190097E+03  0.00000000000E+00 0. -1.
         21   -1    0    0  501  502 -0.00000000000E+00 -0.00000000000E+00 -0.17589303780E+03  0.17589303780E+03  0.00000000000E+00 0. -1.
         25    1    1    2    0    0 -0.68861381511E+02  0.39751199218E+01  0.12956772114E+03  0.19279648804E+03  0.12500000000E+03 0.  0.
         25    1    1    2    0    0  0.11676051706E+03 -0.11157881806E+03  0.87783159037E+02  0.22229200164E+03  0.12500000000E+03 0.  0.
         25    1    1    2    0    0 -0.47899135548E+02  0.10760369814E+03  0.18717982989E+02  0.17276644908E+03  0.12500000000E+03 0.  0.
</event>
<event>
 5    0  0.5648525E-005  0.2576612E+03  0.7546771E-02  0.1108557E+00
         21   -1    0    0  502  501  0.00000000000E+00  0.00000000000E+00  0.60352777677E+03  0.60352777677E+03  0.00000000000E+00 0. -1.
         21   -1    0    0  501  502 -0.00000000000E+00 -0.00000000000E+00 -0.11000208938E+03  0.11000208938E+03  0.00000000000E+00 0. -1.
         25    1    1    2    0    0 -0.13889267396E+02  0.30076528523E+02  0.10782029370E+03  0.16836782665E+03  0.12500000000E+03 0.  0.
         25    1    1    2    0    0  0.11386090228E+03 -0.30867069653E+02  0.59644949634E+02  0.18193295763E+03  0.12500000000E+03 0.  0.
         25    1    1    2    0    0 -0.99971634882E+02  0.79054113012E+00  0.32606044406E+03  0.36322908187E+03  0.12500000000E+03 0.  0.
</event>
<event>
 5    0  0.5648525E-005  0.2805137E+03  0.7546771E-02  0.1095409E+00
         21   -1    0    0  502  501  0.00000000000E+00  0.00000000000E+00  0.19158987569E+03  0.19158987569E+03  0.00000000000E+00 0. -1.
         21   -1    0    0  501  502 -0.00000000000E+00 -0.00000000000E+00 -0.41071031266E+03  0.41071031266E+03  0.00000000000E+00 0. -1.
         25    1    1    2    0    0 -0.21499757536E+02 -0.54512004250E+02  0.55354884355E+02  0.14873789498E+03  0.12500000000E+03 0.  0.
         25    1    1    2    0    0 -0.61765309223E+02 -0.64021623341E+02 -0.19053334601E+03  0.24462558660E+03  0.12500000000E+03 0.  0.
         25    1    1    2    0    0  0.83265066759E+02  0.11853362759E+03 -0.83941975321E+02  0.20893670676E+03  0.12500000000E+03 0.  0.
</event>
<event>
 5    0  0.5648525E-005  0.3068347E+03  0.7546771E-02  0.1081873E+00
         21   -1    0    0  502  501  0.00000000000E+00  0.00000000000E+00  0.65454838773E+02  0.65454838773E+02  0.00000000000E+00 0.  1.
         21   -1    0    0  501  502 -0.00000000000E+00 -0.00000000000E+00 -0.14383589553E+04  0.14383589553E+04  0.00000000000E+00 0.  1.
         25    1    1    2    0    0  0.68637951924E+02 -0.96857330533E+02 -0.15847603261E+03  0.23416268668E+03  0.12500000000E+03 0.  0.
         25    1    1    2    0    0  0.38986817225E+02  0.51170706529E+02 -0.90663356865E+03  0.91746816889E+03  0.12500000000E+03 0.  0.
         25    1    1    2    0    0 -0.10762476915E+03  0.45686624004E+02 -0.30779451531E+03  0.35218293854E+03  0.12500000000E+03 0.  0.
</event>
<event>
 5    0  0.5648525E-005  0.3327782E+03  0.7546771E-02  0.1069914E+00
         21   -1    0    0  502  501  0.00000000000E+00  0.00000000000E+00  0.14398378777E+03  0.14398378777E+03  0.00000000000E+00 0.  1.
         21   -1    0    0  501  502 -0.00000000000E+00 -0.00000000000E+00 -0.76912348152E+03  0.76912348152E+03  0.00000000000E+00 0.  1.
         25    1    1    2    0    0  0.12502311491E+03  0.16621548374E+03 -0.12129464579E+03  0.27128537999E+03  0.12500000000E+03 0.  0.
         25    1    1    2    0    0 -0.16499227920E+03 -0.16281311708E+03 -0.29815928738E+03  0.39781217168E+03  0.12500000000E+03 0.  0.
         25    1    1    2    0    0  0.39969164294E+02 -0.34023666592E+01 -0.20568576057E+03  0.24400971763E+03  0.12500000000E+03 0.  0.
</event>
<event>
 5    0  0.5648525E-005  0.2399722E+03  0.7546771E-02  0.1119811E+00
         21   -1    0    0  502  501  0.00000000000E+00  0.00000000000E+00  0.67512470170E+02  0.67512470170E+02  0.00000000000E+00 0. -1.
         21   -1    0    0  501  502 -0.00000000000E+00 -0.00000000000E+00 -0.85297796595E+03  0.85297796595E+03  0.00000000000E+00 0. -1.
         25    1    1    2    0    0 -0.88893617668E+02 -0.57423488944E+02 -0.37691613834E+03  0.41096265972E+03  0.12500000000E+03 0.  0.
         25    1    1    2    0    0  0.63985818740E+02  0.95220559415E+02 -0.25673223541E+03  0.30772972010E+03  0.12500000000E+03 0.  0.
         25    1    1    2    0    0  0.24907798928E+02 -0.37797070471E+02 -0.15181712203E+03  0.20179805630E+03  0.12500000000E+03 0.  0.
</event>
<event>
 5    0  0.5683167E-005  0.4078286E+03  0.7546771E-02  0.1041102E+00
         21   -1    0    0  502  501  0.00000000000E+00  0.00000000000E+00  0.34490963393E+03  0.34490963393E+03  0.00000000000E+00 0. -1.
         21   -1    0    0  501  502 -0.00000000000E+00 -0.00000000000E+00 -0.48222536794E+03  0.48222536794E+03  0.00000000000E+00 0. -1.
         25    1    1    2    0    0 -0.32024866870E+01 -0.13795965972E+03  0.12921698491E+03  0.22663881578E+03  0.12500000000E+03 0.  0.
         25    1    1    2    0    0 -0.20156498299E+03  0.91593795215E+02 -0.24844515465E+03  0.35548257420E+03  0.12500000000E+03 0.  0.
         25    1    1    2    0    0  0.20476746968E+03  0.46365864502E+02 -0.18087564262E+02  0.24501361189E+03  0.12500000000E+03 0.  0.
</event>
<event>
 5    0  0.5648525E-005  0.3018641E+03  0.7546771E-02  0.1084312E+00
         21   -1    0    0  502  501  0.00000000000E+00  0.00000000000E+00  0.19981656775E+03  0.19981656775E+03  0.00000000000E+00 0. -1.
         21   -1    0    0  501  502 -0.00000000000E+00 -0.00000000000E+00 -0.45602790895E+03  0.45602790895E+03  0.00000000000E+00 0. -1.
         25    1    1    2    0    0  0.14431972844E+03  0.54745716854E+02 -0.64723773090E+02  0.20890056087E+03  0.12500000000E+03 0.  0.
         25    1    1    2    0    0 -0.21802386325E+03 -0.56914019451E+02 -0.13774344208E+03  0.29218464434E+03  0.12500000000E+03 0.  0.
         25    1    1    2    0    0  0.73704134809E+02  0.21683025968E+01 -0.53744126034E+02  0.15475927147E+03  0.12500000000E+03 0.  0.
</event>
<event>
 5    0  0.5648525E-005  0.3107499E+03  0.7546771E-02  0.1079987E+00
         21   -1    0    0  502  501  0.00000000000E+00  0.00000000000E+00  0.17240939667E+03  0.17240939667E+03  0.00000000000E+00 0. -1.
         21   -1    0    0  501  502 -0.00000000000E+00 -0.00000000000E+00 -0.56009417295E+03  0.56009417295E+03  0.00000000000E+00 0. -1.
         25    1    1    2    0    0 -0.45594432461E+02 -0.35761550592E+02 -0.35908567083E+02  0.14238035666E+03  0.12500000000E+03 0.  0.
         25    1    1    2    0    0 -0.68687095020E+01 -0.17983184108E+03 -0.16573454646E+03  0.27473552760E+03  0.12500000000E+03 0.  0.
         25    1    1    2    0    0  0.52463141963E+02  0.21559339167E+03 -0.18604166274E+03  0.31538768535E+03  0.12500000000E+03 0.  0.
</event>
<event>
 5    0  0.5648525E-005  0.4767308E+03  0.7546771E-02  0.1020038E+00
         21   -1    0    0  502  501  0.00000000000E+00  0.00000000000E+00  0.12488152231E+03  0.12488152231E+03  0.00000000000E+00 0.  1.
         21   -1    0    0  501  502 -0.00000000000E+00 -0.00000000000E+00 -0.18199032981E+04  0.18199032981E+04  0.00000000000E+00 0.  1.
         25    1    1    2    0    0  0.18964440428E+03  0.74299349346E+01 -0.96075710098E+03  0.98726866206E+03  0.12500000000E+03 0.  0.
         25    1    1    2    0    0  0.88933264965E+02 -0.26953842967E+02  0.66641672771E+01  0.15590075816E+03  0.12500000000E+03 0.  0.
         25    1    1    2    0    0 -0.27857766924E+03  0.19523908033E+02 -0.74092884213E+03  0.80161540023E+03  0.12500000000E+03 0.  0.
</event>
<event>
 5    0  0.5648525E-005  0.3101308E+03  0.7546771E-02  0.1080283E+00
         21   -1    0    0  502  501  0.00000000000E+00  0.00000000000E+00  0.65804313408E+03  0.65804313408E+03  0.00000000000E+00 0.  1.
         21   -1    0    0  501  502 -0.00000000000E+00 -0.00000000000E+00 -0.14616233470E+03  0.14616233470E+03  0.00000000000E+00 0.  1.
         25    1    1    2    0    0  0.87136482003E+02  0.11187458193E+03  0.12082851991E+01  0.18903742627E+03  0.12500000000E+03 0.  0.
         25    1    1    2    0    0 -0.11919346652E+03 -0.37203300452E+02  0.37077008041E+03  0.41071476788E+03  0.12500000000E+03 0.  0.
         25    1    1    2    0    0  0.32056984520E+02 -0.74671281480E+02  0.13990243377E+03  0.20445327463E+03  0.12500000000E+03 0.  0.
</event>
<event>
 5    0  0.5648525E-005  0.2738754E+03  0.7546771E-02  0.1099082E+00
         21   -1    0    0  502  501  0.00000000000E+00  0.00000000000E+00  0.11373068296E+04  0.11373068296E+04  0.00000000000E+00 0. -1.
         21   -1    0    0  501  502 -0.00000000000E+00 -0.00000000000E+00 -0.65952044358E+02  0.65952044358E+02  0.00000000000E+00 0. -1.
         25    1    1    2    0    0 -0.11265433133E+03  0.61542649984E+02  0.21830371422E+03  0.28241814350E+03  0.12500000000E+03 0.  0.
         25    1    1    2    0    0  0.98879605849E+02 -0.62049748680E+02  0.71027779696E+03  0.73057983590E+03  0.12500000000E+03 0.  0.
         25    1    1    2    0    0  0.13774725482E+02  0.50709869663E+00  0.14277327403E+03  0.19026089454E+03  0.12500000000E+03 0.  0.
</event>
<event>
 5    0  0.5648525E-005  0.3127099E+03  0.7546771E-02  0.1079054E+00
         21   -1    0    0  502  501  0.00000000000E+00  0.00000000000E+00  0.17072790166E+03  0.17072790166E+03  0.00000000000E+00 0. -1.
         21   -1    0    0  501  502 -0.00000000000E+00 -0.00000000000E+00 -0.57276801254E+03  0.57276801254E+03  0.00000000000E+00 0. -1.
         25    1    1    2    0    0 -0.22764251932E+02 -0.60865795721E+02 -0.17759788516E+03  0.22669112260E+03  0.12500000000E+03 0.  0.
         25    1    1    2    0    0 -0.67557102196E+02  0.13800528836E+03 -0.27334764715E+03  0.33756978223E+03  0.12500000000E+03 0.  0.
         25    1    1    2    0    0  0.90321354127E+02 -0.77139492644E+02  0.48905421434E+02  0.17923500937E+03  0.12500000000E+03 0.  0.
</event>
<event>
 5    0  0.5648525E-005  0.4694573E+03  0.7546771E-02  0.1022073E+00
         21   -1    0    0  502  501  0.00000000000E+00  0.00000000000E+00  0.30057509996E+03  0.30057509996E+03  0.00000000000E+00 0.  1.
         21   -1    0    0  501  502 -0.00000000000E+00 -0.00000000000E+00 -0.73322834612E+03  0.73322834612E+03  0.00000000000E+00 0.  1.
         25    1    1    2    0    0 -0.99280456771E+02  0.17713065627E+03 -0.57410933832E+03  0.62165779239E+03  0.12500000000E+03 0.  0.
         25    1    1    2    0    0  0.11146738059E+03 -0.15968207153E+03  0.16364219515E+03  0.28342037495E+03  0.12500000000E+03 0.  0.
         25    1    1    2    0    0 -0.12186923816E+02 -0.17448584746E+02 -0.22186102992E+02  0.12872527874E+03  0.12500000000E+03 0.  0.
</event>
<event>
 5    0  0.5648525E-005  0.4401504E+03  0.7546771E-02  0.1030701E+00
         21   -1    0    0  502  501  0.00000000000E+00  0.00000000000E+00  0.13615510821E+03  0.13615510821E+03  0.00000000000E+00 0.  1.
         21   -1    0    0  501  502 -0.00000000000E+00 -0.00000000000E+00 -0.14228799819E+04  0.14228799819E+04  0.00000000000E+00 0.  1.
         25    1    1    2    0    0 -0.10865370540E+03  0.89212138864E+02 -0.59955253358E+02  0.19744382954E+03  0.12500000000E+03 0.  0.
         25    1    1    2    0    0  0.53707106835E+02 -0.98707793748E+02 -0.12123657456E+04  0.12239621657E+04  0.12500000000E+03 0.  0.
         25    1    1    2    0    0  0.54946598567E+02  0.94956548843E+01 -0.14403874722E+02  0.13762909490E+03  0.12500000000E+03 0.  0.
</event>
<event>
 5    0  0.5648525E-005  0.3881899E+03  0.7546771E-02  0.1047948E+00
         21   -1    0    0  502  501  0.00000000000E+00  0.00000000000E+00  0.40082377238E+03  0.40082377238E+03  0.00000000000E+00 0. -1.
         21   -1    0    0  501  502 -0.00000000000E+00 -0.00000000000E+00 -0.37595423645E+03  0.37595423645E+03  0.00000000000E+00 0. -1.
         25    1    1    2    0    0  0.15175456947E+03 -0.79908037487E+02  0.17481875332E+03  0.27495697904E+03  0.12500000000E+03 0.  0.
         25    1    1    2    0    0  0.91415692886E+02  0.90302793609E+02  0.18965804352E+02  0.18026681662E+03  0.12500000000E+03 0.  0.
         25    1    1    2    0    0 -0.24317026235E+03 -0.10394756123E+02 -0.16891502174E+03  0.32155421318E+03  0.12500000000E+03 0.  0.
</event>
<event>
 5    0  0.5648525E-005  0.3212941E+03  0.7546771E-02  0.1075055E+00
         21   -1    0    0  502  501  0.00000000000E+00  0.00000000000E+00  0.52324423025E+02  0.52324423025E+02  0.00000000000E+00 0. -1.
         21   -1    0    0  501  502 -0.00000000000E+00 -0.00000000000E+00 -0.19728817092E+04  0.19728817092E+04  0.00000000000E+00 0. -1.
         25    1    1    2    0    0 -0.28313052644E+02  0.25648339353E+02 -0.15155143707E+03  0.20013071813E+03  0.12500000000E+03 0.  0.
         25    1    1    2    0    0 -0.14672589421E+03 -0.98733144516E+02 -0.10019525007E+04  0.10250905012E+04  0.12500000000E+03 0.  0.
         25    1    1    2    0    0  0.17503894686E+03  0.73084805163E+02 -0.76705334838E+03  0.79998491293E+03  0.12500000000E+03 0.  0.
</event>
<event>
 5    0  0.5648525E-005  0.2539404E+03  0.7546771E-02  0.1110840E+00
         21   -1    0    0  502  501  0.00000000000E+00  0.00000000000E+00  0.45821342055E+03  0.45821342055E+03  0.00000000000E+00 0.  1.
         21   -1    0    0  501  502 -0.00000000000E+00 -0.00000000000E+00 -0.14073293581E+03  0.14073293581E+03  0.00000000000E+00 0.  1.
         25    1    1    2    0    0  0.76703072503E+02 -0.77867796577E+02  0.15946147673E+03  0.23021667541E+03  0.12500000000E+03 0.  0.
         25    1    1    2    0    0 -0.49110363451E+01  0.70950777372E+02 -0.13646154958E+02  0.14446227408E+03  0.12500000000E+03 0.  0.
         25    1    1    2    0    0 -0.71792036158E+02  0.69170192050E+01  0.17166516296E+03  0.22426740687E+03  0.12500000000E+03 0.  0.
</event>
<event>
 5    0  0.5648525E-005  0.4271437E+03  0.7546771E-02  0.1034766E+00
         21   -1    0    0  502  501  0.00000000000E+00  0.00000000000E+00  0.17605770438E+03  0.17605770438E+03  0.00000000000E+00 0.  1.
         21   -1    0    0  501  502 -0.00000000000E+00 -0.00000000000E+00 -0.10363177391E+04  0.10363177391E+04  0.00000000000E+00 0.  1.
         25    1    1    2    0    0 -0.33186091115E+02 -0.46691082265E+02  0.28691874264E+02  0.14046208547E+03  0.12500000000E+03 0.  0.
         25    1    1    2    0    0 -0.22962332185E+03  0.48839115241E+02 -0.62410631577E+03  0.67841419686E+03  0.12500000000E+03 0.  0.
         25    1    1    2    0    0  0.26280941296E+03 -0.21480329758E+01 -0.26484559322E+03  0.39349916116E+03  0.12500000000E+03 0.  0.
</event>
<event>
 5    0  0.5648525E-005  0.3476252E+03  0.7546771E-02  0.1063594E+00
         21   -1    0    0  502  501  0.00000000000E+00  0.00000000000E+00  0.20360449846E+03  0.20360449846E+03  0.00000000000E+00 0.  1.
         21   -1    0    0  501  502 -0.00000000000E+00 -0.00000000000E+00 -0.59351980700E+03  0.59351980700E+03  0.00000000000E+00 0.  1.
         25    1    1    2    0    0 -0.17068272834E+03  0.36336560107E+02 -0.17524756761E+03  0.27710945366E+03  0.12500000000E+03 0.  0.
         25    1    1    2    0    0  0.20628695229E+03 -0.16381679274E+03 -0.13051319794E+03  0.31945100267E+03  0.12500000000E+03 0.  0.
         25    1    1    2    0    0 -0.35604223947E+02  0.12748023264E+03 -0.84154542989E+02  0.20056384914E+03  0.12500000000E+03 0.  0.
</event>
<event>
 5    0  0.5648525E-005  0.2579737E+03  0.7546771E-02  0.1108367E+00
         21   -1    0    0  502  501  0.00000000000E+00  0.00000000000E+00  0.14763001096E+03  0.14763001096E+03  0.00000000000E+00 0.  1.
         21   -1    0    0  501  502 -0.00000000000E+00 -0.00000000000E+00 -0.45079202722E+03  0.45079202722E+03  0.00000000000E+00 0.  1.
         25    1    1    2    0    0 -0.11293254543E+03  0.43996736481E+02 -0.14177570822E+03  0.22453245663E+03  0.12500000000E+03 0.  0.
         25    1    1    2    0    0  0.61226855443E+02 -0.11455900233E+03 -0.11731535170E+03  0.21508227400E+03  0.12500000000E+03 0.  0.
         25    1    1    2    0    0  0.51705689985E+02  0.70562265854E+02 -0.44070956343E+02  0.15880730755E+03  0.12500000000E+03 0.  0.
</event>
<event>
 5    0  0.5648525E-005  0.3051492E+03  0.7546771E-02  0.1082695E+00
         21   -1    0    0  502  501  0.00000000000E+00  0.00000000000E+00  0.15657558996E+04  0.15657558996E+04  0.00000000000E+00 0.  1.
         21   -1    0    0  501  502 -0.00000000000E+00 -0.00000000000E+00 -0.59470355853E+02  0.59470355853E+02  0.00000000000E+00 0.  1.
         25    1    1    2    0    0 -0.49057226540E+02  0.14066727327E+03  0.49181701765E+03  0.52886942822E+03  0.12500000000E+03 0.  0.
         25    1    1    2    0    0 -0.67504100642E+02 -0.52818738452E+02  0.15937739662E+03  0.21993812150E+03  0.12500000000E+03 0.  0.
         25    1    1    2    0    0  0.11656132718E+03 -0.87848534822E+02  0.85509112943E+03  0.87641870569E+03  0.12500000000E+03 0.  0.
</event>
<event>
 5    0  0.5648525E-005  0.2916941E+03  0.7546771E-02  0.1089468E+00
         21   -1    0    0  502  501  0.00000000000E+00  0.00000000000E+00  0.64392294798E+03  0.64392294798E+03  0.00000000000E+00 0. -1.
         21   -1    0    0  501  502 -0.00000000000E+00 -0.00000000000E+00 -0.13213608355E+03  0.13213608355E+03  0.00000000000E+00 0. -1.
         25    1    1    2    0    0 -0.59385528675E+02 -0.63842663831E+02  0.12874891471E+03  0.19950892156E+03  0.12500000000E+03 0.  0.
         25    1    1    2    0    0 -0.65125832137E+02  0.17027622639E+03  0.23643564948E+03  0.32366986827E+03  0.12500000000E+03 0.  0.
         25    1    1    2    0    0  0.12451136081E+03 -0.10643356256E+03  0.14660230024E+03  0.25288024170E+03  0.12500000000E+03 0.  0.
</event>
<event>
 5    0  0.5648525E-005  0.3354010E+03  0.7546771E-02  0.1068772E+00
         21   -1    0    0  502  501  0.00000000000E+00  0.00000000000E+00  0.17815257898E+03  0.17815257898E+03  0.00000000000E+00 0. -1.
         21   -1    0    0  501  502 -0.00000000000E+00 -0.00000000000E+00 -0.63144668579E+03  0.63144668579E+03  0.00000000000E+00 0. -1.
         25    1    1    2    0    0 -0.93497614135E+02 -0.11855786587E+03 -0.12230390914E+03  0.23104332408E+03  0.12500000000E+03 0.  0.
         25    1    1    2    0    0  0.20086152762E+03  0.17317110980E+03 -0.15615861770E+03  0.33218082490E+03  0.12500000000E+03 0.  0.
         25    1    1    2    0    0 -0.10736391348E+03 -0.54613243933E+02 -0.17483157996E+03  0.24637511580E+03  0.12500000000E+03 0.  0.
</event>
<event>
 5    0  0.5648525E-005  0.3207301E+03  0.7546771E-02  0.1075314E+00
         21   -1    0    0  502  501  0.00000000000E+00  0.00000000000E+00  0.61282828552E+03  0.61282828552E+03  0.00000000000E+00 0. -1.
         21   -1    0    0  501  502 -0.00000000000E+00 -0.00000000000E+00 -0.16785749594E+03  0.16785749594E+03  0.00000000000E+00 0. -1.
         25    1    1    2    0    0  0.78904043438E+02 -0.14865539857E+03  0.41285284277E+02  0.21366738238E+03  0.12500000000E+03 0.  0.
         25    1    1    2    0    0  0.68183078749E+02  0.13412173704E+03  0.26278236178E+03  0.32759295206E+03  0.12500000000E+03 0.  0.
         25    1    1    2    0    0 -0.14708712219E+03  0.14533661527E+02  0.14090314352E+03  0.23942544703E+03  0.12500000000E+03 0.  0.
</event>
<event>
 5    0  0.5648525E-005  0.3265113E+03  0.7546771E-02  0.1072691E+00
         21   -1    0    0  502  501  0.00000000000E+00  0.00000000000E+00  0.13232099348E+03  0.13232099348E+03  0.00000000000E+00 0.  1.
         21   -1    0    0  501  502 -0.00000000000E+00 -0.00000000000E+00 -0.80568938100E+03  0.80568938100E+03  0.00000000000E+00 0.  1.
         25    1    1    2    0    0  0.18232613963E+03 -0.32624985715E+02 -0.10039647137E+03  0.24497277879E+03  0.12500000000E+03 0.  0.
         25    1    1    2    0    0 -0.14401595956E+03  0.10559826997E+03 -0.44719321143E+03  0.49749206986E+03  0.12500000000E+03 0.  0.
         25    1    1    2    0    0 -0.38310180065E+02 -0.72973284258E+02 -0.12577870472E+03  0.19554552583E+03  0.12500000000E+03 0.  0.
</event>
<event>
 5    0  0.5648525E-005  0.4315403E+03  0.7546771E-02  0.1033375E+00
         21   -1    0    0  502  501  0.00000000000E+00  0.00000000000E+00  0.30480187497E+04  0.30480187497E+04  0.00000000000E+00 0.  1.
         21   -1    0    0  501  502 -0.00000000000E+00 -0.00000000000E+00 -0.61097719932E+02  0.61097719932E+02  0.00000000000E+00 0.  1.
         25    1    1    2    0    0 -0.40118849815E+02  0.74741908549E+02  0.25419663237E+03  0.29569714729E+03  0.12500000000E+03 0.  0.
         25    1    1    2    0    0  0.18117619066E+03  0.15709495726E+03  0.57863377598E+03  0.63870625828E+03  0.12500000000E+03 0.  0.
         25    1    1    2    0    0 -0.14105734084E+03 -0.23183686581E+03  0.21540906214E+04  0.21747130640E+04  0.12500000000E+03 0.  0.
</event>
<event>
 5    0  0.5648525E-005  0.2764221E+03  0.7546771E-02  0.1097659E+00
         21   -1    0    0  502  501  0.00000000000E+00  0.00000000000E+00  0.16311083427E+04  0.16311083427E+04  0.00000000000E+00 0.  1.
         21   -1    0    0  501  502 -0.00000000000E+00 -0.00000000000E+00 -0.46844948872E+02  0.46844948872E+02  0.00000000000E+00 0.  1.
         25    1    1    2    0    0  0.41714129514E+02  0.10960787605E+03  0.50627849360E+03  0.53450619096E+03  0.12500000000E+03 0.  0.
         25    1    1    2    0    0 -0.91627352855E+02 -0.11696381613E+03  0.32573716331E+03  0.37921735935E+03  0.12500000000E+03 0.  0.
         25    1    1    2    0    0  0.49913223340E+02  0.73559400799E+01  0.75224773691E+03  0.76422974125E+03  0.12500000000E+03 0.  0.
</event>
<event>
 5    0  0.5648525E-005  0.3532710E+03  0.7546771E-02  0.1061280E+00
         21   -1    0    0  502  501  0.00000000000E+00  0.00000000000E+00  0.92485658474E+02  0.92485658474E+02  0.00000000000E+00 0. -1.
         21   -1    0    0  501  502 -0.00000000000E+00 -0.00000000000E+00 -0.13494027822E+04  0.13494027822E+04  0.00000000000E+00 0. -1.
         25    1    1    2    0    0  0.14027028695E+03 -0.10405617889E+03 -0.86807362912E+03  0.89424843715E+03  0.12500000000E+03 0.  0.
         25    1    1    2    0    0  0.25485948999E+02  0.12060042359E+03 -0.20442895039E+03  0.26946278319E+03  0.12500000000E+03 0.  0.
         25    1    1    2    0    0 -0.16575623595E+03 -0.16544244702E+02 -0.18441454417E+03  0.27817722030E+03  0.12500000000E+03 0.  0.
</event>
<event>
 5    0  0.5648525E-005  0.2200359E+03  0.7546771E-02  0.1133856E+00
         21   -1    0    0  502  501  0.00000000000E+00  0.00000000000E+00  0.22378715728E+03  0.22378715728E+03  0.00000000000E+00 0. -1.
         21   -1    0    0  501  502 -0.00000000000E+00 -0.00000000000E+00 -0.21634755898E+03  0.21634755898E+03  0.00000000000E+00 0. -1.
         25    1    1    2    0    0 -0.28359587524E+02  0.13332958544E+02  0.12945692205E+02  0.12951689054E+03  0.12500000000E+03 0.  0.
         25    1    1    2    0    0  0.73471526175E+02 -0.42201751399E+02 -0.62153145086E+02  0.16330054018E+03  0.12500000000E+03 0.  0.
         25    1    1    2    0    0 -0.45111938651E+02  0.28868792855E+02  0.56647051178E+02  0.14731728553E+03  0.12500000000E+03 0.  0.
</event>
<event>
 5    0  0.5648525E-005  0.2966963E+03  0.7546771E-02  0.1086904E+00
         21   -1    0    0  502  501  0.00000000000E+00  0.00000000000E+00  0.44288233330E+03  0.44288233330E+03  0.00000000000E+00 0. -1.
         21   -1    0    0  501  502 -0.00000000000E+00 -0.00000000000E+00 -0.19876312996E+03  0.19876312996E+03  0.00000000000E+00 0. -1.
         25    1    1    2    0    0  0.54086184790E+01 -0.18899272563E+02  0.19131713505E+03  0.22937672467E+03  0.12500000000E+03 0.  0.
         25    1    1    2    0    0  0.11329708380E+03 -0.59736718289E+02  0.11513766864E+03  0.21280598546E+03  0.12500000000E+03 0.  0.
         25    1    1    2    0    0 -0.11870570228E+03  0.78635990853E+02 -0.62335600350E+02  0.19946275312E+03  0.12500000000E+03 0.  0.
</event>
<event>
 5    0  0.5648525E-005  0.3214850E+03  0.7546771E-02  0.1074968E+00
         21   -1    0    0  502  501  0.00000000000E+00  0.00000000000E+00  0.30863584171E+03  0.30863584171E+03  0.00000000000E+00 0.  1.
         21   -1    0    0  501  502 -0.00000000000E+00 -0.00000000000E+00 -0.33486917303E+03  0.33486917303E+03  0.00000000000E+00 0.  1.
         25    1    1    2    0    0 -0.51110599514E+02  0.20159378603E+03 -0.37852941879E+02  0.24558133715E+03  0.12500000000E+03 0.  0.
         25    1    1    2    0    0  0.96050474975E+02 -0.12003532356E+03  0.96553537721E+02  0.22041269993E+03  0.12500000000E+03 0.  0.
         25    1    1    2    0    0 -0.44939875461E+02 -0.81558462470E+02 -0.84933927156E+02  0.17751097766E+03  0.12500000000E+03 0.  0.
</event>
<event>
 5    0  0.5648525E-005  0.2459303E+03  0.7546771E-02  0.1115904E+00
         21   -1    0    0  502  501  0.00000000000E+00  0.00000000000E+00  0.67938338225E+02  0.67938338225E+02  0.00000000000E+00 0.  1.
         21   -1    0    0  501  502 -0.00000000000E+00 -0.00000000000E+00 -0.89024443154E+03  0.89024443154E+03  0.00000000000E+00 0.  1.
         25    1    1    2    0    0 -0.89343762268E+02 -0.10307423734E+02 -0.46823885028E+03  0.49291091665E+03  0.12500000000E+03 0.  0.
         25    1    1    2    0    0 -0.26881658862E+02 -0.16298280449E+02 -0.15997532378E+03  0.20543943571E+03  0.12500000000E+03 0.  0.
         25    1    1    2    0    0  0.11622542113E+03  0.26605704183E+02 -0.19409191926E+03  0.25983241740E+03  0.12500000000E+03 0.  0.
</event>
<event>
 5    0  0.5648525E-005  0.3433456E+03  0.7546771E-02  0.1065380E+00
         21   -1    0    0  502  501  0.00000000000E+00  0.00000000000E+00  0.10838058654E+03  0.10838058654E+03  0.00000000000E+00 0.  1.
         21   -1    0    0  501  502 -0.00000000000E+00 -0.00000000000E+00 -0.10877058469E+04  0.10877058469E+04  0.00000000000E+00 0.  1.
         25    1    1    2    0    0 -0.76211507915E+02  0.11369461267E+03 -0.15035064344E+03  0.23867336440E+03  0.12500000000E+03 0.  0.
         25    1    1    2    0    0 -0.22957040235E+02 -0.10143370781E+03 -0.62167677339E+02  0.17408515986E+03  0.12500000000E+03 0.  0.
         25    1    1    2    0    0  0.99168548150E+02 -0.12260904866E+02 -0.76680693961E+03  0.78332790922E+03  0.12500000000E+03 0.  0.
</event>
<event>
 5    0  0.5648525E-005  0.3500066E+03  0.7546771E-02  0.1062612E+00
         21   -1    0    0  502  501  0.00000000000E+00  0.00000000000E+00  0.12700290834E+04  0.12700290834E+04  0.00000000000E+00 0. -1.
         21   -1    0    0  501  502 -0.00000000000E+00 -0.00000000000E+00 -0.96458127253E+02  0.96458127253E+02  0.00000000000E+00 0. -1.
         25    1    1    2    0    0  0.18033252811E+03 -0.39754038702E+02  0.82364427175E+03  0.85329660182E+03  0.12500000000E+03 0.  0.
         25    1    1    2    0    0 -0.16525859886E+03  0.76876975799E+02  0.30029341959E+03  0.37285602014E+03  0.12500000000E+03 0.  0.
         25    1    1    2    0    0 -0.15073929255E+02 -0.37122937097E+02  0.49633264766E+02  0.14033458866E+03  0.12500000000E+03 0.  0.
</event>
<event>
 5    0  0.5648525E-005  0.2516367E+03  0.7546771E-02  0.1112275E+00
         21   -1    0    0  502  501  0.00000000000E+00  0.00000000000E+00  0.42689740293E+03  0.42689740293E+03  0.00000000000E+00 0.  1.
         21   -1    0    0  501  502 -0.00000000000E+00 -0.00000000000E+00 -0.14832843620E+03  0.14832843620E+03  0.00000000000E+00 0.  1.
         25    1    1    2    0    0  0.39935494459E+02  0.12304547199E+02  0.14400510443E+03  0.19521453763E+03  0.12500000000E+03 0.  0.
         25    1    1    2    0    0  0.93981923418E+02 -0.42259898659E+02  0.23488990144E+02  0.16369249715E+03  0.12500000000E+03 0.  0.
         25    1    1    2    0    0 -0.13391741788E+03  0.29955351459E+02  0.11107487216E+03  0.21631880435E+03  0.12500000000E+03 0.  0.
</event>
<event>
 5    0  0.5648525E-005  0.3038811E+03  0.7546771E-02  0.1083316E+00
         21   -1    0    0  502  501  0.00000000000E+00  0.00000000000E+00  0.36082804878E+03  0.36082804878E+03  0.00000000000E+00 0. -1.
         21   -1    0    0  501  502 -0.00000000000E+00 -0.00000000000E+00 -0.25592172540E+03  0.25592172540E+03  0.00000000000E+00 0. -1.
         25    1    1    2    0    0  0.15346896001E+03 -0.81806390330E+02  0.12760650637E+01  0.21417664562E+03  0.12500000000E+03 0.  0.
         25    1    1    2    0    0 -0.20089031905E+03  0.89063712344E+02  0.46734512840E+02  0.25709605177E+03  0.12500000000E+03 0.  0.
         25    1    1    2    0    0  0.47421359045E+02 -0.72573220144E+01  0.56895745476E+02  0.14547707678E+03  0.12500000000E+03 0.  0.
</event>
<event>
 5    0  0.5648525E-005  0.2432249E+03  0.7546771E-02  0.1117663E+00
         21   -1    0    0  502  501  0.00000000000E+00  0.00000000000E+00  0.28957223306E+03  0.28957223306E+03  0.00000000000E+00 0.  1.
         21   -1    0    0  501  502 -0.00000000000E+00 -0.00000000000E+00 -0.20429558607E+03  0.20429558607E+03  0.00000000000E+00 0.  1.
         25    1    1    2    0    0 -0.66374994361E+02  0.13090571165E+02 -0.69237191748E+01  0.14230228676E+03  0.12500000000E+03 0.  0.
         25    1    1    2    0    0  0.24957382501E+02  0.19032762122E+00 -0.67430521702E+02  0.14420396119E+03  0.12500000000E+03 0.  0.
         25    1    1    2    0    0  0.41417611860E+02 -0.13280898786E+02  0.15963088787E+03  0.20736157119E+03  0.12500000000E+03 0.  0.
</event>
<event>
 5    0  0.5648525E-005  0.3873383E+03  0.7546771E-02  0.1048254E+00
         21   -1    0    0  502  501  0.00000000000E+00  0.00000000000E+00  0.17000561021E+03  0.17000561021E+03  0.00000000000E+00 0.  1.
         21   -1    0    0  501  502 -0.00000000000E+00 -0.00000000000E+00 -0.88250591386E+03  0.88250591386E+03  0.00000000000E+00 0.  1.
         25    1    1    2    0    0 -0.22746213467E+03 -0.87217414853E+01 -0.13180163640E+03  0.29122459176E+03  0.12500000000E+03 0.  0.
         25    1    1    2    0    0  0.80291200144E+02  0.14917033822E+03 -0.43045589939E+03  0.47918237441E+03  0.12500000000E+03 0.  0.
         25    1    1    2    0    0  0.14717093453E+03 -0.14044859673E+03 -0.15024276786E+03  0.28210455790E+03  0.12500000000E+03 0.  0.
</event>
<event>
 5    0  0.5648525E-005  0.3344287E+03  0.7546771E-02  0.1069194E+00
         21   -1    0    0  502  501  0.00000000000E+00  0.00000000000E+00  0.30176646713E+03  0.30176646713E+03  0.00000000000E+00 0. -1.
         21   -1    0    0  501  502 -0.00000000000E+00 -0.00000000000E+00 -0.37062626300E+03  0.37062626300E+03  0.00000000000E+00 0. -1.
         25    1    1    2    0    0  0.12217164093E+03 -0.53061221723E+02 -0.64129100545E+02  0.19359479496E+03  0.12500000000E+03 0.  0.
         25    1    1    2    0    0  0.51233431144E+02  0.17564019458E+03  0.48194257488E+02  0.22676425837E+03  0.12500000000E+03 0.  0.
         25    1    1    2    0    0 -0.17340507208E+03 -0.12257897286E+03 -0.52924952806E+02  0.25203367680E+03  0.12500000000E+03 0.  0.
</event>
<event>
 5    0  0.5648525E-005  0.4064192E+03  0.7546771E-02  0.1041579E+00
         21   -1    0    0  502  501  0.00000000000E+00  0.00000000000E+00  0.45150968364E+03  0.45150968364E+03  0.00000000000E+00 0. -1.
         21   -1    0    0  501  502 -0.00000000000E+00 -0.00000000000E+00 -0.36583174944E+03  0.36583174944E+03  0.00000000000E+00 0. -1.
         25    1    1    2    0    0 -0.23600515118E+03  0.53243503216E+02  0.26053757695E+02  0.27356370430E+03  0.12500000000E+03 0.  0.
         25    1    1    2    0    0  0.26937500699E+03 -0.67063435228E+02  0.19057886926E+03  0.35917364066E+03  0.12500000000E+03 0.  0.
         25    1    1    2    0    0 -0.33369855810E+02  0.13819932013E+02 -0.13095469276E+03  0.18460408813E+03  0.12500000000E+03 0.  0.
</event>
<event>
 5    0  0.5648525E-005  0.2785383E+03  0.7546771E-02  0.1096490E+00
         21   -1    0    0  502  501  0.00000000000E+00  0.00000000000E+00  0.28354437002E+02  0.28354437002E+02  0.00000000000E+00 0.  1.
         21   -1    0    0  501  502 -0.00000000000E+00 -0.00000000000E+00 -0.27362065483E+04  0.27362065483E+04  0.00000000000E+00 0.  1.
         25    1    1    2    0    0  0.38893106225E+02 -0.12588849894E+03 -0.16575352034E+04  0.16674557081E+04  0.12500000000E+03 0.  0.
         25    1    1    2    0    0  0.21429445874E+02  0.98558083234E+02 -0.72131066580E+03  0.73897699120E+03  0.12500000000E+03 0.  0.
         25    1    1    2    0    0 -0.60322552099E+02  0.27330415706E+02 -0.32900624207E+03  0.35812828600E+03  0.12500000000E+03 0.  0.
</event>
<event>
 5    0  0.6240744E-005  0.3577670E+03  0.7546771E-02  0.1059472E+00
         21   -1    0    0  502  501  0.00000000000E+00  0.00000000000E+00  0.85007373285E+03  0.85007373285E+03  0.00000000000E+00 0.  1.
         21   -1    0    0  501  502 -0.00000000000E+00 -0.00000000000E+00 -0.15057187817E+03  0.15057187817E+03  0.00000000000E+00 0.  1.
         25    1    1    2    0    0  0.15592811946E+03  0.13218901690E+03  0.26589806821E+03  0.35793057610E+03  0.12500000000E+03 0.  0.
         25    1    1    2    0    0  0.23003508053E+02 -0.64058727700E+02 -0.11005510601E+02  0.14275434579E+03  0.12500000000E+03 0.  0.
         25    1    1    2    0    0 -0.17893162752E+03 -0.68130289202E+02  0.44460929707E+03  0.49996068913E+03  0.12500000000E+03 0.  0.
</event>
<event>
 5    0  0.6032376E-005  0.2934946E+03  0.7546771E-02  0.1088539E+00
         21   -1    0    0  502  501  0.00000000000E+00  0.00000000000E+00  0.82167334714E+02  0.82167334714E+02  0.00000000000E+00 0. -1.
         21   -1    0    0  501  502 -0.00000000000E+00 -0.00000000000E+00 -0.10483373241E+04  0.10483373241E+04  0.00000000000E+00 0. -1.
         25    1    1    2    0    0 -0.78775298675E+02  0.10292043008E+03 -0.25329733855E+03  0.31077758015E+03  0.12500000000E+03 0.  0.
         25    1    1    2    0    0  0.41690065890E+02 -0.15862338948E+03 -0.19871322409E+03  0.28637630264E+03  0.12500000000E+03 0.  0.
         25    1    1    2    0    0  0.37085232785E+02  0.55702959398E+02 -0.51415942677E+03  0.53335077605E+03  0.12500000000E+03 0.  0.
</event>
<event>
 5    0  0.5648525E-005  0.2671945E+03  0.7546771E-02  0.1102896E+00
         21   -1    0    0  502  501  0.00000000000E+00  0.00000000000E+00  0.12669721675E+04  0.12669721675E+04  0.00000000000E+00 0.  1.
         21   -1    0    0  501  502 -0.00000000000E+00 -0.00000000000E+00 -0.56349229400E+02  0.56349229400E+02  0.00000000000E+00 0.  1.
         25    1    1    2    0    0 -0.32367179985E+01  0.81866308906E+02  0.12875629495E+03  0.19727075902E+03  0.12500000000E+03 0.  0.
         25    1    1    2    0    0  0.54432906888E+02  0.26781163650E+02  0.49074312545E+03  0.51003331975E+03  0.12500000000E+03 0.  0.
         25    1    1    2    0    0 -0.51196188890E+02 -0.10864747256E+03  0.59112351770E+03  0.61601731812E+03  0.12500000000E+03 0.  0.
</event>
<event>
 5    0  0.6895646E-005  0.5560390E+03  0.7546771E-02  0.1000106E+00
         21   -1    0    0  502  501  0.00000000000E+00  0.00000000000E+00  0.88821026738E+03  0.88821026738E+03  0.00000000000E+00 0. -1.
         21   -1    0    0  501  502 -0.00000000000E+00 -0.00000000000E+00 -0.34809250993E+03  0.34809250993E+03  0.00000000000E+00 0. -1.
         25    1    1    2    0    0  0.29779581559E+03  0.46159537985E+02  0.37309498257E+03  0.49561872114E+03  0.12500000000E+03 0.  0.
         25    1    1    2    0    0 -0.29155509863E+03  0.24416909038E+03  0.13700770483E+03  0.42310640673E+03  0.12500000000E+03 0.  0.
         25    1    1    2    0    0 -0.62407169657E+01 -0.29032862836E+03  0.30015070050E+02  0.31757764944E+03  0.12500000000E+03 0.  0.
</event>
<event>
 5    0  0.5648525E-005  0.4024871E+03  0.7546771E-02  0.1042922E+00
         21   -1    0    0  502  501  0.00000000000E+00  0.00000000000E+00  0.19416431616E+04  0.19416431616E+04  0.00000000000E+00 0. -1.
         21   -1    0    0  501  502 -0.00000000000E+00 -0.00000000000E+00 -0.83432348684E+02  0.83432348684E+02  0.00000000000E+00 0. -1.
         25    1    1    2    0    0 -0.12496477190E+03 -0.96262635533E+02  0.81851741843E+03  0.84289883942E+03  0.12500000000E+03 0.  0.
         25    1    1    2    0    0 -0.14609498860E+03  0.94186387630E+02  0.68975791500E+03  0.72222282061E+03  0.12500000000E+03 0.  0.
         25    1    1    2    0    0  0.27105976049E+03  0.20762479032E+01  0.34993547949E+03  0.45995385026E+03  0.12500000000E+03 0.  0.
</event>
<event>
 5    0  0.5648525E-005  0.3526473E+03  0.7546771E-02  0.1061534E+00
         21   -1    0    0  502  501  0.00000000000E+00  0.00000000000E+00  0.79292947558E+03  0.79292947558E+03  0.00000000000E+00 0. -1.
         21   -1    0    0  501  502 -0.00000000000E+00 -0.00000000000E+00 -0.15683625729E+03  0.15683625729E+03  0.00000000000E+00 0. -1.
         25    1    1    2    0    0  0.15726383128E+03  0.12891728765E+03  0.43203193576E+03  0.49358704724E+03  0.12500000000E+03 0.  0.
         25    1    1    2    0    0 -0.12143210895E+03 -0.34132929395E+02 -0.21738564532E+02  0.17890885708E+03  0.12500000000E+03 0.  0.
         25    1    1    2    0    0 -0.35831722333E+02 -0.94784358255E+02  0.22579984706E+03  0.27726982855E+03  0.12500000000E+03 0.  0.
</event>
<event>
 5    0  0.5648525E-005  0.3651633E+03  0.7546771E-02  0.1056558E+00
         21   -1    0    0  502  501  0.00000000000E+00  0.00000000000E+00  0.13828942870E+03  0.13828942870E+03  0.00000000000E+00 0. -1.
         21   -1    0    0  501  502 -0.00000000000E+00 -0.00000000000E+00 -0.96424049469E+03  0.96424049469E+03  0.00000000000E+00 0. -1.
         25    1    1    2    0    0 -0.74929967404E+02  0.20121576609E+03 -0.22036083871E+03  0.33209363706E+03  0.12500000000E+03 0.  0.
         25    1    1    2    0    0 -0.72803326060E+02 -0.96459200941E+02 -0.63013597895E+02  0.18493354280E+03  0.12500000000E+03 0.  0.
         25    1    1    2    0    0  0.14773329346E+03 -0.10475656515E+03 -0.54257662938E+03  0.58550274354E+03  0.12500000000E+03 0.  0.
</event>
<event>
 5    0  0.6000524E-005  0.3466975E+03  0.7546771E-02  0.1063979E+00
         21   -1    0    0  502  501  0.00000000000E+00  0.00000000000E+00  0.45511401912E+03  0.45511401912E+03  0.00000000000E+00 0.  1.
         21   -1    0    0  501  502 -0.00000000000E+00 -0.00000000000E+00 -0.26410771620E+03  0.26410771620E+03  0.00000000000E+00 0.  1.
         25    1    1    2    0    0  0.90325506109E+01  0.46932361671E+02  0.14515745473E+03  0.19743333104E+03  0.12500000000E+03 0.  0.
         25    1    1    2    0    0  0.11840550832E+02  0.19554382301E+03  0.80661254269E+02  0.24598541278E+03  0.12500000000E+03 0.  0.
         25    1    1    2    0    0 -0.20873101443E+02 -0.24247618468E+03 -0.34812406087E+02  0.27580299150E+03  0.12500000000E+03 0.  0.
</event>
<event>
 5    0  0.5648525E-005  0.2817061E+03  0.7546771E-02  0.1094761E+00
         21   -1    0    0  502  501  0.00000000000E+00  0.00000000000E+00  0.11200812119E+03  0.11200812119E+03  0.00000000000E+00 0.  1.
         21   -1    0    0  501  502 -0.00000000000E+00 -0.00000000000E+00 -0.70850490686E+03  0.70850490686E+03  0.00000000000E+00 0.  1.
         25    1    1    2    0    0  0.73431703154E+02 -0.83865493552E+02 -0.10349130731E+03  0.19687835515E+03  0.12500000000E+03 0.  0.
         25    1    1    2    0    0 -0.67219117506E+02  0.27657567543E+02 -0.46046082937E+03  0.48263083841E+03  0.12500000000E+03 0.  0.
         25    1    1    2    0    0 -0.62125856479E+01  0.56207926008E+02 -0.32544648995E+02  0.14100383450E+03  0.12500000000E+03 0.  0.
</event>
<event>
 5    0  0.5648525E-005  0.2983934E+03  0.7546771E-02  0.1086047E+00
         21   -1    0    0  502  501  0.00000000000E+00  0.00000000000E+00  0.12805998675E+04  0.12805998675E+04  0.00000000000E+00 0.  1.
         21   -1    0    0  501  502 -0.00000000000E+00 -0.00000000000E+00 -0.69528831999E+02  0.69528831999E+02  0.00000000000E+00 0.  1.
         25    1    1    2    0    0 -0.47471333042E+02  0.41479819571E+02  0.65707418629E+03  0.67182258758E+03  0.12500000000E+03 0.  0.
         25    1    1    2    0    0  0.10365954225E+03 -0.11561367661E+02  0.75099550586E+02  0.17928722325E+03  0.12500000000E+03 0.  0.
         25    1    1    2    0    0 -0.56188209212E+02 -0.29918451910E+02  0.47889729861E+03  0.49901888866E+03  0.12500000000E+03 0.  0.
</event>
<event>
 5    0  0.5648525E-005  0.2654873E+03  0.7546771E-02  0.1103890E+00
         21   -1    0    0  502  501  0.00000000000E+00  0.00000000000E+00  0.59241032124E+02  0.59241032124E+02  0.00000000000E+00 0. -1.
         21   -1    0    0  501  502 -0.00000000000E+00 -0.00000000000E+00 -0.11897746888E+04  0.11897746888E+04  0.00000000000E+00 0. -1.
         25    1    1    2    0    0  0.46456186688E+02 -0.58347124276E+00 -0.46458333441E+03  0.48334376207E+03  0.12500000000E+03 0.  0.
         25    1    1    2    0    0  0.85334140861E+02  0.88213152029E+02 -0.28213147210E+03  0.33209432897E+03  0.12500000000E+03 0.  0.
         25    1    1    2    0    0 -0.13179032755E+03 -0.87629680786E+02 -0.38381885016E+03  0.43357762988E+03  0.12500000000E+03 0.  0.
</event>
<event>
 5    0  0.6162930E-005  0.3325188E+03  0.7546771E-02  0.1070028E+00
         21   -1    0    0  502  501  0.00000000000E+00  0.00000000000E+00  0.61872541312E+03  0.61872541312E+03  0.00000000000E+00 0. -1.
         21   -1    0    0  501  502 -0.00000000000E+00 -0.00000000000E+00 -0.17870404514E+03  0.17870404514E+03  0.00000000000E+00 0. -1.
         25    1    1    2    0    0  0.10781638082E+03 -0.19732155489E+02  0.17190908861E+02  0.16713544592E+03  0.12500000000E+03 0.  0.
         25    1    1    2    0    0 -0.21964593508E+03 -0.58316867998E+02  0.14686377863E+03  0.29805899309E+03  0.12500000000E+03 0.  0.
         25    1    1    2    0    0  0.11182955425E+03  0.78049023488E+02  0.27596668050E+03  0.33223501925E+03  0.12500000000E+03 0.  0.
</event>
<event>
 5    0  0.6121374E-005  0.2921695E+03  0.7546771E-02  0.1089222E+00
         21   -1    0    0  502  501  0.00000000000E+00  0.00000000000E+00  0.47839147304E+03  0.47839147304E+03  0.00000000000E+00 0. -1.
         21   -1    0    0  501  502 -0.00000000000E+00 -0.00000000000E+00 -0.17843759108E+03  0.17843759108E+03  0.00000000000E+00 0. -1.
         25    1    1    2    0    0 -0.43982540859E+02 -0.60388459336E+01 -0.59867279783E+02  0.14553357946E+03  0.12500000000E+03 0.  0.
         25    1    1    2    0    0  0.63601539018E+01 -0.11755045989E+03  0.11148721152E+03  0.20472655057E+03  0.12500000000E+03 0.  0.
         25    1    1    2    0    0  0.37622386958E+02  0.12358930582E+03  0.24833395023E+03  0.30656893409E+03  0.12500000000E+03 0.  0.
</event>
<event>
 5    0  0.6529102E-005  0.3334923E+03  0.7546771E-02  0.1069602E+00
         21   -1    0    0  502  501  0.00000000000E+00  0.00000000000E+00  0.56356200246E+03  0.56356200246E+03  0.00000000000E+00 0. -1.
         21   -1    0    0  501  502 -0.00000000000E+00 -0.00000000000E+00 -0.19734671572E+03  0.19734671572E+03  0.00000000000E+00 0. -1.
         25    1    1    2    0    0  0.20480695770E+02 -0.16784037458E+03  0.23394325784E+03  0.31455412591E+03  0.12500000000E+03 0.  0.
         25    1    1    2    0    0 -0.11829107713E+03  0.94689956938E+01  0.13992694032E+03  0.22200673286E+03  0.12500000000E+03 0.  0.
         25    1    1    2    0    0  0.97810381358E+02  0.15837137889E+03 -0.76549114314E+01  0.22434785941E+03  0.12500000000E+03 0.  0.
</event>
<event>
 5    0  0.5648525E-005  0.3239146E+03  0.7546771E-02  0.1073862E+00
         21   -1    0    0  502  501  0.00000000000E+00  0.00000000000E+00  0.25710553947E+03  0.25710553947E+03  0.00000000000E+00 0.  1.
         21   -1    0    0  501  502 -0.00000000000E+00 -0.00000000000E+00 -0.40808395831E+03  0.40808395831E+03  0.00000000000E+00 0.  1.
         25    1    1    2    0    0 -0.99198474644E+02  0.12031357191E+03 -0.12840362463E+03  0.23754617188E+03  0.12500000000E+03 0.  0.
         25    1    1    2    0    0  0.74461557097E+02  0.64877199749E+02  0.82615930644E+02  0.17945463641E+03  0.12500000000E+03 0.  0.
         25    1    1    2    0    0  0.24736917547E+02 -0.18519077166E+03 -0.10519072485E+03  0.24818868949E+03  0.12500000000E+03 0.  0.
</event>
<event>
 5    0  0.5648525E-005  0.2532878E+03  0.7546771E-02  0.1111244E+00
         21   -1    0    0  502  501  0.00000000000E+00  0.00000000000E+00  0.20460964478E+03  0.20460964478E+03  0.00000000000E+00 0.  1.
         21   -1    0    0  501  502 -0.00000000000E+00 -0.00000000000E+00 -0.31354675035E+03  0.31354675035E+03  0.00000000000E+00 0.  1.
         25    1    1    2    0    0  0.28364572996E+02  0.97587661917E+02  0.77506998944E+01  0.16128538095E+03  0.12500000000E+03 0.  0.
         25    1    1    2    0    0 -0.25586198414E+02 -0.14880897421E+03 -0.35409009433E+02  0.19919227471E+03  0.12500000000E+03 0.  0.
         25    1    1    2    0    0 -0.27783745827E+01  0.51221312292E+02 -0.81278796032E+02  0.15767873948E+03  0.12500000000E+03 0.  0.
</event>
<event>
 5    0  0.5648525E-005  0.2669051E+03  0.7546771E-02  0.1103064E+00
         21   -1    0    0  502  501  0.00000000000E+00  0.00000000000E+00  0.11829515585E+03  0.11829515585E+03  0.00000000000E+00 0.  1.
         21   -1    0    0  501  502 -0.00000000000E+00 -0.00000000000E+00 -0.60220849199E+03  0.60220849199E+03  0.00000000000E+00 0.  1.
         25    1    1    2    0    0 -0.29286779594E+02  0.13169374532E+03 -0.14754028582E+03  0.23578399851E+03  0.12500000000E+03 0.  0.
         25    1    1    2    0    0  0.83423566797E+02  0.53547239321E+01 -0.10570657826E+03  0.18381252747E+03  0.12500000000E+03 0.  0.
         25    1    1    2    0    0 -0.54136787203E+02 -0.13704846925E+03 -0.23066647207E+03  0.30090712186E+03  0.12500000000E+03 0.  0.
</event>
<event>
 5    0  0.5648525E-005  0.3138732E+03  0.7546771E-02  0.1078504E+00
         21   -1    0    0  502  501  0.00000000000E+00  0.00000000000E+00  0.27960580475E+03  0.27960580475E+03  0.00000000000E+00 0. -1.
         21   -1    0    0  501  502 -0.00000000000E+00 -0.00000000000E+00 -0.35234019920E+03  0.35234019920E+03  0.00000000000E+00 0. -1.
         25    1    1    2    0    0  0.65667766408E+02  0.39154626943E+02 -0.45276081250E+02  0.15336317645E+03  0.12500000000E+03 0.  0.
         25    1    1    2    0    0  0.73797067501E+02  0.15030509017E+03  0.11869235644E+02  0.20929287150E+03  0.12500000000E+03 0.  0.
         25    1    1    2    0    0 -0.13946483391E+03 -0.18945971712E+03 -0.39327548848E+02  0.26928995601E+03  0.12500000000E+03 0.  0.
</event>
<event>
 5    0  0.5648525E-005  0.3507235E+03  0.7546771E-02  0.1062318E+00
         21   -1    0    0  502  501  0.00000000000E+00  0.00000000000E+00  0.77553945343E+02  0.77553945343E+02  0.00000000000E+00 0.  1.
         21   -1    0    0  501  502 -0.00000000000E+00 -0.00000000000E+00 -0.15860823194E+04  0.15860823194E+04  0.00000000000E+00 0.  1.
         25    1    1    2    0    0  0.43771906728E+02  0.10463760390E+03 -0.25360299136E+03  0.30463828583E+03  0.12500000000E+03 0.  0.
         25    1    1    2    0    0 -0.18720792742E+03 -0.46683805807E+02 -0.27194072616E+03  0.35609401057E+03  0.12500000000E+03 0.  0.
         25    1    1    2    0    0  0.14343602069E+03 -0.57953798090E+02 -0.98298465656E+03  0.10029039684E+04  0.12500000000E+03 0.  0.
</event>
<event>
 5    0  0.5648525E-005  0.4028244E+03  0.7546771E-02  0.1042806E+00
         21   -1    0    0  502  501  0.00000000000E+00  0.00000000000E+00  0.29813335448E+03  0.29813335448E+03  0.00000000000E+00 0.  1.
         21   -1    0    0  501  502 -0.00000000000E+00 -0.00000000000E+00 -0.54427835988E+03  0.54427835988E+03  0.00000000000E+00 0.  1.
         25    1    1    2    0    0 -0.97302507343E+02  0.94909233562E+02 -0.30532219547E+03  0.35682234179E+03  0.12500000000E+03 0.  0.
         25    1    1    2    0    0  0.12446773508E+03 -0.12422039777E+03 -0.13257682847E+03  0.25322823646E+03  0.12500000000E+03 0.  0.
         25    1    1    2    0    0 -0.27165227733E+02  0.29311164204E+02  0.19175401854E+03  0.23236113610E+03  0.12500000000E+03 0.  0.
</event>
<event>
 5    0  0.5648525E-005  0.2864167E+03  0.7546771E-02  0.1092235E+00
         21   -1    0    0  502  501  0.00000000000E+00  0.00000000000E+00  0.20846075440E+03  0.20846075440E+03  0.00000000000E+00 0.  1.
         21   -1    0    0  501  502 -0.00000000000E+00 -0.00000000000E+00 -0.39352516810E+03  0.39352516810E+03  0.00000000000E+00 0.  1.
         25    1    1    2    0    0  0.14552576769E+03 -0.75191401960E+02 -0.11837603647E+03  0.23763287231E+03  0.12500000000E+03 0.  0.
         25    1    1    2    0    0 -0.15759212851E+03  0.52876906151E+01  0.99658321730E+01  0.20146353628E+03  0.12500000000E+03 0.  0.
         25    1    1    2    0    0  0.12066360816E+02  0.69903711345E+02 -0.76654209405E+02  0.16288951391E+03  0.12500000000E+03 0.  0.
</event>
<event>
 5    0  0.5648525E-005  0.2251700E+03  0.7546771E-02  0.1130086E+00
         21   -1    0    0  502  501  0.00000000000E+00  0.00000000000E+00  0.20633687967E+03  0.20633687967E+03  0.00000000000E+00 0. -1.
         21   -1    0    0  501  502 -0.00000000000E+00 -0.00000000000E+00 -0.24572204382E+03  0.24572204382E+03  0.00000000000E+00 0. -1.
         25    1    1    2    0    0  0.17096196939E+02 -0.40888799500E+02 -0.57065212305E+02  0.14438009672E+03  0.12500000000E+03 0.  0.
         25    1    1    2    0    0  0.56158115636E+02 -0.34011484698E+02  0.29172980993E+02  0.14417551062E+03  0.12500000000E+03 0.  0.
         25    1    1    2    0    0 -0.73254312575E+02  0.74900284198E+02 -0.11492932838E+02  0.16350331614E+03  0.12500000000E+03 0.  0.
</event>
<event>
 5    0  0.5648525E-005  0.2893419E+03  0.7546771E-02  0.1090693E+00
         21   -1    0    0  502  501  0.00000000000E+00  0.00000000000E+00  0.23705730923E+03  0.23705730923E+03  0.00000000000E+00 0.  1.
         21   -1    0    0  501  502 -0.00000000000E+00 -0.00000000000E+00 -0.35315811890E+03  0.35315811890E+03  0.00000000000E+00 0.  1.
         25    1    1    2    0    0 -0.95239925117E+02  0.38230267203E+02 -0.18704776655E+03  0.24727325702E+03  0.12500000000E+03 0.  0.
         25    1    1    2    0    0  0.32762523436E+02  0.30607166657E+02  0.12065635150E+03  0.17942445973E+03  0.12500000000E+03 0.  0.
         25    1    1    2    0    0  0.62477401681E+02 -0.68837433860E+02 -0.49709394618E+02  0.16351771138E+03  0.12500000000E+03 0.  0.
</event>
<event>
 5    0  0.5648525E-005  0.3587177E+03  0.7546771E-02  0.1059093E+00
         21   -1    0    0  502  501  0.00000000000E+00  0.00000000000E+00  0.27348579453E+03  0.27348579453E+03  0.00000000000E+00 0.  1.
         21   -1    0    0  501  502 -0.00000000000E+00 -0.00000000000E+00 -0.47051226789E+03  0.47051226789E+03  0.00000000000E+00 0.  1.
         25    1    1    2    0    0  0.18191052464E+03  0.39498232470E+02 -0.21436591607E+03  0.31020847074E+03  0.12500000000E+03 0.  0.
         25    1    1    2    0    0  0.50609154674E+02 -0.86679468571E+02  0.38224424436E+02  0.16480510742E+03  0.12500000000E+03 0.  0.
         25    1    1    2    0    0 -0.23251967932E+03  0.47181236101E+02 -0.20884981722E+02  0.26898448426E+03  0.12500000000E+03 0.  0.
</event>
<event>
 5    0  0.5648525E-005  0.6513595E+03  0.7546771E-02  0.9804232E-01
         21   -1    0    0  502  501  0.00000000000E+00  0.00000000000E+00  0.55037612443E+03  0.55037612443E+03  0.00000000000E+00 0. -1.
         21   -1    0    0  501  502 -0.00000000000E+00 -0.00000000000E+00 -0.77087129361E+03  0.77087129361E+03  0.00000000000E+00 0. -1.
         25    1    1    2    0    0 -0.24375343627E+03  0.83333091504E+02 -0.58619894843E+03  0.65239125452E+03  0.12500000000E+03 0.  0.
         25    1    1    2    0    0  0.18361749561E+03  0.99739363970E+02  0.36548560565E+03  0.43916745480E+03  0.12500000000E+03 0.  0.
         25    1    1    2    0    0  0.60135940660E+02 -0.18307245547E+03  0.21817360149E+00  0.22968870872E+03  0.12500000000E+03 0.  0.
</event>
<event>
 5    0  0.5913537E-005  0.3506768E+03  0.7546771E-02  0.1062338E+00
         21   -1    0    0  502  501  0.00000000000E+00  0.00000000000E+00  0.25949867049E+03  0.25949867049E+03  0.00000000000E+00 0. -1.
         21   -1    0    0  501  502 -0.00000000000E+00 -0.00000000000E+00 -0.47389146066E+03  0.47389146066E+03  0.00000000000E+00 0. -1.
         25    1    1    2    0    0 -0.12266773071E+03 -0.61889565539E+01 -0.22309051733E+02  0.17665890617E+03  0.12500000000E+03 0.  0.
         25    1    1    2    0    0  0.12016875427E+03 -0.16996460607E+03 -0.23341231662E+03  0.33680084081E+03  0.12500000000E+03 0.  0.
         25    1    1    2    0    0  0.24989764381E+01  0.17615356262E+03  0.41328578186E+02  0.21993038417E+03  0.12500000000E+03 0.  0.
</event>
<event>
 5    0  0.5648525E-005  0.2463341E+03  0.7546771E-02  0.1115644E+00
         21   -1    0    0  502  501  0.00000000000E+00  0.00000000000E+00  0.96763276481E+03  0.96763276481E+03  0.00000000000E+00 0. -1.
         21   -1    0    0  501  502 -0.00000000000E+00 -0.00000000000E+00 -0.62710245843E+02  0.62710245843E+02  0.00000000000E+00 0. -1.
         25    1    1    2    0    0 -0.32217642331E+02  0.62414460337E+02  0.15183575197E+03  0.20883638790E+03  0.12500000000E+03 0.  0.
         25    1    1    2    0    0 -0.62024163784E+02 -0.62083524913E+02  0.50996373907E+03  0.53234328786E+03  0.12500000000E+03 0.  0.
         25    1    1    2    0    0  0.94241806115E+02 -0.33093542460E+00  0.24312302793E+03  0.28916333490E+03  0.12500000000E+03 0.  0.
</event>
<event>
 5    0  0.5648525E-005  0.3701210E+03  0.7546771E-02  0.1054647E+00
         21   -1    0    0  502  501  0.00000000000E+00  0.00000000000E+00  0.23026717961E+03  0.23026717961E+03  0.00000000000E+00 0. -1.
         21   -1    0    0  501  502 -0.00000000000E+00 -0.00000000000E+00 -0.59491577404E+03  0.59491577404E+03  0.00000000000E+00 0. -1.
         25    1    1    2    0    0  0.68490611226E+02  0.17957241570E+03 -0.18179540473E+03  0.29259491705E+03  0.12500000000E+03 0.  0.
         25    1    1    2    0    0 -0.96307013399E+02  0.66751840317E+02 -0.18873186631E+03  0.25490305290E+03  0.12500000000E+03 0.  0.
         25    1    1    2    0    0  0.27816402173E+02 -0.24632425601E+03  0.58786766050E+01  0.27768498369E+03  0.12500000000E+03 0.  0.
</event>
<event>
 5    0  0.5648525E-005  0.2884280E+03  0.7546771E-02  0.1091173E+00
         21   -1    0    0  502  501  0.00000000000E+00  0.00000000000E+00  0.52058825745E+03  0.52058825745E+03  0.00000000000E+00 0.  1.
         21   -1    0    0  501  502 -0.00000000000E+00 -0.00000000000E+00 -0.15980132157E+03  0.15980132157E+03  0.00000000000E+00 0.  1.
         25    1    1    2    0    0 -0.15529372470E+02  0.94356004033E+01  0.49018067315E+02  0.13549156021E+03  0.12500000000E+03 0.  0.
         25    1    1    2    0    0  0.98884996008E+02  0.81920826079E+02 -0.86378180451E+01  0.17941258618E+03  0.12500000000E+03 0.  0.
         25    1    1    2    0    0 -0.83355623538E+02 -0.91356426482E+02  0.32040668661E+03  0.36548543263E+03  0.12500000000E+03 0.  0.
</event>
<event>
 5    0  0.5648525E-005  0.2821538E+03  0.7546771E-02  0.1094518E+00
         21   -1    0    0  502  501  0.00000000000E+00  0.00000000000E+00  0.95662949275E+02  0.95662949275E+02  0.00000000000E+00 0.  1.
         21   -1    0    0  501  502 -0.00000000000E+00 -0.00000000000E+00 -0.83220052420E+03  0.83220052420E+03  0.00000000000E+00 0.  1.
         25    1    1    2    0    0 -0.72713231567E+02 -0.25519770566E+02 -0.33683741370E+02  0.15065877727E+03  0.12500000000E+03 0.  0.
         25    1    1    2    0    0  0.34712415775E+02  0.10505049743E+03 -0.26287349074E+03  0.31139690260E+03  0.12500000000E+03 0.  0.
         25    1    1    2    0    0  0.38000815792E+02 -0.79530726866E+02 -0.43998034282E+03  0.46580779361E+03  0.12500000000E+03 0.  0.
</event>
<event>
 5    0  0.5648525E-005  0.2948049E+03  0.7546771E-02  0.1087867E+00
         21   -1    0    0  502  501  0.00000000000E+00  0.00000000000E+00  0.21822653810E+03  0.21822653810E+03  0.00000000000E+00 0. -1.
         21   -1    0    0  501  502 -0.00000000000E+00 -0.00000000000E+00 -0.39825562127E+03  0.39825562127E+03  0.00000000000E+00 0. -1.
         25    1    1    2    0    0  0.14703033303E+03 -0.10741146186E+03 -0.40904649010E+02  0.22461819000E+03  0.12500000000E+03 0.  0.
         25    1    1    2    0    0 -0.11018565229E+03 -0.25570921741E+02 -0.11510743970E+03  0.20413101843E+03  0.12500000000E+03 0.  0.
         25    1    1    2    0    0 -0.36844680739E+02  0.13298238360E+03 -0.24016994461E+02  0.18773295094E+03  0.12500000000E+03 0.  0.
</event>
<event>
 5    0  0.5648525E-005  0.2134074E+03  0.7546771E-02  0.1138896E+00
         21   -1    0    0  502  501  0.00000000000E+00  0.00000000000E+00  0.55411522387E+02  0.55411522387E+02  0.00000000000E+00 0. -1.
         21   -1    0    0  501  502 -0.00000000000E+00 -0.00000000000E+00 -0.82189995000E+03  0.82189995000E+03  0.00000000000E+00 0. -1.
         25    1    1    2    0    0  0.30271866445E+02 -0.41830443646E+02 -0.27163888113E+03  0.30344497632E+03  0.12500000000E+03 0.  0.
         25    1    1    2    0    0 -0.61472055886E+02  0.55589779634E+02 -0.18596728969E+03  0.23890975302E+03  0.12500000000E+03 0.  0.
         25    1    1    2    0    0  0.31200189441E+02 -0.13759335988E+02 -0.30888225680E+03  0.33495674305E+03  0.12500000000E+03 0.  0.
</event>
<event>
 5    0  0.5648525E-005  0.2976270E+03  0.7546771E-02  0.1086433E+00
         21   -1    0    0  502  501  0.00000000000E+00  0.00000000000E+00  0.44069954552E+03  0.44069954552E+03  0.00000000000E+00 0. -1.
         21   -1    0    0  501  502 -0.00000000000E+00 -0.00000000000E+00 -0.20100271939E+03  0.20100271939E+03  0.00000000000E+00 0. -1.
         25    1    1    2    0    0  0.11353414846E+03 -0.11459288555E+02  0.95951888001E+02  0.19455868773E+03  0.12500000000E+03 0.  0.
         25    1    1    2    0    0  0.97811491554E+02  0.45756385246E+02  0.10108036665E+02  0.16549292153E+03  0.12500000000E+03 0.  0.
         25    1    1    2    0    0 -0.21134564001E+03 -0.34297096691E+02  0.13363690147E+03  0.28165065565E+03  0.12500000000E+03 0.  0.
</event>
<event>
 5    0  0.5648525E-005  0.4103764E+03  0.7546771E-02  0.1040245E+00
         21   -1    0    0  502  501  0.00000000000E+00  0.00000000000E+00  0.54233200727E+03  0.54233200727E+03  0.00000000000E+00 0.  1.
         21   -1    0    0  501  502 -0.00000000000E+00 -0.00000000000E+00 -0.31052705359E+03  0.31052705359E+03  0.00000000000E+00 0.  1.
         25    1    1    2    0    0 -0.80678802807E+02  0.28931025226E+03  0.97399548032E+01  0.32546790626E+03  0.12500000000E+03 0.  0.
         25    1    1    2    0    0  0.15091550529E+02 -0.10320459698E+03  0.24340757360E+03  0.29283304223E+03  0.12500000000E+03 0.  0.
         25    1    1    2    0    0  0.65587252278E+02 -0.18610565528E+03 -0.21342574718E+02  0.23455811238E+03  0.12500000000E+03 0.  0.
</event>
<event>
 5    0  0.5648525E-005  0.3533239E+03  0.7546771E-02  0.1061259E+00
         21   -1    0    0  502  501  0.00000000000E+00  0.00000000000E+00  0.48172307227E+03  0.48172307227E+03  0.00000000000E+00 0.  1.
         21   -1    0    0  501  502 -0.00000000000E+00 -0.00000000000E+00 -0.25914842708E+03  0.25914842708E+03  0.00000000000E+00 0.  1.
         25    1    1    2    0    0 -0.18792858741E+03  0.49907475390E+02  0.13903596260E+03  0.26974786184E+03  0.12500000000E+03 0.  0.
         25    1    1    2    0    0 -0.47606512109E+02 -0.12829046228E+03  0.23970806261E+02  0.18688077017E+03  0.12500000000E+03 0.  0.
         25    1    1    2    0    0  0.23553509952E+03  0.78382986891E+02  0.59567876326E+02  0.28424286734E+03  0.12500000000E+03 0.  0.
</event>
<event>
 5    0  0.6088816E-005  0.3034105E+03  0.7546771E-02  0.1083548E+00
         21   -1    0    0  502  501  0.00000000000E+00  0.00000000000E+00  0.26803859255E+03  0.26803859255E+03  0.00000000000E+00 0. -1.
         21   -1    0    0  501  502 -0.00000000000E+00 -0.00000000000E+00 -0.34345035409E+03  0.34345035409E+03  0.00000000000E+00 0. -1.
         25    1    1    2    0    0 -0.62423814186E+02  0.13521020430E+03 -0.65874944050E+02  0.20528770099E+03  0.12500000000E+03 0.  0.
         25    1    1    2    0    0 -0.48760262129E+02  0.33920333552E+02  0.70357880840E+02  0.15525264438E+03  0.12500000000E+03 0.  0.
         25    1    1    2    0    0  0.11118407632E+03 -0.16913053785E+03 -0.79894698337E+02  0.25094860127E+03  0.12500000000E+03 0.  0.
</event>
<event>
 5    0  0.5648525E-005  0.2522723E+03  0.7546771E-02  0.1111877E+00
         21   -1    0    0  502  501  0.00000000000E+00  0.00000000000E+00  0.25482705672E+03  0.25482705672E+03  0.00000000000E+00 0.  1.
         21   -1    0    0  501  502 -0.00000000000E+00 -0.00000000000E+00 -0.24974309303E+03  0.24974309303E+03  0.00000000000E+00 0.  1.
         25    1    1    2    0    0  0.14188550122E+02 -0.80175548141E+02 -0.74254123247E+01  0.14936388527E+03  0.12500000000E+03 0.  0.
         25    1    1    2    0    0  0.72968299311E+02  0.19685988227E+02  0.92381898354E+02  0.17283323170E+03  0.12500000000E+03 0.  0.
         25    1    1    2    0    0 -0.87156849433E+02  0.60489559914E+02 -0.79872522335E+02  0.18237303278E+03  0.12500000000E+03 0.  0.
</event>
<event>
 5    0  0.5648525E-005  0.9474093E+03  0.7546771E-02  0.9368184E-01
         21   -1    0    0  502  501  0.00000000000E+00  0.00000000000E+00  0.85068193678E+03  0.85068193678E+03  0.00000000000E+00 0.  1.
         21   -1    0    0  501  502 -0.00000000000E+00 -0.00000000000E+00 -0.10551350655E+04  0.10551350655E+04  0.00000000000E+00 0.  1.
         25    1    1    2    0    0  0.38471450947E+03  0.65096942009E+02 -0.48112855833E+03  0.63194347477E+03  0.12500000000E+03 0.  0.
         25    1    1    2    0    0 -0.78675879282E+03  0.30050604030E+02  0.85427534209E+02  0.80175763201E+03  0.12500000000E+03 0.  0.
         25    1    1    2    0    0  0.40204428335E+03 -0.95147546039E+02  0.19124789541E+03  0.47211589551E+03  0.12500000000E+03 0.  0.
</event>
<event>
 5    0  0.5648525E-005  0.2994562E+03  0.7546771E-02  0.1085513E+00
         21   -1    0    0  502  501  0.00000000000E+00  0.00000000000E+00  0.90314463643E+02  0.90314463643E+02  0.00000000000E+00 0. -1.
         21   -1    0    0  501  502 -0.00000000000E+00 -0.00000000000E+00 -0.99290890904E+03  0.99290890904E+03  0.00000000000E+00 0. -1.
         25    1    1    2    0    0 -0.90540463958E+02 -0.54865478338E+02 -0.49873838032E+03  0.52495025320E+03  0.12500000000E+03 0.  0.
         25    1    1    2    0    0  0.33209239461E+02  0.49537657524E+02 -0.74972861857E+01  0.13870127036E+03  0.12500000000E+03 0.  0.
         25    1    1    2    0    0  0.57331224497E+02  0.53278208144E+01 -0.39635877889E+03  0.41957184913E+03  0.12500000000E+03 0.  0.
</event>
<event>
 5    0  0.5648525E-005  0.4131144E+03  0.7546771E-02  0.1039331E+00
         21   -1    0    0  502  501  0.00000000000E+00  0.00000000000E+00  0.12554455801E+03  0.12554455801E+03  0.00000000000E+00 0. -1.
         21   -1    0    0  501  502 -0.00000000000E+00 -0.00000000000E+00 -0.13593862053E+04  0.13593862053E+04  0.00000000000E+00 0. -1.
         25    1    1    2    0    0  0.64622466598E+02 -0.15517729231E+03 -0.57034422154E+03  0.60759656540E+03  0.12500000000E+03 0.  0.
         25    1    1    2    0    0 -0.39579814229E+02  0.12196023285E+03  0.20979882460E+02  0.18029424716E+03  0.12500000000E+03 0.  0.
         25    1    1    2    0    0 -0.25042652369E+02  0.33217059460E+02 -0.68447730824E+03  0.69703995078E+03  0.12500000000E+03 0.  0.
</event>
<event>
 5    0  0.5648525E-005  0.3561230E+03  0.7546771E-02  0.1060130E+00
         21   -1    0    0  502  501  0.00000000000E+00  0.00000000000E+00  0.73592228895E+03  0.73592228895E+03  0.00000000000E+00 0.  1.
         21   -1    0    0  501  502 -0.00000000000E+00 -0.00000000000E+00 -0.17233289575E+03  0.17233289575E+03  0.00000000000E+00 0.  1.
         25    1    1    2    0    0 -0.28627256752E+03  0.37704356858E+02  0.18498269829E+03  0.36498931505E+03  0.12500000000E+03 0.  0.
         25    1    1    2    0    0  0.18931417863E+03 -0.44017829360E+02  0.23312800500E+03  0.32825461801E+03  0.12500000000E+03 0.  0.
         25    1    1    2    0    0  0.96958388887E+02  0.63134725023E+01  0.14547868991E+03  0.21501125163E+03  0.12500000000E+03 0.  0.
</event>
<event>
 5    0  0.5648525E-005  0.3252943E+03  0.7546771E-02  0.1073238E+00
         21   -1    0    0  502  501  0.00000000000E+00  0.00000000000E+00  0.49108667567E+03  0.49108667567E+03  0.00000000000E+00 0. -1.
         21   -1    0    0  501  502 -0.00000000000E+00 -0.00000000000E+00 -0.21547393896E+03  0.21547393896E+03  0.00000000000E+00 0. -1.
         25    1    1    2    0    0 -0.39441774920E+02 -0.11153876136E+03 -0.72129215696E+02  0.18661235932E+03  0.12500000000E+03 0.  0.
         25    1    1    2    0    0 -0.60225833363E+02  0.45250346690E+02  0.31025355834E+03  0.34286588536E+03  0.12500000000E+03 0.  0.
         25    1    1    2    0    0  0.99667608283E+02  0.66288414665E+02  0.37488394063E+02  0.17708236996E+03  0.12500000000E+03 0.  0.
</event>
<event>
 5    0  0.6156542E-005  0.3496790E+03  0.7546771E-02  0.1062747E+00
         21   -1    0    0  502  501  0.00000000000E+00  0.00000000000E+00  0.61192504171E+03  0.61192504171E+03  0.00000000000E+00 0.  1.
         21   -1    0    0  501  502 -0.00000000000E+00 -0.00000000000E+00 -0.19982083796E+03  0.19982083796E+03  0.00000000000E+00 0.  1.
         25    1    1    2    0    0 -0.39143911576E+02 -0.15267624370E+03  0.12573455586E+03  0.23722659999E+03  0.12500000000E+03 0.  0.
         25    1    1    2    0    0 -0.15839295514E+03  0.10382027896E+03  0.24176273630E+03  0.33157382168E+03  0.12500000000E+03 0.  0.
         25    1    1    2    0    0  0.19753686672E+03  0.48855964743E+02  0.44606911596E+02  0.24294545801E+03  0.12500000000E+03 0.  0.
</event>
<event>
 5    0  0.5648525E-005  0.2235188E+03  0.7546771E-02  0.1131286E+00
         21   -1    0    0  502  501  0.00000000000E+00  0.00000000000E+00  0.48165263848E+03  0.48165263848E+03  0.00000000000E+00 0. -1.
         21   -1    0    0  501  502 -0.00000000000E+00 -0.00000000000E+00 -0.10372758158E+03  0.10372758158E+03  0.00000000000E+00 0. -1.
         25    1    1    2    0    0  0.22355235991E+02 -0.50821151514E+02  0.34758495039E+02  0.14112299244E+03  0.12500000000E+03 0.  0.
         25    1    1    2    0    0 -0.13895261157E+02 -0.22015487019E+02  0.10430232928E+03  0.16486884437E+03  0.12500000000E+03 0.  0.
         25    1    1    2    0    0 -0.84599748342E+01  0.72836638533E+02  0.23886423259E+03  0.27938838325E+03  0.12500000000E+03 0.  0.
</event>
<event>
 5    0  0.5648525E-005  0.3086299E+03  0.7546771E-02  0.1081004E+00
         21   -1    0    0  502  501  0.00000000000E+00  0.00000000000E+00  0.12495795543E+03  0.12495795543E+03  0.00000000000E+00 0.  1.
         21   -1    0    0  501  502 -0.00000000000E+00 -0.00000000000E+00 -0.76227577817E+03  0.76227577817E+03  0.00000000000E+00 0.  1.
         25    1    1    2    0    0 -0.99636798824E+02  0.24346648468E+02 -0.30332382260E+03  0.34373040646E+03  0.12500000000E+03 0.  0.
         25    1    1    2    0    0 -0.98799993081E+02  0.12529667849E+02 -0.38392504665E+02  0.16436975276E+03  0.12500000000E+03 0.  0.
         25    1    1    2    0    0  0.19843679191E+03 -0.36876316316E+02 -0.29560149548E+03  0.37913357438E+03  0.12500000000E+03 0.  0.
</event>
<event>
 5    0  0.5648525E-005  0.3658101E+03  0.7546771E-02  0.1056307E+00
         21   -1    0    0  502  501  0.00000000000E+00  0.00000000000E+00  0.40721364709E+03  0.40721364709E+03  0.00000000000E+00 0. -1.
         21   -1    0    0  501  502 -0.00000000000E+00 -0.00000000000E+00 -0.32861622631E+03  0.32861622631E+03  0.00000000000E+00 0. -1.
         25    1    1    2    0    0 -0.13304776288E+02 -0.19709489484E+03 -0.10104060887E+03  0.25467159104E+03  0.12500000000E+03 0.  0.
         25    1    1    2    0    0  0.17465525093E+02  0.11055460479E+03 -0.75608117973E+02  0.18403519422E+03  0.12500000000E+03 0.  0.
         25    1    1    2    0    0 -0.41607488059E+01  0.86540290046E+02  0.25524614762E+03  0.29712308814E+03  0.12500000000E+03 0.  0.
</event>
