<event>
 4    0  0.2236434E-002  0.2101296E+03  0.7546771E-02  0.1141463E+00
         21   -1    0    0  502  501  0.00000000000E+00  0.00000000000E+00  0.72549208015E+02  0.72549208015E+02  0.00000000000E+00 0. -1.
         21   -1    0    0  501  502 -0.00000000000E+00 -0.00000000000E+00 -0.60861388491E+03  0.60861388491E+03  0.00000000000E+00 0. -1.
         25    1    1    2    0    0  0.86072915647E+02 -0.57534508593E+02 -0.51723529747E+02  0.17034990466E+03  0.12500000000E+03 0.  0.
         25    1    1    2    0    0 -0.86072915647E+02  0.57534508593E+02 -0.48434114715E+03  0.51081318827E+03  0.12500000000E+03 0.  0.
</event>
<event>
 4    0  0.2236434E-002  0.2546171E+03  0.7546771E-02  0.1110421E+00
         21   -1    0    0  502  501  0.00000000000E+00  0.00000000000E+00  0.27657466662E+03  0.27657466662E+03  0.00000000000E+00 0. -1.
         21   -1    0    0  501  502 -0.00000000000E+00 -0.00000000000E+00 -0.23440279310E+03  0.23440279310E+03  0.00000000000E+00 0. -1.
         25    1    1    2    0    0 -0.17471289900E+03 -0.54079566278E+02 -0.10486537724E+03  0.24509374515E+03  0.12500000000E+03 0.  0.
         25    1    1    2    0    0  0.17471289900E+03  0.54079566278E+02  0.14703725076E+03  0.26588371458E+03  0.12500000000E+03 0.  0.
</event>
<event>
 4    0  0.2236434E-002  0.2668805E+03  0.7546771E-02  0.1103078E+00
         21   -1    0    0  502  501  0.00000000000E+00  0.00000000000E+00  0.29808897369E+03  0.29808897369E+03  0.00000000000E+00 0. -1.
         21   -1    0    0  501  502 -0.00000000000E+00 -0.00000000000E+00 -0.23893936998E+03  0.23893936998E+03  0.00000000000E+00 0. -1.
         25    1    1    2    0    0 -0.17056001087E+03 -0.39324877197E+02  0.18853889383E+03  0.28602286231E+03  0.12500000000E+03 0.  0.
         25    1    1    2    0    0  0.17056001087E+03  0.39324877197E+02 -0.12938929012E+03  0.25100548136E+03  0.12500000000E+03 0.  0.
</event>
<event>
 4    0  0.2236434E-002  0.1950169E+03  0.7546771E-02  0.1154013E+00
         21   -1    0    0  502  501  0.00000000000E+00  0.00000000000E+00  0.27249789736E+03  0.27249789736E+03  0.00000000000E+00 0. -1.
         21   -1    0    0  501  502 -0.00000000000E+00 -0.00000000000E+00 -0.13956648483E+03  0.13956648483E+03  0.00000000000E+00 0. -1.
         25    1    1    2    0    0  0.42499939298E+02  0.11235044787E+03  0.16082874942E+03  0.23647358123E+03  0.12500000000E+03 0.  0.
         25    1    1    2    0    0 -0.42499939298E+02 -0.11235044787E+03 -0.27897336899E+02  0.17559080096E+03  0.12500000000E+03 0.  0.
</event>
<event>
 4    0  0.2236434E-002  0.2319331E+03  0.7546771E-02  0.1125287E+00
         21   -1    0    0  502  501  0.00000000000E+00  0.00000000000E+00  0.12100407990E+03  0.12100407990E+03  0.00000000000E+00 0. -1.
         21   -1    0    0  501  502 -0.00000000000E+00 -0.00000000000E+00 -0.44455476126E+03  0.44455476126E+03  0.00000000000E+00 0. -1.
         25    1    1    2    0    0  0.12519542929E+03 -0.14526730182E+03 -0.20725527192E+03  0.30879804441E+03  0.12500000000E+03 0.  0.
         25    1    1    2    0    0 -0.12519542929E+03  0.14526730182E+03 -0.11629540945E+03  0.25676079676E+03  0.12500000000E+03 0.  0.
</event>
<event>
 4    0  0.2236434E-002  0.2147604E+03  0.7546771E-02  0.1137851E+00
         21   -1    0    0  502  501  0.00000000000E+00  0.00000000000E+00  0.12147063128E+04  0.12147063128E+04  0.00000000000E+00 0. -1.
         21   -1    0    0  501  502 -0.00000000000E+00 -0.00000000000E+00 -0.37969706402E+02  0.37969706402E+02  0.00000000000E+00 0. -1.
         25    1    1    2    0    0 -0.89908007272E+02 -0.38980057008E+02  0.16680108536E+03  0.23032693436E+03  0.12500000000E+03 0.  0.
         25    1    1    2    0    0  0.89908007272E+02  0.38980057008E+02  0.10099355211E+04  0.10223490849E+04  0.12500000000E+03 0.  0.
</event>
<event>
 4    0  0.2236434E-002  0.3035760E+03  0.7546771E-02  0.1083467E+00
         21   -1    0    0  502  501  0.00000000000E+00  0.00000000000E+00  0.25443752835E+03  0.25443752835E+03  0.00000000000E+00 0.  1.
         21   -1    0    0  501  502 -0.00000000000E+00 -0.00000000000E+00 -0.36220444955E+03  0.36220444955E+03  0.00000000000E+00 0.  1.
         25    1    1    2    0    0 -0.86494025522E+02  0.25936533778E+03 -0.96754727004E+02  0.31581335008E+03  0.12500000000E+03 0.  0.
         25    1    1    2    0    0  0.86494025522E+02 -0.25936533778E+03 -0.11012194199E+02  0.30082862782E+03  0.12500000000E+03 0.  0.
</event>
<event>
 4    0  0.2236434E-002  0.3635882E+03  0.7546771E-02  0.1057172E+00
         21   -1    0    0  502  501  0.00000000000E+00  0.00000000000E+00  0.23948628569E+03  0.23948628569E+03  0.00000000000E+00 0.  1.
         21   -1    0    0  501  502 -0.00000000000E+00 -0.00000000000E+00 -0.55199981810E+03  0.55199981810E+03  0.00000000000E+00 0.  1.
         25    1    1    2    0    0  0.33381184165E+01 -0.14238736558E+03  0.18148538323E+03  0.26238759353E+03  0.12500000000E+03 0.  0.
         25    1    1    2    0    0 -0.33381184165E+01  0.14238736558E+03 -0.49399891564E+03  0.52909851027E+03  0.12500000000E+03 0.  0.
</event>
<event>
 4    0  0.2236434E-002  0.1956120E+03  0.7546771E-02  0.1153495E+00
         21   -1    0    0  502  501  0.00000000000E+00  0.00000000000E+00  0.88616763250E+02  0.88616763250E+02  0.00000000000E+00 0. -1.
         21   -1    0    0  501  502 -0.00000000000E+00 -0.00000000000E+00 -0.43179241231E+03  0.43179241231E+03  0.00000000000E+00 0. -1.
         25    1    1    2    0    0 -0.29674060943E+02 -0.11466946382E+03 -0.29501369637E+03  0.34159583849E+03  0.12500000000E+03 0.  0.
         25    1    1    2    0    0  0.29674060943E+02  0.11466946382E+03 -0.48161952681E+02  0.17881333706E+03  0.12500000000E+03 0.  0.
</event>
<event>
 4    0  0.2236434E-002  0.3749212E+03  0.7546771E-02  0.1052827E+00
         21   -1    0    0  502  501  0.00000000000E+00  0.00000000000E+00  0.59786803705E+03  0.59786803705E+03  0.00000000000E+00 0. -1.
         21   -1    0    0  501  502 -0.00000000000E+00 -0.00000000000E+00 -0.23511193283E+03  0.23511193283E+03  0.00000000000E+00 0. -1.
         25    1    1    2    0    0 -0.34734358438E+03  0.34126570498E+02  0.11924137836E+03  0.38942996127E+03  0.12500000000E+03 0.  0.
         25    1    1    2    0    0  0.34734358438E+03 -0.34126570498E+02  0.24351472586E+03  0.44355000861E+03  0.12500000000E+03 0.  0.
</event>
<event>
 4    0  0.2236434E-002  0.2290774E+03  0.7546771E-02  0.1127291E+00
         21   -1    0    0  502  501  0.00000000000E+00  0.00000000000E+00  0.31589533116E+03  0.31589533116E+03  0.00000000000E+00 0. -1.
         21   -1    0    0  501  502 -0.00000000000E+00 -0.00000000000E+00 -0.16611968505E+03  0.16611968505E+03  0.00000000000E+00 0. -1.
         25    1    1    2    0    0  0.19103539499E+03 -0.17154318213E+02  0.83214559223E+02  0.24359485963E+03  0.12500000000E+03 0.  0.
         25    1    1    2    0    0 -0.19103539499E+03  0.17154318213E+02  0.66561086887E+02  0.23842015657E+03  0.12500000000E+03 0.  0.
</event>
<event>
 4    0  0.2236434E-002  0.2365642E+03  0.7546771E-02  0.1122103E+00
         21   -1    0    0  502  501  0.00000000000E+00  0.00000000000E+00  0.35094051835E+03  0.35094051835E+03  0.00000000000E+00 0.  1.
         21   -1    0    0  501  502 -0.00000000000E+00 -0.00000000000E+00 -0.15946474619E+03  0.15946474619E+03  0.00000000000E+00 0.  1.
         25    1    1    2    0    0 -0.96847324341E+02 -0.16970839969E+03  0.45631754846E+02  0.23640558836E+03  0.12500000000E+03 0.  0.
         25    1    1    2    0    0  0.96847324341E+02  0.16970839969E+03  0.14584401731E+03  0.27399967617E+03  0.12500000000E+03 0.  0.
</event>
<event>
 4    0  0.2236434E-002  0.1976309E+03  0.7546771E-02  0.1151753E+00
         21   -1    0    0  502  501  0.00000000000E+00  0.00000000000E+00  0.11935267716E+03  0.11935267716E+03  0.00000000000E+00 0. -1.
         21   -1    0    0  501  502 -0.00000000000E+00 -0.00000000000E+00 -0.32724825483E+03  0.32724825483E+03  0.00000000000E+00 0. -1.
         25    1    1    2    0    0  0.94114198972E+02  0.24389295890E+02 -0.23754528774E+03  0.28549095245E+03  0.12500000000E+03 0.  0.
         25    1    1    2    0    0 -0.94114198972E+02 -0.24389295890E+02  0.29649710067E+02  0.16110997955E+03  0.12500000000E+03 0.  0.
</event>
<event>
 4    0  0.2236434E-002  0.1632147E+03  0.7546771E-02  0.1185115E+00
         21   -1    0    0  502  501  0.00000000000E+00  0.00000000000E+00  0.30396669250E+02  0.30396669250E+02  0.00000000000E+00 0.  1.
         21   -1    0    0  501  502 -0.00000000000E+00 -0.00000000000E+00 -0.87637967088E+03  0.87637967088E+03  0.00000000000E+00 0.  1.
         25    1    1    2    0    0 -0.39956568567E+02 -0.97043656103E+02 -0.42255729998E+03  0.45298307952E+03  0.12500000000E+03 0.  0.
         25    1    1    2    0    0  0.39956568567E+02  0.97043656103E+02 -0.42342570165E+03  0.45379326062E+03  0.12500000000E+03 0.  0.
</event>
<event>
 4    0  0.2236434E-002  0.2529620E+03  0.7546771E-02  0.1111447E+00
         21   -1    0    0  502  501  0.00000000000E+00  0.00000000000E+00  0.26777118201E+03  0.26777118201E+03  0.00000000000E+00 0.  1.
         21   -1    0    0  501  502 -0.00000000000E+00 -0.00000000000E+00 -0.23897177526E+03  0.23897177526E+03  0.00000000000E+00 0.  1.
         25    1    1    2    0    0  0.21428926657E-02  0.15797332605E+03 -0.13884858456E+03  0.24466201418E+03  0.12500000000E+03 0.  0.
         25    1    1    2    0    0 -0.21428926657E-02 -0.15797332605E+03  0.16764799131E+03  0.26208094310E+03  0.12500000000E+03 0.  0.
</event>
<event>
 4    0  0.2236434E-002  0.1883551E+03  0.7546771E-02  0.1159953E+00
         21   -1    0    0  502  501  0.00000000000E+00  0.00000000000E+00  0.28567091862E+03  0.28567091862E+03  0.00000000000E+00 0. -1.
         21   -1    0    0  501  502 -0.00000000000E+00 -0.00000000000E+00 -0.12419066902E+03  0.12419066902E+03  0.00000000000E+00 0. -1.
         25    1    1    2    0    0 -0.35652130181E+02  0.99551981717E+02  0.18205287213E+03  0.24484672696E+03  0.12500000000E+03 0.  0.
         25    1    1    2    0    0  0.35652130181E+02 -0.99551981717E+02 -0.20572622532E+02  0.16501486069E+03  0.12500000000E+03 0.  0.
</event>
<event>
 4    0  0.2236434E-002  0.2102976E+03  0.7546771E-02  0.1141331E+00
         21   -1    0    0  502  501  0.00000000000E+00  0.00000000000E+00  0.11276592873E+03  0.11276592873E+03  0.00000000000E+00 0.  1.
         21   -1    0    0  501  502 -0.00000000000E+00 -0.00000000000E+00 -0.39218493987E+03  0.39218493987E+03  0.00000000000E+00 0.  1.
         25    1    1    2    0    0 -0.14379563241E+03  0.70645028109E+02 -0.20471965308E+03  0.28844937208E+03  0.12500000000E+03 0.  0.
         25    1    1    2    0    0  0.14379563241E+03 -0.70645028109E+02 -0.74699358059E+02  0.21650149651E+03  0.12500000000E+03 0.  0.
</event>
<event>
 4    0  0.2236434E-002  0.2358369E+03  0.7546771E-02  0.1122598E+00
         21   -1    0    0  502  501  0.00000000000E+00  0.00000000000E+00  0.40316197760E+03  0.40316197760E+03  0.00000000000E+00 0. -1.
         21   -1    0    0  501  502 -0.00000000000E+00 -0.00000000000E+00 -0.13795707458E+03  0.13795707458E+03  0.00000000000E+00 0. -1.
         25    1    1    2    0    0  0.19811708812E+03  0.27135878675E+02  0.12950057490E+03  0.26903928229E+03  0.12500000000E+03 0.  0.
         25    1    1    2    0    0 -0.19811708812E+03 -0.27135878675E+02  0.13570432812E+03  0.27207976989E+03  0.12500000000E+03 0.  0.
</event>
<event>
 4    0  0.2236434E-002  0.1761549E+03  0.7546771E-02  0.1171577E+00
         21   -1    0    0  502  501  0.00000000000E+00  0.00000000000E+00  0.95734601923E+02  0.95734601923E+02  0.00000000000E+00 0. -1.
         21   -1    0    0  501  502 -0.00000000000E+00 -0.00000000000E+00 -0.32413112149E+03  0.32413112149E+03  0.00000000000E+00 0. -1.
         25    1    1    2    0    0 -0.32877452138E+02  0.11112304223E+03 -0.61218163535E+02  0.18111300594E+03  0.12500000000E+03 0.  0.
         25    1    1    2    0    0  0.32877452138E+02 -0.11112304223E+03 -0.16717835603E+03  0.23875271747E+03  0.12500000000E+03 0.  0.
</event>
<event>
 4    0  0.2236434E-002  0.1835013E+03  0.7546771E-02  0.1164457E+00
         21   -1    0    0  502  501  0.00000000000E+00  0.00000000000E+00  0.38855836588E+03  0.38855836588E+03  0.00000000000E+00 0.  1.
         21   -1    0    0  501  502 -0.00000000000E+00 -0.00000000000E+00 -0.86660695825E+02  0.86660695825E+02  0.00000000000E+00 0.  1.
         25    1    1    2    0    0  0.61563254116E+02 -0.89369256528E+02  0.48410207090E+02  0.17246868243E+03  0.12500000000E+03 0.  0.
         25    1    1    2    0    0 -0.61563254116E+02  0.89369256528E+02  0.25348746297E+03  0.30275037928E+03  0.12500000000E+03 0.  0.
</event>
<event>
 4    0  0.2236434E-002  0.2009233E+03  0.7546771E-02  0.1148962E+00
         21   -1    0    0  502  501  0.00000000000E+00  0.00000000000E+00  0.53082587547E+03  0.53082587547E+03  0.00000000000E+00 0. -1.
         21   -1    0    0  501  502 -0.00000000000E+00 -0.00000000000E+00 -0.76051616838E+02  0.76051616838E+02  0.00000000000E+00 0. -1.
         25    1    1    2    0    0  0.58441419805E+02  0.81432714215E+02  0.41048233561E+03  0.44064433996E+03  0.12500000000E+03 0.  0.
         25    1    1    2    0    0 -0.58441419805E+02 -0.81432714215E+02  0.44291923021E+02  0.16623315234E+03  0.12500000000E+03 0.  0.
</event>
<event>
 4    0  0.2236434E-002  0.3034074E+03  0.7546771E-02  0.1083550E+00
         21   -1    0    0  502  501  0.00000000000E+00  0.00000000000E+00  0.15068986652E+03  0.15068986652E+03  0.00000000000E+00 0. -1.
         21   -1    0    0  501  502 -0.00000000000E+00 -0.00000000000E+00 -0.61089747572E+03  0.61089747572E+03  0.00000000000E+00 0. -1.
         25    1    1    2    0    0 -0.84264122146E+02 -0.57364044595E+02 -0.55263149697E+03  0.57568884594E+03  0.12500000000E+03 0.  0.
         25    1    1    2    0    0  0.84264122146E+02  0.57364044595E+02  0.92423887773E+02  0.18589849629E+03  0.12500000000E+03 0.  0.
</event>
<event>
 4    0  0.2236434E-002  0.2379170E+03  0.7546771E-02  0.1121188E+00
         21   -1    0    0  502  501  0.00000000000E+00  0.00000000000E+00  0.71536925811E+02  0.71536925811E+02  0.00000000000E+00 0.  1.
         21   -1    0    0  501  502 -0.00000000000E+00 -0.00000000000E+00 -0.79126244332E+03  0.79126244332E+03  0.00000000000E+00 0. -1.
         25    1    1    2    0    0  0.10614579255E+03  0.11661426582E+03 -0.59003428362E+03  0.62340297731E+03  0.12500000000E+03 0.  0.
         25    1    1    2    0    0 -0.10614579255E+03 -0.11661426582E+03 -0.12969123388E+03  0.23939639182E+03  0.12500000000E+03 0.  0.
</event>
<event>
 4    0  0.2236434E-002  0.1766216E+03  0.7546771E-02  0.1171113E+00
         21   -1    0    0  502  501  0.00000000000E+00  0.00000000000E+00  0.50402251513E+02  0.50402251513E+02  0.00000000000E+00 0.  1.
         21   -1    0    0  501  502 -0.00000000000E+00 -0.00000000000E+00 -0.61892426283E+03  0.61892426283E+03  0.00000000000E+00 0.  1.
         25    1    1    2    0    0  0.83738464857E+02  0.86803510697E+02 -0.22365107153E+03  0.28318153499E+03  0.12500000000E+03 0.  0.
         25    1    1    2    0    0 -0.83738464857E+02 -0.86803510697E+02 -0.34487093979E+03  0.38614497935E+03  0.12500000000E+03 0.  0.
</event>
<event>
 4    0  0.2236434E-002  0.2158024E+03  0.7546771E-02  0.1137052E+00
         21   -1    0    0  502  501  0.00000000000E+00  0.00000000000E+00  0.50479548181E+02  0.50479548181E+02  0.00000000000E+00 0.  1.
         21   -1    0    0  501  502 -0.00000000000E+00 -0.00000000000E+00 -0.92256540062E+03  0.92256540062E+03  0.00000000000E+00 0.  1.
         25    1    1    2    0    0 -0.77554635413E+02 -0.11390975072E+03 -0.68255094168E+03  0.70745384357E+03  0.12500000000E+03 0.  0.
         25    1    1    2    0    0  0.77554635413E+02  0.11390975072E+03 -0.18953491075E+03  0.26559110523E+03  0.12500000000E+03 0.  0.
</event>
<event>
 4    0  0.2236434E-002  0.2013371E+03  0.7546771E-02  0.1148616E+00
         21   -1    0    0  502  501  0.00000000000E+00  0.00000000000E+00  0.26648115434E+03  0.26648115434E+03  0.00000000000E+00 0. -1.
         21   -1    0    0  501  502 -0.00000000000E+00 -0.00000000000E+00 -0.15211822169E+03  0.15211822169E+03  0.00000000000E+00 0. -1.
         25    1    1    2    0    0 -0.41919249347E+02  0.15215332692E+03  0.59202834406E+02  0.20985193342E+03  0.12500000000E+03 0.  0.
         25    1    1    2    0    0  0.41919249347E+02 -0.15215332692E+03  0.55160098241E+02  0.20874744261E+03  0.12500000000E+03 0.  0.
</event>
<event>
 4    0  0.2236434E-002  0.3341380E+03  0.7546771E-02  0.1069320E+00
         21   -1    0    0  502  501  0.00000000000E+00  0.00000000000E+00  0.13840936641E+03  0.13840936641E+03  0.00000000000E+00 0. -1.
         21   -1    0    0  501  502 -0.00000000000E+00 -0.00000000000E+00 -0.80665196774E+03  0.80665196774E+03  0.00000000000E+00 0. -1.
         25    1    1    2    0    0 -0.15682356816E+03 -0.16376247922E+02  0.43126159872E+02  0.20578308651E+03  0.12500000000E+03 0.  0.
         25    1    1    2    0    0  0.15682356816E+03  0.16376247922E+02 -0.71136876121E+03  0.73927824765E+03  0.12500000000E+03 0.  0.
</event>
<event>
 4    0  0.2236434E-002  0.1883370E+03  0.7546771E-02  0.1159970E+00
         21   -1    0    0  502  501  0.00000000000E+00  0.00000000000E+00  0.26855422536E+02  0.26855422536E+02  0.00000000000E+00 0. -1.
         21   -1    0    0  501  502 -0.00000000000E+00 -0.00000000000E+00 -0.13208062054E+04  0.13208062054E+04  0.00000000000E+00 0. -1.
         25    1    1    2    0    0  0.48263858428E+02 -0.11429325526E+03 -0.88573679577E+03  0.90307641958E+03  0.12500000000E+03 0.  0.
         25    1    1    2    0    0 -0.48263858428E+02  0.11429325526E+03 -0.40821398712E+03  0.44458520838E+03  0.12500000000E+03 0.  0.
</event>
<event>
 4    0  0.2236434E-002  0.2365065E+03  0.7546771E-02  0.1122142E+00
         21   -1    0    0  502  501  0.00000000000E+00  0.00000000000E+00  0.51775307067E+03  0.51775307067E+03  0.00000000000E+00 0. -1.
         21   -1    0    0  501  502 -0.00000000000E+00 -0.00000000000E+00 -0.10803472605E+03  0.10803472605E+03  0.00000000000E+00 0. -1.
         25    1    1    2    0    0 -0.21548320123E+02  0.16690061002E+03  0.59993098903E+02  0.21804659053E+03  0.12500000000E+03 0.  0.
         25    1    1    2    0    0  0.21548320123E+02 -0.16690061002E+03  0.34972524572E+03  0.40774120619E+03  0.12500000000E+03 0.  0.
</event>
<event>
 4    0  0.2236434E-002  0.2575293E+03  0.7546771E-02  0.1108637E+00
         21   -1    0    0  502  501  0.00000000000E+00  0.00000000000E+00  0.79676215324E+03  0.79676215324E+03  0.00000000000E+00 0.  1.
         21   -1    0    0  501  502 -0.00000000000E+00 -0.00000000000E+00 -0.83238583347E+02  0.83238583347E+02  0.00000000000E+00 0.  1.
         25    1    1    2    0    0 -0.16375085208E+03  0.14195749970E+03  0.46111009090E+03  0.52460822449E+03  0.12500000000E+03 0.  0.
         25    1    1    2    0    0  0.16375085208E+03 -0.14195749970E+03  0.25241347899E+03  0.35539251210E+03  0.12500000000E+03 0.  0.
</event>
<event>
 4    0  0.2236434E-002  0.1756682E+03  0.7546771E-02  0.1172063E+00
         21   -1    0    0  502  501  0.00000000000E+00  0.00000000000E+00  0.19584423149E+03  0.19584423149E+03  0.00000000000E+00 0.  1.
         21   -1    0    0  501  502 -0.00000000000E+00 -0.00000000000E+00 -0.15757064604E+03  0.15757064604E+03  0.00000000000E+00 0.  1.
         25    1    1    2    0    0  0.35881123269E+02  0.58409952632E+02 -0.84111200329E+02  0.16552604506E+03  0.12500000000E+03 0.  0.
         25    1    1    2    0    0 -0.35881123269E+02 -0.58409952632E+02  0.12238478578E+03  0.18788883246E+03  0.12500000000E+03 0.  0.
</event>
<event>
 4    0  0.2236434E-002  0.1957237E+03  0.7546771E-02  0.1153398E+00
         21   -1    0    0  502  501  0.00000000000E+00  0.00000000000E+00  0.64114086270E+02  0.64114086270E+02  0.00000000000E+00 0.  1.
         21   -1    0    0  501  502 -0.00000000000E+00 -0.00000000000E+00 -0.59749376935E+03  0.59749376935E+03  0.00000000000E+00 0.  1.
         25    1    1    2    0    0 -0.12304515477E+03 -0.59015881409E+02 -0.37438064892E+03  0.41762286175E+03  0.12500000000E+03 0.  0.
         25    1    1    2    0    0  0.12304515477E+03  0.59015881409E+02 -0.15899903416E+03  0.24398499387E+03  0.12500000000E+03 0.  0.
</event>
<event>
 4    0  0.2236434E-002  0.2056762E+03  0.7546771E-02  0.1145036E+00
         21   -1    0    0  502  501  0.00000000000E+00  0.00000000000E+00  0.23045716704E+04  0.23045716704E+04  0.00000000000E+00 0. -1.
         21   -1    0    0  501  502 -0.00000000000E+00 -0.00000000000E+00 -0.18355991397E+02  0.18355991397E+02  0.00000000000E+00 0. -1.
         25    1    1    2    0    0 -0.15760826329E+03 -0.42827012900E+02  0.11330376058E+04  0.11515527490E+04  0.12500000000E+03 0.  0.
         25    1    1    2    0    0  0.15760826329E+03  0.42827012900E+02  0.11531780732E+04  0.11713749128E+04  0.12500000000E+03 0.  0.
</event>
<event>
 4    0  0.2236434E-002  0.1740051E+03  0.7546771E-02  0.1173734E+00
         21   -1    0    0  502  501  0.00000000000E+00  0.00000000000E+00  0.13260343414E+03  0.13260343414E+03  0.00000000000E+00 0.  1.
         21   -1    0    0  501  502 -0.00000000000E+00 -0.00000000000E+00 -0.22833336021E+03  0.22833336021E+03  0.00000000000E+00 0.  1.
         25    1    1    2    0    0 -0.51348043544E+02 -0.11503995777E+02 -0.16092710286E+03  0.21045544880E+03  0.12500000000E+03 0.  0.
         25    1    1    2    0    0  0.51348043544E+02  0.11503995777E+02  0.65197176790E+02  0.15048134554E+03  0.12500000000E+03 0.  0.
</event>
<event>
 4    0  0.2236434E-002  0.2612346E+03  0.7546771E-02  0.1106404E+00
         21   -1    0    0  502  501  0.00000000000E+00  0.00000000000E+00  0.40542870639E+03  0.40542870639E+03  0.00000000000E+00 0. -1.
         21   -1    0    0  501  502 -0.00000000000E+00 -0.00000000000E+00 -0.16832435391E+03  0.16832435391E+03  0.00000000000E+00 0. -1.
         25    1    1    2    0    0  0.14449560615E+03  0.17486740532E+03  0.81135231359E+02  0.27141391897E+03  0.12500000000E+03 0.  0.
         25    1    1    2    0    0 -0.14449560615E+03 -0.17486740532E+03  0.15596912111E+03  0.30233914133E+03  0.12500000000E+03 0.  0.
</event>
<event>
 4    0  0.2236434E-002  0.3716832E+03  0.7546771E-02  0.1054051E+00
         21   -1    0    0  502  501  0.00000000000E+00  0.00000000000E+00  0.88632065473E+03  0.88632065473E+03  0.00000000000E+00 0. -1.
         21   -1    0    0  501  502 -0.00000000000E+00 -0.00000000000E+00 -0.15586730125E+03  0.15586730125E+03  0.00000000000E+00 0. -1.
         25    1    1    2    0    0  0.75843994169E+02 -0.24296711610E+03  0.28347419450E+02  0.28498053819E+03  0.12500000000E+03 0.  0.
         25    1    1    2    0    0 -0.75843994169E+02  0.24296711610E+03  0.70210593403E+03  0.75720741779E+03  0.12500000000E+03 0.  0.
</event>
<event>
 4    0  0.2236434E-002  0.2262039E+03  0.7546771E-02  0.1129341E+00
         21   -1    0    0  502  501  0.00000000000E+00  0.00000000000E+00  0.72556993347E+02  0.72556993347E+02  0.00000000000E+00 0.  1.
         21   -1    0    0  501  502 -0.00000000000E+00 -0.00000000000E+00 -0.70521370059E+03  0.70521370059E+03  0.00000000000E+00 0.  1.
         25    1    1    2    0    0  0.18290749440E+03 -0.43847849913E+02 -0.29421830193E+03  0.37090051852E+03  0.12500000000E+03 0.  0.
         25    1    1    2    0    0 -0.18290749440E+03  0.43847849913E+02 -0.33843840531E+03  0.40687017541E+03  0.12500000000E+03 0.  0.
</event>
<event>
 4    0  0.2236434E-002  0.1553475E+03  0.7546771E-02  0.1194052E+00
         21   -1    0    0  502  501  0.00000000000E+00  0.00000000000E+00  0.69475872658E+02  0.69475872658E+02  0.00000000000E+00 0. -1.
         21   -1    0    0  501  502 -0.00000000000E+00 -0.00000000000E+00 -0.34735565810E+03  0.34735565810E+03  0.00000000000E+00 0. -1.
         25    1    1    2    0    0 -0.89745493027E+02  0.16061660779E+02 -0.12017618869E+03  0.19590698506E+03  0.12500000000E+03 0.  0.
         25    1    1    2    0    0  0.89745493027E+02 -0.16061660779E+02 -0.15770359675E+03  0.22092454570E+03  0.12500000000E+03 0.  0.
</event>
<event>
 4    0  0.2236434E-002  0.2991586E+03  0.7546771E-02  0.1085662E+00
         21   -1    0    0  502  501  0.00000000000E+00  0.00000000000E+00  0.30704763749E+03  0.30704763749E+03  0.00000000000E+00 0. -1.
         21   -1    0    0  501  502 -0.00000000000E+00 -0.00000000000E+00 -0.29147220564E+03  0.29147220564E+03  0.00000000000E+00 0. -1.
         25    1    1    2    0    0 -0.23505893249E+03 -0.22337620148E+02 -0.12686539364E+03  0.29575580995E+03  0.12500000000E+03 0.  0.
         25    1    1    2    0    0  0.23505893249E+03  0.22337620148E+02  0.14244082549E+03  0.30276403318E+03  0.12500000000E+03 0.  0.
</event>
<event>
 4    0  0.2236434E-002  0.2864890E+03  0.7546771E-02  0.1092197E+00
         21   -1    0    0  502  501  0.00000000000E+00  0.00000000000E+00  0.83573337127E+02  0.83573337127E+02  0.00000000000E+00 0.  1.
         21   -1    0    0  501  502 -0.00000000000E+00 -0.00000000000E+00 -0.98208290977E+03  0.98208290977E+03  0.00000000000E+00 0.  1.
         25    1    1    2    0    0  0.19257894758E+03 -0.16288771573E+03 -0.35028168941E+03  0.44937881672E+03  0.12500000000E+03 0.  0.
         25    1    1    2    0    0 -0.19257894758E+03  0.16288771573E+03 -0.54822788323E+03  0.61627743017E+03  0.12500000000E+03 0.  0.
</event>
<event>
 4    0  0.2236434E-002  0.1921778E+03  0.7546771E-02  0.1156512E+00
         21   -1    0    0  502  501  0.00000000000E+00  0.00000000000E+00  0.11060101773E+03  0.11060101773E+03  0.00000000000E+00 0.  1.
         21   -1    0    0  501  502 -0.00000000000E+00 -0.00000000000E+00 -0.33392359398E+03  0.33392359398E+03  0.00000000000E+00 0.  1.
         25    1    1    2    0    0 -0.31626168921E+02  0.31508052825E+02  0.49070724500E+02  0.14151292505E+03  0.12500000000E+03 0.  0.
         25    1    1    2    0    0  0.31626168921E+02 -0.31508052825E+02 -0.27239330076E+03  0.30301168666E+03  0.12500000000E+03 0.  0.
</event>
<event>
 4    0  0.2236434E-002  0.1725784E+03  0.7546771E-02  0.1175185E+00
         21   -1    0    0  502  501  0.00000000000E+00  0.00000000000E+00  0.12134556491E+02  0.12134556491E+02  0.00000000000E+00 0.  1.
         21   -1    0    0  501  502 -0.00000000000E+00 -0.00000000000E+00 -0.24544207341E+04  0.24544207341E+04  0.00000000000E+00 0.  1.
         25    1    1    2    0    0  0.74205656326E+02 -0.86251388537E+02 -0.97230328078E+03  0.98688624029E+03  0.12500000000E+03 0.  0.
         25    1    1    2    0    0 -0.74205656326E+02  0.86251388537E+02 -0.14699828968E+04  0.14796690503E+04  0.12500000000E+03 0.  0.
</event>
<event>
 4    0  0.2236434E-002  0.1747386E+03  0.7546771E-02  0.1172994E+00
         21   -1    0    0  502  501  0.00000000000E+00  0.00000000000E+00  0.24562765723E+03  0.24562765723E+03  0.00000000000E+00 0.  1.
         21   -1    0    0  501  502 -0.00000000000E+00 -0.00000000000E+00 -0.12430837826E+03  0.12430837826E+03  0.00000000000E+00 0.  1.
         25    1    1    2    0    0 -0.10593699597E+03 -0.45362414537E+02  0.10337253480E+03  0.19897556815E+03  0.12500000000E+03 0.  0.
         25    1    1    2    0    0  0.10593699597E+03  0.45362414537E+02  0.17946744166E+02  0.17096046734E+03  0.12500000000E+03 0.  0.
</event>
<event>
 4    0  0.2236434E-002  0.3821210E+03  0.7546771E-02  0.1050153E+00
         21   -1    0    0  502  501  0.00000000000E+00  0.00000000000E+00  0.14424448772E+04  0.14424448772E+04  0.00000000000E+00 0.  1.
         21   -1    0    0  501  502 -0.00000000000E+00 -0.00000000000E+00 -0.10122843601E+03  0.10122843601E+03  0.00000000000E+00 0.  1.
         25    1    1    2    0    0  0.14273127863E+02  0.23340724817E+03  0.12263814565E+04  0.12547187503E+04  0.12500000000E+03 0.  0.
         25    1    1    2    0    0 -0.14273127863E+02 -0.23340724817E+03  0.11483498468E+03  0.28895456284E+03  0.12500000000E+03 0.  0.
</event>
<event>
 4    0  0.2236434E-002  0.1989746E+03  0.7546771E-02  0.1150607E+00
         21   -1    0    0  502  501  0.00000000000E+00  0.00000000000E+00  0.19947878652E+03  0.19947878652E+03  0.00000000000E+00 0.  1.
         21   -1    0    0  501  502 -0.00000000000E+00 -0.00000000000E+00 -0.19847171340E+03  0.19847171340E+03  0.00000000000E+00 0.  1.
         25    1    1    2    0    0 -0.59958430836E+02 -0.14138821103E+03  0.20003775926E+02  0.19902459822E+03  0.12500000000E+03 0.  0.
         25    1    1    2    0    0  0.59958430836E+02  0.14138821103E+03 -0.18996702807E+02  0.19892590169E+03  0.12500000000E+03 0.  0.
</event>
<event>
 4    0  0.2236434E-002  0.2059363E+03  0.7546771E-02  0.1144825E+00
         21   -1    0    0  502  501  0.00000000000E+00  0.00000000000E+00  0.83825768072E+03  0.83825768072E+03  0.00000000000E+00 0.  1.
         21   -1    0    0  501  502 -0.00000000000E+00 -0.00000000000E+00 -0.50592744562E+02  0.50592744562E+02  0.00000000000E+00 0.  1.
         25    1    1    2    0    0  0.12203142968E+02  0.35811683713E+02  0.73745654674E+03  0.74893160683E+03  0.12500000000E+03 0.  0.
         25    1    1    2    0    0 -0.12203142968E+02 -0.35811683713E+02  0.50208389425E+02  0.13991881845E+03  0.12500000000E+03 0.  0.
</event>
<event>
 4    0  0.2236434E-002  0.2734707E+03  0.7546771E-02  0.1099309E+00
         21   -1    0    0  502  501  0.00000000000E+00  0.00000000000E+00  0.36751695293E+03  0.36751695293E+03  0.00000000000E+00 0.  1.
         21   -1    0    0  501  502 -0.00000000000E+00 -0.00000000000E+00 -0.20349059100E+03  0.20349059100E+03  0.00000000000E+00 0.  1.
         25    1    1    2    0    0 -0.49484762927E+02  0.12775819206E+03  0.29182974669E+03  0.34577521376E+03  0.12500000000E+03 0.  0.
         25    1    1    2    0    0  0.49484762927E+02 -0.12775819206E+03 -0.12780338476E+03  0.22523233017E+03  0.12500000000E+03 0.  0.
</event>
<event>
 4    0  0.2236434E-002  0.3669036E+03  0.7546771E-02  0.1055883E+00
         21   -1    0    0  502  501  0.00000000000E+00  0.00000000000E+00  0.57541463910E+03  0.57541463910E+03  0.00000000000E+00 0. -1.
         21   -1    0    0  501  502 -0.00000000000E+00 -0.00000000000E+00 -0.23394993268E+03  0.23394993268E+03  0.00000000000E+00 0. -1.
         25    1    1    2    0    0  0.30000326745E+03 -0.16950019513E+03  0.18854925351E+03  0.41219909950E+03  0.12500000000E+03 0.  0.
         25    1    1    2    0    0 -0.30000326745E+03  0.16950019513E+03  0.15291545292E+03  0.39716547228E+03  0.12500000000E+03 0.  0.
</event>
<event>
 4    0  0.2236434E-002  0.2055002E+03  0.7546771E-02  0.1145180E+00
         21   -1    0    0  502  501  0.00000000000E+00  0.00000000000E+00  0.10333023622E+03  0.10333023622E+03  0.00000000000E+00 0. -1.
         21   -1    0    0  501  502 -0.00000000000E+00 -0.00000000000E+00 -0.40869303382E+03  0.40869303382E+03  0.00000000000E+00 0. -1.
         25    1    1    2    0    0  0.12208705437E+03  0.95226563915E+02 -0.21659456764E+03  0.29412846522E+03  0.12500000000E+03 0.  0.
         25    1    1    2    0    0 -0.12208705437E+03 -0.95226563915E+02 -0.88768229962E+02  0.21789480482E+03  0.12500000000E+03 0.  0.
</event>
<event>
 4    0  0.2236434E-002  0.2612897E+03  0.7546771E-02  0.1106371E+00
         21   -1    0    0  502  501  0.00000000000E+00  0.00000000000E+00  0.59873212573E+03  0.59873212573E+03  0.00000000000E+00 0.  1.
         21   -1    0    0  501  502 -0.00000000000E+00 -0.00000000000E+00 -0.11402812757E+03  0.11402812757E+03  0.00000000000E+00 0.  1.
         25    1    1    2    0    0 -0.82258834426E+02  0.17076937473E+03  0.65995585401E+02  0.23645107840E+03  0.12500000000E+03 0.  0.
         25    1    1    2    0    0  0.82258834426E+02 -0.17076937473E+03  0.41870841275E+03  0.47630917490E+03  0.12500000000E+03 0.  0.
</event>
<event>
 4    0  0.2236434E-002  0.1856132E+03  0.7546771E-02  0.1162479E+00
         21   -1    0    0  502  501  0.00000000000E+00  0.00000000000E+00  0.41754620847E+02  0.41754620847E+02  0.00000000000E+00 0. -1.
         21   -1    0    0  501  502 -0.00000000000E+00 -0.00000000000E+00 -0.82511237880E+03  0.82511237880E+03  0.00000000000E+00 0. -1.
         25    1    1    2    0    0 -0.12390099331E+03 -0.58180838187E+01 -0.52867738206E+03  0.55723431386E+03  0.12500000000E+03 0.  0.
         25    1    1    2    0    0  0.12390099331E+03  0.58180838187E+01 -0.25468037590E+03  0.30963268579E+03  0.12500000000E+03 0.  0.
</event>
<event>
 4    0  0.2236434E-002  0.3369811E+03  0.7546771E-02  0.1068089E+00
         21   -1    0    0  502  501  0.00000000000E+00  0.00000000000E+00  0.78298315068E+03  0.78298315068E+03  0.00000000000E+00 0.  1.
         21   -1    0    0  501  502 -0.00000000000E+00 -0.00000000000E+00 -0.14503029359E+03  0.14503029359E+03  0.00000000000E+00 0.  1.
         25    1    1    2    0    0 -0.24875420587E+03  0.94330601301E+02  0.54587850915E+03  0.61998811604E+03  0.12500000000E+03 0.  0.
         25    1    1    2    0    0  0.24875420587E+03 -0.94330601301E+02  0.92074347943E+02  0.30802532823E+03  0.12500000000E+03 0.  0.
</event>
<event>
 4    0  0.2236434E-002  0.2395866E+03  0.7546771E-02  0.1120069E+00
         21   -1    0    0  502  501  0.00000000000E+00  0.00000000000E+00  0.48549327651E+02  0.48549327651E+02  0.00000000000E+00 0.  1.
         21   -1    0    0  501  502 -0.00000000000E+00 -0.00000000000E+00 -0.11823383199E+04  0.11823383199E+04  0.00000000000E+00 0.  1.
         25    1    1    2    0    0 -0.79971762125E+02 -0.94169097205E+02 -0.14862241846E+03  0.23016716724E+03  0.12500000000E+03 0.  0.
         25    1    1    2    0    0  0.79971762125E+02  0.94169097205E+02 -0.98516657382E+03  0.10007204803E+04  0.12500000000E+03 0.  0.
</event>
<event>
 4    0  0.2236434E-002  0.2100332E+03  0.7546771E-02  0.1141540E+00
         21   -1    0    0  502  501  0.00000000000E+00  0.00000000000E+00  0.27099917285E+03  0.27099917285E+03  0.00000000000E+00 0. -1.
         21   -1    0    0  501  502 -0.00000000000E+00 -0.00000000000E+00 -0.16278259600E+03  0.16278259600E+03  0.00000000000E+00 0. -1.
         25    1    1    2    0    0 -0.17071461850E+02 -0.14111748198E+03  0.14809292605E+03  0.24033745708E+03  0.12500000000E+03 0.  0.
         25    1    1    2    0    0  0.17071461850E+02  0.14111748198E+03 -0.39876349208E+02  0.19344431177E+03  0.12500000000E+03 0.  0.
</event>
<event>
 4    0  0.2236434E-002  0.2110481E+03  0.7546771E-02  0.1140739E+00
         21   -1    0    0  502  501  0.00000000000E+00  0.00000000000E+00  0.14360172735E+03  0.14360172735E+03  0.00000000000E+00 0. -1.
         21   -1    0    0  501  502 -0.00000000000E+00 -0.00000000000E+00 -0.31017244670E+03  0.31017244670E+03  0.00000000000E+00 0. -1.
         25    1    1    2    0    0 -0.67024296591E+02  0.73930840631E+02 -0.23130785890E+03  0.28122295624E+03  0.12500000000E+03 0.  0.
         25    1    1    2    0    0  0.67024296591E+02 -0.73930840631E+02  0.64737139541E+02  0.17255121780E+03  0.12500000000E+03 0.  0.
</event>
<event>
 4    0  0.2236434E-002  0.3031066E+03  0.7546771E-02  0.1083698E+00
         21   -1    0    0  502  501  0.00000000000E+00  0.00000000000E+00  0.14536254697E+03  0.14536254697E+03  0.00000000000E+00 0.  1.
         21   -1    0    0  501  502 -0.00000000000E+00 -0.00000000000E+00 -0.63203066439E+03  0.63203066439E+03  0.00000000000E+00 0.  1.
         25    1    1    2    0    0  0.44241339547E+01  0.18567746199E+03  0.18700579583E+02  0.22465619183E+03  0.12500000000E+03 0.  0.
         25    1    1    2    0    0 -0.44241339547E+01 -0.18567746199E+03 -0.50536869700E+03  0.55273701953E+03  0.12500000000E+03 0.  0.
</event>
<event>
 4    0  0.2236434E-002  0.1721453E+03  0.7546771E-02  0.1175629E+00
         21   -1    0    0  502  501  0.00000000000E+00  0.00000000000E+00  0.10082537950E+04  0.10082537950E+04  0.00000000000E+00 0. -1.
         21   -1    0    0  501  502 -0.00000000000E+00 -0.00000000000E+00 -0.29391413649E+02  0.29391413649E+02  0.00000000000E+00 0. -1.
         25    1    1    2    0    0  0.80186140999E+02 -0.11873013470E+02  0.74936225839E+03  0.76402852039E+03  0.12500000000E+03 0.  0.
         25    1    1    2    0    0 -0.80186140999E+02  0.11873013470E+02  0.22950012294E+03  0.27361668824E+03  0.12500000000E+03 0.  0.
</event>
<event>
 4    0  0.2236434E-002  0.1849071E+03  0.7546771E-02  0.1163137E+00
         21   -1    0    0  502  501  0.00000000000E+00  0.00000000000E+00  0.29888606381E+02  0.29888606381E+02  0.00000000000E+00 0. -1.
         21   -1    0    0  501  502 -0.00000000000E+00 -0.00000000000E+00 -0.11439351886E+04  0.11439351886E+04  0.00000000000E+00 0. -1.
         25    1    1    2    0    0 -0.11100959356E+03 -0.98871659548E+01 -0.30821134931E+03  0.35077075385E+03  0.12500000000E+03 0.  0.
         25    1    1    2    0    0  0.11100959356E+03  0.98871659548E+01 -0.80583523290E+03  0.82305304112E+03  0.12500000000E+03 0.  0.
</event>
<event>
 4    0  0.2236434E-002  0.2501517E+03  0.7546771E-02  0.1113209E+00
         21   -1    0    0  502  501  0.00000000000E+00  0.00000000000E+00  0.90822243880E+03  0.90822243880E+03  0.00000000000E+00 0. -1.
         21   -1    0    0  501  502 -0.00000000000E+00 -0.00000000000E+00 -0.68899264295E+02  0.68899264295E+02  0.00000000000E+00 0. -1.
         25    1    1    2    0    0 -0.54125201696E+02 -0.60710348733E+02  0.27414815067E+02  0.15163065649E+03  0.12500000000E+03 0.  0.
         25    1    1    2    0    0  0.54125201696E+02  0.60710348733E+02  0.81190835944E+03  0.82549104661E+03  0.12500000000E+03 0.  0.
</event>
<event>
 4    0  0.2236434E-002  0.1805264E+03  0.7546771E-02  0.1167295E+00
         21   -1    0    0  502  501  0.00000000000E+00  0.00000000000E+00  0.76721137663E+03  0.76721137663E+03  0.00000000000E+00 0. -1.
         21   -1    0    0  501  502 -0.00000000000E+00 -0.00000000000E+00 -0.42478251972E+02  0.42478251972E+02  0.00000000000E+00 0. -1.
         25    1    1    2    0    0 -0.29749853294E+02 -0.55215237560E+02  0.61836480456E+03  0.63398249798E+03  0.12500000000E+03 0.  0.
         25    1    1    2    0    0  0.29749853294E+02  0.55215237560E+02  0.10636832010E+03  0.17570713062E+03  0.12500000000E+03 0.  0.
</event>
<event>
 4    0  0.2236434E-002  0.3166468E+03  0.7546771E-02  0.1077203E+00
         21   -1    0    0  502  501  0.00000000000E+00  0.00000000000E+00  0.78709991392E+02  0.78709991392E+02  0.00000000000E+00 0. -1.
         21   -1    0    0  501  502 -0.00000000000E+00 -0.00000000000E+00 -0.12738562809E+04  0.12738562809E+04  0.00000000000E+00 0. -1.
         25    1    1    2    0    0  0.29041950559E+03 -0.36494435941E+01 -0.56161805246E+03  0.64451271866E+03  0.12500000000E+03 0.  0.
         25    1    1    2    0    0 -0.29041950559E+03  0.36494435941E+01 -0.63352823702E+03  0.70805355361E+03  0.12500000000E+03 0.  0.
</event>
<event>
 4    0  0.2236434E-002  0.1862917E+03  0.7546771E-02  0.1161849E+00
         21   -1    0    0  502  501  0.00000000000E+00  0.00000000000E+00  0.43039062644E+03  0.43039062644E+03  0.00000000000E+00 0.  1.
         21   -1    0    0  501  502 -0.00000000000E+00 -0.00000000000E+00 -0.80635148199E+02  0.80635148199E+02  0.00000000000E+00 0.  1.
         25    1    1    2    0    0  0.31295825257E+02  0.59433934109E+02  0.93327420508E+01  0.14221083389E+03  0.12500000000E+03 0.  0.
         25    1    1    2    0    0 -0.31295825257E+02 -0.59433934109E+02  0.34042273619E+03  0.36881494075E+03  0.12500000000E+03 0.  0.
</event>
<event>
 4    0  0.2236434E-002  0.2659719E+03  0.7546771E-02  0.1103607E+00
         21   -1    0    0  502  501  0.00000000000E+00  0.00000000000E+00  0.20443324841E+03  0.20443324841E+03  0.00000000000E+00 0. -1.
         21   -1    0    0  501  502 -0.00000000000E+00 -0.00000000000E+00 -0.34603489976E+03  0.34603489976E+03  0.00000000000E+00 0. -1.
         25    1    1    2    0    0  0.21512715390E+03 -0.92702203486E+02 -0.54681212637E+02  0.27108748753E+03  0.12500000000E+03 0.  0.
         25    1    1    2    0    0 -0.21512715390E+03  0.92702203486E+02 -0.86920438715E+02  0.27938066065E+03  0.12500000000E+03 0.  0.
</event>
<event>
 4    0  0.2236434E-002  0.2021174E+03  0.7546771E-02  0.1147965E+00
         21   -1    0    0  502  501  0.00000000000E+00  0.00000000000E+00  0.61181094256E+02  0.61181094256E+02  0.00000000000E+00 0. -1.
         21   -1    0    0  501  502 -0.00000000000E+00 -0.00000000000E+00 -0.66771353844E+03  0.66771353844E+03  0.00000000000E+00 0. -1.
         25    1    1    2    0    0  0.11080973537E+03  0.72754782422E+02 -0.14551006680E+03  0.23317425964E+03  0.12500000000E+03 0.  0.
         25    1    1    2    0    0 -0.11080973537E+03 -0.72754782422E+02 -0.46102237739E+03  0.49572037306E+03  0.12500000000E+03 0.  0.
</event>
<event>
 4    0  0.2236434E-002  0.3078592E+03  0.7546771E-02  0.1081377E+00
         21   -1    0    0  502  501  0.00000000000E+00  0.00000000000E+00  0.37967532636E+03  0.37967532636E+03  0.00000000000E+00 0.  1.
         21   -1    0    0  501  502 -0.00000000000E+00 -0.00000000000E+00 -0.24962725286E+03  0.24962725286E+03  0.00000000000E+00 0.  1.
         25    1    1    2    0    0 -0.13164166812E+03  0.24860210902E+03  0.69568629510E+02  0.31559044917E+03  0.12500000000E+03 0.  0.
         25    1    1    2    0    0  0.13164166812E+03 -0.24860210902E+03  0.60479443991E+02  0.31371213005E+03  0.12500000000E+03 0.  0.
</event>
<event>
 4    0  0.2236434E-002  0.1637391E+03  0.7546771E-02  0.1184539E+00
         21   -1    0    0  502  501  0.00000000000E+00  0.00000000000E+00  0.35963868900E+03  0.35963868900E+03  0.00000000000E+00 0. -1.
         21   -1    0    0  501  502 -0.00000000000E+00 -0.00000000000E+00 -0.74548395032E+02  0.74548395032E+02  0.00000000000E+00 0. -1.
         25    1    1    2    0    0  0.18147979049E+02 -0.99887642664E+02  0.10324543657E+03  0.19128907567E+03  0.12500000000E+03 0.  0.
         25    1    1    2    0    0 -0.18147979049E+02  0.99887642664E+02  0.18184485741E+03  0.24289800836E+03  0.12500000000E+03 0.  0.
</event>
<event>
 4    0  0.2236434E-002  0.1898199E+03  0.7546771E-02  0.1158624E+00
         21   -1    0    0  502  501  0.00000000000E+00  0.00000000000E+00  0.91217841818E+03  0.91217841818E+03  0.00000000000E+00 0. -1.
         21   -1    0    0  501  502 -0.00000000000E+00 -0.00000000000E+00 -0.39500579247E+02  0.39500579247E+02  0.00000000000E+00 0. -1.
         25    1    1    2    0    0 -0.14210232536E+03 -0.34778278194E+01  0.40076275774E+03  0.44321659959E+03  0.12500000000E+03 0.  0.
         25    1    1    2    0    0  0.14210232536E+03  0.34778278194E+01  0.47191508119E+03  0.50846239783E+03  0.12500000000E+03 0.  0.
</event>
<event>
 4    0  0.2236434E-002  0.2498281E+03  0.7546771E-02  0.1113413E+00
         21   -1    0    0  502  501  0.00000000000E+00  0.00000000000E+00  0.63851567453E+03  0.63851567453E+03  0.00000000000E+00 0. -1.
         21   -1    0    0  501  502 -0.00000000000E+00 -0.00000000000E+00 -0.97748724469E+02  0.97748724469E+02  0.00000000000E+00 0. -1.
         25    1    1    2    0    0 -0.57859692575E+02  0.14298648781E+02  0.57678416263E+03  0.59317549313E+03  0.12500000000E+03 0.  0.
         25    1    1    2    0    0  0.57859692575E+02 -0.14298648781E+02 -0.36017212573E+02  0.14308890587E+03  0.12500000000E+03 0.  0.
</event>
<event>
 4    0  0.2236434E-002  0.2079436E+03  0.7546771E-02  0.1143205E+00
         21   -1    0    0  502  501  0.00000000000E+00  0.00000000000E+00  0.91333742159E+03  0.91333742159E+03  0.00000000000E+00 0.  1.
         21   -1    0    0  501  502 -0.00000000000E+00 -0.00000000000E+00 -0.47343425935E+02  0.47343425935E+02  0.00000000000E+00 0.  1.
         25    1    1    2    0    0  0.21915416350E+02 -0.16015574429E+03  0.34397001058E+03  0.40008813540E+03  0.12500000000E+03 0.  0.
         25    1    1    2    0    0 -0.21915416350E+02  0.16015574429E+03  0.52202398507E+03  0.56059271213E+03  0.12500000000E+03 0.  0.
</event>
<event>
 4    0  0.2236434E-002  0.1859772E+03  0.7546771E-02  0.1162141E+00
         21   -1    0    0  502  501  0.00000000000E+00  0.00000000000E+00  0.19806422902E+04  0.19806422902E+04  0.00000000000E+00 0. -1.
         21   -1    0    0  501  502 -0.00000000000E+00 -0.00000000000E+00 -0.17462770036E+02  0.17462770036E+02  0.00000000000E+00 0. -1.
         25    1    1    2    0    0  0.11992055265E+03 -0.62346882617E+02  0.11231503556E+04  0.11381387411E+04  0.12500000000E+03 0.  0.
         25    1    1    2    0    0 -0.11992055265E+03  0.62346882617E+02  0.84002916450E+03  0.85996631907E+03  0.12500000000E+03 0.  0.
</event>
<event>
 4    0  0.2236434E-002  0.1684872E+03  0.7546771E-02  0.1179435E+00
         21   -1    0    0  502  501  0.00000000000E+00  0.00000000000E+00  0.24462855051E+03  0.24462855051E+03  0.00000000000E+00 0. -1.
         21   -1    0    0  501  502 -0.00000000000E+00 -0.00000000000E+00 -0.11604506084E+03  0.11604506084E+03  0.00000000000E+00 0. -1.
         25    1    1    2    0    0  0.11284068996E+03  0.41762423703E+00  0.58454836291E+02  0.17825589361E+03  0.12500000000E+03 0.  0.
         25    1    1    2    0    0 -0.11284068996E+03 -0.41762423703E+00  0.70128653382E+02  0.18241771774E+03  0.12500000000E+03 0.  0.
</event>
<event>
 4    0  0.2236434E-002  0.8328681E+03  0.7546771E-02  0.9513624E-01
         21   -1    0    0  502  501  0.00000000000E+00  0.00000000000E+00  0.60511246483E+03  0.60511246483E+03  0.00000000000E+00 0. -1.
         21   -1    0    0  501  502 -0.00000000000E+00 -0.00000000000E+00 -0.11463476286E+04  0.11463476286E+04  0.00000000000E+00 0.  1.
         25    1    1    2    0    0 -0.73072126281E+03  0.99530167082E+02  0.11454587961E+03  0.75670706130E+03  0.12500000000E+03 0.  0.
         25    1    1    2    0    0  0.73072126281E+03 -0.99530167082E+02 -0.65578104339E+03  0.99475303214E+03  0.12500000000E+03 0.  0.
</event>
<event>
 4    0  0.2236434E-002  0.1554616E+03  0.7546771E-02  0.1193918E+00
         21   -1    0    0  502  501  0.00000000000E+00  0.00000000000E+00  0.12006755002E+03  0.12006755002E+03  0.00000000000E+00 0. -1.
         21   -1    0    0  501  502 -0.00000000000E+00 -0.00000000000E+00 -0.20128921119E+03  0.20128921119E+03  0.00000000000E+00 0. -1.
         25    1    1    2    0    0  0.52704797670E+02  0.71213995974E+02 -0.67840170154E+02  0.16756048940E+03  0.12500000000E+03 0.  0.
         25    1    1    2    0    0 -0.52704797670E+02 -0.71213995974E+02 -0.13381491017E+02  0.15379627181E+03  0.12500000000E+03 0.  0.
</event>
<event>
 4    0  0.2236434E-002  0.1898835E+03  0.7546771E-02  0.1158566E+00
         21   -1    0    0  502  501  0.00000000000E+00  0.00000000000E+00  0.19082550899E+03  0.19082550899E+03  0.00000000000E+00 0.  1.
         21   -1    0    0  501  502 -0.00000000000E+00 -0.00000000000E+00 -0.18894622720E+03  0.18894622720E+03  0.00000000000E+00 0.  1.
         25    1    1    2    0    0  0.12141368433E+03  0.33489978770E+02 -0.66647417132E+02  0.18955141685E+03  0.12500000000E+03 0.  0.
         25    1    1    2    0    0 -0.12141368433E+03 -0.33489978770E+02  0.68526698928E+02  0.19022031933E+03  0.12500000000E+03 0.  0.
</event>
<event>
 4    0  0.2236434E-002  0.1876688E+03  0.7546771E-02  0.1160581E+00
         21   -1    0    0  502  501  0.00000000000E+00  0.00000000000E+00  0.91664384573E+02  0.91664384573E+02  0.00000000000E+00 0. -1.
         21   -1    0    0  501  502 -0.00000000000E+00 -0.00000000000E+00 -0.38422323814E+03  0.38422323814E+03  0.00000000000E+00 0. -1.
         25    1    1    2    0    0 -0.13730667295E+03  0.16704587765E+02 -0.11901470639E+03  0.22118242703E+03  0.12500000000E+03 0.  0.
         25    1    1    2    0    0  0.13730667295E+03 -0.16704587765E+02 -0.17354414718E+03  0.25470519568E+03  0.12500000000E+03 0.  0.
</event>
<event>
 4    0  0.2236434E-002  0.2029209E+03  0.7546771E-02  0.1147298E+00
         21   -1    0    0  502  501  0.00000000000E+00  0.00000000000E+00  0.39149059844E+02  0.39149059844E+02  0.00000000000E+00 0.  1.
         21   -1    0    0  501  502 -0.00000000000E+00 -0.00000000000E+00 -0.10517973610E+04  0.10517973610E+04  0.00000000000E+00 0.  1.
         25    1    1    2    0    0  0.11036859110E+03 -0.20351395993E+02 -0.20034621520E+03  0.26145556250E+03  0.12500000000E+03 0.  0.
         25    1    1    2    0    0 -0.11036859110E+03  0.20351395993E+02 -0.81230208592E+03  0.82949085831E+03  0.12500000000E+03 0.  0.
</event>
<event>
 4    0  0.2236434E-002  0.2993725E+03  0.7546771E-02  0.1085555E+00
         21   -1    0    0  502  501  0.00000000000E+00  0.00000000000E+00  0.82779203850E+03  0.82779203850E+03  0.00000000000E+00 0.  1.
         21   -1    0    0  501  502 -0.00000000000E+00 -0.00000000000E+00 -0.10826861779E+03  0.10826861779E+03  0.00000000000E+00 0.  1.
         25    1    1    2    0    0  0.12412220574E+03  0.77504892762E+02  0.71826683494E+03  0.74360310417E+03  0.12500000000E+03 0.  0.
         25    1    1    2    0    0 -0.12412220574E+03 -0.77504892762E+02  0.12565857683E+01  0.19245755212E+03  0.12500000000E+03 0.  0.
</event>
<event>
 4    0  0.2236434E-002  0.2024528E+03  0.7546771E-02  0.1147686E+00
         21   -1    0    0  502  501  0.00000000000E+00  0.00000000000E+00  0.26487678969E+03  0.26487678969E+03  0.00000000000E+00 0. -1.
         21   -1    0    0  501  502 -0.00000000000E+00 -0.00000000000E+00 -0.15474036526E+03  0.15474036526E+03  0.00000000000E+00 0. -1.
         25    1    1    2    0    0 -0.13600651020E+02  0.88694583830E+02 -0.81281220239E+02  0.17402110123E+03  0.12500000000E+03 0.  0.
         25    1    1    2    0    0  0.13600651020E+02 -0.88694583830E+02  0.19141764467E+03  0.24559605372E+03  0.12500000000E+03 0.  0.
</event>
<event>
 4    0  0.2236434E-002  0.3429536E+03  0.7546771E-02  0.1065545E+00
         21   -1    0    0  502  501  0.00000000000E+00  0.00000000000E+00  0.99693204552E+03  0.99693204552E+03  0.00000000000E+00 0. -1.
         21   -1    0    0  501  502 -0.00000000000E+00 -0.00000000000E+00 -0.11797913164E+03  0.11797913164E+03  0.00000000000E+00 0. -1.
         25    1    1    2    0    0  0.31655698290E+02 -0.31353345604E+03  0.52373188339E+03  0.62387931282E+03  0.12500000000E+03 0.  0.
         25    1    1    2    0    0 -0.31655698290E+02  0.31353345604E+03  0.35522103049E+03  0.49103186434E+03  0.12500000000E+03 0.  0.
</event>
<event>
 4    0  0.2236434E-002  0.2975958E+03  0.7546771E-02  0.1086449E+00
         21   -1    0    0  502  501  0.00000000000E+00  0.00000000000E+00  0.95340601204E+02  0.95340601204E+02  0.00000000000E+00 0.  1.
         21   -1    0    0  501  502 -0.00000000000E+00 -0.00000000000E+00 -0.92891439565E+03  0.92891439565E+03  0.00000000000E+00 0.  1.
         25    1    1    2    0    0 -0.47863384568E+02 -0.24090412086E+03 -0.22352203889E+03  0.35484193791E+03  0.12500000000E+03 0.  0.
         25    1    1    2    0    0  0.47863384568E+02  0.24090412086E+03 -0.61005175556E+03  0.66941305895E+03  0.12500000000E+03 0.  0.
</event>
<event>
 4    0  0.2236434E-002  0.3068036E+03  0.7546771E-02  0.1081888E+00
         21   -1    0    0  502  501  0.00000000000E+00  0.00000000000E+00  0.28152921198E+03  0.28152921198E+03  0.00000000000E+00 0.  1.
         21   -1    0    0  501  502 -0.00000000000E+00 -0.00000000000E+00 -0.33434690439E+03  0.33434690439E+03  0.00000000000E+00 0.  1.
         25    1    1    2    0    0 -0.18399638088E+03 -0.18088592031E+03  0.83215157409E+02  0.29853667575E+03  0.12500000000E+03 0.  0.
         25    1    1    2    0    0  0.18399638088E+03  0.18088592031E+03 -0.13603284981E+03  0.31733944062E+03  0.12500000000E+03 0.  0.
</event>
<event>
 4    0  0.2236434E-002  0.1987390E+03  0.7546771E-02  0.1150807E+00
         21   -1    0    0  502  501  0.00000000000E+00  0.00000000000E+00  0.18061193322E+02  0.18061193322E+02  0.00000000000E+00 0. -1.
         21   -1    0    0  501  502 -0.00000000000E+00 -0.00000000000E+00 -0.21868549486E+04  0.21868549486E+04  0.00000000000E+00 0. -1.
         25    1    1    2    0    0  0.14740926218E+01 -0.12908872026E+03 -0.61349524116E+03  0.63927105485E+03  0.12500000000E+03 0.  0.
         25    1    1    2    0    0 -0.14740926218E+01  0.12908872026E+03 -0.15552985141E+04  0.15656450871E+04  0.12500000000E+03 0.  0.
</event>
<event>
 4    0  0.2236434E-002  0.1524022E+03  0.7546771E-02  0.1197552E+00
         21   -1    0    0  502  501  0.00000000000E+00  0.00000000000E+00  0.22281347892E+03  0.22281347892E+03  0.00000000000E+00 0. -1.
         21   -1    0    0  501  502 -0.00000000000E+00 -0.00000000000E+00 -0.10424161489E+03  0.10424161489E+03  0.00000000000E+00 0. -1.
         25    1    1    2    0    0  0.27417616417E+02 -0.80001736750E+02  0.82033357191E+02  0.17177448956E+03  0.12500000000E+03 0.  0.
         25    1    1    2    0    0 -0.27417616417E+02  0.80001736750E+02  0.36538506833E+02  0.15528060424E+03  0.12500000000E+03 0.  0.
</event>
<event>
 4    0  0.2236434E-002  0.2674969E+03  0.7546771E-02  0.1102721E+00
         21   -1    0    0  502  501  0.00000000000E+00  0.00000000000E+00  0.80173272853E+03  0.80173272853E+03  0.00000000000E+00 0. -1.
         21   -1    0    0  501  502 -0.00000000000E+00 -0.00000000000E+00 -0.89249920944E+02  0.89249920944E+02  0.00000000000E+00 0. -1.
         25    1    1    2    0    0  0.22637249529E+02 -0.51526961201E+02 -0.26302778500E+02  0.13958620617E+03  0.12500000000E+03 0.  0.
         25    1    1    2    0    0 -0.22637249529E+02  0.51526961201E+02  0.73878558609E+03  0.75139644330E+03  0.12500000000E+03 0.  0.
</event>
<event>
 4    0  0.2236434E-002  0.4884232E+03  0.7546771E-02  0.1016846E+00
         21   -1    0    0  502  501  0.00000000000E+00  0.00000000000E+00  0.13723575197E+03  0.13723575197E+03  0.00000000000E+00 0. -1.
         21   -1    0    0  501  502 -0.00000000000E+00 -0.00000000000E+00 -0.17383025232E+04  0.17383025232E+04  0.00000000000E+00 0. -1.
         25    1    1    2    0    0  0.21284338824E+02  0.13109375828E+03  0.69402784587E+02  0.19514185365E+03  0.12500000000E+03 0.  0.
         25    1    1    2    0    0 -0.21284338824E+02 -0.13109375828E+03 -0.16704695558E+04  0.16803964215E+04  0.12500000000E+03 0.  0.
</event>
<event>
 4    0  0.2236434E-002  0.2610470E+03  0.7546771E-02  0.1106516E+00
         21   -1    0    0  502  501  0.00000000000E+00  0.00000000000E+00  0.92556640561E+02  0.92556640561E+02  0.00000000000E+00 0.  1.
         21   -1    0    0  501  502 -0.00000000000E+00 -0.00000000000E+00 -0.73625761515E+03  0.73625761515E+03  0.00000000000E+00 0.  1.
         25    1    1    2    0    0 -0.11489983038E+02 -0.66109194673E+02  0.26014683664E+02  0.14423664270E+03  0.12500000000E+03 0.  0.
         25    1    1    2    0    0  0.11489983038E+02  0.66109194673E+02 -0.66971565826E+03  0.68457761302E+03  0.12500000000E+03 0.  0.
</event>
<event>
 4    0  0.2236434E-002  0.2110620E+03  0.7546771E-02  0.1140728E+00
         21   -1    0    0  502  501  0.00000000000E+00  0.00000000000E+00  0.44390261852E+03  0.44390261852E+03  0.00000000000E+00 0. -1.
         21   -1    0    0  501  502 -0.00000000000E+00 -0.00000000000E+00 -0.10035343617E+03  0.10035343617E+03  0.00000000000E+00 0. -1.
         25    1    1    2    0    0 -0.44911938359E+02 -0.13830627788E+03  0.58076327761E+02  0.20035859990E+03  0.12500000000E+03 0.  0.
         25    1    1    2    0    0  0.44911938359E+02  0.13830627788E+03  0.28547285458E+03  0.34389745479E+03  0.12500000000E+03 0.  0.
</event>
<event>
 4    0  0.2236434E-002  0.1942759E+03  0.7546771E-02  0.1154660E+00
         21   -1    0    0  502  501  0.00000000000E+00  0.00000000000E+00  0.68656014304E+03  0.68656014304E+03  0.00000000000E+00 0.  1.
         21   -1    0    0  501  502 -0.00000000000E+00 -0.00000000000E+00 -0.54974259794E+02  0.54974259794E+02  0.00000000000E+00 0.  1.
         25    1    1    2    0    0 -0.11296923116E+02  0.10557903735E+03  0.11706052890E+03  0.20150116879E+03  0.12500000000E+03 0.  0.
         25    1    1    2    0    0  0.11296923116E+02 -0.10557903735E+03  0.51452535435E+03  0.54003323404E+03  0.12500000000E+03 0.  0.
</event>
<event>
 4    0  0.2236434E-002  0.1860969E+03  0.7546771E-02  0.1162029E+00
         21   -1    0    0  502  501  0.00000000000E+00  0.00000000000E+00  0.13370939804E+04  0.13370939804E+04  0.00000000000E+00 0. -1.
         21   -1    0    0  501  502 -0.00000000000E+00 -0.00000000000E+00 -0.25900995605E+02  0.25900995605E+02  0.00000000000E+00 0. -1.
         25    1    1    2    0    0  0.10850757432E+03 -0.32697365865E+02  0.36808296895E+03  0.40491120440E+03  0.12500000000E+03 0.  0.
         25    1    1    2    0    0 -0.10850757432E+03  0.32697365865E+02  0.94311001584E+03  0.95808377160E+03  0.12500000000E+03 0.  0.
</event>
<event>
 4    0  0.2236434E-002  0.3228628E+03  0.7546771E-02  0.1074339E+00
         21   -1    0    0  502  501  0.00000000000E+00  0.00000000000E+00  0.13316934076E+03  0.13316934076E+03  0.00000000000E+00 0.  1.
         21   -1    0    0  501  502 -0.00000000000E+00 -0.00000000000E+00 -0.78276580410E+03  0.78276580410E+03  0.00000000000E+00 0.  1.
         25    1    1    2    0    0 -0.75592971941E+02 -0.23348760828E+03 -0.56377650423E+03  0.62745494448E+03  0.12500000000E+03 0.  0.
         25    1    1    2    0    0  0.75592971941E+02  0.23348760828E+03 -0.85819959104E+02  0.28848020037E+03  0.12500000000E+03 0.  0.
</event>
<event>
 4    0  0.2236434E-002  0.1970314E+03  0.7546771E-02  0.1152268E+00
         21   -1    0    0  502  501  0.00000000000E+00  0.00000000000E+00  0.42770643784E+03  0.42770643784E+03  0.00000000000E+00 0. -1.
         21   -1    0    0  501  502 -0.00000000000E+00 -0.00000000000E+00 -0.90766365190E+02  0.90766365190E+02  0.00000000000E+00 0. -1.
         25    1    1    2    0    0 -0.64309959140E+02 -0.79852537977E+01 -0.12873096300E+02  0.14138688670E+03  0.12500000000E+03 0.  0.
         25    1    1    2    0    0  0.64309959140E+02  0.79852537977E+01  0.34981316895E+03  0.37708591633E+03  0.12500000000E+03 0.  0.
</event>
<event>
 4    0  0.2236434E-002  0.2117998E+03  0.7546771E-02  0.1140149E+00
         21   -1    0    0  502  501  0.00000000000E+00  0.00000000000E+00  0.55291130679E+03  0.55291130679E+03  0.00000000000E+00 0. -1.
         21   -1    0    0  501  502 -0.00000000000E+00 -0.00000000000E+00 -0.81132655463E+02  0.81132655463E+02  0.00000000000E+00 0. -1.
         25    1    1    2    0    0 -0.15168756727E+03 -0.16546773695E+02  0.12041967628E+03  0.23110346648E+03  0.12500000000E+03 0.  0.
         25    1    1    2    0    0  0.15168756727E+03  0.16546773695E+02  0.35135897505E+03  0.40294049577E+03  0.12500000000E+03 0.  0.
</event>
<event>
 4    0  0.2236434E-002  0.2277898E+03  0.7546771E-02  0.1128205E+00
         21   -1    0    0  502  501  0.00000000000E+00  0.00000000000E+00  0.17785652926E+03  0.17785652926E+03  0.00000000000E+00 0.  1.
         21   -1    0    0  501  502 -0.00000000000E+00 -0.00000000000E+00 -0.29174175059E+03  0.29174175059E+03  0.00000000000E+00 0.  1.
         25    1    1    2    0    0 -0.71493377102E+02  0.16204099143E+03 -0.12905675127E+03  0.25228799202E+03  0.12500000000E+03 0.  0.
         25    1    1    2    0    0  0.71493377102E+02 -0.16204099143E+03  0.15171529938E+02  0.21731028782E+03  0.12500000000E+03 0.  0.
</event>
<event>
 4    0  0.2236434E-002  0.2269486E+03  0.7546771E-02  0.1128806E+00
         21   -1    0    0  502  501  0.00000000000E+00  0.00000000000E+00  0.81452678602E+03  0.81452678602E+03  0.00000000000E+00 0.  1.
         21   -1    0    0  501  502 -0.00000000000E+00 -0.00000000000E+00 -0.63233865309E+02  0.63233865309E+02  0.00000000000E+00 0.  1.
         25    1    1    2    0    0  0.33676718527E+02 -0.13481964612E+03  0.62457958058E+03  0.65194716874E+03  0.12500000000E+03 0.  0.
         25    1    1    2    0    0 -0.33676718527E+02  0.13481964612E+03  0.12671334013E+03  0.22581348259E+03  0.12500000000E+03 0.  0.
</event>
<event>
 4    0  0.2236434E-002  0.2101557E+03  0.7546771E-02  0.1141443E+00
         21   -1    0    0  502  501  0.00000000000E+00  0.00000000000E+00  0.30645545659E+03  0.30645545659E+03  0.00000000000E+00 0.  1.
         21   -1    0    0  501  502 -0.00000000000E+00 -0.00000000000E+00 -0.14411690665E+03  0.14411690665E+03  0.00000000000E+00 0.  1.
         25    1    1    2    0    0  0.12259297142E+03  0.95441623651E+02  0.10042706213E+02  0.19965970078E+03  0.12500000000E+03 0.  0.
         25    1    1    2    0    0 -0.12259297142E+03 -0.95441623651E+02  0.15229584372E+03  0.25091266246E+03  0.12500000000E+03 0.  0.
</event>
<event>
 4    0  0.2236434E-002  0.2320081E+03  0.7546771E-02  0.1125234E+00
         21   -1    0    0  502  501  0.00000000000E+00  0.00000000000E+00  0.20069289385E+03  0.20069289385E+03  0.00000000000E+00 0. -1.
         21   -1    0    0  501  502 -0.00000000000E+00 -0.00000000000E+00 -0.26820947437E+03  0.26820947437E+03  0.00000000000E+00 0. -1.
         25    1    1    2    0    0  0.10512524075E+03  0.16254864288E+03 -0.61049309692E+02  0.23838077892E+03  0.12500000000E+03 0.  0.
         25    1    1    2    0    0 -0.10512524075E+03 -0.16254864288E+03 -0.64672708270E+01  0.23052158931E+03  0.12500000000E+03 0.  0.
</event>
<event>
 4    0  0.2236434E-002  0.1618727E+03  0.7546771E-02  0.1186599E+00
         21   -1    0    0  502  501  0.00000000000E+00  0.00000000000E+00  0.61341657877E+02  0.61341657877E+02  0.00000000000E+00 0. -1.
         21   -1    0    0  501  502 -0.00000000000E+00 -0.00000000000E+00 -0.42716105074E+03  0.42716105074E+03  0.00000000000E+00 0. -1.
         25    1    1    2    0    0 -0.44868778753E+02 -0.22091636944E+02 -0.31851463938E+03  0.34580026494E+03  0.12500000000E+03 0.  0.
         25    1    1    2    0    0  0.44868778753E+02  0.22091636944E+02 -0.47304753478E+02  0.14270244368E+03  0.12500000000E+03 0.  0.
</event>
<event>
 4    0  0.2236434E-002  0.4323439E+03  0.7546771E-02  0.1033122E+00
         21   -1    0    0  502  501  0.00000000000E+00  0.00000000000E+00  0.31185717456E+03  0.31185717456E+03  0.00000000000E+00 0.  1.
         21   -1    0    0  501  502 -0.00000000000E+00 -0.00000000000E+00 -0.59938104521E+03  0.59938104521E+03  0.00000000000E+00 0.  1.
         25    1    1    2    0    0  0.25985862802E+03 -0.24687828530E+03  0.74310301400E+02  0.38681056760E+03  0.12500000000E+03 0.  0.
         25    1    1    2    0    0 -0.25985862802E+03  0.24687828530E+03 -0.36183417205E+03  0.52442765218E+03  0.12500000000E+03 0.  0.
</event>
<event>
 4    0  0.2236434E-002  0.2415526E+03  0.7546771E-02  0.1118763E+00
         21   -1    0    0  502  501  0.00000000000E+00  0.00000000000E+00  0.19778785299E+03  0.19778785299E+03  0.00000000000E+00 0. -1.
         21   -1    0    0  501  502 -0.00000000000E+00 -0.00000000000E+00 -0.29500130546E+03  0.29500130546E+03  0.00000000000E+00 0. -1.
         25    1    1    2    0    0 -0.83352853932E+02  0.15432523879E+02 -0.24089757448E+03  0.28432815978E+03  0.12500000000E+03 0.  0.
         25    1    1    2    0    0  0.83352853932E+02 -0.15432523879E+02  0.14368412201E+03  0.20846099868E+03  0.12500000000E+03 0.  0.
</event>
<event>
 4    0  0.2236434E-002  0.2099945E+03  0.7546771E-02  0.1141570E+00
         21   -1    0    0  502  501  0.00000000000E+00  0.00000000000E+00  0.96223761876E+03  0.96223761876E+03  0.00000000000E+00 0.  1.
         21   -1    0    0  501  502 -0.00000000000E+00 -0.00000000000E+00 -0.45828295481E+02  0.45828295481E+02  0.00000000000E+00 0.  1.
         25    1    1    2    0    0  0.20355362520E+02  0.16747412916E+03  0.46608717801E+03  0.51119876979E+03  0.12500000000E+03 0.  0.
         25    1    1    2    0    0 -0.20355362520E+02 -0.16747412916E+03  0.45032214527E+03  0.49686714446E+03  0.12500000000E+03 0.  0.
</event>
<event>
 4    0  0.2236434E-002  0.2110279E+03  0.7546771E-02  0.1140755E+00
         21   -1    0    0  502  501  0.00000000000E+00  0.00000000000E+00  0.19090732478E+03  0.19090732478E+03  0.00000000000E+00 0.  1.
         21   -1    0    0  501  502 -0.00000000000E+00 -0.00000000000E+00 -0.23326912773E+03  0.23326912773E+03  0.00000000000E+00 0.  1.
         25    1    1    2    0    0 -0.50748291782E+02 -0.98605248923E+02 -0.15070590572E+03  0.22502367487E+03  0.12500000000E+03 0.  0.
         25    1    1    2    0    0  0.50748291782E+02  0.98605248923E+02  0.10834410277E+03  0.19915277763E+03  0.12500000000E+03 0.  0.
</event>
<event>
 4    0  0.2236434E-002  0.1850935E+03  0.7546771E-02  0.1162963E+00
         21   -1    0    0  502  501  0.00000000000E+00  0.00000000000E+00  0.72297273258E+03  0.72297273258E+03  0.00000000000E+00 0.  1.
         21   -1    0    0  501  502 -0.00000000000E+00 -0.00000000000E+00 -0.47387144737E+02  0.47387144737E+02  0.00000000000E+00 0.  1.
         25    1    1    2    0    0  0.50031985578E+02 -0.16974238333E+02  0.75856846203E+02  0.15546892121E+03  0.12500000000E+03 0.  0.
         25    1    1    2    0    0 -0.50031985578E+02  0.16974238333E+02  0.59972874164E+03  0.61489095610E+03  0.12500000000E+03 0.  0.
</event>
<event>
 4    0  0.2236434E-002  0.2547939E+03  0.7546771E-02  0.1110312E+00
         21   -1    0    0  502  501  0.00000000000E+00  0.00000000000E+00  0.17091504637E+03  0.17091504637E+03  0.00000000000E+00 0. -1.
         21   -1    0    0  501  502 -0.00000000000E+00 -0.00000000000E+00 -0.37983749484E+03  0.37983749484E+03  0.00000000000E+00 0.  1.
         25    1    1    2    0    0 -0.69111883195E+02 -0.18845259673E+03 -0.20701645855E+03  0.31427956937E+03  0.12500000000E+03 0.  0.
         25    1    1    2    0    0  0.69111883195E+02  0.18845259673E+03 -0.19059899158E+01  0.23647297184E+03  0.12500000000E+03 0.  0.
</event>
<event>
 4    0  0.2236434E-002  0.1471267E+03  0.7546771E-02  0.1204049E+00
         21   -1    0    0  502  501  0.00000000000E+00  0.00000000000E+00  0.30413371089E+03  0.30413371089E+03  0.00000000000E+00 0.  1.
         21   -1    0    0  501  502 -0.00000000000E+00 -0.00000000000E+00 -0.71173483669E+02  0.71173483669E+02  0.00000000000E+00 0.  1.
         25    1    1    2    0    0  0.57357088003E+02 -0.49733985916E+02  0.13696501825E+03  0.20036896248E+03  0.12500000000E+03 0.  0.
         25    1    1    2    0    0 -0.57357088003E+02  0.49733985916E+02  0.95995208973E+02  0.17493823208E+03  0.12500000000E+03 0.  0.
</event>
<event>
 4    0  0.2236434E-002  0.1847788E+03  0.7546771E-02  0.1163257E+00
         21   -1    0    0  502  501  0.00000000000E+00  0.00000000000E+00  0.91204869216E+02  0.91204869216E+02  0.00000000000E+00 0. -1.
         21   -1    0    0  501  502 -0.00000000000E+00 -0.00000000000E+00 -0.37435720693E+03  0.37435720693E+03  0.00000000000E+00 0. -1.
         25    1    1    2    0    0  0.12858225312E+03 -0.10326534021E+02 -0.19617239057E+03  0.26598616495E+03  0.12500000000E+03 0.  0.
         25    1    1    2    0    0 -0.12858225312E+03  0.10326534021E+02 -0.86979947139E+02  0.19957591119E+03  0.12500000000E+03 0.  0.
</event>
<event>
 4    0  0.2236434E-002  0.2310714E+03  0.7546771E-02  0.1125888E+00
         21   -1    0    0  502  501  0.00000000000E+00  0.00000000000E+00  0.63060007538E+02  0.63060007538E+02  0.00000000000E+00 0. -1.
         21   -1    0    0  501  502 -0.00000000000E+00 -0.00000000000E+00 -0.84671716227E+03  0.84671716227E+03  0.00000000000E+00 0. -1.
         25    1    1    2    0    0  0.96223715713E+02  0.16150087289E+03 -0.48882025300E+03  0.53843455977E+03  0.12500000000E+03 0.  0.
         25    1    1    2    0    0 -0.96223715713E+02 -0.16150087289E+03 -0.29483690173E+03  0.37134261004E+03  0.12500000000E+03 0.  0.
</event>
<event>
 4    0  0.2236434E-002  0.2661250E+03  0.7546771E-02  0.1103518E+00
         21   -1    0    0  502  501  0.00000000000E+00  0.00000000000E+00  0.13032458691E+03  0.13032458691E+03  0.00000000000E+00 0.  1.
         21   -1    0    0  501  502 -0.00000000000E+00 -0.00000000000E+00 -0.54343165949E+03  0.54343165949E+03  0.00000000000E+00 0.  1.
         25    1    1    2    0    0 -0.57782652089E+02 -0.15892437545E+03 -0.90658377509E-01  0.21028742286E+03  0.12500000000E+03 0.  0.
         25    1    1    2    0    0  0.57782652089E+02  0.15892437545E+03 -0.41301641421E+03  0.46346882354E+03  0.12500000000E+03 0.  0.
</event>
<event>
 4    0  0.2236434E-002  0.2414963E+03  0.7546771E-02  0.1118800E+00
         21   -1    0    0  502  501  0.00000000000E+00  0.00000000000E+00  0.23357533665E+03  0.23357533665E+03  0.00000000000E+00 0. -1.
         21   -1    0    0  501  502 -0.00000000000E+00 -0.00000000000E+00 -0.24968583968E+03  0.24968583968E+03  0.00000000000E+00 0. -1.
         25    1    1    2    0    0 -0.11994625761E+03  0.16782379463E+03  0.39315322557E+01  0.24123098413E+03  0.12500000000E+03 0.  0.
         25    1    1    2    0    0  0.11994625761E+03 -0.16782379463E+03 -0.20042035286E+02  0.24203019220E+03  0.12500000000E+03 0.  0.
</event>
<event>
 4    0  0.2236434E-002  0.2451345E+03  0.7546771E-02  0.1116419E+00
         21   -1    0    0  502  501  0.00000000000E+00  0.00000000000E+00  0.85251782781E+02  0.85251782781E+02  0.00000000000E+00 0. -1.
         21   -1    0    0  501  502 -0.00000000000E+00 -0.00000000000E+00 -0.70486428349E+03  0.70486428349E+03  0.00000000000E+00 0. -1.
         25    1    1    2    0    0 -0.21025445086E+03 -0.16068676433E+02 -0.31124799136E+03  0.39618865278E+03  0.12500000000E+03 0.  0.
         25    1    1    2    0    0  0.21025445086E+03  0.16068676433E+02 -0.30836450935E+03  0.39392741348E+03  0.12500000000E+03 0.  0.
</event>
<event>
 4    0  0.2236434E-002  0.2183335E+03  0.7546771E-02  0.1135132E+00
         21   -1    0    0  502  501  0.00000000000E+00  0.00000000000E+00  0.13976733203E+03  0.13976733203E+03  0.00000000000E+00 0. -1.
         21   -1    0    0  501  502 -0.00000000000E+00 -0.00000000000E+00 -0.34106342502E+03  0.34106342502E+03  0.00000000000E+00 0. -1.
         25    1    1    2    0    0 -0.40496479040E+02 -0.15273279374E+03 -0.19328285748E+03  0.27919622866E+03  0.12500000000E+03 0.  0.
         25    1    1    2    0    0  0.40496479040E+02  0.15273279374E+03 -0.80132355050E+01  0.20163452840E+03  0.12500000000E+03 0.  0.
</event>
<event>
 4    0  0.2236434E-002  0.1657457E+03  0.7546771E-02  0.1182358E+00
         21   -1    0    0  502  501  0.00000000000E+00  0.00000000000E+00  0.44908899431E+02  0.44908899431E+02  0.00000000000E+00 0.  1.
         21   -1    0    0  501  502 -0.00000000000E+00 -0.00000000000E+00 -0.61171897144E+03  0.61171897144E+03  0.00000000000E+00 0.  1.
         25    1    1    2    0    0 -0.32143138541E+02  0.85689956173E+02 -0.40010055006E+03  0.42904708378E+03  0.12500000000E+03 0.  0.
         25    1    1    2    0    0  0.32143138541E+02 -0.85689956173E+02 -0.16670952196E+03  0.22758078710E+03  0.12500000000E+03 0.  0.
</event>
<event>
 4    0  0.2236434E-002  0.2456382E+03  0.7546771E-02  0.1116093E+00
         21   -1    0    0  502  501  0.00000000000E+00  0.00000000000E+00  0.29965963096E+02  0.29965963096E+02  0.00000000000E+00 0.  1.
         21   -1    0    0  501  502 -0.00000000000E+00 -0.00000000000E+00 -0.20135551064E+04  0.20135551064E+04  0.00000000000E+00 0.  1.
         25    1    1    2    0    0 -0.17619275126E+02 -0.16982829209E+03 -0.47290801498E+03  0.51809176628E+03  0.12500000000E+03 0.  0.
         25    1    1    2    0    0  0.17619275126E+02  0.16982829209E+03 -0.15106811283E+04  0.15254293032E+04  0.12500000000E+03 0.  0.
</event>
<event>
 4    0  0.2236434E-002  0.1819170E+03  0.7546771E-02  0.1165961E+00
         21   -1    0    0  502  501  0.00000000000E+00  0.00000000000E+00  0.15070236866E+03  0.15070236866E+03  0.00000000000E+00 0. -1.
         21   -1    0    0  501  502 -0.00000000000E+00 -0.00000000000E+00 -0.21959708797E+03  0.21959708797E+03  0.00000000000E+00 0. -1.
         25    1    1    2    0    0 -0.47900973207E+02 -0.66704149156E+02 -0.13984853584E+03  0.20475976100E+03  0.12500000000E+03 0.  0.
         25    1    1    2    0    0  0.47900973207E+02  0.66704149156E+02  0.70953816533E+02  0.16553969563E+03  0.12500000000E+03 0.  0.
</event>
<event>
 4    0  0.2236434E-002  0.1829611E+03  0.7546771E-02  0.1164968E+00
         21   -1    0    0  502  501  0.00000000000E+00  0.00000000000E+00  0.85054477083E+02  0.85054477083E+02  0.00000000000E+00 0. -1.
         21   -1    0    0  501  502 -0.00000000000E+00 -0.00000000000E+00 -0.39356872611E+03  0.39356872611E+03  0.00000000000E+00 0. -1.
         25    1    1    2    0    0 -0.38644683086E+02 -0.12757897746E+03 -0.14255990952E+03  0.23177172999E+03  0.12500000000E+03 0.  0.
         25    1    1    2    0    0  0.38644683086E+02  0.12757897746E+03 -0.16595433950E+03  0.24685147320E+03  0.12500000000E+03 0.  0.
</event>
<event>
 4    0  0.2236434E-002  0.3672336E+03  0.7546771E-02  0.1055756E+00
         21   -1    0    0  502  501  0.00000000000E+00  0.00000000000E+00  0.13118655212E+03  0.13118655212E+03  0.00000000000E+00 0.  1.
         21   -1    0    0  501  502 -0.00000000000E+00 -0.00000000000E+00 -0.10280055952E+04  0.10280055952E+04  0.00000000000E+00 0.  1.
         25    1    1    2    0    0 -0.14454445032E+03 -0.29289437697E+02 -0.94118706774E+03  0.96083768961E+03  0.12500000000E+03 0.  0.
         25    1    1    2    0    0  0.14454445032E+03  0.29289437697E+02  0.44368024667E+02  0.19835445771E+03  0.12500000000E+03 0.  0.
</event>
<event>
 4    0  0.2236434E-002  0.2266951E+03  0.7546771E-02  0.1128988E+00
         21   -1    0    0  502  501  0.00000000000E+00  0.00000000000E+00  0.62503182385E+02  0.62503182385E+02  0.00000000000E+00 0. -1.
         21   -1    0    0  501  502 -0.00000000000E+00 -0.00000000000E+00 -0.82220847381E+03  0.82220847381E+03  0.00000000000E+00 0. -1.
         25    1    1    2    0    0  0.11476185607E+03  0.12876286906E+03 -0.22850869056E+03  0.31239619351E+03  0.12500000000E+03 0.  0.
         25    1    1    2    0    0 -0.11476185607E+03 -0.12876286906E+03 -0.53119660087E+03  0.57231546269E+03  0.12500000000E+03 0.  0.
</event>
<event>
 4    0  0.2236434E-002  0.2160176E+03  0.7546771E-02  0.1136887E+00
         21   -1    0    0  502  501  0.00000000000E+00  0.00000000000E+00  0.60494285099E+02  0.60494285099E+02  0.00000000000E+00 0.  1.
         21   -1    0    0  501  502 -0.00000000000E+00 -0.00000000000E+00 -0.77137195756E+03  0.77137195756E+03  0.00000000000E+00 0.  1.
         25    1    1    2    0    0 -0.69624817923E+02  0.15622259074E+03 -0.43679906185E+03  0.48546012562E+03  0.12500000000E+03 0.  0.
         25    1    1    2    0    0  0.69624817923E+02 -0.15622259074E+03 -0.27407861060E+03  0.34640611704E+03  0.12500000000E+03 0.  0.
</event>
<event>
 4    0  0.2236434E-002  0.2736044E+03  0.7546771E-02  0.1099234E+00
         21   -1    0    0  502  501  0.00000000000E+00  0.00000000000E+00  0.14084785141E+03  0.14084785141E+03  0.00000000000E+00 0.  1.
         21   -1    0    0  501  502 -0.00000000000E+00 -0.00000000000E+00 -0.53149106630E+03  0.53149106630E+03  0.00000000000E+00 0.  1.
         25    1    1    2    0    0  0.21430867751E+03  0.11524636033E+03 -0.18924721737E+03  0.33264010899E+03  0.12500000000E+03 0.  0.
         25    1    1    2    0    0 -0.21430867751E+03 -0.11524636033E+03 -0.20139599753E+03  0.33969880872E+03  0.12500000000E+03 0.  0.
</event>
<event>
 4    0  0.2236434E-002  0.1916065E+03  0.7546771E-02  0.1157020E+00
         21   -1    0    0  502  501  0.00000000000E+00  0.00000000000E+00  0.34810557701E+02  0.34810557701E+02  0.00000000000E+00 0.  1.
         21   -1    0    0  501  502 -0.00000000000E+00 -0.00000000000E+00 -0.10546522917E+04  0.10546522917E+04  0.00000000000E+00 0.  1.
         25    1    1    2    0    0  0.52944324696E+01  0.12637564207E+03 -0.71273446550E+03  0.73458440783E+03  0.12500000000E+03 0.  0.
         25    1    1    2    0    0 -0.52944324696E+01 -0.12637564207E+03 -0.30710726850E+03  0.35487844156E+03  0.12500000000E+03 0.  0.
</event>
<event>
 4    0  0.2236434E-002  0.1846735E+03  0.7546771E-02  0.1163355E+00
         21   -1    0    0  502  501  0.00000000000E+00  0.00000000000E+00  0.48781993086E+03  0.48781993086E+03  0.00000000000E+00 0.  1.
         21   -1    0    0  501  502 -0.00000000000E+00 -0.00000000000E+00 -0.69911655476E+02  0.69911655476E+02  0.00000000000E+00 0.  1.
         25    1    1    2    0    0  0.12565895313E+03 -0.49150481478E+02  0.23392051163E+03  0.29757309706E+03  0.12500000000E+03 0.  0.
         25    1    1    2    0    0 -0.12565895313E+03  0.49150481478E+02  0.18398776375E+03  0.26015848928E+03  0.12500000000E+03 0.  0.
</event>
<event>
 4    0  0.2236434E-002  0.2003394E+03  0.7546771E-02  0.1149453E+00
         21   -1    0    0  502  501  0.00000000000E+00  0.00000000000E+00  0.11734743573E+03  0.11734743573E+03  0.00000000000E+00 0. -1.
         21   -1    0    0  501  502 -0.00000000000E+00 -0.00000000000E+00 -0.34202591715E+03  0.34202591715E+03  0.00000000000E+00 0. -1.
         25    1    1    2    0    0 -0.55738582723E+02  0.77795884520E+02  0.29713693048E+02  0.16020890364E+03  0.12500000000E+03 0.  0.
         25    1    1    2    0    0  0.55738582723E+02 -0.77795884520E+02 -0.25439217448E+03  0.29916444924E+03  0.12500000000E+03 0.  0.
</event>
<event>
 4    0  0.2236434E-002  0.2246018E+03  0.7546771E-02  0.1130498E+00
         21   -1    0    0  502  501  0.00000000000E+00  0.00000000000E+00  0.62125749271E+03  0.62125749271E+03  0.00000000000E+00 0.  1.
         21   -1    0    0  501  502 -0.00000000000E+00 -0.00000000000E+00 -0.81199790438E+02  0.81199790438E+02  0.00000000000E+00 0.  1.
         25    1    1    2    0    0  0.15454775990E+03  0.10067042598E+03  0.22575876318E+03  0.31719325956E+03  0.12500000000E+03 0.  0.
         25    1    1    2    0    0 -0.15454775990E+03 -0.10067042598E+03  0.31429893909E+03  0.38526402359E+03  0.12500000000E+03 0.  0.
</event>
<event>
 4    0  0.2236434E-002  0.2090208E+03  0.7546771E-02  0.1142344E+00
         21   -1    0    0  502  501  0.00000000000E+00  0.00000000000E+00  0.37720436733E+03  0.37720436733E+03  0.00000000000E+00 0. -1.
         21   -1    0    0  501  502 -0.00000000000E+00 -0.00000000000E+00 -0.11582501599E+03  0.11582501599E+03  0.00000000000E+00 0. -1.
         25    1    1    2    0    0  0.12827236349E+03 -0.36234296749E+02  0.11007560909E+02  0.18306526130E+03  0.12500000000E+03 0.  0.
         25    1    1    2    0    0 -0.12827236349E+03  0.36234296749E+02  0.25037179043E+03  0.30996412202E+03  0.12500000000E+03 0.  0.
</event>
<event>
 4    0  0.2236434E-002  0.2819491E+03  0.7546771E-02  0.1094629E+00
         21   -1    0    0  502  501  0.00000000000E+00  0.00000000000E+00  0.56767332017E+03  0.56767332017E+03  0.00000000000E+00 0. -1.
         21   -1    0    0  501  502 -0.00000000000E+00 -0.00000000000E+00 -0.14003705493E+03  0.14003705493E+03  0.00000000000E+00 0. -1.
         25    1    1    2    0    0 -0.18917742368E+03 -0.51632428475E+02  0.41390148655E+03  0.47475619624E+03  0.12500000000E+03 0.  0.
         25    1    1    2    0    0  0.18917742368E+03  0.51632428475E+02  0.13734778688E+02  0.23295417885E+03  0.12500000000E+03 0.  0.
</event>
<event>
 4    0  0.2236434E-002  0.2154196E+03  0.7546771E-02  0.1137345E+00
         21   -1    0    0  502  501  0.00000000000E+00  0.00000000000E+00  0.41437470181E+03  0.41437470181E+03  0.00000000000E+00 0.  1.
         21   -1    0    0  501  502 -0.00000000000E+00 -0.00000000000E+00 -0.11198943870E+03  0.11198943870E+03  0.00000000000E+00 0.  1.
         25    1    1    2    0    0 -0.10193653551E+03  0.14225513168E+03  0.16630497351E+03  0.27186379673E+03  0.12500000000E+03 0.  0.
         25    1    1    2    0    0  0.10193653551E+03 -0.14225513168E+03  0.13608028961E+03  0.25450034377E+03  0.12500000000E+03 0.  0.
</event>
<event>
 4    0  0.2236434E-002  0.3336602E+03  0.7546771E-02  0.1069529E+00
         21   -1    0    0  502  501  0.00000000000E+00  0.00000000000E+00  0.19638752849E+03  0.19638752849E+03  0.00000000000E+00 0. -1.
         21   -1    0    0  501  502 -0.00000000000E+00 -0.00000000000E+00 -0.56688490130E+03  0.56688490130E+03  0.00000000000E+00 0. -1.
         25    1    1    2    0    0  0.11772585804E+03  0.23429976570E+03 -0.37301228836E+03  0.47277788138E+03  0.12500000000E+03 0.  0.
         25    1    1    2    0    0 -0.11772585804E+03 -0.23429976570E+03  0.25149155394E+01  0.29049454841E+03  0.12500000000E+03 0.  0.
</event>
<event>
 4    0  0.2236434E-002  0.2111783E+03  0.7546771E-02  0.1140636E+00
         21   -1    0    0  502  501  0.00000000000E+00  0.00000000000E+00  0.35870814680E+02  0.35870814680E+02  0.00000000000E+00 0.  1.
         21   -1    0    0  501  502 -0.00000000000E+00 -0.00000000000E+00 -0.12432465535E+04  0.12432465535E+04  0.00000000000E+00 0.  1.
         25    1    1    2    0    0  0.66675936254E+02  0.13664335568E+03 -0.37196752306E+03  0.42083479578E+03  0.12500000000E+03 0.  0.
         25    1    1    2    0    0 -0.66675936254E+02 -0.13664335568E+03 -0.83540821571E+03  0.85828257236E+03  0.12500000000E+03 0.  0.
</event>
<event>
 4    0  0.2236434E-002  0.2372664E+03  0.7546771E-02  0.1121627E+00
         21   -1    0    0  502  501  0.00000000000E+00  0.00000000000E+00  0.18138268291E+03  0.18138268291E+03  0.00000000000E+00 0. -1.
         21   -1    0    0  501  502 -0.00000000000E+00 -0.00000000000E+00 -0.31036791292E+03  0.31036791292E+03  0.00000000000E+00 0. -1.
         25    1    1    2    0    0 -0.18239596484E+03  0.42453343500E+02 -0.14203951929E+03  0.26621570090E+03  0.12500000000E+03 0.  0.
         25    1    1    2    0    0  0.18239596484E+03 -0.42453343500E+02  0.13054289276E+02  0.22553489494E+03  0.12500000000E+03 0.  0.
</event>
<event>
 4    0  0.2236434E-002  0.2562601E+03  0.7546771E-02  0.1109411E+00
         21   -1    0    0  502  501  0.00000000000E+00  0.00000000000E+00  0.49565525034E+02  0.49565525034E+02  0.00000000000E+00 0.  1.
         21   -1    0    0  501  502 -0.00000000000E+00 -0.00000000000E+00 -0.13248970287E+04  0.13248970287E+04  0.00000000000E+00 0.  1.
         25    1    1    2    0    0  0.14436572486E+03 -0.16104062937E+03 -0.48434267073E+03  0.54496639301E+03  0.12500000000E+03 0.  0.
         25    1    1    2    0    0 -0.14436572486E+03  0.16104062937E+03 -0.79098883299E+03  0.82949616077E+03  0.12500000000E+03 0.  0.
</event>
<event>
 4    0  0.2236434E-002  0.1808646E+03  0.7546771E-02  0.1166969E+00
         21   -1    0    0  502  501  0.00000000000E+00  0.00000000000E+00  0.65350103836E+02  0.65350103836E+02  0.00000000000E+00 0.  1.
         21   -1    0    0  501  502 -0.00000000000E+00 -0.00000000000E+00 -0.50056539113E+03  0.50056539113E+03  0.00000000000E+00 0.  1.
         25    1    1    2    0    0  0.38687858051E+02  0.14875642202E+02 -0.41155789753E+03  0.43211449653E+03  0.12500000000E+03 0.  0.
         25    1    1    2    0    0 -0.38687858051E+02 -0.14875642202E+02 -0.23657389760E+02  0.13380099843E+03  0.12500000000E+03 0.  0.
</event>
<event>
 4    0  0.2236434E-002  0.1895307E+03  0.7546771E-02  0.1158885E+00
         21   -1    0    0  502  501  0.00000000000E+00  0.00000000000E+00  0.31701054077E+03  0.31701054077E+03  0.00000000000E+00 0. -1.
         21   -1    0    0  501  502 -0.00000000000E+00 -0.00000000000E+00 -0.11331450937E+03  0.11331450937E+03  0.00000000000E+00 0. -1.
         25    1    1    2    0    0 -0.11797031629E+03  0.77997004315E+02  0.82304577171E+02  0.20591156265E+03  0.12500000000E+03 0.  0.
         25    1    1    2    0    0  0.11797031629E+03 -0.77997004315E+02  0.12139145423E+03  0.22441348749E+03  0.12500000000E+03 0.  0.
</event>
<event>
 4    0  0.2236434E-002  0.2835790E+03  0.7546771E-02  0.1093750E+00
         21   -1    0    0  502  501  0.00000000000E+00  0.00000000000E+00  0.26597009685E+03  0.26597009685E+03  0.00000000000E+00 0.  1.
         21   -1    0    0  501  502 -0.00000000000E+00 -0.00000000000E+00 -0.30235364766E+03  0.30235364766E+03  0.00000000000E+00 0.  1.
         25    1    1    2    0    0  0.23144628380E+03  0.82145868499E+02 -0.85237475926E+02  0.28845407485E+03  0.12500000000E+03 0.  0.
         25    1    1    2    0    0 -0.23144628380E+03 -0.82145868499E+02  0.48853925115E+02  0.27986966966E+03  0.12500000000E+03 0.  0.
</event>
<event>
 4    0  0.2236434E-002  0.4015863E+03  0.7546771E-02  0.1043232E+00
         21   -1    0    0  502  501  0.00000000000E+00  0.00000000000E+00  0.63939872222E+03  0.63939872222E+03  0.00000000000E+00 0.  1.
         21   -1    0    0  501  502 -0.00000000000E+00 -0.00000000000E+00 -0.25222381530E+03  0.25222381530E+03  0.00000000000E+00 0.  1.
         25    1    1    2    0    0  0.26224214494E+02 -0.37008062098E+03  0.94299706157E+02  0.40269692081E+03  0.12500000000E+03 0.  0.
         25    1    1    2    0    0 -0.26224214494E+02  0.37008062098E+03  0.29287520076E+03  0.48892561670E+03  0.12500000000E+03 0.  0.
</event>
<event>
 4    0  0.2236434E-002  0.2121838E+03  0.7546771E-02  0.1139848E+00
         21   -1    0    0  502  501  0.00000000000E+00  0.00000000000E+00  0.14519712480E+04  0.14519712480E+04  0.00000000000E+00 0.  1.
         21   -1    0    0  501  502 -0.00000000000E+00 -0.00000000000E+00 -0.31007467959E+02  0.31007467959E+02  0.00000000000E+00 0.  1.
         25    1    1    2    0    0  0.10777779744E+03 -0.13074785407E+03  0.61896058404E+03  0.65379527343E+03  0.12500000000E+03 0.  0.
         25    1    1    2    0    0 -0.10777779744E+03  0.13074785407E+03  0.80200319598E+03  0.82918344250E+03  0.12500000000E+03 0.  0.
</event>
<event>
 4    0  0.2236434E-002  0.3089786E+03  0.7546771E-02  0.1080837E+00
         21   -1    0    0  502  501  0.00000000000E+00  0.00000000000E+00  0.55435158241E+03  0.55435158241E+03  0.00000000000E+00 0. -1.
         21   -1    0    0  501  502 -0.00000000000E+00 -0.00000000000E+00 -0.17221515966E+03  0.17221515966E+03  0.00000000000E+00 0. -1.
         25    1    1    2    0    0  0.78775290193E+02  0.24818167396E+03  0.32009668158E+03  0.43114565427E+03  0.12500000000E+03 0.  0.
         25    1    1    2    0    0 -0.78775290193E+02 -0.24818167396E+03  0.62039741169E+02  0.29542108780E+03  0.12500000000E+03 0.  0.
</event>
<event>
 4    0  0.2236434E-002  0.1987326E+03  0.7546771E-02  0.1150813E+00
         21   -1    0    0  502  501  0.00000000000E+00  0.00000000000E+00  0.12238145236E+03  0.12238145236E+03  0.00000000000E+00 0. -1.
         21   -1    0    0  501  502 -0.00000000000E+00 -0.00000000000E+00 -0.32271752624E+03  0.32271752624E+03  0.00000000000E+00 0. -1.
         25    1    1    2    0    0  0.39539607715E+02 -0.11786266127E+03 -0.20289290832E+03  0.26878526699E+03  0.12500000000E+03 0.  0.
         25    1    1    2    0    0 -0.39539607715E+02  0.11786266127E+03  0.25568344396E+01  0.17631371161E+03  0.12500000000E+03 0.  0.
</event>
<event>
 4    0  0.2236434E-002  0.2313448E+03  0.7546771E-02  0.1125697E+00
         21   -1    0    0  502  501  0.00000000000E+00  0.00000000000E+00  0.50487264077E+03  0.50487264077E+03  0.00000000000E+00 0.  1.
         21   -1    0    0  501  502 -0.00000000000E+00 -0.00000000000E+00 -0.10600776320E+03  0.10600776320E+03  0.00000000000E+00 0.  1.
         25    1    1    2    0    0 -0.12455635503E+03  0.11057135131E+03  0.33248056462E+03  0.39231191055E+03  0.12500000000E+03 0.  0.
         25    1    1    2    0    0  0.12455635503E+03 -0.11057135131E+03  0.66384312961E+02  0.21856849342E+03  0.12500000000E+03 0.  0.
</event>
<event>
 4    0  0.2236434E-002  0.3585744E+03  0.7546771E-02  0.1059150E+00
         21   -1    0    0  502  501  0.00000000000E+00  0.00000000000E+00  0.16697842810E+03  0.16697842810E+03  0.00000000000E+00 0.  1.
         21   -1    0    0  501  502 -0.00000000000E+00 -0.00000000000E+00 -0.77001335057E+03  0.77001335057E+03  0.00000000000E+00 0.  1.
         25    1    1    2    0    0  0.71423500531E+02 -0.25779740854E+03 -0.56732857159E+03  0.63956823594E+03  0.12500000000E+03 0.  0.
         25    1    1    2    0    0 -0.71423500531E+02  0.25779740854E+03 -0.35706350880E+02  0.29742354273E+03  0.12500000000E+03 0.  0.
</event>
<event>
 4    0  0.2236434E-002  0.2339224E+03  0.7546771E-02  0.1123909E+00
         21   -1    0    0  502  501  0.00000000000E+00  0.00000000000E+00  0.16728008807E+03  0.16728008807E+03  0.00000000000E+00 0.  1.
         21   -1    0    0  501  502 -0.00000000000E+00 -0.00000000000E+00 -0.32711418017E+03  0.32711418017E+03  0.00000000000E+00 0.  1.
         25    1    1    2    0    0 -0.16131610213E+03 -0.32288356373E+02 -0.19581911481E+03  0.28466743489E+03  0.12500000000E+03 0.  0.
         25    1    1    2    0    0  0.16131610213E+03  0.32288356373E+02  0.35985022714E+02  0.20972683334E+03  0.12500000000E+03 0.  0.
</event>
<event>
 4    0  0.2236434E-002  0.2600568E+03  0.7546771E-02  0.1107109E+00
         21   -1    0    0  502  501  0.00000000000E+00  0.00000000000E+00  0.78171094351E+03  0.78171094351E+03  0.00000000000E+00 0. -1.
         21   -1    0    0  501  502 -0.00000000000E+00 -0.00000000000E+00 -0.86514757185E+02  0.86514757185E+02  0.00000000000E+00 0.  1.
         25    1    1    2    0    0  0.18446800196E+03 -0.12550707004E+03  0.42632226450E+03  0.49714800773E+03  0.12500000000E+03 0.  0.
         25    1    1    2    0    0 -0.18446800196E+03  0.12550707004E+03  0.26887392182E+03  0.37107769296E+03  0.12500000000E+03 0.  0.
</event>
<event>
 4    0  0.2236434E-002  0.1435540E+03  0.7546771E-02  0.1208625E+00
         21   -1    0    0  502  501  0.00000000000E+00  0.00000000000E+00  0.92764713725E+03  0.92764713725E+03  0.00000000000E+00 0. -1.
         21   -1    0    0  501  502 -0.00000000000E+00 -0.00000000000E+00 -0.22215080613E+02  0.22215080613E+02  0.00000000000E+00 0. -1.
         25    1    1    2    0    0  0.25708290656E+02 -0.26043462959E+02  0.65241659075E+03  0.66529060271E+03  0.12500000000E+03 0.  0.
         25    1    1    2    0    0 -0.25708290656E+02  0.26043462959E+02  0.25301546589E+03  0.28457161515E+03  0.12500000000E+03 0.  0.
</event>
<event>
 4    0  0.2236434E-002  0.1857818E+03  0.7546771E-02  0.1162322E+00
         21   -1    0    0  502  501  0.00000000000E+00  0.00000000000E+00  0.81603818974E+02  0.81603818974E+02  0.00000000000E+00 0.  1.
         21   -1    0    0  501  502 -0.00000000000E+00 -0.00000000000E+00 -0.42295673155E+03  0.42295673155E+03  0.00000000000E+00 0.  1.
         25    1    1    2    0    0  0.91393559726E+01  0.82292156894E+02 -0.21708952465E+02  0.15149853310E+03  0.12500000000E+03 0.  0.
         25    1    1    2    0    0 -0.91393559726E+01 -0.82292156894E+02 -0.31964396011E+03  0.35306201743E+03  0.12500000000E+03 0.  0.
</event>
<event>
 4    0  0.2236434E-002  0.3061465E+03  0.7546771E-02  0.1082208E+00
         21   -1    0    0  502  501  0.00000000000E+00  0.00000000000E+00  0.44371246530E+03  0.44371246530E+03  0.00000000000E+00 0.  1.
         21   -1    0    0  501  502 -0.00000000000E+00 -0.00000000000E+00 -0.21123064871E+03  0.21123064871E+03  0.00000000000E+00 0.  1.
         25    1    1    2    0    0  0.53406824514E+02  0.25098206102E+03 -0.21792274148E+01  0.28543656544E+03  0.12500000000E+03 0.  0.
         25    1    1    2    0    0 -0.53406824514E+02 -0.25098206102E+03  0.23466104401E+03  0.36950654857E+03  0.12500000000E+03 0.  0.
</event>
<event>
 4    0  0.2236434E-002  0.1602710E+03  0.7546771E-02  0.1188391E+00
         21   -1    0    0  502  501  0.00000000000E+00  0.00000000000E+00  0.46970075025E+03  0.46970075025E+03  0.00000000000E+00 0. -1.
         21   -1    0    0  501  502 -0.00000000000E+00 -0.00000000000E+00 -0.54687565121E+02  0.54687565121E+02  0.00000000000E+00 0. -1.
         25    1    1    2    0    0  0.11991034325E+02 -0.34636909486E+02  0.36025748078E+03  0.38308478547E+03  0.12500000000E+03 0.  0.
         25    1    1    2    0    0 -0.11991034325E+02  0.34636909486E+02  0.54755704350E+02  0.14130352990E+03  0.12500000000E+03 0.  0.
</event>
<event>
 4    0  0.2236434E-002  0.2239354E+03  0.7546771E-02  0.1130983E+00
         21   -1    0    0  502  501  0.00000000000E+00  0.00000000000E+00  0.15077521610E+04  0.15077521610E+04  0.00000000000E+00 0. -1.
         21   -1    0    0  501  502 -0.00000000000E+00 -0.00000000000E+00 -0.33259493040E+02  0.33259493040E+02  0.00000000000E+00 0. -1.
         25    1    1    2    0    0 -0.14734906595E+03 -0.70065638235E+02  0.43140387063E+03  0.47786529534E+03  0.12500000000E+03 0.  0.
         25    1    1    2    0    0  0.14734906595E+03  0.70065638235E+02  0.10430887973E+04  0.10631463587E+04  0.12500000000E+03 0.  0.
</event>
<event>
 4    0  0.2236434E-002  0.2855828E+03  0.7546771E-02  0.1092678E+00
         21   -1    0    0  502  501  0.00000000000E+00  0.00000000000E+00  0.59742506176E+02  0.59742506176E+02  0.00000000000E+00 0. -1.
         21   -1    0    0  501  502 -0.00000000000E+00 -0.00000000000E+00 -0.13651505426E+04  0.13651505426E+04  0.00000000000E+00 0. -1.
         25    1    1    2    0    0 -0.87353660914E+02 -0.23751638614E+03 -0.54431121383E+03  0.61314304470E+03  0.12500000000E+03 0.  0.
         25    1    1    2    0    0  0.87353660914E+02  0.23751638614E+03 -0.76109682262E+03  0.81175000411E+03  0.12500000000E+03 0.  0.
</event>
<event>
 4    0  0.2236434E-002  0.1861130E+03  0.7546771E-02  0.1162015E+00
         21   -1    0    0  502  501  0.00000000000E+00  0.00000000000E+00  0.12427592108E+04  0.12427592108E+04  0.00000000000E+00 0. -1.
         21   -1    0    0  501  502 -0.00000000000E+00 -0.00000000000E+00 -0.27871882368E+02  0.27871882368E+02  0.00000000000E+00 0. -1.
         25    1    1    2    0    0  0.41390327963E+02  0.13070503972E+03  0.55726582438E+03  0.58733905513E+03  0.12500000000E+03 0.  0.
         25    1    1    2    0    0 -0.41390327963E+02 -0.13070503972E+03  0.65762150404E+03  0.68329203803E+03  0.12500000000E+03 0.  0.
</event>
<event>
 4    0  0.2236434E-002  0.2284284E+03  0.7546771E-02  0.1127751E+00
         21   -1    0    0  502  501  0.00000000000E+00  0.00000000000E+00  0.35888468644E+02  0.35888468644E+02  0.00000000000E+00 0.  1.
         21   -1    0    0  501  502 -0.00000000000E+00 -0.00000000000E+00 -0.14539359425E+04  0.14539359425E+04  0.00000000000E+00 0.  1.
         25    1    1    2    0    0 -0.13423297644E+03 -0.12218975518E+02 -0.26683533464E+03  0.32402760861E+03  0.12500000000E+03 0.  0.
         25    1    1    2    0    0  0.13423297644E+03  0.12218975518E+02 -0.11512121392E+04  0.11657968025E+04  0.12500000000E+03 0.  0.
</event>
<event>
 4    0  0.2236434E-002  0.1982696E+03  0.7546771E-02  0.1151207E+00
         21   -1    0    0  502  501  0.00000000000E+00  0.00000000000E+00  0.60350007942E+02  0.60350007942E+02  0.00000000000E+00 0.  1.
         21   -1    0    0  501  502 -0.00000000000E+00 -0.00000000000E+00 -0.65138052809E+03  0.65138052809E+03  0.00000000000E+00 0.  1.
         25    1    1    2    0    0  0.13428368748E+03  0.73730016663E+02 -0.26903910178E+03  0.33387911341E+03  0.12500000000E+03 0.  0.
         25    1    1    2    0    0 -0.13428368748E+03 -0.73730016663E+02 -0.32199141837E+03  0.37785142263E+03  0.12500000000E+03 0.  0.
</event>
<event>
 4    0  0.2236434E-002  0.2028725E+03  0.7546771E-02  0.1147338E+00
         21   -1    0    0  502  501  0.00000000000E+00  0.00000000000E+00  0.29763830881E+03  0.29763830881E+03  0.00000000000E+00 0.  1.
         21   -1    0    0  501  502 -0.00000000000E+00 -0.00000000000E+00 -0.13827944858E+03  0.13827944858E+03  0.00000000000E+00 0.  1.
         25    1    1    2    0    0 -0.93331633438E+02  0.25241983140E+02  0.21635736921E+03  0.26792436008E+03  0.12500000000E+03 0.  0.
         25    1    1    2    0    0  0.93331633438E+02 -0.25241983140E+02 -0.56998508987E+02  0.16799339731E+03  0.12500000000E+03 0.  0.
</event>
<event>
 4    0  0.2236434E-002  0.2059363E+03  0.7546771E-02  0.1144825E+00
         21   -1    0    0  502  501  0.00000000000E+00  0.00000000000E+00  0.25730256377E+03  0.25730256377E+03  0.00000000000E+00 0. -1.
         21   -1    0    0  501  502 -0.00000000000E+00 -0.00000000000E+00 -0.16482449996E+03  0.16482449996E+03  0.00000000000E+00 0. -1.
         25    1    1    2    0    0  0.12088106677E+03  0.10935568646E+03  0.61227357136E+02  0.21434711971E+03  0.12500000000E+03 0.  0.
         25    1    1    2    0    0 -0.12088106677E+03 -0.10935568646E+03  0.31250706675E+02  0.20777994401E+03  0.12500000000E+03 0.  0.
</event>
<event>
 4    0  0.2236434E-002  0.2396581E+03  0.7546771E-02  0.1120021E+00
         21   -1    0    0  502  501  0.00000000000E+00  0.00000000000E+00  0.42414805740E+02  0.42414805740E+02  0.00000000000E+00 0.  1.
         21   -1    0    0  501  502 -0.00000000000E+00 -0.00000000000E+00 -0.13541494181E+04  0.13541494181E+04  0.00000000000E+00 0.  1.
         25    1    1    2    0    0 -0.13333433018E+03  0.15464299376E+03 -0.68758278541E+03  0.72807114070E+03  0.12500000000E+03 0.  0.
         25    1    1    2    0    0  0.13333433018E+03 -0.15464299376E+03 -0.62415182691E+03  0.66849308311E+03  0.12500000000E+03 0.  0.
</event>
<event>
 4    0  0.2236434E-002  0.1813087E+03  0.7546771E-02  0.1166542E+00
         21   -1    0    0  502  501  0.00000000000E+00  0.00000000000E+00  0.34422838697E+03  0.34422838697E+03  0.00000000000E+00 0. -1.
         21   -1    0    0  501  502 -0.00000000000E+00 -0.00000000000E+00 -0.95497242979E+02  0.95497242979E+02  0.00000000000E+00 0. -1.
         25    1    1    2    0    0  0.85732551313E+02 -0.26357543677E+02  0.80335107655E+01  0.15405949422E+03  0.12500000000E+03 0.  0.
         25    1    1    2    0    0 -0.85732551313E+02  0.26357543677E+02  0.24069763322E+03  0.28566613573E+03  0.12500000000E+03 0.  0.
</event>
<event>
 4    0  0.2236434E-002  0.3555442E+03  0.7546771E-02  0.1060362E+00
         21   -1    0    0  502  501  0.00000000000E+00  0.00000000000E+00  0.10264606024E+04  0.10264606024E+04  0.00000000000E+00 0. -1.
         21   -1    0    0  501  502 -0.00000000000E+00 -0.00000000000E+00 -0.12315300954E+03  0.12315300954E+03  0.00000000000E+00 0. -1.
         25    1    1    2    0    0  0.12532987672E+03  0.29195892655E+03  0.61201760566E+03  0.70081248735E+03  0.12500000000E+03 0.  0.
         25    1    1    2    0    0 -0.12532987672E+03 -0.29195892655E+03  0.29128998719E+03  0.44880112459E+03  0.12500000000E+03 0.  0.
</event>
<event>
 4    0  0.2236434E-002  0.2605359E+03  0.7546771E-02  0.1106822E+00
         21   -1    0    0  502  501  0.00000000000E+00  0.00000000000E+00  0.19693778745E+03  0.19693778745E+03  0.00000000000E+00 0. -1.
         21   -1    0    0  501  502 -0.00000000000E+00 -0.00000000000E+00 -0.34467194473E+03  0.34467194473E+03  0.00000000000E+00 0. -1.
         25    1    1    2    0    0  0.12938578963E+03 -0.23740817086E+02  0.12044965704E+03  0.21780135177E+03  0.12500000000E+03 0.  0.
         25    1    1    2    0    0 -0.12938578963E+03  0.23740817086E+02 -0.26818381433E+03  0.32380838040E+03  0.12500000000E+03 0.  0.
</event>
<event>
 4    0  0.2236434E-002  0.1649325E+03  0.7546771E-02  0.1183238E+00
         21   -1    0    0  502  501  0.00000000000E+00  0.00000000000E+00  0.56685886950E+02  0.56685886950E+02  0.00000000000E+00 0. -1.
         21   -1    0    0  501  502 -0.00000000000E+00 -0.00000000000E+00 -0.47988534107E+03  0.47988534107E+03  0.00000000000E+00 0. -1.
         25    1    1    2    0    0  0.97663141138E+02  0.42539436326E+02 -0.18692873393E+03  0.24882733843E+03  0.12500000000E+03 0.  0.
         25    1    1    2    0    0 -0.97663141138E+02 -0.42539436326E+02 -0.23627072020E+03  0.28774388960E+03  0.12500000000E+03 0.  0.
</event>
<event>
 4    0  0.2236434E-002  0.1778330E+03  0.7546771E-02  0.1169917E+00
         21   -1    0    0  502  501  0.00000000000E+00  0.00000000000E+00  0.74025115898E+02  0.74025115898E+02  0.00000000000E+00 0. -1.
         21   -1    0    0  501  502 -0.00000000000E+00 -0.00000000000E+00 -0.42721401964E+03  0.42721401964E+03  0.00000000000E+00 0. -1.
         25    1    1    2    0    0 -0.81392806275E+02 -0.54718988903E+02 -0.64021565133E+02  0.17129716128E+03  0.12500000000E+03 0.  0.
         25    1    1    2    0    0  0.81392806275E+02  0.54718988903E+02 -0.28916733861E+03  0.32994197426E+03  0.12500000000E+03 0.  0.
</event>
<event>
 4    0  0.2236434E-002  0.1535017E+03  0.7546771E-02  0.1196235E+00
         21   -1    0    0  502  501  0.00000000000E+00  0.00000000000E+00  0.43286616043E+03  0.43286616043E+03  0.00000000000E+00 0.  1.
         21   -1    0    0  501  502 -0.00000000000E+00 -0.00000000000E+00 -0.54434282793E+02  0.54434282793E+02  0.00000000000E+00 0.  1.
         25    1    1    2    0    0  0.65324406540E+02  0.47189521634E+02  0.12890700075E+03  0.19681499913E+03  0.12500000000E+03 0.  0.
         25    1    1    2    0    0 -0.65324406540E+02 -0.47189521634E+02  0.24952487689E+03  0.29048544409E+03  0.12500000000E+03 0.  0.
</event>
<event>
 4    0  0.2236434E-002  0.1863325E+03  0.7546771E-02  0.1161811E+00
         21   -1    0    0  502  501  0.00000000000E+00  0.00000000000E+00  0.36176512428E+03  0.36176512428E+03  0.00000000000E+00 0. -1.
         21   -1    0    0  501  502 -0.00000000000E+00 -0.00000000000E+00 -0.95973321578E+02  0.95973321578E+02  0.00000000000E+00 0. -1.
         25    1    1    2    0    0 -0.43409688562E+02 -0.96985298522E+02  0.24387238968E+02  0.16586225193E+03  0.12500000000E+03 0.  0.
         25    1    1    2    0    0  0.43409688562E+02  0.96985298522E+02  0.24140456373E+03  0.29187619393E+03  0.12500000000E+03 0.  0.
</event>
<event>
 4    0  0.2236434E-002  0.2935622E+03  0.7546771E-02  0.1088504E+00
         21   -1    0    0  502  501  0.00000000000E+00  0.00000000000E+00  0.19732399671E+03  0.19732399671E+03  0.00000000000E+00 0.  1.
         21   -1    0    0  501  502 -0.00000000000E+00 -0.00000000000E+00 -0.43673744557E+03  0.43673744557E+03  0.00000000000E+00 0.  1.
         25    1    1    2    0    0  0.11329933562E+03 -0.47981140160E+02 -0.37392938483E+03  0.41302192932E+03  0.12500000000E+03 0.  0.
         25    1    1    2    0    0 -0.11329933562E+03  0.47981140160E+02  0.13451593597E+03  0.22103951297E+03  0.12500000000E+03 0.  0.
</event>
<event>
 4    0  0.2236434E-002  0.2068631E+03  0.7546771E-02  0.1144074E+00
         21   -1    0    0  502  501  0.00000000000E+00  0.00000000000E+00  0.60717316330E+03  0.60717316330E+03  0.00000000000E+00 0. -1.
         21   -1    0    0  501  502 -0.00000000000E+00 -0.00000000000E+00 -0.70477955986E+02  0.70477955986E+02  0.00000000000E+00 0. -1.
         25    1    1    2    0    0 -0.14162584477E+02 -0.16180845705E+03  0.31423187585E+03  0.37516559993E+03  0.12500000000E+03 0.  0.
         25    1    1    2    0    0  0.14162584477E+02  0.16180845705E+03  0.22246333146E+03  0.30248551935E+03  0.12500000000E+03 0.  0.
</event>
<event>
 4    0  0.2236434E-002  0.3108654E+03  0.7546771E-02  0.1079932E+00
         21   -1    0    0  502  501  0.00000000000E+00  0.00000000000E+00  0.22061794565E+03  0.22061794565E+03  0.00000000000E+00 0. -1.
         21   -1    0    0  501  502 -0.00000000000E+00 -0.00000000000E+00 -0.43802996055E+03  0.43802996055E+03  0.00000000000E+00 0. -1.
         25    1    1    2    0    0 -0.14667464063E+03 -0.19929719296E+03  0.40284323503E+02  0.28014397735E+03  0.12500000000E+03 0.  0.
         25    1    1    2    0    0  0.14667464063E+03  0.19929719296E+03 -0.25769633841E+03  0.37850392885E+03  0.12500000000E+03 0.  0.
</event>
<event>
 4    0  0.2236434E-002  0.2014681E+03  0.7546771E-02  0.1148506E+00
         21   -1    0    0  502  501  0.00000000000E+00  0.00000000000E+00  0.55904550364E+02  0.55904550364E+02  0.00000000000E+00 0. -1.
         21   -1    0    0  501  502 -0.00000000000E+00 -0.00000000000E+00 -0.72604836135E+03  0.72604836135E+03  0.00000000000E+00 0. -1.
         25    1    1    2    0    0 -0.16371035276E+02 -0.15701314892E+03 -0.32230678477E+03  0.38003658144E+03  0.12500000000E+03 0.  0.
         25    1    1    2    0    0  0.16371035276E+02  0.15701314892E+03 -0.34783702622E+03  0.40191633027E+03  0.12500000000E+03 0.  0.
</event>
<event>
 4    0  0.2236434E-002  0.1794159E+03  0.7546771E-02  0.1168370E+00
         21   -1    0    0  502  501  0.00000000000E+00  0.00000000000E+00  0.40901116234E+02  0.40901116234E+02  0.00000000000E+00 0.  1.
         21   -1    0    0  501  502 -0.00000000000E+00 -0.00000000000E+00 -0.78702133474E+03  0.78702133474E+03  0.00000000000E+00 0.  1.
         25    1    1    2    0    0 -0.16763352497E+02 -0.82832123040E+02 -0.59703053349E+03  0.61580242652E+03  0.12500000000E+03 0.  0.
         25    1    1    2    0    0  0.16763352497E+02  0.82832123040E+02 -0.14908968502E+03  0.21212002445E+03  0.12500000000E+03 0.  0.
</event>
<event>
 4    0  0.2236434E-002  0.2422549E+03  0.7546771E-02  0.1118300E+00
         21   -1    0    0  502  501  0.00000000000E+00  0.00000000000E+00  0.11043122522E+03  0.11043122522E+03  0.00000000000E+00 0. -1.
         21   -1    0    0  501  502 -0.00000000000E+00 -0.00000000000E+00 -0.53143875359E+03  0.53143875359E+03  0.00000000000E+00 0. -1.
         25    1    1    2    0    0 -0.12027040355E+02 -0.79459295471E+02  0.42955870968E+02  0.15468883666E+03  0.12500000000E+03 0.  0.
         25    1    1    2    0    0  0.12027040355E+02  0.79459295471E+02 -0.46396339935E+03  0.48718114215E+03  0.12500000000E+03 0.  0.
</event>
<event>
 4    0  0.2236434E-002  0.1771101E+03  0.7546771E-02  0.1170630E+00
         21   -1    0    0  502  501  0.00000000000E+00  0.00000000000E+00  0.13501575309E+02  0.13501575309E+02  0.00000000000E+00 0. -1.
         21   -1    0    0  501  502 -0.00000000000E+00 -0.00000000000E+00 -0.23232826931E+04  0.23232826931E+04  0.00000000000E+00 0. -1.
         25    1    1    2    0    0  0.13834911497E+02 -0.57658154713E+02 -0.18843602639E+04  0.18894323147E+04  0.12500000000E+03 0.  0.
         25    1    1    2    0    0 -0.13834911497E+02  0.57658154713E+02 -0.42542085385E+03  0.44735195369E+03  0.12500000000E+03 0.  0.
</event>
<event>
 4    0  0.2236434E-002  0.2307467E+03  0.7546771E-02  0.1126115E+00
         21   -1    0    0  502  501  0.00000000000E+00  0.00000000000E+00  0.30382484409E+02  0.30382484409E+02  0.00000000000E+00 0. -1.
         21   -1    0    0  501  502 -0.00000000000E+00 -0.00000000000E+00 -0.17524582974E+04  0.17524582974E+04  0.00000000000E+00 0. -1.
         25    1    1    2    0    0 -0.11513223301E+03  0.10430072076E+03 -0.13096510523E+04  0.13247433526E+04  0.12500000000E+03 0.  0.
         25    1    1    2    0    0  0.11513223301E+03 -0.10430072076E+03 -0.41242476066E+03  0.45809742920E+03  0.12500000000E+03 0.  0.
</event>
<event>
 4    0  0.2236434E-002  0.2179328E+03  0.7546771E-02  0.1135434E+00
         21   -1    0    0  502  501  0.00000000000E+00  0.00000000000E+00  0.14506323109E+03  0.14506323109E+03  0.00000000000E+00 0. -1.
         21   -1    0    0  501  502 -0.00000000000E+00 -0.00000000000E+00 -0.32740705732E+03  0.32740705732E+03  0.00000000000E+00 0. -1.
         25    1    1    2    0    0  0.17523982044E+03  0.95209963904E-01 -0.12810247387E+03  0.25048801876E+03  0.12500000000E+03 0.  0.
         25    1    1    2    0    0 -0.17523982044E+03 -0.95209963904E-01 -0.54241352365E+02  0.22198226965E+03  0.12500000000E+03 0.  0.
</event>
<event>
 4    0  0.2236434E-002  0.1984345E+03  0.7546771E-02  0.1151067E+00
         21   -1    0    0  502  501  0.00000000000E+00  0.00000000000E+00  0.50674925882E+02  0.50674925882E+02  0.00000000000E+00 0. -1.
         21   -1    0    0  501  502 -0.00000000000E+00 -0.00000000000E+00 -0.77703620083E+03  0.77703620083E+03  0.00000000000E+00 0. -1.
         25    1    1    2    0    0  0.23010361824E+02 -0.12137504114E+03 -0.55534915784E+03  0.58249383214E+03  0.12500000000E+03 0.  0.
         25    1    1    2    0    0 -0.23010361824E+02  0.12137504114E+03 -0.17101211711E+03  0.24521729458E+03  0.12500000000E+03 0.  0.
</event>
<event>
 4    0  0.2236434E-002  0.1743168E+03  0.7546771E-02  0.1173419E+00
         21   -1    0    0  502  501  0.00000000000E+00  0.00000000000E+00  0.66016635966E+03  0.66016635966E+03  0.00000000000E+00 0.  1.
         21   -1    0    0  501  502 -0.00000000000E+00 -0.00000000000E+00 -0.46028298935E+02  0.46028298935E+02  0.00000000000E+00 0.  1.
         25    1    1    2    0    0 -0.51936703624E+02 -0.94457329249E+02  0.42060656252E+03  0.45183458109E+03  0.12500000000E+03 0.  0.
         25    1    1    2    0    0  0.51936703624E+02  0.94457329249E+02  0.19353149821E+03  0.25436007751E+03  0.12500000000E+03 0.  0.
</event>
<event>
 4    0  0.2236434E-002  0.2520256E+03  0.7546771E-02  0.1112031E+00
         21   -1    0    0  502  501  0.00000000000E+00  0.00000000000E+00  0.87958350786E+03  0.87958350786E+03  0.00000000000E+00 0. -1.
         21   -1    0    0  501  502 -0.00000000000E+00 -0.00000000000E+00 -0.72212500525E+02  0.72212500525E+02  0.00000000000E+00 0.  1.
         25    1    1    2    0    0  0.16832700138E+03 -0.11202625759E+03  0.56176230644E+03  0.60998832015E+03  0.12500000000E+03 0.  0.
         25    1    1    2    0    0 -0.16832700138E+03  0.11202625759E+03  0.24560870090E+03  0.34180768824E+03  0.12500000000E+03 0.  0.
</event>
<event>
 4    0  0.2236434E-002  0.1886534E+03  0.7546771E-02  0.1159682E+00
         21   -1    0    0  502  501  0.00000000000E+00  0.00000000000E+00  0.74066822985E+03  0.74066822985E+03  0.00000000000E+00 0.  1.
         21   -1    0    0  501  502 -0.00000000000E+00 -0.00000000000E+00 -0.48051333396E+02  0.48051333396E+02  0.00000000000E+00 0.  1.
         25    1    1    2    0    0  0.34876199065E+02 -0.12311839116E+03  0.47156835018E+03  0.50435721111E+03  0.12500000000E+03 0.  0.
         25    1    1    2    0    0 -0.34876199065E+02  0.12311839116E+03  0.22104854627E+03  0.28436235213E+03  0.12500000000E+03 0.  0.
</event>
<event>
 4    0  0.2236434E-002  0.2312475E+03  0.7546771E-02  0.1125765E+00
         21   -1    0    0  502  501  0.00000000000E+00  0.00000000000E+00  0.28504599442E+03  0.28504599442E+03  0.00000000000E+00 0.  1.
         21   -1    0    0  501  502 -0.00000000000E+00 -0.00000000000E+00 -0.18760274156E+03  0.18760274156E+03  0.00000000000E+00 0.  1.
         25    1    1    2    0    0 -0.18008100458E+03 -0.73077364915E+02  0.57915838712E+02  0.23821988550E+03  0.12500000000E+03 0.  0.
         25    1    1    2    0    0  0.18008100458E+03  0.73077364915E+02  0.39527414148E+02  0.23442885049E+03  0.12500000000E+03 0.  0.
</event>
<event>
 4    0  0.2236434E-002  0.2041976E+03  0.7546771E-02  0.1146245E+00
         21   -1    0    0  502  501  0.00000000000E+00  0.00000000000E+00  0.10120701589E+04  0.10120701589E+04  0.00000000000E+00 0. -1.
         21   -1    0    0  501  502 -0.00000000000E+00 -0.00000000000E+00 -0.41199361932E+02  0.41199361932E+02  0.00000000000E+00 0. -1.
         25    1    1    2    0    0 -0.65713183791E+01  0.40123973715E+02  0.82422711722E+02  0.15515031067E+03  0.12500000000E+03 0.  0.
         25    1    1    2    0    0  0.65713183791E+01 -0.40123973715E+02  0.88844808523E+03  0.89811921015E+03  0.12500000000E+03 0.  0.
</event>
<event>
 4    0  0.2236434E-002  0.2574040E+03  0.7546771E-02  0.1108713E+00
         21   -1    0    0  502  501  0.00000000000E+00  0.00000000000E+00  0.27319845083E+03  0.27319845083E+03  0.00000000000E+00 0.  1.
         21   -1    0    0  501  502 -0.00000000000E+00 -0.00000000000E+00 -0.24252265051E+03  0.24252265051E+03  0.00000000000E+00 0.  1.
         25    1    1    2    0    0  0.10821426034E+03  0.15056027042E+03 -0.11237583992E+03  0.25026396178E+03  0.12500000000E+03 0.  0.
         25    1    1    2    0    0 -0.10821426034E+03 -0.15056027042E+03  0.14305164024E+03  0.26545713956E+03  0.12500000000E+03 0.  0.
</event>
<event>
 4    0  0.2236434E-002  0.2411641E+03  0.7546771E-02  0.1119020E+00
         21   -1    0    0  502  501  0.00000000000E+00  0.00000000000E+00  0.53147184534E+03  0.53147184534E+03  0.00000000000E+00 0.  1.
         21   -1    0    0  501  502 -0.00000000000E+00 -0.00000000000E+00 -0.10943217301E+03  0.10943217301E+03  0.00000000000E+00 0.  1.
         25    1    1    2    0    0 -0.11256913550E+02 -0.15950105251E+03  0.37933287948E+02  0.20647333529E+03  0.12500000000E+03 0.  0.
         25    1    1    2    0    0  0.11256913550E+02  0.15950105251E+03  0.38410638439E+03  0.43443068306E+03  0.12500000000E+03 0.  0.
</event>
<event>
 4    0  0.2236434E-002  0.1577803E+03  0.7546771E-02  0.1191226E+00
         21   -1    0    0  502  501  0.00000000000E+00  0.00000000000E+00  0.89554797079E+02  0.89554797079E+02  0.00000000000E+00 0.  1.
         21   -1    0    0  501  502 -0.00000000000E+00 -0.00000000000E+00 -0.27798218410E+03  0.27798218410E+03  0.00000000000E+00 0.  1.
         25    1    1    2    0    0  0.23608643768E+02 -0.39385230471E+02  0.43477850389E+01  0.13323838664E+03  0.12500000000E+03 0.  0.
         25    1    1    2    0    0 -0.23608643768E+02  0.39385230471E+02 -0.19277517206E+03  0.23429859454E+03  0.12500000000E+03 0.  0.
</event>
<event>
 4    0  0.2236434E-002  0.1853852E+03  0.7546771E-02  0.1162691E+00
         21   -1    0    0  502  501  0.00000000000E+00  0.00000000000E+00  0.12344091927E+03  0.12344091927E+03  0.00000000000E+00 0.  1.
         21   -1    0    0  501  502 -0.00000000000E+00 -0.00000000000E+00 -0.27841408651E+03  0.27841408651E+03  0.00000000000E+00 0.  1.
         25    1    1    2    0    0 -0.46238627409E+02  0.10965009508E+03 -0.41248140136E+01  0.17263594094E+03  0.12500000000E+03 0.  0.
         25    1    1    2    0    0  0.46238627409E+02 -0.10965009508E+03 -0.15084835323E+03  0.22921906484E+03  0.12500000000E+03 0.  0.
</event>
<event>
 4    0  0.2236434E-002  0.2434926E+03  0.7546771E-02  0.1117488E+00
         21   -1    0    0  502  501  0.00000000000E+00  0.00000000000E+00  0.62645970893E+03  0.62645970893E+03  0.00000000000E+00 0. -1.
         21   -1    0    0  501  502 -0.00000000000E+00 -0.00000000000E+00 -0.94640824455E+02  0.94640824455E+02  0.00000000000E+00 0. -1.
         25    1    1    2    0    0 -0.61027635914E+02 -0.18628799098E+03  0.37305716316E+03  0.43957278682E+03  0.12500000000E+03 0.  0.
         25    1    1    2    0    0  0.61027635914E+02  0.18628799098E+03  0.15876172131E+03  0.28152774656E+03  0.12500000000E+03 0.  0.
</event>
<event>
 4    0  0.2236434E-002  0.1776003E+03  0.7546771E-02  0.1170146E+00
         21   -1    0    0  502  501  0.00000000000E+00  0.00000000000E+00  0.85152135411E+03  0.85152135411E+03  0.00000000000E+00 0. -1.
         21   -1    0    0  501  502 -0.00000000000E+00 -0.00000000000E+00 -0.37041795199E+02  0.37041795199E+02  0.00000000000E+00 0. -1.
         25    1    1    2    0    0 -0.32499677477E+02 -0.11966046109E+03  0.34899942287E+03  0.39089698406E+03  0.12500000000E+03 0.  0.
         25    1    1    2    0    0  0.32499677477E+02  0.11966046109E+03  0.46548013604E+03  0.49766616525E+03  0.12500000000E+03 0.  0.
</event>
<event>
 4    0  0.2236434E-002  0.1845361E+03  0.7546771E-02  0.1163484E+00
         21   -1    0    0  502  501  0.00000000000E+00  0.00000000000E+00  0.96260362886E+03  0.96260362886E+03  0.00000000000E+00 0.  1.
         21   -1    0    0  501  502 -0.00000000000E+00 -0.00000000000E+00 -0.35376515666E+02  0.35376515666E+02  0.00000000000E+00 0.  1.
         25    1    1    2    0    0  0.88080376446E+02 -0.92667464240E+02  0.34019769604E+03  0.38432393112E+03  0.12500000000E+03 0.  0.
         25    1    1    2    0    0 -0.88080376446E+02  0.92667464240E+02  0.58702941716E+03  0.61365621340E+03  0.12500000000E+03 0.  0.
</event>
<event>
 4    0  0.2236434E-002  0.1495080E+03  0.7546771E-02  0.1201079E+00
         21   -1    0    0  502  501  0.00000000000E+00  0.00000000000E+00  0.46473910081E+03  0.46473910081E+03  0.00000000000E+00 0.  1.
         21   -1    0    0  501  502 -0.00000000000E+00 -0.00000000000E+00 -0.48097181731E+02  0.48097181731E+02  0.00000000000E+00 0.  1.
         25    1    1    2    0    0  0.45758602795E+02 -0.67923993009E+02  0.21601447041E+03  0.26266855538E+03  0.12500000000E+03 0.  0.
         25    1    1    2    0    0 -0.45758602795E+02  0.67923993009E+02  0.20062744867E+03  0.25016772717E+03  0.12500000000E+03 0.  0.
</event>
<event>
 4    0  0.2236434E-002  0.3106047E+03  0.7546771E-02  0.1080056E+00
         21   -1    0    0  502  501  0.00000000000E+00  0.00000000000E+00  0.37875810855E+03  0.37875810855E+03  0.00000000000E+00 0. -1.
         21   -1    0    0  501  502 -0.00000000000E+00 -0.00000000000E+00 -0.25471468345E+03  0.25471468345E+03  0.00000000000E+00 0. -1.
         25    1    1    2    0    0 -0.16191009532E+03  0.23044403646E+03  0.22122337720E+02  0.30892350304E+03  0.12500000000E+03 0.  0.
         25    1    1    2    0    0  0.16191009532E+03 -0.23044403646E+03  0.10192108739E+03  0.32454928896E+03  0.12500000000E+03 0.  0.
</event>
<event>
 4    0  0.2236434E-002  0.2203106E+03  0.7546771E-02  0.1133652E+00
         21   -1    0    0  502  501  0.00000000000E+00  0.00000000000E+00  0.18795543838E+03  0.18795543838E+03  0.00000000000E+00 0.  1.
         21   -1    0    0  501  502 -0.00000000000E+00 -0.00000000000E+00 -0.25823540430E+03  0.25823540430E+03  0.00000000000E+00 0.  1.
         25    1    1    2    0    0 -0.15104573219E+03 -0.67067179361E+02 -0.11091181565E+03  0.23503031849E+03  0.12500000000E+03 0.  0.
         25    1    1    2    0    0  0.15104573219E+03  0.67067179361E+02  0.40631849730E+02  0.21116052418E+03  0.12500000000E+03 0.  0.
</event>
<event>
 4    0  0.2236434E-002  0.2617440E+03  0.7546771E-02  0.1106100E+00
         21   -1    0    0  502  501  0.00000000000E+00  0.00000000000E+00  0.35186863035E+03  0.35186863035E+03  0.00000000000E+00 0.  1.
         21   -1    0    0  501  502 -0.00000000000E+00 -0.00000000000E+00 -0.19470311013E+03  0.19470311013E+03  0.00000000000E+00 0.  1.
         25    1    1    2    0    0  0.20180262645E+03 -0.11014265593E+03  0.72939617410E+02  0.27166319678E+03  0.12500000000E+03 0.  0.
         25    1    1    2    0    0 -0.20180262645E+03  0.11014265593E+03  0.84225902806E+02  0.27490854370E+03  0.12500000000E+03 0.  0.
</event>
<event>
 4    0  0.2236434E-002  0.1987977E+03  0.7546771E-02  0.1150757E+00
         21   -1    0    0  502  501  0.00000000000E+00  0.00000000000E+00  0.12498632000E+04  0.12498632000E+04  0.00000000000E+00 0.  1.
         21   -1    0    0  501  502 -0.00000000000E+00 -0.00000000000E+00 -0.31619869709E+02  0.31619869709E+02  0.00000000000E+00 0.  1.
         25    1    1    2    0    0  0.13703353974E+03 -0.65787187238E+02  0.69967635548E+03  0.72682745369E+03  0.12500000000E+03 0.  0.
         25    1    1    2    0    0 -0.13703353974E+03  0.65787187238E+02  0.51856697483E+03  0.55465561604E+03  0.12500000000E+03 0.  0.
</event>
<event>
 4    0  0.2236434E-002  0.2172988E+03  0.7546771E-02  0.1135913E+00
         21   -1    0    0  502  501  0.00000000000E+00  0.00000000000E+00  0.13735630853E+04  0.13735630853E+04  0.00000000000E+00 0. -1.
         21   -1    0    0  501  502 -0.00000000000E+00 -0.00000000000E+00 -0.34376846382E+02  0.34376846382E+02  0.00000000000E+00 0. -1.
         25    1    1    2    0    0  0.11034051766E+03 -0.13926273715E+03  0.68567015491E+03  0.71926191414E+03  0.12500000000E+03 0.  0.
         25    1    1    2    0    0 -0.11034051766E+03  0.13926273715E+03  0.65351608403E+03  0.68867801757E+03  0.12500000000E+03 0.  0.
</event>
<event>
 4    0  0.2236434E-002  0.1754343E+03  0.7546771E-02  0.1172296E+00
         21   -1    0    0  502  501  0.00000000000E+00  0.00000000000E+00  0.13424718224E+03  0.13424718224E+03  0.00000000000E+00 0. -1.
         21   -1    0    0  501  502 -0.00000000000E+00 -0.00000000000E+00 -0.22925770271E+03  0.22925770271E+03  0.00000000000E+00 0. -1.
         25    1    1    2    0    0  0.13065016640E+02  0.67090928300E+02  0.58555034724E+02  0.15403109885E+03  0.12500000000E+03 0.  0.
         25    1    1    2    0    0 -0.13065016640E+02 -0.67090928300E+02 -0.15356555519E+03  0.20947378610E+03  0.12500000000E+03 0.  0.
</event>
<event>
 4    0  0.2236434E-002  0.2354069E+03  0.7546771E-02  0.1122891E+00
         21   -1    0    0  502  501  0.00000000000E+00  0.00000000000E+00  0.15428865996E+03  0.15428865996E+03  0.00000000000E+00 0.  1.
         21   -1    0    0  501  502 -0.00000000000E+00 -0.00000000000E+00 -0.35917360113E+03  0.35917360113E+03  0.00000000000E+00 0.  1.
         25    1    1    2    0    0 -0.86307315958E+02 -0.12920742085E+03  0.33980468276E+02  0.20229479137E+03  0.12500000000E+03 0.  0.
         25    1    1    2    0    0  0.86307315958E+02  0.12920742085E+03 -0.23886540945E+03  0.31116746973E+03  0.12500000000E+03 0.  0.
</event>
<event>
 4    0  0.2236434E-002  0.2113194E+03  0.7546771E-02  0.1140525E+00
         21   -1    0    0  502  501  0.00000000000E+00  0.00000000000E+00  0.27938354926E+02  0.27938354926E+02  0.00000000000E+00 0. -1.
         21   -1    0    0  501  502 -0.00000000000E+00 -0.00000000000E+00 -0.15983718580E+04  0.15983718580E+04  0.00000000000E+00 0.  1.
         25    1    1    2    0    0  0.88185084421E+02 -0.13511841996E+03 -0.99588447181E+03  0.10165847125E+04  0.12500000000E+03 0.  0.
         25    1    1    2    0    0 -0.88185084421E+02  0.13511841996E+03 -0.57454903126E+03  0.60972550041E+03  0.12500000000E+03 0.  0.
</event>
<event>
 4    0  0.2236434E-002  0.2693964E+03  0.7546771E-02  0.1101626E+00
         21   -1    0    0  502  501  0.00000000000E+00  0.00000000000E+00  0.10152562145E+03  0.10152562145E+03  0.00000000000E+00 0.  1.
         21   -1    0    0  501  502 -0.00000000000E+00 -0.00000000000E+00 -0.71483831036E+03  0.71483831036E+03  0.00000000000E+00 0.  1.
         25    1    1    2    0    0  0.14405609286E+02 -0.13126330613E+03 -0.54766915553E+01  0.18191363683E+03  0.12500000000E+03 0.  0.
         25    1    1    2    0    0 -0.14405609286E+02  0.13126330613E+03 -0.60783599735E+03  0.63445029498E+03  0.12500000000E+03 0.  0.
</event>
<event>
 4    0  0.2236434E-002  0.1730937E+03  0.7546771E-02  0.1174659E+00
         21   -1    0    0  502  501  0.00000000000E+00  0.00000000000E+00  0.11740693418E+02  0.11740693418E+02  0.00000000000E+00 0.  1.
         21   -1    0    0  501  502 -0.00000000000E+00 -0.00000000000E+00 -0.25519306859E+04  0.25519306859E+04  0.00000000000E+00 0.  1.
         25    1    1    2    0    0 -0.58199726890E+02 -0.53888765986E+02 -0.60586231442E+03  0.62368690170E+03  0.12500000000E+03 0.  0.
         25    1    1    2    0    0  0.58199726890E+02  0.53888765986E+02 -0.19343276781E+04  0.19399844776E+04  0.12500000000E+03 0.  0.
</event>
<event>
 4    0  0.2236434E-002  0.1763781E+03  0.7546771E-02  0.1171355E+00
         21   -1    0    0  502  501  0.00000000000E+00  0.00000000000E+00  0.12277942623E+04  0.12277942623E+04  0.00000000000E+00 0.  1.
         21   -1    0    0  501  502 -0.00000000000E+00 -0.00000000000E+00 -0.25337485066E+02  0.25337485066E+02  0.00000000000E+00 0.  1.
         25    1    1    2    0    0 -0.48052383638E+01  0.85204036356E+02  0.27951717515E+03  0.31786423097E+03  0.12500000000E+03 0.  0.
         25    1    1    2    0    0  0.48052383638E+01 -0.85204036356E+02  0.92293960204E+03  0.93526751635E+03  0.12500000000E+03 0.  0.
</event>
<event>
 4    0  0.2236434E-002  0.2057052E+03  0.7546771E-02  0.1145013E+00
         21   -1    0    0  502  501  0.00000000000E+00  0.00000000000E+00  0.26348186920E+02  0.26348186920E+02  0.00000000000E+00 0.  1.
         21   -1    0    0  501  502 -0.00000000000E+00 -0.00000000000E+00 -0.16059793070E+04  0.16059793070E+04  0.00000000000E+00 0.  1.
         25    1    1    2    0    0  0.21026349920E+02 -0.88451645169E+02 -0.25127048284E+03  0.29500450245E+03  0.12500000000E+03 0.  0.
         25    1    1    2    0    0 -0.21026349920E+02  0.88451645169E+02 -0.13283606373E+04  0.13373229915E+04  0.12500000000E+03 0.  0.
</event>
<event>
 4    0  0.2236434E-002  0.2517464E+03  0.7546771E-02  0.1112206E+00
         21   -1    0    0  502  501  0.00000000000E+00  0.00000000000E+00  0.40454835277E+02  0.40454835277E+02  0.00000000000E+00 0.  1.
         21   -1    0    0  501  502 -0.00000000000E+00 -0.00000000000E+00 -0.15665921942E+04  0.15665921942E+04  0.00000000000E+00 0.  1.
         25    1    1    2    0    0  0.83191870693E+02  0.19026000268E+03 -0.98028625918E+03  0.10098048851E+04  0.12500000000E+03 0.  0.
         25    1    1    2    0    0 -0.83191870693E+02 -0.19026000268E+03 -0.54585109976E+03  0.59724214443E+03  0.12500000000E+03 0.  0.
</event>
<event>
 4    0  0.2236434E-002  0.2260439E+03  0.7546771E-02  0.1129456E+00
         21   -1    0    0  502  501  0.00000000000E+00  0.00000000000E+00  0.17155466084E+03  0.17155466084E+03  0.00000000000E+00 0.  1.
         21   -1    0    0  501  502 -0.00000000000E+00 -0.00000000000E+00 -0.29783994163E+03  0.29783994163E+03  0.00000000000E+00 0.  1.
         25    1    1    2    0    0 -0.12752896769E+03 -0.66992246039E+02 -0.18910997337E+03  0.26858737993E+03  0.12500000000E+03 0.  0.
         25    1    1    2    0    0  0.12752896769E+03  0.66992246039E+02  0.62824692577E+02  0.20080722255E+03  0.12500000000E+03 0.  0.
</event>
<event>
 4    0  0.2236434E-002  0.2533032E+03  0.7546771E-02  0.1111235E+00
         21   -1    0    0  502  501  0.00000000000E+00  0.00000000000E+00  0.12079095776E+03  0.12079095776E+03  0.00000000000E+00 0. -1.
         21   -1    0    0  501  502 -0.00000000000E+00 -0.00000000000E+00 -0.53118643638E+03  0.53118643638E+03  0.00000000000E+00 0. -1.
         25    1    1    2    0    0  0.13335229813E+03 -0.14613564016E+03 -0.80429513904E+02  0.24745174771E+03  0.12500000000E+03 0.  0.
         25    1    1    2    0    0 -0.13335229813E+03  0.14613564016E+03 -0.32996596472E+03  0.40452564643E+03  0.12500000000E+03 0.  0.
</event>
<event>
 4    0  0.2236434E-002  0.2680462E+03  0.7546771E-02  0.1102403E+00
         21   -1    0    0  502  501  0.00000000000E+00  0.00000000000E+00  0.13688518217E+03  0.13688518217E+03  0.00000000000E+00 0. -1.
         21   -1    0    0  501  502 -0.00000000000E+00 -0.00000000000E+00 -0.52488360572E+03  0.52488360572E+03  0.00000000000E+00 0. -1.
         25    1    1    2    0    0 -0.85744981786E+02  0.17996483243E+03 -0.35248893015E+03  0.42380772608E+03  0.12500000000E+03 0.  0.
         25    1    1    2    0    0  0.85744981786E+02 -0.17996483243E+03 -0.35509493396E+02  0.23796106181E+03  0.12500000000E+03 0.  0.
</event>
<event>
 4    0  0.2236434E-002  0.4603797E+03  0.7546771E-02  0.1024671E+00
         21   -1    0    0  502  501  0.00000000000E+00  0.00000000000E+00  0.38980393432E+03  0.38980393432E+03  0.00000000000E+00 0.  1.
         21   -1    0    0  501  502 -0.00000000000E+00 -0.00000000000E+00 -0.54373342925E+03  0.54373342925E+03  0.00000000000E+00 0.  1.
         25    1    1    2    0    0  0.34987375970E+03 -0.37809144154E+02  0.19599864941E+03  0.42176018029E+03  0.12500000000E+03 0.  0.
         25    1    1    2    0    0 -0.34987375970E+03  0.37809144154E+02 -0.34992814435E+03  0.51177718327E+03  0.12500000000E+03 0.  0.
</event>
<event>
 4    0  0.2236434E-002  0.2430498E+03  0.7546771E-02  0.1117778E+00
         21   -1    0    0  502  501  0.00000000000E+00  0.00000000000E+00  0.47132074190E+02  0.47132074190E+02  0.00000000000E+00 0. -1.
         21   -1    0    0  501  502 -0.00000000000E+00 -0.00000000000E+00 -0.12533543913E+04  0.12533543913E+04  0.00000000000E+00 0. -1.
         25    1    1    2    0    0 -0.66552695982E+02 -0.18724979414E+03 -0.43483088470E+03  0.49416054581E+03  0.12500000000E+03 0.  0.
         25    1    1    2    0    0  0.66552695982E+02  0.18724979414E+03 -0.77139143243E+03  0.80632591969E+03  0.12500000000E+03 0.  0.
</event>
<event>
 4    0  0.2236434E-002  0.3057068E+03  0.7546771E-02  0.1082422E+00
         21   -1    0    0  502  501  0.00000000000E+00  0.00000000000E+00  0.14791728598E+03  0.14791728598E+03  0.00000000000E+00 0. -1.
         21   -1    0    0  501  502 -0.00000000000E+00 -0.00000000000E+00 -0.63181677763E+03  0.63181677763E+03  0.00000000000E+00 0. -1.
         25    1    1    2    0    0  0.22243285584E+03 -0.16289623633E+03 -0.18754274606E+03  0.35610228976E+03  0.12500000000E+03 0.  0.
         25    1    1    2    0    0 -0.22243285584E+03  0.16289623633E+03 -0.29635674558E+03  0.42363177386E+03  0.12500000000E+03 0.  0.
</event>
<event>
 4    0  0.2236434E-002  0.2078866E+03  0.7546771E-02  0.1143251E+00
         21   -1    0    0  502  501  0.00000000000E+00  0.00000000000E+00  0.41120800514E+03  0.41120800514E+03  0.00000000000E+00 0. -1.
         21   -1    0    0  501  502 -0.00000000000E+00 -0.00000000000E+00 -0.10509724239E+03  0.10509724239E+03  0.00000000000E+00 0. -1.
         25    1    1    2    0    0 -0.11620955318E+03 -0.11646299822E+03  0.18146882484E+03  0.27499859017E+03  0.12500000000E+03 0.  0.
         25    1    1    2    0    0  0.11620955318E+03  0.11646299822E+03  0.12464193790E+03  0.24130665736E+03  0.12500000000E+03 0.  0.
</event>
<event>
 4    0  0.2236434E-002  0.3483104E+03  0.7546771E-02  0.1063311E+00
         21   -1    0    0  502  501  0.00000000000E+00  0.00000000000E+00  0.40802067324E+03  0.40802067324E+03  0.00000000000E+00 0. -1.
         21   -1    0    0  501  502 -0.00000000000E+00 -0.00000000000E+00 -0.29733827170E+03  0.29733827170E+03  0.00000000000E+00 0. -1.
         25    1    1    2    0    0  0.17739304649E+02  0.23634449017E+03  0.28066742084E+03  0.38803685661E+03  0.12500000000E+03 0.  0.
         25    1    1    2    0    0 -0.17739304649E+02 -0.23634449017E+03 -0.16998501930E+03  0.31732208834E+03  0.12500000000E+03 0.  0.
</event>
<event>
 4    0  0.2236434E-002  0.3464617E+03  0.7546771E-02  0.1064077E+00
         21   -1    0    0  502  501  0.00000000000E+00  0.00000000000E+00  0.26234945421E+03  0.26234945421E+03  0.00000000000E+00 0.  1.
         21   -1    0    0  501  502 -0.00000000000E+00 -0.00000000000E+00 -0.45754137703E+03  0.45754137703E+03  0.00000000000E+00 0.  1.
         25    1    1    2    0    0  0.29976485038E+03 -0.98552584036E+02 -0.16986729395E+03  0.37954113729E+03  0.12500000000E+03 0.  0.
         25    1    1    2    0    0 -0.29976485038E+03  0.98552584036E+02 -0.25324628866E+02  0.34034969395E+03  0.12500000000E+03 0.  0.
</event>
<event>
 4    0  0.2236434E-002  0.1516187E+03  0.7546771E-02  0.1198498E+00
         21   -1    0    0  502  501  0.00000000000E+00  0.00000000000E+00  0.13503590356E+04  0.13503590356E+04  0.00000000000E+00 0. -1.
         21   -1    0    0  501  502 -0.00000000000E+00 -0.00000000000E+00 -0.17023792412E+02  0.17023792412E+02  0.00000000000E+00 0. -1.
         25    1    1    2    0    0  0.34831765130E+01  0.77077580537E+02  0.83599975324E+03  0.84880720624E+03  0.12500000000E+03 0.  0.
         25    1    1    2    0    0 -0.34831765130E+01 -0.77077580537E+02  0.49733548999E+03  0.51857562181E+03  0.12500000000E+03 0.  0.
</event>
<event>
 4    0  0.2236434E-002  0.1626050E+03  0.7546771E-02  0.1185787E+00
         21   -1    0    0  502  501  0.00000000000E+00  0.00000000000E+00  0.88014383483E+03  0.88014383483E+03  0.00000000000E+00 0.  1.
         21   -1    0    0  501  502 -0.00000000000E+00 -0.00000000000E+00 -0.30040970019E+02  0.30040970019E+02  0.00000000000E+00 0.  1.
         25    1    1    2    0    0 -0.10792375992E+02 -0.33844743022E+02  0.15149589874E+03  0.19959446221E+03  0.12500000000E+03 0.  0.
         25    1    1    2    0    0  0.10792375992E+02  0.33844743022E+02  0.69860696607E+03  0.71059034264E+03  0.12500000000E+03 0.  0.
</event>
<event>
 4    0  0.2236434E-002  0.1806531E+03  0.7546771E-02  0.1167172E+00
         21   -1    0    0  502  501  0.00000000000E+00  0.00000000000E+00  0.38219211980E+03  0.38219211980E+03  0.00000000000E+00 0.  1.
         21   -1    0    0  501  502 -0.00000000000E+00 -0.00000000000E+00 -0.85390404307E+02  0.85390404307E+02  0.00000000000E+00 0.  1.
         25    1    1    2    0    0  0.83040885019E+02  0.98103756691E+02  0.11974193476E+03  0.21559978340E+03  0.12500000000E+03 0.  0.
         25    1    1    2    0    0 -0.83040885019E+02 -0.98103756691E+02  0.17705978073E+03  0.25198274071E+03  0.12500000000E+03 0.  0.
</event>
<event>
 4    0  0.2236434E-002  0.2544134E+03  0.7546771E-02  0.1110547E+00
         21   -1    0    0  502  501  0.00000000000E+00  0.00000000000E+00  0.47507303221E+03  0.47507303221E+03  0.00000000000E+00 0.  1.
         21   -1    0    0  501  502 -0.00000000000E+00 -0.00000000000E+00 -0.13624467708E+03  0.13624467708E+03  0.00000000000E+00 0.  1.
         25    1    1    2    0    0 -0.88149615977E+02 -0.20329378466E+03  0.16753204317E+03  0.30461566468E+03  0.12500000000E+03 0.  0.
         25    1    1    2    0    0  0.88149615977E+02  0.20329378466E+03  0.17129631196E+03  0.30670204462E+03  0.12500000000E+03 0.  0.
</event>
<event>
 4    0  0.2236434E-002  0.1710715E+03  0.7546771E-02  0.1176735E+00
         21   -1    0    0  502  501  0.00000000000E+00  0.00000000000E+00  0.32400206029E+03  0.32400206029E+03  0.00000000000E+00 0.  1.
         21   -1    0    0  501  502 -0.00000000000E+00 -0.00000000000E+00 -0.90324901946E+02  0.90324901946E+02  0.00000000000E+00 0.  1.
         25    1    1    2    0    0  0.48153330186E+02 -0.96696563155E+02  0.63069525795E+02  0.17683815657E+03  0.12500000000E+03 0.  0.
         25    1    1    2    0    0 -0.48153330186E+02  0.96696563155E+02  0.17060763255E+03  0.23748880567E+03  0.12500000000E+03 0.  0.
</event>
<event>
 4    0  0.2236434E-002  0.3141211E+03  0.7546771E-02  0.1078387E+00
         21   -1    0    0  502  501  0.00000000000E+00  0.00000000000E+00  0.47478130661E+02  0.47478130661E+02  0.00000000000E+00 0.  1.
         21   -1    0    0  501  502 -0.00000000000E+00 -0.00000000000E+00 -0.20782639184E+04  0.20782639184E+04  0.00000000000E+00 0.  1.
         25    1    1    2    0    0  0.15209112405E+03 -0.73552998979E+02 -0.18053489058E+04  0.18175399377E+04  0.12500000000E+03 0.  0.
         25    1    1    2    0    0 -0.15209112405E+03  0.73552998979E+02 -0.22543688195E+03  0.30820211132E+03  0.12500000000E+03 0.  0.
</event>
<event>
 4    0  0.2236434E-002  0.2220819E+03  0.7546771E-02  0.1132340E+00
         21   -1    0    0  502  501  0.00000000000E+00  0.00000000000E+00  0.39107298913E+03  0.39107298913E+03  0.00000000000E+00 0. -1.
         21   -1    0    0  501  502 -0.00000000000E+00 -0.00000000000E+00 -0.12611549285E+03  0.12611549285E+03  0.00000000000E+00 0. -1.
         25    1    1    2    0    0 -0.65490792896E+02 -0.16946342229E+03  0.16303129235E+03  0.27424641790E+03  0.12500000000E+03 0.  0.
         25    1    1    2    0    0  0.65490792896E+02  0.16946342229E+03  0.10192620393E+03  0.24294206407E+03  0.12500000000E+03 0.  0.
</event>
<event>
 4    0  0.2236434E-002  0.1913971E+03  0.7546771E-02  0.1157207E+00
         21   -1    0    0  502  501  0.00000000000E+00  0.00000000000E+00  0.37487243165E+03  0.37487243165E+03  0.00000000000E+00 0. -1.
         21   -1    0    0  501  502 -0.00000000000E+00 -0.00000000000E+00 -0.97720843055E+02  0.97720843055E+02  0.00000000000E+00 0. -1.
         25    1    1    2    0    0  0.25542650311E+02  0.45437732925E+02  0.30554599114E+03  0.33421604878E+03  0.12500000000E+03 0.  0.
         25    1    1    2    0    0 -0.25542650311E+02 -0.45437732925E+02 -0.28394402548E+02  0.13837722592E+03  0.12500000000E+03 0.  0.
</event>
<event>
 4    0  0.2236434E-002  0.1604352E+03  0.7546771E-02  0.1188206E+00
         21   -1    0    0  502  501  0.00000000000E+00  0.00000000000E+00  0.78238245382E+03  0.78238245382E+03  0.00000000000E+00 0.  1.
         21   -1    0    0  501  502 -0.00000000000E+00 -0.00000000000E+00 -0.32898800673E+02  0.32898800673E+02  0.00000000000E+00 0. -1.
         25    1    1    2    0    0  0.50678595265E+02 -0.70632388877E+02  0.24625477077E+03  0.28952317093E+03  0.12500000000E+03 0.  0.
         25    1    1    2    0    0 -0.50678595265E+02  0.70632388877E+02  0.50322888237E+03  0.52575808356E+03  0.12500000000E+03 0.  0.
</event>
<event>
 4    0  0.2236434E-002  0.3541309E+03  0.7546771E-02  0.1060932E+00
         21   -1    0    0  502  501  0.00000000000E+00  0.00000000000E+00  0.54111263132E+03  0.54111263132E+03  0.00000000000E+00 0. -1.
         21   -1    0    0  501  502 -0.00000000000E+00 -0.00000000000E+00 -0.23176082088E+03  0.23176082088E+03  0.00000000000E+00 0. -1.
         25    1    1    2    0    0 -0.11165372382E+03 -0.31170919401E+03  0.16824102675E+03  0.39186632766E+03  0.12500000000E+03 0.  0.
         25    1    1    2    0    0  0.11165372382E+03  0.31170919401E+03  0.14111078369E+03  0.38100712453E+03  0.12500000000E+03 0.  0.
</event>
<event>
 4    0  0.2236434E-002  0.3115057E+03  0.7546771E-02  0.1079626E+00
         21   -1    0    0  502  501  0.00000000000E+00  0.00000000000E+00  0.51459501719E+03  0.51459501719E+03  0.00000000000E+00 0. -1.
         21   -1    0    0  501  502 -0.00000000000E+00 -0.00000000000E+00 -0.18856730855E+03  0.18856730855E+03  0.00000000000E+00 0. -1.
         25    1    1    2    0    0  0.15755645532E+03  0.19570328560E+03  0.31564060568E+03  0.42234796621E+03  0.12500000000E+03 0.  0.
         25    1    1    2    0    0 -0.15755645532E+03 -0.19570328560E+03  0.10387102948E+02  0.28081435953E+03  0.12500000000E+03 0.  0.
</event>
<event>
 4    0  0.2236434E-002  0.1779641E+03  0.7546771E-02  0.1169788E+00
         21   -1    0    0  502  501  0.00000000000E+00  0.00000000000E+00  0.40942130022E+03  0.40942130022E+03  0.00000000000E+00 0.  1.
         21   -1    0    0  501  502 -0.00000000000E+00 -0.00000000000E+00 -0.77356069342E+02  0.77356069342E+02  0.00000000000E+00 0.  1.
         25    1    1    2    0    0  0.99201432801E+01  0.44213086479E+02  0.42530594212E+01  0.13302742113E+03  0.12500000000E+03 0.  0.
         25    1    1    2    0    0 -0.99201432801E+01 -0.44213086479E+02  0.32781217145E+03  0.35374994843E+03  0.12500000000E+03 0.  0.
</event>
<event>
 4    0  0.2236434E-002  0.5470734E+03  0.7546771E-02  0.1002174E+00
         21   -1    0    0  502  501  0.00000000000E+00  0.00000000000E+00  0.10666846196E+03  0.10666846196E+03  0.00000000000E+00 0. -1.
         21   -1    0    0  501  502 -0.00000000000E+00 -0.00000000000E+00 -0.28057897021E+04  0.28057897021E+04  0.00000000000E+00 0.  1.
         25    1    1    2    0    0 -0.18113988988E+02  0.51029638319E+03 -0.94645233288E+03  0.10826483888E+04  0.12500000000E+03 0.  0.
         25    1    1    2    0    0  0.18113988988E+02 -0.51029638319E+03 -0.17526689073E+04  0.18298097753E+04  0.12500000000E+03 0.  0.
</event>
<event>
 4    0  0.2236434E-002  0.2187557E+03  0.7546771E-02  0.1134814E+00
         21   -1    0    0  502  501  0.00000000000E+00  0.00000000000E+00  0.24882009091E+03  0.24882009091E+03  0.00000000000E+00 0. -1.
         21   -1    0    0  501  502 -0.00000000000E+00 -0.00000000000E+00 -0.19232396780E+03  0.19232396780E+03  0.00000000000E+00 0. -1.
         25    1    1    2    0    0 -0.25661300022E+02  0.94163259592E+02 -0.12368095329E+03  0.20111489249E+03  0.12500000000E+03 0.  0.
         25    1    1    2    0    0  0.25661300022E+02 -0.94163259592E+02  0.18017707640E+03  0.24002916622E+03  0.12500000000E+03 0.  0.
</event>
<event>
 4    0  0.2236434E-002  0.2416510E+03  0.7546771E-02  0.1118698E+00
         21   -1    0    0  502  501  0.00000000000E+00  0.00000000000E+00  0.37094689210E+03  0.37094689210E+03  0.00000000000E+00 0. -1.
         21   -1    0    0  501  502 -0.00000000000E+00 -0.00000000000E+00 -0.15742205281E+03  0.15742205281E+03  0.00000000000E+00 0. -1.
         25    1    1    2    0    0  0.15907517440E+03  0.11108605948E+03  0.28496275634E+02  0.23255550186E+03  0.12500000000E+03 0.  0.
         25    1    1    2    0    0 -0.15907517440E+03 -0.11108605948E+03  0.18502856365E+03  0.29581344305E+03  0.12500000000E+03 0.  0.
</event>
<event>
 4    0  0.2236434E-002  0.1741191E+03  0.7546771E-02  0.1173619E+00
         21   -1    0    0  502  501  0.00000000000E+00  0.00000000000E+00  0.28846177598E+03  0.28846177598E+03  0.00000000000E+00 0. -1.
         21   -1    0    0  501  502 -0.00000000000E+00 -0.00000000000E+00 -0.10510048553E+03  0.10510048553E+03  0.00000000000E+00 0. -1.
         25    1    1    2    0    0 -0.43849166267E+02  0.49882424353E+02  0.20627533641E+03  0.25017098163E+03  0.12500000000E+03 0.  0.
         25    1    1    2    0    0  0.43849166267E+02 -0.49882424353E+02 -0.22914045952E+02  0.14339127987E+03  0.12500000000E+03 0.  0.
</event>
<event>
 4    0  0.2236434E-002  0.1855504E+03  0.7546771E-02  0.1162537E+00
         21   -1    0    0  502  501  0.00000000000E+00  0.00000000000E+00  0.56550643260E+02  0.56550643260E+02  0.00000000000E+00 0.  1.
         21   -1    0    0  501  502 -0.00000000000E+00 -0.00000000000E+00 -0.60881619705E+03  0.60881619705E+03  0.00000000000E+00 0.  1.
         25    1    1    2    0    0 -0.72928410564E+02 -0.84686321049E+02 -0.41859789951E+03  0.45093184354E+03  0.12500000000E+03 0.  0.
         25    1    1    2    0    0  0.72928410564E+02  0.84686321049E+02 -0.13366765428E+03  0.21443499677E+03  0.12500000000E+03 0.  0.
</event>
<event>
 4    0  0.2236434E-002  0.3131748E+03  0.7546771E-02  0.1078834E+00
         21   -1    0    0  502  501  0.00000000000E+00  0.00000000000E+00  0.16933473436E+03  0.16933473436E+03  0.00000000000E+00 0. -1.
         21   -1    0    0  501  502 -0.00000000000E+00 -0.00000000000E+00 -0.57919871392E+03  0.57919871392E+03  0.00000000000E+00 0. -1.
         25    1    1    2    0    0 -0.20101665873E+03 -0.11003728368E+02 -0.44962934803E+03  0.50825223043E+03  0.12500000000E+03 0.  0.
         25    1    1    2    0    0  0.20101665873E+03  0.11003728368E+02  0.39765368467E+02  0.24028121785E+03  0.12500000000E+03 0.  0.
</event>
<event>
 4    0  0.2236434E-002  0.1846128E+03  0.7546771E-02  0.1163412E+00
         21   -1    0    0  502  501  0.00000000000E+00  0.00000000000E+00  0.80244100426E+02  0.80244100426E+02  0.00000000000E+00 0. -1.
         21   -1    0    0  501  502 -0.00000000000E+00 -0.00000000000E+00 -0.42472772775E+03  0.42472772775E+03  0.00000000000E+00 0. -1.
         25    1    1    2    0    0  0.23176346898E+02 -0.89504180441E+02 -0.36102112285E+02  0.15961360808E+03  0.12500000000E+03 0.  0.
         25    1    1    2    0    0 -0.23176346898E+02  0.89504180441E+02 -0.30838151504E+03  0.34535822010E+03  0.12500000000E+03 0.  0.
</event>
<event>
 4    0  0.2236434E-002  0.3873346E+03  0.7546771E-02  0.1048256E+00
         21   -1    0    0  502  501  0.00000000000E+00  0.00000000000E+00  0.39361538721E+03  0.39361538721E+03  0.00000000000E+00 0. -1.
         21   -1    0    0  501  502 -0.00000000000E+00 -0.00000000000E+00 -0.38115398313E+03  0.38115398313E+03  0.00000000000E+00 0. -1.
         25    1    1    2    0    0 -0.61595603768E+02  0.55906009186E+02  0.36332531186E+03  0.39312820111E+03  0.12500000000E+03 0.  0.
         25    1    1    2    0    0  0.61595603768E+02 -0.55906009186E+02 -0.35086390779E+03  0.38164116923E+03  0.12500000000E+03 0.  0.
</event>
<event>
 4    0  0.2236434E-002  0.1650582E+03  0.7546771E-02  0.1183102E+00
         21   -1    0    0  502  501  0.00000000000E+00  0.00000000000E+00  0.82591088207E+03  0.82591088207E+03  0.00000000000E+00 0. -1.
         21   -1    0    0  501  502 -0.00000000000E+00 -0.00000000000E+00 -0.32986849454E+02  0.32986849454E+02  0.00000000000E+00 0. -1.
         25    1    1    2    0    0  0.89966836114E+02  0.44335636359E+01  0.24241615241E+03  0.28723558108E+03  0.12500000000E+03 0.  0.
         25    1    1    2    0    0 -0.89966836114E+02 -0.44335636359E+01  0.55050788020E+03  0.57166215044E+03  0.12500000000E+03 0.  0.
</event>
<event>
 4    0  0.2236434E-002  0.2186500E+03  0.7546771E-02  0.1134894E+00
         21   -1    0    0  502  501  0.00000000000E+00  0.00000000000E+00  0.34025805270E+02  0.34025805270E+02  0.00000000000E+00 0. -1.
         21   -1    0    0  501  502 -0.00000000000E+00 -0.00000000000E+00 -0.14050456536E+04  0.14050456536E+04  0.00000000000E+00 0. -1.
         25    1    1    2    0    0 -0.95477342788E+02 -0.75413149133E+01 -0.11846947725E+04  0.11951148473E+04  0.12500000000E+03 0.  0.
         25    1    1    2    0    0  0.95477342788E+02  0.75413149133E+01 -0.18632507588E+03  0.24395661155E+03  0.12500000000E+03 0.  0.
</event>
<event>
 4    0  0.2236434E-002  0.2696620E+03  0.7546771E-02  0.1101473E+00
         21   -1    0    0  502  501  0.00000000000E+00  0.00000000000E+00  0.18125085868E+03  0.18125085868E+03  0.00000000000E+00 0.  1.
         21   -1    0    0  501  502 -0.00000000000E+00 -0.00000000000E+00 -0.40119866822E+03  0.40119866822E+03  0.00000000000E+00 0.  1.
         25    1    1    2    0    0 -0.72087226224E+02  0.21240437522E+03 -0.19890153180E+03  0.32480610547E+03  0.12500000000E+03 0.  0.
         25    1    1    2    0    0  0.72087226224E+02 -0.21240437522E+03 -0.21046277739E+02  0.25764342143E+03  0.12500000000E+03 0.  0.
</event>
<event>
 4    0  0.2236434E-002  0.3558287E+03  0.7546771E-02  0.1060248E+00
         21   -1    0    0  502  501  0.00000000000E+00  0.00000000000E+00  0.27948566503E+03  0.27948566503E+03  0.00000000000E+00 0. -1.
         21   -1    0    0  501  502 -0.00000000000E+00 -0.00000000000E+00 -0.45302526416E+03  0.45302526416E+03  0.00000000000E+00 0. -1.
         25    1    1    2    0    0 -0.18975815778E+03 -0.16234213192E+03 -0.31374433850E+03  0.42002813737E+03  0.12500000000E+03 0.  0.
         25    1    1    2    0    0  0.18975815778E+03  0.16234213192E+03  0.14020473936E+03  0.31248279182E+03  0.12500000000E+03 0.  0.
</event>
<event>
 4    0  0.2236434E-002  0.1939898E+03  0.7546771E-02  0.1154911E+00
         21   -1    0    0  502  501  0.00000000000E+00  0.00000000000E+00  0.10762972548E+03  0.10762972548E+03  0.00000000000E+00 0. -1.
         21   -1    0    0  501  502 -0.00000000000E+00 -0.00000000000E+00 -0.34964342921E+03  0.34964342921E+03  0.00000000000E+00 0. -1.
         25    1    1    2    0    0 -0.25221650521E+02  0.11633131317E+03 -0.22535081499E+03  0.28386105033E+03  0.12500000000E+03 0.  0.
         25    1    1    2    0    0  0.25221650521E+02 -0.11633131317E+03 -0.16662888738E+02  0.17341210436E+03  0.12500000000E+03 0.  0.
</event>
<event>
 4    0  0.2236434E-002  0.1602709E+03  0.7546771E-02  0.1188391E+00
         21   -1    0    0  502  501  0.00000000000E+00  0.00000000000E+00  0.11749942670E+03  0.11749942670E+03  0.00000000000E+00 0. -1.
         21   -1    0    0  501  502 -0.00000000000E+00 -0.00000000000E+00 -0.21861191017E+03  0.21861191017E+03  0.00000000000E+00 0. -1.
         25    1    1    2    0    0  0.10026419115E+03  0.85854564685E+00 -0.47566617342E+02  0.16715629875E+03  0.12500000000E+03 0.  0.
         25    1    1    2    0    0 -0.10026419115E+03 -0.85854564685E+00 -0.53545866127E+02  0.16895503812E+03  0.12500000000E+03 0.  0.
</event>
<event>
 4    0  0.2236434E-002  0.1937157E+03  0.7546771E-02  0.1155152E+00
         21   -1    0    0  502  501  0.00000000000E+00  0.00000000000E+00  0.10190644415E+04  0.10190644415E+04  0.00000000000E+00 0. -1.
         21   -1    0    0  501  502 -0.00000000000E+00 -0.00000000000E+00 -0.36823748267E+02  0.36823748267E+02  0.00000000000E+00 0. -1.
         25    1    1    2    0    0  0.78420971294E+02  0.12120915927E+03  0.40242004307E+03  0.44543057831E+03  0.12500000000E+03 0.  0.
         25    1    1    2    0    0 -0.78420971294E+02 -0.12120915927E+03  0.57982065017E+03  0.61045761147E+03  0.12500000000E+03 0.  0.
</event>
<event>
 4    0  0.2236434E-002  0.1796055E+03  0.7546771E-02  0.1168185E+00
         21   -1    0    0  502  501  0.00000000000E+00  0.00000000000E+00  0.14197663588E+04  0.14197663588E+04  0.00000000000E+00 0. -1.
         21   -1    0    0  501  502 -0.00000000000E+00 -0.00000000000E+00 -0.22720743025E+02  0.22720743025E+02  0.00000000000E+00 0. -1.
         25    1    1    2    0    0  0.10001323617E+03 -0.34607390066E+02  0.40253405781E+03  0.43457909125E+03  0.12500000000E+03 0.  0.
         25    1    1    2    0    0 -0.10001323617E+03  0.34607390066E+02  0.99451155799E+03  0.10079080106E+04  0.12500000000E+03 0.  0.
</event>
<event>
 4    0  0.2236434E-002  0.3269238E+03  0.7546771E-02  0.1072506E+00
         21   -1    0    0  502  501  0.00000000000E+00  0.00000000000E+00  0.44631392456E+03  0.44631392456E+03  0.00000000000E+00 0. -1.
         21   -1    0    0  501  502 -0.00000000000E+00 -0.00000000000E+00 -0.23947080017E+03  0.23947080017E+03  0.00000000000E+00 0. -1.
         25    1    1    2    0    0  0.12042430642E+03 -0.27672620718E+03  0.89556746868E+02  0.33871052276E+03  0.12500000000E+03 0.  0.
         25    1    1    2    0    0 -0.12042430642E+03  0.27672620718E+03  0.11728637753E+03  0.34707420197E+03  0.12500000000E+03 0.  0.
</event>
<event>
 4    0  0.2236434E-002  0.2533264E+03  0.7546771E-02  0.1111220E+00
         21   -1    0    0  502  501  0.00000000000E+00  0.00000000000E+00  0.23426295192E+03  0.23426295192E+03  0.00000000000E+00 0.  1.
         21   -1    0    0  501  502 -0.00000000000E+00 -0.00000000000E+00 -0.27394122492E+03  0.27394122492E+03  0.00000000000E+00 0.  1.
         25    1    1    2    0    0 -0.19152092640E+03  0.71133359015E+02 -0.10260882338E+03  0.26056436949E+03  0.12500000000E+03 0.  0.
         25    1    1    2    0    0  0.19152092640E+03 -0.71133359015E+02  0.62930550376E+02  0.24763980735E+03  0.12500000000E+03 0.  0.
</event>
<event>
 4    0  0.2236434E-002  0.2273200E+03  0.7546771E-02  0.1128540E+00
         21   -1    0    0  502  501  0.00000000000E+00  0.00000000000E+00  0.16006707299E+03  0.16006707299E+03  0.00000000000E+00 0.  1.
         21   -1    0    0  501  502 -0.00000000000E+00 -0.00000000000E+00 -0.32282942282E+03  0.32282942282E+03  0.00000000000E+00 0.  1.
         25    1    1    2    0    0  0.55766070319E+02  0.13760279700E+03  0.44316629846E+02  0.19908125985E+03  0.12500000000E+03 0.  0.
         25    1    1    2    0    0 -0.55766070319E+02 -0.13760279700E+03 -0.20707897968E+03  0.28381523597E+03  0.12500000000E+03 0.  0.
</event>
<event>
 4    0  0.2236434E-002  0.2525252E+03  0.7546771E-02  0.1111719E+00
         21   -1    0    0  502  501  0.00000000000E+00  0.00000000000E+00  0.29487614986E+03  0.29487614986E+03  0.00000000000E+00 0. -1.
         21   -1    0    0  501  502 -0.00000000000E+00 -0.00000000000E+00 -0.21625680554E+03  0.21625680554E+03  0.00000000000E+00 0. -1.
         25    1    1    2    0    0 -0.14244491251E+03 -0.21482446392E+02  0.20680799147E+03  0.28133004450E+03  0.12500000000E+03 0.  0.
         25    1    1    2    0    0  0.14244491251E+03  0.21482446392E+02 -0.12818864714E+03  0.22980291090E+03  0.12500000000E+03 0.  0.
</event>
<event>
 4    0  0.2236434E-002  0.2099514E+03  0.7546771E-02  0.1141604E+00
         21   -1    0    0  502  501  0.00000000000E+00  0.00000000000E+00  0.11003438453E+03  0.11003438453E+03  0.00000000000E+00 0.  1.
         21   -1    0    0  501  502 -0.00000000000E+00 -0.00000000000E+00 -0.40059827220E+03  0.40059827220E+03  0.00000000000E+00 0.  1.
         25    1    1    2    0    0 -0.45274631714E+02 -0.10506872891E+03  0.54589665569E+01  0.16954064524E+03  0.12500000000E+03 0.  0.
         25    1    1    2    0    0  0.45274631714E+02  0.10506872891E+03 -0.29602285423E+03  0.34109201148E+03  0.12500000000E+03 0.  0.
</event>
<event>
 4    0  0.2236434E-002  0.1841430E+03  0.7546771E-02  0.1163853E+00
         21   -1    0    0  502  501  0.00000000000E+00  0.00000000000E+00  0.12145384836E+03  0.12145384836E+03  0.00000000000E+00 0.  1.
         21   -1    0    0  501  502 -0.00000000000E+00 -0.00000000000E+00 -0.27918941933E+03  0.27918941933E+03  0.00000000000E+00 0.  1.
         25    1    1    2    0    0 -0.11405825538E+03  0.63584437284E+02 -0.40693949265E+02  0.18529237381E+03  0.12500000000E+03 0.  0.
         25    1    1    2    0    0  0.11405825538E+03 -0.63584437284E+02 -0.11704162170E+03  0.21535089388E+03  0.12500000000E+03 0.  0.
</event>
<event>
 4    0  0.2236434E-002  0.2713343E+03  0.7546771E-02  0.1100518E+00
         21   -1    0    0  502  501  0.00000000000E+00  0.00000000000E+00  0.38806409691E+03  0.38806409691E+03  0.00000000000E+00 0.  1.
         21   -1    0    0  501  502 -0.00000000000E+00 -0.00000000000E+00 -0.18971686580E+03  0.18971686580E+03  0.00000000000E+00 0.  1.
         25    1    1    2    0    0  0.11335221762E+02 -0.23232756986E+03  0.32745037204E+02  0.26608612221E+03  0.12500000000E+03 0.  0.
         25    1    1    2    0    0 -0.11335221762E+02  0.23232756986E+03  0.16560219391E+03  0.31169484051E+03  0.12500000000E+03 0.  0.
</event>
<event>
 4    0  0.2236434E-002  0.2304883E+03  0.7546771E-02  0.1126297E+00
         21   -1    0    0  502  501  0.00000000000E+00  0.00000000000E+00  0.11109976099E+04  0.11109976099E+04  0.00000000000E+00 0. -1.
         21   -1    0    0  501  502 -0.00000000000E+00 -0.00000000000E+00 -0.47817236577E+02  0.47817236577E+02  0.00000000000E+00 0. -1.
         25    1    1    2    0    0  0.10303317920E+03 -0.15834832864E+03  0.42464744612E+03  0.48129043487E+03  0.12500000000E+03 0.  0.
         25    1    1    2    0    0 -0.10303317920E+03  0.15834832864E+03  0.63853292720E+03  0.67752441160E+03  0.12500000000E+03 0.  0.
</event>
<event>
 4    0  0.2236434E-002  0.1448386E+03  0.7546771E-02  0.1206963E+00
         21   -1    0    0  502  501  0.00000000000E+00  0.00000000000E+00  0.13398699300E+04  0.13398699300E+04  0.00000000000E+00 0.  1.
         21   -1    0    0  501  502 -0.00000000000E+00 -0.00000000000E+00 -0.15656917384E+02  0.15656917384E+02  0.00000000000E+00 0.  1.
         25    1    1    2    0    0  0.39306672949E+02  0.60096863741E+02  0.59649664500E+03  0.61366920655E+03  0.12500000000E+03 0.  0.
         25    1    1    2    0    0 -0.39306672949E+02 -0.60096863741E+02  0.72771636765E+03  0.74185764087E+03  0.12500000000E+03 0.  0.
</event>
<event>
 4    0  0.2236434E-002  0.2738507E+03  0.7546771E-02  0.1099096E+00
         21   -1    0    0  502  501  0.00000000000E+00  0.00000000000E+00  0.40156138759E+03  0.40156138759E+03  0.00000000000E+00 0. -1.
         21   -1    0    0  501  502 -0.00000000000E+00 -0.00000000000E+00 -0.18675647482E+03  0.18675647482E+03  0.00000000000E+00 0. -1.
         25    1    1    2    0    0 -0.19055972853E+03 -0.97841245087E+02  0.23213099797E+03  0.33969945480E+03  0.12500000000E+03 0.  0.
         25    1    1    2    0    0  0.19055972853E+03  0.97841245087E+02 -0.17326085197E+02  0.24861840761E+03  0.12500000000E+03 0.  0.
</event>
<event>
 4    0  0.2236434E-002  0.2569465E+03  0.7546771E-02  0.1108992E+00
         21   -1    0    0  502  501  0.00000000000E+00  0.00000000000E+00  0.44056061928E+03  0.44056061928E+03  0.00000000000E+00 0.  1.
         21   -1    0    0  501  502 -0.00000000000E+00 -0.00000000000E+00 -0.14985796960E+03  0.14985796960E+03  0.00000000000E+00 0.  1.
         25    1    1    2    0    0 -0.72020978247E+02 -0.88623589250E+02  0.36740794192E+03  0.40454265247E+03  0.12500000000E+03 0.  0.
         25    1    1    2    0    0  0.72020978247E+02  0.88623589250E+02 -0.76705292236E+02  0.18587593641E+03  0.12500000000E+03 0.  0.
</event>
<event>
 4    0  0.2236434E-002  0.2193249E+03  0.7546771E-02  0.1134387E+00
         21   -1    0    0  502  501  0.00000000000E+00  0.00000000000E+00  0.57097201572E+03  0.57097201572E+03  0.00000000000E+00 0. -1.
         21   -1    0    0  501  502 -0.00000000000E+00 -0.00000000000E+00 -0.84248303298E+02  0.84248303298E+02  0.00000000000E+00 0. -1.
         25    1    1    2    0    0  0.12172445604E+03 -0.10115936582E+03  0.37210257479E+03  0.42324388555E+03  0.12500000000E+03 0.  0.
         25    1    1    2    0    0 -0.12172445604E+03  0.10115936582E+03  0.11462113763E+03  0.23197643347E+03  0.12500000000E+03 0.  0.
</event>
<event>
 4    0  0.2236434E-002  0.1757630E+03  0.7546771E-02  0.1171968E+00
         21   -1    0    0  502  501  0.00000000000E+00  0.00000000000E+00  0.45824871101E+03  0.45824871101E+03  0.00000000000E+00 0. -1.
         21   -1    0    0  501  502 -0.00000000000E+00 -0.00000000000E+00 -0.67414570927E+02  0.67414570927E+02  0.00000000000E+00 0. -1.
         25    1    1    2    0    0 -0.15314339820E+02 -0.91342558162E+02  0.73109939875E+02  0.17189547767E+03  0.12500000000E+03 0.  0.
         25    1    1    2    0    0  0.15314339820E+02  0.91342558162E+02  0.31772420020E+03  0.35376780426E+03  0.12500000000E+03 0.  0.
</event>
<event>
 4    0  0.2236434E-002  0.1689123E+03  0.7546771E-02  0.1178987E+00
         21   -1    0    0  502  501  0.00000000000E+00  0.00000000000E+00  0.17372637764E+03  0.17372637764E+03  0.00000000000E+00 0.  1.
         21   -1    0    0  501  502 -0.00000000000E+00 -0.00000000000E+00 -0.16423160072E+03  0.16423160072E+03  0.00000000000E+00 0.  1.
         25    1    1    2    0    0 -0.51949809332E+02 -0.57445422484E+02 -0.78397414966E+02  0.16664307345E+03  0.12500000000E+03 0.  0.
         25    1    1    2    0    0  0.51949809332E+02  0.57445422484E+02  0.87892191883E+02  0.17131490492E+03  0.12500000000E+03 0.  0.
</event>
<event>
 4    0  0.2236434E-002  0.1803232E+03  0.7546771E-02  0.1167491E+00
         21   -1    0    0  502  501  0.00000000000E+00  0.00000000000E+00  0.37135410197E+02  0.37135410197E+02  0.00000000000E+00 0. -1.
         21   -1    0    0  501  502 -0.00000000000E+00 -0.00000000000E+00 -0.87561902062E+03  0.87561902062E+03  0.00000000000E+00 0. -1.
         25    1    1    2    0    0 -0.39866154601E+02  0.11266726029E+03 -0.28998696066E+03  0.33763983648E+03  0.12500000000E+03 0.  0.
         25    1    1    2    0    0  0.39866154601E+02 -0.11266726029E+03 -0.54849664976E+03  0.57511459434E+03  0.12500000000E+03 0.  0.
</event>
<event>
 4    0  0.2236434E-002  0.2348439E+03  0.7546771E-02  0.1123276E+00
         21   -1    0    0  502  501  0.00000000000E+00  0.00000000000E+00  0.17775812676E+03  0.17775812676E+03  0.00000000000E+00 0.  1.
         21   -1    0    0  501  502 -0.00000000000E+00 -0.00000000000E+00 -0.31026242165E+03  0.31026242165E+03  0.00000000000E+00 0.  1.
         25    1    1    2    0    0  0.88381850259E+02  0.17487765049E+03 -0.10122791685E+03  0.25350667692E+03  0.12500000000E+03 0.  0.
         25    1    1    2    0    0 -0.88381850259E+02 -0.17487765049E+03 -0.31276378039E+02  0.23451387148E+03  0.12500000000E+03 0.  0.
</event>
<event>
 4    0  0.2236434E-002  0.2305603E+03  0.7546771E-02  0.1126246E+00
         21   -1    0    0  502  501  0.00000000000E+00  0.00000000000E+00  0.80134444000E+02  0.80134444000E+02  0.00000000000E+00 0. -1.
         21   -1    0    0  501  502 -0.00000000000E+00 -0.00000000000E+00 -0.66336066542E+03  0.66336066542E+03  0.00000000000E+00 0. -1.
         25    1    1    2    0    0  0.45419923741E+02 -0.11467990218E+03 -0.50735179546E+02  0.18279362100E+03  0.12500000000E+03 0.  0.
         25    1    1    2    0    0 -0.45419923741E+02  0.11467990218E+03 -0.53249104187E+03  0.56070148841E+03  0.12500000000E+03 0.  0.
</event>
<event>
 4    0  0.2236434E-002  0.2655690E+03  0.7546771E-02  0.1103843E+00
         21   -1    0    0  502  501  0.00000000000E+00  0.00000000000E+00  0.79647598961E+03  0.79647598961E+03  0.00000000000E+00 0.  1.
         21   -1    0    0  501  502 -0.00000000000E+00 -0.00000000000E+00 -0.88548664958E+02  0.88548664958E+02  0.00000000000E+00 0.  1.
         25    1    1    2    0    0 -0.19925871713E+02 -0.22447649577E+03  0.24707275786E+03  0.35701076341E+03  0.12500000000E+03 0.  0.
         25    1    1    2    0    0  0.19925871713E+02  0.22447649577E+03  0.46085456680E+03  0.52801389116E+03  0.12500000000E+03 0.  0.
</event>
<event>
 4    0  0.2236434E-002  0.2477906E+03  0.7546771E-02  0.1114709E+00
         21   -1    0    0  502  501  0.00000000000E+00  0.00000000000E+00  0.12194110662E+03  0.12194110662E+03  0.00000000000E+00 0.  1.
         21   -1    0    0  501  502 -0.00000000000E+00 -0.00000000000E+00 -0.50352317305E+03  0.50352317305E+03  0.00000000000E+00 0.  1.
         25    1    1    2    0    0 -0.19405691878E+03 -0.42895321764E+02 -0.29078330434E+03  0.37373523575E+03  0.12500000000E+03 0.  0.
         25    1    1    2    0    0  0.19405691878E+03  0.42895321764E+02 -0.90798762085E+02  0.25172904392E+03  0.12500000000E+03 0.  0.
</event>
<event>
 4    0  0.2236434E-002  0.2517636E+03  0.7546771E-02  0.1112195E+00
         21   -1    0    0  502  501  0.00000000000E+00  0.00000000000E+00  0.35454586456E+03  0.35454586456E+03  0.00000000000E+00 0. -1.
         21   -1    0    0  501  502 -0.00000000000E+00 -0.00000000000E+00 -0.17877776949E+03  0.17877776949E+03  0.00000000000E+00 0. -1.
         25    1    1    2    0    0  0.61244446725E+02 -0.19341528541E+03  0.18390778532E+01  0.23830387553E+03  0.12500000000E+03 0.  0.
         25    1    1    2    0    0 -0.61244446725E+02  0.19341528541E+03  0.17392901722E+03  0.29501975852E+03  0.12500000000E+03 0.  0.
</event>
<event>
 4    0  0.2236434E-002  0.1812683E+03  0.7546771E-02  0.1166581E+00
         21   -1    0    0  502  501  0.00000000000E+00  0.00000000000E+00  0.24462687348E+04  0.24462687348E+04  0.00000000000E+00 0. -1.
         21   -1    0    0  501  502 -0.00000000000E+00 -0.00000000000E+00 -0.13431963105E+02  0.13431963105E+02  0.00000000000E+00 0. -1.
         25    1    1    2    0    0  0.25782496509E+02 -0.10679455472E+03  0.72889284395E+03  0.74764937772E+03  0.12500000000E+03 0.  0.
         25    1    1    2    0    0 -0.25782496509E+02  0.10679455472E+03  0.17039439277E+04  0.17120513201E+04  0.12500000000E+03 0.  0.
</event>
<event>
 4    0  0.2236434E-002  0.1976521E+03  0.7546771E-02  0.1151735E+00
         21   -1    0    0  502  501  0.00000000000E+00  0.00000000000E+00  0.25926892983E+03  0.25926892983E+03  0.00000000000E+00 0. -1.
         21   -1    0    0  501  502 -0.00000000000E+00 -0.00000000000E+00 -0.15067891425E+03  0.15067891425E+03  0.00000000000E+00 0. -1.
         25    1    1    2    0    0  0.46649841645E+02 -0.13511797278E+03  0.11117463399E+03  0.22004061793E+03  0.12500000000E+03 0.  0.
         25    1    1    2    0    0 -0.46649841645E+02  0.13511797278E+03 -0.25846184153E+01  0.18990722615E+03  0.12500000000E+03 0.  0.
</event>
<event>
 4    0  0.2236434E-002  0.1932657E+03  0.7546771E-02  0.1155548E+00
         21   -1    0    0  502  501  0.00000000000E+00  0.00000000000E+00  0.22269573080E+03  0.22269573080E+03  0.00000000000E+00 0. -1.
         21   -1    0    0  501  502 -0.00000000000E+00 -0.00000000000E+00 -0.16772488617E+03  0.16772488617E+03  0.00000000000E+00 0. -1.
         25    1    1    2    0    0  0.12539635808E+03  0.85963907780E+01 -0.50285888499E+02  0.18426018326E+03  0.12500000000E+03 0.  0.
         25    1    1    2    0    0 -0.12539635808E+03 -0.85963907780E+01  0.10525673313E+03  0.20616043370E+03  0.12500000000E+03 0.  0.
</event>
<event>
 4    0  0.2236434E-002  0.2742414E+03  0.7546771E-02  0.1098876E+00
         21   -1    0    0  502  501  0.00000000000E+00  0.00000000000E+00  0.12027808872E+03  0.12027808872E+03  0.00000000000E+00 0. -1.
         21   -1    0    0  501  502 -0.00000000000E+00 -0.00000000000E+00 -0.62528735936E+03  0.62528735936E+03  0.00000000000E+00 0. -1.
         25    1    1    2    0    0 -0.84297405278E+02  0.19459353749E+02 -0.56277187832E+03  0.58294245515E+03  0.12500000000E+03 0.  0.
         25    1    1    2    0    0  0.84297405278E+02 -0.19459353749E+02  0.57762607678E+02  0.16262299293E+03  0.12500000000E+03 0.  0.
</event>
<event>
 4    0  0.2236434E-002  0.2293789E+03  0.7546771E-02  0.1127078E+00
         21   -1    0    0  502  501  0.00000000000E+00  0.00000000000E+00  0.30998833543E+03  0.30998833543E+03  0.00000000000E+00 0.  1.
         21   -1    0    0  501  502 -0.00000000000E+00 -0.00000000000E+00 -0.16973118513E+03  0.16973118513E+03  0.00000000000E+00 0.  1.
         25    1    1    2    0    0 -0.28050648803E+02  0.94115108454E+02  0.24304824987E+03  0.29041684576E+03  0.12500000000E+03 0.  0.
         25    1    1    2    0    0  0.28050648803E+02 -0.94115108454E+02 -0.10279109956E+03  0.18930267480E+03  0.12500000000E+03 0.  0.
</event>
<event>
 4    0  0.2236434E-002  0.2011903E+03  0.7546771E-02  0.1148739E+00
         21   -1    0    0  502  501  0.00000000000E+00  0.00000000000E+00  0.18978941620E+02  0.18978941620E+02  0.00000000000E+00 0. -1.
         21   -1    0    0  501  502 -0.00000000000E+00 -0.00000000000E+00 -0.21327614881E+04  0.21327614881E+04  0.00000000000E+00 0. -1.
         25    1    1    2    0    0  0.15245023000E+03  0.40140850582E+02 -0.10592542634E+04  0.10781915206E+04  0.12500000000E+03 0.  0.
         25    1    1    2    0    0 -0.15245023000E+03 -0.40140850582E+02 -0.10545282831E+04  0.10735489092E+04  0.12500000000E+03 0.  0.
</event>
<event>
 4    0  0.2236434E-002  0.1897963E+03  0.7546771E-02  0.1158645E+00
         21   -1    0    0  502  501  0.00000000000E+00  0.00000000000E+00  0.14105388210E+03  0.14105388210E+03  0.00000000000E+00 0. -1.
         21   -1    0    0  501  502 -0.00000000000E+00 -0.00000000000E+00 -0.25538195853E+03  0.25538195853E+03  0.00000000000E+00 0. -1.
         25    1    1    2    0    0  0.77105347710E+02  0.41671058228E+02 -0.17493247843E+03  0.23218114426E+03  0.12500000000E+03 0.  0.
         25    1    1    2    0    0 -0.77105347710E+02 -0.41671058228E+02  0.60604401994E+02  0.16425469637E+03  0.12500000000E+03 0.  0.
</event>
<event>
 4    0  0.2236434E-002  0.1730214E+03  0.7546771E-02  0.1174733E+00
         21   -1    0    0  502  501  0.00000000000E+00  0.00000000000E+00  0.13190027827E+02  0.13190027827E+02  0.00000000000E+00 0. -1.
         21   -1    0    0  501  502 -0.00000000000E+00 -0.00000000000E+00 -0.22696251126E+04  0.22696251126E+04  0.00000000000E+00 0. -1.
         25    1    1    2    0    0 -0.47285534877E+02 -0.10985488862E+03 -0.11102719614E+04  0.11236693672E+04  0.12500000000E+03 0.  0.
         25    1    1    2    0    0  0.47285534877E+02  0.10985488862E+03 -0.11461631233E+04  0.11591457732E+04  0.12500000000E+03 0.  0.
</event>
<event>
 4    0  0.2236434E-002  0.2532666E+03  0.7546771E-02  0.1111258E+00
         21   -1    0    0  502  501  0.00000000000E+00  0.00000000000E+00  0.92416905026E+02  0.92416905026E+02  0.00000000000E+00 0.  1.
         21   -1    0    0  501  502 -0.00000000000E+00 -0.00000000000E+00 -0.69407166036E+03  0.69407166036E+03  0.00000000000E+00 0.  1.
         25    1    1    2    0    0  0.15558404895E+03  0.14831276866E+03 -0.37554837818E+03  0.45040499330E+03  0.12500000000E+03 0.  0.
         25    1    1    2    0    0 -0.15558404895E+03 -0.14831276866E+03 -0.22610637716E+03  0.33608357209E+03  0.12500000000E+03 0.  0.
</event>
<event>
 4    0  0.2236434E-002  0.2194034E+03  0.7546771E-02  0.1134329E+00
         21   -1    0    0  502  501  0.00000000000E+00  0.00000000000E+00  0.55394037850E+02  0.55394037850E+02  0.00000000000E+00 0.  1.
         21   -1    0    0  501  502 -0.00000000000E+00 -0.00000000000E+00 -0.86900815402E+03  0.86900815402E+03  0.00000000000E+00 0.  1.
         25    1    1    2    0    0 -0.12866000808E+03  0.12112087146E+03 -0.48244660645E+03  0.52877536938E+03  0.12500000000E+03 0.  0.
         25    1    1    2    0    0  0.12866000808E+03 -0.12112087146E+03 -0.33116750972E+03  0.39562682249E+03  0.12500000000E+03 0.  0.
</event>
<event>
 4    0  0.2236434E-002  0.3010416E+03  0.7546771E-02  0.1084721E+00
         21   -1    0    0  502  501  0.00000000000E+00  0.00000000000E+00  0.53929066347E+03  0.53929066347E+03  0.00000000000E+00 0. -1.
         21   -1    0    0  501  502 -0.00000000000E+00 -0.00000000000E+00 -0.16804674942E+03  0.16804674942E+03  0.00000000000E+00 0. -1.
         25    1    1    2    0    0  0.18762686552E+03  0.81971846501E+01 -0.48547071384E+02  0.23076579608E+03  0.12500000000E+03 0.  0.
         25    1    1    2    0    0 -0.18762686552E+03 -0.81971846501E+01  0.41979098543E+03  0.47657161681E+03  0.12500000000E+03 0.  0.
</event>
<event>
 4    0  0.2236434E-002  0.2007555E+03  0.7546771E-02  0.1149103E+00
         21   -1    0    0  502  501  0.00000000000E+00  0.00000000000E+00  0.86794248930E+03  0.86794248930E+03  0.00000000000E+00 0.  1.
         21   -1    0    0  501  502 -0.00000000000E+00 -0.00000000000E+00 -0.46434848664E+02  0.46434848664E+02  0.00000000000E+00 0.  1.
         25    1    1    2    0    0  0.16665181436E+02  0.90970741746E+02  0.69993458246E+03  0.71699848246E+03  0.12500000000E+03 0.  0.
         25    1    1    2    0    0 -0.16665181436E+02 -0.90970741746E+02  0.12157305817E+03  0.19737885550E+03  0.12500000000E+03 0.  0.
</event>
<event>
 4    0  0.2236434E-002  0.2587569E+03  0.7546771E-02  0.1107892E+00
         21   -1    0    0  502  501  0.00000000000E+00  0.00000000000E+00  0.28932761512E+03  0.28932761512E+03  0.00000000000E+00 0. -1.
         21   -1    0    0  501  502 -0.00000000000E+00 -0.00000000000E+00 -0.23141626507E+03  0.23141626507E+03  0.00000000000E+00 0. -1.
         25    1    1    2    0    0  0.64251028299E+01  0.16303161245E+03  0.18712946313E+03  0.27796227185E+03  0.12500000000E+03 0.  0.
         25    1    1    2    0    0 -0.64251028299E+01 -0.16303161245E+03 -0.12921811307E+03  0.24278160834E+03  0.12500000000E+03 0.  0.
</event>
<event>
 4    0  0.2236434E-002  0.2043034E+03  0.7546771E-02  0.1146158E+00
         21   -1    0    0  502  501  0.00000000000E+00  0.00000000000E+00  0.11360704800E+03  0.11360704800E+03  0.00000000000E+00 0. -1.
         21   -1    0    0  501  502 -0.00000000000E+00 -0.00000000000E+00 -0.36740588884E+03  0.36740588884E+03  0.00000000000E+00 0. -1.
         25    1    1    2    0    0 -0.13202783998E+03 -0.18373922228E+02 -0.23444408659E+03  0.29725070443E+03  0.12500000000E+03 0.  0.
         25    1    1    2    0    0  0.13202783998E+03  0.18373922228E+02 -0.19354754254E+02  0.18376223241E+03  0.12500000000E+03 0.  0.
</event>
<event>
 4    0  0.2236434E-002  0.1871670E+03  0.7546771E-02  0.1161042E+00
         21   -1    0    0  502  501  0.00000000000E+00  0.00000000000E+00  0.61384463765E+03  0.61384463765E+03  0.00000000000E+00 0.  1.
         21   -1    0    0  501  502 -0.00000000000E+00 -0.00000000000E+00 -0.57068989357E+02  0.57068989357E+02  0.00000000000E+00 0.  1.
         25    1    1    2    0    0 -0.18707743348E+02 -0.53116892707E+01  0.31154344510E+02  0.13028348662E+03  0.12500000000E+03 0.  0.
         25    1    1    2    0    0  0.18707743348E+02  0.53116892707E+01  0.52562130379E+03  0.54063014039E+03  0.12500000000E+03 0.  0.
</event>
<event>
 4    0  0.2236434E-002  0.2774184E+03  0.7546771E-02  0.1097107E+00
         21   -1    0    0  502  501  0.00000000000E+00  0.00000000000E+00  0.27346064632E+03  0.27346064632E+03  0.00000000000E+00 0. -1.
         21   -1    0    0  501  502 -0.00000000000E+00 -0.00000000000E+00 -0.28143340728E+03  0.28143340728E+03  0.00000000000E+00 0. -1.
         25    1    1    2    0    0 -0.10614322343E+03  0.20903137098E+03 -0.83841123294E+02  0.27859438596E+03  0.12500000000E+03 0.  0.
         25    1    1    2    0    0  0.10614322343E+03 -0.20903137098E+03  0.75868362336E+02  0.27629966764E+03  0.12500000000E+03 0.  0.
</event>
<event>
 4    0  0.2236434E-002  0.2140958E+03  0.7546771E-02  0.1138363E+00
         21   -1    0    0  502  501  0.00000000000E+00  0.00000000000E+00  0.29356449246E+03  0.29356449246E+03  0.00000000000E+00 0.  1.
         21   -1    0    0  501  502 -0.00000000000E+00 -0.00000000000E+00 -0.15613949274E+03  0.15613949274E+03  0.00000000000E+00 0.  1.
         25    1    1    2    0    0  0.45772386827E+01  0.79657775716E+02 -0.93466127764E+02  0.17529184061E+03  0.12500000000E+03 0.  0.
         25    1    1    2    0    0 -0.45772386827E+01 -0.79657775716E+02  0.23089112749E+03  0.27441214459E+03  0.12500000000E+03 0.  0.
</event>
<event>
 4    0  0.2236434E-002  0.1449549E+03  0.7546771E-02  0.1206813E+00
         21   -1    0    0  502  501  0.00000000000E+00  0.00000000000E+00  0.90754468453E+02  0.90754468453E+02  0.00000000000E+00 0. -1.
         21   -1    0    0  501  502 -0.00000000000E+00 -0.00000000000E+00 -0.23152478264E+03  0.23152478264E+03  0.00000000000E+00 0. -1.
         25    1    1    2    0    0  0.51544976730E+02  0.49132395335E+01 -0.12559019029E+02  0.13588139500E+03  0.12500000000E+03 0.  0.
         25    1    1    2    0    0 -0.51544976730E+02 -0.49132395335E+01 -0.12821129516E+03  0.18639785609E+03  0.12500000000E+03 0.  0.
</event>
<event>
 4    0  0.2236434E-002  0.1470437E+03  0.7546771E-02  0.1204153E+00
         21   -1    0    0  502  501  0.00000000000E+00  0.00000000000E+00  0.25528651788E+03  0.25528651788E+03  0.00000000000E+00 0. -1.
         21   -1    0    0  501  502 -0.00000000000E+00 -0.00000000000E+00 -0.84696385062E+02  0.84696385062E+02  0.00000000000E+00 0. -1.
         25    1    1    2    0    0 -0.31154028648E+02 -0.69855999546E+02  0.99283453012E+02  0.17701027715E+03  0.12500000000E+03 0.  0.
         25    1    1    2    0    0  0.31154028648E+02  0.69855999546E+02  0.71306679806E+02  0.16297262580E+03  0.12500000000E+03 0.  0.
</event>
<event>
 4    0  0.2236434E-002  0.2540206E+03  0.7546771E-02  0.1110790E+00
         21   -1    0    0  502  501  0.00000000000E+00  0.00000000000E+00  0.24587499740E+03  0.24587499740E+03  0.00000000000E+00 0.  1.
         21   -1    0    0  501  502 -0.00000000000E+00 -0.00000000000E+00 -0.26243613795E+03  0.26243613795E+03  0.00000000000E+00 0.  1.
         25    1    1    2    0    0 -0.20161413123E+03  0.78664127399E+02  0.37187840884E+02  0.25267417430E+03  0.12500000000E+03 0.  0.
         25    1    1    2    0    0  0.20161413123E+03 -0.78664127399E+02 -0.53748981435E+02  0.25563696105E+03  0.12500000000E+03 0.  0.
</event>
<event>
 4    0  0.2236434E-002  0.2906878E+03  0.7546771E-02  0.1089991E+00
         21   -1    0    0  502  501  0.00000000000E+00  0.00000000000E+00  0.14462883950E+03  0.14462883950E+03  0.00000000000E+00 0. -1.
         21   -1    0    0  501  502 -0.00000000000E+00 -0.00000000000E+00 -0.58425012000E+03  0.58425012000E+03  0.00000000000E+00 0. -1.
         25    1    1    2    0    0  0.10286666214E+03  0.19296583976E+03 -0.37883563950E+02  0.25471067883E+03  0.12500000000E+03 0.  0.
         25    1    1    2    0    0 -0.10286666214E+03 -0.19296583976E+03 -0.40173771655E+03  0.47416828067E+03  0.12500000000E+03 0.  0.
</event>
<event>
 4    0  0.2236434E-002  0.2447710E+03  0.7546771E-02  0.1116655E+00
         21   -1    0    0  502  501  0.00000000000E+00  0.00000000000E+00  0.82439753442E+03  0.82439753442E+03  0.00000000000E+00 0.  1.
         21   -1    0    0  501  502 -0.00000000000E+00 -0.00000000000E+00 -0.72674682825E+02  0.72674682825E+02  0.00000000000E+00 0.  1.
         25    1    1    2    0    0 -0.14593887625E+03 -0.13071645525E+03  0.23507215831E+03  0.33055841675E+03  0.12500000000E+03 0.  0.
         25    1    1    2    0    0  0.14593887625E+03  0.13071645525E+03  0.51665069328E+03  0.56651380049E+03  0.12500000000E+03 0.  0.
</event>
<event>
 4    0  0.2236434E-002  0.2139397E+03  0.7546771E-02  0.1138484E+00
         21   -1    0    0  502  501  0.00000000000E+00  0.00000000000E+00  0.17428131804E+03  0.17428131804E+03  0.00000000000E+00 0.  1.
         21   -1    0    0  501  502 -0.00000000000E+00 -0.00000000000E+00 -0.26262241572E+03  0.26262241572E+03  0.00000000000E+00 0.  1.
         25    1    1    2    0    0  0.13887248196E+03 -0.55404978945E+02 -0.13429247530E+03  0.23667434770E+03  0.12500000000E+03 0.  0.
         25    1    1    2    0    0 -0.13887248196E+03  0.55404978945E+02  0.45951377620E+02  0.20022938606E+03  0.12500000000E+03 0.  0.
</event>
<event>
 4    0  0.2236434E-002  0.2686997E+03  0.7546771E-02  0.1102026E+00
         21   -1    0    0  502  501  0.00000000000E+00  0.00000000000E+00  0.18035814046E+04  0.18035814046E+04  0.00000000000E+00 0. -1.
         21   -1    0    0  501  502 -0.00000000000E+00 -0.00000000000E+00 -0.40031204760E+02  0.40031204760E+02  0.00000000000E+00 0. -1.
         25    1    1    2    0    0 -0.11252807659E+03  0.18496945197E+03  0.54392845374E+03  0.59863129635E+03  0.12500000000E+03 0.  0.
         25    1    1    2    0    0  0.11252807659E+03 -0.18496945197E+03  0.12196217461E+04  0.12449813130E+04  0.12500000000E+03 0.  0.
</event>
<event>
 4    0  0.2236434E-002  0.3295793E+03  0.7546771E-02  0.1071323E+00
         21   -1    0    0  502  501  0.00000000000E+00  0.00000000000E+00  0.64933825141E+03  0.64933825141E+03  0.00000000000E+00 0.  1.
         21   -1    0    0  501  502 -0.00000000000E+00 -0.00000000000E+00 -0.16728186496E+03  0.16728186496E+03  0.00000000000E+00 0.  1.
         25    1    1    2    0    0  0.81330111791E+02  0.27093124090E+03  0.38216943607E+03  0.49162668993E+03  0.12500000000E+03 0.  0.
         25    1    1    2    0    0 -0.81330111791E+02 -0.27093124090E+03  0.99886950381E+02  0.32499342645E+03  0.12500000000E+03 0.  0.
</event>
<event>
 4    0  0.2236434E-002  0.2931748E+03  0.7546771E-02  0.1088703E+00
         21   -1    0    0  502  501  0.00000000000E+00  0.00000000000E+00  0.13813092371E+03  0.13813092371E+03  0.00000000000E+00 0.  1.
         21   -1    0    0  501  502 -0.00000000000E+00 -0.00000000000E+00 -0.62224624782E+03  0.62224624782E+03  0.00000000000E+00 0.  1.
         25    1    1    2    0    0  0.38776792307E+02  0.33856101337E+02  0.95300836166E+02  0.16539989297E+03  0.12500000000E+03 0.  0.
         25    1    1    2    0    0 -0.38776792307E+02 -0.33856101337E+02 -0.57941616028E+03  0.59497727857E+03  0.12500000000E+03 0.  0.
</event>
<event>
 4    0  0.2236434E-002  0.2943938E+03  0.7546771E-02  0.1088077E+00
         21   -1    0    0  502  501  0.00000000000E+00  0.00000000000E+00  0.81949938926E+03  0.81949938926E+03  0.00000000000E+00 0.  1.
         21   -1    0    0  501  502 -0.00000000000E+00 -0.00000000000E+00 -0.10575692450E+03  0.10575692450E+03  0.00000000000E+00 0.  1.
         25    1    1    2    0    0 -0.21577414229E+03  0.13282778535E+03  0.48684754513E+03  0.56289184862E+03  0.12500000000E+03 0.  0.
         25    1    1    2    0    0  0.21577414229E+03 -0.13282778535E+03  0.22689491963E+03  0.36236446514E+03  0.12500000000E+03 0.  0.
</event>
<event>
 4    0  0.2236434E-002  0.2247795E+03  0.7546771E-02  0.1130369E+00
         21   -1    0    0  502  501  0.00000000000E+00  0.00000000000E+00  0.15066333281E+03  0.15066333281E+03  0.00000000000E+00 0. -1.
         21   -1    0    0  501  502 -0.00000000000E+00 -0.00000000000E+00 -0.33535571821E+03  0.33535571821E+03  0.00000000000E+00 0. -1.
         25    1    1    2    0    0 -0.19138005017E+02 -0.10538127169E+03 -0.25782661899E+03  0.30589383963E+03  0.12500000000E+03 0.  0.
         25    1    1    2    0    0  0.19138005017E+02  0.10538127169E+03  0.73134233591E+02  0.18012521140E+03  0.12500000000E+03 0.  0.
</event>
<event>
 4    0  0.2236434E-002  0.7325729E+03  0.7546771E-02  0.9663095E-01
         21   -1    0    0  502  501  0.00000000000E+00  0.00000000000E+00  0.24775095690E+03  0.24775095690E+03  0.00000000000E+00 0.  1.
         21   -1    0    0  501  502 -0.00000000000E+00 -0.00000000000E+00 -0.21661389673E+04  0.21661389673E+04  0.00000000000E+00 0.  1.
         25    1    1    2    0    0 -0.66546394112E+02 -0.47223605057E+02  0.22242772433E+03  0.26787606088E+03  0.12500000000E+03 0.  0.
         25    1    1    2    0    0  0.66546394112E+02  0.47223605057E+02 -0.21408157347E+04  0.21460138633E+04  0.12500000000E+03 0.  0.
</event>
<event>
 4    0  0.2236434E-002  0.3758876E+03  0.7546771E-02  0.1052464E+00
         21   -1    0    0  502  501  0.00000000000E+00  0.00000000000E+00  0.46732645999E+03  0.46732645999E+03  0.00000000000E+00 0.  1.
         21   -1    0    0  501  502 -0.00000000000E+00 -0.00000000000E+00 -0.30234003941E+03  0.30234003941E+03  0.00000000000E+00 0. -1.
         25    1    1    2    0    0  0.62639573418E+02  0.34883603669E+03  0.90168538281E+02  0.38647854009E+03  0.12500000000E+03 0.  0.
         25    1    1    2    0    0 -0.62639573418E+02 -0.34883603669E+03  0.74817882300E+02  0.38318795931E+03  0.12500000000E+03 0.  0.
</event>
<event>
 4    0  0.2236434E-002  0.1876247E+03  0.7546771E-02  0.1160621E+00
         21   -1    0    0  502  501  0.00000000000E+00  0.00000000000E+00  0.17495064900E+04  0.17495064900E+04  0.00000000000E+00 0.  1.
         21   -1    0    0  501  502 -0.00000000000E+00 -0.00000000000E+00 -0.20121698463E+02  0.20121698463E+02  0.00000000000E+00 0.  1.
         25    1    1    2    0    0 -0.46752523872E+02  0.12073316831E+03  0.61445129359E+03  0.64026376488E+03  0.12500000000E+03 0.  0.
         25    1    1    2    0    0  0.46752523872E+02 -0.12073316831E+03  0.11149334980E+04  0.11293644236E+04  0.12500000000E+03 0.  0.
</event>
<event>
 4    0  0.2236434E-002  0.2013783E+03  0.7546771E-02  0.1148581E+00
         21   -1    0    0  502  501  0.00000000000E+00  0.00000000000E+00  0.39052875285E+02  0.39052875285E+02  0.00000000000E+00 0. -1.
         21   -1    0    0  501  502 -0.00000000000E+00 -0.00000000000E+00 -0.10384187224E+04  0.10384187224E+04  0.00000000000E+00 0. -1.
         25    1    1    2    0    0 -0.87883291194E+02  0.13114886242E+03 -0.50550725977E+03  0.54413792982E+03  0.12500000000E+03 0.  0.
         25    1    1    2    0    0  0.87883291194E+02 -0.13114886242E+03 -0.49385858733E+03  0.53333366786E+03  0.12500000000E+03 0.  0.
</event>
<event>
 4    0  0.2236434E-002  0.2065025E+03  0.7546771E-02  0.1144366E+00
         21   -1    0    0  502  501  0.00000000000E+00  0.00000000000E+00  0.88044327611E+02  0.88044327611E+02  0.00000000000E+00 0. -1.
         21   -1    0    0  501  502 -0.00000000000E+00 -0.00000000000E+00 -0.48433872358E+03  0.48433872358E+03  0.00000000000E+00 0. -1.
         25    1    1    2    0    0 -0.12859402625E+03 -0.84708884803E+01 -0.33955028336E+03  0.38409318461E+03  0.12500000000E+03 0.  0.
         25    1    1    2    0    0  0.12859402625E+03  0.84708884803E+01 -0.56744112608E+02  0.18828986657E+03  0.12500000000E+03 0.  0.
</event>
<event>
 4    0  0.2236434E-002  0.2594482E+03  0.7546771E-02  0.1107475E+00
         21   -1    0    0  502  501  0.00000000000E+00  0.00000000000E+00  0.11046072987E+04  0.11046072987E+04  0.00000000000E+00 0.  1.
         21   -1    0    0  501  502 -0.00000000000E+00 -0.00000000000E+00 -0.60938736895E+02  0.60938736895E+02  0.00000000000E+00 0.  1.
         25    1    1    2    0    0  0.11914672973E+03 -0.19121495914E+03  0.59030732813E+03  0.64408605438E+03  0.12500000000E+03 0.  0.
         25    1    1    2    0    0 -0.11914672973E+03  0.19121495914E+03  0.45336123363E+03  0.52145998117E+03  0.12500000000E+03 0.  0.
</event>
<event>
 4    0  0.2236434E-002  0.3300764E+03  0.7546771E-02  0.1071103E+00
         21   -1    0    0  502  501  0.00000000000E+00  0.00000000000E+00  0.99397419980E+03  0.99397419980E+03  0.00000000000E+00 0. -1.
         21   -1    0    0  501  502 -0.00000000000E+00 -0.00000000000E+00 -0.10961094766E+03  0.10961094766E+03  0.00000000000E+00 0. -1.
         25    1    1    2    0    0 -0.11185180407E+03  0.16014271478E+03  0.49528875295E+02  0.23713840823E+03  0.12500000000E+03 0.  0.
         25    1    1    2    0    0  0.11185180407E+03 -0.16014271478E+03  0.83483437684E+03  0.86644673923E+03  0.12500000000E+03 0.  0.
</event>
<event>
 4    0  0.2236434E-002  0.1955766E+03  0.7546771E-02  0.1153526E+00
         21   -1    0    0  502  501  0.00000000000E+00  0.00000000000E+00  0.99621473525E+03  0.99621473525E+03  0.00000000000E+00 0. -1.
         21   -1    0    0  501  502 -0.00000000000E+00 -0.00000000000E+00 -0.38395559512E+02  0.38395559512E+02  0.00000000000E+00 0. -1.
         25    1    1    2    0    0 -0.14427801124E+02 -0.10971305825E+03  0.74839217241E+03  0.76678612424E+03  0.12500000000E+03 0.  0.
         25    1    1    2    0    0  0.14427801124E+02  0.10971305825E+03  0.20942700333E+03  0.26782417053E+03  0.12500000000E+03 0.  0.
</event>
<event>
 4    0  0.2236434E-002  0.2718366E+03  0.7546771E-02  0.1100233E+00
         21   -1    0    0  502  501  0.00000000000E+00  0.00000000000E+00  0.31996177215E+03  0.31996177215E+03  0.00000000000E+00 0.  1.
         21   -1    0    0  501  502 -0.00000000000E+00 -0.00000000000E+00 -0.23094981644E+03  0.23094981644E+03  0.00000000000E+00 0.  1.
         25    1    1    2    0    0  0.75335976453E+02  0.51933537493E+02  0.27085753976E+03  0.31202789700E+03  0.12500000000E+03 0.  0.
         25    1    1    2    0    0 -0.75335976453E+02 -0.51933537493E+02 -0.18184558405E+03  0.23888369158E+03  0.12500000000E+03 0.  0.
</event>
<event>
 4    0  0.2236434E-002  0.3364390E+03  0.7546771E-02  0.1068323E+00
         21   -1    0    0  502  501  0.00000000000E+00  0.00000000000E+00  0.19248829101E+04  0.19248829101E+04  0.00000000000E+00 0.  1.
         21   -1    0    0  501  502 -0.00000000000E+00 -0.00000000000E+00 -0.58804212971E+02  0.58804212971E+02  0.00000000000E+00 0.  1.
         25    1    1    2    0    0 -0.25461189126E+03 -0.18083681841E+03  0.91509377182E+03  0.97496193838E+03  0.12500000000E+03 0.  0.
         25    1    1    2    0    0  0.25461189126E+03  0.18083681841E+03  0.95098492528E+03  0.10087251847E+04  0.12500000000E+03 0.  0.
</event>
<event>
 4    0  0.2236434E-002  0.2537875E+03  0.7546771E-02  0.1110934E+00
         21   -1    0    0  502  501  0.00000000000E+00  0.00000000000E+00  0.54028170887E+02  0.54028170887E+02  0.00000000000E+00 0. -1.
         21   -1    0    0  501  502 -0.00000000000E+00 -0.00000000000E+00 -0.11921204034E+04  0.11921204034E+04  0.00000000000E+00 0. -1.
         25    1    1    2    0    0 -0.24578332064E+02  0.32791289845E+02 -0.11018866417E+04  0.11097110138E+04  0.12500000000E+03 0.  0.
         25    1    1    2    0    0  0.24578332064E+02 -0.32791289845E+02 -0.36205590834E+02  0.13643756046E+03  0.12500000000E+03 0.  0.
</event>
<event>
 4    0  0.2236434E-002  0.1989669E+03  0.7546771E-02  0.1150614E+00
         21   -1    0    0  502  501  0.00000000000E+00  0.00000000000E+00  0.41820392132E+03  0.41820392132E+03  0.00000000000E+00 0.  1.
         21   -1    0    0  501  502 -0.00000000000E+00 -0.00000000000E+00 -0.94661577162E+02  0.94661577162E+02  0.00000000000E+00 0.  1.
         25    1    1    2    0    0 -0.58809145137E+02 -0.70442418660E+02  0.32244632323E+03  0.35779502688E+03  0.12500000000E+03 0.  0.
         25    1    1    2    0    0  0.58809145137E+02  0.70442418660E+02  0.10960209232E+01  0.15507047159E+03  0.12500000000E+03 0.  0.
</event>
<event>
 4    0  0.2236434E-002  0.1914271E+03  0.7546771E-02  0.1157180E+00
         21   -1    0    0  502  501  0.00000000000E+00  0.00000000000E+00  0.16192564217E+03  0.16192564217E+03  0.00000000000E+00 0.  1.
         21   -1    0    0  501  502 -0.00000000000E+00 -0.00000000000E+00 -0.22630350176E+03  0.22630350176E+03  0.00000000000E+00 0.  1.
         25    1    1    2    0    0 -0.44424083415E+02 -0.10928627057E+03 -0.11764753010E+03  0.20828569192E+03  0.12500000000E+03 0.  0.
         25    1    1    2    0    0  0.44424083415E+02  0.10928627057E+03  0.53269670511E+02  0.17994345200E+03  0.12500000000E+03 0.  0.
</event>
<event>
 4    0  0.2236434E-002  0.2174319E+03  0.7546771E-02  0.1135812E+00
         21   -1    0    0  502  501  0.00000000000E+00  0.00000000000E+00  0.97832750788E+03  0.97832750788E+03  0.00000000000E+00 0. -1.
         21   -1    0    0  501  502 -0.00000000000E+00 -0.00000000000E+00 -0.48323946092E+02  0.48323946092E+02  0.00000000000E+00 0. -1.
         25    1    1    2    0    0 -0.80061164014E+02 -0.11645622120E+03  0.72014703003E+03  0.74445186971E+03  0.12500000000E+03 0.  0.
         25    1    1    2    0    0  0.80061164014E+02  0.11645622120E+03  0.20985653175E+03  0.28219958426E+03  0.12500000000E+03 0.  0.
</event>
<event>
 4    0  0.2236434E-002  0.2113313E+03  0.7546771E-02  0.1140516E+00
         21   -1    0    0  502  501  0.00000000000E+00  0.00000000000E+00  0.49148625321E+03  0.49148625321E+03  0.00000000000E+00 0.  1.
         21   -1    0    0  501  502 -0.00000000000E+00 -0.00000000000E+00 -0.90869101433E+02  0.90869101433E+02  0.00000000000E+00 0.  1.
         25    1    1    2    0    0 -0.37483071415E+02 -0.51890830431E+02 -0.17275686552E+02  0.14149589489E+03  0.12500000000E+03 0.  0.
         25    1    1    2    0    0  0.37483071415E+02  0.51890830431E+02  0.41789283833E+03  0.44085945975E+03  0.12500000000E+03 0.  0.
</event>
<event>
 4    0  0.2236434E-002  0.3072538E+03  0.7546771E-02  0.1081670E+00
         21   -1    0    0  502  501  0.00000000000E+00  0.00000000000E+00  0.39338504957E+03  0.39338504957E+03  0.00000000000E+00 0. -1.
         21   -1    0    0  501  502 -0.00000000000E+00 -0.00000000000E+00 -0.23998096451E+03  0.23998096451E+03  0.00000000000E+00 0. -1.
         25    1    1    2    0    0  0.10939447766E+03  0.98179825487E+02 -0.16974567676E+03  0.25699226575E+03  0.12500000000E+03 0.  0.
         25    1    1    2    0    0 -0.10939447766E+03 -0.98179825487E+02  0.32314976181E+03  0.37637374833E+03  0.12500000000E+03 0.  0.
</event>
<event>
 4    0  0.2236434E-002  0.1661170E+03  0.7546771E-02  0.1181959E+00
         21   -1    0    0  502  501  0.00000000000E+00  0.00000000000E+00  0.37706112604E+03  0.37706112604E+03  0.00000000000E+00 0. -1.
         21   -1    0    0  501  502 -0.00000000000E+00 -0.00000000000E+00 -0.73184025652E+02  0.73184025652E+02  0.00000000000E+00 0. -1.
         25    1    1    2    0    0  0.49071280713E+02  0.12125401636E+02  0.20442901450E+02  0.13637422108E+03  0.12500000000E+03 0.  0.
         25    1    1    2    0    0 -0.49071280713E+02 -0.12125401636E+02  0.28343419893E+03  0.31387093061E+03  0.12500000000E+03 0.  0.
</event>
<event>
 4    0  0.2236434E-002  0.1971294E+03  0.7546771E-02  0.1152184E+00
         21   -1    0    0  502  501  0.00000000000E+00  0.00000000000E+00  0.48318984372E+02  0.48318984372E+02  0.00000000000E+00 0.  1.
         21   -1    0    0  501  502 -0.00000000000E+00 -0.00000000000E+00 -0.80423874259E+03  0.80423874259E+03  0.00000000000E+00 0.  1.
         25    1    1    2    0    0 -0.74934631217E+02  0.12736730977E+03 -0.45879459348E+03  0.49795091079E+03  0.12500000000E+03 0.  0.
         25    1    1    2    0    0  0.74934631217E+02 -0.12736730977E+03 -0.29712516474E+03  0.35460681617E+03  0.12500000000E+03 0.  0.
</event>
<event>
 4    0  0.2236434E-002  0.4042979E+03  0.7546771E-02  0.1042302E+00
         21   -1    0    0  502  501  0.00000000000E+00  0.00000000000E+00  0.76381388504E+03  0.76381388504E+03  0.00000000000E+00 0. -1.
         21   -1    0    0  501  502 -0.00000000000E+00 -0.00000000000E+00 -0.21400082559E+03  0.21400082559E+03  0.00000000000E+00 0. -1.
         25    1    1    2    0    0 -0.88751925190E+02  0.36233671032E+03  0.16232694981E+03  0.42560525667E+03  0.12500000000E+03 0.  0.
         25    1    1    2    0    0  0.88751925190E+02 -0.36233671032E+03  0.38748610964E+03  0.55220945396E+03  0.12500000000E+03 0.  0.
</event>
<event>
 4    0  0.2236434E-002  0.2622252E+03  0.7546771E-02  0.1105814E+00
         21   -1    0    0  502  501  0.00000000000E+00  0.00000000000E+00  0.19022209146E+03  0.19022209146E+03  0.00000000000E+00 0. -1.
         21   -1    0    0  501  502 -0.00000000000E+00 -0.00000000000E+00 -0.36148311950E+03  0.36148311950E+03  0.00000000000E+00 0. -1.
         25    1    1    2    0    0  0.17993654989E+03  0.35109981043E+02  0.61371273498E+02  0.23022012503E+03  0.12500000000E+03 0.  0.
         25    1    1    2    0    0 -0.17993654989E+03 -0.35109981043E+02 -0.23263230153E+03  0.32148508593E+03  0.12500000000E+03 0.  0.
</event>
<event>
 4    0  0.2236434E-002  0.1838187E+03  0.7546771E-02  0.1164158E+00
         21   -1    0    0  502  501  0.00000000000E+00  0.00000000000E+00  0.25291299565E+02  0.25291299565E+02  0.00000000000E+00 0. -1.
         21   -1    0    0  501  502 -0.00000000000E+00 -0.00000000000E+00 -0.13360048143E+04  0.13360048143E+04  0.00000000000E+00 0. -1.
         25    1    1    2    0    0  0.46572722508E+02  0.23186926377E+02 -0.19498920886E+03  0.23738669636E+03  0.12500000000E+03 0.  0.
         25    1    1    2    0    0 -0.46572722508E+02 -0.23186926377E+02 -0.11157243058E+04  0.11239094175E+04  0.12500000000E+03 0.  0.
</event>
<event>
 4    0  0.2236434E-002  0.2255715E+03  0.7546771E-02  0.1129796E+00
         21   -1    0    0  502  501  0.00000000000E+00  0.00000000000E+00  0.24657387258E+03  0.24657387258E+03  0.00000000000E+00 0.  1.
         21   -1    0    0  501  502 -0.00000000000E+00 -0.00000000000E+00 -0.20635800957E+03  0.20635800957E+03  0.00000000000E+00 0.  1.
         25    1    1    2    0    0 -0.47108648604E+02  0.14150179736E+03 -0.94429990685E+02  0.21629610854E+03  0.12500000000E+03 0.  0.
         25    1    1    2    0    0  0.47108648604E+02 -0.14150179736E+03  0.13464585369E+03  0.23663577360E+03  0.12500000000E+03 0.  0.
</event>
<event>
 4    0  0.2236434E-002  0.2973836E+03  0.7546771E-02  0.1086556E+00
         21   -1    0    0  502  501  0.00000000000E+00  0.00000000000E+00  0.21476045645E+03  0.21476045645E+03  0.00000000000E+00 0. -1.
         21   -1    0    0  501  502 -0.00000000000E+00 -0.00000000000E+00 -0.41179379029E+03  0.41179379029E+03  0.00000000000E+00 0. -1.
         25    1    1    2    0    0 -0.25140610570E+03 -0.91369863099E+02 -0.61144762923E+02  0.30152473182E+03  0.12500000000E+03 0.  0.
         25    1    1    2    0    0  0.25140610570E+03  0.91369863099E+02 -0.13588857091E+03  0.32502951492E+03  0.12500000000E+03 0.  0.
</event>
<event>
 4    0  0.2236434E-002  0.2191075E+03  0.7546771E-02  0.1134550E+00
         21   -1    0    0  502  501  0.00000000000E+00  0.00000000000E+00  0.44854341177E+03  0.44854341177E+03  0.00000000000E+00 0.  1.
         21   -1    0    0  501  502 -0.00000000000E+00 -0.00000000000E+00 -0.10703112285E+03  0.10703112285E+03  0.00000000000E+00 0.  1.
         25    1    1    2    0    0  0.65334650200E+02  0.16518868720E+03  0.13429278569E+03  0.25537319982E+03  0.12500000000E+03 0.  0.
         25    1    1    2    0    0 -0.65334650200E+02 -0.16518868720E+03  0.20721950323E+03  0.30020133480E+03  0.12500000000E+03 0.  0.
</event>
<event>
 4    0  0.2236434E-002  0.1652423E+03  0.7546771E-02  0.1182902E+00
         21   -1    0    0  502  501  0.00000000000E+00  0.00000000000E+00  0.73193777454E+03  0.73193777454E+03  0.00000000000E+00 0.  1.
         21   -1    0    0  501  502 -0.00000000000E+00 -0.00000000000E+00 -0.37305121494E+02  0.37305121494E+02  0.00000000000E+00 0.  1.
         25    1    1    2    0    0  0.90357601773E+02  0.57312438592E+02  0.31195366485E+03  0.35268867409E+03  0.12500000000E+03 0.  0.
         25    1    1    2    0    0 -0.90357601773E+02 -0.57312438592E+02  0.38267898819E+03  0.41655422194E+03  0.12500000000E+03 0.  0.
</event>
<event>
 4    0  0.2236434E-002  0.1919955E+03  0.7546771E-02  0.1156674E+00
         21   -1    0    0  502  501  0.00000000000E+00  0.00000000000E+00  0.13495248461E+04  0.13495248461E+04  0.00000000000E+00 0. -1.
         21   -1    0    0  501  502 -0.00000000000E+00 -0.00000000000E+00 -0.27314991193E+02  0.27314991193E+02  0.00000000000E+00 0. -1.
         25    1    1    2    0    0 -0.14104448648E+03  0.36606078070E+02  0.65420120161E+03  0.68179011749E+03  0.12500000000E+03 0.  0.
         25    1    1    2    0    0  0.14104448648E+03 -0.36606078070E+02  0.66800865332E+03  0.69504971983E+03  0.12500000000E+03 0.  0.
</event>
<event>
 4    0  0.2236434E-002  0.1687248E+03  0.7546771E-02  0.1179184E+00
         21   -1    0    0  502  501  0.00000000000E+00  0.00000000000E+00  0.35503451312E+02  0.35503451312E+02  0.00000000000E+00 0.  1.
         21   -1    0    0  501  502 -0.00000000000E+00 -0.00000000000E+00 -0.80183892005E+03  0.80183892005E+03  0.00000000000E+00 0.  1.
         25    1    1    2    0    0  0.10698806512E+03  0.14976701601E+02 -0.46812760834E+03  0.49642643499E+03  0.12500000000E+03 0.  0.
         25    1    1    2    0    0 -0.10698806512E+03 -0.14976701601E+02 -0.29820786040E+03  0.34091593637E+03  0.12500000000E+03 0.  0.
</event>
<event>
 4    0  0.2236434E-002  0.1752861E+03  0.7546771E-02  0.1172445E+00
         21   -1    0    0  502  501  0.00000000000E+00  0.00000000000E+00  0.56680352531E+02  0.56680352531E+02  0.00000000000E+00 0. -1.
         21   -1    0    0  501  502 -0.00000000000E+00 -0.00000000000E+00 -0.54207897273E+03  0.54207897273E+03  0.00000000000E+00 0. -1.
         25    1    1    2    0    0 -0.10951348111E+03 -0.28574256826E+02 -0.16095766797E+03  0.23311383823E+03  0.12500000000E+03 0.  0.
         25    1    1    2    0    0  0.10951348111E+03  0.28574256826E+02 -0.32444095223E+03  0.36564548703E+03  0.12500000000E+03 0.  0.
</event>
<event>
 4    0  0.2236434E-002  0.1823148E+03  0.7546771E-02  0.1165581E+00
         21   -1    0    0  502  501  0.00000000000E+00  0.00000000000E+00  0.15247071874E+04  0.15247071874E+04  0.00000000000E+00 0. -1.
         21   -1    0    0  501  502 -0.00000000000E+00 -0.00000000000E+00 -0.21800037048E+02  0.21800037048E+02  0.00000000000E+00 0. -1.
         25    1    1    2    0    0  0.65107516827E+02  0.11310636031E+03  0.64916535113E+03  0.67384916012E+03  0.12500000000E+03 0.  0.
         25    1    1    2    0    0 -0.65107516827E+02 -0.11310636031E+03  0.85374179919E+03  0.87265806429E+03  0.12500000000E+03 0.  0.
</event>
<event>
 4    0  0.2236434E-002  0.1697897E+03  0.7546771E-02  0.1178067E+00
         21   -1    0    0  502  501  0.00000000000E+00  0.00000000000E+00  0.30375738181E+02  0.30375738181E+02  0.00000000000E+00 0.  1.
         21   -1    0    0  501  502 -0.00000000000E+00 -0.00000000000E+00 -0.94906440050E+03  0.94906440050E+03  0.00000000000E+00 0.  1.
         25    1    1    2    0    0 -0.96571766580E+02 -0.43766478148E+02 -0.33158947944E+03  0.36988943427E+03  0.12500000000E+03 0.  0.
         25    1    1    2    0    0  0.96571766580E+02  0.43766478148E+02 -0.58709918288E+03  0.60955070442E+03  0.12500000000E+03 0.  0.
</event>
<event>
 4    0  0.2236434E-002  0.2105579E+03  0.7546771E-02  0.1141125E+00
         21   -1    0    0  502  501  0.00000000000E+00  0.00000000000E+00  0.89882580036E+02  0.89882580036E+02  0.00000000000E+00 0. -1.
         21   -1    0    0  501  502 -0.00000000000E+00 -0.00000000000E+00 -0.49325043194E+03  0.49325043194E+03  0.00000000000E+00 0. -1.
         25    1    1    2    0    0  0.47938749012E+02 -0.51094544069E+02  0.11946113838E+02  0.14379320473E+03  0.12500000000E+03 0.  0.
         25    1    1    2    0    0 -0.47938749012E+02  0.51094544069E+02 -0.41531396574E+03  0.43933980725E+03  0.12500000000E+03 0.  0.
</event>
<event>
 4    0  0.2236434E-002  0.2950212E+03  0.7546771E-02  0.1087756E+00
         21   -1    0    0  502  501  0.00000000000E+00  0.00000000000E+00  0.82444818970E+02  0.82444818970E+02  0.00000000000E+00 0. -1.
         21   -1    0    0  501  502 -0.00000000000E+00 -0.00000000000E+00 -0.10557060836E+04  0.10557060836E+04  0.00000000000E+00 0. -1.
         25    1    1    2    0    0  0.16205520782E+03 -0.93102055425E+02 -0.85506457037E+03  0.88413251417E+03  0.12500000000E+03 0.  0.
         25    1    1    2    0    0 -0.16205520782E+03  0.93102055425E+02 -0.11819669424E+03  0.25401838838E+03  0.12500000000E+03 0.  0.
</event>
<event>
 4    0  0.2236434E-002  0.2213338E+03  0.7546771E-02  0.1132893E+00
         21   -1    0    0  502  501  0.00000000000E+00  0.00000000000E+00  0.68100780515E+03  0.68100780515E+03  0.00000000000E+00 0.  1.
         21   -1    0    0  501  502 -0.00000000000E+00 -0.00000000000E+00 -0.71935499159E+02  0.71935499159E+02  0.00000000000E+00 0.  1.
         25    1    1    2    0    0  0.96504141817E+02  0.99126678000E+02  0.50739919658E+03  0.54057200479E+03  0.12500000000E+03 0.  0.
         25    1    1    2    0    0 -0.96504141817E+02 -0.99126678000E+02  0.10167310941E+03  0.21237129951E+03  0.12500000000E+03 0.  0.
</event>
<event>
 4    0  0.2236434E-002  0.2402992E+03  0.7546771E-02  0.1119594E+00
         21   -1    0    0  502  501  0.00000000000E+00  0.00000000000E+00  0.24082425192E+03  0.24082425192E+03  0.00000000000E+00 0.  1.
         21   -1    0    0  501  502 -0.00000000000E+00 -0.00000000000E+00 -0.23977529655E+03  0.23977529655E+03  0.00000000000E+00 0.  1.
         25    1    1    2    0    0  0.64229164121E+02  0.19241800637E+03  0.31647400673E+02  0.24036770305E+03  0.12500000000E+03 0.  0.
         25    1    1    2    0    0 -0.64229164121E+02 -0.19241800637E+03 -0.30598445296E+02  0.24023184542E+03  0.12500000000E+03 0.  0.
</event>
<event>
 4    0  0.2236434E-002  0.3084835E+03  0.7546771E-02  0.1081075E+00
         21   -1    0    0  502  501  0.00000000000E+00  0.00000000000E+00  0.34837606003E+03  0.34837606003E+03  0.00000000000E+00 0. -1.
         21   -1    0    0  501  502 -0.00000000000E+00 -0.00000000000E+00 -0.27315901371E+03  0.27315901371E+03  0.00000000000E+00 0. -1.
         25    1    1    2    0    0 -0.20198369270E+03 -0.54711755767E+02 -0.15285819891E+03  0.28771759993E+03  0.12500000000E+03 0.  0.
         25    1    1    2    0    0  0.20198369270E+03  0.54711755767E+02  0.22807524523E+03  0.33381747381E+03  0.12500000000E+03 0.  0.
</event>
<event>
 4    0  0.2236434E-002  0.1938961E+03  0.7546771E-02  0.1154993E+00
         21   -1    0    0  502  501  0.00000000000E+00  0.00000000000E+00  0.19864451249E+03  0.19864451249E+03  0.00000000000E+00 0. -1.
         21   -1    0    0  501  502 -0.00000000000E+00 -0.00000000000E+00 -0.18926122136E+03  0.18926122136E+03  0.00000000000E+00 0. -1.
         25    1    1    2    0    0 -0.14740277469E+03 -0.37365496634E+01  0.19834215742E+02  0.19431915990E+03  0.12500000000E+03 0.  0.
         25    1    1    2    0    0  0.14740277469E+03  0.37365496634E+01 -0.10450924606E+02  0.19358657395E+03  0.12500000000E+03 0.  0.
</event>
<event>
 4    0  0.2236434E-002  0.2721941E+03  0.7546771E-02  0.1100030E+00
         21   -1    0    0  502  501  0.00000000000E+00  0.00000000000E+00  0.56789246249E+03  0.56789246249E+03  0.00000000000E+00 0.  1.
         21   -1    0    0  501  502 -0.00000000000E+00 -0.00000000000E+00 -0.13046421666E+03  0.13046421666E+03  0.00000000000E+00 0.  1.
         25    1    1    2    0    0  0.14475727432E+03 -0.43552538359E+02  0.46080239560E+03  0.50081467616E+03  0.12500000000E+03 0.  0.
         25    1    1    2    0    0 -0.14475727432E+03  0.43552538359E+02 -0.23374149774E+02  0.19754200299E+03  0.12500000000E+03 0.  0.
</event>
<event>
 4    0  0.2236434E-002  0.2586095E+03  0.7546771E-02  0.1107982E+00
         21   -1    0    0  502  501  0.00000000000E+00  0.00000000000E+00  0.50527652460E+03  0.50527652460E+03  0.00000000000E+00 0.  1.
         21   -1    0    0  501  502 -0.00000000000E+00 -0.00000000000E+00 -0.13236097231E+03  0.13236097231E+03  0.00000000000E+00 0.  1.
         25    1    1    2    0    0  0.10089117505E+03 -0.14849786186E+03  0.35649407818E+03  0.41826268296E+03  0.12500000000E+03 0.  0.
         25    1    1    2    0    0 -0.10089117505E+03  0.14849786186E+03  0.16421474107E+02  0.21937481394E+03  0.12500000000E+03 0.  0.
</event>
<event>
 4    0  0.2236434E-002  0.2013922E+03  0.7546771E-02  0.1148570E+00
         21   -1    0    0  502  501  0.00000000000E+00  0.00000000000E+00  0.10679466071E+03  0.10679466071E+03  0.00000000000E+00 0.  1.
         21   -1    0    0  501  502 -0.00000000000E+00 -0.00000000000E+00 -0.37978327174E+03  0.37978327174E+03  0.00000000000E+00 0.  1.
         25    1    1    2    0    0 -0.50975262706E+02  0.14541614750E+03 -0.94830345862E+02  0.21991391011E+03  0.12500000000E+03 0.  0.
         25    1    1    2    0    0  0.50975262706E+02 -0.14541614750E+03 -0.17815826517E+03  0.26666402234E+03  0.12500000000E+03 0.  0.
</event>
<event>
 4    0  0.2236434E-002  0.1980122E+03  0.7546771E-02  0.1151427E+00
         21   -1    0    0  502  501  0.00000000000E+00  0.00000000000E+00  0.34553322399E+02  0.34553322399E+02  0.00000000000E+00 0. -1.
         21   -1    0    0  501  502 -0.00000000000E+00 -0.00000000000E+00 -0.11347344171E+04  0.11347344171E+04  0.00000000000E+00 0. -1.
         25    1    1    2    0    0 -0.10900586034E+03 -0.99584331694E+02 -0.67481769653E+03  0.70199945887E+03  0.12500000000E+03 0.  0.
         25    1    1    2    0    0  0.10900586034E+03  0.99584331694E+02 -0.42536339820E+03  0.46728828066E+03  0.12500000000E+03 0.  0.
</event>
<event>
 4    0  0.2236434E-002  0.2287565E+03  0.7546771E-02  0.1127518E+00
         21   -1    0    0  502  501  0.00000000000E+00  0.00000000000E+00  0.32541911376E+03  0.32541911376E+03  0.00000000000E+00 0.  1.
         21   -1    0    0  501  502 -0.00000000000E+00 -0.00000000000E+00 -0.16080655347E+03  0.16080655347E+03  0.00000000000E+00 0.  1.
         25    1    1    2    0    0  0.85227355542E+02  0.72073191618E+02 -0.83178109989E+02  0.18708780041E+03  0.12500000000E+03 0.  0.
         25    1    1    2    0    0 -0.85227355542E+02 -0.72073191618E+02  0.24779067028E+03  0.29913786681E+03  0.12500000000E+03 0.  0.
</event>
<event>
 4    0  0.2236434E-002  0.2630718E+03  0.7546771E-02  0.1105312E+00
         21   -1    0    0  502  501  0.00000000000E+00  0.00000000000E+00  0.54325894709E+02  0.54325894709E+02  0.00000000000E+00 0.  1.
         21   -1    0    0  501  502 -0.00000000000E+00 -0.00000000000E+00 -0.12739183891E+04  0.12739183891E+04  0.00000000000E+00 0.  1.
         25    1    1    2    0    0 -0.76407712453E+02 -0.21666192946E+03 -0.53833818264E+03  0.59850942273E+03  0.12500000000E+03 0.  0.
         25    1    1    2    0    0  0.76407712453E+02  0.21666192946E+03 -0.68125431173E+03  0.72973486106E+03  0.12500000000E+03 0.  0.
</event>
<event>
 4    0  0.2236434E-002  0.2491033E+03  0.7546771E-02  0.1113873E+00
         21   -1    0    0  502  501  0.00000000000E+00  0.00000000000E+00  0.90769448699E+03  0.90769448699E+03  0.00000000000E+00 0.  1.
         21   -1    0    0  501  502 -0.00000000000E+00 -0.00000000000E+00 -0.68362704991E+02  0.68362704991E+02  0.00000000000E+00 0.  1.
         25    1    1    2    0    0  0.18557684649E+03 -0.99171336784E+02  0.51058631981E+03  0.56621295462E+03  0.12500000000E+03 0.  0.
         25    1    1    2    0    0 -0.18557684649E+03  0.99171336784E+02  0.32874546219E+03  0.40984423737E+03  0.12500000000E+03 0.  0.
</event>
<event>
 4    0  0.2236434E-002  0.2812189E+03  0.7546771E-02  0.1095025E+00
         21   -1    0    0  502  501  0.00000000000E+00  0.00000000000E+00  0.22985524728E+03  0.22985524728E+03  0.00000000000E+00 0.  1.
         21   -1    0    0  501  502 -0.00000000000E+00 -0.00000000000E+00 -0.34406031934E+03  0.34406031934E+03  0.00000000000E+00 0.  1.
         25    1    1    2    0    0 -0.21521688229E+03  0.13064678643E+03 -0.65771827648E+02  0.28868291002E+03  0.12500000000E+03 0.  0.
         25    1    1    2    0    0  0.21521688229E+03 -0.13064678643E+03 -0.48433244409E+02  0.28523265660E+03  0.12500000000E+03 0.  0.
</event>
<event>
 4    0  0.2236434E-002  0.2717555E+03  0.7546771E-02  0.1100279E+00
         21   -1    0    0  502  501  0.00000000000E+00  0.00000000000E+00  0.28319812728E+02  0.28319812728E+02  0.00000000000E+00 0. -1.
         21   -1    0    0  501  502 -0.00000000000E+00 -0.00000000000E+00 -0.26077525140E+04  0.26077525140E+04  0.00000000000E+00 0. -1.
         25    1    1    2    0    0  0.57784346928E+01 -0.45870604630E+02 -0.14107063490E+03  0.19407067452E+03  0.12500000000E+03 0.  0.
         25    1    1    2    0    0 -0.57784346928E+01  0.45870604630E+02 -0.24383620663E+04  0.24420016522E+04  0.12500000000E+03 0.  0.
</event>
<event>
 4    0  0.2236434E-002  0.2917431E+03  0.7546771E-02  0.1089443E+00
         21   -1    0    0  502  501  0.00000000000E+00  0.00000000000E+00  0.39455621644E+02  0.39455621644E+02  0.00000000000E+00 0. -1.
         21   -1    0    0  501  502 -0.00000000000E+00 -0.00000000000E+00 -0.21572100155E+04  0.21572100155E+04  0.00000000000E+00 0. -1.
         25    1    1    2    0    0 -0.18276327602E+03 -0.13583098963E+03 -0.15588433489E+04  0.15803385900E+04  0.12500000000E+03 0.  0.
         25    1    1    2    0    0  0.18276327602E+03  0.13583098963E+03 -0.55891104500E+03  0.61632704713E+03  0.12500000000E+03 0.  0.
</event>
<event>
 4    0  0.2236434E-002  0.2569787E+03  0.7546771E-02  0.1108972E+00
         21   -1    0    0  502  501  0.00000000000E+00  0.00000000000E+00  0.85917122206E+02  0.85917122206E+02  0.00000000000E+00 0. -1.
         21   -1    0    0  501  502 -0.00000000000E+00 -0.00000000000E+00 -0.76862519258E+03  0.76862519258E+03  0.00000000000E+00 0. -1.
         25    1    1    2    0    0  0.72063486182E+02  0.17835869944E+02  0.10966766691E+02  0.14579620801E+03  0.12500000000E+03 0.  0.
         25    1    1    2    0    0 -0.72063486182E+02 -0.17835869944E+02 -0.69367483707E+03  0.70874610678E+03  0.12500000000E+03 0.  0.
</event>
<event>
 4    0  0.2236434E-002  0.2241915E+03  0.7546771E-02  0.1130796E+00
         21   -1    0    0  502  501  0.00000000000E+00  0.00000000000E+00  0.58756169252E+02  0.58756169252E+02  0.00000000000E+00 0. -1.
         21   -1    0    0  501  502 -0.00000000000E+00 -0.00000000000E+00 -0.85543057323E+03  0.85543057323E+03  0.00000000000E+00 0. -1.
         25    1    1    2    0    0 -0.97910203970E+02  0.14352870048E+03 -0.53434452017E+03  0.57561789595E+03  0.12500000000E+03 0.  0.
         25    1    1    2    0    0  0.97910203970E+02 -0.14352870048E+03 -0.26232988381E+03  0.33856884653E+03  0.12500000000E+03 0.  0.
</event>
<event>
 4    0  0.2236434E-002  0.2354047E+03  0.7546771E-02  0.1122892E+00
         21   -1    0    0  502  501  0.00000000000E+00  0.00000000000E+00  0.26367943268E+03  0.26367943268E+03  0.00000000000E+00 0.  1.
         21   -1    0    0  501  502 -0.00000000000E+00 -0.00000000000E+00 -0.21016198286E+03  0.21016198286E+03  0.00000000000E+00 0.  1.
         25    1    1    2    0    0 -0.16160168670E+03  0.86693207223E+02  0.10574710217E+03  0.24584195521E+03  0.12500000000E+03 0.  0.
         25    1    1    2    0    0  0.16160168670E+03 -0.86693207223E+02 -0.52229652356E+02  0.22799946033E+03  0.12500000000E+03 0.  0.
</event>
<event>
 4    0  0.2236434E-002  0.1951101E+03  0.7546771E-02  0.1153931E+00
         21   -1    0    0  502  501  0.00000000000E+00  0.00000000000E+00  0.13638618655E+04  0.13638618655E+04  0.00000000000E+00 0. -1.
         21   -1    0    0  501  502 -0.00000000000E+00 -0.00000000000E+00 -0.27911867490E+02  0.27911867490E+02  0.00000000000E+00 0. -1.
         25    1    1    2    0    0 -0.53402015441E+02 -0.13964557529E+03  0.70186175788E+03  0.72841443500E+03  0.12500000000E+03 0.  0.
         25    1    1    2    0    0  0.53402015441E+02  0.13964557529E+03  0.63408824012E+03  0.66335929797E+03  0.12500000000E+03 0.  0.
</event>
<event>
 4    0  0.2236434E-002  0.3706534E+03  0.7546771E-02  0.1054443E+00
         21   -1    0    0  502  501  0.00000000000E+00  0.00000000000E+00  0.45818994020E+03  0.45818994020E+03  0.00000000000E+00 0.  1.
         21   -1    0    0  501  502 -0.00000000000E+00 -0.00000000000E+00 -0.29984063590E+03  0.29984063590E+03  0.00000000000E+00 0.  1.
         25    1    1    2    0    0 -0.10129884785E+03 -0.31996950842E+03 -0.18462513840E+02  0.35861930694E+03  0.12500000000E+03 0.  0.
         25    1    1    2    0    0  0.10129884785E+03  0.31996950842E+03  0.17681181815E+03  0.39941126916E+03  0.12500000000E+03 0.  0.
</event>
<event>
 4    0  0.2236434E-002  0.2839204E+03  0.7546771E-02  0.1093567E+00
         21   -1    0    0  502  501  0.00000000000E+00  0.00000000000E+00  0.68667241867E+03  0.68667241867E+03  0.00000000000E+00 0. -1.
         21   -1    0    0  501  502 -0.00000000000E+00 -0.00000000000E+00 -0.11739339997E+03  0.11739339997E+03  0.00000000000E+00 0. -1.
         25    1    1    2    0    0  0.14611380524E+03 -0.11882311698E+03  0.52791912695E+03  0.57427500539E+03  0.12500000000E+03 0.  0.
         25    1    1    2    0    0 -0.14611380524E+03  0.11882311698E+03  0.41359891743E+02  0.22979081325E+03  0.12500000000E+03 0.  0.
</event>
<event>
 4    0  0.2236434E-002  0.1972840E+03  0.7546771E-02  0.1152051E+00
         21   -1    0    0  502  501  0.00000000000E+00  0.00000000000E+00  0.13001073572E+03  0.13001073572E+03  0.00000000000E+00 0. -1.
         21   -1    0    0  501  502 -0.00000000000E+00 -0.00000000000E+00 -0.29936751572E+03  0.29936751572E+03  0.00000000000E+00 0. -1.
         25    1    1    2    0    0 -0.64293525059E+02  0.57061790113E+02 -0.22192527372E+03  0.26882249231E+03  0.12500000000E+03 0.  0.
         25    1    1    2    0    0  0.64293525059E+02 -0.57061790113E+02  0.52568493721E+02  0.16055575912E+03  0.12500000000E+03 0.  0.
</event>
<event>
 4    0  0.2236434E-002  0.1567428E+03  0.7546771E-02  0.1192424E+00
         21   -1    0    0  502  501  0.00000000000E+00  0.00000000000E+00  0.51961872058E+03  0.51961872058E+03  0.00000000000E+00 0.  1.
         21   -1    0    0  501  502 -0.00000000000E+00 -0.00000000000E+00 -0.47281418017E+02  0.47281418017E+02  0.00000000000E+00 0.  1.
         25    1    1    2    0    0 -0.49465419984E+02 -0.16746036571E+01  0.38189372936E+03  0.40486720366E+03  0.12500000000E+03 0.  0.
         25    1    1    2    0    0  0.49465419984E+02  0.16746036571E+01  0.90443573198E+02  0.16203293494E+03  0.12500000000E+03 0.  0.
</event>
<event>
 4    0  0.2236434E-002  0.1610516E+03  0.7546771E-02  0.1187515E+00
         21   -1    0    0  502  501  0.00000000000E+00  0.00000000000E+00  0.94395135586E+02  0.94395135586E+02  0.00000000000E+00 0. -1.
         21   -1    0    0  501  502 -0.00000000000E+00 -0.00000000000E+00 -0.27477706827E+03  0.27477706827E+03  0.00000000000E+00 0. -1.
         25    1    1    2    0    0  0.39612209628E+02 -0.93467711476E+02 -0.93283049503E+02  0.18609693056E+03  0.12500000000E+03 0.  0.
         25    1    1    2    0    0 -0.39612209628E+02  0.93467711476E+02 -0.87098883182E+02  0.18307527329E+03  0.12500000000E+03 0.  0.
</event>
<event>
 4    0  0.2236434E-002  0.1572930E+03  0.7546771E-02  0.1191787E+00
         21   -1    0    0  502  501  0.00000000000E+00  0.00000000000E+00  0.73837818869E+03  0.73837818869E+03  0.00000000000E+00 0.  1.
         21   -1    0    0  501  502 -0.00000000000E+00 -0.00000000000E+00 -0.33507353962E+02  0.33507353962E+02  0.00000000000E+00 0.  1.
         25    1    1    2    0    0 -0.23458908067E+01  0.38120768313E+01  0.58644851906E+03  0.59963897525E+03  0.12500000000E+03 0.  0.
         25    1    1    2    0    0  0.23458908067E+01 -0.38120768313E+01  0.11842231568E+03  0.17224656741E+03  0.12500000000E+03 0.  0.
</event>
<event>
 4    0  0.2236434E-002  0.2485230E+03  0.7546771E-02  0.1114242E+00
         21   -1    0    0  502  501  0.00000000000E+00  0.00000000000E+00  0.68596210836E+03  0.68596210836E+03  0.00000000000E+00 0.  1.
         21   -1    0    0  501  502 -0.00000000000E+00 -0.00000000000E+00 -0.90039494854E+02  0.90039494854E+02  0.00000000000E+00 0.  1.
         25    1    1    2    0    0  0.14965120118E+03 -0.14472334132E+03  0.21537322560E+03  0.32457811671E+03  0.12500000000E+03 0.  0.
         25    1    1    2    0    0 -0.14965120118E+03  0.14472334132E+03  0.38054938790E+03  0.45142348651E+03  0.12500000000E+03 0.  0.
</event>
<event>
 4    0  0.2236434E-002  0.2140740E+03  0.7546771E-02  0.1138380E+00
         21   -1    0    0  502  501  0.00000000000E+00  0.00000000000E+00  0.23845241329E+04  0.23845241329E+04  0.00000000000E+00 0.  1.
         21   -1    0    0  501  502 -0.00000000000E+00 -0.00000000000E+00 -0.19218794035E+02  0.19218794035E+02  0.00000000000E+00 0.  1.
         25    1    1    2    0    0  0.72755155541E+01  0.59993965047E+02  0.26784415810E+03  0.30169140193E+03  0.12500000000E+03 0.  0.
         25    1    1    2    0    0 -0.72755155541E+01 -0.59993965047E+02  0.20974611807E+04  0.21020515250E+04  0.12500000000E+03 0.  0.
</event>
<event>
 4    0  0.2236434E-002  0.1614835E+03  0.7546771E-02  0.1187032E+00
         21   -1    0    0  502  501  0.00000000000E+00  0.00000000000E+00  0.62503858158E+02  0.62503858158E+02  0.00000000000E+00 0. -1.
         21   -1    0    0  501  502 -0.00000000000E+00 -0.00000000000E+00 -0.41720518659E+03  0.41720518659E+03  0.00000000000E+00 0. -1.
         25    1    1    2    0    0  0.25344980588E+02  0.54585638459E+02 -0.54598496795E+02  0.14909042833E+03  0.12500000000E+03 0.  0.
         25    1    1    2    0    0 -0.25344980588E+02 -0.54585638459E+02 -0.30010283164E+03  0.33061861642E+03  0.12500000000E+03 0.  0.
</event>
<event>
 4    0  0.2236434E-002  0.1747256E+03  0.7546771E-02  0.1173007E+00
         21   -1    0    0  502  501  0.00000000000E+00  0.00000000000E+00  0.76724634713E+02  0.76724634713E+02  0.00000000000E+00 0.  1.
         21   -1    0    0  501  502 -0.00000000000E+00 -0.00000000000E+00 -0.39790410033E+03  0.39790410033E+03  0.00000000000E+00 0.  1.
         25    1    1    2    0    0  0.92192005943E+02 -0.74121510402E+02 -0.11960228260E+03  0.20957831536E+03  0.12500000000E+03 0.  0.
         25    1    1    2    0    0 -0.92192005943E+02  0.74121510402E+02 -0.20157718301E+03  0.26505041968E+03  0.12500000000E+03 0.  0.
</event>
<event>
 4    0  0.2236434E-002  0.1682937E+03  0.7546771E-02  0.1179639E+00
         21   -1    0    0  502  501  0.00000000000E+00  0.00000000000E+00  0.42191955152E+02  0.42191955152E+02  0.00000000000E+00 0. -1.
         21   -1    0    0  501  502 -0.00000000000E+00 -0.00000000000E+00 -0.67128386387E+03  0.67128386387E+03  0.00000000000E+00 0. -1.
         25    1    1    2    0    0 -0.51469197813E+01 -0.11213507077E+03 -0.29366751229E+03  0.33832879371E+03  0.12500000000E+03 0.  0.
         25    1    1    2    0    0  0.51469197813E+01  0.11213507077E+03 -0.33542439643E+03  0.37514702531E+03  0.12500000000E+03 0.  0.
</event>
<event>
 4    0  0.2236434E-002  0.1937511E+03  0.7546771E-02  0.1155121E+00
         21   -1    0    0  502  501  0.00000000000E+00  0.00000000000E+00  0.12993902875E+02  0.12993902875E+02  0.00000000000E+00 0.  1.
         21   -1    0    0  501  502 -0.00000000000E+00 -0.00000000000E+00 -0.28890094332E+04  0.28890094332E+04  0.00000000000E+00 0.  1.
         25    1    1    2    0    0 -0.65662087411E+02 -0.12593820375E+03 -0.17506289309E+04  0.17608232718E+04  0.12500000000E+03 0.  0.
         25    1    1    2    0    0  0.65662087411E+02  0.12593820375E+03 -0.11253865995E+04  0.11411800643E+04  0.12500000000E+03 0.  0.
</event>
<event>
 4    0  0.2236434E-002  0.2340551E+03  0.7546771E-02  0.1123818E+00
         21   -1    0    0  502  501  0.00000000000E+00  0.00000000000E+00  0.49215837472E+03  0.49215837472E+03  0.00000000000E+00 0.  1.
         21   -1    0    0  501  502 -0.00000000000E+00 -0.00000000000E+00 -0.11130929721E+03  0.11130929721E+03  0.00000000000E+00 0. -1.
         25    1    1    2    0    0 -0.16751692893E+03  0.97204732910E+02  0.24272876256E+03  0.33474308619E+03  0.12500000000E+03 0.  0.
         25    1    1    2    0    0  0.16751692893E+03 -0.97204732910E+02  0.13812031494E+03  0.26872458573E+03  0.12500000000E+03 0.  0.
</event>
<event>
 4    0  0.2236434E-002  0.1824228E+03  0.7546771E-02  0.1165479E+00
         21   -1    0    0  502  501  0.00000000000E+00  0.00000000000E+00  0.12780693081E+03  0.12780693081E+03  0.00000000000E+00 0. -1.
         21   -1    0    0  501  502 -0.00000000000E+00 -0.00000000000E+00 -0.26037762568E+03  0.26037762568E+03  0.00000000000E+00 0. -1.
         25    1    1    2    0    0  0.59241623065E+02  0.55421293701E+02  0.45669211059E+02  0.15585816160E+03  0.12500000000E+03 0.  0.
         25    1    1    2    0    0 -0.59241623065E+02 -0.55421293701E+02 -0.17823990593E+03  0.23232639489E+03  0.12500000000E+03 0.  0.
</event>
<event>
 4    0  0.2236434E-002  0.2197929E+03  0.7546771E-02  0.1134038E+00
         21   -1    0    0  502  501  0.00000000000E+00  0.00000000000E+00  0.45586894487E+03  0.45586894487E+03  0.00000000000E+00 0.  1.
         21   -1    0    0  501  502 -0.00000000000E+00 -0.00000000000E+00 -0.10597108488E+03  0.10597108488E+03  0.00000000000E+00 0.  1.
         25    1    1    2    0    0 -0.85266971356E+02 -0.10232762273E+03  0.33118489922E+03  0.37821929651E+03  0.12500000000E+03 0.  0.
         25    1    1    2    0    0  0.85266971356E+02  0.10232762273E+03  0.18712960767E+02  0.18362073325E+03  0.12500000000E+03 0.  0.
</event>
<event>
 4    0  0.2236434E-002  0.2027842E+03  0.7546771E-02  0.1147411E+00
         21   -1    0    0  502  501  0.00000000000E+00  0.00000000000E+00  0.13732044701E+03  0.13732044701E+03  0.00000000000E+00 0. -1.
         21   -1    0    0  501  502 -0.00000000000E+00 -0.00000000000E+00 -0.29945602279E+03  0.29945602279E+03  0.00000000000E+00 0. -1.
         25    1    1    2    0    0 -0.80948553276E+02 -0.13746476467E+03 -0.88467070132E+02  0.22113491878E+03  0.12500000000E+03 0.  0.
         25    1    1    2    0    0  0.80948553276E+02  0.13746476467E+03 -0.73668505654E+02  0.21564155103E+03  0.12500000000E+03 0.  0.
</event>
<event>
 4    0  0.2236434E-002  0.2244125E+03  0.7546771E-02  0.1130635E+00
         21   -1    0    0  502  501  0.00000000000E+00  0.00000000000E+00  0.46458353068E+02  0.46458353068E+02  0.00000000000E+00 0.  1.
         21   -1    0    0  501  502 -0.00000000000E+00 -0.00000000000E+00 -0.10840026546E+04  0.10840026546E+04  0.00000000000E+00 0.  1.
         25    1    1    2    0    0 -0.54854286958E+02  0.16864388625E+03 -0.66315883843E+03  0.69774952394E+03  0.12500000000E+03 0.  0.
         25    1    1    2    0    0  0.54854286958E+02 -0.16864388625E+03 -0.37438546309E+03  0.43271148372E+03  0.12500000000E+03 0.  0.
</event>
<event>
 4    0  0.2236434E-002  0.2196286E+03  0.7546771E-02  0.1134160E+00
         21   -1    0    0  502  501  0.00000000000E+00  0.00000000000E+00  0.27097689236E+03  0.27097689236E+03  0.00000000000E+00 0. -1.
         21   -1    0    0  501  502 -0.00000000000E+00 -0.00000000000E+00 -0.17801039841E+03  0.17801039841E+03  0.00000000000E+00 0. -1.
         25    1    1    2    0    0 -0.52788724426E+02  0.12500873939E+03 -0.75311017829E+02  0.19927514586E+03  0.12500000000E+03 0.  0.
         25    1    1    2    0    0  0.52788724426E+02 -0.12500873939E+03  0.16827751178E+03  0.24971214492E+03  0.12500000000E+03 0.  0.
</event>
<event>
 4    0  0.2236434E-002  0.3802740E+03  0.7546771E-02  0.1050833E+00
         21   -1    0    0  502  501  0.00000000000E+00  0.00000000000E+00  0.41675351452E+03  0.41675351452E+03  0.00000000000E+00 0.  1.
         21   -1    0    0  501  502 -0.00000000000E+00 -0.00000000000E+00 -0.34698767296E+03  0.34698767296E+03  0.00000000000E+00 0.  1.
         25    1    1    2    0    0  0.26751369599E+03  0.15169296963E+03 -0.15139250658E+03  0.36485480074E+03  0.12500000000E+03 0.  0.
         25    1    1    2    0    0 -0.26751369599E+03 -0.15169296963E+03  0.22115834813E+03  0.39888638674E+03  0.12500000000E+03 0.  0.
</event>
<event>
 4    0  0.2236434E-002  0.2962521E+03  0.7546771E-02  0.1087129E+00
         21   -1    0    0  502  501  0.00000000000E+00  0.00000000000E+00  0.13267555868E+03  0.13267555868E+03  0.00000000000E+00 0. -1.
         21   -1    0    0  501  502 -0.00000000000E+00 -0.00000000000E+00 -0.66150320477E+03  0.66150320477E+03  0.00000000000E+00 0. -1.
         25    1    1    2    0    0  0.26232128994E+03 -0.42966884099E+02 -0.31600865942E+03  0.43144534430E+03  0.12500000000E+03 0.  0.
         25    1    1    2    0    0 -0.26232128994E+03  0.42966884099E+02 -0.21281898667E+03  0.36273341915E+03  0.12500000000E+03 0.  0.
</event>
<event>
 4    0  0.2236434E-002  0.2104713E+03  0.7546771E-02  0.1141193E+00
         21   -1    0    0  502  501  0.00000000000E+00  0.00000000000E+00  0.12617398374E+04  0.12617398374E+04  0.00000000000E+00 0.  1.
         21   -1    0    0  501  502 -0.00000000000E+00 -0.00000000000E+00 -0.35108805189E+02  0.35108805189E+02  0.00000000000E+00 0.  1.
         25    1    1    2    0    0  0.15761503772E+03  0.36130133305E+02  0.45849727749E+03  0.50198868525E+03  0.12500000000E+03 0.  0.
         25    1    1    2    0    0 -0.15761503772E+03 -0.36130133305E+02  0.76813375476E+03  0.79485995738E+03  0.12500000000E+03 0.  0.
</event>
<event>
 4    0  0.2236434E-002  0.1983116E+03  0.7546771E-02  0.1151171E+00
         21   -1    0    0  502  501  0.00000000000E+00  0.00000000000E+00  0.11807967658E+03  0.11807967658E+03  0.00000000000E+00 0. -1.
         21   -1    0    0  501  502 -0.00000000000E+00 -0.00000000000E+00 -0.33305889320E+03  0.33305889320E+03  0.00000000000E+00 0. -1.
         25    1    1    2    0    0 -0.12885949313E+03  0.27463891658E+02 -0.19808262041E+03  0.26873920225E+03  0.12500000000E+03 0.  0.
         25    1    1    2    0    0  0.12885949313E+03 -0.27463891658E+02 -0.16896596203E+02  0.18239936754E+03  0.12500000000E+03 0.  0.
</event>
<event>
 4    0  0.2236434E-002  0.2570144E+03  0.7546771E-02  0.1108950E+00
         21   -1    0    0  502  501  0.00000000000E+00  0.00000000000E+00  0.47431269507E+03  0.47431269507E+03  0.00000000000E+00 0. -1.
         21   -1    0    0  501  502 -0.00000000000E+00 -0.00000000000E+00 -0.13926763393E+03  0.13926763393E+03  0.00000000000E+00 0. -1.
         25    1    1    2    0    0 -0.15717460311E+03 -0.49180230736E+02  0.34976283703E+03  0.40630234202E+03  0.12500000000E+03 0.  0.
         25    1    1    2    0    0  0.15717460311E+03  0.49180230736E+02 -0.14717775895E+02  0.20727798698E+03  0.12500000000E+03 0.  0.
</event>
<event>
 4    0  0.2236434E-002  0.3222158E+03  0.7546771E-02  0.1074634E+00
         21   -1    0    0  502  501  0.00000000000E+00  0.00000000000E+00  0.25247062300E+03  0.25247062300E+03  0.00000000000E+00 0.  1.
         21   -1    0    0  501  502 -0.00000000000E+00 -0.00000000000E+00 -0.41122801365E+03  0.41122801365E+03  0.00000000000E+00 0.  1.
         25    1    1    2    0    0 -0.47102937766E+02  0.81507568179E+02  0.21070867557E+03  0.26246012340E+03  0.12500000000E+03 0.  0.
         25    1    1    2    0    0  0.47102937766E+02 -0.81507568179E+02 -0.36946606623E+03  0.40123851324E+03  0.12500000000E+03 0.  0.
</event>
<event>
 4    0  0.2236434E-002  0.1777421E+03  0.7546771E-02  0.1170006E+00
         21   -1    0    0  502  501  0.00000000000E+00  0.00000000000E+00  0.77390178417E+02  0.77390178417E+02  0.00000000000E+00 0.  1.
         21   -1    0    0  501  502 -0.00000000000E+00 -0.00000000000E+00 -0.40822056038E+03  0.40822056038E+03  0.00000000000E+00 0.  1.
         25    1    1    2    0    0 -0.76050823675E+02  0.15231104870E+02 -0.30168926478E+03  0.33564434573E+03  0.12500000000E+03 0.  0.
         25    1    1    2    0    0  0.76050823675E+02 -0.15231104870E+02 -0.29141117177E+02  0.14996639306E+03  0.12500000000E+03 0.  0.
</event>
<event>
 4    0  0.2236434E-002  0.1988687E+03  0.7546771E-02  0.1150697E+00
         21   -1    0    0  502  501  0.00000000000E+00  0.00000000000E+00  0.40401184429E+03  0.40401184429E+03  0.00000000000E+00 0. -1.
         21   -1    0    0  501  502 -0.00000000000E+00 -0.00000000000E+00 -0.97890120999E+02  0.97890120999E+02  0.00000000000E+00 0. -1.
         25    1    1    2    0    0 -0.14376010449E+03 -0.43541201354E+02  0.10650806115E+03  0.22255734306E+03  0.12500000000E+03 0.  0.
         25    1    1    2    0    0  0.14376010449E+03  0.43541201354E+02  0.19961366214E+03  0.27934462223E+03  0.12500000000E+03 0.  0.
</event>
<event>
 4    0  0.2236434E-002  0.2071642E+03  0.7546771E-02  0.1143831E+00
         21   -1    0    0  502  501  0.00000000000E+00  0.00000000000E+00  0.36876489125E+02  0.36876489125E+02  0.00000000000E+00 0. -1.
         21   -1    0    0  501  502 -0.00000000000E+00 -0.00000000000E+00 -0.11638045191E+04  0.11638045191E+04  0.00000000000E+00 0. -1.
         25    1    1    2    0    0 -0.11733625945E+03 -0.58911209079E+02 -0.27289739279E+03  0.32762221434E+03  0.12500000000E+03 0.  0.
         25    1    1    2    0    0  0.11733625945E+03  0.58911209079E+02 -0.85403063719E+03  0.87305879389E+03  0.12500000000E+03 0.  0.
</event>
<event>
 4    0  0.2236434E-002  0.2617563E+03  0.7546771E-02  0.1106093E+00
         21   -1    0    0  502  501  0.00000000000E+00  0.00000000000E+00  0.41512243121E+03  0.41512243121E+03  0.00000000000E+00 0.  1.
         21   -1    0    0  501  502 -0.00000000000E+00 -0.00000000000E+00 -0.16505097880E+03  0.16505097880E+03  0.00000000000E+00 0.  1.
         25    1    1    2    0    0 -0.21985381149E+03 -0.72070886122E+01  0.50662518991E+02  0.25802971028E+03  0.12500000000E+03 0.  0.
         25    1    1    2    0    0  0.21985381149E+03  0.72070886122E+01  0.19940893342E+03  0.32214369974E+03  0.12500000000E+03 0.  0.
</event>
<event>
 4    0  0.2236434E-002  0.2843450E+03  0.7546771E-02  0.1093339E+00
         21   -1    0    0  502  501  0.00000000000E+00  0.00000000000E+00  0.28195872302E+03  0.28195872302E+03  0.00000000000E+00 0.  1.
         21   -1    0    0  501  502 -0.00000000000E+00 -0.00000000000E+00 -0.28675156554E+03  0.28675156554E+03  0.00000000000E+00 0.  1.
         25    1    1    2    0    0 -0.17646029316E+03  0.18339319655E+03  0.18953942068E+02  0.28417521272E+03  0.12500000000E+03 0.  0.
         25    1    1    2    0    0  0.17646029316E+03 -0.18339319655E+03 -0.23746784589E+02  0.28453507584E+03  0.12500000000E+03 0.  0.
</event>
<event>
 4    0  0.2236434E-002  0.2269498E+03  0.7546771E-02  0.1128805E+00
         21   -1    0    0  502  501  0.00000000000E+00  0.00000000000E+00  0.11161121352E+03  0.11161121352E+03  0.00000000000E+00 0.  1.
         21   -1    0    0  501  502 -0.00000000000E+00 -0.00000000000E+00 -0.46147882850E+03  0.46147882850E+03  0.00000000000E+00 0.  1.
         25    1    1    2    0    0  0.92297632573E+02  0.99404413352E+02 -0.34186892563E+03  0.38845778752E+03  0.12500000000E+03 0.  0.
         25    1    1    2    0    0 -0.92297632573E+02 -0.99404413352E+02 -0.79986893465E+01  0.18463225450E+03  0.12500000000E+03 0.  0.
</event>
<event>
 4    0  0.2236434E-002  0.3224426E+03  0.7546771E-02  0.1074531E+00
         21   -1    0    0  502  501  0.00000000000E+00  0.00000000000E+00  0.11219074039E+04  0.11219074039E+04  0.00000000000E+00 0. -1.
         21   -1    0    0  501  502 -0.00000000000E+00 -0.00000000000E+00 -0.92671863155E+02  0.92671863155E+02  0.00000000000E+00 0. -1.
         25    1    1    2    0    0  0.65601898414E+02  0.28710914739E+03  0.59016498241E+03  0.67130840755E+03  0.12500000000E+03 0.  0.
         25    1    1    2    0    0 -0.65601898414E+02 -0.28710914739E+03  0.43907055835E+03  0.54327085951E+03  0.12500000000E+03 0.  0.
</event>
<event>
 4    0  0.2236434E-002  0.1918856E+03  0.7546771E-02  0.1156772E+00
         21   -1    0    0  502  501  0.00000000000E+00  0.00000000000E+00  0.80925520260E+03  0.80925520260E+03  0.00000000000E+00 0.  1.
         21   -1    0    0  501  502 -0.00000000000E+00 -0.00000000000E+00 -0.45498736172E+02  0.45498736172E+02  0.00000000000E+00 0. -1.
         25    1    1    2    0    0 -0.13613279127E+03  0.28175900342E+02  0.47816831768E+03  0.51341597000E+03  0.12500000000E+03 0.  0.
         25    1    1    2    0    0  0.13613279127E+03 -0.28175900342E+02  0.28558814875E+03  0.34133796878E+03  0.12500000000E+03 0.  0.
</event>
<event>
 4    0  0.2236434E-002  0.2606827E+03  0.7546771E-02  0.1106734E+00
         21   -1    0    0  502  501  0.00000000000E+00  0.00000000000E+00  0.43163530837E+03  0.43163530837E+03  0.00000000000E+00 0. -1.
         21   -1    0    0  501  502 -0.00000000000E+00 -0.00000000000E+00 -0.15743719570E+03  0.15743719570E+03  0.00000000000E+00 0. -1.
         25    1    1    2    0    0 -0.17341748135E+03 -0.26803337047E+02 -0.28719614544E+02  0.21735192195E+03  0.12500000000E+03 0.  0.
         25    1    1    2    0    0  0.17341748135E+03  0.26803337047E+02  0.30291772721E+03  0.37172058212E+03  0.12500000000E+03 0.  0.
</event>
<event>
 4    0  0.2236434E-002  0.2349726E+03  0.7546771E-02  0.1123188E+00
         21   -1    0    0  502  501  0.00000000000E+00  0.00000000000E+00  0.12873758206E+04  0.12873758206E+04  0.00000000000E+00 0.  1.
         21   -1    0    0  501  502 -0.00000000000E+00 -0.00000000000E+00 -0.42887326725E+02  0.42887326725E+02  0.00000000000E+00 0.  1.
         25    1    1    2    0    0 -0.26972185662E+02 -0.59283639503E+02  0.90068895323E+02  0.16727060297E+03  0.12500000000E+03 0.  0.
         25    1    1    2    0    0  0.26972185662E+02  0.59283639503E+02  0.11544195986E+04  0.11629925444E+04  0.12500000000E+03 0.  0.
</event>
<event>
 4    0  0.2236434E-002  0.2162398E+03  0.7546771E-02  0.1136718E+00
         21   -1    0    0  502  501  0.00000000000E+00  0.00000000000E+00  0.45747292525E+03  0.45747292525E+03  0.00000000000E+00 0.  1.
         21   -1    0    0  501  502 -0.00000000000E+00 -0.00000000000E+00 -0.10221295933E+03  0.10221295933E+03  0.00000000000E+00 0.  1.
         25    1    1    2    0    0 -0.16598025082E+03  0.27589099796E+02  0.24640260673E+03  0.32349628544E+03  0.12500000000E+03 0.  0.
         25    1    1    2    0    0  0.16598025082E+03 -0.27589099796E+02  0.10885735919E+03  0.23618959914E+03  0.12500000000E+03 0.  0.
</event>
<event>
 4    0  0.2236434E-002  0.1809568E+03  0.7546771E-02  0.1166880E+00
         21   -1    0    0  502  501  0.00000000000E+00  0.00000000000E+00  0.19009880123E+03  0.19009880123E+03  0.00000000000E+00 0.  1.
         21   -1    0    0  501  502 -0.00000000000E+00 -0.00000000000E+00 -0.17225446645E+03  0.17225446645E+03  0.00000000000E+00 0.  1.
         25    1    1    2    0    0 -0.66888412582E+02 -0.49023155659E+02  0.11025300778E+03  0.18616674046E+03  0.12500000000E+03 0.  0.
         25    1    1    2    0    0  0.66888412582E+02  0.49023155659E+02 -0.92408673004E+02  0.17618652722E+03  0.12500000000E+03 0.  0.
</event>
<event>
 4    0  0.2236434E-002  0.2470312E+03  0.7546771E-02  0.1115196E+00
         21   -1    0    0  502  501  0.00000000000E+00  0.00000000000E+00  0.10380414974E+03  0.10380414974E+03  0.00000000000E+00 0.  1.
         21   -1    0    0  501  502 -0.00000000000E+00 -0.00000000000E+00 -0.58788043333E+03  0.58788043333E+03  0.00000000000E+00 0.  1.
         25    1    1    2    0    0  0.93547333923E+02 -0.15699972512E+03 -0.39539606087E+03  0.45317001481E+03  0.12500000000E+03 0.  0.
         25    1    1    2    0    0 -0.93547333923E+02  0.15699972512E+03 -0.88680222720E+02  0.23851456826E+03  0.12500000000E+03 0.  0.
</event>
<event>
 4    0  0.2236434E-002  0.2445968E+03  0.7546771E-02  0.1116768E+00
         21   -1    0    0  502  501  0.00000000000E+00  0.00000000000E+00  0.11643384753E+04  0.11643384753E+04  0.00000000000E+00 0.  1.
         21   -1    0    0  501  502 -0.00000000000E+00 -0.00000000000E+00 -0.51383314563E+02  0.51383314563E+02  0.00000000000E+00 0.  1.
         25    1    1    2    0    0  0.18885421475E+03  0.36544725553E+02  0.34558849078E+03  0.41479854912E+03  0.12500000000E+03 0.  0.
         25    1    1    2    0    0 -0.18885421475E+03 -0.36544725553E+02  0.76736666996E+03  0.80092324074E+03  0.12500000000E+03 0.  0.
</event>
<event>
 4    0  0.2236434E-002  0.2448239E+03  0.7546771E-02  0.1116620E+00
         21   -1    0    0  502  501  0.00000000000E+00  0.00000000000E+00  0.58256273443E+03  0.58256273443E+03  0.00000000000E+00 0. -1.
         21   -1    0    0  501  502 -0.00000000000E+00 -0.00000000000E+00 -0.10288800585E+03  0.10288800585E+03  0.00000000000E+00 0. -1.
         25    1    1    2    0    0 -0.16981938859E+03  0.77004053633E+02  0.10306726406E+03  0.24701439217E+03  0.12500000000E+03 0.  0.
         25    1    1    2    0    0  0.16981938859E+03 -0.77004053633E+02  0.37660746452E+03  0.43843634812E+03  0.12500000000E+03 0.  0.
</event>
<event>
 4    0  0.2236434E-002  0.2912671E+03  0.7546771E-02  0.1089689E+00
         21   -1    0    0  502  501  0.00000000000E+00  0.00000000000E+00  0.36437583283E+03  0.36437583283E+03  0.00000000000E+00 0. -1.
         21   -1    0    0  501  502 -0.00000000000E+00 -0.00000000000E+00 -0.23282692142E+03  0.23282692142E+03  0.00000000000E+00 0. -1.
         25    1    1    2    0    0 -0.16751219842E+02 -0.24549530960E+03 -0.29644224478E+02  0.27758301541E+03  0.12500000000E+03 0.  0.
         25    1    1    2    0    0  0.16751219842E+02  0.24549530960E+03  0.16119313589E+03  0.31961973884E+03  0.12500000000E+03 0.  0.
</event>
<event>
 4    0  0.2236434E-002  0.2807435E+03  0.7546771E-02  0.1095284E+00
         21   -1    0    0  502  501  0.00000000000E+00  0.00000000000E+00  0.38030659417E+03  0.38030659417E+03  0.00000000000E+00 0. -1.
         21   -1    0    0  501  502 -0.00000000000E+00 -0.00000000000E+00 -0.20724567757E+03  0.20724567757E+03  0.00000000000E+00 0. -1.
         25    1    1    2    0    0  0.94130107238E+02  0.66461527709E+02 -0.14725595990E+03  0.22491538293E+03  0.12500000000E+03 0.  0.
         25    1    1    2    0    0 -0.94130107238E+02 -0.66461527709E+02  0.32031687650E+03  0.36263688881E+03  0.12500000000E+03 0.  0.
</event>
<event>
 4    0  0.2236434E-002  0.2032025E+03  0.7546771E-02  0.1147065E+00
         21   -1    0    0  502  501  0.00000000000E+00  0.00000000000E+00  0.81516534339E+02  0.81516534339E+02  0.00000000000E+00 0. -1.
         21   -1    0    0  501  502 -0.00000000000E+00 -0.00000000000E+00 -0.50653829981E+03  0.50653829981E+03  0.00000000000E+00 0. -1.
         25    1    1    2    0    0 -0.33691229171E+02 -0.21398440727E+02 -0.43701599491E+03  0.45629044697E+03  0.12500000000E+03 0.  0.
         25    1    1    2    0    0  0.33691229171E+02  0.21398440727E+02  0.11994229441E+02  0.13176438718E+03  0.12500000000E+03 0.  0.
</event>
<event>
 4    0  0.2236434E-002  0.2939455E+03  0.7546771E-02  0.1088307E+00
         21   -1    0    0  502  501  0.00000000000E+00  0.00000000000E+00  0.14099363081E+03  0.14099363081E+03  0.00000000000E+00 0.  1.
         21   -1    0    0  501  502 -0.00000000000E+00 -0.00000000000E+00 -0.61282165682E+03  0.61282165682E+03  0.00000000000E+00 0.  1.
         25    1    1    2    0    0  0.13358875010E+02 -0.20880981060E+03 -0.25225133124E+02  0.24503327097E+03  0.12500000000E+03 0.  0.
         25    1    1    2    0    0 -0.13358875010E+02  0.20880981060E+03 -0.44660289288E+03  0.50878201666E+03  0.12500000000E+03 0.  0.
</event>
<event>
 4    0  0.2236434E-002  0.2612772E+03  0.7546771E-02  0.1106378E+00
         21   -1    0    0  502  501  0.00000000000E+00  0.00000000000E+00  0.19280642852E+03  0.19280642852E+03  0.00000000000E+00 0. -1.
         21   -1    0    0  501  502 -0.00000000000E+00 -0.00000000000E+00 -0.35406382294E+03  0.35406382294E+03  0.00000000000E+00 0. -1.
         25    1    1    2    0    0 -0.13760580415E+03 -0.11121772400E+03 -0.23349427330E+03  0.31851109106E+03  0.12500000000E+03 0.  0.
         25    1    1    2    0    0  0.13760580415E+03  0.11121772400E+03  0.72236878874E+02  0.22835916040E+03  0.12500000000E+03 0.  0.
</event>
<event>
 4    0  0.2236434E-002  0.2037546E+03  0.7546771E-02  0.1146609E+00
         21   -1    0    0  502  501  0.00000000000E+00  0.00000000000E+00  0.36126534651E+02  0.36126534651E+02  0.00000000000E+00 0. -1.
         21   -1    0    0  501  502 -0.00000000000E+00 -0.00000000000E+00 -0.11491817870E+04  0.11491817870E+04  0.00000000000E+00 0. -1.
         25    1    1    2    0    0 -0.14984002701E+03 -0.40317371326E+02 -0.68039142598E+03  0.70896757096E+03  0.12500000000E+03 0.  0.
         25    1    1    2    0    0  0.14984002701E+03  0.40317371326E+02 -0.43266382640E+03  0.47634075073E+03  0.12500000000E+03 0.  0.
</event>
<event>
 4    0  0.2236434E-002  0.2287123E+03  0.7546771E-02  0.1127549E+00
         21   -1    0    0  502  501  0.00000000000E+00  0.00000000000E+00  0.24954546521E+04  0.24954546521E+04  0.00000000000E+00 0. -1.
         21   -1    0    0  501  502 -0.00000000000E+00 -0.00000000000E+00 -0.20961829486E+02  0.20961829486E+02  0.00000000000E+00 0. -1.
         25    1    1    2    0    0  0.14542802411E+02  0.51177148342E+02  0.22494460343E+04  0.22535445535E+04  0.12500000000E+03 0.  0.
         25    1    1    2    0    0 -0.14542802411E+02 -0.51177148342E+02  0.22504678827E+03  0.26287192799E+03  0.12500000000E+03 0.  0.
</event>
<event>
 4    0  0.2236434E-002  0.3775219E+03  0.7546771E-02  0.1051854E+00
         21   -1    0    0  502  501  0.00000000000E+00  0.00000000000E+00  0.65853516115E+03  0.65853516115E+03  0.00000000000E+00 0.  1.
         21   -1    0    0  501  502 -0.00000000000E+00 -0.00000000000E+00 -0.21642390476E+03  0.21642390476E+03  0.00000000000E+00 0.  1.
         25    1    1    2    0    0 -0.84594259855E+02 -0.29787101828E+03  0.16977029233E+02  0.33435991364E+03  0.12500000000E+03 0.  0.
         25    1    1    2    0    0  0.84594259855E+02  0.29787101828E+03  0.42513422716E+03  0.54059915227E+03  0.12500000000E+03 0.  0.
</event>
<event>
 4    0  0.2236434E-002  0.2235107E+03  0.7546771E-02  0.1131292E+00
         21   -1    0    0  502  501  0.00000000000E+00  0.00000000000E+00  0.51604321813E+03  0.51604321813E+03  0.00000000000E+00 0. -1.
         21   -1    0    0  501  502 -0.00000000000E+00 -0.00000000000E+00 -0.96807878690E+02  0.96807878690E+02  0.00000000000E+00 0. -1.
         25    1    1    2    0    0  0.14740663784E+03 -0.98460811981E+02  0.13567696602E+03  0.25584465498E+03  0.12500000000E+03 0.  0.
         25    1    1    2    0    0 -0.14740663784E+03  0.98460811981E+02  0.28355837342E+03  0.35700644183E+03  0.12500000000E+03 0.  0.
</event>
<event>
 4    0  0.2236434E-002  0.2602011E+03  0.7546771E-02  0.1107022E+00
         21   -1    0    0  502  501  0.00000000000E+00  0.00000000000E+00  0.19143243165E+03  0.19143243165E+03  0.00000000000E+00 0.  1.
         21   -1    0    0  501  502 -0.00000000000E+00 -0.00000000000E+00 -0.35367380084E+03  0.35367380084E+03  0.00000000000E+00 0. -1.
         25    1    1    2    0    0  0.18698411093E+03  0.10123375080E+03  0.56887157549E+01  0.24671581127E+03  0.12500000000E+03 0.  0.
         25    1    1    2    0    0 -0.18698411093E+03 -0.10123375080E+03 -0.16793008494E+03  0.29839042121E+03  0.12500000000E+03 0.  0.
</event>
<event>
 4    0  0.2236434E-002  0.1856925E+03  0.7546771E-02  0.1162405E+00
         21   -1    0    0  502  501  0.00000000000E+00  0.00000000000E+00  0.52791196728E+03  0.52791196728E+03  0.00000000000E+00 0.  1.
         21   -1    0    0  501  502 -0.00000000000E+00 -0.00000000000E+00 -0.65317122376E+02  0.65317122376E+02  0.00000000000E+00 0.  1.
         25    1    1    2    0    0  0.11858799383E+02 -0.78522245159E+02  0.52349975511E+02  0.15707289404E+03  0.12500000000E+03 0.  0.
         25    1    1    2    0    0 -0.11858799383E+02  0.78522245159E+02  0.41024486939E+03  0.43615619561E+03  0.12500000000E+03 0.  0.
</event>
<event>
 4    0  0.2236434E-002  0.2068406E+03  0.7546771E-02  0.1144093E+00
         21   -1    0    0  502  501  0.00000000000E+00  0.00000000000E+00  0.17117212554E+03  0.17117212554E+03  0.00000000000E+00 0.  1.
         21   -1    0    0  501  502 -0.00000000000E+00 -0.00000000000E+00 -0.24994155162E+03  0.24994155162E+03  0.00000000000E+00 0.  1.
         25    1    1    2    0    0 -0.33077630026E+01  0.11358565975E+03  0.82113717399E+02  0.18783052463E+03  0.12500000000E+03 0.  0.
         25    1    1    2    0    0  0.33077630026E+01 -0.11358565975E+03 -0.16088314348E+03  0.23328315253E+03  0.12500000000E+03 0.  0.
</event>
<event>
 4    0  0.2236434E-002  0.2461042E+03  0.7546771E-02  0.1115792E+00
         21   -1    0    0  502  501  0.00000000000E+00  0.00000000000E+00  0.94306103348E+02  0.94306103348E+02  0.00000000000E+00 0.  1.
         21   -1    0    0  501  502 -0.00000000000E+00 -0.00000000000E+00 -0.64224154780E+03  0.64224154780E+03  0.00000000000E+00 0.  1.
         25    1    1    2    0    0 -0.18100968198E+03 -0.55441525065E+02 -0.41674812309E+03  0.47449158662E+03  0.12500000000E+03 0.  0.
         25    1    1    2    0    0  0.18100968198E+03  0.55441525065E+02 -0.13118732136E+03  0.26205606453E+03  0.12500000000E+03 0.  0.
</event>
<event>
 4    0  0.2236434E-002  0.2681208E+03  0.7546771E-02  0.1102360E+00
         21   -1    0    0  502  501  0.00000000000E+00  0.00000000000E+00  0.11467500277E+04  0.11467500277E+04  0.00000000000E+00 0.  1.
         21   -1    0    0  501  502 -0.00000000000E+00 -0.00000000000E+00 -0.62689126106E+02  0.62689126106E+02  0.00000000000E+00 0.  1.
         25    1    1    2    0    0  0.18187742261E+03  0.14988672123E+02  0.88377897279E+03  0.91104024603E+03  0.12500000000E+03 0.  0.
         25    1    1    2    0    0 -0.18187742261E+03 -0.14988672123E+02  0.20028192877E+03  0.29839890774E+03  0.12500000000E+03 0.  0.
</event>
<event>
 4    0  0.2236434E-002  0.2904444E+03  0.7546771E-02  0.1090117E+00
         21   -1    0    0  502  501  0.00000000000E+00  0.00000000000E+00  0.27475876834E+03  0.27475876834E+03  0.00000000000E+00 0.  1.
         21   -1    0    0  501  502 -0.00000000000E+00 -0.00000000000E+00 -0.30702555818E+03  0.30702555818E+03  0.00000000000E+00 0.  1.
         25    1    1    2    0    0  0.15037842962E+03 -0.12475960018E+03 -0.19120083809E+03  0.30060171393E+03  0.12500000000E+03 0.  0.
         25    1    1    2    0    0 -0.15037842962E+03  0.12475960018E+03  0.15893404825E+03  0.28118261259E+03  0.12500000000E+03 0.  0.
</event>
<event>
 4    0  0.2236434E-002  0.2090594E+03  0.7546771E-02  0.1142313E+00
         21   -1    0    0  502  501  0.00000000000E+00  0.00000000000E+00  0.46592766714E+03  0.46592766714E+03  0.00000000000E+00 0. -1.
         21   -1    0    0  501  502 -0.00000000000E+00 -0.00000000000E+00 -0.93803864838E+02  0.93803864838E+02  0.00000000000E+00 0. -1.
         25    1    1    2    0    0 -0.47589766945E+02 -0.66681129151E+02 -0.96327418205E+01  0.14976297479E+03  0.12500000000E+03 0.  0.
         25    1    1    2    0    0  0.47589766945E+02  0.66681129151E+02  0.38175654412E+03  0.40996855718E+03  0.12500000000E+03 0.  0.
</event>
<event>
 4    0  0.2236434E-002  0.2631658E+03  0.7546771E-02  0.1105256E+00
         21   -1    0    0  502  501  0.00000000000E+00  0.00000000000E+00  0.19365678310E+03  0.19365678310E+03  0.00000000000E+00 0.  1.
         21   -1    0    0  501  502 -0.00000000000E+00 -0.00000000000E+00 -0.35762351563E+03  0.35762351563E+03  0.00000000000E+00 0.  1.
         25    1    1    2    0    0 -0.15253888690E+01 -0.19817388686E+03  0.43512627323E+02  0.23831400500E+03  0.12500000000E+03 0.  0.
         25    1    1    2    0    0  0.15253888690E+01  0.19817388686E+03 -0.20747935986E+03  0.31296629373E+03  0.12500000000E+03 0.  0.
</event>
<event>
 4    0  0.2236434E-002  0.1853348E+03  0.7546771E-02  0.1162738E+00
         21   -1    0    0  502  501  0.00000000000E+00  0.00000000000E+00  0.10238592321E+03  0.10238592321E+03  0.00000000000E+00 0. -1.
         21   -1    0    0  501  502 -0.00000000000E+00 -0.00000000000E+00 -0.33548548219E+03  0.33548548219E+03  0.00000000000E+00 0. -1.
         25    1    1    2    0    0  0.76664531564E+00 -0.17338186313E+02  0.43788531214E+02  0.13358007305E+03  0.12500000000E+03 0.  0.
         25    1    1    2    0    0 -0.76664531564E+00  0.17338186313E+02 -0.27688809020E+03  0.30429133235E+03  0.12500000000E+03 0.  0.
</event>
<event>
 4    0  0.2236434E-002  0.2229408E+03  0.7546771E-02  0.1131709E+00
         21   -1    0    0  502  501  0.00000000000E+00  0.00000000000E+00  0.52027432900E+03  0.52027432900E+03  0.00000000000E+00 0.  1.
         21   -1    0    0  501  502 -0.00000000000E+00 -0.00000000000E+00 -0.95531530390E+02  0.95531530390E+02  0.00000000000E+00 0.  1.
         25    1    1    2    0    0  0.48124304195E+02  0.89634154132E+02  0.42511136270E+03  0.45463710907E+03  0.12500000000E+03 0.  0.
         25    1    1    2    0    0 -0.48124304195E+02 -0.89634154132E+02 -0.36856409303E+00  0.16116875032E+03  0.12500000000E+03 0.  0.
</event>
<event>
 4    0  0.2236434E-002  0.2774010E+03  0.7546771E-02  0.1097117E+00
         21   -1    0    0  502  501  0.00000000000E+00  0.00000000000E+00  0.74107498469E+03  0.74107498469E+03  0.00000000000E+00 0. -1.
         21   -1    0    0  501  502 -0.00000000000E+00 -0.00000000000E+00 -0.10383743206E+03  0.10383743206E+03  0.00000000000E+00 0. -1.
         25    1    1    2    0    0 -0.20528646743E+03 -0.30573896372E+02  0.52434682248E+03  0.57761742278E+03  0.12500000000E+03 0.  0.
         25    1    1    2    0    0  0.20528646743E+03  0.30573896372E+02  0.11289073015E+03  0.26729499397E+03  0.12500000000E+03 0.  0.
</event>
<event>
 4    0  0.2236434E-002  0.1841068E+03  0.7546771E-02  0.1163887E+00
         21   -1    0    0  502  501  0.00000000000E+00  0.00000000000E+00  0.51252911194E+03  0.51252911194E+03  0.00000000000E+00 0.  1.
         21   -1    0    0  501  502 -0.00000000000E+00 -0.00000000000E+00 -0.66133405686E+02  0.66133405686E+02  0.00000000000E+00 0.  1.
         25    1    1    2    0    0  0.75371371058E+02 -0.10540197492E+03  0.16274201084E+03  0.24269400896E+03  0.12500000000E+03 0.  0.
         25    1    1    2    0    0 -0.75371371058E+02  0.10540197492E+03  0.28365369542E+03  0.33596850867E+03  0.12500000000E+03 0.  0.
</event>
<event>
 4    0  0.2236434E-002  0.3807375E+03  0.7546771E-02  0.1050661E+00
         21   -1    0    0  502  501  0.00000000000E+00  0.00000000000E+00  0.62485079956E+02  0.62485079956E+02  0.00000000000E+00 0. -1.
         21   -1    0    0  501  502 -0.00000000000E+00 -0.00000000000E+00 -0.23199309641E+04  0.23199309641E+04  0.00000000000E+00 0. -1.
         25    1    1    2    0    0  0.21625969655E+02  0.25148148689E+02 -0.22491067591E+04  0.22528218584E+04  0.12500000000E+03 0.  0.
         25    1    1    2    0    0 -0.21625969655E+02 -0.25148148689E+02 -0.83391250523E+01  0.12959418564E+03  0.12500000000E+03 0.  0.
</event>
<event>
 4    0  0.2236434E-002  0.2019665E+03  0.7546771E-02  0.1148090E+00
         21   -1    0    0  502  501  0.00000000000E+00  0.00000000000E+00  0.15036406947E+03  0.15036406947E+03  0.00000000000E+00 0.  1.
         21   -1    0    0  501  502 -0.00000000000E+00 -0.00000000000E+00 -0.27127807622E+03  0.27127807622E+03  0.00000000000E+00 0.  1.
         25    1    1    2    0    0 -0.27671204433E+02 -0.11698321268E+03 -0.16850701127E+03  0.24180649381E+03  0.12500000000E+03 0.  0.
         25    1    1    2    0    0  0.27671204433E+02  0.11698321268E+03  0.47593004515E+02  0.17983565187E+03  0.12500000000E+03 0.  0.
</event>
<event>
 4    0  0.2236434E-002  0.1682617E+03  0.7546771E-02  0.1179673E+00
         21   -1    0    0  502  501  0.00000000000E+00  0.00000000000E+00  0.15964539610E+03  0.15964539610E+03  0.00000000000E+00 0.  1.
         21   -1    0    0  501  502 -0.00000000000E+00 -0.00000000000E+00 -0.17734300939E+03  0.17734300939E+03  0.00000000000E+00 0.  1.
         25    1    1    2    0    0 -0.52563646284E+02 -0.32495552137E+02  0.85451900194E+02  0.16354181443E+03  0.12500000000E+03 0.  0.
         25    1    1    2    0    0  0.52563646284E+02  0.32495552137E+02 -0.10314951348E+03  0.17344659106E+03  0.12500000000E+03 0.  0.
</event>
<event>
 4    0  0.2236434E-002  0.2229710E+03  0.7546771E-02  0.1131687E+00
         21   -1    0    0  502  501  0.00000000000E+00  0.00000000000E+00  0.35584590988E+02  0.35584590988E+02  0.00000000000E+00 0. -1.
         21   -1    0    0  501  502 -0.00000000000E+00 -0.00000000000E+00 -0.13971234402E+04  0.13971234402E+04  0.00000000000E+00 0. -1.
         25    1    1    2    0    0 -0.32171474402E+02 -0.92749187656E+02 -0.17836764126E+03  0.23890883413E+03  0.12500000000E+03 0.  0.
         25    1    1    2    0    0  0.32171474402E+02  0.92749187656E+02 -0.11831712080E+04  0.11937991971E+04  0.12500000000E+03 0.  0.
</event>
<event>
 4    0  0.2236434E-002  0.1959941E+03  0.7546771E-02  0.1153164E+00
         21   -1    0    0  502  501  0.00000000000E+00  0.00000000000E+00  0.57948440542E+03  0.57948440542E+03  0.00000000000E+00 0.  1.
         21   -1    0    0  501  502 -0.00000000000E+00 -0.00000000000E+00 -0.66289400850E+02  0.66289400850E+02  0.00000000000E+00 0.  1.
         25    1    1    2    0    0 -0.13116977213E+03  0.46466559116E+02  0.16019775539E+03  0.24627823913E+03  0.12500000000E+03 0.  0.
         25    1    1    2    0    0  0.13116977213E+03 -0.46466559116E+02  0.35299724918E+03  0.39949556714E+03  0.12500000000E+03 0.  0.
</event>
<event>
 4    0  0.2236434E-002  0.2174237E+03  0.7546771E-02  0.1135818E+00
         21   -1    0    0  502  501  0.00000000000E+00  0.00000000000E+00  0.60973954325E+02  0.60973954325E+02  0.00000000000E+00 0.  1.
         21   -1    0    0  501  502 -0.00000000000E+00 -0.00000000000E+00 -0.77529915774E+03  0.77529915774E+03  0.00000000000E+00 0.  1.
         25    1    1    2    0    0  0.11668458563E+03  0.13419998118E+03 -0.34791391739E+03  0.41023654321E+03  0.12500000000E+03 0.  0.
         25    1    1    2    0    0 -0.11668458563E+03 -0.13419998118E+03 -0.36641128602E+03  0.42603656885E+03  0.12500000000E+03 0.  0.
</event>
<event>
 4    0  0.2236434E-002  0.2347101E+03  0.7546771E-02  0.1123368E+00
         21   -1    0    0  502  501  0.00000000000E+00  0.00000000000E+00  0.71429494629E+03  0.71429494629E+03  0.00000000000E+00 0.  1.
         21   -1    0    0  501  502 -0.00000000000E+00 -0.00000000000E+00 -0.77123365584E+02  0.77123365584E+02  0.00000000000E+00 0.  1.
         25    1    1    2    0    0  0.17897942923E+03 -0.28372266546E+02  0.18135735717E+03  0.28522642338E+03  0.12500000000E+03 0.  0.
         25    1    1    2    0    0 -0.17897942923E+03  0.28372266546E+02  0.45581422354E+03  0.50619188849E+03  0.12500000000E+03 0.  0.
</event>
<event>
 4    0  0.2236434E-002  0.2227794E+03  0.7546771E-02  0.1131828E+00
         21   -1    0    0  502  501  0.00000000000E+00  0.00000000000E+00  0.25287379177E+03  0.25287379177E+03  0.00000000000E+00 0. -1.
         21   -1    0    0  501  502 -0.00000000000E+00 -0.00000000000E+00 -0.19626659884E+03  0.19626659884E+03  0.00000000000E+00 0. -1.
         25    1    1    2    0    0  0.77406356343E+01 -0.10553585763E+03  0.18054054858E+03  0.24375730629E+03  0.12500000000E+03 0.  0.
         25    1    1    2    0    0 -0.77406356343E+01  0.10553585763E+03 -0.12393335565E+03  0.20538308433E+03  0.12500000000E+03 0.  0.
</event>
<event>
 4    0  0.2236434E-002  0.1657118E+03  0.7546771E-02  0.1182395E+00
         21   -1    0    0  502  501  0.00000000000E+00  0.00000000000E+00  0.27683129102E+02  0.27683129102E+02  0.00000000000E+00 0. -1.
         21   -1    0    0  501  502 -0.00000000000E+00 -0.00000000000E+00 -0.99195410294E+03  0.99195410294E+03  0.00000000000E+00 0. -1.
         25    1    1    2    0    0 -0.44328960776E+02  0.89513689870E+01 -0.78654506226E+03  0.79769876440E+03  0.12500000000E+03 0.  0.
         25    1    1    2    0    0  0.44328960776E+02 -0.89513689870E+01 -0.17772591158E+03  0.22193846764E+03  0.12500000000E+03 0.  0.
</event>
<event>
 4    0  0.2236434E-002  0.2591798E+03  0.7546771E-02  0.1107637E+00
         21   -1    0    0  502  501  0.00000000000E+00  0.00000000000E+00  0.18412399983E+03  0.18412399983E+03  0.00000000000E+00 0.  1.
         21   -1    0    0  501  502 -0.00000000000E+00 -0.00000000000E+00 -0.36483112538E+03  0.36483112538E+03  0.00000000000E+00 0.  1.
         25    1    1    2    0    0  0.84883636211E+02  0.19761109795E+03 -0.16740646357E+03  0.29984212808E+03  0.12500000000E+03 0.  0.
         25    1    1    2    0    0 -0.84883636211E+02 -0.19761109795E+03 -0.13300661980E+02  0.24911299713E+03  0.12500000000E+03 0.  0.
</event>
<event>
 4    0  0.2236434E-002  0.2208559E+03  0.7546771E-02  0.1133247E+00
         21   -1    0    0  502  501  0.00000000000E+00  0.00000000000E+00  0.28687832358E+03  0.28687832358E+03  0.00000000000E+00 0. -1.
         21   -1    0    0  501  502 -0.00000000000E+00 -0.00000000000E+00 -0.17002789699E+03  0.17002789699E+03  0.00000000000E+00 0. -1.
         25    1    1    2    0    0 -0.75178702813E+02 -0.11211344974E+03 -0.67970796869E+02  0.19612825446E+03  0.12500000000E+03 0.  0.
         25    1    1    2    0    0  0.75178702813E+02  0.11211344974E+03  0.18482122347E+03  0.26077796612E+03  0.12500000000E+03 0.  0.
</event>
<event>
 4    0  0.2236434E-002  0.1769239E+03  0.7546771E-02  0.1170814E+00
         21   -1    0    0  502  501  0.00000000000E+00  0.00000000000E+00  0.13543552684E+03  0.13543552684E+03  0.00000000000E+00 0. -1.
         21   -1    0    0  501  502 -0.00000000000E+00 -0.00000000000E+00 -0.23112146108E+03  0.23112146108E+03  0.00000000000E+00 0. -1.
         25    1    1    2    0    0  0.51168504932E+01 -0.12205367726E+03 -0.19401905338E+02  0.17585424710E+03  0.12500000000E+03 0.  0.
         25    1    1    2    0    0 -0.51168504932E+01  0.12205367726E+03 -0.76284028903E+02  0.19070274082E+03  0.12500000000E+03 0.  0.
</event>
<event>
 4    0  0.2236434E-002  0.3394775E+03  0.7546771E-02  0.1067019E+00
         21   -1    0    0  502  501  0.00000000000E+00  0.00000000000E+00  0.79921023757E+03  0.79921023757E+03  0.00000000000E+00 0. -1.
         21   -1    0    0  501  502 -0.00000000000E+00 -0.00000000000E+00 -0.14419860046E+03  0.14419860046E+03  0.00000000000E+00 0. -1.
         25    1    1    2    0    0 -0.18146121459E+02  0.28625004632E+03  0.51053865268E+03  0.59878467467E+03  0.12500000000E+03 0.  0.
         25    1    1    2    0    0  0.18146121459E+02 -0.28625004632E+03  0.14447298443E+03  0.34462416336E+03  0.12500000000E+03 0.  0.
</event>
<event>
 4    0  0.2236434E-002  0.4019910E+03  0.7546771E-02  0.1043092E+00
         21   -1    0    0  502  501  0.00000000000E+00  0.00000000000E+00  0.18991997051E+03  0.18991997051E+03  0.00000000000E+00 0. -1.
         21   -1    0    0  501  502 -0.00000000000E+00 -0.00000000000E+00 -0.85086766137E+03  0.85086766137E+03  0.00000000000E+00 0. -1.
         25    1    1    2    0    0 -0.94523279064E+02 -0.21451869058E+03 -0.72102817310E+03  0.76841365507E+03  0.12500000000E+03 0.  0.
         25    1    1    2    0    0  0.94523279064E+02  0.21451869058E+03  0.60080482239E+02  0.27237397680E+03  0.12500000000E+03 0.  0.
</event>
<event>
 4    0  0.2236434E-002  0.1853541E+03  0.7546771E-02  0.1162720E+00
         21   -1    0    0  502  501  0.00000000000E+00  0.00000000000E+00  0.12099861954E+03  0.12099861954E+03  0.00000000000E+00 0.  1.
         21   -1    0    0  501  502 -0.00000000000E+00 -0.00000000000E+00 -0.28393814787E+03  0.28393814787E+03  0.00000000000E+00 0.  1.
         25    1    1    2    0    0  0.13684283210E+03  0.11137128379E+01 -0.79306262613E+02  0.20159782822E+03  0.12500000000E+03 0.  0.
         25    1    1    2    0    0 -0.13684283210E+03 -0.11137128379E+01 -0.83633265721E+02  0.20333893919E+03  0.12500000000E+03 0.  0.
</event>
<event>
 4    0  0.2236434E-002  0.1930404E+03  0.7546771E-02  0.1155747E+00
         21   -1    0    0  502  501  0.00000000000E+00  0.00000000000E+00  0.17305614736E+03  0.17305614736E+03  0.00000000000E+00 0. -1.
         21   -1    0    0  501  502 -0.00000000000E+00 -0.00000000000E+00 -0.21533244162E+03  0.21533244162E+03  0.00000000000E+00 0. -1.
         25    1    1    2    0    0  0.12523489995E+03 -0.29317685214E+02 -0.92953208636E+02  0.20201140024E+03  0.12500000000E+03 0.  0.
         25    1    1    2    0    0 -0.12523489995E+03  0.29317685214E+02  0.50676914380E+02  0.18637718874E+03  0.12500000000E+03 0.  0.
</event>
<event>
 4    0  0.2236434E-002  0.3199121E+03  0.7546771E-02  0.1075690E+00
         21   -1    0    0  502  501  0.00000000000E+00  0.00000000000E+00  0.97548689270E+03  0.97548689270E+03  0.00000000000E+00 0.  1.
         21   -1    0    0  501  502 -0.00000000000E+00 -0.00000000000E+00 -0.10491552611E+03  0.10491552611E+03  0.00000000000E+00 0.  1.
         25    1    1    2    0    0  0.21295634438E+03  0.14821715350E+03  0.67047940252E+03  0.72971662884E+03  0.12500000000E+03 0.  0.
         25    1    1    2    0    0 -0.21295634438E+03 -0.14821715350E+03  0.20009196407E+03  0.35068578997E+03  0.12500000000E+03 0.  0.
</event>
<event>
 4    0  0.2236434E-002  0.2525330E+03  0.7546771E-02  0.1111714E+00
         21   -1    0    0  502  501  0.00000000000E+00  0.00000000000E+00  0.40186209313E+03  0.40186209313E+03  0.00000000000E+00 0. -1.
         21   -1    0    0  501  502 -0.00000000000E+00 -0.00000000000E+00 -0.15869355466E+03  0.15869355466E+03  0.00000000000E+00 0. -1.
         25    1    1    2    0    0 -0.13939805857E+03  0.11943585504E+03  0.25500467427E+03  0.33815547623E+03  0.12500000000E+03 0.  0.
         25    1    1    2    0    0  0.13939805857E+03 -0.11943585504E+03 -0.11836135796E+02  0.22240017156E+03  0.12500000000E+03 0.  0.
</event>
<event>
 4    0  0.2236434E-002  0.2481787E+03  0.7546771E-02  0.1114461E+00
         21   -1    0    0  502  501  0.00000000000E+00  0.00000000000E+00  0.68710470986E+03  0.68710470986E+03  0.00000000000E+00 0.  1.
         21   -1    0    0  501  502 -0.00000000000E+00 -0.00000000000E+00 -0.89640850413E+02  0.89640850413E+02  0.00000000000E+00 0.  1.
         25    1    1    2    0    0 -0.33853250118E+02  0.88223832486E+02  0.59990009177E+03  0.62002790846E+03  0.12500000000E+03 0.  0.
         25    1    1    2    0    0  0.33853250118E+02 -0.88223832486E+02 -0.24362323242E+01  0.15671765181E+03  0.12500000000E+03 0.  0.
</event>
<event>
 4    0  0.2236434E-002  0.2223144E+03  0.7546771E-02  0.1132169E+00
         21   -1    0    0  502  501  0.00000000000E+00  0.00000000000E+00  0.46298748228E+02  0.46298748228E+02  0.00000000000E+00 0.  1.
         21   -1    0    0  501  502 -0.00000000000E+00 -0.00000000000E+00 -0.10674948545E+04  0.10674948545E+04  0.00000000000E+00 0.  1.
         25    1    1    2    0    0  0.14058141532E+03  0.10092809638E+03 -0.35518604432E+03  0.41440528598E+03  0.12500000000E+03 0.  0.
         25    1    1    2    0    0 -0.14058141532E+03 -0.10092809638E+03 -0.66601006196E+03  0.69938831675E+03  0.12500000000E+03 0.  0.
</event>
<event>
 4    0  0.2236434E-002  0.2175719E+03  0.7546771E-02  0.1135706E+00
         21   -1    0    0  502  501  0.00000000000E+00  0.00000000000E+00  0.12901443430E+04  0.12901443430E+04  0.00000000000E+00 0. -1.
         21   -1    0    0  501  502 -0.00000000000E+00 -0.00000000000E+00 -0.36691657825E+02  0.36691657825E+02  0.00000000000E+00 0. -1.
         25    1    1    2    0    0  0.66401979294E+02  0.12842294030E+03  0.30968597661E+03  0.36391218523E+03  0.12500000000E+03 0.  0.
         25    1    1    2    0    0 -0.66401979294E+02 -0.12842294030E+03  0.94376670860E+03  0.96292381563E+03  0.12500000000E+03 0.  0.
</event>
<event>
 4    0  0.2236434E-002  0.1870792E+03  0.7546771E-02  0.1161122E+00
         21   -1    0    0  502  501  0.00000000000E+00  0.00000000000E+00  0.68334717231E+02  0.68334717231E+02  0.00000000000E+00 0. -1.
         21   -1    0    0  501  502 -0.00000000000E+00 -0.00000000000E+00 -0.51216473059E+03  0.51216473059E+03  0.00000000000E+00 0. -1.
         25    1    1    2    0    0 -0.32872972316E+02  0.10349097235E+02 -0.12689980441E+02  0.13028342844E+03  0.12500000000E+03 0.  0.
         25    1    1    2    0    0  0.32872972316E+02 -0.10349097235E+02 -0.43114003292E+03  0.45021601938E+03  0.12500000000E+03 0.  0.
</event>
<event>
 4    0  0.2236434E-002  0.1864475E+03  0.7546771E-02  0.1161705E+00
         21   -1    0    0  502  501  0.00000000000E+00  0.00000000000E+00  0.13564542835E+04  0.13564542835E+04  0.00000000000E+00 0.  1.
         21   -1    0    0  501  502 -0.00000000000E+00 -0.00000000000E+00 -0.25627593633E+02  0.25627593633E+02  0.00000000000E+00 0.  1.
         25    1    1    2    0    0  0.86397842464E+02  0.71815182682E+02  0.36623772093E+03  0.40296038996E+03  0.12500000000E+03 0.  0.
         25    1    1    2    0    0 -0.86397842464E+02 -0.71815182682E+02  0.96458896897E+03  0.97912148720E+03  0.12500000000E+03 0.  0.
</event>
<event>
 4    0  0.2236434E-002  0.2260862E+03  0.7546771E-02  0.1129425E+00
         21   -1    0    0  502  501  0.00000000000E+00  0.00000000000E+00  0.10551060520E+03  0.10551060520E+03  0.00000000000E+00 0.  1.
         21   -1    0    0  501  502 -0.00000000000E+00 -0.00000000000E+00 -0.48445328935E+03  0.48445328935E+03  0.00000000000E+00 0.  1.
         25    1    1    2    0    0  0.24772110688E+01  0.10059913315E+02 -0.43489500232E+03  0.45262125610E+03  0.12500000000E+03 0.  0.
         25    1    1    2    0    0 -0.24772110688E+01 -0.10059913315E+02  0.55952318169E+02  0.13734263846E+03  0.12500000000E+03 0.  0.
</event>
<event>
 4    0  0.2236434E-002  0.2407967E+03  0.7546771E-02  0.1119263E+00
         21   -1    0    0  502  501  0.00000000000E+00  0.00000000000E+00  0.20696266350E+03  0.20696266350E+03  0.00000000000E+00 0. -1.
         21   -1    0    0  501  502 -0.00000000000E+00 -0.00000000000E+00 -0.28016188336E+03  0.28016188336E+03  0.00000000000E+00 0. -1.
         25    1    1    2    0    0 -0.11371124209E+02 -0.20017300648E+03  0.10404687449E+02  0.23649903279E+03  0.12500000000E+03 0.  0.
         25    1    1    2    0    0  0.11371124209E+02  0.20017300648E+03 -0.83603907309E+02  0.25062551408E+03  0.12500000000E+03 0.  0.
</event>
<event>
 4    0  0.2236434E-002  0.2312112E+03  0.7546771E-02  0.1125790E+00
         21   -1    0    0  502  501  0.00000000000E+00  0.00000000000E+00  0.24883834457E+03  0.24883834457E+03  0.00000000000E+00 0. -1.
         21   -1    0    0  501  502 -0.00000000000E+00 -0.00000000000E+00 -0.21483278823E+03  0.21483278823E+03  0.00000000000E+00 0. -1.
         25    1    1    2    0    0 -0.17053367592E+03 -0.64443917963E+02 -0.50995399052E+02  0.22684859248E+03  0.12500000000E+03 0.  0.
         25    1    1    2    0    0  0.17053367592E+03  0.64443917963E+02  0.85000955388E+02  0.23682254032E+03  0.12500000000E+03 0.  0.
</event>
<event>
 4    0  0.2236434E-002  0.1952517E+03  0.7546771E-02  0.1153808E+00
         21   -1    0    0  502  501  0.00000000000E+00  0.00000000000E+00  0.64372105672E+03  0.64372105672E+03  0.00000000000E+00 0.  1.
         21   -1    0    0  501  502 -0.00000000000E+00 -0.00000000000E+00 -0.59223223346E+02  0.59223223346E+02  0.00000000000E+00 0.  1.
         25    1    1    2    0    0 -0.37408877045E+02 -0.98188399354E+02  0.48493377805E+03  0.51168951029E+03  0.12500000000E+03 0.  0.
         25    1    1    2    0    0  0.37408877045E+02  0.98188399354E+02  0.99564055327E+02  0.19125476978E+03  0.12500000000E+03 0.  0.
</event>
<event>
 4    0  0.2236434E-002  0.2348724E+03  0.7546771E-02  0.1123257E+00
         21   -1    0    0  502  501  0.00000000000E+00  0.00000000000E+00  0.24230559420E+03  0.24230559420E+03  0.00000000000E+00 0.  1.
         21   -1    0    0  501  502 -0.00000000000E+00 -0.00000000000E+00 -0.22766717874E+03  0.22766717874E+03  0.00000000000E+00 0.  1.
         25    1    1    2    0    0  0.19806461932E+03  0.17061178523E+02  0.29177782657E+01  0.23484929352E+03  0.12500000000E+03 0.  0.
         25    1    1    2    0    0 -0.19806461932E+03 -0.17061178523E+02  0.11720637197E+02  0.23512347942E+03  0.12500000000E+03 0.  0.
</event>
<event>
 4    0  0.2236434E-002  0.1441282E+03  0.7546771E-02  0.1207880E+00
         21   -1    0    0  502  501  0.00000000000E+00  0.00000000000E+00  0.69923510134E+02  0.69923510134E+02  0.00000000000E+00 0.  1.
         21   -1    0    0  501  502 -0.00000000000E+00 -0.00000000000E+00 -0.29708093319E+03  0.29708093319E+03  0.00000000000E+00 0.  1.
         25    1    1    2    0    0  0.50138327398E+02  0.51114780271E+02 -0.10769319628E+03  0.17985938163E+03  0.12500000000E+03 0.  0.
         25    1    1    2    0    0 -0.50138327398E+02 -0.51114780271E+02 -0.11946422678E+03  0.18714506169E+03  0.12500000000E+03 0.  0.
</event>
<event>
 4    0  0.2236434E-002  0.3048253E+03  0.7546771E-02  0.1082853E+00
         21   -1    0    0  502  501  0.00000000000E+00  0.00000000000E+00  0.20316370578E+04  0.20316370578E+04  0.00000000000E+00 0. -1.
         21   -1    0    0  501  502 -0.00000000000E+00 -0.00000000000E+00 -0.45735773305E+02  0.45735773305E+02  0.00000000000E+00 0. -1.
         25    1    1    2    0    0 -0.22243632754E+03  0.16589423837E+03  0.93445761187E+03  0.98276896904E+03  0.12500000000E+03 0.  0.
         25    1    1    2    0    0  0.22243632754E+03 -0.16589423837E+03  0.10514436727E+04  0.10946038621E+04  0.12500000000E+03 0.  0.
</event>
<event>
 4    0  0.2236434E-002  0.1857672E+03  0.7546771E-02  0.1162335E+00
         21   -1    0    0  502  501  0.00000000000E+00  0.00000000000E+00  0.13881156316E+03  0.13881156316E+03  0.00000000000E+00 0.  1.
         21   -1    0    0  501  502 -0.00000000000E+00 -0.00000000000E+00 -0.24860643836E+03  0.24860643836E+03  0.00000000000E+00 0.  1.
         25    1    1    2    0    0  0.84215426348E+02 -0.65093917422E+02  0.35737951339E+02  0.16802278800E+03  0.12500000000E+03 0.  0.
         25    1    1    2    0    0 -0.84215426348E+02  0.65093917422E+02 -0.14553282654E+03  0.21939521353E+03  0.12500000000E+03 0.  0.
</event>
<event>
 4    0  0.2236434E-002  0.2619396E+03  0.7546771E-02  0.1105983E+00
         21   -1    0    0  502  501  0.00000000000E+00  0.00000000000E+00  0.36458016685E+03  0.36458016685E+03  0.00000000000E+00 0. -1.
         21   -1    0    0  501  502 -0.00000000000E+00 -0.00000000000E+00 -0.18819557924E+03  0.18819557924E+03  0.00000000000E+00 0. -1.
         25    1    1    2    0    0 -0.27234790710E+02  0.17606081250E+03  0.24200037588E+03  0.32546631999E+03  0.12500000000E+03 0.  0.
         25    1    1    2    0    0  0.27234790710E+02 -0.17606081250E+03 -0.65615788272E+02  0.22730942610E+03  0.12500000000E+03 0.  0.
</event>
<event>
 4    0  0.2236434E-002  0.2512242E+03  0.7546771E-02  0.1112534E+00
         21   -1    0    0  502  501  0.00000000000E+00  0.00000000000E+00  0.10546560079E+03  0.10546560079E+03  0.00000000000E+00 0.  1.
         21   -1    0    0  501  502 -0.00000000000E+00 -0.00000000000E+00 -0.59842806945E+03  0.59842806945E+03  0.00000000000E+00 0.  1.
         25    1    1    2    0    0 -0.16194317189E+03  0.11124649227E+03 -0.11441304653E+03  0.25945465534E+03  0.12500000000E+03 0.  0.
         25    1    1    2    0    0  0.16194317189E+03 -0.11124649227E+03 -0.37854942214E+03  0.44443901490E+03  0.12500000000E+03 0.  0.
</event>
<event>
 4    0  0.2236434E-002  0.2705481E+03  0.7546771E-02  0.1100966E+00
         21   -1    0    0  502  501  0.00000000000E+00  0.00000000000E+00  0.11061742174E+03  0.11061742174E+03  0.00000000000E+00 0.  1.
         21   -1    0    0  501  502 -0.00000000000E+00 -0.00000000000E+00 -0.66170640822E+03  0.66170640822E+03  0.00000000000E+00 0.  1.
         25    1    1    2    0    0  0.88869219651E+02 -0.72888957469E+02  0.25079949862E+02  0.17165238771E+03  0.12500000000E+03 0.  0.
         25    1    1    2    0    0 -0.88869219651E+02  0.72888957469E+02 -0.57616893634E+03  0.60067144224E+03  0.12500000000E+03 0.  0.
</event>
<event>
 4    0  0.2236434E-002  0.2354495E+03  0.7546771E-02  0.1122862E+00
         21   -1    0    0  502  501  0.00000000000E+00  0.00000000000E+00  0.10156237418E+04  0.10156237418E+04  0.00000000000E+00 0. -1.
         21   -1    0    0  501  502 -0.00000000000E+00 -0.00000000000E+00 -0.54583643324E+02  0.54583643324E+02  0.00000000000E+00 0. -1.
         25    1    1    2    0    0  0.17256420077E+03 -0.40984462855E+01  0.70797358941E+03  0.73935566810E+03  0.12500000000E+03 0.  0.
         25    1    1    2    0    0 -0.17256420077E+03  0.40984462855E+01  0.25306650907E+03  0.33085171703E+03  0.12500000000E+03 0.  0.
</event>
<event>
 4    0  0.2236434E-002  0.2105347E+03  0.7546771E-02  0.1141143E+00
         21   -1    0    0  502  501  0.00000000000E+00  0.00000000000E+00  0.44227139734E+03  0.44227139734E+03  0.00000000000E+00 0.  1.
         21   -1    0    0  501  502 -0.00000000000E+00 -0.00000000000E+00 -0.10022093807E+03  0.10022093807E+03  0.00000000000E+00 0.  1.
         25    1    1    2    0    0  0.52065856140E+02  0.14089667728E+03  0.70094708049E+02  0.20760779162E+03  0.12500000000E+03 0.  0.
         25    1    1    2    0    0 -0.52065856140E+02 -0.14089667728E+03  0.27195575122E+03  0.33488454379E+03  0.12500000000E+03 0.  0.
</event>
<event>
 4    0  0.2236434E-002  0.2307340E+03  0.7546771E-02  0.1126124E+00
         21   -1    0    0  502  501  0.00000000000E+00  0.00000000000E+00  0.25494402501E+03  0.25494402501E+03  0.00000000000E+00 0. -1.
         21   -1    0    0  501  502 -0.00000000000E+00 -0.00000000000E+00 -0.20882294979E+03  0.20882294979E+03  0.00000000000E+00 0. -1.
         25    1    1    2    0    0  0.84110788908E+02 -0.90713216503E+02  0.17316882781E+03  0.24681157871E+03  0.12500000000E+03 0.  0.
         25    1    1    2    0    0 -0.84110788908E+02  0.90713216503E+02 -0.12704775258E+03  0.21695539610E+03  0.12500000000E+03 0.  0.
</event>
<event>
 4    0  0.2236434E-002  0.1826298E+03  0.7546771E-02  0.1165282E+00
         21   -1    0    0  502  501  0.00000000000E+00  0.00000000000E+00  0.11292360472E+03  0.11292360472E+03  0.00000000000E+00 0. -1.
         21   -1    0    0  501  502 -0.00000000000E+00 -0.00000000000E+00 -0.29536460628E+03  0.29536460628E+03  0.00000000000E+00 0. -1.
         25    1    1    2    0    0  0.89107075106E+02 -0.42924642297E+02  0.84210856287E+01  0.15961989360E+03  0.12500000000E+03 0.  0.
         25    1    1    2    0    0 -0.89107075106E+02  0.42924642297E+02 -0.19086208719E+03  0.24866831739E+03  0.12500000000E+03 0.  0.
</event>
<event>
 4    0  0.2236434E-002  0.2291921E+03  0.7546771E-02  0.1127210E+00
         21   -1    0    0  502  501  0.00000000000E+00  0.00000000000E+00  0.45226780833E+03  0.45226780833E+03  0.00000000000E+00 0. -1.
         21   -1    0    0  501  502 -0.00000000000E+00 -0.00000000000E+00 -0.11614579122E+03  0.11614579122E+03  0.00000000000E+00 0. -1.
         25    1    1    2    0    0 -0.17843728783E+02 -0.49776975842E+02  0.39707504481E+03  0.41963047696E+03  0.12500000000E+03 0.  0.
         25    1    1    2    0    0  0.17843728783E+02  0.49776975842E+02 -0.60953027709E+02  0.14878312259E+03  0.12500000000E+03 0.  0.
</event>
<event>
 4    0  0.2236434E-002  0.3172620E+03  0.7546771E-02  0.1076916E+00
         21   -1    0    0  502  501  0.00000000000E+00  0.00000000000E+00  0.11415200760E+04  0.11415200760E+04  0.00000000000E+00 0.  1.
         21   -1    0    0  501  502 -0.00000000000E+00 -0.00000000000E+00 -0.88176448125E+02  0.88176448125E+02  0.00000000000E+00 0.  1.
         25    1    1    2    0    0  0.10856892361E+03 -0.22144963486E+03  0.82817005037E+03  0.87310811717E+03  0.12500000000E+03 0.  0.
         25    1    1    2    0    0 -0.10856892361E+03  0.22144963486E+03  0.22517357747E+03  0.35658840691E+03  0.12500000000E+03 0.  0.
</event>
<event>
 4    0  0.2236434E-002  0.1960270E+03  0.7546771E-02  0.1153135E+00
         21   -1    0    0  502  501  0.00000000000E+00  0.00000000000E+00  0.36755239282E+03  0.36755239282E+03  0.00000000000E+00 0.  1.
         21   -1    0    0  501  502 -0.00000000000E+00 -0.00000000000E+00 -0.10454719479E+03  0.10454719479E+03  0.00000000000E+00 0.  1.
         25    1    1    2    0    0 -0.12555535201E+03  0.58250653603E+02  0.58809352552E+02  0.19555261443E+03  0.12500000000E+03 0.  0.
         25    1    1    2    0    0  0.12555535201E+03 -0.58250653603E+02  0.20419584548E+03  0.27654697318E+03  0.12500000000E+03 0.  0.
</event>
<event>
 4    0  0.2236434E-002  0.1778074E+03  0.7546771E-02  0.1169942E+00
         21   -1    0    0  502  501  0.00000000000E+00  0.00000000000E+00  0.54691791105E+02  0.54691791105E+02  0.00000000000E+00 0.  1.
         21   -1    0    0  501  502 -0.00000000000E+00 -0.00000000000E+00 -0.57806580919E+03  0.57806580919E+03  0.00000000000E+00 0.  1.
         25    1    1    2    0    0  0.16996300759E+02  0.10091239418E+02 -0.48392404662E+03  0.50019815099E+03  0.12500000000E+03 0.  0.
         25    1    1    2    0    0 -0.16996300759E+02 -0.10091239418E+02 -0.39449971464E+02  0.13255944931E+03  0.12500000000E+03 0.  0.
</event>
<event>
 4    0  0.2236434E-002  0.1618743E+03  0.7546771E-02  0.1186597E+00
         21   -1    0    0  502  501  0.00000000000E+00  0.00000000000E+00  0.99947008304E+02  0.99947008304E+02  0.00000000000E+00 0.  1.
         21   -1    0    0  501  502 -0.00000000000E+00 -0.00000000000E+00 -0.26217175724E+03  0.26217175724E+03  0.00000000000E+00 0.  1.
         25    1    1    2    0    0 -0.56402076018E+02  0.87047986859E+01  0.14593309842E+02  0.13818441443E+03  0.12500000000E+03 0.  0.
         25    1    1    2    0    0  0.56402076018E+02 -0.87047986859E+01 -0.17681805878E+03  0.22393435112E+03  0.12500000000E+03 0.  0.
</event>
<event>
 4    0  0.2236434E-002  0.2986986E+03  0.7546771E-02  0.1085893E+00
         21   -1    0    0  502  501  0.00000000000E+00  0.00000000000E+00  0.14988324948E+03  0.14988324948E+03  0.00000000000E+00 0.  1.
         21   -1    0    0  501  502 -0.00000000000E+00 -0.00000000000E+00 -0.59526889437E+03  0.59526889437E+03  0.00000000000E+00 0.  1.
         25    1    1    2    0    0  0.64226532234E+02  0.25574881997E+03 -0.14318262095E+03  0.32505194862E+03  0.12500000000E+03 0.  0.
         25    1    1    2    0    0 -0.64226532234E+02 -0.25574881997E+03 -0.30220302394E+03  0.42010019523E+03  0.12500000000E+03 0.  0.
</event>
<event>
 4    0  0.2236434E-002  0.2277594E+03  0.7546771E-02  0.1128227E+00
         21   -1    0    0  502  501  0.00000000000E+00  0.00000000000E+00  0.32631412590E+02  0.32631412590E+02  0.00000000000E+00 0. -1.
         21   -1    0    0  501  502 -0.00000000000E+00 -0.00000000000E+00 -0.15897058305E+04  0.15897058305E+04  0.00000000000E+00 0. -1.
         25    1    1    2    0    0 -0.10044457772E+02 -0.10760037229E+03 -0.13368053450E+04  0.13469789388E+04  0.12500000000E+03 0.  0.
         25    1    1    2    0    0  0.10044457772E+02  0.10760037229E+03 -0.22026907299E+03  0.27535830433E+03  0.12500000000E+03 0.  0.
</event>
<event>
 4    0  0.2236434E-002  0.2477806E+03  0.7546771E-02  0.1114716E+00
         21   -1    0    0  502  501  0.00000000000E+00  0.00000000000E+00  0.33677857051E+03  0.33677857051E+03  0.00000000000E+00 0. -1.
         21   -1    0    0  501  502 -0.00000000000E+00 -0.00000000000E+00 -0.18230146811E+03  0.18230146811E+03  0.00000000000E+00 0. -1.
         25    1    1    2    0    0  0.11781424770E+03 -0.17808032708E+03  0.63286178274E+02  0.25538782315E+03  0.12500000000E+03 0.  0.
         25    1    1    2    0    0 -0.11781424770E+03  0.17808032708E+03  0.91190924125E+02  0.26369221547E+03  0.12500000000E+03 0.  0.
</event>
<event>
 4    0  0.2236434E-002  0.2610371E+03  0.7546771E-02  0.1106522E+00
         21   -1    0    0  502  501  0.00000000000E+00  0.00000000000E+00  0.11118838433E+03  0.11118838433E+03  0.00000000000E+00 0.  1.
         21   -1    0    0  501  502 -0.00000000000E+00 -0.00000000000E+00 -0.61283712526E+03  0.61283712526E+03  0.00000000000E+00 0.  1.
         25    1    1    2    0    0  0.18882708373E+03  0.70992396935E+02 -0.10005040418E+03  0.25754741573E+03  0.12500000000E+03 0.  0.
         25    1    1    2    0    0 -0.18882708373E+03 -0.70992396935E+02 -0.40159833675E+03  0.46647809386E+03  0.12500000000E+03 0.  0.
</event>
<event>
 4    0  0.2236434E-002  0.2339676E+03  0.7546771E-02  0.1123878E+00
         21   -1    0    0  502  501  0.00000000000E+00  0.00000000000E+00  0.70448325027E+03  0.70448325027E+03  0.00000000000E+00 0. -1.
         21   -1    0    0  501  502 -0.00000000000E+00 -0.00000000000E+00 -0.77703551714E+02  0.77703551714E+02  0.00000000000E+00 0. -1.
         25    1    1    2    0    0  0.33666365244E+02  0.17784607186E+03  0.44662567664E+03  0.49785755438E+03  0.12500000000E+03 0.  0.
         25    1    1    2    0    0 -0.33666365244E+02 -0.17784607186E+03  0.18015402192E+03  0.28432924760E+03  0.12500000000E+03 0.  0.
</event>
<event>
 4    0  0.2236434E-002  0.2603217E+03  0.7546771E-02  0.1106950E+00
         21   -1    0    0  502  501  0.00000000000E+00  0.00000000000E+00  0.70323181473E+02  0.70323181473E+02  0.00000000000E+00 0.  1.
         21   -1    0    0  501  502 -0.00000000000E+00 -0.00000000000E+00 -0.96365612303E+03  0.96365612303E+03  0.00000000000E+00 0.  1.
         25    1    1    2    0    0 -0.10745895581E+01 -0.22692369055E+03 -0.39615700365E+03  0.47335070257E+03  0.12500000000E+03 0.  0.
         25    1    1    2    0    0  0.10745895581E+01  0.22692369055E+03 -0.49717593790E+03  0.56062860193E+03  0.12500000000E+03 0.  0.
</event>
<event>
 4    0  0.2236434E-002  0.2557242E+03  0.7546771E-02  0.1109740E+00
         21   -1    0    0  502  501  0.00000000000E+00  0.00000000000E+00  0.14608088640E+03  0.14608088640E+03  0.00000000000E+00 0. -1.
         21   -1    0    0  501  502 -0.00000000000E+00 -0.00000000000E+00 -0.44766208396E+03  0.44766208396E+03  0.00000000000E+00 0. -1.
         25    1    1    2    0    0  0.12790961796E+03 -0.10690882554E+02  0.61037828165E+02  0.18927699756E+03  0.12500000000E+03 0.  0.
         25    1    1    2    0    0 -0.12790961796E+03  0.10690882554E+02 -0.36261902572E+03  0.40446597280E+03  0.12500000000E+03 0.  0.
</event>
<event>
 4    0  0.2236434E-002  0.2326323E+03  0.7546771E-02  0.1124801E+00
         21   -1    0    0  502  501  0.00000000000E+00  0.00000000000E+00  0.21699799294E+03  0.21699799294E+03  0.00000000000E+00 0.  1.
         21   -1    0    0  501  502 -0.00000000000E+00 -0.00000000000E+00 -0.24939299396E+03  0.24939299396E+03  0.00000000000E+00 0.  1.
         25    1    1    2    0    0 -0.80701163646E+02  0.17882690227E+03 -0.17219948189E+02  0.23326651153E+03  0.12500000000E+03 0.  0.
         25    1    1    2    0    0  0.80701163646E+02 -0.17882690227E+03 -0.15175052828E+02  0.23312447537E+03  0.12500000000E+03 0.  0.
</event>
<event>
 4    0  0.2236434E-002  0.3451995E+03  0.7546771E-02  0.1064603E+00
         21   -1    0    0  502  501  0.00000000000E+00  0.00000000000E+00  0.57912445354E+03  0.57912445354E+03  0.00000000000E+00 0.  1.
         21   -1    0    0  501  502 -0.00000000000E+00 -0.00000000000E+00 -0.20576348501E+03  0.20576348501E+03  0.00000000000E+00 0.  1.
         25    1    1    2    0    0  0.21688225630E+03  0.12745691155E+03  0.41477493014E+03  0.50094552605E+03  0.12500000000E+03 0.  0.
         25    1    1    2    0    0 -0.21688225630E+03 -0.12745691155E+03 -0.41413961613E+02  0.28394241250E+03  0.12500000000E+03 0.  0.
</event>
<event>
 4    0  0.2236434E-002  0.3157508E+03  0.7546771E-02  0.1077622E+00
         21   -1    0    0  502  501  0.00000000000E+00  0.00000000000E+00  0.46020456155E+03  0.46020456155E+03  0.00000000000E+00 0. -1.
         21   -1    0    0  501  502 -0.00000000000E+00 -0.00000000000E+00 -0.21663964984E+03  0.21663964984E+03  0.00000000000E+00 0. -1.
         25    1    1    2    0    0 -0.28340488250E+03 -0.59064015774E+02  0.10427991443E+03  0.33212375094E+03  0.12500000000E+03 0.  0.
         25    1    1    2    0    0  0.28340488250E+03  0.59064015774E+02  0.13928499729E+03  0.34472046045E+03  0.12500000000E+03 0.  0.
</event>
<event>
 4    0  0.2236434E-002  0.1426951E+03  0.7546771E-02  0.1209748E+00
         21   -1    0    0  502  501  0.00000000000E+00  0.00000000000E+00  0.24001987091E+03  0.24001987091E+03  0.00000000000E+00 0. -1.
         21   -1    0    0  501  502 -0.00000000000E+00 -0.00000000000E+00 -0.84834237299E+02  0.84834237299E+02  0.00000000000E+00 0. -1.
         25    1    1    2    0    0  0.90010607539E+01  0.58496502503E+02  0.11757940016E+03  0.18152899284E+03  0.12500000000E+03 0.  0.
         25    1    1    2    0    0 -0.90010607539E+01 -0.58496502503E+02  0.37606233447E+02  0.14332511536E+03  0.12500000000E+03 0.  0.
</event>
<event>
 4    0  0.2236434E-002  0.1944895E+03  0.7546771E-02  0.1154473E+00
         21   -1    0    0  502  501  0.00000000000E+00  0.00000000000E+00  0.55587328873E+03  0.55587328873E+03  0.00000000000E+00 0.  1.
         21   -1    0    0  501  502 -0.00000000000E+00 -0.00000000000E+00 -0.68048175662E+02  0.68048175662E+02  0.00000000000E+00 0.  1.
         25    1    1    2    0    0  0.46646568018E+02  0.13366258185E+03  0.31845230810E+03  0.37024108447E+03  0.12500000000E+03 0.  0.
         25    1    1    2    0    0 -0.46646568018E+02 -0.13366258185E+03  0.16937280497E+03  0.25368037993E+03  0.12500000000E+03 0.  0.
</event>
<event>
 4    0  0.2236434E-002  0.2574036E+03  0.7546771E-02  0.1108713E+00
         21   -1    0    0  502  501  0.00000000000E+00  0.00000000000E+00  0.47718369270E+03  0.47718369270E+03  0.00000000000E+00 0.  1.
         21   -1    0    0  501  502 -0.00000000000E+00 -0.00000000000E+00 -0.13884929315E+03  0.13884929315E+03  0.00000000000E+00 0.  1.
         25    1    1    2    0    0  0.95082750695E+02  0.36878055269E+01 -0.74831449745E+02  0.17400883673E+03  0.12500000000E+03 0.  0.
         25    1    1    2    0    0 -0.95082750695E+02 -0.36878055269E+01  0.41316584929E+03  0.44202414913E+03  0.12500000000E+03 0.  0.
</event>
<event>
 4    0  0.2236434E-002  0.2217331E+03  0.7546771E-02  0.1132597E+00
         21   -1    0    0  502  501  0.00000000000E+00  0.00000000000E+00  0.32239230795E+03  0.32239230795E+03  0.00000000000E+00 0.  1.
         21   -1    0    0  501  502 -0.00000000000E+00 -0.00000000000E+00 -0.15250234952E+03  0.15250234952E+03  0.00000000000E+00 0.  1.
         25    1    1    2    0    0 -0.15310221219E+03  0.10032887154E+03  0.91227124292E+02  0.23969471844E+03  0.12500000000E+03 0.  0.
         25    1    1    2    0    0  0.15310221219E+03 -0.10032887154E+03  0.78662834137E+02  0.23519993902E+03  0.12500000000E+03 0.  0.
</event>
<event>
 4    0  0.2236434E-002  0.1918237E+03  0.7546771E-02  0.1156827E+00
         21   -1    0    0  502  501  0.00000000000E+00  0.00000000000E+00  0.91013500748E+02  0.91013500748E+02  0.00000000000E+00 0. -1.
         21   -1    0    0  501  502 -0.00000000000E+00 -0.00000000000E+00 -0.40429514474E+03  0.40429514474E+03  0.00000000000E+00 0. -1.
         25    1    1    2    0    0  0.76540177115E+02 -0.10490111712E+03 -0.71895540502E+02  0.19405311600E+03  0.12500000000E+03 0.  0.
         25    1    1    2    0    0 -0.76540177115E+02  0.10490111712E+03 -0.24138610349E+03  0.30125552948E+03  0.12500000000E+03 0.  0.
</event>
<event>
 4    0  0.2236434E-002  0.2417214E+03  0.7546771E-02  0.1118651E+00
         21   -1    0    0  502  501  0.00000000000E+00  0.00000000000E+00  0.53467105551E+03  0.53467105551E+03  0.00000000000E+00 0.  1.
         21   -1    0    0  501  502 -0.00000000000E+00 -0.00000000000E+00 -0.10928070283E+03  0.10928070283E+03  0.00000000000E+00 0.  1.
         25    1    1    2    0    0  0.97669753133E+02  0.16511278484E+03  0.31589490459E+03  0.39014894994E+03  0.12500000000E+03 0.  0.
         25    1    1    2    0    0 -0.97669753133E+02 -0.16511278484E+03  0.10949544809E+03  0.25380280839E+03  0.12500000000E+03 0.  0.
</event>
<event>
 4    0  0.2236434E-002  0.1995910E+03  0.7546771E-02  0.1150085E+00
         21   -1    0    0  502  501  0.00000000000E+00  0.00000000000E+00  0.30948647400E+03  0.30948647400E+03  0.00000000000E+00 0. -1.
         21   -1    0    0  501  502 -0.00000000000E+00 -0.00000000000E+00 -0.12871831317E+03  0.12871831317E+03  0.00000000000E+00 0. -1.
         25    1    1    2    0    0  0.14071141762E+03 -0.69833215181E+01  0.16289510639E+03  0.24901462912E+03  0.12500000000E+03 0.  0.
         25    1    1    2    0    0 -0.14071141762E+03  0.69833215181E+01  0.17873054448E+02  0.18919015805E+03  0.12500000000E+03 0.  0.
</event>
<event>
 4    0  0.2236434E-002  0.2191577E+03  0.7546771E-02  0.1134513E+00
         21   -1    0    0  502  501  0.00000000000E+00  0.00000000000E+00  0.52868032898E+02  0.52868032898E+02  0.00000000000E+00 0. -1.
         21   -1    0    0  501  502 -0.00000000000E+00 -0.00000000000E+00 -0.90849050078E+03  0.90849050078E+03  0.00000000000E+00 0. -1.
         25    1    1    2    0    0 -0.10948158724E+03  0.85374970084E+02 -0.17648893788E+03  0.25699892735E+03  0.12500000000E+03 0.  0.
         25    1    1    2    0    0  0.10948158724E+03 -0.85374970084E+02 -0.67913353000E+03  0.70435960633E+03  0.12500000000E+03 0.  0.
</event>
<event>
 4    0  0.2236434E-002  0.2243679E+03  0.7546771E-02  0.1130668E+00
         21   -1    0    0  502  501  0.00000000000E+00  0.00000000000E+00  0.17903478740E+03  0.17903478740E+03  0.00000000000E+00 0. -1.
         21   -1    0    0  501  502 -0.00000000000E+00 -0.00000000000E+00 -0.28117985337E+03  0.28117985337E+03  0.00000000000E+00 0. -1.
         25    1    1    2    0    0 -0.12655909534E+03 -0.88199934455E+02  0.56097123437E+02  0.20632091583E+03  0.12500000000E+03 0.  0.
         25    1    1    2    0    0  0.12655909534E+03  0.88199934455E+02 -0.15824218941E+03  0.25389372493E+03  0.12500000000E+03 0.  0.
</event>
<event>
 4    0  0.2236434E-002  0.2550741E+03  0.7546771E-02  0.1110139E+00
         21   -1    0    0  502  501  0.00000000000E+00  0.00000000000E+00  0.44329793281E+03  0.44329793281E+03  0.00000000000E+00 0. -1.
         21   -1    0    0  501  502 -0.00000000000E+00 -0.00000000000E+00 -0.14676989824E+03  0.14676989824E+03  0.00000000000E+00 0. -1.
         25    1    1    2    0    0  0.22144881742E+03 -0.75108658761E+01  0.12687986527E+03  0.28428769240E+03  0.12500000000E+03 0.  0.
         25    1    1    2    0    0 -0.22144881742E+03  0.75108658761E+01  0.16964816930E+03  0.30578013865E+03  0.12500000000E+03 0.  0.
</event>
<event>
 4    0  0.2236434E-002  0.1795867E+03  0.7546771E-02  0.1168204E+00
         21   -1    0    0  502  501  0.00000000000E+00  0.00000000000E+00  0.33823533152E+03  0.33823533152E+03  0.00000000000E+00 0. -1.
         21   -1    0    0  501  502 -0.00000000000E+00 -0.00000000000E+00 -0.95351905742E+02  0.95351905742E+02  0.00000000000E+00 0. -1.
         25    1    1    2    0    0  0.12567106416E+03  0.28825122085E+02  0.12326428340E+03  0.21781457158E+03  0.12500000000E+03 0.  0.
         25    1    1    2    0    0 -0.12567106416E+03 -0.28825122085E+02  0.11961914238E+03  0.21577266568E+03  0.12500000000E+03 0.  0.
</event>
<event>
 4    0  0.2236434E-002  0.2039109E+03  0.7546771E-02  0.1146481E+00
         21   -1    0    0  502  501  0.00000000000E+00  0.00000000000E+00  0.15169442451E+03  0.15169442451E+03  0.00000000000E+00 0. -1.
         21   -1    0    0  501  502 -0.00000000000E+00 -0.00000000000E+00 -0.27410131567E+03  0.27410131567E+03  0.00000000000E+00 0. -1.
         25    1    1    2    0    0 -0.10417807316E+03  0.23405858013E+02 -0.18715925317E+03  0.24910738882E+03  0.12500000000E+03 0.  0.
         25    1    1    2    0    0  0.10417807316E+03 -0.23405858013E+02  0.64752362012E+02  0.17668835135E+03  0.12500000000E+03 0.  0.
</event>
<event>
 4    0  0.2236434E-002  0.2287215E+03  0.7546771E-02  0.1127543E+00
         21   -1    0    0  502  501  0.00000000000E+00  0.00000000000E+00  0.87635413388E+02  0.87635413388E+02  0.00000000000E+00 0. -1.
         21   -1    0    0  501  502 -0.00000000000E+00 -0.00000000000E+00 -0.59694514227E+03  0.59694514227E+03  0.00000000000E+00 0. -1.
         25    1    1    2    0    0  0.30029537160E+02 -0.18373015246E+03 -0.18722772635E+03  0.29212628013E+03  0.12500000000E+03 0.  0.
         25    1    1    2    0    0 -0.30029537160E+02  0.18373015246E+03 -0.32208200253E+03  0.39245427553E+03  0.12500000000E+03 0.  0.
</event>
<event>
 4    0  0.2236434E-002  0.2277444E+03  0.7546771E-02  0.1128237E+00
         21   -1    0    0  502  501  0.00000000000E+00  0.00000000000E+00  0.16579479050E+04  0.16579479050E+04  0.00000000000E+00 0. -1.
         21   -1    0    0  501  502 -0.00000000000E+00 -0.00000000000E+00 -0.31284170164E+02  0.31284170164E+02  0.00000000000E+00 0. -1.
         25    1    1    2    0    0 -0.10002608541E+03  0.16185958554E+03  0.79023664647E+03  0.82237625246E+03  0.12500000000E+03 0.  0.
         25    1    1    2    0    0  0.10002608541E+03 -0.16185958554E+03  0.83642708839E+03  0.86685582272E+03  0.12500000000E+03 0.  0.
</event>
<event>
 4    0  0.2236434E-002  0.2382027E+03  0.7546771E-02  0.1120996E+00
         21   -1    0    0  502  501  0.00000000000E+00  0.00000000000E+00  0.26331746460E+03  0.26331746460E+03  0.00000000000E+00 0. -1.
         21   -1    0    0  501  502 -0.00000000000E+00 -0.00000000000E+00 -0.21548337532E+03  0.21548337532E+03  0.00000000000E+00 0. -1.
         25    1    1    2    0    0  0.14901594344E+02 -0.19954586373E+03  0.56867971665E+02  0.24269234732E+03  0.12500000000E+03 0.  0.
         25    1    1    2    0    0 -0.14901594344E+02  0.19954586373E+03 -0.90338823856E+01  0.23610849260E+03  0.12500000000E+03 0.  0.
</event>
<event>
 4    0  0.2236434E-002  0.1864776E+03  0.7546771E-02  0.1161677E+00
         21   -1    0    0  502  501  0.00000000000E+00  0.00000000000E+00  0.36383694661E+03  0.36383694661E+03  0.00000000000E+00 0. -1.
         21   -1    0    0  501  502 -0.00000000000E+00 -0.00000000000E+00 -0.95575459052E+02  0.95575459052E+02  0.00000000000E+00 0. -1.
         25    1    1    2    0    0 -0.29147339266E+02 -0.13190200822E+03  0.17110938453E+03  0.25129888308E+03  0.12500000000E+03 0.  0.
         25    1    1    2    0    0  0.29147339266E+02  0.13190200822E+03  0.97152103021E+02  0.20811352258E+03  0.12500000000E+03 0.  0.
</event>
<event>
 4    0  0.2236434E-002  0.1824552E+03  0.7546771E-02  0.1165448E+00
         21   -1    0    0  502  501  0.00000000000E+00  0.00000000000E+00  0.25736124749E+03  0.25736124749E+03  0.00000000000E+00 0.  1.
         21   -1    0    0  501  502 -0.00000000000E+00 -0.00000000000E+00 -0.12935085970E+03  0.12935085970E+03  0.00000000000E+00 0.  1.
         25    1    1    2    0    0  0.48917881441E+02 -0.12153977590E+03  0.40308036557E+02  0.18551176260E+03  0.12500000000E+03 0.  0.
         25    1    1    2    0    0 -0.48917881441E+02  0.12153977590E+03  0.87702351233E+02  0.20120034459E+03  0.12500000000E+03 0.  0.
</event>
<event>
 4    0  0.2236434E-002  0.2175087E+03  0.7546771E-02  0.1135754E+00
         21   -1    0    0  502  501  0.00000000000E+00  0.00000000000E+00  0.26799530989E+03  0.26799530989E+03  0.00000000000E+00 0. -1.
         21   -1    0    0  501  502 -0.00000000000E+00 -0.00000000000E+00 -0.17653310773E+03  0.17653310773E+03  0.00000000000E+00 0. -1.
         25    1    1    2    0    0 -0.75204358237E+02 -0.88280883921E+02 -0.92261461623E+02  0.19387208996E+03  0.12500000000E+03 0.  0.
         25    1    1    2    0    0  0.75204358237E+02  0.88280883921E+02  0.18372366378E+03  0.25065632766E+03  0.12500000000E+03 0.  0.
</event>
<event>
 4    0  0.2236434E-002  0.1614038E+03  0.7546771E-02  0.1187121E+00
         21   -1    0    0  502  501  0.00000000000E+00  0.00000000000E+00  0.85532435203E+02  0.85532435203E+02  0.00000000000E+00 0.  1.
         21   -1    0    0  501  502 -0.00000000000E+00 -0.00000000000E+00 -0.30457671656E+03  0.30457671656E+03  0.00000000000E+00 0.  1.
         25    1    1    2    0    0  0.79404000253E+02 -0.32845606114E+02 -0.42864856262E+02  0.15762685368E+03  0.12500000000E+03 0.  0.
         25    1    1    2    0    0 -0.79404000253E+02  0.32845606114E+02 -0.17617942509E+03  0.23248229808E+03  0.12500000000E+03 0.  0.
</event>
<event>
 4    0  0.2236434E-002  0.2170770E+03  0.7546771E-02  0.1136081E+00
         21   -1    0    0  502  501  0.00000000000E+00  0.00000000000E+00  0.22583816320E+02  0.22583816320E+02  0.00000000000E+00 0.  1.
         21   -1    0    0  501  502 -0.00000000000E+00 -0.00000000000E+00 -0.20865566880E+04  0.20865566880E+04  0.00000000000E+00 0.  1.
         25    1    1    2    0    0  0.57445921468E+02 -0.92872455003E+02 -0.35234426934E+03  0.38948274792E+03  0.12500000000E+03 0.  0.
         25    1    1    2    0    0 -0.57445921468E+02  0.92872455003E+02 -0.17116286024E+04  0.17196577564E+04  0.12500000000E+03 0.  0.
</event>
<event>
 4    0  0.2236434E-002  0.1807397E+03  0.7546771E-02  0.1167089E+00
         21   -1    0    0  502  501  0.00000000000E+00  0.00000000000E+00  0.16877808860E+03  0.16877808860E+03  0.00000000000E+00 0. -1.
         21   -1    0    0  501  502 -0.00000000000E+00 -0.00000000000E+00 -0.19354896827E+03  0.19354896827E+03  0.00000000000E+00 0. -1.
         25    1    1    2    0    0 -0.41470457328E+02  0.10985698728E+03 -0.69558390529E+02  0.18507221882E+03  0.12500000000E+03 0.  0.
         25    1    1    2    0    0  0.41470457328E+02 -0.10985698728E+03  0.44787510859E+02  0.17725483805E+03  0.12500000000E+03 0.  0.
</event>
<event>
 4    0  0.2236434E-002  0.3926017E+03  0.7546771E-02  0.1046372E+00
         21   -1    0    0  502  501  0.00000000000E+00  0.00000000000E+00  0.23232313186E+03  0.23232313186E+03  0.00000000000E+00 0.  1.
         21   -1    0    0  501  502 -0.00000000000E+00 -0.00000000000E+00 -0.66345571261E+03  0.66345571261E+03  0.00000000000E+00 0.  1.
         25    1    1    2    0    0 -0.13678149608E+03 -0.29573667085E+03 -0.10402654449E+02  0.34914548741E+03  0.12500000000E+03 0.  0.
         25    1    1    2    0    0  0.13678149608E+03  0.29573667085E+03 -0.42072992630E+03  0.54663335706E+03  0.12500000000E+03 0.  0.
</event>
<event>
 4    0  0.2236434E-002  0.3986770E+03  0.7546771E-02  0.1044239E+00
         21   -1    0    0  502  501  0.00000000000E+00  0.00000000000E+00  0.94125015919E+03  0.94125015919E+03  0.00000000000E+00 0. -1.
         21   -1    0    0  501  502 -0.00000000000E+00 -0.00000000000E+00 -0.16886407603E+03  0.16886407603E+03  0.00000000000E+00 0. -1.
         25    1    1    2    0    0  0.19841806398E+03 -0.69378913732E+01  0.83496455274E+03  0.86729964071E+03  0.12500000000E+03 0.  0.
         25    1    1    2    0    0 -0.19841806398E+03  0.69378913732E+01 -0.62578469586E+02  0.24281459450E+03  0.12500000000E+03 0.  0.
</event>
<event>
 4    0  0.2236434E-002  0.1899071E+03  0.7546771E-02  0.1158545E+00
         21   -1    0    0  502  501  0.00000000000E+00  0.00000000000E+00  0.12049659404E+04  0.12049659404E+04  0.00000000000E+00 0.  1.
         21   -1    0    0  501  502 -0.00000000000E+00 -0.00000000000E+00 -0.29930069100E+02  0.29930069100E+02  0.00000000000E+00 0.  1.
         25    1    1    2    0    0 -0.77573289899E+02 -0.79696964416E+02  0.87960287425E+03  0.89537446794E+03  0.12500000000E+03 0.  0.
         25    1    1    2    0    0  0.77573289899E+02  0.79696964416E+02  0.29543299708E+03  0.33952154160E+03  0.12500000000E+03 0.  0.
</event>
<event>
 4    0  0.2236434E-002  0.1807054E+03  0.7546771E-02  0.1167122E+00
         21   -1    0    0  502  501  0.00000000000E+00  0.00000000000E+00  0.52603868737E+03  0.52603868737E+03  0.00000000000E+00 0.  1.
         21   -1    0    0  501  502 -0.00000000000E+00 -0.00000000000E+00 -0.62076093077E+02  0.62076093077E+02  0.00000000000E+00 0.  1.
         25    1    1    2    0    0 -0.54928123406E+02 -0.10455811309E+03  0.14167222007E+03  0.22281273683E+03  0.12500000000E+03 0.  0.
         25    1    1    2    0    0  0.54928123406E+02  0.10455811309E+03  0.32229037422E+03  0.36530204361E+03  0.12500000000E+03 0.  0.
</event>
<event>
 4    0  0.2236434E-002  0.2264089E+03  0.7546771E-02  0.1129193E+00
         21   -1    0    0  502  501  0.00000000000E+00  0.00000000000E+00  0.16366082710E+04  0.16366082710E+04  0.00000000000E+00 0.  1.
         21   -1    0    0  501  502 -0.00000000000E+00 -0.00000000000E+00 -0.31321491801E+02  0.31321491801E+02  0.00000000000E+00 0.  1.
         25    1    1    2    0    0 -0.13694058701E+03  0.11638089061E+03  0.10154807404E+04  0.10388086302E+04  0.12500000000E+03 0.  0.
         25    1    1    2    0    0  0.13694058701E+03 -0.11638089061E+03  0.58980603876E+03  0.62912113255E+03  0.12500000000E+03 0.  0.
</event>
<event>
 4    0  0.2236434E-002  0.2265944E+03  0.7546771E-02  0.1129060E+00
         21   -1    0    0  502  501  0.00000000000E+00  0.00000000000E+00  0.40227196219E+02  0.40227196219E+02  0.00000000000E+00 0. -1.
         21   -1    0    0  501  502 -0.00000000000E+00 -0.00000000000E+00 -0.12763760926E+04  0.12763760926E+04  0.00000000000E+00 0. -1.
         25    1    1    2    0    0  0.28259041442E+02  0.12852085829E+03 -0.10121958653E+04  0.10283392699E+04  0.12500000000E+03 0.  0.
         25    1    1    2    0    0 -0.28259041442E+02 -0.12852085829E+03 -0.22395303114E+03  0.28826401891E+03  0.12500000000E+03 0.  0.
</event>
<event>
 4    0  0.2236434E-002  0.2614379E+03  0.7546771E-02  0.1106282E+00
         21   -1    0    0  502  501  0.00000000000E+00  0.00000000000E+00  0.19741093908E+03  0.19741093908E+03  0.00000000000E+00 0. -1.
         21   -1    0    0  501  502 -0.00000000000E+00 -0.00000000000E+00 -0.34623106446E+03  0.34623106446E+03  0.00000000000E+00 0. -1.
         25    1    1    2    0    0 -0.73071876126E+02  0.12091864628E+03 -0.26260707381E+03  0.32333928514E+03  0.12500000000E+03 0.  0.
         25    1    1    2    0    0  0.73071876126E+02 -0.12091864628E+03  0.11378694843E+03  0.22030271839E+03  0.12500000000E+03 0.  0.
</event>
<event>
 4    0  0.2236434E-002  0.1753602E+03  0.7546771E-02  0.1172371E+00
         21   -1    0    0  502  501  0.00000000000E+00  0.00000000000E+00  0.62671349790E+02  0.62671349790E+02  0.00000000000E+00 0. -1.
         21   -1    0    0  501  502 -0.00000000000E+00 -0.00000000000E+00 -0.49067397815E+03  0.49067397815E+03  0.00000000000E+00 0. -1.
         25    1    1    2    0    0 -0.42859374460E+02 -0.27312754636E+02 -0.37299539747E+02  0.13999702929E+03  0.12500000000E+03 0.  0.
         25    1    1    2    0    0  0.42859374460E+02  0.27312754636E+02 -0.39070308861E+03  0.41334829865E+03  0.12500000000E+03 0.  0.
</event>
<event>
 4    0  0.2236434E-002  0.2006550E+03  0.7546771E-02  0.1149188E+00
         21   -1    0    0  502  501  0.00000000000E+00  0.00000000000E+00  0.38334370517E+03  0.38334370517E+03  0.00000000000E+00 0.  1.
         21   -1    0    0  501  502 -0.00000000000E+00 -0.00000000000E+00 -0.10502957214E+03  0.10502957214E+03  0.00000000000E+00 0.  1.
         25    1    1    2    0    0  0.14992592287E+03 -0.40836006885E+02  0.11216211699E+03  0.22880275849E+03  0.12500000000E+03 0.  0.
         25    1    1    2    0    0 -0.14992592287E+03  0.40836006885E+02  0.16615201604E+03  0.25957051882E+03  0.12500000000E+03 0.  0.
</event>
<event>
 4    0  0.2236434E-002  0.3072122E+03  0.7546771E-02  0.1081690E+00
         21   -1    0    0  502  501  0.00000000000E+00  0.00000000000E+00  0.12230571023E+03  0.12230571023E+03  0.00000000000E+00 0. -1.
         21   -1    0    0  501  502 -0.00000000000E+00 -0.00000000000E+00 -0.77166766540E+03  0.77166766540E+03  0.00000000000E+00 0. -1.
         25    1    1    2    0    0  0.27114962212E+02  0.75713126807E+02  0.66506694143E+02  0.16283684814E+03  0.12500000000E+03 0.  0.
         25    1    1    2    0    0 -0.27114962212E+02 -0.75713126807E+02 -0.71586864932E+03  0.73113652749E+03  0.12500000000E+03 0.  0.
</event>
<event>
 4    0  0.2236434E-002  0.2239628E+03  0.7546771E-02  0.1130963E+00
         21   -1    0    0  502  501  0.00000000000E+00  0.00000000000E+00  0.92721142209E+02  0.92721142209E+02  0.00000000000E+00 0. -1.
         21   -1    0    0  501  502 -0.00000000000E+00 -0.00000000000E+00 -0.54096955454E+03  0.54096955454E+03  0.00000000000E+00 0. -1.
         25    1    1    2    0    0 -0.42916414019E+02  0.31978315567E+02  0.27640455686E+02  0.13875671533E+03  0.12500000000E+03 0.  0.
         25    1    1    2    0    0  0.42916414019E+02 -0.31978315567E+02 -0.47588886802E+03  0.49493398142E+03  0.12500000000E+03 0.  0.
</event>
<event>
 4    0  0.2236434E-002  0.2780461E+03  0.7546771E-02  0.1096761E+00
         21   -1    0    0  502  501  0.00000000000E+00  0.00000000000E+00  0.16856363344E+03  0.16856363344E+03  0.00000000000E+00 0.  1.
         21   -1    0    0  501  502 -0.00000000000E+00 -0.00000000000E+00 -0.45863780778E+03  0.45863780778E+03  0.00000000000E+00 0.  1.
         25    1    1    2    0    0 -0.27207746527E+02  0.18490936941E+03 -0.32951559212E+03  0.39892011959E+03  0.12500000000E+03 0.  0.
         25    1    1    2    0    0  0.27207746527E+02 -0.18490936941E+03  0.39441417779E+02  0.22828132162E+03  0.12500000000E+03 0.  0.
</event>
<event>
 4    0  0.2236434E-002  0.2206258E+03  0.7546771E-02  0.1133417E+00
         21   -1    0    0  502  501  0.00000000000E+00  0.00000000000E+00  0.53228145144E+02  0.53228145144E+02  0.00000000000E+00 0.  1.
         21   -1    0    0  501  502 -0.00000000000E+00 -0.00000000000E+00 -0.91447338646E+03  0.91447338646E+03  0.00000000000E+00 0.  1.
         25    1    1    2    0    0 -0.34824452692E+02 -0.13451425009E+03 -0.68772740822E+03  0.71267160320E+03  0.12500000000E+03 0.  0.
         25    1    1    2    0    0  0.34824452692E+02  0.13451425009E+03 -0.17351783309E+03  0.25502992841E+03  0.12500000000E+03 0.  0.
</event>
<event>
 4    0  0.2236434E-002  0.2165003E+03  0.7546771E-02  0.1136519E+00
         21   -1    0    0  502  501  0.00000000000E+00  0.00000000000E+00  0.23433453078E+03  0.23433453078E+03  0.00000000000E+00 0.  1.
         21   -1    0    0  501  502 -0.00000000000E+00 -0.00000000000E+00 -0.20002336167E+03  0.20002336167E+03  0.00000000000E+00 0.  1.
         25    1    1    2    0    0 -0.14348454713E+03 -0.10122230186E+03  0.37556761688E+02  0.21879049341E+03  0.12500000000E+03 0.  0.
         25    1    1    2    0    0  0.14348454713E+03  0.10122230186E+03 -0.32455925747E+01  0.21556739904E+03  0.12500000000E+03 0.  0.
</event>
<event>
 4    0  0.2236434E-002  0.2556243E+03  0.7546771E-02  0.1109801E+00
         21   -1    0    0  502  501  0.00000000000E+00  0.00000000000E+00  0.55683188529E+03  0.55683188529E+03  0.00000000000E+00 0. -1.
         21   -1    0    0  501  502 -0.00000000000E+00 -0.00000000000E+00 -0.11734916620E+03  0.11734916620E+03  0.00000000000E+00 0. -1.
         25    1    1    2    0    0 -0.12560899287E+03  0.73869019395E+02  0.44230224627E+03  0.48217271612E+03  0.12500000000E+03 0.  0.
         25    1    1    2    0    0  0.12560899287E+03 -0.73869019395E+02 -0.28195271781E+01  0.19200833536E+03  0.12500000000E+03 0.  0.
</event>
<event>
 4    0  0.2236434E-002  0.1990259E+03  0.7546771E-02  0.1150563E+00
         21   -1    0    0  502  501  0.00000000000E+00  0.00000000000E+00  0.56268418550E+02  0.56268418550E+02  0.00000000000E+00 0.  1.
         21   -1    0    0  501  502 -0.00000000000E+00 -0.00000000000E+00 -0.70397030247E+03  0.70397030247E+03  0.00000000000E+00 0.  1.
         25    1    1    2    0    0  0.84211506113E+02  0.12997702793E+03 -0.32543750894E+03  0.38147107070E+03  0.12500000000E+03 0.  0.
         25    1    1    2    0    0 -0.84211506113E+02 -0.12997702793E+03 -0.32226437498E+03  0.37876765032E+03  0.12500000000E+03 0.  0.
</event>
<event>
 4    0  0.2236434E-002  0.2097214E+03  0.7546771E-02  0.1141787E+00
         21   -1    0    0  502  501  0.00000000000E+00  0.00000000000E+00  0.53909854941E+03  0.53909854941E+03  0.00000000000E+00 0.  1.
         21   -1    0    0  501  502 -0.00000000000E+00 -0.00000000000E+00 -0.81586306815E+02  0.81586306815E+02  0.00000000000E+00 0.  1.
         25    1    1    2    0    0 -0.12985886337E+03  0.85658933791E+02  0.13334407852E+03  0.24001337590E+03  0.12500000000E+03 0.  0.
         25    1    1    2    0    0  0.12985886337E+03 -0.85658933791E+02  0.32416816407E+03  0.38067148033E+03  0.12500000000E+03 0.  0.
</event>
<event>
 4    0  0.2236434E-002  0.1917171E+03  0.7546771E-02  0.1156922E+00
         21   -1    0    0  502  501  0.00000000000E+00  0.00000000000E+00  0.11289305753E+04  0.11289305753E+04  0.00000000000E+00 0.  1.
         21   -1    0    0  501  502 -0.00000000000E+00 -0.00000000000E+00 -0.32557746766E+02  0.32557746766E+02  0.00000000000E+00 0.  1.
         25    1    1    2    0    0  0.61702030009E+01 -0.78579213635E+02  0.17820953528E+03  0.23150896891E+03  0.12500000000E+03 0.  0.
         25    1    1    2    0    0 -0.61702030009E+01  0.78579213635E+02  0.91816329323E+03  0.92997935313E+03  0.12500000000E+03 0.  0.
</event>
<event>
 4    0  0.2236434E-002  0.1794767E+03  0.7546771E-02  0.1168310E+00
         21   -1    0    0  502  501  0.00000000000E+00  0.00000000000E+00  0.16933490895E+04  0.16933490895E+04  0.00000000000E+00 0. -1.
         21   -1    0    0  501  502 -0.00000000000E+00 -0.00000000000E+00 -0.19022594314E+02  0.19022594314E+02  0.00000000000E+00 0. -1.
         25    1    1    2    0    0 -0.11029148997E+03 -0.45543950990E+02  0.60598413429E+03  0.63014302761E+03  0.12500000000E+03 0.  0.
         25    1    1    2    0    0  0.11029148997E+03  0.45543950990E+02  0.10683423609E+04  0.10822286562E+04  0.12500000000E+03 0.  0.
</event>
<event>
 4    0  0.2236434E-002  0.2187711E+03  0.7546771E-02  0.1134803E+00
         21   -1    0    0  502  501  0.00000000000E+00  0.00000000000E+00  0.29099606001E+03  0.29099606001E+03  0.00000000000E+00 0.  1.
         21   -1    0    0  501  502 -0.00000000000E+00 -0.00000000000E+00 -0.16447235149E+03  0.16447235149E+03  0.00000000000E+00 0.  1.
         25    1    1    2    0    0 -0.17242196706E+03 -0.49208751800E+02  0.72857447002E+02  0.23039974731E+03  0.12500000000E+03 0.  0.
         25    1    1    2    0    0  0.17242196706E+03  0.49208751800E+02  0.53666261514E+02  0.22506866419E+03  0.12500000000E+03 0.  0.
</event>
<event>
 4    0  0.2236434E-002  0.2903128E+03  0.7546771E-02  0.1090186E+00
         21   -1    0    0  502  501  0.00000000000E+00  0.00000000000E+00  0.37553718152E+03  0.37553718152E+03  0.00000000000E+00 0.  1.
         21   -1    0    0  501  502 -0.00000000000E+00 -0.00000000000E+00 -0.22442921257E+03  0.22442921257E+03  0.00000000000E+00 0.  1.
         25    1    1    2    0    0  0.22966935831E+02  0.32919002620E+02 -0.19200230905E+03  0.23259627588E+03  0.12500000000E+03 0.  0.
         25    1    1    2    0    0 -0.22966935831E+02 -0.32919002620E+02  0.34311027801E+03  0.36737011820E+03  0.12500000000E+03 0.  0.
</event>
<event>
 4    0  0.2236434E-002  0.2618687E+03  0.7546771E-02  0.1106026E+00
         21   -1    0    0  502  501  0.00000000000E+00  0.00000000000E+00  0.43497376335E+03  0.43497376335E+03  0.00000000000E+00 0.  1.
         21   -1    0    0  501  502 -0.00000000000E+00 -0.00000000000E+00 -0.15765372419E+03  0.15765372419E+03  0.00000000000E+00 0.  1.
         25    1    1    2    0    0 -0.11806673037E+03 -0.14987182402E+03  0.28422367052E+03  0.36443025579E+03  0.12500000000E+03 0.  0.
         25    1    1    2    0    0  0.11806673037E+03  0.14987182402E+03 -0.69036313558E+01  0.22819723176E+03  0.12500000000E+03 0.  0.
</event>
<event>
 4    0  0.2236434E-002  0.2203455E+03  0.7546771E-02  0.1133626E+00
         21   -1    0    0  502  501  0.00000000000E+00  0.00000000000E+00  0.51125060588E+02  0.51125060588E+02  0.00000000000E+00 0. -1.
         21   -1    0    0  501  502 -0.00000000000E+00 -0.00000000000E+00 -0.94967394299E+03  0.94967394299E+03  0.00000000000E+00 0. -1.
         25    1    1    2    0    0 -0.13582750803E+03 -0.63029008970E+02 -0.21650907255E+03  0.29141541896E+03  0.12500000000E+03 0.  0.
         25    1    1    2    0    0  0.13582750803E+03  0.63029008970E+02 -0.68203980985E+03  0.70938358462E+03  0.12500000000E+03 0.  0.
</event>
<event>
 4    0  0.2236434E-002  0.1860973E+03  0.7546771E-02  0.1162029E+00
         21   -1    0    0  502  501  0.00000000000E+00  0.00000000000E+00  0.12212499577E+03  0.12212499577E+03  0.00000000000E+00 0.  1.
         21   -1    0    0  501  502 -0.00000000000E+00 -0.00000000000E+00 -0.28358012557E+03  0.28358012557E+03  0.00000000000E+00 0.  1.
         25    1    1    2    0    0 -0.47479552943E+02  0.12850708539E+03 -0.63881584237E+02  0.19614850432E+03  0.12500000000E+03 0.  0.
         25    1    1    2    0    0  0.47479552943E+02 -0.12850708539E+03 -0.97573545554E+02  0.20955661702E+03  0.12500000000E+03 0.  0.
</event>
<event>
 4    0  0.2236434E-002  0.2223184E+03  0.7546771E-02  0.1132166E+00
         21   -1    0    0  502  501  0.00000000000E+00  0.00000000000E+00  0.19488749803E+03  0.19488749803E+03  0.00000000000E+00 0. -1.
         21   -1    0    0  501  502 -0.00000000000E+00 -0.00000000000E+00 -0.25361016421E+03  0.25361016421E+03  0.00000000000E+00 0. -1.
         25    1    1    2    0    0 -0.86264364080E+02 -0.12892268917E+03 -0.12889876059E+03  0.23728145898E+03  0.12500000000E+03 0.  0.
         25    1    1    2    0    0  0.86264364080E+02  0.12892268917E+03  0.70176094406E+02  0.21121620326E+03  0.12500000000E+03 0.  0.
</event>
<event>
 4    0  0.2236434E-002  0.1825353E+03  0.7546771E-02  0.1165372E+00
         21   -1    0    0  502  501  0.00000000000E+00  0.00000000000E+00  0.84349771876E+02  0.84349771876E+02  0.00000000000E+00 0.  1.
         21   -1    0    0  501  502 -0.00000000000E+00 -0.00000000000E+00 -0.39501145211E+03  0.39501145211E+03  0.00000000000E+00 0.  1.
         25    1    1    2    0    0 -0.60281998997E+02 -0.49048164606E+02 -0.13577718757E+02  0.14781405989E+03  0.12500000000E+03 0.  0.
         25    1    1    2    0    0  0.60281998997E+02  0.49048164606E+02 -0.29708396148E+03  0.33154716410E+03  0.12500000000E+03 0.  0.
</event>
<event>
 4    0  0.2236434E-002  0.1511179E+03  0.7546771E-02  0.1199106E+00
         21   -1    0    0  502  501  0.00000000000E+00  0.00000000000E+00  0.97054035190E+02  0.97054035190E+02  0.00000000000E+00 0. -1.
         21   -1    0    0  501  502 -0.00000000000E+00 -0.00000000000E+00 -0.23529800109E+03  0.23529800109E+03  0.00000000000E+00 0. -1.
         25    1    1    2    0    0  0.23767312016E+02 -0.81296372278E+02 -0.62375932059E+02  0.16336995491E+03  0.12500000000E+03 0.  0.
         25    1    1    2    0    0 -0.23767312016E+02  0.81296372278E+02 -0.75868033839E+02  0.16898208137E+03  0.12500000000E+03 0.  0.
</event>
<event>
 4    0  0.2236434E-002  0.2987187E+03  0.7546771E-02  0.1085883E+00
         21   -1    0    0  502  501  0.00000000000E+00  0.00000000000E+00  0.25868389617E+03  0.25868389617E+03  0.00000000000E+00 0.  1.
         21   -1    0    0  501  502 -0.00000000000E+00 -0.00000000000E+00 -0.34494943243E+03  0.34494943243E+03  0.00000000000E+00 0.  1.
         25    1    1    2    0    0  0.21744886529E+03 -0.91483626967E+02 -0.17851718220E+03  0.32116451759E+03  0.12500000000E+03 0.  0.
         25    1    1    2    0    0 -0.21744886529E+03  0.91483626967E+02  0.92251645936E+02  0.28246881101E+03  0.12500000000E+03 0.  0.
</event>
<event>
 4    0  0.2236434E-002  0.1998569E+03  0.7546771E-02  0.1149860E+00
         21   -1    0    0  502  501  0.00000000000E+00  0.00000000000E+00  0.13447319968E+03  0.13447319968E+03  0.00000000000E+00 0.  1.
         21   -1    0    0  501  502 -0.00000000000E+00 -0.00000000000E+00 -0.29703147358E+03  0.29703147358E+03  0.00000000000E+00 0.  1.
         25    1    1    2    0    0  0.23569046493E+02 -0.51219026227E+02 -0.23823495978E+03  0.27488140109E+03  0.12500000000E+03 0.  0.
         25    1    1    2    0    0 -0.23569046493E+02  0.51219026227E+02  0.75676685887E+02  0.15662327218E+03  0.12500000000E+03 0.  0.
</event>
<event>
 4    0  0.2236434E-002  0.1850409E+03  0.7546771E-02  0.1163012E+00
         21   -1    0    0  502  501  0.00000000000E+00  0.00000000000E+00  0.11836243195E+04  0.11836243195E+04  0.00000000000E+00 0.  1.
         21   -1    0    0  501  502 -0.00000000000E+00 -0.00000000000E+00 -0.28928225954E+02  0.28928225954E+02  0.00000000000E+00 0.  1.
         25    1    1    2    0    0  0.61057805470E+02  0.12121762526E+03  0.62291105739E+03  0.64966526281E+03  0.12500000000E+03 0.  0.
         25    1    1    2    0    0 -0.61057805470E+02 -0.12121762526E+03  0.53178503619E+03  0.56288728268E+03  0.12500000000E+03 0.  0.
</event>
<event>
 4    0  0.2236434E-002  0.1884104E+03  0.7546771E-02  0.1159903E+00
         21   -1    0    0  502  501  0.00000000000E+00  0.00000000000E+00  0.23542126424E+03  0.23542126424E+03  0.00000000000E+00 0. -1.
         21   -1    0    0  501  502 -0.00000000000E+00 -0.00000000000E+00 -0.15078711102E+03  0.15078711102E+03  0.00000000000E+00 0. -1.
         25    1    1    2    0    0  0.41704603991E+02 -0.10900450357E+03 -0.38723857292E+02  0.17534478298E+03  0.12500000000E+03 0.  0.
         25    1    1    2    0    0 -0.41704603991E+02  0.10900450357E+03  0.12335801051E+03  0.21086359228E+03  0.12500000000E+03 0.  0.
</event>
<event>
 4    0  0.2236434E-002  0.2523879E+03  0.7546771E-02  0.1111805E+00
         21   -1    0    0  502  501  0.00000000000E+00  0.00000000000E+00  0.41128720483E+02  0.41128720483E+02  0.00000000000E+00 0.  1.
         21   -1    0    0  501  502 -0.00000000000E+00 -0.00000000000E+00 -0.15487876070E+04  0.15487876070E+04  0.00000000000E+00 0.  1.
         25    1    1    2    0    0  0.10349470805E+03  0.60802204435E+02 -0.17589935369E+03  0.24692842139E+03  0.12500000000E+03 0.  0.
         25    1    1    2    0    0 -0.10349470805E+03 -0.60802204435E+02 -0.13317595328E+04  0.13429879061E+04  0.12500000000E+03 0.  0.
</event>
<event>
 4    0  0.2236434E-002  0.2322313E+03  0.7546771E-02  0.1125079E+00
         21   -1    0    0  502  501  0.00000000000E+00  0.00000000000E+00  0.17904693722E+03  0.17904693722E+03  0.00000000000E+00 0.  1.
         21   -1    0    0  501  502 -0.00000000000E+00 -0.00000000000E+00 -0.30121361646E+03  0.30121361646E+03  0.00000000000E+00 0.  1.
         25    1    1    2    0    0 -0.45890284476E+02  0.17419021483E+03  0.18059065842E+02  0.21999836138E+03  0.12500000000E+03 0.  0.
         25    1    1    2    0    0  0.45890284476E+02 -0.17419021483E+03 -0.14022574509E+03  0.26026219230E+03  0.12500000000E+03 0.  0.
</event>
<event>
 4    0  0.2236434E-002  0.2008467E+03  0.7546771E-02  0.1149027E+00
         21   -1    0    0  502  501  0.00000000000E+00  0.00000000000E+00  0.21329303571E+03  0.21329303571E+03  0.00000000000E+00 0. -1.
         21   -1    0    0  501  502 -0.00000000000E+00 -0.00000000000E+00 -0.18912662556E+03  0.18912662556E+03  0.00000000000E+00 0. -1.
         25    1    1    2    0    0 -0.10371402114E+02 -0.14007847301E+03 -0.58647902707E+02  0.19696223261E+03  0.12500000000E+03 0.  0.
         25    1    1    2    0    0  0.10371402114E+02  0.14007847301E+03  0.82814312860E+02  0.20545742867E+03  0.12500000000E+03 0.  0.
</event>
<event>
 4    0  0.2236434E-002  0.2368726E+03  0.7546771E-02  0.1121894E+00
         21   -1    0    0  502  501  0.00000000000E+00  0.00000000000E+00  0.45322777005E+03  0.45322777005E+03  0.00000000000E+00 0. -1.
         21   -1    0    0  501  502 -0.00000000000E+00 -0.00000000000E+00 -0.12379785349E+03  0.12379785349E+03  0.00000000000E+00 0. -1.
         25    1    1    2    0    0 -0.53628292258E+02 -0.19311366004E+03  0.18632373387E+03  0.30084948600E+03  0.12500000000E+03 0.  0.
         25    1    1    2    0    0  0.53628292258E+02  0.19311366004E+03  0.14310618269E+03  0.27617613754E+03  0.12500000000E+03 0.  0.
</event>
<event>
 4    0  0.2236434E-002  0.1830117E+03  0.7546771E-02  0.1164920E+00
         21   -1    0    0  502  501  0.00000000000E+00  0.00000000000E+00  0.70342930658E+02  0.70342930658E+02  0.00000000000E+00 0.  1.
         21   -1    0    0  501  502 -0.00000000000E+00 -0.00000000000E+00 -0.47614273356E+03  0.47614273356E+03  0.00000000000E+00 0.  1.
         25    1    1    2    0    0 -0.96224905781E+02 -0.42540698498E+02 -0.32601266636E+03  0.36466176404E+03  0.12500000000E+03 0.  0.
         25    1    1    2    0    0  0.96224905781E+02  0.42540698498E+02 -0.79787136544E+02  0.18182390019E+03  0.12500000000E+03 0.  0.
</event>
<event>
 4    0  0.2236434E-002  0.2314185E+03  0.7546771E-02  0.1125645E+00
         21   -1    0    0  502  501  0.00000000000E+00  0.00000000000E+00  0.10350771270E+04  0.10350771270E+04  0.00000000000E+00 0.  1.
         21   -1    0    0  501  502 -0.00000000000E+00 -0.00000000000E+00 -0.51739656570E+02  0.51739656570E+02  0.00000000000E+00 0.  1.
         25    1    1    2    0    0  0.16582469723E+03  0.75774975068E+02  0.65247688746E+03  0.68890548389E+03  0.12500000000E+03 0.  0.
         25    1    1    2    0    0 -0.16582469723E+03 -0.75774975068E+02  0.33086058299E+03  0.39791129970E+03  0.12500000000E+03 0.  0.
</event>
<event>
 4    0  0.2236434E-002  0.2487086E+03  0.7546771E-02  0.1114124E+00
         21   -1    0    0  502  501  0.00000000000E+00  0.00000000000E+00  0.14446592909E+03  0.14446592909E+03  0.00000000000E+00 0.  1.
         21   -1    0    0  501  502 -0.00000000000E+00 -0.00000000000E+00 -0.42817007845E+03  0.42817007845E+03  0.00000000000E+00 0.  1.
         25    1    1    2    0    0 -0.55860509395E+02 -0.91504181420E+02 -0.35641641247E+03  0.39262077226E+03  0.12500000000E+03 0.  0.
         25    1    1    2    0    0  0.55860509395E+02  0.91504181420E+02  0.72712263106E+02  0.18001523528E+03  0.12500000000E+03 0.  0.
</event>
<event>
 4    0  0.2236434E-002  0.2092288E+03  0.7546771E-02  0.1142178E+00
         21   -1    0    0  502  501  0.00000000000E+00  0.00000000000E+00  0.95712894377E+03  0.95712894377E+03  0.00000000000E+00 0. -1.
         21   -1    0    0  501  502 -0.00000000000E+00 -0.00000000000E+00 -0.45737516294E+02  0.45737516294E+02  0.00000000000E+00 0. -1.
         25    1    1    2    0    0 -0.10576188808E+03  0.54608642088E+02  0.73910078324E+03  0.75898791067E+03  0.12500000000E+03 0.  0.
         25    1    1    2    0    0  0.10576188808E+03 -0.54608642088E+02  0.17229064423E+03  0.24387854939E+03  0.12500000000E+03 0.  0.
</event>
<event>
 4    0  0.2236434E-002  0.1816890E+03  0.7546771E-02  0.1166178E+00
         21   -1    0    0  502  501  0.00000000000E+00  0.00000000000E+00  0.89214642025E+02  0.89214642025E+02  0.00000000000E+00 0. -1.
         21   -1    0    0  501  502 -0.00000000000E+00 -0.00000000000E+00 -0.37001634373E+03  0.37001634373E+03  0.00000000000E+00 0. -1.
         25    1    1    2    0    0 -0.12794422813E+03  0.19315146691E+02 -0.17244904494E+03  0.24921170419E+03  0.12500000000E+03 0.  0.
         25    1    1    2    0    0  0.12794422813E+03 -0.19315146691E+02 -0.10835265677E+03  0.21001928157E+03  0.12500000000E+03 0.  0.
</event>
<event>
 4    0  0.2236434E-002  0.2109373E+03  0.7546771E-02  0.1140826E+00
         21   -1    0    0  502  501  0.00000000000E+00  0.00000000000E+00  0.47343310984E+03  0.47343310984E+03  0.00000000000E+00 0.  1.
         21   -1    0    0  501  502 -0.00000000000E+00 -0.00000000000E+00 -0.93982759417E+02  0.93982759417E+02  0.00000000000E+00 0.  1.
         25    1    1    2    0    0  0.27603281781E+02  0.11878138688E+03  0.30592180701E+02  0.17729027203E+03  0.12500000000E+03 0.  0.
         25    1    1    2    0    0 -0.27603281781E+02 -0.11878138688E+03  0.34885816972E+03  0.39012559723E+03  0.12500000000E+03 0.  0.
</event>
<event>
 4    0  0.2236434E-002  0.1498970E+03  0.7546771E-02  0.1200600E+00
         21   -1    0    0  502  501  0.00000000000E+00  0.00000000000E+00  0.33256700894E+02  0.33256700894E+02  0.00000000000E+00 0.  1.
         21   -1    0    0  501  502 -0.00000000000E+00 -0.00000000000E+00 -0.67562632664E+03  0.67562632664E+03  0.00000000000E+00 0.  1.
         25    1    1    2    0    0  0.19910260269E+02 -0.40459056679E+02 -0.15717944435E+03  0.20582451618E+03  0.12500000000E+03 0.  0.
         25    1    1    2    0    0 -0.19910260269E+02  0.40459056679E+02 -0.48519018140E+03  0.50305851136E+03  0.12500000000E+03 0.  0.
</event>
<event>
 4    0  0.2236434E-002  0.2929933E+03  0.7546771E-02  0.1088797E+00
         21   -1    0    0  502  501  0.00000000000E+00  0.00000000000E+00  0.43144122006E+02  0.43144122006E+02  0.00000000000E+00 0.  1.
         21   -1    0    0  501  502 -0.00000000000E+00 -0.00000000000E+00 -0.19897276312E+04  0.19897276312E+04  0.00000000000E+00 0.  1.
         25    1    1    2    0    0 -0.47575029493E+02  0.22436794149E+03 -0.51285260340E+03  0.57554074522E+03  0.12500000000E+03 0.  0.
         25    1    1    2    0    0  0.47575029493E+02 -0.22436794149E+03 -0.14337309058E+04  0.14573310080E+04  0.12500000000E+03 0.  0.
</event>
<event>
 4    0  0.2236434E-002  0.2405747E+03  0.7546771E-02  0.1119411E+00
         21   -1    0    0  502  501  0.00000000000E+00  0.00000000000E+00  0.36348880112E+03  0.36348880112E+03  0.00000000000E+00 0.  1.
         21   -1    0    0  501  502 -0.00000000000E+00 -0.00000000000E+00 -0.15922407200E+03  0.15922407200E+03  0.00000000000E+00 0.  1.
         25    1    1    2    0    0  0.71908891840E+02 -0.18117141789E+02 -0.10613637512E+03  0.17996957986E+03  0.12500000000E+03 0.  0.
         25    1    1    2    0    0 -0.71908891840E+02  0.18117141789E+02  0.31040110425E+03  0.34274329325E+03  0.12500000000E+03 0.  0.
</event>
<event>
 4    0  0.2236434E-002  0.2532120E+03  0.7546771E-02  0.1111292E+00
         21   -1    0    0  502  501  0.00000000000E+00  0.00000000000E+00  0.10365217541E+04  0.10365217541E+04  0.00000000000E+00 0.  1.
         21   -1    0    0  501  502 -0.00000000000E+00 -0.00000000000E+00 -0.61857202907E+02  0.61857202907E+02  0.00000000000E+00 0.  1.
         25    1    1    2    0    0 -0.56467766195E+01  0.16994914276E+03  0.79079687575E+03  0.81847376006E+03  0.12500000000E+03 0.  0.
         25    1    1    2    0    0  0.56467766195E+01 -0.16994914276E+03  0.18386767547E+03  0.27990519697E+03  0.12500000000E+03 0.  0.
</event>
<event>
 4    0  0.2236434E-002  0.4539275E+03  0.7546771E-02  0.1026557E+00
         21   -1    0    0  502  501  0.00000000000E+00  0.00000000000E+00  0.86770606026E+03  0.86770606026E+03  0.00000000000E+00 0.  1.
         21   -1    0    0  501  502 -0.00000000000E+00 -0.00000000000E+00 -0.23746538514E+03  0.23746538514E+03  0.00000000000E+00 0.  1.
         25    1    1    2    0    0  0.40432517481E+03  0.14133375969E+03  0.21348070858E+03  0.49462419224E+03  0.12500000000E+03 0.  0.
         25    1    1    2    0    0 -0.40432517481E+03 -0.14133375969E+03  0.41675996655E+03  0.61054725316E+03  0.12500000000E+03 0.  0.
</event>
<event>
 4    0  0.2236434E-002  0.2111706E+03  0.7546771E-02  0.1140642E+00
         21   -1    0    0  502  501  0.00000000000E+00  0.00000000000E+00  0.13261557652E+03  0.13261557652E+03  0.00000000000E+00 0.  1.
         21   -1    0    0  501  502 -0.00000000000E+00 -0.00000000000E+00 -0.33625778453E+03  0.33625778453E+03  0.00000000000E+00 0.  1.
         25    1    1    2    0    0 -0.17007845132E+02  0.10136821267E+03 -0.25242605517E+03  0.29984778582E+03  0.12500000000E+03 0.  0.
         25    1    1    2    0    0  0.17007845132E+02 -0.10136821267E+03  0.48783847156E+02  0.16902557522E+03  0.12500000000E+03 0.  0.
</event>
<event>
 4    0  0.2236434E-002  0.1831661E+03  0.7546771E-02  0.1164774E+00
         21   -1    0    0  502  501  0.00000000000E+00  0.00000000000E+00  0.14155612420E+03  0.14155612420E+03  0.00000000000E+00 0. -1.
         21   -1    0    0  501  502 -0.00000000000E+00 -0.00000000000E+00 -0.23700723904E+03  0.23700723904E+03  0.00000000000E+00 0. -1.
         25    1    1    2    0    0  0.12959578166E+03 -0.17448860856E+02 -0.77412708914E+02  0.19676701164E+03  0.12500000000E+03 0.  0.
         25    1    1    2    0    0 -0.12959578166E+03  0.17448860856E+02 -0.18038405926E+02  0.18179635160E+03  0.12500000000E+03 0.  0.
</event>
<event>
 4    0  0.2236434E-002  0.1575551E+03  0.7546771E-02  0.1191485E+00
         21   -1    0    0  502  501  0.00000000000E+00  0.00000000000E+00  0.76675288546E+02  0.76675288546E+02  0.00000000000E+00 0. -1.
         21   -1    0    0  501  502 -0.00000000000E+00 -0.00000000000E+00 -0.32374964456E+03  0.32374964456E+03  0.00000000000E+00 0. -1.
         25    1    1    2    0    0  0.98990062563E+01  0.84267510474E+01 -0.27855654483E+01  0.12570505094E+03  0.12500000000E+03 0.  0.
         25    1    1    2    0    0 -0.98990062563E+01 -0.84267510474E+01 -0.24428879056E+03  0.27471988216E+03  0.12500000000E+03 0.  0.
</event>
<event>
 4    0  0.2236434E-002  0.1775295E+03  0.7546771E-02  0.1170216E+00
         21   -1    0    0  502  501  0.00000000000E+00  0.00000000000E+00  0.74440048141E+02  0.74440048141E+02  0.00000000000E+00 0. -1.
         21   -1    0    0  501  502 -0.00000000000E+00 -0.00000000000E+00 -0.42338379803E+03  0.42338379803E+03  0.00000000000E+00 0. -1.
         25    1    1    2    0    0 -0.62027059094E+02  0.36537751853E+02 -0.31956831405E+03  0.35061555972E+03  0.12500000000E+03 0.  0.
         25    1    1    2    0    0  0.62027059094E+02 -0.36537751853E+02 -0.29375435839E+02  0.14720828646E+03  0.12500000000E+03 0.  0.
</event>
<event>
 4    0  0.2236434E-002  0.1857716E+03  0.7546771E-02  0.1162331E+00
         21   -1    0    0  502  501  0.00000000000E+00  0.00000000000E+00  0.36902387191E+02  0.36902387191E+02  0.00000000000E+00 0.  1.
         21   -1    0    0  501  502 -0.00000000000E+00 -0.00000000000E+00 -0.93519903545E+03  0.93519903545E+03  0.00000000000E+00 0.  1.
         25    1    1    2    0    0 -0.51139443716E+02 -0.85940959338E+02 -0.69576968743E+03  0.71394786164E+03  0.12500000000E+03 0.  0.
         25    1    1    2    0    0  0.51139443716E+02  0.85940959338E+02 -0.20252696084E+03  0.25815356101E+03  0.12500000000E+03 0.  0.
</event>
<event>
 4    0  0.2236434E-002  0.2008527E+03  0.7546771E-02  0.1149022E+00
         21   -1    0    0  502  501  0.00000000000E+00  0.00000000000E+00  0.48012438184E+02  0.48012438184E+02  0.00000000000E+00 0.  1.
         21   -1    0    0  501  502 -0.00000000000E+00 -0.00000000000E+00 -0.84023640461E+03  0.84023640461E+03  0.00000000000E+00 0.  1.
         25    1    1    2    0    0 -0.93112281268E+02 -0.70267421577E+02 -0.62917435019E+03  0.65199138828E+03  0.12500000000E+03 0.  0.
         25    1    1    2    0    0  0.93112281268E+02  0.70267421577E+02 -0.16304961624E+03  0.23625745451E+03  0.12500000000E+03 0.  0.
</event>
<event>
 4    0  0.2236434E-002  0.2167956E+03  0.7546771E-02  0.1136295E+00
         21   -1    0    0  502  501  0.00000000000E+00  0.00000000000E+00  0.13666957497E+03  0.13666957497E+03  0.00000000000E+00 0. -1.
         21   -1    0    0  501  502 -0.00000000000E+00 -0.00000000000E+00 -0.34389769308E+03  0.34389769308E+03  0.00000000000E+00 0. -1.
         25    1    1    2    0    0  0.51668219477E+02  0.20932553321E+02  0.82731013692E+02  0.15992872575E+03  0.12500000000E+03 0.  0.
         25    1    1    2    0    0 -0.51668219477E+02 -0.20932553321E+02 -0.28995913181E+03  0.32063854230E+03  0.12500000000E+03 0.  0.
</event>
<event>
 4    0  0.2236434E-002  0.2274729E+03  0.7546771E-02  0.1128431E+00
         21   -1    0    0  502  501  0.00000000000E+00  0.00000000000E+00  0.30597498261E+02  0.30597498261E+02  0.00000000000E+00 0. -1.
         21   -1    0    0  501  502 -0.00000000000E+00 -0.00000000000E+00 -0.16911164577E+04  0.16911164577E+04  0.00000000000E+00 0. -1.
         25    1    1    2    0    0  0.84519666690E+02 -0.11397235244E+03 -0.35177638799E+03  0.39938064340E+03  0.12500000000E+03 0.  0.
         25    1    1    2    0    0 -0.84519666690E+02  0.11397235244E+03 -0.13087425714E+04  0.13223333125E+04  0.12500000000E+03 0.  0.
</event>
<event>
 4    0  0.2236434E-002  0.1539893E+03  0.7546771E-02  0.1195655E+00
         21   -1    0    0  502  501  0.00000000000E+00  0.00000000000E+00  0.30868005859E+02  0.30868005859E+02  0.00000000000E+00 0. -1.
         21   -1    0    0  501  502 -0.00000000000E+00 -0.00000000000E+00 -0.76819712193E+03  0.76819712193E+03  0.00000000000E+00 0. -1.
         25    1    1    2    0    0  0.67625486383E+02  0.48657048713E+02 -0.45653503329E+03  0.48061413984E+03  0.12500000000E+03 0.  0.
         25    1    1    2    0    0 -0.67625486383E+02 -0.48657048713E+02 -0.28079408278E+03  0.31845098794E+03  0.12500000000E+03 0.  0.
</event>
<event>
 4    0  0.2236434E-002  0.3824048E+03  0.7546771E-02  0.1050048E+00
         21   -1    0    0  502  501  0.00000000000E+00  0.00000000000E+00  0.60290466874E+03  0.60290466874E+03  0.00000000000E+00 0. -1.
         21   -1    0    0  501  502 -0.00000000000E+00 -0.00000000000E+00 -0.24254817798E+03  0.24254817798E+03  0.00000000000E+00 0. -1.
         25    1    1    2    0    0  0.18578094663E+03  0.11849094623E+03 -0.13647600256E+03  0.28775921140E+03  0.12500000000E+03 0.  0.
         25    1    1    2    0    0 -0.18578094663E+03 -0.11849094623E+03  0.49683249331E+03  0.55769363532E+03  0.12500000000E+03 0.  0.
</event>
<event>
 4    0  0.2236434E-002  0.3711808E+03  0.7546771E-02  0.1054242E+00
         21   -1    0    0  502  501  0.00000000000E+00  0.00000000000E+00  0.24997300284E+03  0.24997300284E+03  0.00000000000E+00 0. -1.
         21   -1    0    0  501  502 -0.00000000000E+00 -0.00000000000E+00 -0.55116033560E+03  0.55116033560E+03  0.00000000000E+00 0. -1.
         25    1    1    2    0    0  0.33616152727E+03  0.51063052969E+01 -0.47536984006E+02  0.36182234815E+03  0.12500000000E+03 0.  0.
         25    1    1    2    0    0 -0.33616152727E+03 -0.51063052969E+01 -0.25365034876E+03  0.43931099030E+03  0.12500000000E+03 0.  0.
</event>
<event>
 4    0  0.2236434E-002  0.3031823E+03  0.7546771E-02  0.1083661E+00
         21   -1    0    0  502  501  0.00000000000E+00  0.00000000000E+00  0.11803228532E+03  0.11803228532E+03  0.00000000000E+00 0.  1.
         21   -1    0    0  501  502 -0.00000000000E+00 -0.00000000000E+00 -0.77876587010E+03  0.77876587010E+03  0.00000000000E+00 0.  1.
         25    1    1    2    0    0 -0.48446530662E+02 -0.26472517409E+03 -0.23838415997E+03  0.38062907384E+03  0.12500000000E+03 0.  0.
         25    1    1    2    0    0  0.48446530662E+02  0.26472517409E+03 -0.42234942481E+03  0.51616908157E+03  0.12500000000E+03 0.  0.
</event>
<event>
 4    0  0.2236434E-002  0.1916664E+03  0.7546771E-02  0.1156967E+00
         21   -1    0    0  502  501  0.00000000000E+00  0.00000000000E+00  0.10673449479E+03  0.10673449479E+03  0.00000000000E+00 0. -1.
         21   -1    0    0  501  502 -0.00000000000E+00 -0.00000000000E+00 -0.34418130109E+03  0.34418130109E+03  0.00000000000E+00 0. -1.
         25    1    1    2    0    0 -0.29488492930E+02  0.14150167452E+03 -0.13612006135E+03  0.23461876781E+03  0.12500000000E+03 0.  0.
         25    1    1    2    0    0  0.29488492930E+02 -0.14150167452E+03 -0.10132674495E+03  0.21629702807E+03  0.12500000000E+03 0.  0.
</event>
<event>
 4    0  0.2236434E-002  0.2538709E+03  0.7546771E-02  0.1110883E+00
         21   -1    0    0  502  501  0.00000000000E+00  0.00000000000E+00  0.83926285577E+02  0.83926285577E+02  0.00000000000E+00 0.  1.
         21   -1    0    0  501  502 -0.00000000000E+00 -0.00000000000E+00 -0.76794120827E+03  0.76794120827E+03  0.00000000000E+00 0.  1.
         25    1    1    2    0    0 -0.15928388330E+03 -0.14994939382E+03 -0.39424142828E+03  0.46787549621E+03  0.12500000000E+03 0.  0.
         25    1    1    2    0    0  0.15928388330E+03  0.14994939382E+03 -0.28977349441E+03  0.38399199764E+03  0.12500000000E+03 0.  0.
</event>
<event>
 4    0  0.2236434E-002  0.2399547E+03  0.7546771E-02  0.1119823E+00
         21   -1    0    0  502  501  0.00000000000E+00  0.00000000000E+00  0.11274972108E+03  0.11274972108E+03  0.00000000000E+00 0.  1.
         21   -1    0    0  501  502 -0.00000000000E+00 -0.00000000000E+00 -0.51067322241E+03  0.51067322241E+03  0.00000000000E+00 0.  1.
         25    1    1    2    0    0  0.86935957287E+02  0.14412831668E+03 -0.47343733100E+02  0.21493548195E+03  0.12500000000E+03 0.  0.
         25    1    1    2    0    0 -0.86935957287E+02 -0.14412831668E+03 -0.35057976823E+03  0.40848746154E+03  0.12500000000E+03 0.  0.
</event>
<event>
 4    0  0.2236434E-002  0.1911256E+03  0.7546771E-02  0.1157450E+00
         21   -1    0    0  502  501  0.00000000000E+00  0.00000000000E+00  0.26252177488E+03  0.26252177488E+03  0.00000000000E+00 0. -1.
         21   -1    0    0  501  502 -0.00000000000E+00 -0.00000000000E+00 -0.13914654683E+03  0.13914654683E+03  0.00000000000E+00 0. -1.
         25    1    1    2    0    0  0.34816557101E+02  0.50660134521E+02 -0.75823726224E+02  0.15859659308E+03  0.12500000000E+03 0.  0.
         25    1    1    2    0    0 -0.34816557101E+02 -0.50660134521E+02  0.19919895428E+03  0.24307172864E+03  0.12500000000E+03 0.  0.
</event>
<event>
 4    0  0.2236434E-002  0.2560704E+03  0.7546771E-02  0.1109527E+00
         21   -1    0    0  502  501  0.00000000000E+00  0.00000000000E+00  0.22787755304E+03  0.22787755304E+03  0.00000000000E+00 0. -1.
         21   -1    0    0  501  502 -0.00000000000E+00 -0.00000000000E+00 -0.28775131479E+03  0.28775131479E+03  0.00000000000E+00 0. -1.
         25    1    1    2    0    0  0.15617026738E+03  0.84363262925E+02  0.10678471558E+03  0.24193860383E+03  0.12500000000E+03 0.  0.
         25    1    1    2    0    0 -0.15617026738E+03 -0.84363262925E+02 -0.16665847732E+03  0.27369026400E+03  0.12500000000E+03 0.  0.
</event>
<event>
 4    0  0.2236434E-002  0.2041998E+03  0.7546771E-02  0.1146243E+00
         21   -1    0    0  502  501  0.00000000000E+00  0.00000000000E+00  0.23370450214E+03  0.23370450214E+03  0.00000000000E+00 0. -1.
         21   -1    0    0  501  502 -0.00000000000E+00 -0.00000000000E+00 -0.17841991827E+03  0.17841991827E+03  0.00000000000E+00 0. -1.
         25    1    1    2    0    0  0.10172034765E+03  0.70557177121E+02 -0.76971919673E+02  0.19202869782E+03  0.12500000000E+03 0.  0.
         25    1    1    2    0    0 -0.10172034765E+03 -0.70557177121E+02  0.13225650354E+03  0.22009572258E+03  0.12500000000E+03 0.  0.
</event>
<event>
 4    0  0.2236434E-002  0.5828171E+03  0.7546771E-02  0.9941711E-01
         21   -1    0    0  502  501  0.00000000000E+00  0.00000000000E+00  0.50071323528E+03  0.50071323528E+03  0.00000000000E+00 0. -1.
         21   -1    0    0  501  502 -0.00000000000E+00 -0.00000000000E+00 -0.67838394178E+03  0.67838394178E+03  0.00000000000E+00 0. -1.
         25    1    1    2    0    0 -0.43201494004E+03  0.25873060517E+03 -0.35736780055E+03  0.63001204698E+03  0.12500000000E+03 0.  0.
         25    1    1    2    0    0  0.43201494004E+03 -0.25873060517E+03  0.17969709405E+03  0.54908513009E+03  0.12500000000E+03 0.  0.
</event>
<event>
 4    0  0.2236434E-002  0.2039431E+03  0.7546771E-02  0.1146454E+00
         21   -1    0    0  502  501  0.00000000000E+00  0.00000000000E+00  0.44170804708E+03  0.44170804708E+03  0.00000000000E+00 0. -1.
         21   -1    0    0  501  502 -0.00000000000E+00 -0.00000000000E+00 -0.94163537199E+02  0.94163537199E+02  0.00000000000E+00 0. -1.
         25    1    1    2    0    0  0.55184952099E+02 -0.26942879535E+02 -0.21960671750E+02  0.14099137846E+03  0.12500000000E+03 0.  0.
         25    1    1    2    0    0 -0.55184952099E+02  0.26942879535E+02  0.36950518163E+03  0.39488020582E+03  0.12500000000E+03 0.  0.
</event>
<event>
 4    0  0.2236434E-002  0.2247426E+03  0.7546771E-02  0.1130396E+00
         21   -1    0    0  502  501  0.00000000000E+00  0.00000000000E+00  0.16095358662E+03  0.16095358662E+03  0.00000000000E+00 0. -1.
         21   -1    0    0  501  502 -0.00000000000E+00 -0.00000000000E+00 -0.31381232240E+03  0.31381232240E+03  0.00000000000E+00 0. -1.
         25    1    1    2    0    0  0.11036435336E+03  0.15043049893E+03 -0.67306862093E+02  0.23444581290E+03  0.12500000000E+03 0.  0.
         25    1    1    2    0    0 -0.11036435336E+03 -0.15043049893E+03 -0.85551873688E+02  0.24032009611E+03  0.12500000000E+03 0.  0.
</event>
<event>
 4    0  0.2236434E-002  0.2121167E+03  0.7546771E-02  0.1139901E+00
         21   -1    0    0  502  501  0.00000000000E+00  0.00000000000E+00  0.17232367448E+03  0.17232367448E+03  0.00000000000E+00 0. -1.
         21   -1    0    0  501  502 -0.00000000000E+00 -0.00000000000E+00 -0.26109867695E+03  0.26109867695E+03  0.00000000000E+00 0. -1.
         25    1    1    2    0    0  0.18787928441E+02 -0.69805568598E+02 -0.20313220189E+03  0.24922579142E+03  0.12500000000E+03 0.  0.
         25    1    1    2    0    0 -0.18787928441E+02  0.69805568598E+02  0.11435719941E+03  0.18419656001E+03  0.12500000000E+03 0.  0.
</event>
<event>
 4    0  0.2236434E-002  0.2022550E+03  0.7546771E-02  0.1147850E+00
         21   -1    0    0  502  501  0.00000000000E+00  0.00000000000E+00  0.40573089119E+03  0.40573089119E+03  0.00000000000E+00 0.  1.
         21   -1    0    0  501  502 -0.00000000000E+00 -0.00000000000E+00 -0.10082316145E+03  0.10082316145E+03  0.00000000000E+00 0.  1.
         25    1    1    2    0    0  0.67952732174E+02  0.33803912015E+02 -0.22513260165E+02  0.14795987686E+03  0.12500000000E+03 0.  0.
         25    1    1    2    0    0 -0.67952732174E+02 -0.33803912015E+02  0.32742098990E+03  0.35859417579E+03  0.12500000000E+03 0.  0.
</event>
<event>
 4    0  0.2236434E-002  0.1779144E+03  0.7546771E-02  0.1169837E+00
         21   -1    0    0  502  501  0.00000000000E+00  0.00000000000E+00  0.19544946819E+03  0.19544946819E+03  0.00000000000E+00 0.  1.
         21   -1    0    0  501  502 -0.00000000000E+00 -0.00000000000E+00 -0.16195259312E+03  0.16195259312E+03  0.00000000000E+00 0.  1.
         25    1    1    2    0    0  0.66053135202E+02  0.24812032038E+02 -0.88834787967E+02  0.16880542988E+03  0.12500000000E+03 0.  0.
         25    1    1    2    0    0 -0.66053135202E+02 -0.24812032038E+02  0.12233166304E+03  0.18859663143E+03  0.12500000000E+03 0.  0.
</event>
<event>
 4    0  0.2236434E-002  0.2551633E+03  0.7546771E-02  0.1110085E+00
         21   -1    0    0  502  501  0.00000000000E+00  0.00000000000E+00  0.50970775328E+03  0.50970775328E+03  0.00000000000E+00 0.  1.
         21   -1    0    0  501  502 -0.00000000000E+00 -0.00000000000E+00 -0.12773659656E+03  0.12773659656E+03  0.00000000000E+00 0.  1.
         25    1    1    2    0    0 -0.62359320621E+01  0.22232388454E+03  0.18590603801E+03  0.31567839878E+03  0.12500000000E+03 0.  0.
         25    1    1    2    0    0  0.62359320621E+01 -0.22232388454E+03  0.19606511871E+03  0.32176595106E+03  0.12500000000E+03 0.  0.
</event>
<event>
 4    0  0.2236434E-002  0.2187200E+03  0.7546771E-02  0.1134841E+00
         21   -1    0    0  502  501  0.00000000000E+00  0.00000000000E+00  0.13171696393E+03  0.13171696393E+03  0.00000000000E+00 0. -1.
         21   -1    0    0  501  502 -0.00000000000E+00 -0.00000000000E+00 -0.36319119046E+03  0.36319119046E+03  0.00000000000E+00 0. -1.
         25    1    1    2    0    0 -0.60507944159E+02 -0.99432812292E+02  0.38832500385E+02  0.17516009406E+03  0.12500000000E+03 0.  0.
         25    1    1    2    0    0  0.60507944159E+02  0.99432812292E+02 -0.27030672692E+03  0.31974806033E+03  0.12500000000E+03 0.  0.
</event>
<event>
 4    0  0.2236434E-002  0.1635247E+03  0.7546771E-02  0.1184774E+00
         21   -1    0    0  502  501  0.00000000000E+00  0.00000000000E+00  0.50078748535E+02  0.50078748535E+02  0.00000000000E+00 0.  1.
         21   -1    0    0  501  502 -0.00000000000E+00 -0.00000000000E+00 -0.53396587275E+03  0.53396587275E+03  0.00000000000E+00 0.  1.
         25    1    1    2    0    0  0.97615056556E+01  0.31956670386E+02 -0.42051297621E+03  0.43996895224E+03  0.12500000000E+03 0.  0.
         25    1    1    2    0    0 -0.97615056556E+01 -0.31956670386E+02 -0.63374148003E+02  0.14407566904E+03  0.12500000000E+03 0.  0.
</event>
<event>
 4    0  0.2236434E-002  0.2365913E+03  0.7546771E-02  0.1122085E+00
         21   -1    0    0  502  501  0.00000000000E+00  0.00000000000E+00  0.38276234017E+03  0.38276234017E+03  0.00000000000E+00 0. -1.
         21   -1    0    0  501  502 -0.00000000000E+00 -0.00000000000E+00 -0.14624074064E+03  0.14624074064E+03  0.00000000000E+00 0. -1.
         25    1    1    2    0    0 -0.18095965718E+03  0.21007086354E+02  0.21287784927E+03  0.30680559629E+03  0.12500000000E+03 0.  0.
         25    1    1    2    0    0  0.18095965718E+03 -0.21007086354E+02  0.23643750260E+02  0.22219748453E+03  0.12500000000E+03 0.  0.
</event>
<event>
 4    0  0.2236434E-002  0.3466190E+03  0.7546771E-02  0.1064011E+00
         21   -1    0    0  502  501  0.00000000000E+00  0.00000000000E+00  0.10993615346E+04  0.10993615346E+04  0.00000000000E+00 0.  1.
         21   -1    0    0  501  502 -0.00000000000E+00 -0.00000000000E+00 -0.10928588978E+03  0.10928588978E+03  0.00000000000E+00 0.  1.
         25    1    1    2    0    0 -0.10407335442E+02  0.17255702289E+03  0.97134808716E+03  0.99449803680E+03  0.12500000000E+03 0.  0.
         25    1    1    2    0    0  0.10407335442E+02 -0.17255702289E+03  0.18727557645E+02  0.21414938756E+03  0.12500000000E+03 0.  0.
</event>
<event>
 4    0  0.2236434E-002  0.1756411E+03  0.7546771E-02  0.1172090E+00
         21   -1    0    0  502  501  0.00000000000E+00  0.00000000000E+00  0.49538093273E+02  0.49538093273E+02  0.00000000000E+00 0.  1.
         21   -1    0    0  501  502 -0.00000000000E+00 -0.00000000000E+00 -0.62274911240E+03  0.62274911240E+03  0.00000000000E+00 0.  1.
         25    1    1    2    0    0 -0.69757234646E+02  0.84495491055E+02 -0.17801907228E+03  0.24355974604E+03  0.12500000000E+03 0.  0.
         25    1    1    2    0    0  0.69757234646E+02 -0.84495491055E+02 -0.39519194684E+03  0.42872745963E+03  0.12500000000E+03 0.  0.
</event>
<event>
 4    0  0.2236434E-002  0.3350355E+03  0.7546771E-02  0.1068930E+00
         21   -1    0    0  502  501  0.00000000000E+00  0.00000000000E+00  0.10406876580E+03  0.10406876580E+03  0.00000000000E+00 0.  1.
         21   -1    0    0  501  502 -0.00000000000E+00 -0.00000000000E+00 -0.10786019289E+04  0.10786019289E+04  0.00000000000E+00 0. -1.
         25    1    1    2    0    0  0.78699229901E+02 -0.29920689650E+03 -0.54037604079E+03  0.63509810357E+03  0.12500000000E+03 0.  0.
         25    1    1    2    0    0 -0.78699229901E+02  0.29920689650E+03 -0.43415712231E+03  0.54757259113E+03  0.12500000000E+03 0.  0.
</event>
<event>
 4    0  0.2236434E-002  0.2602769E+03  0.7546771E-02  0.1106977E+00
         21   -1    0    0  502  501  0.00000000000E+00  0.00000000000E+00  0.73108117140E+03  0.73108117140E+03  0.00000000000E+00 0.  1.
         21   -1    0    0  501  502 -0.00000000000E+00 -0.00000000000E+00 -0.92662879544E+02  0.92662879544E+02  0.00000000000E+00 0.  1.
         25    1    1    2    0    0  0.16276664313E+03 -0.12438189636E+03  0.47867654659E+03  0.53546248470E+03  0.12500000000E+03 0.  0.
         25    1    1    2    0    0 -0.16276664313E+03  0.12438189636E+03  0.15974174526E+03  0.28828156625E+03  0.12500000000E+03 0.  0.
</event>
<event>
 4    0  0.2236434E-002  0.2254146E+03  0.7546771E-02  0.1129909E+00
         21   -1    0    0  502  501  0.00000000000E+00  0.00000000000E+00  0.49633737701E+03  0.49633737701E+03  0.00000000000E+00 0. -1.
         21   -1    0    0  501  502 -0.00000000000E+00 -0.00000000000E+00 -0.10237343819E+03  0.10237343819E+03  0.00000000000E+00 0. -1.
         25    1    1    2    0    0  0.19557751789E+02 -0.15917090767E+03  0.32620927383E+03  0.38438961203E+03  0.12500000000E+03 0.  0.
         25    1    1    2    0    0 -0.19557751789E+02  0.15917090767E+03  0.67754664990E+02  0.21432120318E+03  0.12500000000E+03 0.  0.
</event>
<event>
 4    0  0.2236434E-002  0.1913431E+03  0.7546771E-02  0.1157256E+00
         21   -1    0    0  502  501  0.00000000000E+00  0.00000000000E+00  0.10160957478E+03  0.10160957478E+03  0.00000000000E+00 0. -1.
         21   -1    0    0  501  502 -0.00000000000E+00 -0.00000000000E+00 -0.36032209421E+03  0.36032209421E+03  0.00000000000E+00 0. -1.
         25    1    1    2    0    0  0.90373851283E+02  0.10962310649E+03 -0.95161314614E+02  0.21181438637E+03  0.12500000000E+03 0.  0.
         25    1    1    2    0    0 -0.90373851283E+02 -0.10962310649E+03 -0.16355120481E+03  0.25011728262E+03  0.12500000000E+03 0.  0.
</event>
<event>
 4    0  0.2236434E-002  0.2311304E+03  0.7546771E-02  0.1125847E+00
         21   -1    0    0  502  501  0.00000000000E+00  0.00000000000E+00  0.73465610660E+03  0.73465610660E+03  0.00000000000E+00 0. -1.
         21   -1    0    0  501  502 -0.00000000000E+00 -0.00000000000E+00 -0.72716032342E+02  0.72716032342E+02  0.00000000000E+00 0. -1.
         25    1    1    2    0    0  0.12014805744E+03 -0.30247044294E+02  0.69299672458E+02  0.18915042690E+03  0.12500000000E+03 0.  0.
         25    1    1    2    0    0 -0.12014805744E+03  0.30247044294E+02  0.59264040180E+03  0.61822171204E+03  0.12500000000E+03 0.  0.
</event>
<event>
 4    0  0.2236434E-002  0.1890304E+03  0.7546771E-02  0.1159339E+00
         21   -1    0    0  502  501  0.00000000000E+00  0.00000000000E+00  0.38384014360E+03  0.38384014360E+03  0.00000000000E+00 0.  1.
         21   -1    0    0  501  502 -0.00000000000E+00 -0.00000000000E+00 -0.93092085049E+02  0.93092085049E+02  0.00000000000E+00 0.  1.
         25    1    1    2    0    0 -0.21663404188E+02  0.46387745305E+02 -0.21444667539E+02  0.13676987885E+03  0.12500000000E+03 0.  0.
         25    1    1    2    0    0  0.21663404188E+02 -0.46387745305E+02  0.31219272609E+03  0.34016234979E+03  0.12500000000E+03 0.  0.
</event>
<event>
 4    0  0.2236434E-002  0.2604450E+03  0.7546771E-02  0.1106876E+00
         21   -1    0    0  502  501  0.00000000000E+00  0.00000000000E+00  0.56688084145E+02  0.56688084145E+02  0.00000000000E+00 0. -1.
         21   -1    0    0  501  502 -0.00000000000E+00 -0.00000000000E+00 -0.11965762716E+04  0.11965762716E+04  0.00000000000E+00 0. -1.
         25    1    1    2    0    0 -0.66296081692E+01 -0.22807831540E+03 -0.54117781449E+03  0.60046823110E+03  0.12500000000E+03 0.  0.
         25    1    1    2    0    0  0.66296081692E+01  0.22807831540E+03 -0.59871037293E+03  0.65279612462E+03  0.12500000000E+03 0.  0.
</event>
<event>
 4    0  0.2236434E-002  0.1787559E+03  0.7546771E-02  0.1169013E+00
         21   -1    0    0  502  501  0.00000000000E+00  0.00000000000E+00  0.83218089059E+02  0.83218089059E+02  0.00000000000E+00 0.  1.
         21   -1    0    0  501  502 -0.00000000000E+00 -0.00000000000E+00 -0.38397506434E+03  0.38397506434E+03  0.00000000000E+00 0.  1.
         25    1    1    2    0    0  0.50198343599E+02 -0.53677494506E+02 -0.28698360787E+03  0.32153652717E+03  0.12500000000E+03 0.  0.
         25    1    1    2    0    0 -0.50198343599E+02  0.53677494506E+02 -0.13773367415E+02  0.14565662624E+03  0.12500000000E+03 0.  0.
</event>
<event>
 4    0  0.2236434E-002  0.2430137E+03  0.7546771E-02  0.1117801E+00
         21   -1    0    0  502  501  0.00000000000E+00  0.00000000000E+00  0.94349120481E+02  0.94349120481E+02  0.00000000000E+00 0.  1.
         21   -1    0    0  501  502 -0.00000000000E+00 -0.00000000000E+00 -0.62592679398E+03  0.62592679398E+03  0.00000000000E+00 0.  1.
         25    1    1    2    0    0  0.19419582332E+03 -0.70275175930E+02 -0.30717853669E+03  0.39068436307E+03  0.12500000000E+03 0.  0.
         25    1    1    2    0    0 -0.19419582332E+03  0.70275175930E+02 -0.22439913681E+03  0.32959155139E+03  0.12500000000E+03 0.  0.
</event>
<event>
 4    0  0.2236434E-002  0.2271745E+03  0.7546771E-02  0.1128644E+00
         21   -1    0    0  502  501  0.00000000000E+00  0.00000000000E+00  0.13781134190E+03  0.13781134190E+03  0.00000000000E+00 0. -1.
         21   -1    0    0  501  502 -0.00000000000E+00 -0.00000000000E+00 -0.37448465793E+03  0.37448465793E+03  0.00000000000E+00 0. -1.
         25    1    1    2    0    0 -0.14909132978E+03 -0.49935434558E+02 -0.23799110438E+03  0.31142661737E+03  0.12500000000E+03 0.  0.
         25    1    1    2    0    0  0.14909132978E+03  0.49935434558E+02  0.13177883552E+01  0.20086938245E+03  0.12500000000E+03 0.  0.
</event>
<event>
 4    0  0.2236434E-002  0.4404127E+03  0.7546771E-02  0.1030620E+00
         21   -1    0    0  502  501  0.00000000000E+00  0.00000000000E+00  0.68135039102E+03  0.68135039102E+03  0.00000000000E+00 0.  1.
         21   -1    0    0  501  502 -0.00000000000E+00 -0.00000000000E+00 -0.28467489797E+03  0.28467489797E+03  0.00000000000E+00 0.  1.
         25    1    1    2    0    0  0.17250983825E+03  0.16555323189E+03  0.58010415376E+03  0.63977601244E+03  0.12500000000E+03 0.  0.
         25    1    1    2    0    0 -0.17250983825E+03 -0.16555323189E+03 -0.18342866071E+03  0.32624927656E+03  0.12500000000E+03 0.  0.
</event>
<event>
 4    0  0.2236434E-002  0.2310269E+03  0.7546771E-02  0.1125919E+00
         21   -1    0    0  502  501  0.00000000000E+00  0.00000000000E+00  0.10885791703E+04  0.10885791703E+04  0.00000000000E+00 0.  1.
         21   -1    0    0  501  502 -0.00000000000E+00 -0.00000000000E+00 -0.49030373099E+02  0.49030373099E+02  0.00000000000E+00 0.  1.
         25    1    1    2    0    0  0.13659637213E+03  0.11004950419E+03  0.31409224163E+03  0.38085220034E+03  0.12500000000E+03 0.  0.
         25    1    1    2    0    0 -0.13659637213E+03 -0.11004950419E+03  0.72545655555E+03  0.75675734304E+03  0.12500000000E+03 0.  0.
</event>
<event>
 4    0  0.2236434E-002  0.3320621E+03  0.7546771E-02  0.1070228E+00
         21   -1    0    0  502  501  0.00000000000E+00  0.00000000000E+00  0.15910741849E+03  0.15910741849E+03  0.00000000000E+00 0. -1.
         21   -1    0    0  501  502 -0.00000000000E+00 -0.00000000000E+00 -0.69302400162E+03  0.69302400162E+03  0.00000000000E+00 0. -1.
         25    1    1    2    0    0  0.26385268573E+03  0.15813083636E+03 -0.26172135314E+03  0.42278442245E+03  0.12500000000E+03 0.  0.
         25    1    1    2    0    0 -0.26385268573E+03 -0.15813083636E+03 -0.27219522999E+03  0.42934699766E+03  0.12500000000E+03 0.  0.
</event>
<event>
 4    0  0.2236434E-002  0.3887994E+03  0.7546771E-02  0.1047729E+00
         21   -1    0    0  502  501  0.00000000000E+00  0.00000000000E+00  0.56636727778E+03  0.56636727778E+03  0.00000000000E+00 0. -1.
         21   -1    0    0  501  502 -0.00000000000E+00 -0.00000000000E+00 -0.26690273308E+03  0.26690273308E+03  0.00000000000E+00 0. -1.
         25    1    1    2    0    0  0.98134627990E+02 -0.18613387794E+03  0.47345956901E+03  0.53297766296E+03  0.12500000000E+03 0.  0.
         25    1    1    2    0    0 -0.98134627990E+02  0.18613387794E+03 -0.17399502431E+03  0.30029234791E+03  0.12500000000E+03 0.  0.
</event>
<event>
 4    0  0.2236434E-002  0.1974739E+03  0.7546771E-02  0.1151888E+00
         21   -1    0    0  502  501  0.00000000000E+00  0.00000000000E+00  0.45437140051E+02  0.45437140051E+02  0.00000000000E+00 0. -1.
         21   -1    0    0  501  502 -0.00000000000E+00 -0.00000000000E+00 -0.85823910714E+03  0.85823910714E+03  0.00000000000E+00 0. -1.
         25    1    1    2    0    0  0.10765552621E+03  0.35524156861E+02 -0.17172661023E+03  0.24076276021E+03  0.12500000000E+03 0.  0.
         25    1    1    2    0    0 -0.10765552621E+03 -0.35524156861E+02 -0.64107535686E+03  0.66291348698E+03  0.12500000000E+03 0.  0.
</event>
<event>
 4    0  0.2236434E-002  0.1767006E+03  0.7546771E-02  0.1171035E+00
         21   -1    0    0  502  501  0.00000000000E+00  0.00000000000E+00  0.29885009422E+04  0.29885009422E+04  0.00000000000E+00 0.  1.
         21   -1    0    0  501  502 -0.00000000000E+00 -0.00000000000E+00 -0.10447745099E+02  0.10447745099E+02  0.00000000000E+00 0.  1.
         25    1    1    2    0    0  0.71721990077E+02  0.31786961877E+02  0.66437444548E+03  0.68056804113E+03  0.12500000000E+03 0.  0.
         25    1    1    2    0    0 -0.71721990077E+02 -0.31786961877E+02  0.23136787516E+04  0.23183806462E+04  0.12500000000E+03 0.  0.
</event>
<event>
 4    0  0.2236434E-002  0.1744773E+03  0.7546771E-02  0.1173258E+00
         21   -1    0    0  502  501  0.00000000000E+00  0.00000000000E+00  0.26719932862E+03  0.26719932862E+03  0.00000000000E+00 0.  1.
         21   -1    0    0  501  502 -0.00000000000E+00 -0.00000000000E+00 -0.11393120877E+03  0.11393120877E+03  0.00000000000E+00 0.  1.
         25    1    1    2    0    0 -0.53927511492E+02  0.42188700225E+02  0.18655843281E+03  0.23477033836E+03  0.12500000000E+03 0.  0.
         25    1    1    2    0    0  0.53927511492E+02 -0.42188700225E+02 -0.33290312956E+02  0.14636019903E+03  0.12500000000E+03 0.  0.
</event>
<event>
 4    0  0.2236434E-002  0.1930033E+03  0.7546771E-02  0.1155780E+00
         21   -1    0    0  502  501  0.00000000000E+00  0.00000000000E+00  0.55906678302E+03  0.55906678302E+03  0.00000000000E+00 0.  1.
         21   -1    0    0  501  502 -0.00000000000E+00 -0.00000000000E+00 -0.66629411436E+02  0.66629411436E+02  0.00000000000E+00 0.  1.
         25    1    1    2    0    0  0.40985212157E+02  0.14105170219E+03  0.25767138106E+03  0.32186163320E+03  0.12500000000E+03 0.  0.
         25    1    1    2    0    0 -0.40985212157E+02 -0.14105170219E+03  0.23476599052E+03  0.30383456126E+03  0.12500000000E+03 0.  0.
</event>
<event>
 4    0  0.2236434E-002  0.2217008E+03  0.7546771E-02  0.1132621E+00
         21   -1    0    0  502  501  0.00000000000E+00  0.00000000000E+00  0.41194334939E+02  0.41194334939E+02  0.00000000000E+00 0.  1.
         21   -1    0    0  501  502 -0.00000000000E+00 -0.00000000000E+00 -0.11931554683E+04  0.11931554683E+04  0.00000000000E+00 0.  1.
         25    1    1    2    0    0 -0.39179325595E+02  0.12430599095E+03 -0.21796751637E+03  0.28305801019E+03  0.12500000000E+03 0.  0.
         25    1    1    2    0    0  0.39179325595E+02 -0.12430599095E+03 -0.93399361703E+03  0.95129179309E+03  0.12500000000E+03 0.  0.
</event>
<event>
 4    0  0.2236434E-002  0.2172435E+03  0.7546771E-02  0.1135955E+00
         21   -1    0    0  502  501  0.00000000000E+00  0.00000000000E+00  0.10972828399E+04  0.10972828399E+04  0.00000000000E+00 0. -1.
         21   -1    0    0  501  502 -0.00000000000E+00 -0.00000000000E+00 -0.43010542933E+02  0.43010542933E+02  0.00000000000E+00 0.  1.
         25    1    1    2    0    0  0.17630456582E+03 -0.21999812648E+02  0.52303744600E+03  0.56635718553E+03  0.12500000000E+03 0.  0.
         25    1    1    2    0    0 -0.17630456582E+03  0.21999812648E+02  0.53123485094E+03  0.57393619727E+03  0.12500000000E+03 0.  0.
</event>
<event>
 4    0  0.2236434E-002  0.1809406E+03  0.7546771E-02  0.1166896E+00
         21   -1    0    0  502  501  0.00000000000E+00  0.00000000000E+00  0.21398912533E+03  0.21398912533E+03  0.00000000000E+00 0.  1.
         21   -1    0    0  501  502 -0.00000000000E+00 -0.00000000000E+00 -0.15299614508E+03  0.15299614508E+03  0.00000000000E+00 0.  1.
         25    1    1    2    0    0  0.11187467730E+03  0.53538451716E+02 -0.11710250311E+02  0.17647787169E+03  0.12500000000E+03 0.  0.
         25    1    1    2    0    0 -0.11187467730E+03 -0.53538451716E+02  0.72703230565E+02  0.19050739872E+03  0.12500000000E+03 0.  0.
</event>
<event>
 4    0  0.2236434E-002  0.2155425E+03  0.7546771E-02  0.1137251E+00
         21   -1    0    0  502  501  0.00000000000E+00  0.00000000000E+00  0.28193422173E+03  0.28193422173E+03  0.00000000000E+00 0.  1.
         21   -1    0    0  501  502 -0.00000000000E+00 -0.00000000000E+00 -0.16478514221E+03  0.16478514221E+03  0.00000000000E+00 0.  1.
         25    1    1    2    0    0 -0.68618401203E+00  0.68332885067E+02  0.22619289679E+03  0.26731644279E+03  0.12500000000E+03 0.  0.
         25    1    1    2    0    0  0.68618401203E+00 -0.68332885067E+02 -0.10904381727E+03  0.17940292115E+03  0.12500000000E+03 0.  0.
</event>
<event>
 4    0  0.2236434E-002  0.2005388E+03  0.7546771E-02  0.1149285E+00
         21   -1    0    0  502  501  0.00000000000E+00  0.00000000000E+00  0.10638048746E+03  0.10638048746E+03  0.00000000000E+00 0. -1.
         21   -1    0    0  501  502 -0.00000000000E+00 -0.00000000000E+00 -0.37803758364E+03  0.37803758364E+03  0.00000000000E+00 0. -1.
         25    1    1    2    0    0  0.40695582747E+02 -0.13577579593E+03 -0.54810825003E+02  0.19677505877E+03  0.12500000000E+03 0.  0.
         25    1    1    2    0    0 -0.40695582747E+02  0.13577579593E+03 -0.21684627118E+03  0.28764301233E+03  0.12500000000E+03 0.  0.
</event>
<event>
 4    0  0.2236434E-002  0.2261575E+03  0.7546771E-02  0.1129374E+00
         21   -1    0    0  502  501  0.00000000000E+00  0.00000000000E+00  0.25329291303E+03  0.25329291303E+03  0.00000000000E+00 0. -1.
         21   -1    0    0  501  502 -0.00000000000E+00 -0.00000000000E+00 -0.20192916682E+03  0.20192916682E+03  0.00000000000E+00 0. -1.
         25    1    1    2    0    0  0.14951209464E+03  0.54243866782E+02  0.12745529882E+03  0.23909436782E+03  0.12500000000E+03 0.  0.
         25    1    1    2    0    0 -0.14951209464E+03 -0.54243866782E+02 -0.76091552607E+02  0.21612771203E+03  0.12500000000E+03 0.  0.
</event>
<event>
 4    0  0.2236434E-002  0.1837433E+03  0.7546771E-02  0.1164229E+00
         21   -1    0    0  502  501  0.00000000000E+00  0.00000000000E+00  0.23226421473E+03  0.23226421473E+03  0.00000000000E+00 0. -1.
         21   -1    0    0  501  502 -0.00000000000E+00 -0.00000000000E+00 -0.14535852702E+03  0.14535852702E+03  0.00000000000E+00 0. -1.
         25    1    1    2    0    0  0.54442975672E+02  0.18830628223E+02  0.16853946406E+03  0.21759866981E+03  0.12500000000E+03 0.  0.
         25    1    1    2    0    0 -0.54442975672E+02 -0.18830628223E+02 -0.81633776351E+02  0.16002407194E+03  0.12500000000E+03 0.  0.
</event>
<event>
 4    0  0.2236434E-002  0.2621098E+03  0.7546771E-02  0.1105882E+00
         21   -1    0    0  502  501  0.00000000000E+00  0.00000000000E+00  0.46714445928E+02  0.46714445928E+02  0.00000000000E+00 0.  1.
         21   -1    0    0  501  502 -0.00000000000E+00 -0.00000000000E+00 -0.14706705437E+04  0.14706705437E+04  0.00000000000E+00 0.  1.
         25    1    1    2    0    0  0.17835222262E+03  0.11731322741E+03 -0.96273197336E+03  0.99400692210E+03  0.12500000000E+03 0.  0.
         25    1    1    2    0    0 -0.17835222262E+03 -0.11731322741E+03 -0.46122412444E+03  0.52337806757E+03  0.12500000000E+03 0.  0.
</event>
<event>
 4    0  0.2236434E-002  0.2517833E+03  0.7546771E-02  0.1112183E+00
         21   -1    0    0  502  501  0.00000000000E+00  0.00000000000E+00  0.10010684961E+04  0.10010684961E+04  0.00000000000E+00 0.  1.
         21   -1    0    0  501  502 -0.00000000000E+00 -0.00000000000E+00 -0.63327161074E+02  0.63327161074E+02  0.00000000000E+00 0.  1.
         25    1    1    2    0    0  0.13453784164E+03 -0.13009283124E+03  0.23024323068E+03  0.32196509259E+03  0.12500000000E+03 0.  0.
         25    1    1    2    0    0 -0.13453784164E+03  0.13009283124E+03  0.70749810434E+03  0.74243056458E+03  0.12500000000E+03 0.  0.
</event>
<event>
 4    0  0.2236434E-002  0.4089889E+03  0.7546771E-02  0.1040711E+00
         21   -1    0    0  502  501  0.00000000000E+00  0.00000000000E+00  0.11733661942E+04  0.11733661942E+04  0.00000000000E+00 0.  1.
         21   -1    0    0  501  502 -0.00000000000E+00 -0.00000000000E+00 -0.14255733770E+03  0.14255733770E+03  0.00000000000E+00 0.  1.
         25    1    1    2    0    0  0.29129437372E+03  0.18364379374E+03  0.22285252015E+03  0.42879564000E+03  0.12500000000E+03 0.  0.
         25    1    1    2    0    0 -0.29129437372E+03 -0.18364379374E+03  0.80795633633E+03  0.88712789189E+03  0.12500000000E+03 0.  0.
</event>
<event>
 4    0  0.2236434E-002  0.2114799E+03  0.7546771E-02  0.1140399E+00
         21   -1    0    0  502  501  0.00000000000E+00  0.00000000000E+00  0.89430351371E+02  0.89430351371E+02  0.00000000000E+00 0.  1.
         21   -1    0    0  501  502 -0.00000000000E+00 -0.00000000000E+00 -0.50009591564E+03  0.50009591564E+03  0.00000000000E+00 0.  1.
         25    1    1    2    0    0  0.14026738806E+03  0.55510450693E+02 -0.31633482332E+03  0.37208745038E+03  0.12500000000E+03 0.  0.
         25    1    1    2    0    0 -0.14026738806E+03 -0.55510450693E+02 -0.94330740950E+02  0.21743881663E+03  0.12500000000E+03 0.  0.
</event>
<event>
 4    0  0.2236434E-002  0.1807171E+03  0.7546771E-02  0.1167111E+00
         21   -1    0    0  502  501  0.00000000000E+00  0.00000000000E+00  0.16291537749E+03  0.16291537749E+03  0.00000000000E+00 0.  1.
         21   -1    0    0  501  502 -0.00000000000E+00 -0.00000000000E+00 -0.20046405873E+03  0.20046405873E+03  0.00000000000E+00 0.  1.
         25    1    1    2    0    0 -0.40122438794E+02  0.10964971897E+03  0.39855948326E+02  0.17563133998E+03  0.12500000000E+03 0.  0.
         25    1    1    2    0    0  0.40122438794E+02 -0.10964971897E+03 -0.77404629569E+02  0.18774809624E+03  0.12500000000E+03 0.  0.
</event>
<event>
 4    0  0.2236434E-002  0.2649702E+03  0.7546771E-02  0.1104193E+00
         21   -1    0    0  502  501  0.00000000000E+00  0.00000000000E+00  0.14646384698E+03  0.14646384698E+03  0.00000000000E+00 0.  1.
         21   -1    0    0  501  502 -0.00000000000E+00 -0.00000000000E+00 -0.47936206307E+03  0.47936206307E+03  0.00000000000E+00 0.  1.
         25    1    1    2    0    0 -0.87838417140E+02 -0.13896704521E+03  0.29589119096E+02  0.20863351397E+03  0.12500000000E+03 0.  0.
         25    1    1    2    0    0  0.87838417140E+02  0.13896704521E+03 -0.36248733518E+03  0.41719239608E+03  0.12500000000E+03 0.  0.
</event>
<event>
 4    0  0.2236434E-002  0.1750167E+03  0.7546771E-02  0.1172715E+00
         21   -1    0    0  502  501  0.00000000000E+00  0.00000000000E+00  0.85408718831E+03  0.85408718831E+03  0.00000000000E+00 0. -1.
         21   -1    0    0  501  502 -0.00000000000E+00 -0.00000000000E+00 -0.35863821658E+02  0.35863821658E+02  0.00000000000E+00 0. -1.
         25    1    1    2    0    0  0.10143329300E+02 -0.21443921845E+02  0.10355840175E+03  0.16404899112E+03  0.12500000000E+03 0.  0.
         25    1    1    2    0    0 -0.10143329300E+02  0.21443921845E+02  0.71466496490E+03  0.72590201885E+03  0.12500000000E+03 0.  0.
</event>
<event>
 4    0  0.2236434E-002  0.1683959E+03  0.7546771E-02  0.1179531E+00
         21   -1    0    0  502  501  0.00000000000E+00  0.00000000000E+00  0.92435543445E+02  0.92435543445E+02  0.00000000000E+00 0.  1.
         21   -1    0    0  501  502 -0.00000000000E+00 -0.00000000000E+00 -0.30677787896E+03  0.30677787896E+03  0.00000000000E+00 0.  1.
         25    1    1    2    0    0 -0.69207230082E+02  0.86859104960E+02 -0.13081970763E+03  0.21230388766E+03  0.12500000000E+03 0.  0.
         25    1    1    2    0    0  0.69207230082E+02 -0.86859104960E+02 -0.83522627884E+02  0.18690953475E+03  0.12500000000E+03 0.  0.
</event>
<event>
 4    0  0.2236434E-002  0.2313208E+03  0.7546771E-02  0.1125714E+00
         21   -1    0    0  502  501  0.00000000000E+00  0.00000000000E+00  0.56173635458E+03  0.56173635458E+03  0.00000000000E+00 0. -1.
         21   -1    0    0  501  502 -0.00000000000E+00 -0.00000000000E+00 -0.95257003383E+02  0.95257003383E+02  0.00000000000E+00 0. -1.
         25    1    1    2    0    0 -0.25269061274E+01 -0.18568083938E+03  0.31605136374E+03  0.38729475066E+03  0.12500000000E+03 0.  0.
         25    1    1    2    0    0  0.25269061274E+01  0.18568083938E+03  0.15042798746E+03  0.26969860730E+03  0.12500000000E+03 0.  0.
</event>
<event>
 4    0  0.2236434E-002  0.2233663E+03  0.7546771E-02  0.1131398E+00
         21   -1    0    0  502  501  0.00000000000E+00  0.00000000000E+00  0.90189323962E+02  0.90189323962E+02  0.00000000000E+00 0.  1.
         21   -1    0    0  501  502 -0.00000000000E+00 -0.00000000000E+00 -0.55319759345E+03  0.55319759345E+03  0.00000000000E+00 0.  1.
         25    1    1    2    0    0 -0.60319637235E+01 -0.16995204905E+03 -0.33682082826E+03  0.39748377818E+03  0.12500000000E+03 0.  0.
         25    1    1    2    0    0  0.60319637235E+01  0.16995204905E+03 -0.12618744123E+03  0.24590313924E+03  0.12500000000E+03 0.  0.
</event>
<event>
 4    0  0.2236434E-002  0.1528314E+03  0.7546771E-02  0.1197036E+00
         21   -1    0    0  502  501  0.00000000000E+00  0.00000000000E+00  0.55221438682E+02  0.55221438682E+02  0.00000000000E+00 0. -1.
         21   -1    0    0  501  502 -0.00000000000E+00 -0.00000000000E+00 -0.42297791542E+03  0.42297791542E+03  0.00000000000E+00 0. -1.
         25    1    1    2    0    0  0.60974961207E+02  0.34594292079E+02 -0.26692383230E+03  0.30296541583E+03  0.12500000000E+03 0.  0.
         25    1    1    2    0    0 -0.60974961207E+02 -0.34594292079E+02 -0.10083264444E+03  0.17523393827E+03  0.12500000000E+03 0.  0.
</event>
<event>
 4    0  0.2236434E-002  0.1787892E+03  0.7546771E-02  0.1168980E+00
         21   -1    0    0  502  501  0.00000000000E+00  0.00000000000E+00  0.94080586692E+03  0.94080586692E+03  0.00000000000E+00 0.  1.
         21   -1    0    0  501  502 -0.00000000000E+00 -0.00000000000E+00 -0.33976795595E+02  0.33976795595E+02  0.00000000000E+00 0.  1.
         25    1    1    2    0    0 -0.70725152073E+01  0.86883374708E+02  0.70829567284E+03  0.72450431430E+03  0.12500000000E+03 0.  0.
         25    1    1    2    0    0  0.70725152073E+01 -0.86883374708E+02  0.19853339848E+03  0.25027834821E+03  0.12500000000E+03 0.  0.
</event>
<event>
 4    0  0.2236434E-002  0.2977046E+03  0.7546771E-02  0.1086394E+00
         21   -1    0    0  502  501  0.00000000000E+00  0.00000000000E+00  0.10072036696E+03  0.10072036696E+03  0.00000000000E+00 0.  1.
         21   -1    0    0  501  502 -0.00000000000E+00 -0.00000000000E+00 -0.87994150172E+03  0.87994150172E+03  0.00000000000E+00 0.  1.
         25    1    1    2    0    0 -0.16211834376E+02 -0.19298414772E+03 -0.69992470569E+03  0.73690250269E+03  0.12500000000E+03 0.  0.
         25    1    1    2    0    0  0.16211834376E+02  0.19298414772E+03 -0.79296429074E+02  0.24375936599E+03  0.12500000000E+03 0.  0.
</event>
<event>
 4    0  0.2236434E-002  0.3242926E+03  0.7546771E-02  0.1073690E+00
         21   -1    0    0  502  501  0.00000000000E+00  0.00000000000E+00  0.10370009655E+03  0.10370009655E+03  0.00000000000E+00 0.  1.
         21   -1    0    0  501  502 -0.00000000000E+00 -0.00000000000E+00 -0.10141331284E+04  0.10141331284E+04  0.00000000000E+00 0.  1.
         25    1    1    2    0    0  0.15263116592E+03  0.24034249508E+03 -0.29650599502E+03  0.42965287482E+03  0.12500000000E+03 0.  0.
         25    1    1    2    0    0 -0.15263116592E+03 -0.24034249508E+03 -0.61392703682E+03  0.68818035012E+03  0.12500000000E+03 0.  0.
</event>
<event>
 4    0  0.2236434E-002  0.1931101E+03  0.7546771E-02  0.1155686E+00
         21   -1    0    0  502  501  0.00000000000E+00  0.00000000000E+00  0.15069684995E+03  0.15069684995E+03  0.00000000000E+00 0.  1.
         21   -1    0    0  501  502 -0.00000000000E+00 -0.00000000000E+00 -0.24746048996E+03  0.24746048996E+03  0.00000000000E+00 0.  1.
         25    1    1    2    0    0 -0.59730057077E+02  0.13432068196E+03 -0.40612920941E+02  0.19719060492E+03  0.12500000000E+03 0.  0.
         25    1    1    2    0    0  0.59730057077E+02 -0.13432068196E+03 -0.56150719061E+02  0.20096673499E+03  0.12500000000E+03 0.  0.
</event>
<event>
 4    0  0.2236434E-002  0.2338452E+03  0.7546771E-02  0.1123962E+00
         21   -1    0    0  502  501  0.00000000000E+00  0.00000000000E+00  0.55069763663E+02  0.55069763663E+02  0.00000000000E+00 0. -1.
         21   -1    0    0  501  502 -0.00000000000E+00 -0.00000000000E+00 -0.99298705784E+03  0.99298705784E+03  0.00000000000E+00 0. -1.
         25    1    1    2    0    0  0.16529607813E+02  0.18935163459E+03 -0.59028525586E+03  0.63260489466E+03  0.12500000000E+03 0.  0.
         25    1    1    2    0    0 -0.16529607813E+02 -0.18935163459E+03 -0.34763203831E+03  0.41545192684E+03  0.12500000000E+03 0.  0.
</event>
<event>
 4    0  0.2236434E-002  0.2590723E+03  0.7546771E-02  0.1107702E+00
         21   -1    0    0  502  501  0.00000000000E+00  0.00000000000E+00  0.60763347897E+02  0.60763347897E+02  0.00000000000E+00 0. -1.
         21   -1    0    0  501  502 -0.00000000000E+00 -0.00000000000E+00 -0.11045879359E+04  0.11045879359E+04  0.00000000000E+00 0. -1.
         25    1    1    2    0    0  0.15990692992E+03  0.13315683577E+03 -0.31834224640E+03  0.40033455383E+03  0.12500000000E+03 0.  0.
         25    1    1    2    0    0 -0.15990692992E+03 -0.13315683577E+03 -0.72548234162E+03  0.76501672998E+03  0.12500000000E+03 0.  0.
</event>
<event>
 4    0  0.2236434E-002  0.2547689E+03  0.7546771E-02  0.1110328E+00
         21   -1    0    0  502  501  0.00000000000E+00  0.00000000000E+00  0.22202329185E+03  0.22202329185E+03  0.00000000000E+00 0.  1.
         21   -1    0    0  501  502 -0.00000000000E+00 -0.00000000000E+00 -0.29234410635E+03  0.29234410635E+03  0.00000000000E+00 0.  1.
         25    1    1    2    0    0 -0.15289997821E+03  0.14857887853E+03  0.27297790765E+02  0.24864483880E+03  0.12500000000E+03 0.  0.
         25    1    1    2    0    0  0.15289997821E+03 -0.14857887853E+03 -0.97618605258E+02  0.26572255940E+03  0.12500000000E+03 0.  0.
</event>
<event>
 4    0  0.2236434E-002  0.1870526E+03  0.7546771E-02  0.1161147E+00
         21   -1    0    0  502  501  0.00000000000E+00  0.00000000000E+00  0.28291113378E+02  0.28291113378E+02  0.00000000000E+00 0. -1.
         21   -1    0    0  501  502 -0.00000000000E+00 -0.00000000000E+00 -0.12367373302E+04  0.12367373302E+04  0.00000000000E+00 0. -1.
         25    1    1    2    0    0  0.13615641851E+02  0.11139322821E+03 -0.88244782691E+03  0.89829449748E+03  0.12500000000E+03 0.  0.
         25    1    1    2    0    0 -0.13615641851E+02 -0.11139322821E+03 -0.32599838996E+03  0.36673394614E+03  0.12500000000E+03 0.  0.
</event>
<event>
 4    0  0.2236434E-002  0.2846717E+03  0.7546771E-02  0.1093164E+00
         21   -1    0    0  502  501  0.00000000000E+00  0.00000000000E+00  0.28991021545E+03  0.28991021545E+03  0.00000000000E+00 0.  1.
         21   -1    0    0  501  502 -0.00000000000E+00 -0.00000000000E+00 -0.27952788217E+03  0.27952788217E+03  0.00000000000E+00 0.  1.
         25    1    1    2    0    0  0.16566406872E+03 -0.79249791840E+02  0.18323164742E+03  0.28796518850E+03  0.12500000000E+03 0.  0.
         25    1    1    2    0    0 -0.16566406872E+03  0.79249791840E+02 -0.17284931414E+03  0.28147290912E+03  0.12500000000E+03 0.  0.
</event>
<event>
 4    0  0.2236434E-002  0.1739262E+03  0.7546771E-02  0.1173814E+00
         21   -1    0    0  502  501  0.00000000000E+00  0.00000000000E+00  0.98175850982E+03  0.98175850982E+03  0.00000000000E+00 0. -1.
         21   -1    0    0  501  502 -0.00000000000E+00 -0.00000000000E+00 -0.30812403123E+02  0.30812403123E+02  0.00000000000E+00 0. -1.
         25    1    1    2    0    0 -0.47676973498E+01 -0.11911931117E+03  0.53464410651E+03  0.56185537450E+03  0.12500000000E+03 0.  0.
         25    1    1    2    0    0  0.47676973498E+01  0.11911931117E+03  0.41630200019E+03  0.45071553844E+03  0.12500000000E+03 0.  0.
</event>
<event>
 4    0  0.2236434E-002  0.2724485E+03  0.7546771E-02  0.1099886E+00
         21   -1    0    0  502  501  0.00000000000E+00  0.00000000000E+00  0.65880562748E+02  0.65880562748E+02  0.00000000000E+00 0.  1.
         21   -1    0    0  501  502 -0.00000000000E+00 -0.00000000000E+00 -0.11267085894E+04  0.11267085894E+04  0.00000000000E+00 0.  1.
         25    1    1    2    0    0  0.19918782050E+03 -0.13578385305E+03 -0.48195859023E+03  0.55319266561E+03  0.12500000000E+03 0.  0.
         25    1    1    2    0    0 -0.19918782050E+03  0.13578385305E+03 -0.57886943643E+03  0.63939648656E+03  0.12500000000E+03 0.  0.
</event>
<event>
 4    0  0.2236434E-002  0.2305052E+03  0.7546771E-02  0.1126285E+00
         21   -1    0    0  502  501  0.00000000000E+00  0.00000000000E+00  0.71430576172E+02  0.71430576172E+02  0.00000000000E+00 0.  1.
         21   -1    0    0  501  502 -0.00000000000E+00 -0.00000000000E+00 -0.74383630293E+03  0.74383630293E+03  0.00000000000E+00 0.  1.
         25    1    1    2    0    0  0.89375315787E+02 -0.62723754187E+02 -0.61907194513E+03  0.64093469999E+03  0.12500000000E+03 0.  0.
         25    1    1    2    0    0 -0.89375315787E+02  0.62723754187E+02 -0.53333781637E+02  0.17433217912E+03  0.12500000000E+03 0.  0.
</event>
<event>
 4    0  0.2236434E-002  0.2009227E+03  0.7546771E-02  0.1148963E+00
         21   -1    0    0  502  501  0.00000000000E+00  0.00000000000E+00  0.21442958572E+03  0.21442958572E+03  0.00000000000E+00 0.  1.
         21   -1    0    0  501  502 -0.00000000000E+00 -0.00000000000E+00 -0.18826669543E+03  0.18826669543E+03  0.00000000000E+00 0.  1.
         25    1    1    2    0    0 -0.69861593969E+02 -0.13124459235E+03 -0.38400117843E+02  0.19800342013E+03  0.12500000000E+03 0.  0.
         25    1    1    2    0    0  0.69861593969E+02  0.13124459235E+03  0.64563008133E+02  0.20469286102E+03  0.12500000000E+03 0.  0.
</event>
<event>
 4    0  0.2236434E-002  0.2537660E+03  0.7546771E-02  0.1110948E+00
         21   -1    0    0  502  501  0.00000000000E+00  0.00000000000E+00  0.84438799171E+03  0.84438799171E+03  0.00000000000E+00 0. -1.
         21   -1    0    0  501  502 -0.00000000000E+00 -0.00000000000E+00 -0.76264936224E+02  0.76264936224E+02  0.00000000000E+00 0. -1.
         25    1    1    2    0    0 -0.22967687412E+02  0.13832003270E+03  0.69356843869E+03  0.71855558258E+03  0.12500000000E+03 0.  0.
         25    1    1    2    0    0  0.22967687412E+02 -0.13832003270E+03  0.74554616794E+02  0.20209734535E+03  0.12500000000E+03 0.  0.
</event>
<event>
 4    0  0.2236434E-002  0.2243740E+03  0.7546771E-02  0.1130663E+00
         21   -1    0    0  502  501  0.00000000000E+00  0.00000000000E+00  0.50707037469E+03  0.50707037469E+03  0.00000000000E+00 0. -1.
         21   -1    0    0  501  502 -0.00000000000E+00 -0.00000000000E+00 -0.99283428192E+02  0.99283428192E+02  0.00000000000E+00 0. -1.
         25    1    1    2    0    0  0.13055421776E+02  0.16400734878E+03  0.85711967509E+02  0.22369710742E+03  0.12500000000E+03 0.  0.
         25    1    1    2    0    0 -0.13055421776E+02 -0.16400734878E+03  0.32207497899E+03  0.38265669547E+03  0.12500000000E+03 0.  0.
</event>
<event>
 4    0  0.2236434E-002  0.2183596E+03  0.7546771E-02  0.1135112E+00
         21   -1    0    0  502  501  0.00000000000E+00  0.00000000000E+00  0.10220308430E+04  0.10220308430E+04  0.00000000000E+00 0. -1.
         21   -1    0    0  501  502 -0.00000000000E+00 -0.00000000000E+00 -0.46653122685E+02  0.46653122685E+02  0.00000000000E+00 0. -1.
         25    1    1    2    0    0 -0.16960325265E+03 -0.69659583132E+00  0.34732448972E+03  0.40623275313E+03  0.12500000000E+03 0.  0.
         25    1    1    2    0    0  0.16960325265E+03  0.69659583132E+00  0.62805323060E+03  0.66245121256E+03  0.12500000000E+03 0.  0.
</event>
<event>
 4    0  0.2236434E-002  0.2351781E+03  0.7546771E-02  0.1123047E+00
         21   -1    0    0  502  501  0.00000000000E+00  0.00000000000E+00  0.11085538785E+03  0.11085538785E+03  0.00000000000E+00 0.  1.
         21   -1    0    0  501  502 -0.00000000000E+00 -0.00000000000E+00 -0.49892693192E+03  0.49892693192E+03  0.00000000000E+00 0.  1.
         25    1    1    2    0    0  0.43683987903E+02  0.17232688738E+03 -0.31056204263E+03  0.37904963954E+03  0.12500000000E+03 0.  0.
         25    1    1    2    0    0 -0.43683987903E+02 -0.17232688738E+03 -0.77509501444E+02  0.23073268023E+03  0.12500000000E+03 0.  0.
</event>
<event>
 4    0  0.2236434E-002  0.2353937E+03  0.7546771E-02  0.1122900E+00
         21   -1    0    0  502  501  0.00000000000E+00  0.00000000000E+00  0.77109841956E+03  0.77109841956E+03  0.00000000000E+00 0. -1.
         21   -1    0    0  501  502 -0.00000000000E+00 -0.00000000000E+00 -0.71858761693E+02  0.71858761693E+02  0.00000000000E+00 0. -1.
         25    1    1    2    0    0 -0.11152286873E+03 -0.49112196521E+02  0.66876367302E+02  0.18694064994E+03  0.12500000000E+03 0.  0.
         25    1    1    2    0    0  0.11152286873E+03  0.49112196521E+02  0.63236329057E+03  0.65601653131E+03  0.12500000000E+03 0.  0.
</event>
<event>
 4    0  0.2236434E-002  0.1876878E+03  0.7546771E-02  0.1160563E+00
         21   -1    0    0  502  501  0.00000000000E+00  0.00000000000E+00  0.35379420346E+02  0.35379420346E+02  0.00000000000E+00 0. -1.
         21   -1    0    0  501  502 -0.00000000000E+00 -0.00000000000E+00 -0.99568337458E+03  0.99568337458E+03  0.00000000000E+00 0. -1.
         25    1    1    2    0    0 -0.11092468824E+03  0.33807113116E+01 -0.71460901372E+03  0.73389832958E+03  0.12500000000E+03 0.  0.
         25    1    1    2    0    0  0.11092468824E+03 -0.33807113116E+01 -0.24569494052E+03  0.29716446535E+03  0.12500000000E+03 0.  0.
</event>
<event>
 4    0  0.2236434E-002  0.2275356E+03  0.7546771E-02  0.1128386E+00
         21   -1    0    0  502  501  0.00000000000E+00  0.00000000000E+00  0.13787668094E+03  0.13787668094E+03  0.00000000000E+00 0. -1.
         21   -1    0    0  501  502 -0.00000000000E+00 -0.00000000000E+00 -0.37549829986E+03  0.37549829986E+03  0.00000000000E+00 0. -1.
         25    1    1    2    0    0  0.18061731060E+01 -0.14099221764E+03 -0.26268654867E+03  0.32328206036E+03  0.12500000000E+03 0.  0.
         25    1    1    2    0    0 -0.18061731060E+01  0.14099221764E+03  0.25064929753E+02  0.19009292044E+03  0.12500000000E+03 0.  0.
</event>
<event>
 4    0  0.2236434E-002  0.2553334E+03  0.7546771E-02  0.1109980E+00
         21   -1    0    0  502  501  0.00000000000E+00  0.00000000000E+00  0.14261999326E+03  0.14261999326E+03  0.00000000000E+00 0. -1.
         21   -1    0    0  501  502 -0.00000000000E+00 -0.00000000000E+00 -0.45712473380E+03  0.45712473380E+03  0.00000000000E+00 0. -1.
         25    1    1    2    0    0 -0.85998627441E+02 -0.55185607609E+02  0.75062900728E+02  0.17804677552E+03  0.12500000000E+03 0.  0.
         25    1    1    2    0    0  0.85998627441E+02  0.55185607609E+02 -0.38956764126E+03  0.42169795154E+03  0.12500000000E+03 0.  0.
</event>
<event>
 4    0  0.2236434E-002  0.1678895E+03  0.7546771E-02  0.1180067E+00
         21   -1    0    0  502  501  0.00000000000E+00  0.00000000000E+00  0.25487934227E+03  0.25487934227E+03  0.00000000000E+00 0.  1.
         21   -1    0    0  501  502 -0.00000000000E+00 -0.00000000000E+00 -0.11058911788E+03  0.11058911788E+03  0.00000000000E+00 0.  1.
         25    1    1    2    0    0  0.78064917896E+02 -0.55109270250E+01  0.15947259901E+03  0.21721190474E+03  0.12500000000E+03 0.  0.
         25    1    1    2    0    0 -0.78064917896E+02  0.55109270250E+01 -0.15182374624E+02  0.14825655541E+03  0.12500000000E+03 0.  0.
</event>
<event>
 4    0  0.2236434E-002  0.1630571E+03  0.7546771E-02  0.1185288E+00
         21   -1    0    0  502  501  0.00000000000E+00  0.00000000000E+00  0.12908160333E+03  0.12908160333E+03  0.00000000000E+00 0. -1.
         21   -1    0    0  501  502 -0.00000000000E+00 -0.00000000000E+00 -0.20597515378E+03  0.20597515378E+03  0.00000000000E+00 0. -1.
         25    1    1    2    0    0 -0.31183347050E+02 -0.97695455723E+02 -0.60139733087E+02  0.17250678450E+03  0.12500000000E+03 0.  0.
         25    1    1    2    0    0  0.31183347050E+02  0.97695455723E+02 -0.16753817364E+02  0.16254997262E+03  0.12500000000E+03 0.  0.
</event>
<event>
 4    0  0.2236434E-002  0.1731709E+03  0.7546771E-02  0.1174581E+00
         21   -1    0    0  502  501  0.00000000000E+00  0.00000000000E+00  0.37970250519E+02  0.37970250519E+02  0.00000000000E+00 0.  1.
         21   -1    0    0  501  502 -0.00000000000E+00 -0.00000000000E+00 -0.78978010452E+03  0.78978010452E+03  0.00000000000E+00 0.  1.
         25    1    1    2    0    0  0.11753792068E+03 -0.38443823790E+01 -0.43109261624E+03  0.46399976924E+03  0.12500000000E+03 0.  0.
         25    1    1    2    0    0 -0.11753792068E+03  0.38443823790E+01 -0.32071723776E+03  0.36375058580E+03  0.12500000000E+03 0.  0.
</event>
<event>
 4    0  0.2236434E-002  0.2148032E+03  0.7546771E-02  0.1137818E+00
         21   -1    0    0  502  501  0.00000000000E+00  0.00000000000E+00  0.11344995140E+03  0.11344995140E+03  0.00000000000E+00 0. -1.
         21   -1    0    0  501  502 -0.00000000000E+00 -0.00000000000E+00 -0.40670267032E+03  0.40670267032E+03  0.00000000000E+00 0. -1.
         25    1    1    2    0    0 -0.12400084436E+03 -0.23481300808E+02 -0.39002764365E+00  0.17763088980E+03  0.12500000000E+03 0.  0.
         25    1    1    2    0    0  0.12400084436E+03  0.23481300808E+02 -0.29286269127E+03  0.34252173191E+03  0.12500000000E+03 0.  0.
</event>
<event>
 4    0  0.2236434E-002  0.1551846E+03  0.7546771E-02  0.1194243E+00
         21   -1    0    0  502  501  0.00000000000E+00  0.00000000000E+00  0.44834823443E+03  0.44834823443E+03  0.00000000000E+00 0. -1.
         21   -1    0    0  501  502 -0.00000000000E+00 -0.00000000000E+00 -0.53713303515E+02  0.53713303515E+02  0.00000000000E+00 0. -1.
         25    1    1    2    0    0  0.24895831682E+02  0.74035705186E+02  0.27583781478E+03  0.31275004099E+03  0.12500000000E+03 0.  0.
         25    1    1    2    0    0 -0.24895831682E+02 -0.74035705186E+02  0.11879711614E+03  0.18931149696E+03  0.12500000000E+03 0.  0.
</event>
<event>
 4    0  0.2236434E-002  0.2401141E+03  0.7546771E-02  0.1119717E+00
         21   -1    0    0  502  501  0.00000000000E+00  0.00000000000E+00  0.21033673700E+03  0.21033673700E+03  0.00000000000E+00 0. -1.
         21   -1    0    0  501  502 -0.00000000000E+00 -0.00000000000E+00 -0.27410697578E+03  0.27410697578E+03  0.00000000000E+00 0. -1.
         25    1    1    2    0    0  0.20001100421E+03  0.24335372294E+02  0.63042298279E+01  0.23719476272E+03  0.12500000000E+03 0.  0.
         25    1    1    2    0    0 -0.20001100421E+03 -0.24335372294E+02 -0.70074468613E+02  0.24724895005E+03  0.12500000000E+03 0.  0.
</event>
<event>
 4    0  0.2236434E-002  0.2122401E+03  0.7546771E-02  0.1139804E+00
         21   -1    0    0  502  501  0.00000000000E+00  0.00000000000E+00  0.21678817575E+02  0.21678817575E+02  0.00000000000E+00 0.  1.
         21   -1    0    0  501  502 -0.00000000000E+00 -0.00000000000E+00 -0.20778751212E+04  0.20778751212E+04  0.00000000000E+00 0.  1.
         25    1    1    2    0    0  0.99823766349E+02 -0.68266872898E+02 -0.42645683183E+03  0.46056007174E+03  0.12500000000E+03 0.  0.
         25    1    1    2    0    0 -0.99823766349E+02  0.68266872898E+02 -0.16297394718E+04  0.16389938670E+04  0.12500000000E+03 0.  0.
</event>
<event>
 4    0  0.2236434E-002  0.2180088E+03  0.7546771E-02  0.1135376E+00
         21   -1    0    0  502  501  0.00000000000E+00  0.00000000000E+00  0.63180466299E+02  0.63180466299E+02  0.00000000000E+00 0.  1.
         21   -1    0    0  501  502 -0.00000000000E+00 -0.00000000000E+00 -0.75225536513E+03  0.75225536513E+03  0.00000000000E+00 0.  1.
         25    1    1    2    0    0  0.13692747472E+03  0.10822944141E+03 -0.41550862082E+03  0.46769130770E+03  0.12500000000E+03 0.  0.
         25    1    1    2    0    0 -0.13692747472E+03 -0.10822944141E+03 -0.27356627801E+03  0.34774452373E+03  0.12500000000E+03 0.  0.
</event>
<event>
 4    0  0.2236434E-002  0.1835798E+03  0.7546771E-02  0.1164383E+00
         21   -1    0    0  502  501  0.00000000000E+00  0.00000000000E+00  0.90346919422E+03  0.90346919422E+03  0.00000000000E+00 0.  1.
         21   -1    0    0  501  502 -0.00000000000E+00 -0.00000000000E+00 -0.37302368513E+02  0.37302368513E+02  0.00000000000E+00 0.  1.
         25    1    1    2    0    0  0.18127377583E+02 -0.31792911069E+02  0.10159369750E+03  0.16518374733E+03  0.12500000000E+03 0.  0.
         25    1    1    2    0    0 -0.18127377583E+02  0.31792911069E+02  0.76457312822E+03  0.77558781540E+03  0.12500000000E+03 0.  0.
</event>
<event>
 4    0  0.2236434E-002  0.2867916E+03  0.7546771E-02  0.1092036E+00
         21   -1    0    0  502  501  0.00000000000E+00  0.00000000000E+00  0.16140403902E+03  0.16140403902E+03  0.00000000000E+00 0.  1.
         21   -1    0    0  501  502 -0.00000000000E+00 -0.00000000000E+00 -0.50958711159E+03  0.50958711159E+03  0.00000000000E+00 0.  1.
         25    1    1    2    0    0  0.16341859033E+03 -0.19193069171E+03 -0.23902878021E+03  0.36919206906E+03  0.12500000000E+03 0.  0.
         25    1    1    2    0    0 -0.16341859033E+03  0.19193069171E+03 -0.10915429236E+03  0.30179908155E+03  0.12500000000E+03 0.  0.
</event>
<event>
 4    0  0.2236434E-002  0.2758358E+03  0.7546771E-02  0.1097985E+00
         21   -1    0    0  502  501  0.00000000000E+00  0.00000000000E+00  0.23224632088E+03  0.23224632088E+03  0.00000000000E+00 0. -1.
         21   -1    0    0  501  502 -0.00000000000E+00 -0.00000000000E+00 -0.32760652724E+03  0.32760652724E+03  0.00000000000E+00 0. -1.
         25    1    1    2    0    0  0.95925184501E+02  0.10784414670E+03  0.15434090014E+03  0.24551601670E+03  0.12500000000E+03 0.  0.
         25    1    1    2    0    0 -0.95925184501E+02 -0.10784414670E+03 -0.24970110650E+03  0.31433683142E+03  0.12500000000E+03 0.  0.
</event>
<event>
 4    0  0.2236434E-002  0.2031869E+03  0.7546771E-02  0.1147078E+00
         21   -1    0    0  502  501  0.00000000000E+00  0.00000000000E+00  0.21398277820E+03  0.21398277820E+03  0.00000000000E+00 0. -1.
         21   -1    0    0  501  502 -0.00000000000E+00 -0.00000000000E+00 -0.19293576817E+03  0.19293576817E+03  0.00000000000E+00 0. -1.
         25    1    1    2    0    0 -0.11607566420E+03 -0.38795770836E+02 -0.92965198825E+02  0.19810653661E+03  0.12500000000E+03 0.  0.
         25    1    1    2    0    0  0.11607566420E+03  0.38795770836E+02  0.11401220885E+03  0.20881200976E+03  0.12500000000E+03 0.  0.
</event>
<event>
 4    0  0.2236434E-002  0.1654299E+03  0.7546771E-02  0.1182699E+00
         21   -1    0    0  502  501  0.00000000000E+00  0.00000000000E+00  0.30154691085E+02  0.30154691085E+02  0.00000000000E+00 0.  1.
         21   -1    0    0  501  502 -0.00000000000E+00 -0.00000000000E+00 -0.90755527499E+03  0.90755527499E+03  0.00000000000E+00 0.  1.
         25    1    1    2    0    0 -0.34441968828E+02 -0.60854884014E+02 -0.20408920603E+03  0.24933305065E+03  0.12500000000E+03 0.  0.
         25    1    1    2    0    0  0.34441968828E+02  0.60854884014E+02 -0.67331137787E+03  0.68837691543E+03  0.12500000000E+03 0.  0.
</event>
<event>
 4    0  0.2236434E-002  0.1808849E+03  0.7546771E-02  0.1166949E+00
         21   -1    0    0  502  501  0.00000000000E+00  0.00000000000E+00  0.32279619923E+02  0.32279619923E+02  0.00000000000E+00 0. -1.
         21   -1    0    0  501  502 -0.00000000000E+00 -0.00000000000E+00 -0.10136219839E+04  0.10136219839E+04  0.00000000000E+00 0. -1.
         25    1    1    2    0    0  0.24839878703E+01 -0.12628222936E+03 -0.58832606560E+03  0.61457784788E+03  0.12500000000E+03 0.  0.
         25    1    1    2    0    0 -0.24839878703E+01  0.12628222936E+03 -0.39301629842E+03  0.43132375598E+03  0.12500000000E+03 0.  0.
</event>
<event>
 4    0  0.2236434E-002  0.2613453E+03  0.7546771E-02  0.1106338E+00
         21   -1    0    0  502  501  0.00000000000E+00  0.00000000000E+00  0.13670406542E+03  0.13670406542E+03  0.00000000000E+00 0.  1.
         21   -1    0    0  501  502 -0.00000000000E+00 -0.00000000000E+00 -0.49962942913E+03  0.49962942913E+03  0.00000000000E+00 0.  1.
         25    1    1    2    0    0 -0.13111700878E+03  0.10798234154E+03 -0.36937364982E+03  0.42533956935E+03  0.12500000000E+03 0.  0.
         25    1    1    2    0    0  0.13111700878E+03 -0.10798234154E+03  0.64482861033E+01  0.21099392520E+03  0.12500000000E+03 0.  0.
</event>
<event>
 4    0  0.2236434E-002  0.3726554E+03  0.7546771E-02  0.1053682E+00
         21   -1    0    0  502  501  0.00000000000E+00  0.00000000000E+00  0.17605947368E+03  0.17605947368E+03  0.00000000000E+00 0. -1.
         21   -1    0    0  501  502 -0.00000000000E+00 -0.00000000000E+00 -0.78877914670E+03  0.78877914670E+03  0.00000000000E+00 0. -1.
         25    1    1    2    0    0  0.24520350251E+03 -0.13594987917E+03 -0.32846222036E+02  0.30872479912E+03  0.12500000000E+03 0.  0.
         25    1    1    2    0    0 -0.24520350251E+03  0.13594987917E+03 -0.57987345099E+03  0.65611382126E+03  0.12500000000E+03 0.  0.
</event>
<event>
 4    0  0.2236434E-002  0.1502530E+03  0.7546771E-02  0.1200162E+00
         21   -1    0    0  502  501  0.00000000000E+00  0.00000000000E+00  0.34012639799E+03  0.34012639799E+03  0.00000000000E+00 0. -1.
         21   -1    0    0  501  502 -0.00000000000E+00 -0.00000000000E+00 -0.66375236128E+02  0.66375236128E+02  0.00000000000E+00 0. -1.
         25    1    1    2    0    0 -0.81399005895E+02  0.62803861590E+01  0.11400980604E+03  0.18785227516E+03  0.12500000000E+03 0.  0.
         25    1    1    2    0    0  0.81399005895E+02 -0.62803861590E+01  0.15974135582E+03  0.21864935896E+03  0.12500000000E+03 0.  0.
</event>
<event>
 4    0  0.2236434E-002  0.2201184E+03  0.7546771E-02  0.1133795E+00
         21   -1    0    0  502  501  0.00000000000E+00  0.00000000000E+00  0.20851208053E+03  0.20851208053E+03  0.00000000000E+00 0.  1.
         21   -1    0    0  501  502 -0.00000000000E+00 -0.00000000000E+00 -0.23237074903E+03  0.23237074903E+03  0.00000000000E+00 0.  1.
         25    1    1    2    0    0 -0.12153672272E+03 -0.12639957050E+03 -0.57593197737E+02  0.22291254522E+03  0.12500000000E+03 0.  0.
         25    1    1    2    0    0  0.12153672272E+03  0.12639957050E+03  0.33734529231E+02  0.21797028434E+03  0.12500000000E+03 0.  0.
</event>
<event>
 4    0  0.2236434E-002  0.2306962E+03  0.7546771E-02  0.1126151E+00
         21   -1    0    0  502  501  0.00000000000E+00  0.00000000000E+00  0.20565352275E+03  0.20565352275E+03  0.00000000000E+00 0.  1.
         21   -1    0    0  501  502 -0.00000000000E+00 -0.00000000000E+00 -0.25878840353E+03  0.25878840353E+03  0.00000000000E+00 0.  1.
         25    1    1    2    0    0  0.18168699561E+03  0.49052623601E+02 -0.73560277137E+02  0.23759721932E+03  0.12500000000E+03 0.  0.
         25    1    1    2    0    0 -0.18168699561E+03 -0.49052623601E+02  0.20425396363E+02  0.22684470696E+03  0.12500000000E+03 0.  0.
</event>
<event>
 4    0  0.2236434E-002  0.3554727E+03  0.7546771E-02  0.1060391E+00
         21   -1    0    0  502  501  0.00000000000E+00  0.00000000000E+00  0.56507231944E+03  0.56507231944E+03  0.00000000000E+00 0. -1.
         21   -1    0    0  501  502 -0.00000000000E+00 -0.00000000000E+00 -0.22361885759E+03  0.22361885759E+03  0.00000000000E+00 0. -1.
         25    1    1    2    0    0 -0.18925367933E+03  0.71546678244E+02 -0.12236144337E+03  0.26745692201E+03  0.12500000000E+03 0.  0.
         25    1    1    2    0    0  0.18925367933E+03 -0.71546678244E+02  0.46381490521E+03  0.52123425502E+03  0.12500000000E+03 0.  0.
</event>
<event>
 4    0  0.2236434E-002  0.1971973E+03  0.7546771E-02  0.1152125E+00
         21   -1    0    0  502  501  0.00000000000E+00  0.00000000000E+00  0.60532843672E+03  0.60532843672E+03  0.00000000000E+00 0. -1.
         21   -1    0    0  501  502 -0.00000000000E+00 -0.00000000000E+00 -0.64240755837E+02  0.64240755837E+02  0.00000000000E+00 0. -1.
         25    1    1    2    0    0 -0.76474123132E+02 -0.13189613943E+03  0.27751754159E+03  0.34042013600E+03  0.12500000000E+03 0.  0.
         25    1    1    2    0    0  0.76474123132E+02  0.13189613943E+03  0.26357013930E+03  0.32914905656E+03  0.12500000000E+03 0.  0.
</event>
<event>
 4    0  0.2236434E-002  0.2035602E+03  0.7546771E-02  0.1146770E+00
         21   -1    0    0  502  501  0.00000000000E+00  0.00000000000E+00  0.13822959918E+03  0.13822959918E+03  0.00000000000E+00 0.  1.
         21   -1    0    0  501  502 -0.00000000000E+00 -0.00000000000E+00 -0.29976771004E+03  0.29976771004E+03  0.00000000000E+00 0.  1.
         25    1    1    2    0    0 -0.11817723034E+03  0.17207026146E+02  0.34851835077E+02  0.17635642866E+03  0.12500000000E+03 0.  0.
         25    1    1    2    0    0  0.11817723034E+03 -0.17207026146E+02 -0.19638994594E+03  0.26164088057E+03  0.12500000000E+03 0.  0.
</event>
<event>
 4    0  0.2236434E-002  0.1960754E+03  0.7546771E-02  0.1153093E+00
         21   -1    0    0  502  501  0.00000000000E+00  0.00000000000E+00  0.28958063179E+03  0.28958063179E+03  0.00000000000E+00 0. -1.
         21   -1    0    0  501  502 -0.00000000000E+00 -0.00000000000E+00 -0.13276291926E+03  0.13276291926E+03  0.00000000000E+00 0. -1.
         25    1    1    2    0    0 -0.13171231145E+02  0.11164843625E+03  0.18708224148E+03  0.25152260281E+03  0.12500000000E+03 0.  0.
         25    1    1    2    0    0  0.13171231145E+02 -0.11164843625E+03 -0.30264528946E+02  0.17082094824E+03  0.12500000000E+03 0.  0.
</event>
<event>
 4    0  0.2236434E-002  0.1790470E+03  0.7546771E-02  0.1168729E+00
         21   -1    0    0  502  501  0.00000000000E+00  0.00000000000E+00  0.13583090693E+04  0.13583090693E+04  0.00000000000E+00 0. -1.
         21   -1    0    0  501  502 -0.00000000000E+00 -0.00000000000E+00 -0.23601283861E+02  0.23601283861E+02  0.00000000000E+00 0. -1.
         25    1    1    2    0    0 -0.81335378388E+02  0.22463016459E+02  0.10397653747E+04  0.10506460229E+04  0.12500000000E+03 0.  0.
         25    1    1    2    0    0  0.81335378388E+02 -0.22463016459E+02  0.29494241068E+03  0.33126433026E+03  0.12500000000E+03 0.  0.
</event>
<event>
 4    0  0.2236434E-002  0.1868935E+03  0.7546771E-02  0.1161293E+00
         21   -1    0    0  502  501  0.00000000000E+00  0.00000000000E+00  0.26216704688E+03  0.26216704688E+03  0.00000000000E+00 0.  1.
         21   -1    0    0  501  502 -0.00000000000E+00 -0.00000000000E+00 -0.13323247357E+03  0.13323247357E+03  0.00000000000E+00 0.  1.
         25    1    1    2    0    0 -0.89452573600E+02 -0.65136892113E+02 -0.24412228779E+02  0.16871732143E+03  0.12500000000E+03 0.  0.
         25    1    1    2    0    0  0.89452573600E+02  0.65136892113E+02  0.15334680210E+03  0.22668219902E+03  0.12500000000E+03 0.  0.
</event>
<event>
 4    0  0.2236434E-002  0.1947068E+03  0.7546771E-02  0.1154283E+00
         21   -1    0    0  502  501  0.00000000000E+00  0.00000000000E+00  0.59250526921E+02  0.59250526921E+02  0.00000000000E+00 0.  1.
         21   -1    0    0  501  502 -0.00000000000E+00 -0.00000000000E+00 -0.63983825387E+03  0.63983825387E+03  0.00000000000E+00 0.  1.
         25    1    1    2    0    0  0.60036920284E+02 -0.13658368797E+03 -0.29948610602E+03  0.35717847544E+03  0.12500000000E+03 0.  0.
         25    1    1    2    0    0 -0.60036920284E+02  0.13658368797E+03 -0.28110162093E+03  0.34191030535E+03  0.12500000000E+03 0.  0.
</event>
<event>
 4    0  0.2236434E-002  0.1851661E+03  0.7546771E-02  0.1162895E+00
         21   -1    0    0  502  501  0.00000000000E+00  0.00000000000E+00  0.25131814654E+03  0.25131814654E+03  0.00000000000E+00 0. -1.
         21   -1    0    0  501  502 -0.00000000000E+00 -0.00000000000E+00 -0.13642658246E+03  0.13642658246E+03  0.00000000000E+00 0. -1.
         25    1    1    2    0    0 -0.27762863459E+01 -0.11972111233E+03  0.12626784501E+03  0.21426483889E+03  0.12500000000E+03 0.  0.
         25    1    1    2    0    0  0.27762863459E+01  0.11972111233E+03 -0.11376280930E+02  0.17347989010E+03  0.12500000000E+03 0.  0.
</event>
<event>
 4    0  0.2236434E-002  0.3441948E+03  0.7546771E-02  0.1065023E+00
         21   -1    0    0  502  501  0.00000000000E+00  0.00000000000E+00  0.11011891661E+04  0.11011891661E+04  0.00000000000E+00 0. -1.
         21   -1    0    0  501  502 -0.00000000000E+00 -0.00000000000E+00 -0.10758375803E+03  0.10758375803E+03  0.00000000000E+00 0.  1.
         25    1    1    2    0    0  0.17393039813E+02  0.29184857138E+03  0.26539791707E+03  0.41417286347E+03  0.12500000000E+03 0.  0.
         25    1    1    2    0    0 -0.17393039813E+02 -0.29184857138E+03  0.72820749103E+03  0.79460006069E+03  0.12500000000E+03 0.  0.
</event>
<event>
 4    0  0.2236434E-002  0.3617118E+03  0.7546771E-02  0.1057908E+00
         21   -1    0    0  502  501  0.00000000000E+00  0.00000000000E+00  0.66359692054E+03  0.66359692054E+03  0.00000000000E+00 0. -1.
         21   -1    0    0  501  502 -0.00000000000E+00 -0.00000000000E+00 -0.19716100460E+03  0.19716100460E+03  0.00000000000E+00 0. -1.
         25    1    1    2    0    0  0.68163349467E+01  0.25571313445E+03 -0.32238292328E+02  0.28653093558E+03  0.12500000000E+03 0.  0.
         25    1    1    2    0    0 -0.68163349467E+01 -0.25571313445E+03  0.49867420826E+03  0.57422698956E+03  0.12500000000E+03 0.  0.
</event>
<event>
 4    0  0.2236434E-002  0.1917095E+03  0.7546771E-02  0.1156928E+00
         21   -1    0    0  502  501  0.00000000000E+00  0.00000000000E+00  0.69372772921E+03  0.69372772921E+03  0.00000000000E+00 0. -1.
         21   -1    0    0  501  502 -0.00000000000E+00 -0.00000000000E+00 -0.52978331237E+02  0.52978331237E+02  0.00000000000E+00 0. -1.
         25    1    1    2    0    0  0.95691582462E+02 -0.71428162362E+02  0.15897135263E+03  0.23485261823E+03  0.12500000000E+03 0.  0.
         25    1    1    2    0    0 -0.95691582462E+02  0.71428162362E+02  0.48177804534E+03  0.51185344222E+03  0.12500000000E+03 0.  0.
</event>
<event>
 4    0  0.2236434E-002  0.1837401E+03  0.7546771E-02  0.1164232E+00
         21   -1    0    0  502  501  0.00000000000E+00  0.00000000000E+00  0.86250126622E+02  0.86250126622E+02  0.00000000000E+00 0.  1.
         21   -1    0    0  501  502 -0.00000000000E+00 -0.00000000000E+00 -0.39142478912E+03  0.39142478912E+03  0.00000000000E+00 0.  1.
         25    1    1    2    0    0 -0.37089667528E+02  0.59290868727E+02 -0.30218138760E+03  0.33440939216E+03  0.12500000000E+03 0.  0.
         25    1    1    2    0    0  0.37089667528E+02 -0.59290868727E+02 -0.29932748917E+01  0.14326552358E+03  0.12500000000E+03 0.  0.
</event>
<event>
 4    0  0.2236434E-002  0.2572007E+03  0.7546771E-02  0.1108837E+00
         21   -1    0    0  502  501  0.00000000000E+00  0.00000000000E+00  0.99597955265E+03  0.99597955265E+03  0.00000000000E+00 0. -1.
         21   -1    0    0  501  502 -0.00000000000E+00 -0.00000000000E+00 -0.66419242478E+02  0.66419242478E+02  0.00000000000E+00 0. -1.
         25    1    1    2    0    0  0.58452092123E+02 -0.62074467525E+02  0.35228682435E+02  0.15535748021E+03  0.12500000000E+03 0.  0.
         25    1    1    2    0    0 -0.58452092123E+02  0.62074467525E+02  0.89433162774E+03  0.90704131491E+03  0.12500000000E+03 0.  0.
</event>
<event>
 4    0  0.2236434E-002  0.1789512E+03  0.7546771E-02  0.1168822E+00
         21   -1    0    0  502  501  0.00000000000E+00  0.00000000000E+00  0.55376815065E+03  0.55376815065E+03  0.00000000000E+00 0.  1.
         21   -1    0    0  501  502 -0.00000000000E+00 -0.00000000000E+00 -0.57828395302E+02  0.57828395302E+02  0.00000000000E+00 0.  1.
         25    1    1    2    0    0  0.40518223279E+02  0.10463700464E+03  0.14252076815E+03  0.22029025968E+03  0.12500000000E+03 0.  0.
         25    1    1    2    0    0 -0.40518223279E+02 -0.10463700464E+03  0.35341898720E+03  0.39130628627E+03  0.12500000000E+03 0.  0.
</event>
<event>
 4    0  0.2236434E-002  0.1678947E+03  0.7546771E-02  0.1180061E+00
         21   -1    0    0  502  501  0.00000000000E+00  0.00000000000E+00  0.47136417674E+02  0.47136417674E+02  0.00000000000E+00 0.  1.
         21   -1    0    0  501  502 -0.00000000000E+00 -0.00000000000E+00 -0.59802219806E+03  0.59802219806E+03  0.00000000000E+00 0.  1.
         25    1    1    2    0    0 -0.16054105840E+01 -0.10880407839E+03 -0.22379121765E+03  0.27847515852E+03  0.12500000000E+03 0.  0.
         25    1    1    2    0    0  0.16054105840E+01  0.10880407839E+03 -0.32709456274E+03  0.36668345721E+03  0.12500000000E+03 0.  0.
</event>
<event>
 4    0  0.2236434E-002  0.2142236E+03  0.7546771E-02  0.1138264E+00
         21   -1    0    0  502  501  0.00000000000E+00  0.00000000000E+00  0.66191047765E+03  0.66191047765E+03  0.00000000000E+00 0. -1.
         21   -1    0    0  501  502 -0.00000000000E+00 -0.00000000000E+00 -0.69332238980E+02  0.69332238980E+02  0.00000000000E+00 0. -1.
         25    1    1    2    0    0  0.16445651906E+03  0.14834361561E+01  0.39311624122E+03  0.44408729587E+03  0.12500000000E+03 0.  0.
         25    1    1    2    0    0 -0.16445651906E+03 -0.14834361561E+01  0.19946199745E+03  0.28715542076E+03  0.12500000000E+03 0.  0.
</event>
<event>
 4    0  0.2236434E-002  0.2409894E+03  0.7546771E-02  0.1119135E+00
         21   -1    0    0  502  501  0.00000000000E+00  0.00000000000E+00  0.13442310204E+03  0.13442310204E+03  0.00000000000E+00 0. -1.
         21   -1    0    0  501  502 -0.00000000000E+00 -0.00000000000E+00 -0.43203814435E+03  0.43203814435E+03  0.00000000000E+00 0. -1.
         25    1    1    2    0    0 -0.12138536675E+03 -0.62439549053E+02  0.32574006281E+02  0.18793395232E+03  0.12500000000E+03 0.  0.
         25    1    1    2    0    0  0.12138536675E+03  0.62439549053E+02 -0.33018904859E+03  0.37852729407E+03  0.12500000000E+03 0.  0.
</event>
<event>
 4    0  0.2236434E-002  0.2159441E+03  0.7546771E-02  0.1136943E+00
         21   -1    0    0  502  501  0.00000000000E+00  0.00000000000E+00  0.63778598166E+03  0.63778598166E+03  0.00000000000E+00 0. -1.
         21   -1    0    0  501  502 -0.00000000000E+00 -0.00000000000E+00 -0.73115214430E+02  0.73115214430E+02  0.00000000000E+00 0. -1.
         25    1    1    2    0    0  0.86268856931E+02  0.92947427765E+02  0.48342965262E+03  0.51518032672E+03  0.12500000000E+03 0.  0.
         25    1    1    2    0    0 -0.86268856931E+02 -0.92947427765E+02  0.81241114607E+02  0.19572086937E+03  0.12500000000E+03 0.  0.
</event>
<event>
 4    0  0.2236434E-002  0.2392848E+03  0.7546771E-02  0.1120270E+00
         21   -1    0    0  502  501  0.00000000000E+00  0.00000000000E+00  0.44236929264E+03  0.44236929264E+03  0.00000000000E+00 0. -1.
         21   -1    0    0  501  502 -0.00000000000E+00 -0.00000000000E+00 -0.12943306837E+03  0.12943306837E+03  0.00000000000E+00 0. -1.
         25    1    1    2    0    0  0.49397353035E+02 -0.19709615192E+03  0.17866800581E+03  0.29805074717E+03  0.12500000000E+03 0.  0.
         25    1    1    2    0    0 -0.49397353035E+02  0.19709615192E+03  0.13426821846E+03  0.27375161384E+03  0.12500000000E+03 0.  0.
</event>
<event>
 4    0  0.2236434E-002  0.2241185E+03  0.7546771E-02  0.1130849E+00
         21   -1    0    0  502  501  0.00000000000E+00  0.00000000000E+00  0.48900867415E+03  0.48900867415E+03  0.00000000000E+00 0.  1.
         21   -1    0    0  501  502 -0.00000000000E+00 -0.00000000000E+00 -0.10271617205E+03  0.10271617205E+03  0.00000000000E+00 0.  1.
         25    1    1    2    0    0  0.13289605501E+03 -0.11419919892E+03  0.11069149492E+03  0.24203393464E+03  0.12500000000E+03 0.  0.
         25    1    1    2    0    0 -0.13289605501E+03  0.11419919892E+03  0.27560100717E+03  0.34969091156E+03  0.12500000000E+03 0.  0.
</event>
<event>
 4    0  0.2236434E-002  0.2680927E+03  0.7546771E-02  0.1102376E+00
         21   -1    0    0  502  501  0.00000000000E+00  0.00000000000E+00  0.10550255156E+03  0.10550255156E+03  0.00000000000E+00 0.  1.
         21   -1    0    0  501  502 -0.00000000000E+00 -0.00000000000E+00 -0.68125096758E+03  0.68125096758E+03  0.00000000000E+00 0.  1.
         25    1    1    2    0    0 -0.15188830716E+03 -0.11147728197E+02 -0.55464494937E+03  0.58860033092E+03  0.12500000000E+03 0.  0.
         25    1    1    2    0    0  0.15188830716E+03  0.11147728197E+02 -0.21103466644E+02  0.19815318821E+03  0.12500000000E+03 0.  0.
</event>
<event>
 4    0  0.2236434E-002  0.1536165E+03  0.7546771E-02  0.1196098E+00
         21   -1    0    0  502  501  0.00000000000E+00  0.00000000000E+00  0.30951884470E+03  0.30951884470E+03  0.00000000000E+00 0.  1.
         21   -1    0    0  501  502 -0.00000000000E+00 -0.00000000000E+00 -0.76241023926E+02  0.76241023926E+02  0.00000000000E+00 0.  1.
         25    1    1    2    0    0 -0.41276762582E+02 -0.46510904682E+02  0.19709492611E+03  0.24153352828E+03  0.12500000000E+03 0.  0.
         25    1    1    2    0    0  0.41276762582E+02  0.46510904682E+02  0.36182894660E+02  0.14422634035E+03  0.12500000000E+03 0.  0.
</event>
<event>
 4    0  0.2236434E-002  0.4027992E+03  0.7546771E-02  0.1042815E+00
         21   -1    0    0  502  501  0.00000000000E+00  0.00000000000E+00  0.68542855946E+03  0.68542855946E+03  0.00000000000E+00 0.  1.
         21   -1    0    0  501  502 -0.00000000000E+00 -0.00000000000E+00 -0.23670910105E+03  0.23670910105E+03  0.00000000000E+00 0.  1.
         25    1    1    2    0    0 -0.21205316269E+02  0.26461228392E+03 -0.91518920993E+02  0.30735978777E+03  0.12500000000E+03 0.  0.
         25    1    1    2    0    0  0.21205316269E+02 -0.26461228392E+03  0.54023837940E+03  0.61477787274E+03  0.12500000000E+03 0.  0.
</event>
<event>
 4    0  0.2236434E-002  0.1988537E+03  0.7546771E-02  0.1150710E+00
         21   -1    0    0  502  501  0.00000000000E+00  0.00000000000E+00  0.10398782018E+04  0.10398782018E+04  0.00000000000E+00 0.  1.
         21   -1    0    0  501  502 -0.00000000000E+00 -0.00000000000E+00 -0.38026360065E+02  0.38026360065E+02  0.00000000000E+00 0.  1.
         25    1    1    2    0    0 -0.37216578274E+02 -0.39019739199E+02  0.10807165471E+03  0.17381627167E+03  0.12500000000E+03 0.  0.
         25    1    1    2    0    0  0.37216578274E+02  0.39019739199E+02  0.89378018700E+03  0.90408829017E+03  0.12500000000E+03 0.  0.
</event>
<event>
 4    0  0.2236434E-002  0.2605986E+03  0.7546771E-02  0.1106784E+00
         21   -1    0    0  502  501  0.00000000000E+00  0.00000000000E+00  0.16785854161E+03  0.16785854161E+03  0.00000000000E+00 0. -1.
         21   -1    0    0  501  502 -0.00000000000E+00 -0.00000000000E+00 -0.40457666323E+03  0.40457666323E+03  0.00000000000E+00 0. -1.
         25    1    1    2    0    0  0.84081845987E+00 -0.41571555064E+02 -0.36531419570E+03  0.38834052421E+03  0.12500000000E+03 0.  0.
         25    1    1    2    0    0 -0.84081845987E+00  0.41571555064E+02  0.12859607408E+03  0.18409468063E+03  0.12500000000E+03 0.  0.
</event>
<event>
 4    0  0.2236434E-002  0.2369286E+03  0.7546771E-02  0.1121856E+00
         21   -1    0    0  502  501  0.00000000000E+00  0.00000000000E+00  0.59659300372E+02  0.59659300372E+02  0.00000000000E+00 0. -1.
         21   -1    0    0  501  502 -0.00000000000E+00 -0.00000000000E+00 -0.94092893713E+03  0.94092893713E+03  0.00000000000E+00 0. -1.
         25    1    1    2    0    0  0.17759171918E+03 -0.94291548528E+02 -0.42169553732E+03  0.48361331769E+03  0.12500000000E+03 0.  0.
         25    1    1    2    0    0 -0.17759171918E+03  0.94291548528E+02 -0.45957409943E+03  0.51697491981E+03  0.12500000000E+03 0.  0.
</event>
<event>
 4    0  0.2236434E-002  0.3481800E+03  0.7546771E-02  0.1063365E+00
         21   -1    0    0  502  501  0.00000000000E+00  0.00000000000E+00  0.10392270830E+04  0.10392270830E+04  0.00000000000E+00 0.  1.
         21   -1    0    0  501  502 -0.00000000000E+00 -0.00000000000E+00 -0.11665332506E+03  0.11665332506E+03  0.00000000000E+00 0.  1.
         25    1    1    2    0    0 -0.83032191931E+02  0.23688459938E+03  0.80386661732E+03  0.85137253700E+03  0.12500000000E+03 0.  0.
         25    1    1    2    0    0  0.83032191931E+02 -0.23688459938E+03  0.11870714066E+03  0.30450787111E+03  0.12500000000E+03 0.  0.
</event>
<event>
 4    0  0.2236434E-002  0.1906359E+03  0.7546771E-02  0.1157889E+00
         21   -1    0    0  502  501  0.00000000000E+00  0.00000000000E+00  0.34885650381E+03  0.34885650381E+03  0.00000000000E+00 0.  1.
         21   -1    0    0  501  502 -0.00000000000E+00 -0.00000000000E+00 -0.10417472101E+03  0.10417472101E+03  0.00000000000E+00 0.  1.
         25    1    1    2    0    0 -0.99638523673E+02  0.15617020955E+02  0.32312491957E+00  0.16061391955E+03  0.12500000000E+03 0.  0.
         25    1    1    2    0    0  0.99638523673E+02 -0.15617020955E+02  0.24435865788E+03  0.29241730527E+03  0.12500000000E+03 0.  0.
</event>
<event>
 4    0  0.2236434E-002  0.2905465E+03  0.7546771E-02  0.1090064E+00
         21   -1    0    0  502  501  0.00000000000E+00  0.00000000000E+00  0.28920275645E+03  0.28920275645E+03  0.00000000000E+00 0.  1.
         21   -1    0    0  501  502 -0.00000000000E+00 -0.00000000000E+00 -0.29189640151E+03  0.29189640151E+03  0.00000000000E+00 0.  1.
         25    1    1    2    0    0  0.21908095495E+03  0.13903805287E+03  0.36918441198E+02  0.29037220299E+03  0.12500000000E+03 0.  0.
         25    1    1    2    0    0 -0.21908095495E+03 -0.13903805287E+03 -0.39612086260E+02  0.29072695497E+03  0.12500000000E+03 0.  0.
</event>
<event>
 4    0  0.2236434E-002  0.1724519E+03  0.7546771E-02  0.1175315E+00
         21   -1    0    0  502  501  0.00000000000E+00  0.00000000000E+00  0.31957289720E+02  0.31957289720E+02  0.00000000000E+00 0.  1.
         21   -1    0    0  501  502 -0.00000000000E+00 -0.00000000000E+00 -0.93060587794E+03  0.93060587794E+03  0.00000000000E+00 0.  1.
         25    1    1    2    0    0  0.63497669963E+02  0.78742383530E+02 -0.27543321597E+03  0.31893694285E+03  0.12500000000E+03 0.  0.
         25    1    1    2    0    0 -0.63497669963E+02 -0.78742383530E+02 -0.62321537225E+03  0.64362622481E+03  0.12500000000E+03 0.  0.
</event>
<event>
 4    0  0.2236434E-002  0.2294208E+03  0.7546771E-02  0.1127048E+00
         21   -1    0    0  502  501  0.00000000000E+00  0.00000000000E+00  0.13068016683E+04  0.13068016683E+04  0.00000000000E+00 0.  1.
         21   -1    0    0  501  502 -0.00000000000E+00 -0.00000000000E+00 -0.40276894520E+02  0.40276894520E+02  0.00000000000E+00 0.  1.
         25    1    1    2    0    0 -0.51448845856E+02 -0.13400484461E+03  0.10092844528E+04  0.10270756490E+04  0.12500000000E+03 0.  0.
         25    1    1    2    0    0  0.51448845856E+02  0.13400484461E+03  0.25724032106E+03  0.32000291389E+03  0.12500000000E+03 0.  0.
</event>
<event>
 4    0  0.2236434E-002  0.1646126E+03  0.7546771E-02  0.1183585E+00
         21   -1    0    0  502  501  0.00000000000E+00  0.00000000000E+00  0.14451617380E+04  0.14451617380E+04  0.00000000000E+00 0. -1.
         21   -1    0    0  501  502 -0.00000000000E+00 -0.00000000000E+00 -0.18750372047E+02  0.18750372047E+02  0.00000000000E+00 0. -1.
         25    1    1    2    0    0 -0.81184327836E+02  0.27341145344E+02  0.99909711041E+03  0.10105238589E+04  0.12500000000E+03 0.  0.
         25    1    1    2    0    0  0.81184327836E+02 -0.27341145344E+02  0.42731425553E+03  0.45338825116E+03  0.12500000000E+03 0.  0.
</event>
<event>
 4    0  0.2236434E-002  0.1751258E+03  0.7546771E-02  0.1172605E+00
         21   -1    0    0  502  501  0.00000000000E+00  0.00000000000E+00  0.39213163516E+02  0.39213163516E+02  0.00000000000E+00 0.  1.
         21   -1    0    0  501  502 -0.00000000000E+00 -0.00000000000E+00 -0.78211121459E+03  0.78211121459E+03  0.00000000000E+00 0.  1.
         25    1    1    2    0    0 -0.13143017365E+02  0.84297257387E+02 -0.16480953756E+03  0.22375421824E+03  0.12500000000E+03 0.  0.
         25    1    1    2    0    0  0.13143017365E+02 -0.84297257387E+02 -0.57808851351E+03  0.59757015986E+03  0.12500000000E+03 0.  0.
</event>
<event>
 4    0  0.2236434E-002  0.2152471E+03  0.7546771E-02  0.1137477E+00
         21   -1    0    0  502  501  0.00000000000E+00  0.00000000000E+00  0.15945415002E+03  0.15945415002E+03  0.00000000000E+00 0. -1.
         21   -1    0    0  501  502 -0.00000000000E+00 -0.00000000000E+00 -0.29056207559E+03  0.29056207559E+03  0.00000000000E+00 0. -1.
         25    1    1    2    0    0  0.11386171065E+03  0.94765049517E+02 -0.16340111125E+03  0.25351494417E+03  0.12500000000E+03 0.  0.
         25    1    1    2    0    0 -0.11386171065E+03 -0.94765049517E+02  0.32293185681E+02  0.19650128143E+03  0.12500000000E+03 0.  0.
</event>
<event>
 4    0  0.2236434E-002  0.2774030E+03  0.7546771E-02  0.1097116E+00
         21   -1    0    0  502  501  0.00000000000E+00  0.00000000000E+00  0.65843418111E+02  0.65843418111E+02  0.00000000000E+00 0. -1.
         21   -1    0    0  501  502 -0.00000000000E+00 -0.00000000000E+00 -0.11687188509E+04  0.11687188509E+04  0.00000000000E+00 0. -1.
         25    1    1    2    0    0 -0.11339671157E+03  0.20923900974E+03 -0.70379041526E+03  0.75338285487E+03  0.12500000000E+03 0.  0.
         25    1    1    2    0    0  0.11339671157E+03 -0.20923900974E+03 -0.39908501757E+03  0.48117941419E+03  0.12500000000E+03 0.  0.
</event>
<event>
 4    0  0.2236434E-002  0.2412912E+03  0.7546771E-02  0.1118936E+00
         21   -1    0    0  502  501  0.00000000000E+00  0.00000000000E+00  0.32369178448E+04  0.32369178448E+04  0.00000000000E+00 0.  1.
         21   -1    0    0  501  502 -0.00000000000E+00 -0.00000000000E+00 -0.17986695794E+02  0.17986695794E+02  0.00000000000E+00 0.  1.
         25    1    1    2    0    0 -0.20008525734E+03  0.44554600292E+02  0.17715131989E+04  0.17877089350E+04  0.12500000000E+03 0.  0.
         25    1    1    2    0    0  0.20008525734E+03 -0.44554600292E+02  0.14474179502E+04  0.14671956056E+04  0.12500000000E+03 0.  0.
</event>
<event>
 4    0  0.2236434E-002  0.2313322E+03  0.7546771E-02  0.1125706E+00
         21   -1    0    0  502  501  0.00000000000E+00  0.00000000000E+00  0.49327531843E+02  0.49327531843E+02  0.00000000000E+00 0.  1.
         21   -1    0    0  501  502 -0.00000000000E+00 -0.00000000000E+00 -0.10848824681E+04  0.10848824681E+04  0.00000000000E+00 0. -1.
         25    1    1    2    0    0  0.83644409718E+02 -0.14858309262E+03 -0.74795844604E+03  0.77726453650E+03  0.12500000000E+03 0.  0.
         25    1    1    2    0    0 -0.83644409718E+02  0.14858309262E+03 -0.28759649020E+03  0.35694546343E+03  0.12500000000E+03 0.  0.
</event>
<event>
 4    0  0.2236434E-002  0.2379039E+03  0.7546771E-02  0.1121197E+00
         21   -1    0    0  502  501  0.00000000000E+00  0.00000000000E+00  0.25053028716E+03  0.25053028716E+03  0.00000000000E+00 0.  1.
         21   -1    0    0  501  502 -0.00000000000E+00 -0.00000000000E+00 -0.22591377683E+03  0.22591377683E+03  0.00000000000E+00 0.  1.
         25    1    1    2    0    0  0.13389499683E+03 -0.11955229827E+03  0.10598882307E+03  0.24306224062E+03  0.12500000000E+03 0.  0.
         25    1    1    2    0    0 -0.13389499683E+03  0.11955229827E+03 -0.81372312742E+02  0.23338182337E+03  0.12500000000E+03 0.  0.
</event>
<event>
 4    0  0.2236434E-002  0.1990793E+03  0.7546771E-02  0.1150518E+00
         21   -1    0    0  502  501  0.00000000000E+00  0.00000000000E+00  0.14097740332E+04  0.14097740332E+04  0.00000000000E+00 0.  1.
         21   -1    0    0  501  502 -0.00000000000E+00 -0.00000000000E+00 -0.28112699582E+02  0.28112699582E+02  0.00000000000E+00 0.  1.
         25    1    1    2    0    0  0.12452117847E+03  0.63690466304E+02  0.93161688211E+03  0.95031416616E+03  0.12500000000E+03 0.  0.
         25    1    1    2    0    0 -0.12452117847E+03 -0.63690466304E+02  0.45004445153E+03  0.48757256664E+03  0.12500000000E+03 0.  0.
</event>
<event>
 4    0  0.2236434E-002  0.3486386E+03  0.7546771E-02  0.1063175E+00
         21   -1    0    0  502  501  0.00000000000E+00  0.00000000000E+00  0.88120039524E+03  0.88120039524E+03  0.00000000000E+00 0. -1.
         21   -1    0    0  501  502 -0.00000000000E+00 -0.00000000000E+00 -0.13793555019E+03  0.13793555019E+03  0.00000000000E+00 0. -1.
         25    1    1    2    0    0  0.24410605899E+03 -0.17648127280E+03  0.19149163848E+03  0.37818970807E+03  0.12500000000E+03 0.  0.
         25    1    1    2    0    0 -0.24410605899E+03  0.17648127280E+03  0.55177320657E+03  0.64094623735E+03  0.12500000000E+03 0.  0.
</event>
<event>
 4    0  0.2236434E-002  0.2477102E+03  0.7546771E-02  0.1114761E+00
         21   -1    0    0  502  501  0.00000000000E+00  0.00000000000E+00  0.82785110281E+02  0.82785110281E+02  0.00000000000E+00 0. -1.
         21   -1    0    0  501  502 -0.00000000000E+00 -0.00000000000E+00 -0.74120026678E+03  0.74120026678E+03  0.00000000000E+00 0. -1.
         25    1    1    2    0    0 -0.94575109929E+02 -0.15655568613E+03 -0.51352492736E+03  0.55927362292E+03  0.12500000000E+03 0.  0.
         25    1    1    2    0    0  0.94575109929E+02  0.15655568613E+03 -0.14489022914E+03  0.26471175414E+03  0.12500000000E+03 0.  0.
</event>
<event>
 4    0  0.2236434E-002  0.2503806E+03  0.7546771E-02  0.1113065E+00
         21   -1    0    0  502  501  0.00000000000E+00  0.00000000000E+00  0.23068676866E+03  0.23068676866E+03  0.00000000000E+00 0.  1.
         21   -1    0    0  501  502 -0.00000000000E+00 -0.00000000000E+00 -0.27175560244E+03  0.27175560244E+03  0.00000000000E+00 0.  1.
         25    1    1    2    0    0 -0.70164543679E+01 -0.21678272123E+03 -0.15888218069E+02  0.25084141271E+03  0.12500000000E+03 0.  0.
         25    1    1    2    0    0  0.70164543679E+01  0.21678272123E+03 -0.25180615708E+02  0.25160095839E+03  0.12500000000E+03 0.  0.
</event>
<event>
 4    0  0.2236434E-002  0.3709961E+03  0.7546771E-02  0.1054313E+00
         21   -1    0    0  502  501  0.00000000000E+00  0.00000000000E+00  0.33874114372E+03  0.33874114372E+03  0.00000000000E+00 0.  1.
         21   -1    0    0  501  502 -0.00000000000E+00 -0.00000000000E+00 -0.40632240159E+03  0.40632240159E+03  0.00000000000E+00 0.  1.
         25    1    1    2    0    0  0.19694336418E+03 -0.10404890002E+03  0.23639609284E+03  0.34802438851E+03  0.12500000000E+03 0.  0.
         25    1    1    2    0    0 -0.19694336418E+03  0.10404890002E+03 -0.30397735071E+03  0.39703915680E+03  0.12500000000E+03 0.  0.
</event>
<event>
 4    0  0.2236434E-002  0.2148643E+03  0.7546771E-02  0.1137771E+00
         21   -1    0    0  502  501  0.00000000000E+00  0.00000000000E+00  0.48743650440E+03  0.48743650440E+03  0.00000000000E+00 0.  1.
         21   -1    0    0  501  502 -0.00000000000E+00 -0.00000000000E+00 -0.94713154884E+02  0.94713154884E+02  0.00000000000E+00 0.  1.
         25    1    1    2    0    0  0.45092486256E+02 -0.11450824883E+03  0.28269717727E+02  0.17767849703E+03  0.12500000000E+03 0.  0.
         25    1    1    2    0    0 -0.45092486256E+02  0.11450824883E+03  0.36445363179E+03  0.40447116225E+03  0.12500000000E+03 0.  0.
</event>
<event>
 4    0  0.2236434E-002  0.1926839E+03  0.7546771E-02  0.1156063E+00
         21   -1    0    0  502  501  0.00000000000E+00  0.00000000000E+00  0.24288238565E+03  0.24288238565E+03  0.00000000000E+00 0. -1.
         21   -1    0    0  501  502 -0.00000000000E+00 -0.00000000000E+00 -0.15286039847E+03  0.15286039847E+03  0.00000000000E+00 0. -1.
         25    1    1    2    0    0 -0.12861338961E+03  0.51569712641E+02  0.94273925527E+02  0.20907752697E+03  0.12500000000E+03 0.  0.
         25    1    1    2    0    0  0.12861338961E+03 -0.51569712641E+02 -0.42519383417E+01  0.18666525715E+03  0.12500000000E+03 0.  0.
</event>
<event>
 4    0  0.2236434E-002  0.2685338E+03  0.7546771E-02  0.1102122E+00
         21   -1    0    0  502  501  0.00000000000E+00  0.00000000000E+00  0.12634343804E+03  0.12634343804E+03  0.00000000000E+00 0. -1.
         21   -1    0    0  501  502 -0.00000000000E+00 -0.00000000000E+00 -0.57074924179E+03  0.57074924179E+03  0.00000000000E+00 0. -1.
         25    1    1    2    0    0  0.42031144685E+02  0.22432948856E+03 -0.13615403727E+03  0.29368905058E+03  0.12500000000E+03 0.  0.
         25    1    1    2    0    0 -0.42031144685E+02 -0.22432948856E+03 -0.30825176648E+03  0.40340362926E+03  0.12500000000E+03 0.  0.
</event>
<event>
 4    0  0.2236434E-002  0.3299910E+03  0.7546771E-02  0.1071141E+00
         21   -1    0    0  502  501  0.00000000000E+00  0.00000000000E+00  0.14415193151E+03  0.14415193151E+03  0.00000000000E+00 0. -1.
         21   -1    0    0  501  502 -0.00000000000E+00 -0.00000000000E+00 -0.75541193733E+03  0.75541193733E+03  0.00000000000E+00 0. -1.
         25    1    1    2    0    0 -0.22219281116E+02 -0.64060118291E+02  0.10024504931E+03  0.17398696825E+03  0.12500000000E+03 0.  0.
         25    1    1    2    0    0  0.22219281116E+02  0.64060118291E+02 -0.71150505513E+03  0.72557690060E+03  0.12500000000E+03 0.  0.
</event>
<event>
 4    0  0.2236434E-002  0.2108448E+03  0.7546771E-02  0.1140899E+00
         21   -1    0    0  502  501  0.00000000000E+00  0.00000000000E+00  0.32175158948E+03  0.32175158948E+03  0.00000000000E+00 0. -1.
         21   -1    0    0  501  502 -0.00000000000E+00 -0.00000000000E+00 -0.13816729459E+03  0.13816729459E+03  0.00000000000E+00 0. -1.
         25    1    1    2    0    0 -0.77049866889E+02 -0.14289637954E+03  0.14604606030E+03  0.25161579641E+03  0.12500000000E+03 0.  0.
         25    1    1    2    0    0  0.77049866889E+02  0.14289637954E+03  0.37538234585E+02  0.20830308766E+03  0.12500000000E+03 0.  0.
</event>
<event>
 4    0  0.2236434E-002  0.2409425E+03  0.7546771E-02  0.1119167E+00
         21   -1    0    0  502  501  0.00000000000E+00  0.00000000000E+00  0.18760841712E+03  0.18760841712E+03  0.00000000000E+00 0. -1.
         21   -1    0    0  501  502 -0.00000000000E+00 -0.00000000000E+00 -0.30943869484E+03  0.30943869484E+03  0.00000000000E+00 0. -1.
         25    1    1    2    0    0 -0.13857860516E+03  0.13355848664E+03 -0.13661648010E+03  0.26707856858E+03  0.12500000000E+03 0.  0.
         25    1    1    2    0    0  0.13857860516E+03 -0.13355848664E+03  0.14786202378E+02  0.22996854337E+03  0.12500000000E+03 0.  0.
</event>
<event>
 4    0  0.2236434E-002  0.1849500E+03  0.7546771E-02  0.1163097E+00
         21   -1    0    0  502  501  0.00000000000E+00  0.00000000000E+00  0.12971032393E+04  0.12971032393E+04  0.00000000000E+00 0. -1.
         21   -1    0    0  501  502 -0.00000000000E+00 -0.00000000000E+00 -0.26371465492E+02  0.26371465492E+02  0.00000000000E+00 0. -1.
         25    1    1    2    0    0 -0.14947559520E+02  0.78683930272E+02  0.24070723950E+03  0.28280658685E+03  0.12500000000E+03 0.  0.
         25    1    1    2    0    0  0.14947559520E+02 -0.78683930272E+02  0.10300245343E+04  0.10406681179E+04  0.12500000000E+03 0.  0.
</event>
<event>
 4    0  0.2236434E-002  0.1801412E+03  0.7546771E-02  0.1167666E+00
         21   -1    0    0  502  501  0.00000000000E+00  0.00000000000E+00  0.61291512001E+03  0.61291512001E+03  0.00000000000E+00 0.  1.
         21   -1    0    0  501  502 -0.00000000000E+00 -0.00000000000E+00 -0.52945079975E+02  0.52945079975E+02  0.00000000000E+00 0.  1.
         25    1    1    2    0    0 -0.49506617512E+02 -0.82672478728E+02  0.44046889814E+03  0.46789260963E+03  0.12500000000E+03 0.  0.
         25    1    1    2    0    0  0.49506617512E+02  0.82672478728E+02  0.11950114189E+03  0.19796759035E+03  0.12500000000E+03 0.  0.
</event>
<event>
 4    0  0.2236434E-002  0.1846077E+03  0.7546771E-02  0.1163417E+00
         21   -1    0    0  502  501  0.00000000000E+00  0.00000000000E+00  0.44949238775E+02  0.44949238775E+02  0.00000000000E+00 0. -1.
         21   -1    0    0  501  502 -0.00000000000E+00 -0.00000000000E+00 -0.75818893709E+03  0.75818893709E+03  0.00000000000E+00 0. -1.
         25    1    1    2    0    0  0.85140332432E+02 -0.10126210230E+03 -0.42374072186E+03  0.46117685212E+03  0.12500000000E+03 0.  0.
         25    1    1    2    0    0 -0.85140332432E+02  0.10126210230E+03 -0.28949897645E+03  0.34196132374E+03  0.12500000000E+03 0.  0.
</event>
<event>
 4    0  0.2236434E-002  0.1637279E+03  0.7546771E-02  0.1184551E+00
         21   -1    0    0  502  501  0.00000000000E+00  0.00000000000E+00  0.39725214045E+03  0.39725214045E+03  0.00000000000E+00 0. -1.
         21   -1    0    0  501  502 -0.00000000000E+00 -0.00000000000E+00 -0.67480620949E+02  0.67480620949E+02  0.00000000000E+00 0. -1.
         25    1    1    2    0    0  0.99285645435E+02  0.35844742496E+02  0.15598459993E+03  0.22605017224E+03  0.12500000000E+03 0.  0.
         25    1    1    2    0    0 -0.99285645435E+02 -0.35844742496E+02  0.17378691957E+03  0.23868258916E+03  0.12500000000E+03 0.  0.
</event>
<event>
 4    0  0.2236434E-002  0.2469984E+03  0.7546771E-02  0.1115217E+00
         21   -1    0    0  502  501  0.00000000000E+00  0.00000000000E+00  0.18825057699E+03  0.18825057699E+03  0.00000000000E+00 0.  1.
         21   -1    0    0  501  502 -0.00000000000E+00 -0.00000000000E+00 -0.32407992741E+03  0.32407992741E+03  0.00000000000E+00 0.  1.
         25    1    1    2    0    0  0.13862545431E+03  0.15986064066E+03 -0.93546101584E+02  0.26296067032E+03  0.12500000000E+03 0.  0.
         25    1    1    2    0    0 -0.13862545431E+03 -0.15986064066E+03 -0.42283248834E+02  0.24936983408E+03  0.12500000000E+03 0.  0.
</event>
<event>
 4    0  0.2236434E-002  0.2252413E+03  0.7546771E-02  0.1130035E+00
         21   -1    0    0  502  501  0.00000000000E+00  0.00000000000E+00  0.11502635812E+03  0.11502635812E+03  0.00000000000E+00 0.  1.
         21   -1    0    0  501  502 -0.00000000000E+00 -0.00000000000E+00 -0.44106102079E+03  0.44106102079E+03  0.00000000000E+00 0.  1.
         25    1    1    2    0    0 -0.35600456840E+02  0.79015430560E+02 -0.36808743252E+03  0.39827652300E+03  0.12500000000E+03 0.  0.
         25    1    1    2    0    0  0.35600456840E+02 -0.79015430560E+02  0.42052769841E+02  0.15781085592E+03  0.12500000000E+03 0.  0.
</event>
<event>
 4    0  0.2236434E-002  0.2702373E+03  0.7546771E-02  0.1101144E+00
         21   -1    0    0  502  501  0.00000000000E+00  0.00000000000E+00  0.54806341199E+02  0.54806341199E+02  0.00000000000E+00 0.  1.
         21   -1    0    0  501  502 -0.00000000000E+00 -0.00000000000E+00 -0.13324773849E+04  0.13324773849E+04  0.00000000000E+00 0.  1.
         25    1    1    2    0    0 -0.40908161459E+02 -0.54902459753E+02 -0.49504996472E+02  0.15087578479E+03  0.12500000000E+03 0.  0.
         25    1    1    2    0    0  0.40908161459E+02  0.54902459753E+02 -0.12281660472E+04  0.12364079413E+04  0.12500000000E+03 0.  0.
</event>
<event>
 4    0  0.2236434E-002  0.1851722E+03  0.7546771E-02  0.1162889E+00
         21   -1    0    0  502  501  0.00000000000E+00  0.00000000000E+00  0.15483267341E+03  0.15483267341E+03  0.00000000000E+00 0.  1.
         21   -1    0    0  501  502 -0.00000000000E+00 -0.00000000000E+00 -0.22145672732E+03  0.22145672732E+03  0.00000000000E+00 0.  1.
         25    1    1    2    0    0 -0.12942237617E+03 -0.32326965879E+02 -0.33677110062E+01  0.18284289884E+03  0.12500000000E+03 0.  0.
         25    1    1    2    0    0  0.12942237617E+03  0.32326965879E+02 -0.63256342903E+02  0.19344650189E+03  0.12500000000E+03 0.  0.
</event>
<event>
 4    0  0.2236434E-002  0.2732904E+03  0.7546771E-02  0.1099411E+00
         21   -1    0    0  502  501  0.00000000000E+00  0.00000000000E+00  0.15295433110E+04  0.15295433110E+04  0.00000000000E+00 0.  1.
         21   -1    0    0  501  502 -0.00000000000E+00 -0.00000000000E+00 -0.48830011729E+02  0.48830011729E+02  0.00000000000E+00 0.  1.
         25    1    1    2    0    0 -0.20271397860E+03 -0.24646293334E+02  0.35985366172E+03  0.43222685566E+03  0.12500000000E+03 0.  0.
         25    1    1    2    0    0  0.20271397860E+03  0.24646293334E+02  0.11208596376E+04  0.11461464671E+04  0.12500000000E+03 0.  0.
</event>
<event>
 4    0  0.2236434E-002  0.2044455E+03  0.7546771E-02  0.1146042E+00
         21   -1    0    0  502  501  0.00000000000E+00  0.00000000000E+00  0.78166356674E+02  0.78166356674E+02  0.00000000000E+00 0. -1.
         21   -1    0    0  501  502 -0.00000000000E+00 -0.00000000000E+00 -0.53473066037E+03  0.53473066037E+03  0.00000000000E+00 0. -1.
         25    1    1    2    0    0 -0.15357278190E+03 -0.39631998860E+02 -0.18046542329E+03  0.27082847649E+03  0.12500000000E+03 0.  0.
         25    1    1    2    0    0  0.15357278190E+03  0.39631998860E+02 -0.27609888041E+03  0.34206854055E+03  0.12500000000E+03 0.  0.
</event>
<event>
 4    0  0.2236434E-002  0.1818563E+03  0.7546771E-02  0.1166018E+00
         21   -1    0    0  502  501  0.00000000000E+00  0.00000000000E+00  0.93549549097E+03  0.93549549097E+03  0.00000000000E+00 0. -1.
         21   -1    0    0  501  502 -0.00000000000E+00 -0.00000000000E+00 -0.35352096613E+02  0.35352096613E+02  0.00000000000E+00 0. -1.
         25    1    1    2    0    0  0.16794884562E+01 -0.12949744211E+03  0.51938638178E+03  0.54969047816E+03  0.12500000000E+03 0.  0.
         25    1    1    2    0    0 -0.16794884562E+01  0.12949744211E+03  0.38075701258E+03  0.42115710943E+03  0.12500000000E+03 0.  0.
</event>
<event>
 4    0  0.2236434E-002  0.1872467E+03  0.7546771E-02  0.1160968E+00
         21   -1    0    0  502  501  0.00000000000E+00  0.00000000000E+00  0.21951603736E+03  0.21951603736E+03  0.00000000000E+00 0.  1.
         21   -1    0    0  501  502 -0.00000000000E+00 -0.00000000000E+00 -0.15972095593E+03  0.15972095593E+03  0.00000000000E+00 0.  1.
         25    1    1    2    0    0  0.10347028520E+03 -0.76426765970E+02  0.84329313917E+02  0.19820086695E+03  0.12500000000E+03 0.  0.
         25    1    1    2    0    0 -0.10347028520E+03  0.76426765970E+02 -0.24534232490E+02  0.18103612634E+03  0.12500000000E+03 0.  0.
</event>
<event>
 4    0  0.2236434E-002  0.3905126E+03  0.7546771E-02  0.1047115E+00
         21   -1    0    0  502  501  0.00000000000E+00  0.00000000000E+00  0.70588806720E+03  0.70588806720E+03  0.00000000000E+00 0.  1.
         21   -1    0    0  501  502 -0.00000000000E+00 -0.00000000000E+00 -0.21604002212E+03  0.21604002212E+03  0.00000000000E+00 0.  1.
         25    1    1    2    0    0 -0.11905156482E+02  0.29724055666E+03  0.50456378691E+03  0.59891843880E+03  0.12500000000E+03 0.  0.
         25    1    1    2    0    0  0.11905156482E+02 -0.29724055666E+03 -0.14715741829E+02  0.32300965052E+03  0.12500000000E+03 0.  0.
</event>
<event>
 4    0  0.2236434E-002  0.2300940E+03  0.7546771E-02  0.1126574E+00
         21   -1    0    0  502  501  0.00000000000E+00  0.00000000000E+00  0.41351989442E+02  0.41351989442E+02  0.00000000000E+00 0. -1.
         21   -1    0    0  501  502 -0.00000000000E+00 -0.00000000000E+00 -0.12803074261E+04  0.12803074261E+04  0.00000000000E+00 0. -1.
         25    1    1    2    0    0  0.23247430055E+01 -0.19289874901E+03 -0.64861504206E+03  0.68814373832E+03  0.12500000000E+03 0.  0.
         25    1    1    2    0    0 -0.23247430055E+01  0.19289874901E+03 -0.59034039462E+03  0.63351567725E+03  0.12500000000E+03 0.  0.
</event>
<event>
 4    0  0.2236434E-002  0.1582442E+03  0.7546771E-02  0.1190693E+00
         21   -1    0    0  502  501  0.00000000000E+00  0.00000000000E+00  0.35748503346E+03  0.35748503346E+03  0.00000000000E+00 0.  1.
         21   -1    0    0  501  502 -0.00000000000E+00 -0.00000000000E+00 -0.70048284408E+02  0.70048284408E+02  0.00000000000E+00 0.  1.
         25    1    1    2    0    0  0.15963385516E+02 -0.87514777011E+02  0.19608159872E+03  0.24897120161E+03  0.12500000000E+03 0.  0.
         25    1    1    2    0    0 -0.15963385516E+02  0.87514777011E+02  0.91355150334E+02  0.17856211626E+03  0.12500000000E+03 0.  0.
</event>
<event>
 4    0  0.2236434E-002  0.2137938E+03  0.7546771E-02  0.1138596E+00
         21   -1    0    0  502  501  0.00000000000E+00  0.00000000000E+00  0.15195459544E+03  0.15195459544E+03  0.00000000000E+00 0. -1.
         21   -1    0    0  501  502 -0.00000000000E+00 -0.00000000000E+00 -0.30079889557E+03  0.30079889557E+03  0.00000000000E+00 0. -1.
         25    1    1    2    0    0 -0.11137837144E+02 -0.51086264089E+02  0.10068619283E+03  0.16880926284E+03  0.12500000000E+03 0.  0.
         25    1    1    2    0    0  0.11137837144E+02  0.51086264089E+02 -0.24953049295E+03  0.28394422817E+03  0.12500000000E+03 0.  0.
</event>
<event>
 4    0  0.2236434E-002  0.2192109E+03  0.7546771E-02  0.1134473E+00
         21   -1    0    0  502  501  0.00000000000E+00  0.00000000000E+00  0.26045874141E+03  0.26045874141E+03  0.00000000000E+00 0. -1.
         21   -1    0    0  501  502 -0.00000000000E+00 -0.00000000000E+00 -0.18449526408E+03  0.18449526408E+03  0.00000000000E+00 0. -1.
         25    1    1    2    0    0 -0.13732609336E+01  0.17831731511E+03  0.12519012901E+02  0.21812995301E+03  0.12500000000E+03 0.  0.
         25    1    1    2    0    0  0.13732609336E+01 -0.17831731511E+03  0.63444464426E+02  0.22682405248E+03  0.12500000000E+03 0.  0.
</event>
<event>
 4    0  0.2236434E-002  0.2895631E+03  0.7546771E-02  0.1090577E+00
         21   -1    0    0  502  501  0.00000000000E+00  0.00000000000E+00  0.22023678685E+03  0.22023678685E+03  0.00000000000E+00 0. -1.
         21   -1    0    0  501  502 -0.00000000000E+00 -0.00000000000E+00 -0.38071201954E+03  0.38071201954E+03  0.00000000000E+00 0. -1.
         25    1    1    2    0    0 -0.12097749471E+03  0.48312358227E+02  0.15468255881E+03  0.23774215483E+03  0.12500000000E+03 0.  0.
         25    1    1    2    0    0  0.12097749471E+03 -0.48312358227E+02 -0.31515779151E+03  0.36320665155E+03  0.12500000000E+03 0.  0.
</event>
<event>
 4    0  0.2236434E-002  0.2305376E+03  0.7546771E-02  0.1126262E+00
         21   -1    0    0  502  501  0.00000000000E+00  0.00000000000E+00  0.76562044527E+02  0.76562044527E+02  0.00000000000E+00 0.  1.
         21   -1    0    0  501  502 -0.00000000000E+00 -0.00000000000E+00 -0.69417648153E+03  0.69417648153E+03  0.00000000000E+00 0.  1.
         25    1    1    2    0    0 -0.18076926826E+03  0.69382447429E+02 -0.29948233300E+03  0.37789697027E+03  0.12500000000E+03 0.  0.
         25    1    1    2    0    0  0.18076926826E+03 -0.69382447429E+02 -0.31813210400E+03  0.39284155579E+03  0.12500000000E+03 0.  0.
</event>
<event>
 4    0  0.2236434E-002  0.2761203E+03  0.7546771E-02  0.1097827E+00
         21   -1    0    0  502  501  0.00000000000E+00  0.00000000000E+00  0.70907380159E+03  0.70907380159E+03  0.00000000000E+00 0.  1.
         21   -1    0    0  501  502 -0.00000000000E+00 -0.00000000000E+00 -0.10752398929E+03  0.10752398929E+03  0.00000000000E+00 0.  1.
         25    1    1    2    0    0 -0.76917187278E+02  0.89357220484E+02  0.62038084760E+03  0.64373780580E+03  0.12500000000E+03 0.  0.
         25    1    1    2    0    0  0.76917187278E+02 -0.89357220484E+02 -0.18831035305E+02  0.17285998508E+03  0.12500000000E+03 0.  0.
</event>
<event>
 4    0  0.2236434E-002  0.1748566E+03  0.7546771E-02  0.1172876E+00
         21   -1    0    0  502  501  0.00000000000E+00  0.00000000000E+00  0.58853186198E+02  0.58853186198E+02  0.00000000000E+00 0.  1.
         21   -1    0    0  501  502 -0.00000000000E+00 -0.00000000000E+00 -0.51951023775E+03  0.51951023775E+03  0.00000000000E+00 0.  1.
         25    1    1    2    0    0 -0.52982443342E+02  0.10521702338E+03 -0.28447879784E+03  0.33231152212E+03  0.12500000000E+03 0.  0.
         25    1    1    2    0    0  0.52982443342E+02 -0.10521702338E+03 -0.17617825371E+03  0.24605190183E+03  0.12500000000E+03 0.  0.
</event>
<event>
 4    0  0.2236434E-002  0.2064480E+03  0.7546771E-02  0.1144410E+00
         21   -1    0    0  502  501  0.00000000000E+00  0.00000000000E+00  0.82964033994E+03  0.82964033994E+03  0.00000000000E+00 0. -1.
         21   -1    0    0  501  502 -0.00000000000E+00 -0.00000000000E+00 -0.51372590459E+02  0.51372590459E+02  0.00000000000E+00 0. -1.
         25    1    1    2    0    0  0.15190733241E+03 -0.61530180666E+02  0.36443656311E+03  0.41868939478E+03  0.12500000000E+03 0.  0.
         25    1    1    2    0    0 -0.15190733241E+03  0.61530180666E+02  0.41383118636E+03  0.46232353561E+03  0.12500000000E+03 0.  0.
</event>
<event>
 4    0  0.2236434E-002  0.2800104E+03  0.7546771E-02  0.1095683E+00
         21   -1    0    0  502  501  0.00000000000E+00  0.00000000000E+00  0.15248850757E+03  0.15248850757E+03  0.00000000000E+00 0. -1.
         21   -1    0    0  501  502 -0.00000000000E+00 -0.00000000000E+00 -0.51417521328E+03  0.51417521328E+03  0.00000000000E+00 0. -1.
         25    1    1    2    0    0 -0.14030011636E+03  0.14364525341E+02  0.65693864145E+02  0.19957741862E+03  0.12500000000E+03 0.  0.
         25    1    1    2    0    0  0.14030011636E+03 -0.14364525341E+02 -0.42738056985E+03  0.46708630222E+03  0.12500000000E+03 0.  0.
</event>
<event>
 4    0  0.2236434E-002  0.3524747E+03  0.7546771E-02  0.1061604E+00
         21   -1    0    0  502  501  0.00000000000E+00  0.00000000000E+00  0.15130125447E+03  0.15130125447E+03  0.00000000000E+00 0. -1.
         21   -1    0    0  501  502 -0.00000000000E+00 -0.00000000000E+00 -0.82113262582E+03  0.82113262582E+03  0.00000000000E+00 0. -1.
         25    1    1    2    0    0  0.12294769636E+03  0.23589268465E+03 -0.66538237647E+02  0.30135333378E+03  0.12500000000E+03 0.  0.
         25    1    1    2    0    0 -0.12294769636E+03 -0.23589268465E+03 -0.60329313371E+03  0.67108054650E+03  0.12500000000E+03 0.  0.
</event>
<event>
 4    0  0.2236434E-002  0.2832962E+03  0.7546771E-02  0.1093902E+00
         21   -1    0    0  502  501  0.00000000000E+00  0.00000000000E+00  0.76460865236E+03  0.76460865236E+03  0.00000000000E+00 0. -1.
         21   -1    0    0  501  502 -0.00000000000E+00 -0.00000000000E+00 -0.10496447336E+03  0.10496447336E+03  0.00000000000E+00 0. -1.
         25    1    1    2    0    0  0.15553392489E+03 -0.19807178562E+03  0.38317529935E+03  0.47525944922E+03  0.12500000000E+03 0.  0.
         25    1    1    2    0    0 -0.15553392489E+03  0.19807178562E+03  0.27646887966E+03  0.39431367649E+03  0.12500000000E+03 0.  0.
</event>
<event>
 4    0  0.2236434E-002  0.2393224E+03  0.7546771E-02  0.1120245E+00
         21   -1    0    0  502  501  0.00000000000E+00  0.00000000000E+00  0.14221451420E+03  0.14221451420E+03  0.00000000000E+00 0.  1.
         21   -1    0    0  501  502 -0.00000000000E+00 -0.00000000000E+00 -0.40273826572E+03  0.40273826572E+03  0.00000000000E+00 0.  1.
         25    1    1    2    0    0  0.35788511626E+02 -0.19025073168E+03 -0.56704666218E+02  0.23731114099E+03  0.12500000000E+03 0.  0.
         25    1    1    2    0    0 -0.35788511626E+02  0.19025073168E+03 -0.20381908530E+03  0.30764163893E+03  0.12500000000E+03 0.  0.
</event>
<event>
 4    0  0.2236434E-002  0.2208479E+03  0.7546771E-02  0.1133252E+00
         21   -1    0    0  502  501  0.00000000000E+00  0.00000000000E+00  0.46579902927E+03  0.46579902927E+03  0.00000000000E+00 0.  1.
         21   -1    0    0  501  502 -0.00000000000E+00 -0.00000000000E+00 -0.10470996998E+03  0.10470996998E+03  0.00000000000E+00 0.  1.
         25    1    1    2    0    0 -0.27015735788E+02  0.13461354479E+03  0.33499138123E+03  0.38300767867E+03  0.12500000000E+03 0.  0.
         25    1    1    2    0    0  0.27015735788E+02 -0.13461354479E+03  0.26097678060E+02  0.18750132058E+03  0.12500000000E+03 0.  0.
</event>
<event>
 4    0  0.2236434E-002  0.3061931E+03  0.7546771E-02  0.1082185E+00
         21   -1    0    0  502  501  0.00000000000E+00  0.00000000000E+00  0.30781163619E+03  0.30781163619E+03  0.00000000000E+00 0. -1.
         21   -1    0    0  501  502 -0.00000000000E+00 -0.00000000000E+00 -0.30458307376E+03  0.30458307376E+03  0.00000000000E+00 0. -1.
         25    1    1    2    0    0 -0.76202829085E+02  0.17245527891E+03  0.20797005036E+03  0.30728526849E+03  0.12500000000E+03 0.  0.
         25    1    1    2    0    0  0.76202829085E+02 -0.17245527891E+03 -0.20474148792E+03  0.30510944145E+03  0.12500000000E+03 0.  0.
</event>
<event>
 4    0  0.2236434E-002  0.4384446E+03  0.7546771E-02  0.1031225E+00
         21   -1    0    0  502  501  0.00000000000E+00  0.00000000000E+00  0.55720342585E+03  0.55720342585E+03  0.00000000000E+00 0. -1.
         21   -1    0    0  501  502 -0.00000000000E+00 -0.00000000000E+00 -0.34499727081E+03  0.34499727081E+03  0.00000000000E+00 0.  1.
         25    1    1    2    0    0 -0.40047850482E+03  0.10223245540E+03  0.18428432648E+03  0.46948931910E+03  0.12500000000E+03 0.  0.
         25    1    1    2    0    0  0.40047850482E+03 -0.10223245540E+03  0.27921828550E+02  0.43271137756E+03  0.12500000000E+03 0.  0.
</event>
<event>
 4    0  0.2236434E-002  0.1815663E+03  0.7546771E-02  0.1166296E+00
         21   -1    0    0  502  501  0.00000000000E+00  0.00000000000E+00  0.12023982261E+03  0.12023982261E+03  0.00000000000E+00 0.  1.
         21   -1    0    0  501  502 -0.00000000000E+00 -0.00000000000E+00 -0.27417143567E+03  0.27417143567E+03  0.00000000000E+00 0.  1.
         25    1    1    2    0    0 -0.10828254366E+03  0.34160570372E+02 -0.14941415146E+03  0.22548091379E+03  0.12500000000E+03 0.  0.
         25    1    1    2    0    0  0.10828254366E+03 -0.34160570372E+02 -0.45174616025E+01  0.16893034449E+03  0.12500000000E+03 0.  0.
</event>
<event>
 4    0  0.2236434E-002  0.1980881E+03  0.7546771E-02  0.1151362E+00
         21   -1    0    0  502  501  0.00000000000E+00  0.00000000000E+00  0.26701497095E+02  0.26701497095E+02  0.00000000000E+00 0. -1.
         21   -1    0    0  501  502 -0.00000000000E+00 -0.00000000000E+00 -0.14695387937E+04  0.14695387937E+04  0.00000000000E+00 0. -1.
         25    1    1    2    0    0 -0.17677508427E+02 -0.12502278182E+03 -0.10521919048E+04  0.10670876229E+04  0.12500000000E+03 0.  0.
         25    1    1    2    0    0  0.17677508427E+02  0.12502278182E+03 -0.39064539179E+03  0.42915266795E+03  0.12500000000E+03 0.  0.
</event>
<event>
 4    0  0.2236434E-002  0.1810467E+03  0.7546771E-02  0.1166794E+00
         21   -1    0    0  502  501  0.00000000000E+00  0.00000000000E+00  0.21665539469E+02  0.21665539469E+02  0.00000000000E+00 0.  1.
         21   -1    0    0  501  502 -0.00000000000E+00 -0.00000000000E+00 -0.15129044213E+04  0.15129044213E+04  0.00000000000E+00 0.  1.
         25    1    1    2    0    0 -0.11795823096E+03 -0.27102561991E+02 -0.95769981067E+03  0.97337691593E+03  0.12500000000E+03 0.  0.
         25    1    1    2    0    0  0.11795823096E+03  0.27102561991E+02 -0.53353907121E+03  0.56119304488E+03  0.12500000000E+03 0.  0.
</event>
<event>
 4    0  0.2236434E-002  0.1771133E+03  0.7546771E-02  0.1170626E+00
         21   -1    0    0  502  501  0.00000000000E+00  0.00000000000E+00  0.43149009343E+02  0.43149009343E+02  0.00000000000E+00 0.  1.
         21   -1    0    0  501  502 -0.00000000000E+00 -0.00000000000E+00 -0.72699554176E+03  0.72699554176E+03  0.00000000000E+00 0.  1.
         25    1    1    2    0    0 -0.92605066831E+02 -0.53836095561E+02 -0.19985054808E+03  0.25891941827E+03  0.12500000000E+03 0.  0.
         25    1    1    2    0    0  0.92605066831E+02  0.53836095561E+02 -0.48399598434E+03  0.51122513284E+03  0.12500000000E+03 0.  0.
</event>
<event>
 4    0  0.2236434E-002  0.2246331E+03  0.7546771E-02  0.1130475E+00
         21   -1    0    0  502  501  0.00000000000E+00  0.00000000000E+00  0.39843928229E+03  0.39843928229E+03  0.00000000000E+00 0. -1.
         21   -1    0    0  501  502 -0.00000000000E+00 -0.00000000000E+00 -0.12664423109E+03  0.12664423109E+03  0.00000000000E+00 0. -1.
         25    1    1    2    0    0 -0.72969829064E+01  0.10169669563E+03 -0.46816299884E+02  0.16796496598E+03  0.12500000000E+03 0.  0.
         25    1    1    2    0    0  0.72969829064E+01 -0.10169669563E+03  0.31861135108E+03  0.35711854741E+03  0.12500000000E+03 0.  0.
</event>
<event>
 4    0  0.2236434E-002  0.2292124E+03  0.7546771E-02  0.1127195E+00
         21   -1    0    0  502  501  0.00000000000E+00  0.00000000000E+00  0.42658047475E+02  0.42658047475E+02  0.00000000000E+00 0. -1.
         21   -1    0    0  501  502 -0.00000000000E+00 -0.00000000000E+00 -0.12316152926E+04  0.12316152926E+04  0.00000000000E+00 0. -1.
         25    1    1    2    0    0  0.73494026788E+02 -0.17531637170E+03 -0.51704067585E+03  0.56488340624E+03  0.12500000000E+03 0.  0.
         25    1    1    2    0    0 -0.73494026788E+02  0.17531637170E+03 -0.67191656924E+03  0.70938993380E+03  0.12500000000E+03 0.  0.
</event>
<event>
 4    0  0.2236434E-002  0.1954111E+03  0.7546771E-02  0.1153669E+00
         21   -1    0    0  502  501  0.00000000000E+00  0.00000000000E+00  0.98426666125E+02  0.98426666125E+02  0.00000000000E+00 0. -1.
         21   -1    0    0  501  502 -0.00000000000E+00 -0.00000000000E+00 -0.38795897861E+03  0.38795897861E+03  0.00000000000E+00 0. -1.
         25    1    1    2    0    0  0.12691974215E+02 -0.37686921247E+02 -0.32502437739E+03  0.35049570061E+03  0.12500000000E+03 0.  0.
         25    1    1    2    0    0 -0.12691974215E+02  0.37686921247E+02  0.35492064913E+02  0.13588994413E+03  0.12500000000E+03 0.  0.
</event>
<event>
 4    0  0.2236434E-002  0.1468852E+03  0.7546771E-02  0.1204353E+00
         21   -1    0    0  502  501  0.00000000000E+00  0.00000000000E+00  0.13739713121E+03  0.13739713121E+03  0.00000000000E+00 0.  1.
         21   -1    0    0  501  502 -0.00000000000E+00 -0.00000000000E+00 -0.15702857174E+03  0.15702857174E+03  0.00000000000E+00 0.  1.
         25    1    1    2    0    0 -0.11262619303E+02  0.61260557477E+02 -0.55420756202E+02  0.15025366123E+03  0.12500000000E+03 0.  0.
         25    1    1    2    0    0  0.11262619303E+02 -0.61260557477E+02  0.35789315675E+02  0.14417204172E+03  0.12500000000E+03 0.  0.
</event>
<event>
 4    0  0.2236434E-002  0.3244188E+03  0.7546771E-02  0.1073633E+00
         21   -1    0    0  502  501  0.00000000000E+00  0.00000000000E+00  0.10522165021E+03  0.10522165021E+03  0.00000000000E+00 0.  1.
         21   -1    0    0  501  502 -0.00000000000E+00 -0.00000000000E+00 -0.10002461320E+04  0.10002461320E+04  0.00000000000E+00 0.  1.
         25    1    1    2    0    0 -0.15806948951E+03  0.10817299310E+03 -0.83950886993E+03  0.87010775347E+03  0.12500000000E+03 0.  0.
         25    1    1    2    0    0  0.15806948951E+03 -0.10817299310E+03 -0.55515611807E+02  0.23536002869E+03  0.12500000000E+03 0.  0.
</event>
<event>
 4    0  0.2236434E-002  0.2485598E+03  0.7546771E-02  0.1114218E+00
         21   -1    0    0  502  501  0.00000000000E+00  0.00000000000E+00  0.52015661685E+03  0.52015661685E+03  0.00000000000E+00 0. -1.
         21   -1    0    0  501  502 -0.00000000000E+00 -0.00000000000E+00 -0.11877571902E+03  0.11877571902E+03  0.00000000000E+00 0. -1.
         25    1    1    2    0    0 -0.88451703644E+02 -0.98766775290E+02  0.41796702174E+03  0.45596053672E+03  0.12500000000E+03 0.  0.
         25    1    1    2    0    0  0.88451703644E+02  0.98766775290E+02 -0.16586123908E+02  0.18297179915E+03  0.12500000000E+03 0.  0.
</event>
<event>
 4    0  0.2236434E-002  0.3517454E+03  0.7546771E-02  0.1061901E+00
         21   -1    0    0  502  501  0.00000000000E+00  0.00000000000E+00  0.53851847715E+03  0.53851847715E+03  0.00000000000E+00 0. -1.
         21   -1    0    0  501  502 -0.00000000000E+00 -0.00000000000E+00 -0.22975040608E+03  0.22975040608E+03  0.00000000000E+00 0. -1.
         25    1    1    2    0    0  0.15763297308E+03  0.17553845154E+03 -0.95695179096E+02  0.28362734260E+03  0.12500000000E+03 0.  0.
         25    1    1    2    0    0 -0.15763297308E+03 -0.17553845154E+03  0.40446325016E+03  0.48464154063E+03  0.12500000000E+03 0.  0.
</event>
<event>
 4    0  0.2236434E-002  0.2957872E+03  0.7546771E-02  0.1087366E+00
         21   -1    0    0  502  501  0.00000000000E+00  0.00000000000E+00  0.15693406490E+04  0.15693406490E+04  0.00000000000E+00 0. -1.
         21   -1    0    0  501  502 -0.00000000000E+00 -0.00000000000E+00 -0.55749563172E+02  0.55749563172E+02  0.00000000000E+00 0. -1.
         25    1    1    2    0    0  0.12511262659E+03 -0.10494381554E+03  0.17277110852E+03  0.26859119436E+03  0.12500000000E+03 0.  0.
         25    1    1    2    0    0 -0.12511262659E+03  0.10494381554E+03  0.13408199773E+04  0.13564990178E+04  0.12500000000E+03 0.  0.
</event>
<event>
 4    0  0.2236434E-002  0.2040369E+03  0.7546771E-02  0.1146377E+00
         21   -1    0    0  502  501  0.00000000000E+00  0.00000000000E+00  0.11504082378E+03  0.11504082378E+03  0.00000000000E+00 0.  1.
         21   -1    0    0  501  502 -0.00000000000E+00 -0.00000000000E+00 -0.36188062418E+03  0.36188062418E+03  0.00000000000E+00 0.  1.
         25    1    1    2    0    0  0.53042807822E+02 -0.19099646798E+02  0.53159227284E+02  0.14706882544E+03  0.12500000000E+03 0.  0.
         25    1    1    2    0    0 -0.53042807822E+02  0.19099646798E+02 -0.29999902769E+03  0.32985262252E+03  0.12500000000E+03 0.  0.
</event>
<event>
 4    0  0.2236434E-002  0.1321896E+03  0.7546771E-02  0.1224242E+00
         21   -1    0    0  502  501  0.00000000000E+00  0.00000000000E+00  0.10476986642E+03  0.10476986642E+03  0.00000000000E+00 0.  1.
         21   -1    0    0  501  502 -0.00000000000E+00 -0.00000000000E+00 -0.16678557802E+03  0.16678557802E+03  0.00000000000E+00 0.  1.
         25    1    1    2    0    0 -0.37968755262E+02  0.14093004267E+02 -0.16163462897E+02  0.13238767570E+03  0.12500000000E+03 0.  0.
         25    1    1    2    0    0  0.37968755262E+02 -0.14093004267E+02 -0.45852248706E+02  0.13916776874E+03  0.12500000000E+03 0.  0.
</event>
<event>
 4    0  0.2236434E-002  0.2197018E+03  0.7546771E-02  0.1134106E+00
         21   -1    0    0  502  501  0.00000000000E+00  0.00000000000E+00  0.66458895146E+03  0.66458895146E+03  0.00000000000E+00 0. -1.
         21   -1    0    0  501  502 -0.00000000000E+00 -0.00000000000E+00 -0.72629687228E+02  0.72629687228E+02  0.00000000000E+00 0. -1.
         25    1    1    2    0    0 -0.73771926745E+02 -0.12963274157E+03  0.46705421638E+03  0.50597587482E+03  0.12500000000E+03 0.  0.
         25    1    1    2    0    0  0.73771926745E+02  0.12963274157E+03  0.12490504785E+03  0.23124276387E+03  0.12500000000E+03 0.  0.
</event>
<event>
 4    0  0.2236434E-002  0.1935428E+03  0.7546771E-02  0.1155304E+00
         21   -1    0    0  502  501  0.00000000000E+00  0.00000000000E+00  0.56144893959E+03  0.56144893959E+03  0.00000000000E+00 0.  1.
         21   -1    0    0  501  502 -0.00000000000E+00 -0.00000000000E+00 -0.66718148345E+02  0.66718148345E+02  0.00000000000E+00 0.  1.
         25    1    1    2    0    0 -0.14249189750E+03  0.13503777507E+02  0.30693696150E+03  0.36100081883E+03  0.12500000000E+03 0.  0.
         25    1    1    2    0    0  0.14249189750E+03 -0.13503777507E+02  0.18779382975E+03  0.26716626911E+03  0.12500000000E+03 0.  0.
</event>
<event>
 4    0  0.2236434E-002  0.2379546E+03  0.7546771E-02  0.1121163E+00
         21   -1    0    0  502  501  0.00000000000E+00  0.00000000000E+00  0.20499334084E+03  0.20499334084E+03  0.00000000000E+00 0. -1.
         21   -1    0    0  501  502 -0.00000000000E+00 -0.00000000000E+00 -0.27621583588E+03  0.27621583588E+03  0.00000000000E+00 0. -1.
         25    1    1    2    0    0  0.39128844265E+02  0.99709328394E+02  0.13812891004E+03  0.21488976805E+03  0.12500000000E+03 0.  0.
         25    1    1    2    0    0 -0.39128844265E+02 -0.99709328394E+02 -0.20935140508E+03  0.26631940867E+03  0.12500000000E+03 0.  0.
</event>
<event>
 4    0  0.2236434E-002  0.2437866E+03  0.7546771E-02  0.1117296E+00
         21   -1    0    0  502  501  0.00000000000E+00  0.00000000000E+00  0.54464939057E+03  0.54464939057E+03  0.00000000000E+00 0.  1.
         21   -1    0    0  501  502 -0.00000000000E+00 -0.00000000000E+00 -0.10911960660E+03  0.10911960660E+03  0.00000000000E+00 0.  1.
         25    1    1    2    0    0  0.47724840329E+02  0.13192568075E+03  0.42603023918E+03  0.46562732987E+03  0.12500000000E+03 0.  0.
         25    1    1    2    0    0 -0.47724840329E+02 -0.13192568075E+03  0.94995447911E+01  0.18814166730E+03  0.12500000000E+03 0.  0.
</event>
<event>
 4    0  0.2236434E-002  0.3174143E+03  0.7546771E-02  0.1076846E+00
         21   -1    0    0  502  501  0.00000000000E+00  0.00000000000E+00  0.22764419858E+03  0.22764419858E+03  0.00000000000E+00 0. -1.
         21   -1    0    0  501  502 -0.00000000000E+00 -0.00000000000E+00 -0.44258456034E+03  0.44258456034E+03  0.00000000000E+00 0. -1.
         25    1    1    2    0    0  0.19675149638E+03 -0.41352403815E+02 -0.33069772116E+03  0.40670278510E+03  0.12500000000E+03 0.  0.
         25    1    1    2    0    0 -0.19675149638E+03  0.41352403815E+02  0.11575735939E+03  0.26352597383E+03  0.12500000000E+03 0.  0.
</event>
<event>
 4    0  0.2236434E-002  0.1655774E+03  0.7546771E-02  0.1182540E+00
         21   -1    0    0  502  501  0.00000000000E+00  0.00000000000E+00  0.49649796722E+02  0.49649796722E+02  0.00000000000E+00 0.  1.
         21   -1    0    0  501  502 -0.00000000000E+00 -0.00000000000E+00 -0.55218505047E+03  0.55218505047E+03  0.00000000000E+00 0.  1.
         25    1    1    2    0    0  0.37936938562E+02 -0.73065255075E+02 -0.12259064214E+03  0.19347146649E+03  0.12500000000E+03 0.  0.
         25    1    1    2    0    0 -0.37936938562E+02  0.73065255075E+02 -0.37994461161E+03  0.40836338070E+03  0.12500000000E+03 0.  0.
</event>
<event>
 4    0  0.2236434E-002  0.2147604E+03  0.7546771E-02  0.1137851E+00
         21   -1    0    0  502  501  0.00000000000E+00  0.00000000000E+00  0.11124446935E+04  0.11124446935E+04  0.00000000000E+00 0. -1.
         21   -1    0    0  501  502 -0.00000000000E+00 -0.00000000000E+00 -0.41460082933E+02  0.41460082933E+02  0.00000000000E+00 0. -1.
         25    1    1    2    0    0  0.97128804368E+02  0.11018132990E+03  0.78926449313E+03  0.81248838158E+03  0.12500000000E+03 0.  0.
         25    1    1    2    0    0 -0.97128804368E+02 -0.11018132990E+03  0.28172011741E+03  0.34141639481E+03  0.12500000000E+03 0.  0.
</event>
<event>
 4    0  0.2236434E-002  0.1834019E+03  0.7546771E-02  0.1164551E+00
         21   -1    0    0  502  501  0.00000000000E+00  0.00000000000E+00  0.17264085561E+03  0.17264085561E+03  0.00000000000E+00 0.  1.
         21   -1    0    0  501  502 -0.00000000000E+00 -0.00000000000E+00 -0.19483373589E+03  0.19483373589E+03  0.00000000000E+00 0.  1.
         25    1    1    2    0    0  0.88960146563E+02 -0.35927648845E+02 -0.10511131701E+03  0.18941513295E+03  0.12500000000E+03 0.  0.
         25    1    1    2    0    0 -0.88960146563E+02  0.35927648845E+02  0.82918436734E+02  0.17805945855E+03  0.12500000000E+03 0.  0.
</event>
<event>
 4    0  0.2236434E-002  0.1835479E+03  0.7546771E-02  0.1164413E+00
         21   -1    0    0  502  501  0.00000000000E+00  0.00000000000E+00  0.44068561797E+02  0.44068561797E+02  0.00000000000E+00 0.  1.
         21   -1    0    0  501  502 -0.00000000000E+00 -0.00000000000E+00 -0.76448686163E+03  0.76448686163E+03  0.00000000000E+00 0.  1.
         25    1    1    2    0    0 -0.86632029467E+02 -0.10125436553E+03 -0.32159926479E+03  0.36987652288E+03  0.12500000000E+03 0.  0.
         25    1    1    2    0    0  0.86632029467E+02  0.10125436553E+03 -0.39881903505E+03  0.43867890055E+03  0.12500000000E+03 0.  0.
</event>
<event>
 4    0  0.2236434E-002  0.2769802E+03  0.7546771E-02  0.1097350E+00
         21   -1    0    0  502  501  0.00000000000E+00  0.00000000000E+00  0.52244732556E+02  0.52244732556E+02  0.00000000000E+00 0. -1.
         21   -1    0    0  501  502 -0.00000000000E+00 -0.00000000000E+00 -0.14684353819E+04  0.14684353819E+04  0.00000000000E+00 0. -1.
         25    1    1    2    0    0 -0.15472779656E+02  0.17428909493E+03 -0.11873261234E+04  0.12066417940E+04  0.12500000000E+03 0.  0.
         25    1    1    2    0    0  0.15472779656E+02 -0.17428909493E+03 -0.22886452588E+03  0.31403832048E+03  0.12500000000E+03 0.  0.
</event>
<event>
 4    0  0.2236434E-002  0.2058577E+03  0.7546771E-02  0.1144889E+00
         21   -1    0    0  502  501  0.00000000000E+00  0.00000000000E+00  0.96877357914E+02  0.96877357914E+02  0.00000000000E+00 0.  1.
         21   -1    0    0  501  502 -0.00000000000E+00 -0.00000000000E+00 -0.43743360764E+03  0.43743360764E+03  0.00000000000E+00 0.  1.
         25    1    1    2    0    0  0.12974948023E+03  0.40943866475E+01 -0.41147195523E+02  0.18485070549E+03  0.12500000000E+03 0.  0.
         25    1    1    2    0    0 -0.12974948023E+03 -0.40943866475E+01 -0.29940905420E+03  0.34946026006E+03  0.12500000000E+03 0.  0.
</event>
<event>
 4    0  0.2236434E-002  0.3546159E+03  0.7546771E-02  0.1060736E+00
         21   -1    0    0  502  501  0.00000000000E+00  0.00000000000E+00  0.10406533636E+03  0.10406533636E+03  0.00000000000E+00 0.  1.
         21   -1    0    0  501  502 -0.00000000000E+00 -0.00000000000E+00 -0.12083991931E+04  0.12083991931E+04  0.00000000000E+00 0.  1.
         25    1    1    2    0    0  0.12156878805E+02  0.28940806016E+03 -0.25250081296E+03  0.40408721278E+03  0.12500000000E+03 0.  0.
         25    1    1    2    0    0 -0.12156878805E+02 -0.28940806016E+03 -0.85183304378E+03  0.90837731668E+03  0.12500000000E+03 0.  0.
</event>
<event>
 4    0  0.2236434E-002  0.1916946E+03  0.7546771E-02  0.1156942E+00
         21   -1    0    0  502  501  0.00000000000E+00  0.00000000000E+00  0.75501377860E+02  0.75501377860E+02  0.00000000000E+00 0. -1.
         21   -1    0    0  501  502 -0.00000000000E+00 -0.00000000000E+00 -0.48670372107E+03  0.48670372107E+03  0.00000000000E+00 0. -1.
         25    1    1    2    0    0 -0.94690489826E+02  0.10664973359E+02 -0.44684813494E+02  0.16340674122E+03  0.12500000000E+03 0.  0.
         25    1    1    2    0    0  0.94690489826E+02 -0.10664973359E+02 -0.36651752971E+03  0.39879835770E+03  0.12500000000E+03 0.  0.
</event>
<event>
 4    0  0.2236434E-002  0.2837136E+03  0.7546771E-02  0.1093678E+00
         21   -1    0    0  502  501  0.00000000000E+00  0.00000000000E+00  0.77662722864E+03  0.77662722864E+03  0.00000000000E+00 0. -1.
         21   -1    0    0  501  502 -0.00000000000E+00 -0.00000000000E+00 -0.10364483458E+03  0.10364483458E+03  0.00000000000E+00 0.  1.
         25    1    1    2    0    0 -0.17557163349E+03  0.17481174196E+03  0.24492462668E+03  0.37013189050E+03  0.12500000000E+03 0.  0.
         25    1    1    2    0    0  0.17557163349E+03 -0.17481174196E+03  0.42805776738E+03  0.51014017272E+03  0.12500000000E+03 0.  0.
</event>
<event>
 4    0  0.2236434E-002  0.2060255E+03  0.7546771E-02  0.1144753E+00
         21   -1    0    0  502  501  0.00000000000E+00  0.00000000000E+00  0.57347843163E+03  0.57347843163E+03  0.00000000000E+00 0. -1.
         21   -1    0    0  501  502 -0.00000000000E+00 -0.00000000000E+00 -0.74015861089E+02  0.74015861089E+02  0.00000000000E+00 0. -1.
         25    1    1    2    0    0  0.83850364618E+02 -0.82821526447E+02  0.71039492321E+02  0.18590830632E+03  0.12500000000E+03 0.  0.
         25    1    1    2    0    0 -0.83850364618E+02  0.82821526447E+02  0.42842307822E+03  0.46158598640E+03  0.12500000000E+03 0.  0.
</event>
<event>
 4    0  0.2236434E-002  0.2105019E+03  0.7546771E-02  0.1141169E+00
         21   -1    0    0  502  501  0.00000000000E+00  0.00000000000E+00  0.80618199192E+02  0.80618199192E+02  0.00000000000E+00 0. -1.
         21   -1    0    0  501  502 -0.00000000000E+00 -0.00000000000E+00 -0.54964103932E+03  0.54964103932E+03  0.00000000000E+00 0. -1.
         25    1    1    2    0    0 -0.15058801218E+02 -0.76680401407E+02 -0.45946322743E+03  0.48253301318E+03  0.12500000000E+03 0.  0.
         25    1    1    2    0    0  0.15058801218E+02  0.76680401407E+02 -0.95596126966E+01  0.14772622533E+03  0.12500000000E+03 0.  0.
</event>
<event>
 4    0  0.2236434E-002  0.2235285E+03  0.7546771E-02  0.1131279E+00
         21   -1    0    0  502  501  0.00000000000E+00  0.00000000000E+00  0.23697663586E+03  0.23697663586E+03  0.00000000000E+00 0. -1.
         21   -1    0    0  501  502 -0.00000000000E+00 -0.00000000000E+00 -0.21084347094E+03  0.21084347094E+03  0.00000000000E+00 0. -1.
         25    1    1    2    0    0  0.84351072764E+02 -0.13969880713E+03  0.10101804128E+03  0.22904258306E+03  0.12500000000E+03 0.  0.
         25    1    1    2    0    0 -0.84351072764E+02  0.13969880713E+03 -0.74884876348E+02  0.21877752374E+03  0.12500000000E+03 0.  0.
</event>
<event>
 4    0  0.2236434E-002  0.3619631E+03  0.7546771E-02  0.1057809E+00
         21   -1    0    0  502  501  0.00000000000E+00  0.00000000000E+00  0.27480037636E+03  0.27480037636E+03  0.00000000000E+00 0. -1.
         21   -1    0    0  501  502 -0.00000000000E+00 -0.00000000000E+00 -0.47677259049E+03  0.47677259049E+03  0.00000000000E+00 0. -1.
         25    1    1    2    0    0 -0.40533068059E+01  0.33582809244E+03 -0.15387626311E+03  0.38999979656E+03  0.12500000000E+03 0.  0.
         25    1    1    2    0    0  0.40533068059E+01 -0.33582809244E+03 -0.48095951024E+02  0.36157317029E+03  0.12500000000E+03 0.  0.
</event>
<event>
 4    0  0.2236434E-002  0.1341383E+03  0.7546771E-02  0.1221441E+00
         21   -1    0    0  502  501  0.00000000000E+00  0.00000000000E+00  0.33023823221E+03  0.33023823221E+03  0.00000000000E+00 0.  1.
         21   -1    0    0  501  502 -0.00000000000E+00 -0.00000000000E+00 -0.54485158403E+02  0.54485158403E+02  0.00000000000E+00 0.  1.
         25    1    1    2    0    0 -0.42151390644E+02  0.79020220451E+01  0.10489636725E+03  0.16872293723E+03  0.12500000000E+03 0.  0.
         25    1    1    2    0    0  0.42151390644E+02 -0.79020220451E+01  0.17085670656E+03  0.21600045338E+03  0.12500000000E+03 0.  0.
</event>
<event>
 4    0  0.2236434E-002  0.1858305E+03  0.7546771E-02  0.1162277E+00
         21   -1    0    0  502  501  0.00000000000E+00  0.00000000000E+00  0.19178123116E+03  0.19178123116E+03  0.00000000000E+00 0.  1.
         21   -1    0    0  501  502 -0.00000000000E+00 -0.00000000000E+00 -0.18006449015E+03  0.18006449015E+03  0.00000000000E+00 0.  1.
         25    1    1    2    0    0  0.10395838170E+03 -0.87026970255E+02  0.28825186545E+02  0.18664653776E+03  0.12500000000E+03 0.  0.
         25    1    1    2    0    0 -0.10395838170E+03  0.87026970255E+02 -0.17108445537E+02  0.18519918355E+03  0.12500000000E+03 0.  0.
</event>
<event>
 4    0  0.2236434E-002  0.2074836E+03  0.7546771E-02  0.1143574E+00
         21   -1    0    0  502  501  0.00000000000E+00  0.00000000000E+00  0.37242813405E+02  0.37242813405E+02  0.00000000000E+00 0.  1.
         21   -1    0    0  501  502 -0.00000000000E+00 -0.00000000000E+00 -0.11559126199E+04  0.11559126199E+04  0.00000000000E+00 0.  1.
         25    1    1    2    0    0  0.15619412904E+03 -0.67775420106E+01 -0.40232407558E+03  0.44936867137E+03  0.12500000000E+03 0.  0.
         25    1    1    2    0    0 -0.15619412904E+03  0.67775420106E+01 -0.71634573095E+03  0.74378676196E+03  0.12500000000E+03 0.  0.
</event>
<event>
 4    0  0.2236434E-002  0.1553040E+03  0.7546771E-02  0.1194103E+00
         21   -1    0    0  502  501  0.00000000000E+00  0.00000000000E+00  0.57351492148E+02  0.57351492148E+02  0.00000000000E+00 0.  1.
         21   -1    0    0  501  502 -0.00000000000E+00 -0.00000000000E+00 -0.42055282687E+03  0.42055282687E+03  0.00000000000E+00 0.  1.
         25    1    1    2    0    0 -0.87583358285E+02 -0.28547384671E+02 -0.17710584035E+03  0.23553614692E+03  0.12500000000E+03 0.  0.
         25    1    1    2    0    0  0.87583358285E+02  0.28547384671E+02 -0.18609549437E+03  0.24236817210E+03  0.12500000000E+03 0.  0.
</event>
<event>
 4    0  0.2236434E-002  0.3566370E+03  0.7546771E-02  0.1059923E+00
         21   -1    0    0  502  501  0.00000000000E+00  0.00000000000E+00  0.13396329021E+04  0.13396329021E+04  0.00000000000E+00 0.  1.
         21   -1    0    0  501  502 -0.00000000000E+00 -0.00000000000E+00 -0.94943862110E+02  0.94943862110E+02  0.00000000000E+00 0.  1.
         25    1    1    2    0    0  0.85116681782E+02 -0.32242933141E+03  0.58421551850E+03  0.68420632512E+03  0.12500000000E+03 0.  0.
         25    1    1    2    0    0 -0.85116681782E+02  0.32242933141E+03  0.66047352148E+03  0.75037043908E+03  0.12500000000E+03 0.  0.
</event>
<event>
 4    0  0.2236434E-002  0.1515415E+03  0.7546771E-02  0.1198592E+00
         21   -1    0    0  502  501  0.00000000000E+00  0.00000000000E+00  0.12031377681E+04  0.12031377681E+04  0.00000000000E+00 0. -1.
         21   -1    0    0  501  502 -0.00000000000E+00 -0.00000000000E+00 -0.19087440140E+02  0.19087440140E+02  0.00000000000E+00 0. -1.
         25    1    1    2    0    0  0.44410621113E+02 -0.51052373995E+02  0.80392784181E+03  0.81639673137E+03  0.12500000000E+03 0.  0.
         25    1    1    2    0    0 -0.44410621113E+02  0.51052373995E+02  0.38012248612E+03  0.40582847684E+03  0.12500000000E+03 0.  0.
</event>
<event>
 4    0  0.2236434E-002  0.2736578E+03  0.7546771E-02  0.1099204E+00
         21   -1    0    0  502  501  0.00000000000E+00  0.00000000000E+00  0.62718869641E+02  0.62718869641E+02  0.00000000000E+00 0. -1.
         21   -1    0    0  501  502 -0.00000000000E+00 -0.00000000000E+00 -0.11940363693E+04  0.11940363693E+04  0.00000000000E+00 0. -1.
         25    1    1    2    0    0 -0.96422066010E+00  0.81840486257E+02 -0.10921127089E+04  0.11022857904E+04  0.12500000000E+03 0.  0.
         25    1    1    2    0    0  0.96422066010E+00 -0.81840486257E+02 -0.39204790833E+02  0.15446944855E+03  0.12500000000E+03 0.  0.
</event>
<event>
 4    0  0.2236434E-002  0.2652486E+03  0.7546771E-02  0.1104030E+00
         21   -1    0    0  502  501  0.00000000000E+00  0.00000000000E+00  0.64167029304E+03  0.64167029304E+03  0.00000000000E+00 0. -1.
         21   -1    0    0  501  502 -0.00000000000E+00 -0.00000000000E+00 -0.10964633815E+03  0.10964633815E+03  0.00000000000E+00 0. -1.
         25    1    1    2    0    0 -0.91623232557E+02  0.21039875636E+03  0.33043726612E+03  0.42127929010E+03  0.12500000000E+03 0.  0.
         25    1    1    2    0    0  0.91623232557E+02 -0.21039875636E+03  0.20158668878E+03  0.33003734109E+03  0.12500000000E+03 0.  0.
</event>
<event>
 4    0  0.2236434E-002  0.2696069E+03  0.7546771E-02  0.1101505E+00
         21   -1    0    0  502  501  0.00000000000E+00  0.00000000000E+00  0.65072201858E+03  0.65072201858E+03  0.00000000000E+00 0.  1.
         21   -1    0    0  501  502 -0.00000000000E+00 -0.00000000000E+00 -0.11170340074E+03  0.11170340074E+03  0.00000000000E+00 0.  1.
         25    1    1    2    0    0  0.11546387800E+03  0.17134353348E+03  0.43902125019E+03  0.50105406066E+03  0.12500000000E+03 0.  0.
         25    1    1    2    0    0 -0.11546387800E+03 -0.17134353348E+03  0.99997367650E+02  0.26137135866E+03  0.12500000000E+03 0.  0.
</event>
<event>
 4    0  0.2236434E-002  0.2456817E+03  0.7546771E-02  0.1116065E+00
         21   -1    0    0  502  501  0.00000000000E+00  0.00000000000E+00  0.13126088392E+03  0.13126088392E+03  0.00000000000E+00 0. -1.
         21   -1    0    0  501  502 -0.00000000000E+00 -0.00000000000E+00 -0.45984393625E+03  0.45984393625E+03  0.00000000000E+00 0. -1.
         25    1    1    2    0    0  0.15368673347E+03  0.72114537573E+02 -0.12531711970E+02  0.21119224034E+03  0.12500000000E+03 0.  0.
         25    1    1    2    0    0 -0.15368673347E+03 -0.72114537573E+02 -0.31605134035E+03  0.37991257983E+03  0.12500000000E+03 0.  0.
</event>
<event>
 4    0  0.2236434E-002  0.4298483E+03  0.7546771E-02  0.1033908E+00
         21   -1    0    0  502  501  0.00000000000E+00  0.00000000000E+00  0.83162798785E+03  0.83162798785E+03  0.00000000000E+00 0. -1.
         21   -1    0    0  501  502 -0.00000000000E+00 -0.00000000000E+00 -0.22217816884E+03  0.22217816884E+03  0.00000000000E+00 0. -1.
         25    1    1    2    0    0 -0.37608782793E+03  0.11995623461E+03  0.16329086302E+03  0.44510724380E+03  0.12500000000E+03 0.  0.
         25    1    1    2    0    0  0.37608782793E+03 -0.11995623461E+03  0.44615895599E+03  0.60869891289E+03  0.12500000000E+03 0.  0.
</event>
<event>
 4    0  0.2236434E-002  0.2750394E+03  0.7546771E-02  0.1098430E+00
         21   -1    0    0  502  501  0.00000000000E+00  0.00000000000E+00  0.55470729492E+03  0.55470729492E+03  0.00000000000E+00 0. -1.
         21   -1    0    0  501  502 -0.00000000000E+00 -0.00000000000E+00 -0.13637224846E+03  0.13637224846E+03  0.00000000000E+00 0. -1.
         25    1    1    2    0    0  0.48708189558E+02 -0.16956392834E+03 -0.43981711130E+01  0.21626085507E+03  0.12500000000E+03 0.  0.
         25    1    1    2    0    0 -0.48708189558E+02  0.16956392834E+03  0.42273321758E+03  0.47481868831E+03  0.12500000000E+03 0.  0.
</event>
<event>
 4    0  0.2236434E-002  0.4150746E+03  0.7546771E-02  0.1038681E+00
         21   -1    0    0  502  501  0.00000000000E+00  0.00000000000E+00  0.60057992518E+02  0.60057992518E+02  0.00000000000E+00 0. -1.
         21   -1    0    0  501  502 -0.00000000000E+00 -0.00000000000E+00 -0.28686760033E+04  0.28686760033E+04  0.00000000000E+00 0. -1.
         25    1    1    2    0    0  0.36375943537E+03 -0.11004476304E+03 -0.17944821182E+04  0.18385379651E+04  0.12500000000E+03 0.  0.
         25    1    1    2    0    0 -0.36375943537E+03  0.11004476304E+03 -0.10141358926E+04  0.10901960307E+04  0.12500000000E+03 0.  0.
</event>
<event>
 4    0  0.2236434E-002  0.2532487E+03  0.7546771E-02  0.1111269E+00
         21   -1    0    0  502  501  0.00000000000E+00  0.00000000000E+00  0.94707983817E+03  0.94707983817E+03  0.00000000000E+00 0.  1.
         21   -1    0    0  501  502 -0.00000000000E+00 -0.00000000000E+00 -0.67718591571E+02  0.67718591571E+02  0.00000000000E+00 0.  1.
         25    1    1    2    0    0  0.10534580220E+03 -0.12023276140E+03  0.74324659200E+03  0.77045061586E+03  0.12500000000E+03 0.  0.
         25    1    1    2    0    0 -0.10534580220E+03  0.12023276140E+03  0.13611465460E+03  0.24434781388E+03  0.12500000000E+03 0.  0.
</event>
<event>
 4    0  0.2236434E-002  0.1761139E+03  0.7546771E-02  0.1171618E+00
         21   -1    0    0  502  501  0.00000000000E+00  0.00000000000E+00  0.41131134886E+02  0.41131134886E+02  0.00000000000E+00 0. -1.
         21   -1    0    0  501  502 -0.00000000000E+00 -0.00000000000E+00 -0.75407840216E+03  0.75407840216E+03  0.00000000000E+00 0. -1.
         25    1    1    2    0    0 -0.10744966756E+03 -0.24307768259E+02 -0.22767232910E+03  0.28212760959E+03  0.12500000000E+03 0.  0.
         25    1    1    2    0    0  0.10744966756E+03  0.24307768259E+02 -0.48527493817E+03  0.51308192745E+03  0.12500000000E+03 0.  0.
</event>
<event>
 4    0  0.2236434E-002  0.2179346E+03  0.7546771E-02  0.1135432E+00
         21   -1    0    0  502  501  0.00000000000E+00  0.00000000000E+00  0.41863405056E+03  0.41863405056E+03  0.00000000000E+00 0. -1.
         21   -1    0    0  501  502 -0.00000000000E+00 -0.00000000000E+00 -0.11345344004E+03  0.11345344004E+03  0.00000000000E+00 0. -1.
         25    1    1    2    0    0  0.11628467306E+03 -0.11271958611E+03  0.24429007094E+03  0.31863846134E+03  0.12500000000E+03 0.  0.
         25    1    1    2    0    0 -0.11628467306E+03  0.11271958611E+03  0.60890539582E+02  0.21344902926E+03  0.12500000000E+03 0.  0.
</event>
<event>
 4    0  0.2236434E-002  0.2435995E+03  0.7546771E-02  0.1117418E+00
         21   -1    0    0  502  501  0.00000000000E+00  0.00000000000E+00  0.29593105391E+02  0.29593105391E+02  0.00000000000E+00 0. -1.
         21   -1    0    0  501  502 -0.00000000000E+00 -0.00000000000E+00 -0.20052207852E+04  0.20052207852E+04  0.00000000000E+00 0. -1.
         25    1    1    2    0    0 -0.15649152348E+03  0.12041001841E+03 -0.12749817855E+04  0.12962220963E+04  0.12500000000E+03 0.  0.
         25    1    1    2    0    0  0.15649152348E+03 -0.12041001841E+03 -0.70064589428E+03  0.73859179431E+03  0.12500000000E+03 0.  0.
</event>
<event>
 4    0  0.2236434E-002  0.4831763E+03  0.7546771E-02  0.1018266E+00
         21   -1    0    0  502  501  0.00000000000E+00  0.00000000000E+00  0.13052784226E+03  0.13052784226E+03  0.00000000000E+00 0. -1.
         21   -1    0    0  501  502 -0.00000000000E+00 -0.00000000000E+00 -0.17885789328E+04  0.17885789328E+04  0.00000000000E+00 0. -1.
         25    1    1    2    0    0 -0.34618612429E+03 -0.13836829145E+03 -0.13866567836E+04  0.14413301676E+04  0.12500000000E+03 0.  0.
         25    1    1    2    0    0  0.34618612429E+03  0.13836829145E+03 -0.27139430696E+03  0.47777660740E+03  0.12500000000E+03 0.  0.
</event>
<event>
 4    0  0.2236434E-002  0.2082280E+03  0.7546771E-02  0.1142977E+00
         21   -1    0    0  502  501  0.00000000000E+00  0.00000000000E+00  0.27670960129E+02  0.27670960129E+02  0.00000000000E+00 0.  1.
         21   -1    0    0  501  502 -0.00000000000E+00 -0.00000000000E+00 -0.15669459048E+04  0.15669459048E+04  0.00000000000E+00 0.  1.
         25    1    1    2    0    0  0.15811415327E+03  0.24959193330E+02 -0.94555779628E+03  0.96712335972E+03  0.12500000000E+03 0.  0.
         25    1    1    2    0    0 -0.15811415327E+03 -0.24959193330E+02 -0.59371714841E+03  0.62749350524E+03  0.12500000000E+03 0.  0.
</event>
<event>
 4    0  0.2236434E-002  0.2068564E+03  0.7546771E-02  0.1144080E+00
         21   -1    0    0  502  501  0.00000000000E+00  0.00000000000E+00  0.81432968229E+03  0.81432968229E+03  0.00000000000E+00 0.  1.
         21   -1    0    0  501  502 -0.00000000000E+00 -0.00000000000E+00 -0.52545755574E+02  0.52545755574E+02  0.00000000000E+00 0.  1.
         25    1    1    2    0    0  0.47320544553E+02 -0.15532499116E+03  0.32164555983E+03  0.38137377070E+03  0.12500000000E+03 0.  0.
         25    1    1    2    0    0 -0.47320544553E+02  0.15532499116E+03  0.44013836689E+03  0.48550166717E+03  0.12500000000E+03 0.  0.
</event>
<event>
 4    0  0.2236434E-002  0.2046421E+03  0.7546771E-02  0.1145880E+00
         21   -1    0    0  502  501  0.00000000000E+00  0.00000000000E+00  0.54796540759E+03  0.54796540759E+03  0.00000000000E+00 0.  1.
         21   -1    0    0  501  502 -0.00000000000E+00 -0.00000000000E+00 -0.76425273123E+02  0.76425273123E+02  0.00000000000E+00 0.  1.
         25    1    1    2    0    0  0.15364052724E+03 -0.48784904185E+02  0.21079417660E+03  0.29333353606E+03  0.12500000000E+03 0.  0.
         25    1    1    2    0    0 -0.15364052724E+03  0.48784904185E+02  0.26074595786E+03  0.33105714466E+03  0.12500000000E+03 0.  0.
</event>
<event>
 4    0  0.2236434E-002  0.2307783E+03  0.7546771E-02  0.1126093E+00
         21   -1    0    0  502  501  0.00000000000E+00  0.00000000000E+00  0.22131550369E+04  0.22131550369E+04  0.00000000000E+00 0. -1.
         21   -1    0    0  501  502 -0.00000000000E+00 -0.00000000000E+00 -0.24064570669E+02  0.24064570669E+02  0.00000000000E+00 0.  1.
         25    1    1    2    0    0  0.16597629935E+03  0.21028274831E+02  0.15705338927E+04  0.15843585543E+04  0.12500000000E+03 0.  0.
         25    1    1    2    0    0 -0.16597629935E+03 -0.21028274831E+02  0.61855657354E+03  0.65286105334E+03  0.12500000000E+03 0.  0.
</event>
<event>
 4    0  0.2236434E-002  0.1855303E+03  0.7546771E-02  0.1162556E+00
         21   -1    0    0  502  501  0.00000000000E+00  0.00000000000E+00  0.20189134136E+03  0.20189134136E+03  0.00000000000E+00 0. -1.
         21   -1    0    0  501  502 -0.00000000000E+00 -0.00000000000E+00 -0.17049521526E+03  0.17049521526E+03  0.00000000000E+00 0. -1.
         25    1    1    2    0    0  0.45281808548E+02  0.19851771532E+02  0.14402981720E+03  0.19701300277E+03  0.12500000000E+03 0.  0.
         25    1    1    2    0    0 -0.45281808548E+02 -0.19851771532E+02 -0.11263369110E+03  0.17537355385E+03  0.12500000000E+03 0.  0.
</event>
<event>
 4    0  0.2236434E-002  0.2790143E+03  0.7546771E-02  0.1096229E+00
         21   -1    0    0  502  501  0.00000000000E+00  0.00000000000E+00  0.11225903392E+04  0.11225903392E+04  0.00000000000E+00 0. -1.
         21   -1    0    0  501  502 -0.00000000000E+00 -0.00000000000E+00 -0.69347628319E+02  0.69347628319E+02  0.00000000000E+00 0. -1.
         25    1    1    2    0    0 -0.11442462753E+03 -0.17002706725E+03  0.83036477453E+03  0.86436847338E+03  0.12500000000E+03 0.  0.
         25    1    1    2    0    0  0.11442462753E+03  0.17002706725E+03  0.22287793635E+03  0.32756949414E+03  0.12500000000E+03 0.  0.
</event>
<event>
 4    0  0.2236434E-002  0.2092725E+03  0.7546771E-02  0.1142143E+00
         21   -1    0    0  502  501  0.00000000000E+00  0.00000000000E+00  0.73590350359E+02  0.73590350359E+02  0.00000000000E+00 0. -1.
         21   -1    0    0  501  502 -0.00000000000E+00 -0.00000000000E+00 -0.59511847745E+03  0.59511847745E+03  0.00000000000E+00 0. -1.
         25    1    1    2    0    0 -0.57978222241E+02  0.47680707956E+02 -0.20922635668E+02  0.14730132670E+03  0.12500000000E+03 0.  0.
         25    1    1    2    0    0  0.57978222241E+02 -0.47680707956E+02 -0.50060549142E+03  0.52140750110E+03  0.12500000000E+03 0.  0.
</event>
<event>
 4    0  0.2236434E-002  0.2240960E+03  0.7546771E-02  0.1130866E+00
         21   -1    0    0  502  501  0.00000000000E+00  0.00000000000E+00  0.13202956038E+03  0.13202956038E+03  0.00000000000E+00 0.  1.
         21   -1    0    0  501  502 -0.00000000000E+00 -0.00000000000E+00 -0.38036193247E+03  0.38036193247E+03  0.00000000000E+00 0.  1.
         25    1    1    2    0    0 -0.15159988661E+03 -0.10719737815E+03 -0.13670098983E+03  0.26227078397E+03  0.12500000000E+03 0.  0.
         25    1    1    2    0    0  0.15159988661E+03  0.10719737815E+03 -0.11163138226E+03  0.25012070888E+03  0.12500000000E+03 0.  0.
</event>
<event>
 4    0  0.2236434E-002  0.1940618E+03  0.7546771E-02  0.1154848E+00
         21   -1    0    0  502  501  0.00000000000E+00  0.00000000000E+00  0.11077437141E+04  0.11077437141E+04  0.00000000000E+00 0.  1.
         21   -1    0    0  501  502 -0.00000000000E+00 -0.00000000000E+00 -0.33997032869E+02  0.33997032869E+02  0.00000000000E+00 0.  1.
         25    1    1    2    0    0  0.98874288057E+02  0.92073072098E+02  0.71776770595E+03  0.74099194000E+03  0.12500000000E+03 0.  0.
         25    1    1    2    0    0 -0.98874288057E+02 -0.92073072098E+02  0.35597897530E+03  0.40074880699E+03  0.12500000000E+03 0.  0.
</event>
<event>
 4    0  0.2236434E-002  0.2399157E+03  0.7546771E-02  0.1119849E+00
         21   -1    0    0  502  501  0.00000000000E+00  0.00000000000E+00  0.46094382944E+02  0.46094382944E+02  0.00000000000E+00 0.  1.
         21   -1    0    0  501  502 -0.00000000000E+00 -0.00000000000E+00 -0.12487324598E+04  0.12487324598E+04  0.00000000000E+00 0.  1.
         25    1    1    2    0    0  0.91872163409E+01 -0.77315644904E+02 -0.90221906566E+02  0.17270525851E+03  0.12500000000E+03 0.  0.
         25    1    1    2    0    0 -0.91872163409E+01  0.77315644904E+02 -0.11124161703E+04  0.11221215843E+04  0.12500000000E+03 0.  0.
</event>
<event>
 4    0  0.2236434E-002  0.2470842E+03  0.7546771E-02  0.1115162E+00
         21   -1    0    0  502  501  0.00000000000E+00  0.00000000000E+00  0.37848996376E+02  0.37848996376E+02  0.00000000000E+00 0.  1.
         21   -1    0    0  501  502 -0.00000000000E+00 -0.00000000000E+00 -0.16130045719E+04  0.16130045719E+04  0.00000000000E+00 0.  1.
         25    1    1    2    0    0 -0.26018000741E+02 -0.15243135599E+03 -0.12775682096E+04  0.12929492585E+04  0.12500000000E+03 0.  0.
         25    1    1    2    0    0  0.26018000741E+02  0.15243135599E+03 -0.29758736586E+03  0.35790430980E+03  0.12500000000E+03 0.  0.
</event>
<event>
 4    0  0.2236434E-002  0.1940251E+03  0.7546771E-02  0.1154880E+00
         21   -1    0    0  502  501  0.00000000000E+00  0.00000000000E+00  0.32104267323E+03  0.32104267323E+03  0.00000000000E+00 0.  1.
         21   -1    0    0  501  502 -0.00000000000E+00 -0.00000000000E+00 -0.11726090920E+03  0.11726090920E+03  0.00000000000E+00 0.  1.
         25    1    1    2    0    0  0.51298722101E+00 -0.14132106488E+03  0.50764858696E+02  0.19538161995E+03  0.12500000000E+03 0.  0.
         25    1    1    2    0    0 -0.51298722101E+00  0.14132106488E+03  0.15301690533E+03  0.24292196248E+03  0.12500000000E+03 0.  0.
</event>
<event>
 4    0  0.2236434E-002  0.1940604E+03  0.7546771E-02  0.1154849E+00
         21   -1    0    0  502  501  0.00000000000E+00  0.00000000000E+00  0.21184275464E+02  0.21184275464E+02  0.00000000000E+00 0. -1.
         21   -1    0    0  501  502 -0.00000000000E+00 -0.00000000000E+00 -0.17777071174E+04  0.17777071174E+04  0.00000000000E+00 0. -1.
         25    1    1    2    0    0  0.46043345266E+02  0.50483413499E+02 -0.26747926560E+03  0.30304904258E+03  0.12500000000E+03 0.  0.
         25    1    1    2    0    0 -0.46043345266E+02 -0.50483413499E+02 -0.14890435764E+04  0.14958423503E+04  0.12500000000E+03 0.  0.
</event>
<event>
 4    0  0.2236434E-002  0.2017234E+03  0.7546771E-02  0.1148293E+00
         21   -1    0    0  502  501  0.00000000000E+00  0.00000000000E+00  0.24158489821E+02  0.24158489821E+02  0.00000000000E+00 0. -1.
         21   -1    0    0  501  502 -0.00000000000E+00 -0.00000000000E+00 -0.16843912244E+04  0.16843912244E+04  0.00000000000E+00 0. -1.
         25    1    1    2    0    0  0.14971204259E+03 -0.48115705893E+02 -0.90803489296E+03  0.92998988365E+03  0.12500000000E+03 0.  0.
         25    1    1    2    0    0 -0.14971204259E+03  0.48115705893E+02 -0.75219784158E+03  0.77855983054E+03  0.12500000000E+03 0.  0.
</event>
<event>
 4    0  0.2236434E-002  0.6735644E+03  0.7546771E-02  0.9763540E-01
         21   -1    0    0  502  501  0.00000000000E+00  0.00000000000E+00  0.45954333080E+03  0.45954333080E+03  0.00000000000E+00 0. -1.
         21   -1    0    0  501  502 -0.00000000000E+00 -0.00000000000E+00 -0.98726047371E+03  0.98726047371E+03  0.00000000000E+00 0.  1.
         25    1    1    2    0    0  0.11718094082E+03 -0.34994121275E+03  0.32622456880E+03  0.50817093045E+03  0.12500000000E+03 0.  0.
         25    1    1    2    0    0 -0.11718094082E+03  0.34994121275E+03 -0.85394171171E+03  0.93863287406E+03  0.12500000000E+03 0.  0.
</event>
<event>
 4    0  0.2236434E-002  0.3612818E+03  0.7546771E-02  0.1058077E+00
         21   -1    0    0  502  501  0.00000000000E+00  0.00000000000E+00  0.18835085626E+03  0.18835085626E+03  0.00000000000E+00 0. -1.
         21   -1    0    0  501  502 -0.00000000000E+00 -0.00000000000E+00 -0.69298628229E+03  0.69298628229E+03  0.00000000000E+00 0. -1.
         25    1    1    2    0    0  0.20374001218E+03 -0.25354867366E+03 -0.36869000107E+03  0.50730093570E+03  0.12500000000E+03 0.  0.
         25    1    1    2    0    0 -0.20374001218E+03  0.25354867366E+03 -0.13594542496E+03  0.37403620285E+03  0.12500000000E+03 0.  0.
</event>
<event>
 4    0  0.2236434E-002  0.2044857E+03  0.7546771E-02  0.1146009E+00
         21   -1    0    0  502  501  0.00000000000E+00  0.00000000000E+00  0.14653806518E+03  0.14653806518E+03  0.00000000000E+00 0.  1.
         21   -1    0    0  501  502 -0.00000000000E+00 -0.00000000000E+00 -0.28534845258E+03  0.28534845258E+03  0.00000000000E+00 0.  1.
         25    1    1    2    0    0 -0.97451321547E+02  0.78415181044E+02 -0.17784116620E+03  0.25079509781E+03  0.12500000000E+03 0.  0.
         25    1    1    2    0    0  0.97451321547E+02 -0.78415181044E+02  0.39030778794E+02  0.18109141996E+03  0.12500000000E+03 0.  0.
</event>
<event>
 4    0  0.2236434E-002  0.1922194E+03  0.7546771E-02  0.1156475E+00
         21   -1    0    0  502  501  0.00000000000E+00  0.00000000000E+00  0.43503160916E+03  0.43503160916E+03  0.00000000000E+00 0. -1.
         21   -1    0    0  501  502 -0.00000000000E+00 -0.00000000000E+00 -0.84932465103E+02  0.84932465103E+02  0.00000000000E+00 0. -1.
         25    1    1    2    0    0 -0.73675462225E+02 -0.12465125425E+03  0.14948365412E+03  0.24276814406E+03  0.12500000000E+03 0.  0.
         25    1    1    2    0    0  0.73675462225E+02  0.12465125425E+03  0.20061548993E+03  0.27719593020E+03  0.12500000000E+03 0.  0.
</event>
<event>
 4    0  0.2236434E-002  0.1869249E+03  0.7546771E-02  0.1161264E+00
         21   -1    0    0  502  501  0.00000000000E+00  0.00000000000E+00  0.14094393949E+03  0.14094393949E+03  0.00000000000E+00 0.  1.
         21   -1    0    0  501  502 -0.00000000000E+00 -0.00000000000E+00 -0.24790658130E+03  0.24790658130E+03  0.00000000000E+00 0.  1.
         25    1    1    2    0    0  0.42398758721E+02  0.49177206640E+02 -0.18129348089E+03  0.22958305383E+03  0.12500000000E+03 0.  0.
         25    1    1    2    0    0 -0.42398758721E+02 -0.49177206640E+02  0.74330839080E+02  0.15926746696E+03  0.12500000000E+03 0.  0.
</event>
<event>
 4    0  0.2236434E-002  0.2493212E+03  0.7546771E-02  0.1113735E+00
         21   -1    0    0  502  501  0.00000000000E+00  0.00000000000E+00  0.11183310687E+04  0.11183310687E+04  0.00000000000E+00 0.  1.
         21   -1    0    0  501  502 -0.00000000000E+00 -0.00000000000E+00 -0.55583791727E+02  0.55583791727E+02  0.00000000000E+00 0.  1.
         25    1    1    2    0    0  0.81226466279E+02 -0.23830293564E+02  0.99849805295E+03  0.10098460197E+04  0.12500000000E+03 0.  0.
         25    1    1    2    0    0 -0.81226466279E+02  0.23830293564E+02  0.64249224015E+02  0.16406884074E+03  0.12500000000E+03 0.  0.
</event>
<event>
 4    0  0.2236434E-002  0.2157963E+03  0.7546771E-02  0.1137056E+00
         21   -1    0    0  502  501  0.00000000000E+00  0.00000000000E+00  0.39164731705E+03  0.39164731705E+03  0.00000000000E+00 0. -1.
         21   -1    0    0  501  502 -0.00000000000E+00 -0.00000000000E+00 -0.11890299885E+03  0.11890299885E+03  0.00000000000E+00 0. -1.
         25    1    1    2    0    0 -0.77472260136E+02  0.80192361806E+02 -0.24570436581E+02  0.16929699447E+03  0.12500000000E+03 0.  0.
         25    1    1    2    0    0  0.77472260136E+02 -0.80192361806E+02  0.29731475477E+03  0.34125332143E+03  0.12500000000E+03 0.  0.
</event>
<event>
 4    0  0.2236434E-002  0.1779474E+03  0.7546771E-02  0.1169804E+00
         21   -1    0    0  502  501  0.00000000000E+00  0.00000000000E+00  0.64888713068E+02  0.64888713068E+02  0.00000000000E+00 0.  1.
         21   -1    0    0  501  502 -0.00000000000E+00 -0.00000000000E+00 -0.48799346173E+03  0.48799346173E+03  0.00000000000E+00 0.  1.
         25    1    1    2    0    0 -0.94306893859E+02 -0.24360345934E+02 -0.85795195630E+02  0.18020275324E+03  0.12500000000E+03 0.  0.
         25    1    1    2    0    0  0.94306893859E+02  0.24360345934E+02 -0.33730955303E+03  0.37267942155E+03  0.12500000000E+03 0.  0.
</event>
<event>
 4    0  0.2236434E-002  0.5555213E+03  0.7546771E-02  0.1000224E+00
         21   -1    0    0  502  501  0.00000000000E+00  0.00000000000E+00  0.12800684887E+04  0.12800684887E+04  0.00000000000E+00 0. -1.
         21   -1    0    0  501  502 -0.00000000000E+00 -0.00000000000E+00 -0.24108393843E+03  0.24108393843E+03  0.00000000000E+00 0.  1.
         25    1    1    2    0    0  0.42222043279E+03  0.33574071929E+03  0.58052236631E+03  0.80226126807E+03  0.12500000000E+03 0.  0.
         25    1    1    2    0    0 -0.42222043279E+03 -0.33574071929E+03  0.45846218396E+03  0.71889115906E+03  0.12500000000E+03 0.  0.
</event>
<event>
 4    0  0.2236434E-002  0.2067649E+03  0.7546771E-02  0.1144154E+00
         21   -1    0    0  502  501  0.00000000000E+00  0.00000000000E+00  0.24504175793E+03  0.24504175793E+03  0.00000000000E+00 0. -1.
         21   -1    0    0  501  502 -0.00000000000E+00 -0.00000000000E+00 -0.17446717886E+03  0.17446717886E+03  0.00000000000E+00 0. -1.
         25    1    1    2    0    0  0.13655231087E+03 -0.25199649308E+02 -0.54566415140E+02  0.19463825315E+03  0.12500000000E+03 0.  0.
         25    1    1    2    0    0 -0.13655231087E+03  0.25199649308E+02  0.12514099421E+03  0.22487068364E+03  0.12500000000E+03 0.  0.
</event>
<event>
 4    0  0.2236434E-002  0.2312230E+03  0.7546771E-02  0.1125782E+00
         21   -1    0    0  502  501  0.00000000000E+00  0.00000000000E+00  0.70064924449E+03  0.70064924449E+03  0.00000000000E+00 0. -1.
         21   -1    0    0  501  502 -0.00000000000E+00 -0.00000000000E+00 -0.76306484952E+02  0.76306484952E+02  0.00000000000E+00 0. -1.
         25    1    1    2    0    0 -0.14633500501E+03 -0.76362090766E+02  0.48509916013E+03  0.52743843030E+03  0.12500000000E+03 0.  0.
         25    1    1    2    0    0  0.14633500501E+03  0.76362090766E+02  0.13924359942E+03  0.24951729915E+03  0.12500000000E+03 0.  0.
</event>
<event>
 4    0  0.2236434E-002  0.1525570E+03  0.7546771E-02  0.1197366E+00
         21   -1    0    0  502  501  0.00000000000E+00  0.00000000000E+00  0.88324297620E+03  0.88324297620E+03  0.00000000000E+00 0.  1.
         21   -1    0    0  501  502 -0.00000000000E+00 -0.00000000000E+00 -0.26350201727E+02  0.26350201727E+02  0.00000000000E+00 0.  1.
         25    1    1    2    0    0  0.16703458878E+00  0.15608306335E+02  0.68498171280E+03  0.69646865974E+03  0.12500000000E+03 0.  0.
         25    1    1    2    0    0 -0.16703458878E+00 -0.15608306335E+02  0.17191106167E+03  0.21312451818E+03  0.12500000000E+03 0.  0.
</event>
<event>
 4    0  0.2236434E-002  0.2952695E+03  0.7546771E-02  0.1087630E+00
         21   -1    0    0  502  501  0.00000000000E+00  0.00000000000E+00  0.41459591385E+03  0.41459591385E+03  0.00000000000E+00 0.  1.
         21   -1    0    0  501  502 -0.00000000000E+00 -0.00000000000E+00 -0.21028681899E+03  0.21028681899E+03  0.00000000000E+00 0.  1.
         25    1    1    2    0    0 -0.11460731738E+03 -0.21978550236E+03  0.20859560239E+03  0.34724289710E+03  0.12500000000E+03 0.  0.
         25    1    1    2    0    0  0.11460731738E+03  0.21978550236E+03 -0.42865075308E+01  0.27763983574E+03  0.12500000000E+03 0.  0.
</event>
<event>
 4    0  0.2236434E-002  0.1638300E+03  0.7546771E-02  0.1184439E+00
         21   -1    0    0  502  501  0.00000000000E+00  0.00000000000E+00  0.14000947321E+03  0.14000947321E+03  0.00000000000E+00 0.  1.
         21   -1    0    0  501  502 -0.00000000000E+00 -0.00000000000E+00 -0.19170314829E+03  0.19170314829E+03  0.00000000000E+00 0.  1.
         25    1    1    2    0    0  0.85239821322E+02  0.46898527979E+02  0.16503068191E+02  0.15925655505E+03  0.12500000000E+03 0.  0.
         25    1    1    2    0    0 -0.85239821322E+02 -0.46898527979E+02 -0.68196743268E+02  0.17245606646E+03  0.12500000000E+03 0.  0.
</event>
<event>
 4    0  0.2236434E-002  0.1405180E+03  0.7546771E-02  0.1212634E+00
         21   -1    0    0  502  501  0.00000000000E+00  0.00000000000E+00  0.10539590293E+03  0.10539590293E+03  0.00000000000E+00 0. -1.
         21   -1    0    0  501  502 -0.00000000000E+00 -0.00000000000E+00 -0.18734413666E+03  0.18734413666E+03  0.00000000000E+00 0. -1.
         25    1    1    2    0    0 -0.16948801429E+02  0.39840374927E+02  0.83892195624E+01  0.13255148565E+03  0.12500000000E+03 0.  0.
         25    1    1    2    0    0  0.16948801429E+02 -0.39840374927E+02 -0.90337453293E+02  0.16018855393E+03  0.12500000000E+03 0.  0.
</event>
<event>
 4    0  0.2236434E-002  0.1526476E+03  0.7546771E-02  0.1197257E+00
         21   -1    0    0  502  501  0.00000000000E+00  0.00000000000E+00  0.34690829816E+03  0.34690829816E+03  0.00000000000E+00 0. -1.
         21   -1    0    0  501  502 -0.00000000000E+00 -0.00000000000E+00 -0.67168399149E+02  0.67168399149E+02  0.00000000000E+00 0. -1.
         25    1    1    2    0    0  0.49576022806E+02  0.93984609265E+01  0.42723599269E+02  0.14140869506E+03  0.12500000000E+03 0.  0.
         25    1    1    2    0    0 -0.49576022806E+02 -0.93984609265E+01  0.23701629974E+03  0.27266800224E+03  0.12500000000E+03 0.  0.
</event>
<event>
 4    0  0.2236434E-002  0.1777165E+03  0.7546771E-02  0.1170031E+00
         21   -1    0    0  502  501  0.00000000000E+00  0.00000000000E+00  0.16219690643E+03  0.16219690643E+03  0.00000000000E+00 0. -1.
         21   -1    0    0  501  502 -0.00000000000E+00 -0.00000000000E+00 -0.19472107467E+03  0.19472107467E+03  0.00000000000E+00 0. -1.
         25    1    1    2    0    0  0.65971379155E+02  0.10292711870E+03 -0.48206012955E+02  0.18136988261E+03  0.12500000000E+03 0.  0.
         25    1    1    2    0    0 -0.65971379155E+02 -0.10292711870E+03  0.15681844713E+02  0.17554809850E+03  0.12500000000E+03 0.  0.
</event>
<event>
 4    0  0.2236434E-002  0.1548564E+03  0.7546771E-02  0.1194629E+00
         21   -1    0    0  502  501  0.00000000000E+00  0.00000000000E+00  0.68981738491E+02  0.68981738491E+02  0.00000000000E+00 0.  1.
         21   -1    0    0  501  502 -0.00000000000E+00 -0.00000000000E+00 -0.34763574511E+03  0.34763574511E+03  0.00000000000E+00 0.  1.
         25    1    1    2    0    0  0.83623113019E+02 -0.63946139772E+01 -0.18823292046E+03  0.24101939437E+03  0.12500000000E+03 0.  0.
         25    1    1    2    0    0 -0.83623113019E+02  0.63946139772E+01 -0.90421086163E+02  0.17559808923E+03  0.12500000000E+03 0.  0.
</event>
<event>
 4    0  0.2236434E-002  0.2166597E+03  0.7546771E-02  0.1136398E+00
         21   -1    0    0  502  501  0.00000000000E+00  0.00000000000E+00  0.83019444911E+02  0.83019444911E+02  0.00000000000E+00 0.  1.
         21   -1    0    0  501  502 -0.00000000000E+00 -0.00000000000E+00 -0.56542709611E+03  0.56542709611E+03  0.00000000000E+00 0.  1.
         25    1    1    2    0    0  0.13487861340E+03  0.76167448120E+02 -0.11314713652E+03  0.22895631682E+03  0.12500000000E+03 0.  0.
         25    1    1    2    0    0 -0.13487861340E+03 -0.76167448120E+02 -0.36926051467E+03  0.41949022421E+03  0.12500000000E+03 0.  0.
</event>
<event>
 4    0  0.2236434E-002  0.2255932E+03  0.7546771E-02  0.1129780E+00
         21   -1    0    0  502  501  0.00000000000E+00  0.00000000000E+00  0.12817533996E+04  0.12817533996E+04  0.00000000000E+00 0. -1.
         21   -1    0    0  501  502 -0.00000000000E+00 -0.00000000000E+00 -0.39705217870E+02  0.39705217870E+02  0.00000000000E+00 0. -1.
         25    1    1    2    0    0 -0.12051740972E+03 -0.49964065290E+02  0.10166517640E+04  0.10325825212E+04  0.12500000000E+03 0.  0.
         25    1    1    2    0    0  0.12051740972E+03  0.49964065290E+02  0.22539641774E+03  0.28887609627E+03  0.12500000000E+03 0.  0.
</event>
<event>
 4    0  0.2236434E-002  0.3250047E+03  0.7546771E-02  0.1073369E+00
         21   -1    0    0  502  501  0.00000000000E+00  0.00000000000E+00  0.29817392933E+03  0.29817392933E+03  0.00000000000E+00 0.  1.
         21   -1    0    0  501  502 -0.00000000000E+00 -0.00000000000E+00 -0.35424983858E+03  0.35424983858E+03  0.00000000000E+00 0.  1.
         25    1    1    2    0    0 -0.11411868698E+02 -0.17353004449E+03 -0.27340486067E+03  0.34730120202E+03  0.12500000000E+03 0.  0.
         25    1    1    2    0    0  0.11411868698E+02  0.17353004449E+03  0.21732895142E+03  0.30512256589E+03  0.12500000000E+03 0.  0.
</event>
<event>
 4    0  0.2236434E-002  0.2816833E+03  0.7546771E-02  0.1094773E+00
         21   -1    0    0  502  501  0.00000000000E+00  0.00000000000E+00  0.14718132284E+03  0.14718132284E+03  0.00000000000E+00 0. -1.
         21   -1    0    0  501  502 -0.00000000000E+00 -0.00000000000E+00 -0.53910020529E+03  0.53910020529E+03  0.00000000000E+00 0. -1.
         25    1    1    2    0    0 -0.19509817753E+03 -0.13018572641E+03 -0.82277404156E+02  0.27821968562E+03  0.12500000000E+03 0.  0.
         25    1    1    2    0    0  0.19509817753E+03  0.13018572641E+03 -0.30964147829E+03  0.40806184251E+03  0.12500000000E+03 0.  0.
</event>
<event>
 4    0  0.2236434E-002  0.2066462E+03  0.7546771E-02  0.1144250E+00
         21   -1    0    0  502  501  0.00000000000E+00  0.00000000000E+00  0.14771416203E+03  0.14771416203E+03  0.00000000000E+00 0. -1.
         21   -1    0    0  501  502 -0.00000000000E+00 -0.00000000000E+00 -0.28908963360E+03  0.28908963360E+03  0.00000000000E+00 0. -1.
         25    1    1    2    0    0 -0.84684656221E+02  0.77786728972E+02  0.53717338353E+02  0.17813707824E+03  0.12500000000E+03 0.  0.
         25    1    1    2    0    0  0.84684656221E+02 -0.77786728972E+02 -0.19509280993E+03  0.25866671740E+03  0.12500000000E+03 0.  0.
</event>
<event>
 4    0  0.2236434E-002  0.2645407E+03  0.7546771E-02  0.1104445E+00
         21   -1    0    0  502  501  0.00000000000E+00  0.00000000000E+00  0.27582286274E+02  0.27582286274E+02  0.00000000000E+00 0.  1.
         21   -1    0    0  501  502 -0.00000000000E+00 -0.00000000000E+00 -0.25371996912E+04  0.25371996912E+04  0.00000000000E+00 0.  1.
         25    1    1    2    0    0  0.10089713225E+03 -0.74590190830E+02 -0.22073720713E+04  0.22144661634E+04  0.12500000000E+03 0.  0.
         25    1    1    2    0    0 -0.10089713225E+03  0.74590190830E+02 -0.30224533363E+03  0.35031581404E+03  0.12500000000E+03 0.  0.
</event>
<event>
 4    0  0.2236434E-002  0.2204803E+03  0.7546771E-02  0.1133525E+00
         21   -1    0    0  502  501  0.00000000000E+00  0.00000000000E+00  0.15945753912E+03  0.15945753912E+03  0.00000000000E+00 0.  1.
         21   -1    0    0  501  502 -0.00000000000E+00 -0.00000000000E+00 -0.30485585141E+03  0.30485585141E+03  0.00000000000E+00 0.  1.
         25    1    1    2    0    0  0.17975188098E+03 -0.97770420509E+01 -0.47335420256E+02  0.22421411927E+03  0.12500000000E+03 0.  0.
         25    1    1    2    0    0 -0.17975188098E+03  0.97770420509E+01 -0.98062892039E+02  0.24009927127E+03  0.12500000000E+03 0.  0.
</event>
<event>
 4    0  0.2236434E-002  0.2178090E+03  0.7546771E-02  0.1135527E+00
         21   -1    0    0  502  501  0.00000000000E+00  0.00000000000E+00  0.50814329944E+03  0.50814329944E+03  0.00000000000E+00 0.  1.
         21   -1    0    0  501  502 -0.00000000000E+00 -0.00000000000E+00 -0.93361024748E+02  0.93361024748E+02  0.00000000000E+00 0.  1.
         25    1    1    2    0    0  0.15575469156E+03 -0.81267550525E+02  0.24999166011E+03  0.33012841264E+03  0.12500000000E+03 0.  0.
         25    1    1    2    0    0 -0.15575469156E+03  0.81267550525E+02  0.16479061458E+03  0.27137591154E+03  0.12500000000E+03 0.  0.
</event>
<event>
 4    0  0.2236434E-002  0.4760051E+03  0.7546771E-02  0.1020239E+00
         21   -1    0    0  502  501  0.00000000000E+00  0.00000000000E+00  0.30441636985E+03  0.30441636985E+03  0.00000000000E+00 0. -1.
         21   -1    0    0  501  502 -0.00000000000E+00 -0.00000000000E+00 -0.74431239529E+03  0.74431239529E+03  0.00000000000E+00 0. -1.
         25    1    1    2    0    0  0.12929459531E+03 -0.38283888018E+03  0.20576090575E+02  0.42347500051E+03  0.12500000000E+03 0.  0.
         25    1    1    2    0    0 -0.12929459531E+03  0.38283888018E+03 -0.46047211602E+03  0.62525376463E+03  0.12500000000E+03 0.  0.
</event>
