<event>
 4    0  0.2219362E-002  0.2063168E+03  0.7546771E-02  0.1144516E+00
         21   -1    0    0  502  501  0.00000000000E+00  0.00000000000E+00  0.22116183908E+03  0.22116183908E+03  0.00000000000E+00 0. -1.
         21   -1    0    0  501  502 -0.00000000000E+00 -0.00000000000E+00 -0.19246828693E+03  0.19246828693E+03  0.00000000000E+00 0. -1.
         25    1    1    2    0    0  0.58640056187E+02 -0.15327858273E+03  0.17296702288E+02  0.20701969961E+03  0.12500000000E+03 0.  0.
         25    1    1    2    0    0 -0.58640056187E+02  0.15327858273E+03  0.11396849858E+02  0.20661042641E+03  0.12500000000E+03 0.  0.
</event>
<event>
 4    0  0.2219362E-002  0.2381470E+03  0.7546771E-02  0.1121033E+00
         21   -1    0    0  502  501  0.00000000000E+00  0.00000000000E+00  0.26286387646E+02  0.26286387646E+02  0.00000000000E+00 0.  1.
         21   -1    0    0  501  502 -0.00000000000E+00 -0.00000000000E+00 -0.21575424267E+04  0.21575424267E+04  0.00000000000E+00 0.  1.
         25    1    1    2    0    0  0.20222684169E+02  0.68111692580E+02 -0.19518388349E+03  0.24242505645E+03  0.12500000000E+03 0.  0.
         25    1    1    2    0    0 -0.20222684169E+02 -0.68111692580E+02 -0.19360721555E+04  0.19414037579E+04  0.12500000000E+03 0.  0.
</event>
<event>
 4    0  0.2219362E-002  0.2151913E+03  0.7546771E-02  0.1137520E+00
         21   -1    0    0  502  501  0.00000000000E+00  0.00000000000E+00  0.18892023115E+03  0.18892023115E+03  0.00000000000E+00 0.  1.
         21   -1    0    0  501  502 -0.00000000000E+00 -0.00000000000E+00 -0.24511550244E+03  0.24511550244E+03  0.00000000000E+00 0.  1.
         25    1    1    2    0    0 -0.12353420290E+03 -0.11373914343E+03 -0.78370401853E+02  0.22352675885E+03  0.12500000000E+03 0.  0.
         25    1    1    2    0    0  0.12353420290E+03  0.11373914343E+03  0.22175130564E+02  0.21050897475E+03  0.12500000000E+03 0.  0.
</event>
<event>
 4    0  0.2219362E-002  0.2132446E+03  0.7546771E-02  0.1139022E+00
         21   -1    0    0  502  501  0.00000000000E+00  0.00000000000E+00  0.38489324743E+03  0.38489324743E+03  0.00000000000E+00 0. -1.
         21   -1    0    0  501  502 -0.00000000000E+00 -0.00000000000E+00 -0.11814509325E+03  0.11814509325E+03  0.00000000000E+00 0. -1.
         25    1    1    2    0    0  0.78257992194E+02  0.13929224161E+03  0.21091227818E+03  0.29263566256E+03  0.12500000000E+03 0.  0.
         25    1    1    2    0    0 -0.78257992194E+02 -0.13929224161E+03  0.55835875992E+02  0.21040267812E+03  0.12500000000E+03 0.  0.
</event>
<event>
 4    0  0.2219362E-002  0.2313008E+03  0.7546771E-02  0.1125728E+00
         21   -1    0    0  502  501  0.00000000000E+00  0.00000000000E+00  0.10430566409E+03  0.10430566409E+03  0.00000000000E+00 0.  1.
         21   -1    0    0  501  502 -0.00000000000E+00 -0.00000000000E+00 -0.51291595029E+03  0.51291595029E+03  0.00000000000E+00 0.  1.
         25    1    1    2    0    0  0.60724367339E+02 -0.80951236368E+02 -0.42610424749E+03  0.45544525597E+03  0.12500000000E+03 0.  0.
         25    1    1    2    0    0 -0.60724367339E+02  0.80951236368E+02  0.17493961291E+02  0.16177635841E+03  0.12500000000E+03 0.  0.
</event>
<event>
 4    0  0.2219362E-002  0.1829431E+03  0.7546771E-02  0.1164985E+00
         21   -1    0    0  502  501  0.00000000000E+00  0.00000000000E+00  0.49555235268E+02  0.49555235268E+02  0.00000000000E+00 0.  1.
         21   -1    0    0  501  502 -0.00000000000E+00 -0.00000000000E+00 -0.67537141537E+03  0.67537141537E+03  0.00000000000E+00 0.  1.
         25    1    1    2    0    0  0.39707454808E+02  0.15094515568E+01 -0.56558450212E+03  0.58059434156E+03  0.12500000000E+03 0.  0.
         25    1    1    2    0    0 -0.39707454808E+02 -0.15094515568E+01 -0.60231677979E+02  0.14433230908E+03  0.12500000000E+03 0.  0.
</event>
<event>
 4    0  0.2219362E-002  0.1754223E+03  0.7546771E-02  0.1172308E+00
         21   -1    0    0  502  501  0.00000000000E+00  0.00000000000E+00  0.41767231635E+02  0.41767231635E+02  0.00000000000E+00 0. -1.
         21   -1    0    0  501  502 -0.00000000000E+00 -0.00000000000E+00 -0.73677346026E+03  0.73677346026E+03  0.00000000000E+00 0. -1.
         25    1    1    2    0    0 -0.20439084042E+02  0.59001430796E+02 -0.58285878095E+03  0.59937324225E+03  0.12500000000E+03 0.  0.
         25    1    1    2    0    0  0.20439084042E+02 -0.59001430796E+02 -0.11214744767E+03  0.17916744964E+03  0.12500000000E+03 0.  0.
</event>
<event>
 4    0  0.2219362E-002  0.2509101E+03  0.7546771E-02  0.1112731E+00
         21   -1    0    0  502  501  0.00000000000E+00  0.00000000000E+00  0.37517452213E+03  0.37517452213E+03  0.00000000000E+00 0.  1.
         21   -1    0    0  501  502 -0.00000000000E+00 -0.00000000000E+00 -0.16780424236E+03  0.16780424236E+03  0.00000000000E+00 0.  1.
         25    1    1    2    0    0  0.14912819390E+03  0.13540114435E+03  0.14734340141E+02  0.23751797593E+03  0.12500000000E+03 0.  0.
         25    1    1    2    0    0 -0.14912819390E+03 -0.13540114435E+03  0.19263593963E+03  0.30546078856E+03  0.12500000000E+03 0.  0.
</event>
<event>
 4    0  0.2219362E-002  0.2077395E+03  0.7546771E-02  0.1143369E+00
         21   -1    0    0  502  501  0.00000000000E+00  0.00000000000E+00  0.52487439804E+02  0.52487439804E+02  0.00000000000E+00 0.  1.
         21   -1    0    0  501  502 -0.00000000000E+00 -0.00000000000E+00 -0.82221034970E+03  0.82221034970E+03  0.00000000000E+00 0.  1.
         25    1    1    2    0    0 -0.42617896271E+02  0.19379080562E+02 -0.49739719166E+02  0.14244603718E+03  0.12500000000E+03 0.  0.
         25    1    1    2    0    0  0.42617896271E+02 -0.19379080562E+02 -0.71998319073E+03  0.73225175232E+03  0.12500000000E+03 0.  0.
</event>
<event>
 4    0  0.2219362E-002  0.2405818E+03  0.7546771E-02  0.1119406E+00
         21   -1    0    0  502  501  0.00000000000E+00  0.00000000000E+00  0.86819516988E+02  0.86819516988E+02  0.00000000000E+00 0. -1.
         21   -1    0    0  501  502 -0.00000000000E+00 -0.00000000000E+00 -0.66666559608E+03  0.66666559608E+03  0.00000000000E+00 0. -1.
         25    1    1    2    0    0  0.12666495406E+03  0.14487280506E+03 -0.40308980569E+03  0.46383028328E+03  0.12500000000E+03 0.  0.
         25    1    1    2    0    0 -0.12666495406E+03 -0.14487280506E+03 -0.17675627340E+03  0.28965482979E+03  0.12500000000E+03 0.  0.
</event>
<event>
 4    0  0.2219362E-002  0.2340484E+03  0.7546771E-02  0.1123822E+00
         21   -1    0    0  502  501  0.00000000000E+00  0.00000000000E+00  0.54520662733E+03  0.54520662733E+03  0.00000000000E+00 0. -1.
         21   -1    0    0  501  502 -0.00000000000E+00 -0.00000000000E+00 -0.10047316601E+03  0.10047316601E+03  0.00000000000E+00 0. -1.
         25    1    1    2    0    0  0.65737811251E+02 -0.14928313688E+03  0.67860244272E+02  0.21641840850E+03  0.12500000000E+03 0.  0.
         25    1    1    2    0    0 -0.65737811251E+02  0.14928313688E+03  0.37687321706E+03  0.42926138484E+03  0.12500000000E+03 0.  0.
</event>
<event>
 4    0  0.2219362E-002  0.2260837E+03  0.7546771E-02  0.1129427E+00
         21   -1    0    0  502  501  0.00000000000E+00  0.00000000000E+00  0.10490168160E+03  0.10490168160E+03  0.00000000000E+00 0.  1.
         21   -1    0    0  501  502 -0.00000000000E+00 -0.00000000000E+00 -0.48725462212E+03  0.48725462212E+03  0.00000000000E+00 0.  1.
         25    1    1    2    0    0  0.10593477974E+03  0.70158928678E+02 -0.90326172142E+01  0.17846859950E+03  0.12500000000E+03 0.  0.
         25    1    1    2    0    0 -0.10593477974E+03 -0.70158928678E+02 -0.37332032331E+03  0.41368770422E+03  0.12500000000E+03 0.  0.
</event>
<event>
 4    0  0.2219362E-002  0.2259789E+03  0.7546771E-02  0.1129502E+00
         21   -1    0    0  502  501  0.00000000000E+00  0.00000000000E+00  0.94243612993E+03  0.94243612993E+03  0.00000000000E+00 0. -1.
         21   -1    0    0  501  502 -0.00000000000E+00 -0.00000000000E+00 -0.54185575795E+02  0.54185575795E+02  0.00000000000E+00 0. -1.
         25    1    1    2    0    0  0.93318354177E+02  0.33142267700E+02  0.79718389628E+03  0.81297840662E+03  0.12500000000E+03 0.  0.
         25    1    1    2    0    0 -0.93318354177E+02 -0.33142267700E+02  0.91066657853E+02  0.18364329911E+03  0.12500000000E+03 0.  0.
</event>
<event>
 4    0  0.2219362E-002  0.3127673E+03  0.7546771E-02  0.1079027E+00
         21   -1    0    0  502  501  0.00000000000E+00  0.00000000000E+00  0.73602950098E+02  0.73602950098E+02  0.00000000000E+00 0. -1.
         21   -1    0    0  501  502 -0.00000000000E+00 -0.00000000000E+00 -0.13290690830E+04  0.13290690830E+04  0.00000000000E+00 0. -1.
         25    1    1    2    0    0 -0.22762987387E+03  0.13432459247E+03 -0.37864010861E+03  0.47838456023E+03  0.12500000000E+03 0.  0.
         25    1    1    2    0    0  0.22762987387E+03 -0.13432459247E+03 -0.87682602426E+03  0.92428747283E+03  0.12500000000E+03 0.  0.
</event>
<event>
 4    0  0.2219362E-002  0.1859776E+03  0.7546771E-02  0.1162140E+00
         21   -1    0    0  502  501  0.00000000000E+00  0.00000000000E+00  0.22675189327E+02  0.22675189327E+02  0.00000000000E+00 0.  1.
         21   -1    0    0  501  502 -0.00000000000E+00 -0.00000000000E+00 -0.15253532008E+04  0.15253532008E+04  0.00000000000E+00 0.  1.
         25    1    1    2    0    0 -0.13420296871E+03 -0.29832952246E+02 -0.71850749725E+03  0.74214450443E+03  0.12500000000E+03 0.  0.
         25    1    1    2    0    0  0.13420296871E+03  0.29832952246E+02 -0.78417051425E+03  0.80588388573E+03  0.12500000000E+03 0.  0.
</event>
<event>
 4    0  0.2219362E-002  0.3315983E+03  0.7546771E-02  0.1070432E+00
         21   -1    0    0  502  501  0.00000000000E+00  0.00000000000E+00  0.19689382484E+03  0.19689382484E+03  0.00000000000E+00 0. -1.
         21   -1    0    0  501  502 -0.00000000000E+00 -0.00000000000E+00 -0.55846067492E+03  0.55846067492E+03  0.00000000000E+00 0. -1.
         25    1    1    2    0    0  0.24669610057E+03 -0.50790815190E+02  0.19407340938E+02  0.28185158830E+03  0.12500000000E+03 0.  0.
         25    1    1    2    0    0 -0.24669610057E+03  0.50790815190E+02 -0.38097419101E+03  0.47350291146E+03  0.12500000000E+03 0.  0.
</event>
<event>
 4    0  0.2219362E-002  0.1743420E+03  0.7546771E-02  0.1173394E+00
         21   -1    0    0  502  501  0.00000000000E+00  0.00000000000E+00  0.43129499859E+03  0.43129499859E+03  0.00000000000E+00 0. -1.
         21   -1    0    0  501  502 -0.00000000000E+00 -0.00000000000E+00 -0.70474092291E+02  0.70474092291E+02  0.00000000000E+00 0. -1.
         25    1    1    2    0    0  0.72295045126E+02 -0.83426870609E+02  0.10726677512E+03  0.19828710834E+03  0.12500000000E+03 0.  0.
         25    1    1    2    0    0 -0.72295045126E+02  0.83426870609E+02  0.25355413118E+03  0.30348198254E+03  0.12500000000E+03 0.  0.
</event>
<event>
 4    0  0.2219362E-002  0.3095661E+03  0.7546771E-02  0.1080554E+00
         21   -1    0    0  502  501  0.00000000000E+00  0.00000000000E+00  0.82938992438E+03  0.82938992438E+03  0.00000000000E+00 0.  1.
         21   -1    0    0  501  502 -0.00000000000E+00 -0.00000000000E+00 -0.11554418546E+03  0.11554418546E+03  0.00000000000E+00 0.  1.
         25    1    1    2    0    0  0.21919352512E+03 -0.96366148561E+02  0.58775096184E+03  0.64684498080E+03  0.12500000000E+03 0.  0.
         25    1    1    2    0    0 -0.21919352512E+03  0.96366148561E+02  0.12609477708E+03  0.29808912904E+03  0.12500000000E+03 0.  0.
</event>
<event>
 4    0  0.2219362E-002  0.1825602E+03  0.7546771E-02  0.1165348E+00
         21   -1    0    0  502  501  0.00000000000E+00  0.00000000000E+00  0.20908537731E+04  0.20908537731E+04  0.00000000000E+00 0.  1.
         21   -1    0    0  501  502 -0.00000000000E+00 -0.00000000000E+00 -0.15940009059E+02  0.15940009059E+02  0.00000000000E+00 0.  1.
         25    1    1    2    0    0 -0.52552004328E+02 -0.34963546257E+02  0.17133035585E+04  0.17190166510E+04  0.12500000000E+03 0.  0.
         25    1    1    2    0    0  0.52552004328E+02  0.34963546257E+02  0.36161020555E+03  0.38777713121E+03  0.12500000000E+03 0.  0.
</event>
<event>
 4    0  0.2219362E-002  0.2051087E+03  0.7546771E-02  0.1145499E+00
         21   -1    0    0  502  501  0.00000000000E+00  0.00000000000E+00  0.17394303826E+03  0.17394303826E+03  0.00000000000E+00 0. -1.
         21   -1    0    0  501  502 -0.00000000000E+00 -0.00000000000E+00 -0.24185835826E+03  0.24185835826E+03  0.00000000000E+00 0. -1.
         25    1    1    2    0    0 -0.87546674719E+02  0.47033800078E+02 -0.16442645172E+03  0.22921094352E+03  0.12500000000E+03 0.  0.
         25    1    1    2    0    0  0.87546674719E+02 -0.47033800078E+02  0.96511131721E+02  0.18659045300E+03  0.12500000000E+03 0.  0.
</event>
<event>
 4    0  0.2219362E-002  0.1916591E+03  0.7546771E-02  0.1156973E+00
         21   -1    0    0  502  501  0.00000000000E+00  0.00000000000E+00  0.18887353610E+04  0.18887353610E+04  0.00000000000E+00 0.  1.
         21   -1    0    0  501  502 -0.00000000000E+00 -0.00000000000E+00 -0.19448577147E+02  0.19448577147E+02  0.00000000000E+00 0.  1.
         25    1    1    2    0    0  0.41863613125E+02  0.12971375486E+03  0.68425130170E+03  0.70880396739E+03  0.12500000000E+03 0.  0.
         25    1    1    2    0    0 -0.41863613125E+02 -0.12971375486E+03  0.11850354821E+04  0.11993799707E+04  0.12500000000E+03 0.  0.
</event>
<event>
 4    0  0.2219362E-002  0.2014446E+03  0.7546771E-02  0.1148526E+00
         21   -1    0    0  502  501  0.00000000000E+00  0.00000000000E+00  0.21376691074E+02  0.21376691074E+02  0.00000000000E+00 0.  1.
         21   -1    0    0  501  502 -0.00000000000E+00 -0.00000000000E+00 -0.18983256013E+04  0.18983256013E+04  0.00000000000E+00 0.  1.
         25    1    1    2    0    0 -0.81474735808E+02 -0.41057734235E+01 -0.15830487897E+04  0.15900702691E+04  0.12500000000E+03 0.  0.
         25    1    1    2    0    0  0.81474735808E+02  0.41057734235E+01 -0.29390012047E+03  0.32963202327E+03  0.12500000000E+03 0.  0.
</event>
<event>
 4    0  0.2219362E-002  0.2548522E+03  0.7546771E-02  0.1110276E+00
         21   -1    0    0  502  501  0.00000000000E+00  0.00000000000E+00  0.74353647954E+03  0.74353647954E+03  0.00000000000E+00 0. -1.
         21   -1    0    0  501  502 -0.00000000000E+00 -0.00000000000E+00 -0.87352320082E+02  0.87352320082E+02  0.00000000000E+00 0. -1.
         25    1    1    2    0    0 -0.40964268796E+02 -0.20462629689E+03  0.20421608672E+03  0.31761486548E+03  0.12500000000E+03 0.  0.
         25    1    1    2    0    0  0.40964268796E+02  0.20462629689E+03  0.45196807274E+03  0.51327393414E+03  0.12500000000E+03 0.  0.
</event>
<event>
 4    0  0.2219362E-002  0.2906167E+03  0.7546771E-02  0.1090028E+00
         21   -1    0    0  502  501  0.00000000000E+00  0.00000000000E+00  0.12501949622E+04  0.12501949622E+04  0.00000000000E+00 0. -1.
         21   -1    0    0  501  502 -0.00000000000E+00 -0.00000000000E+00 -0.67555917642E+02  0.67555917642E+02  0.00000000000E+00 0. -1.
         25    1    1    2    0    0 -0.14503182936E+01 -0.14192802083E+03  0.10915740704E+04  0.11078378120E+04  0.12500000000E+03 0.  0.
         25    1    1    2    0    0  0.14503182936E+01  0.14192802083E+03  0.91064974100E+02  0.20991306779E+03  0.12500000000E+03 0.  0.
</event>
<event>
 4    0  0.2219362E-002  0.2069394E+03  0.7546771E-02  0.1144013E+00
         21   -1    0    0  502  501  0.00000000000E+00  0.00000000000E+00  0.67233045867E+02  0.67233045867E+02  0.00000000000E+00 0. -1.
         21   -1    0    0  501  502 -0.00000000000E+00 -0.00000000000E+00 -0.63694720316E+03  0.63694720316E+03  0.00000000000E+00 0. -1.
         25    1    1    2    0    0 -0.13092771511E+03  0.89964381527E+02 -0.36024432361E+03  0.41308186746E+03  0.12500000000E+03 0.  0.
         25    1    1    2    0    0  0.13092771511E+03 -0.89964381527E+02 -0.20946983368E+03  0.29109838156E+03  0.12500000000E+03 0.  0.
</event>
<event>
 4    0  0.2219362E-002  0.3071751E+03  0.7546771E-02  0.1081708E+00
         21   -1    0    0  502  501  0.00000000000E+00  0.00000000000E+00  0.12177394048E+03  0.12177394048E+03  0.00000000000E+00 0. -1.
         21   -1    0    0  501  502 -0.00000000000E+00 -0.00000000000E+00 -0.77484991680E+03  0.77484991680E+03  0.00000000000E+00 0. -1.
         25    1    1    2    0    0 -0.23316022738E+03 -0.57166657155E+02 -0.53853687710E+03  0.60272604583E+03  0.12500000000E+03 0.  0.
         25    1    1    2    0    0  0.23316022738E+03  0.57166657155E+02 -0.11453909922E+03  0.29389781145E+03  0.12500000000E+03 0.  0.
</event>
<event>
 4    0  0.2219362E-002  0.1745360E+03  0.7546771E-02  0.1173198E+00
         21   -1    0    0  502  501  0.00000000000E+00  0.00000000000E+00  0.62508186213E+02  0.62508186213E+02  0.00000000000E+00 0. -1.
         21   -1    0    0  501  502 -0.00000000000E+00 -0.00000000000E+00 -0.48734103886E+03  0.48734103886E+03  0.00000000000E+00 0. -1.
         25    1    1    2    0    0 -0.80550153757E+02 -0.70817381453E+02 -0.30337338734E+03  0.34520116009E+03  0.12500000000E+03 0.  0.
         25    1    1    2    0    0  0.80550153757E+02  0.70817381453E+02 -0.12145946531E+03  0.20464806498E+03  0.12500000000E+03 0.  0.
</event>
<event>
 4    0  0.2219362E-002  0.1822009E+03  0.7546771E-02  0.1165690E+00
         21   -1    0    0  502  501  0.00000000000E+00  0.00000000000E+00  0.28685323029E+03  0.28685323029E+03  0.00000000000E+00 0. -1.
         21   -1    0    0  501  502 -0.00000000000E+00 -0.00000000000E+00 -0.11572874659E+03  0.11572874659E+03  0.00000000000E+00 0. -1.
         25    1    1    2    0    0  0.36036652176E+02  0.24607317530E+02  0.22384902623E+03  0.26007219559E+03  0.12500000000E+03 0.  0.
         25    1    1    2    0    0 -0.36036652176E+02 -0.24607317530E+02 -0.52724542536E+02  0.14250978128E+03  0.12500000000E+03 0.  0.
</event>
<event>
 4    0  0.2219362E-002  0.2518705E+03  0.7546771E-02  0.1112128E+00
         21   -1    0    0  502  501  0.00000000000E+00  0.00000000000E+00  0.12251947302E+03  0.12251947302E+03  0.00000000000E+00 0. -1.
         21   -1    0    0  501  502 -0.00000000000E+00 -0.00000000000E+00 -0.51778498282E+03  0.51778498282E+03  0.00000000000E+00 0. -1.
         25    1    1    2    0    0 -0.68885645873E+02 -0.12180401377E+03 -0.41120869234E+03  0.45199451173E+03  0.12500000000E+03 0.  0.
         25    1    1    2    0    0  0.68885645873E+02  0.12180401377E+03  0.15943182542E+02  0.18830994410E+03  0.12500000000E+03 0.  0.
</event>
<event>
 4    0  0.2219362E-002  0.1880396E+03  0.7546771E-02  0.1160241E+00
         21   -1    0    0  502  501  0.00000000000E+00  0.00000000000E+00  0.26555477760E+02  0.26555477760E+02  0.00000000000E+00 0.  1.
         21   -1    0    0  501  502 -0.00000000000E+00 -0.00000000000E+00 -0.13315108770E+04  0.13315108770E+04  0.00000000000E+00 0.  1.
         25    1    1    2    0    0  0.99073467941E+02 -0.18296490689E+02 -0.10059910144E+04  0.10187213724E+04  0.12500000000E+03 0.  0.
         25    1    1    2    0    0 -0.99073467941E+02  0.18296490689E+02 -0.29896438486E+03  0.33934498234E+03  0.12500000000E+03 0.  0.
</event>
<event>
 4    0  0.2219362E-002  0.1925139E+03  0.7546771E-02  0.1156213E+00
         21   -1    0    0  502  501  0.00000000000E+00  0.00000000000E+00  0.21488082172E+03  0.21488082172E+03  0.00000000000E+00 0. -1.
         21   -1    0    0  501  502 -0.00000000000E+00 -0.00000000000E+00 -0.17247509156E+03  0.17247509156E+03  0.00000000000E+00 0. -1.
         25    1    1    2    0    0 -0.49201838829E+01 -0.37314477475E+02  0.16355052427E+03  0.20926144515E+03  0.12500000000E+03 0.  0.
         25    1    1    2    0    0  0.49201838829E+01  0.37314477475E+02 -0.12114479411E+03  0.17809446813E+03  0.12500000000E+03 0.  0.
</event>
<event>
 4    0  0.2219362E-002  0.3833165E+03  0.7546771E-02  0.1049715E+00
         21   -1    0    0  502  501  0.00000000000E+00  0.00000000000E+00  0.20849805711E+04  0.20849805711E+04  0.00000000000E+00 0. -1.
         21   -1    0    0  501  502 -0.00000000000E+00 -0.00000000000E+00 -0.70471428871E+02  0.70471428871E+02  0.00000000000E+00 0. -1.
         25    1    1    2    0    0  0.45844396812E+02  0.22706095472E+03  0.22379527249E+03  0.34549632396E+03  0.12500000000E+03 0.  0.
         25    1    1    2    0    0 -0.45844396812E+02 -0.22706095472E+03  0.17907138697E+04  0.18099556760E+04  0.12500000000E+03 0.  0.
</event>
<event>
 4    0  0.2219362E-002  0.1638187E+03  0.7546771E-02  0.1184452E+00
         21   -1    0    0  502  501  0.00000000000E+00  0.00000000000E+00  0.36648561860E+02  0.36648561860E+02  0.00000000000E+00 0. -1.
         21   -1    0    0  501  502 -0.00000000000E+00 -0.00000000000E+00 -0.73226826194E+03  0.73226826194E+03  0.00000000000E+00 0. -1.
         25    1    1    2    0    0 -0.56506747987E+01  0.52051507701E+01 -0.59565075139E+03  0.60867383824E+03  0.12500000000E+03 0.  0.
         25    1    1    2    0    0  0.56506747987E+01 -0.52051507701E+01 -0.99968948689E+02  0.16024298556E+03  0.12500000000E+03 0.  0.
</event>
<event>
 4    0  0.2219362E-002  0.3223085E+03  0.7546771E-02  0.1074592E+00
         21   -1    0    0  502  501  0.00000000000E+00  0.00000000000E+00  0.66595600943E+03  0.66595600943E+03  0.00000000000E+00 0.  1.
         21   -1    0    0  501  502 -0.00000000000E+00 -0.00000000000E+00 -0.15599048065E+03  0.15599048065E+03  0.00000000000E+00 0.  1.
         25    1    1    2    0    0 -0.18561320234E+03 -0.13240535068E+03  0.49783472338E+03  0.56164744242E+03  0.12500000000E+03 0.  0.
         25    1    1    2    0    0  0.18561320234E+03  0.13240535068E+03  0.12130805402E+02  0.26029904766E+03  0.12500000000E+03 0.  0.
</event>
<event>
 4    0  0.2219362E-002  0.1866780E+03  0.7546771E-02  0.1161492E+00
         21   -1    0    0  502  501  0.00000000000E+00  0.00000000000E+00  0.28900044504E+03  0.28900044504E+03  0.00000000000E+00 0. -1.
         21   -1    0    0  501  502 -0.00000000000E+00 -0.00000000000E+00 -0.12058343941E+03  0.12058343941E+03  0.00000000000E+00 0. -1.
         25    1    1    2    0    0 -0.54432272303E+02  0.31025001434E+02  0.21989623274E+03  0.26058544886E+03  0.12500000000E+03 0.  0.
         25    1    1    2    0    0  0.54432272303E+02 -0.31025001434E+02 -0.51479227112E+02  0.14899843558E+03  0.12500000000E+03 0.  0.
</event>
<event>
 4    0  0.2219362E-002  0.1821653E+03  0.7546771E-02  0.1165724E+00
         21   -1    0    0  502  501  0.00000000000E+00  0.00000000000E+00  0.10189861796E+03  0.10189861796E+03  0.00000000000E+00 0. -1.
         21   -1    0    0  501  502 -0.00000000000E+00 -0.00000000000E+00 -0.32565892311E+03  0.32565892311E+03  0.00000000000E+00 0. -1.
         25    1    1    2    0    0  0.20959653555E+02  0.51365068340E+02 -0.25310332532E+03  0.28768727920E+03  0.12500000000E+03 0.  0.
         25    1    1    2    0    0 -0.20959653555E+02 -0.51365068340E+02  0.29343020181E+02  0.13987026187E+03  0.12500000000E+03 0.  0.
</event>
<event>
 4    0  0.2219362E-002  0.1595607E+03  0.7546771E-02  0.1189194E+00
         21   -1    0    0  502  501  0.00000000000E+00  0.00000000000E+00  0.96588065161E+03  0.96588065161E+03  0.00000000000E+00 0.  1.
         21   -1    0    0  501  502 -0.00000000000E+00 -0.00000000000E+00 -0.26358969054E+02  0.26358969054E+02  0.00000000000E+00 0.  1.
         25    1    1    2    0    0 -0.52384744303E+02  0.53204512789E+02  0.67269352452E+03  0.68827062958E+03  0.12500000000E+03 0.  0.
         25    1    1    2    0    0  0.52384744303E+02 -0.53204512789E+02  0.26682815804E+03  0.30396899108E+03  0.12500000000E+03 0.  0.
</event>
<event>
 4    0  0.2219362E-002  0.1983542E+03  0.7546771E-02  0.1151135E+00
         21   -1    0    0  502  501  0.00000000000E+00  0.00000000000E+00  0.15835707108E+03  0.15835707108E+03  0.00000000000E+00 0.  1.
         21   -1    0    0  501  502 -0.00000000000E+00 -0.00000000000E+00 -0.24845356463E+03  0.24845356463E+03  0.00000000000E+00 0.  1.
         25    1    1    2    0    0  0.29875250149E+01 -0.15164533692E+03 -0.72452264611E+02  0.20947449526E+03  0.12500000000E+03 0.  0.
         25    1    1    2    0    0 -0.29875250149E+01  0.15164533692E+03 -0.17644228942E+02  0.19733614046E+03  0.12500000000E+03 0.  0.
</event>
<event>
 4    0  0.2219362E-002  0.2865662E+03  0.7546771E-02  0.1092156E+00
         21   -1    0    0  502  501  0.00000000000E+00  0.00000000000E+00  0.14659875784E+03  0.14659875784E+03  0.00000000000E+00 0. -1.
         21   -1    0    0  501  502 -0.00000000000E+00 -0.00000000000E+00 -0.56016977175E+03  0.56016977175E+03  0.00000000000E+00 0. -1.
         25    1    1    2    0    0 -0.18622852048E+03  0.15442479702E+03 -0.96714556995E+02  0.28897540606E+03  0.12500000000E+03 0.  0.
         25    1    1    2    0    0  0.18622852048E+03 -0.15442479702E+03 -0.31685645692E+03  0.41779312352E+03  0.12500000000E+03 0.  0.
</event>
<event>
 4    0  0.2219362E-002  0.1660879E+03  0.7546771E-02  0.1181990E+00
         21   -1    0    0  502  501  0.00000000000E+00  0.00000000000E+00  0.35947778619E+02  0.35947778619E+02  0.00000000000E+00 0.  1.
         21   -1    0    0  501  502 -0.00000000000E+00 -0.00000000000E+00 -0.76736809904E+03  0.76736809904E+03  0.00000000000E+00 0.  1.
         25    1    1    2    0    0 -0.88692372849E+02 -0.23912273535E+02 -0.50923130453E+03  0.53233415760E+03  0.12500000000E+03 0.  0.
         25    1    1    2    0    0  0.88692372849E+02  0.23912273535E+02 -0.22218901589E+03  0.27098172006E+03  0.12500000000E+03 0.  0.
</event>
<event>
 4    0  0.2219362E-002  0.1977436E+03  0.7546771E-02  0.1151657E+00
         21   -1    0    0  502  501  0.00000000000E+00  0.00000000000E+00  0.68592846556E+02  0.68592846556E+02  0.00000000000E+00 0.  1.
         21   -1    0    0  501  502 -0.00000000000E+00 -0.00000000000E+00 -0.57006709800E+03  0.57006709800E+03  0.00000000000E+00 0.  1.
         25    1    1    2    0    0 -0.52929337942E+02 -0.12394098448E+03 -0.36846364710E+03  0.41176855354E+03  0.12500000000E+03 0.  0.
         25    1    1    2    0    0  0.52929337942E+02  0.12394098448E+03 -0.13301060435E+03  0.22689139102E+03  0.12500000000E+03 0.  0.
</event>
<event>
 4    0  0.2219362E-002  0.1959995E+03  0.7546771E-02  0.1153159E+00
         21   -1    0    0  502  501  0.00000000000E+00  0.00000000000E+00  0.32565524429E+03  0.32565524429E+03  0.00000000000E+00 0. -1.
         21   -1    0    0  501  502 -0.00000000000E+00 -0.00000000000E+00 -0.11796465036E+03  0.11796465036E+03  0.00000000000E+00 0. -1.
         25    1    1    2    0    0  0.14383041485E+03 -0.45721007809E+02  0.99732393844E+02  0.21988439957E+03  0.12500000000E+03 0.  0.
         25    1    1    2    0    0 -0.14383041485E+03  0.45721007809E+02  0.10795820009E+03  0.22373549508E+03  0.12500000000E+03 0.  0.
</event>
<event>
 4    0  0.2219362E-002  0.1801955E+03  0.7546771E-02  0.1167614E+00
         21   -1    0    0  502  501  0.00000000000E+00  0.00000000000E+00  0.22448681829E+02  0.22448681829E+02  0.00000000000E+00 0. -1.
         21   -1    0    0  501  502 -0.00000000000E+00 -0.00000000000E+00 -0.14464282121E+04  0.14464282121E+04  0.00000000000E+00 0. -1.
         25    1    1    2    0    0 -0.37822274268E+02  0.65352507284E+02 -0.28172996853E+03  0.31732987538E+03  0.12500000000E+03 0.  0.
         25    1    1    2    0    0  0.37822274268E+02 -0.65352507284E+02 -0.11422495618E+04  0.11515470186E+04  0.12500000000E+03 0.  0.
</event>
<event>
 4    0  0.2219362E-002  0.1940783E+03  0.7546771E-02  0.1154834E+00
         21   -1    0    0  502  501  0.00000000000E+00  0.00000000000E+00  0.30095827882E+02  0.30095827882E+02  0.00000000000E+00 0. -1.
         21   -1    0    0  501  502 -0.00000000000E+00 -0.00000000000E+00 -0.12515481886E+04  0.12515481886E+04  0.00000000000E+00 0. -1.
         25    1    1    2    0    0  0.77908102418E+02  0.11410027817E+03 -0.79014992822E+03  0.81181922555E+03  0.12500000000E+03 0.  0.
         25    1    1    2    0    0 -0.77908102418E+02 -0.11410027817E+03 -0.43130243252E+03  0.46982479096E+03  0.12500000000E+03 0.  0.
</event>
<event>
 4    0  0.2219362E-002  0.1507768E+03  0.7546771E-02  0.1199522E+00
         21   -1    0    0  502  501  0.00000000000E+00  0.00000000000E+00  0.15818776252E+03  0.15818776252E+03  0.00000000000E+00 0.  1.
         21   -1    0    0  501  502 -0.00000000000E+00 -0.00000000000E+00 -0.14371304087E+03  0.14371304087E+03  0.00000000000E+00 0.  1.
         25    1    1    2    0    0 -0.42884420696E+02 -0.71739410335E+02 -0.38672016704E+01  0.15041799022E+03  0.12500000000E+03 0.  0.
         25    1    1    2    0    0  0.42884420696E+02  0.71739410335E+02  0.18341923329E+02  0.15148281317E+03  0.12500000000E+03 0.  0.
</event>
<event>
 4    0  0.2219362E-002  0.2194606E+03  0.7546771E-02  0.1134286E+00
         21   -1    0    0  502  501  0.00000000000E+00  0.00000000000E+00  0.23724380108E+03  0.23724380108E+03  0.00000000000E+00 0. -1.
         21   -1    0    0  501  502 -0.00000000000E+00 -0.00000000000E+00 -0.20301040839E+03  0.20301040839E+03  0.00000000000E+00 0. -1.
         25    1    1    2    0    0 -0.51170168600E+02  0.17000161845E+03 -0.14902413085E+02  0.21763735512E+03  0.12500000000E+03 0.  0.
         25    1    1    2    0    0  0.51170168600E+02 -0.17000161845E+03  0.49135805783E+02  0.22261685435E+03  0.12500000000E+03 0.  0.
</event>
<event>
 4    0  0.2219362E-002  0.2646694E+03  0.7546771E-02  0.1104370E+00
         21   -1    0    0  502  501  0.00000000000E+00  0.00000000000E+00  0.36384138908E+03  0.36384138908E+03  0.00000000000E+00 0. -1.
         21   -1    0    0  501  502 -0.00000000000E+00 -0.00000000000E+00 -0.19252863651E+03  0.19252863651E+03  0.00000000000E+00 0. -1.
         25    1    1    2    0    0 -0.18169028853E+03 -0.12152558051E+03 -0.23617701748E-01  0.25180315372E+03  0.12500000000E+03 0.  0.
         25    1    1    2    0    0  0.18169028853E+03  0.12152558051E+03  0.17133637027E+03  0.30456687187E+03  0.12500000000E+03 0.  0.
</event>
<event>
 4    0  0.2219362E-002  0.1526511E+03  0.7546771E-02  0.1197253E+00
         21   -1    0    0  502  501  0.00000000000E+00  0.00000000000E+00  0.80571698678E+02  0.80571698678E+02  0.00000000000E+00 0. -1.
         21   -1    0    0  501  502 -0.00000000000E+00 -0.00000000000E+00 -0.28921285380E+03  0.28921285380E+03  0.00000000000E+00 0. -1.
         25    1    1    2    0    0 -0.59513675233E+01  0.45083189721E+02 -0.13605564070E+02  0.13370872875E+03  0.12500000000E+03 0.  0.
         25    1    1    2    0    0  0.59513675233E+01 -0.45083189721E+02 -0.19503559105E+03  0.23607582373E+03  0.12500000000E+03 0.  0.
</event>
<event>
 4    0  0.2219362E-002  0.1700501E+03  0.7546771E-02  0.1177796E+00
         21   -1    0    0  502  501  0.00000000000E+00  0.00000000000E+00  0.11968304329E+03  0.11968304329E+03  0.00000000000E+00 0. -1.
         21   -1    0    0  501  502 -0.00000000000E+00 -0.00000000000E+00 -0.24161337572E+03  0.24161337572E+03  0.00000000000E+00 0. -1.
         25    1    1    2    0    0  0.41752668003E+02  0.37498836526E+02 -0.16795216380E+03  0.21675418647E+03  0.12500000000E+03 0.  0.
         25    1    1    2    0    0 -0.41752668003E+02 -0.37498836526E+02  0.46021831365E+02  0.14454223254E+03  0.12500000000E+03 0.  0.
</event>
<event>
 4    0  0.2219362E-002  0.1929888E+03  0.7546771E-02  0.1155793E+00
         21   -1    0    0  502  501  0.00000000000E+00  0.00000000000E+00  0.19116364023E+03  0.19116364023E+03  0.00000000000E+00 0. -1.
         21   -1    0    0  501  502 -0.00000000000E+00 -0.00000000000E+00 -0.19483134125E+03  0.19483134125E+03  0.00000000000E+00 0. -1.
         25    1    1    2    0    0 -0.10252097807E+03 -0.98516115052E+02  0.35633726166E+02  0.19264147609E+03  0.12500000000E+03 0.  0.
         25    1    1    2    0    0  0.10252097807E+03  0.98516115052E+02 -0.39301427191E+02  0.19335350539E+03  0.12500000000E+03 0.  0.
</event>
<event>
 4    0  0.2219362E-002  0.2437789E+03  0.7546771E-02  0.1117301E+00
         21   -1    0    0  502  501  0.00000000000E+00  0.00000000000E+00  0.78379952211E+02  0.78379952211E+02  0.00000000000E+00 0. -1.
         21   -1    0    0  501  502 -0.00000000000E+00 -0.00000000000E+00 -0.75820608686E+03  0.75820608686E+03  0.00000000000E+00 0. -1.
         25    1    1    2    0    0  0.13615440894E+02  0.14396798599E+03 -0.59952032401E+03  0.62925494048E+03  0.12500000000E+03 0.  0.
         25    1    1    2    0    0 -0.13615440894E+02 -0.14396798599E+03 -0.80305810641E+02  0.20733109859E+03  0.12500000000E+03 0.  0.
</event>
<event>
 4    0  0.2219362E-002  0.1913241E+03  0.7546771E-02  0.1157273E+00
         21   -1    0    0  502  501  0.00000000000E+00  0.00000000000E+00  0.34016478536E+02  0.34016478536E+02  0.00000000000E+00 0. -1.
         21   -1    0    0  501  502 -0.00000000000E+00 -0.00000000000E+00 -0.10760930096E+04  0.10760930096E+04  0.00000000000E+00 0. -1.
         25    1    1    2    0    0 -0.60718708359E+02  0.42710949030E+02 -0.16021372555E+03  0.21634330257E+03  0.12500000000E+03 0.  0.
         25    1    1    2    0    0  0.60718708359E+02 -0.42710949030E+02 -0.88186280547E+03  0.89376618553E+03  0.12500000000E+03 0.  0.
</event>
<event>
 4    0  0.2219362E-002  0.2652752E+03  0.7546771E-02  0.1104015E+00
         21   -1    0    0  502  501  0.00000000000E+00  0.00000000000E+00  0.20133747729E+03  0.20133747729E+03  0.00000000000E+00 0. -1.
         21   -1    0    0  501  502 -0.00000000000E+00 -0.00000000000E+00 -0.34951742521E+03  0.34951742521E+03  0.00000000000E+00 0. -1.
         25    1    1    2    0    0  0.18840983575E+03 -0.11631700730E+03 -0.15260165065E+03  0.29654708931E+03  0.12500000000E+03 0.  0.
         25    1    1    2    0    0 -0.18840983575E+03  0.11631700730E+03  0.44217027376E+01  0.25430781319E+03  0.12500000000E+03 0.  0.
</event>
<event>
 4    0  0.2219362E-002  0.2224772E+03  0.7546771E-02  0.1132050E+00
         21   -1    0    0  502  501  0.00000000000E+00  0.00000000000E+00  0.30519927229E+03  0.30519927229E+03  0.00000000000E+00 0.  1.
         21   -1    0    0  501  502 -0.00000000000E+00 -0.00000000000E+00 -0.16217635649E+03  0.16217635649E+03  0.00000000000E+00 0.  1.
         25    1    1    2    0    0  0.12003820080E+03  0.49203362709E+02 -0.65607545474E+02  0.19172764687E+03  0.12500000000E+03 0.  0.
         25    1    1    2    0    0 -0.12003820080E+03 -0.49203362709E+02  0.20863046127E+03  0.27564798190E+03  0.12500000000E+03 0.  0.
</event>
<event>
 4    0  0.2219362E-002  0.2516996E+03  0.7546771E-02  0.1112235E+00
         21   -1    0    0  502  501  0.00000000000E+00  0.00000000000E+00  0.74249373298E+03  0.74249373298E+03  0.00000000000E+00 0. -1.
         21   -1    0    0  501  502 -0.00000000000E+00 -0.00000000000E+00 -0.85324238913E+02  0.85324238913E+02  0.00000000000E+00 0.  1.
         25    1    1    2    0    0  0.23503397936E+02 -0.21303673029E+03  0.25899774188E+03  0.35866682097E+03  0.12500000000E+03 0.  0.
         25    1    1    2    0    0 -0.23503397936E+02  0.21303673029E+03  0.39817175219E+03  0.46915115092E+03  0.12500000000E+03 0.  0.
</event>
<event>
 4    0  0.2219362E-002  0.2865979E+03  0.7546771E-02  0.1092139E+00
         21   -1    0    0  502  501  0.00000000000E+00  0.00000000000E+00  0.70461814423E+03  0.70461814423E+03  0.00000000000E+00 0.  1.
         21   -1    0    0  501  502 -0.00000000000E+00 -0.00000000000E+00 -0.11657142772E+03  0.11657142772E+03  0.00000000000E+00 0.  1.
         25    1    1    2    0    0  0.17568684478E+03 -0.18564043907E+03  0.34334284115E+03  0.44591203910E+03  0.12500000000E+03 0.  0.
         25    1    1    2    0    0 -0.17568684478E+03  0.18564043907E+03  0.24470387536E+03  0.37527753285E+03  0.12500000000E+03 0.  0.
</event>
<event>
 4    0  0.2219362E-002  0.2213330E+03  0.7546771E-02  0.1132893E+00
         21   -1    0    0  502  501  0.00000000000E+00  0.00000000000E+00  0.68936462020E+02  0.68936462020E+02  0.00000000000E+00 0. -1.
         21   -1    0    0  501  502 -0.00000000000E+00 -0.00000000000E+00 -0.71062958969E+03  0.71062958969E+03  0.00000000000E+00 0. -1.
         25    1    1    2    0    0  0.10603016244E+03 -0.14711012641E+03 -0.35940979269E+03  0.42152601785E+03  0.12500000000E+03 0.  0.
         25    1    1    2    0    0 -0.10603016244E+03  0.14711012641E+03 -0.28228333498E+03  0.35804003386E+03  0.12500000000E+03 0.  0.
</event>
<event>
 4    0  0.2219362E-002  0.2485325E+03  0.7546771E-02  0.1114236E+00
         21   -1    0    0  502  501  0.00000000000E+00  0.00000000000E+00  0.24649187572E+03  0.24649187572E+03  0.00000000000E+00 0. -1.
         21   -1    0    0  501  502 -0.00000000000E+00 -0.00000000000E+00 -0.25059008663E+03  0.25059008663E+03  0.00000000000E+00 0. -1.
         25    1    1    2    0    0 -0.16587012978E+03 -0.12936376248E+03  0.41490145189E+02  0.24818202018E+03  0.12500000000E+03 0.  0.
         25    1    1    2    0    0  0.16587012978E+03  0.12936376248E+03 -0.45588356097E+02  0.24889994216E+03  0.12500000000E+03 0.  0.
</event>
<event>
 4    0  0.2219362E-002  0.2941374E+03  0.7546771E-02  0.1088209E+00
         21   -1    0    0  502  501  0.00000000000E+00  0.00000000000E+00  0.10586418264E+04  0.10586418264E+04  0.00000000000E+00 0. -1.
         21   -1    0    0  501  502 -0.00000000000E+00 -0.00000000000E+00 -0.81724331407E+02  0.81724331407E+02  0.00000000000E+00 0. -1.
         25    1    1    2    0    0  0.23037395599E+03 -0.13347915088E+03  0.49178942587E+03  0.57303637120E+03  0.12500000000E+03 0.  0.
         25    1    1    2    0    0 -0.23037395599E+03  0.13347915088E+03  0.48512806910E+03  0.56732978658E+03  0.12500000000E+03 0.  0.
</event>
<event>
 4    0  0.2219362E-002  0.3019867E+03  0.7546771E-02  0.1084252E+00
         21   -1    0    0  502  501  0.00000000000E+00  0.00000000000E+00  0.13626524490E+04  0.13626524490E+04  0.00000000000E+00 0. -1.
         21   -1    0    0  501  502 -0.00000000000E+00 -0.00000000000E+00 -0.66925323547E+02  0.66925323547E+02  0.00000000000E+00 0. -1.
         25    1    1    2    0    0 -0.13203014582E+02 -0.18544309140E+03  0.11271792337E+04  0.11492264723E+04  0.12500000000E+03 0.  0.
         25    1    1    2    0    0  0.13203014582E+02  0.18544309140E+03  0.16854789177E+03  0.28035130027E+03  0.12500000000E+03 0.  0.
</event>
<event>
 4    0  0.2219362E-002  0.2370494E+03  0.7546771E-02  0.1121774E+00
         21   -1    0    0  502  501  0.00000000000E+00  0.00000000000E+00  0.70378664001E+02  0.70378664001E+02  0.00000000000E+00 0.  1.
         21   -1    0    0  501  502 -0.00000000000E+00 -0.00000000000E+00 -0.79842956543E+03  0.79842956543E+03  0.00000000000E+00 0.  1.
         25    1    1    2    0    0  0.10863031101E+03 -0.16615048046E+03 -0.42646340772E+03  0.48672637565E+03  0.12500000000E+03 0.  0.
         25    1    1    2    0    0 -0.10863031101E+03  0.16615048046E+03 -0.30158749372E+03  0.38208185379E+03  0.12500000000E+03 0.  0.
</event>
<event>
 4    0  0.2219362E-002  0.1978675E+03  0.7546771E-02  0.1151551E+00
         21   -1    0    0  502  501  0.00000000000E+00  0.00000000000E+00  0.10780934960E+03  0.10780934960E+03  0.00000000000E+00 0.  1.
         21   -1    0    0  501  502 -0.00000000000E+00 -0.00000000000E+00 -0.36315522729E+03  0.36315522729E+03  0.00000000000E+00 0.  1.
         25    1    1    2    0    0  0.10715740812E+03  0.10895644348E+03 -0.11205075090E+03  0.22701230686E+03  0.12500000000E+03 0.  0.
         25    1    1    2    0    0 -0.10715740812E+03 -0.10895644348E+03 -0.14329512679E+03  0.24395227003E+03  0.12500000000E+03 0.  0.
</event>
<event>
 4    0  0.2219362E-002  0.3806970E+03  0.7546771E-02  0.1050676E+00
         21   -1    0    0  502  501  0.00000000000E+00  0.00000000000E+00  0.66848510384E+03  0.66848510384E+03  0.00000000000E+00 0. -1.
         21   -1    0    0  501  502 -0.00000000000E+00 -0.00000000000E+00 -0.21680398477E+03  0.21680398477E+03  0.00000000000E+00 0. -1.
         25    1    1    2    0    0 -0.13789982590E+03 -0.15268479536E+03 -0.11706608232E+03  0.26769100909E+03  0.12500000000E+03 0.  0.
         25    1    1    2    0    0  0.13789982590E+03  0.15268479536E+03  0.56874720140E+03  0.61759807952E+03  0.12500000000E+03 0.  0.
</event>
<event>
 4    0  0.2219362E-002  0.2114384E+03  0.7546771E-02  0.1140432E+00
         21   -1    0    0  502  501  0.00000000000E+00  0.00000000000E+00  0.29005177709E+02  0.29005177709E+02  0.00000000000E+00 0.  1.
         21   -1    0    0  501  502 -0.00000000000E+00 -0.00000000000E+00 -0.15413184875E+04  0.15413184875E+04  0.00000000000E+00 0.  1.
         25    1    1    2    0    0 -0.10035243211E+03  0.77958466895E+01 -0.24497190518E+03  0.29286109367E+03  0.12500000000E+03 0.  0.
         25    1    1    2    0    0  0.10035243211E+03 -0.77958466895E+01 -0.12673414046E+04  0.12774625715E+04  0.12500000000E+03 0.  0.
</event>
<event>
 4    0  0.2219362E-002  0.1965136E+03  0.7546771E-02  0.1152714E+00
         21   -1    0    0  502  501  0.00000000000E+00  0.00000000000E+00  0.30679871773E+03  0.30679871773E+03  0.00000000000E+00 0. -1.
         21   -1    0    0  501  502 -0.00000000000E+00 -0.00000000000E+00 -0.12587267903E+03  0.12587267903E+03  0.00000000000E+00 0. -1.
         25    1    1    2    0    0  0.63431944428E+02 -0.43751307193E+02  0.23422989858E+03  0.27645331224E+03  0.12500000000E+03 0.  0.
         25    1    1    2    0    0 -0.63431944428E+02  0.43751307193E+02 -0.53303859886E+02  0.15621808453E+03  0.12500000000E+03 0.  0.
</event>
<event>
 4    0  0.2219362E-002  0.2024983E+03  0.7546771E-02  0.1147648E+00
         21   -1    0    0  502  501  0.00000000000E+00  0.00000000000E+00  0.28977340315E+03  0.28977340315E+03  0.00000000000E+00 0. -1.
         21   -1    0    0  501  502 -0.00000000000E+00 -0.00000000000E+00 -0.14150901035E+03  0.14150901035E+03  0.00000000000E+00 0. -1.
         25    1    1    2    0    0 -0.11306131984E+03  0.29714035781E+01  0.19361449881E+03  0.25671631314E+03  0.12500000000E+03 0.  0.
         25    1    1    2    0    0  0.11306131984E+03 -0.29714035781E+01 -0.45350106010E+02  0.17456610037E+03  0.12500000000E+03 0.  0.
</event>
<event>
 4    0  0.2219362E-002  0.1752927E+03  0.7546771E-02  0.1172438E+00
         21   -1    0    0  502  501  0.00000000000E+00  0.00000000000E+00  0.43475406634E+03  0.43475406634E+03  0.00000000000E+00 0.  1.
         21   -1    0    0  501  502 -0.00000000000E+00 -0.00000000000E+00 -0.70677979166E+02  0.70677979166E+02  0.00000000000E+00 0.  1.
         25    1    1    2    0    0  0.14429615938E+02 -0.55435949290E+02  0.25291015573E+02  0.13980698752E+03  0.12500000000E+03 0.  0.
         25    1    1    2    0    0 -0.14429615938E+02  0.55435949290E+02  0.33878507160E+03  0.36562505799E+03  0.12500000000E+03 0.  0.
</event>
<event>
 4    0  0.2219362E-002  0.3297775E+03  0.7546771E-02  0.1071235E+00
         21   -1    0    0  502  501  0.00000000000E+00  0.00000000000E+00  0.78156363987E+03  0.78156363987E+03  0.00000000000E+00 0. -1.
         21   -1    0    0  501  502 -0.00000000000E+00 -0.00000000000E+00 -0.13914826028E+03  0.13914826028E+03  0.00000000000E+00 0.  1.
         25    1    1    2    0    0  0.10044562258E+03  0.26367336730E+03  0.48349508436E+03  0.57358997927E+03  0.12500000000E+03 0.  0.
         25    1    1    2    0    0 -0.10044562258E+03 -0.26367336730E+03  0.15892029524E+03  0.34712192088E+03  0.12500000000E+03 0.  0.
</event>
<event>
 4    0  0.2219362E-002  0.2712217E+03  0.7546771E-02  0.1100582E+00
         21   -1    0    0  502  501  0.00000000000E+00  0.00000000000E+00  0.57415268221E+03  0.57415268221E+03  0.00000000000E+00 0.  1.
         21   -1    0    0  501  502 -0.00000000000E+00 -0.00000000000E+00 -0.12812131808E+03  0.12812131808E+03  0.00000000000E+00 0.  1.
         25    1    1    2    0    0  0.85378312339E+01  0.20159598611E+03  0.53113656547E+02  0.24322807545E+03  0.12500000000E+03 0.  0.
         25    1    1    2    0    0 -0.85378312339E+01 -0.20159598611E+03  0.39291770758E+03  0.45904592484E+03  0.12500000000E+03 0.  0.
</event>
<event>
 4    0  0.2219362E-002  0.2185930E+03  0.7546771E-02  0.1134936E+00
         21   -1    0    0  502  501  0.00000000000E+00  0.00000000000E+00  0.71301551668E+02  0.71301551668E+02  0.00000000000E+00 0. -1.
         21   -1    0    0  501  502 -0.00000000000E+00 -0.00000000000E+00 -0.67015219423E+03  0.67015219423E+03  0.00000000000E+00 0.  1.
         25    1    1    2    0    0 -0.51474449529E+02 -0.16728640189E+03 -0.23322750567E+03  0.31726082111E+03  0.12500000000E+03 0.  0.
         25    1    1    2    0    0  0.51474449529E+02  0.16728640189E+03 -0.36562313689E+03  0.42419292479E+03  0.12500000000E+03 0.  0.
</event>
<event>
 4    0  0.2219362E-002  0.1924171E+03  0.7546771E-02  0.1156299E+00
         21   -1    0    0  502  501  0.00000000000E+00  0.00000000000E+00  0.18342988563E+04  0.18342988563E+04  0.00000000000E+00 0.  1.
         21   -1    0    0  501  502 -0.00000000000E+00 -0.00000000000E+00 -0.20184457442E+02  0.20184457442E+02  0.00000000000E+00 0.  1.
         25    1    1    2    0    0 -0.70083750328E+02  0.49337258042E+02  0.14783260128E+04  0.14860749298E+04  0.12500000000E+03 0.  0.
         25    1    1    2    0    0  0.70083750328E+02 -0.49337258042E+02  0.33578838609E+03  0.36840838389E+03  0.12500000000E+03 0.  0.
</event>
<event>
 4    0  0.2219362E-002  0.3234669E+03  0.7546771E-02  0.1074065E+00
         21   -1    0    0  502  501  0.00000000000E+00  0.00000000000E+00  0.11739531160E+03  0.11739531160E+03  0.00000000000E+00 0. -1.
         21   -1    0    0  501  502 -0.00000000000E+00 -0.00000000000E+00 -0.89126933741E+03  0.89126933741E+03  0.00000000000E+00 0. -1.
         25    1    1    2    0    0  0.29447980789E+03 -0.33315175809E+02 -0.44044058528E+03  0.54538167127E+03  0.12500000000E+03 0.  0.
         25    1    1    2    0    0 -0.29447980789E+03  0.33315175809E+02 -0.33343344053E+03  0.46328297774E+03  0.12500000000E+03 0.  0.
</event>
<event>
 4    0  0.2219362E-002  0.2056859E+03  0.7546771E-02  0.1145029E+00
         21   -1    0    0  502  501  0.00000000000E+00  0.00000000000E+00  0.33376098153E+03  0.33376098153E+03  0.00000000000E+00 0.  1.
         21   -1    0    0  501  502 -0.00000000000E+00 -0.00000000000E+00 -0.12675748735E+03  0.12675748735E+03  0.00000000000E+00 0.  1.
         25    1    1    2    0    0 -0.41352690946E+02  0.14763753297E+03  0.40424631443E+02  0.20190601036E+03  0.12500000000E+03 0.  0.
         25    1    1    2    0    0  0.41352690946E+02 -0.14763753297E+03  0.16657886273E+03  0.25861245852E+03  0.12500000000E+03 0.  0.
</event>
<event>
 4    0  0.2219362E-002  0.1939661E+03  0.7546771E-02  0.1154932E+00
         21   -1    0    0  502  501  0.00000000000E+00  0.00000000000E+00  0.64199022133E+03  0.64199022133E+03  0.00000000000E+00 0. -1.
         21   -1    0    0  501  502 -0.00000000000E+00 -0.00000000000E+00 -0.58603480699E+02  0.58603480699E+02  0.00000000000E+00 0. -1.
         25    1    1    2    0    0 -0.16448902214E+02  0.85018304304E+02  0.50915472449E+03  0.53137765470E+03  0.12500000000E+03 0.  0.
         25    1    1    2    0    0  0.16448902214E+02 -0.85018304304E+02  0.74232016141E+02  0.16921604732E+03  0.12500000000E+03 0.  0.
</event>
<event>
 4    0  0.2219362E-002  0.2009321E+03  0.7546771E-02  0.1148955E+00
         21   -1    0    0  502  501  0.00000000000E+00  0.00000000000E+00  0.56712145543E+02  0.56712145543E+02  0.00000000000E+00 0.  1.
         21   -1    0    0  501  502 -0.00000000000E+00 -0.00000000000E+00 -0.71190557762E+03  0.71190557762E+03  0.00000000000E+00 0.  1.
         25    1    1    2    0    0  0.85549024118E+02 -0.16077819798E+02 -0.57822844464E+03  0.59795507023E+03  0.12500000000E+03 0.  0.
         25    1    1    2    0    0 -0.85549024118E+02  0.16077819798E+02 -0.76964987440E+02  0.17066265294E+03  0.12500000000E+03 0.  0.
</event>
<event>
 4    0  0.2219362E-002  0.1867261E+03  0.7546771E-02  0.1161448E+00
         21   -1    0    0  502  501  0.00000000000E+00  0.00000000000E+00  0.10428030655E+03  0.10428030655E+03  0.00000000000E+00 0.  1.
         21   -1    0    0  501  502 -0.00000000000E+00 -0.00000000000E+00 -0.33435507107E+03  0.33435507107E+03  0.00000000000E+00 0.  1.
         25    1    1    2    0    0 -0.68346073163E+02 -0.78426518000E+02 -0.72623851965E+01  0.16278712075E+03  0.12500000000E+03 0.  0.
         25    1    1    2    0    0  0.68346073163E+02  0.78426518000E+02 -0.22281237932E+03  0.27584825687E+03  0.12500000000E+03 0.  0.
</event>
<event>
 4    0  0.2219362E-002  0.3696841E+03  0.7546771E-02  0.1054814E+00
         21   -1    0    0  502  501  0.00000000000E+00  0.00000000000E+00  0.94924800675E+02  0.94924800675E+02  0.00000000000E+00 0.  1.
         21   -1    0    0  501  502 -0.00000000000E+00 -0.00000000000E+00 -0.14397322547E+04  0.14397322547E+04  0.00000000000E+00 0. -1.
         25    1    1    2    0    0  0.30361321739E+03 -0.12118119228E+03 -0.42527754820E+03  0.55077387387E+03  0.12500000000E+03 0.  0.
         25    1    1    2    0    0 -0.30361321739E+03  0.12118119228E+03 -0.91952990580E+03  0.98388318147E+03  0.12500000000E+03 0.  0.
</event>
<event>
 4    0  0.2219362E-002  0.2116838E+03  0.7546771E-02  0.1140239E+00
         21   -1    0    0  502  501  0.00000000000E+00  0.00000000000E+00  0.53079941692E+03  0.53079941692E+03  0.00000000000E+00 0. -1.
         21   -1    0    0  501  502 -0.00000000000E+00 -0.00000000000E+00 -0.84419919705E+02  0.84419919705E+02  0.00000000000E+00 0. -1.
         25    1    1    2    0    0  0.10005306671E+03  0.21131981479E+02  0.24325617109E+02  0.16332150026E+03  0.12500000000E+03 0.  0.
         25    1    1    2    0    0 -0.10005306671E+03 -0.21131981479E+02  0.42205388011E+03  0.45189783637E+03  0.12500000000E+03 0.  0.
</event>
<event>
 4    0  0.2219362E-002  0.2516832E+03  0.7546771E-02  0.1112246E+00
         21   -1    0    0  502  501  0.00000000000E+00  0.00000000000E+00  0.76861961956E+02  0.76861961956E+02  0.00000000000E+00 0.  1.
         21   -1    0    0  501  502 -0.00000000000E+00 -0.00000000000E+00 -0.82413262030E+03  0.82413262030E+03  0.00000000000E+00 0.  1.
         25    1    1    2    0    0  0.12813443853E+03  0.14837546801E+03 -0.20115241905E+03  0.30744269309E+03  0.12500000000E+03 0.  0.
         25    1    1    2    0    0 -0.12813443853E+03 -0.14837546801E+03 -0.54611823930E+03  0.59355188917E+03  0.12500000000E+03 0.  0.
</event>
<event>
 4    0  0.2219362E-002  0.2015023E+03  0.7546771E-02  0.1148478E+00
         21   -1    0    0  502  501  0.00000000000E+00  0.00000000000E+00  0.15526965790E+04  0.15526965790E+04  0.00000000000E+00 0. -1.
         21   -1    0    0  501  502 -0.00000000000E+00 -0.00000000000E+00 -0.26150094012E+02  0.26150094012E+02  0.00000000000E+00 0. -1.
         25    1    1    2    0    0 -0.79709074912E+01  0.10931873347E+03  0.12093403782E+04  0.12207142463E+04  0.12500000000E+03 0.  0.
         25    1    1    2    0    0  0.79709074912E+01 -0.10931873347E+03  0.31720610678E+03  0.35813242667E+03  0.12500000000E+03 0.  0.
</event>
<event>
 4    0  0.2219362E-002  0.4635463E+03  0.7546771E-02  0.1023758E+00
         21   -1    0    0  502  501  0.00000000000E+00  0.00000000000E+00  0.73943235843E+02  0.73943235843E+02  0.00000000000E+00 0. -1.
         21   -1    0    0  501  502 -0.00000000000E+00 -0.00000000000E+00 -0.29059476106E+04  0.29059476106E+04  0.00000000000E+00 0. -1.
         25    1    1    2    0    0 -0.60018101702E+02  0.15067963024E+03 -0.27526886497E+04  0.27602946085E+04  0.12500000000E+03 0.  0.
         25    1    1    2    0    0  0.60018101702E+02 -0.15067963024E+03 -0.79315725132E+02  0.21959623802E+03  0.12500000000E+03 0.  0.
</event>
<event>
 4    0  0.2219362E-002  0.1872270E+03  0.7546771E-02  0.1160986E+00
         21   -1    0    0  502  501  0.00000000000E+00  0.00000000000E+00  0.42892312539E+03  0.42892312539E+03  0.00000000000E+00 0.  1.
         21   -1    0    0  501  502 -0.00000000000E+00 -0.00000000000E+00 -0.81725464836E+02  0.81725464836E+02  0.00000000000E+00 0.  1.
         25    1    1    2    0    0  0.17085824412E+02  0.57816590145E+02  0.22136249234E+01  0.13879691505E+03  0.12500000000E+03 0.  0.
         25    1    1    2    0    0 -0.17085824412E+02 -0.57816590145E+02  0.34498403563E+03  0.37185167518E+03  0.12500000000E+03 0.  0.
</event>
<event>
 4    0  0.2219362E-002  0.3131633E+03  0.7546771E-02  0.1078839E+00
         21   -1    0    0  502  501  0.00000000000E+00  0.00000000000E+00  0.37206102012E+03  0.37206102012E+03  0.00000000000E+00 0.  1.
         21   -1    0    0  501  502 -0.00000000000E+00 -0.00000000000E+00 -0.26358910335E+03  0.26358910335E+03  0.00000000000E+00 0.  1.
         25    1    1    2    0    0 -0.73222759030E+02 -0.22819753843E+03  0.21473737742E+03  0.34521418025E+03  0.12500000000E+03 0.  0.
         25    1    1    2    0    0  0.73222759030E+02  0.22819753843E+03 -0.10626546065E+03  0.29043594322E+03  0.12500000000E+03 0.  0.
</event>
<event>
 4    0  0.2219362E-002  0.1826634E+03  0.7546771E-02  0.1165250E+00
         21   -1    0    0  502  501  0.00000000000E+00  0.00000000000E+00  0.17183154203E+02  0.17183154203E+02  0.00000000000E+00 0.  1.
         21   -1    0    0  501  502 -0.00000000000E+00 -0.00000000000E+00 -0.19417812642E+04  0.19417812642E+04  0.00000000000E+00 0.  1.
         25    1    1    2    0    0  0.12718929927E+03  0.29280270023E+02 -0.81977331578E+03  0.83945681326E+03  0.12500000000E+03 0.  0.
         25    1    1    2    0    0 -0.12718929927E+03 -0.29280270023E+02 -0.11048247942E+04  0.11195076052E+04  0.12500000000E+03 0.  0.
</event>
<event>
 4    0  0.2219362E-002  0.3051195E+03  0.7546771E-02  0.1082709E+00
         21   -1    0    0  502  501  0.00000000000E+00  0.00000000000E+00  0.66943000601E+03  0.66943000601E+03  0.00000000000E+00 0. -1.
         21   -1    0    0  501  502 -0.00000000000E+00 -0.00000000000E+00 -0.13907038937E+03  0.13907038937E+03  0.00000000000E+00 0. -1.
         25    1    1    2    0    0 -0.21952513735E+03  0.14985346575E+03  0.15572144043E+03  0.33244776152E+03  0.12500000000E+03 0.  0.
         25    1    1    2    0    0  0.21952513735E+03 -0.14985346575E+03  0.37463817621E+03  0.47605263386E+03  0.12500000000E+03 0.  0.
</event>
<event>
 4    0  0.2219362E-002  0.1808714E+03  0.7546771E-02  0.1166962E+00
         21   -1    0    0  502  501  0.00000000000E+00  0.00000000000E+00  0.62104987180E+03  0.62104987180E+03  0.00000000000E+00 0.  1.
         21   -1    0    0  501  502 -0.00000000000E+00 -0.00000000000E+00 -0.52676040926E+02  0.52676040926E+02  0.00000000000E+00 0.  1.
         25    1    1    2    0    0 -0.38912794841E+02 -0.47833466417E+02  0.69502643394E+02  0.15574936132E+03  0.12500000000E+03 0.  0.
         25    1    1    2    0    0  0.38912794841E+02  0.47833466417E+02  0.49887118748E+03  0.51797655141E+03  0.12500000000E+03 0.  0.
</event>
<event>
 4    0  0.2219362E-002  0.2540766E+03  0.7546771E-02  0.1110755E+00
         21   -1    0    0  502  501  0.00000000000E+00  0.00000000000E+00  0.31272397342E+02  0.31272397342E+02  0.00000000000E+00 0.  1.
         21   -1    0    0  501  502 -0.00000000000E+00 -0.00000000000E+00 -0.20642786483E+04  0.20642786483E+04  0.00000000000E+00 0.  1.
         25    1    1    2    0    0  0.94911694109E+02 -0.17102060886E+03 -0.14425528215E+04  0.14611091408E+04  0.12500000000E+03 0.  0.
         25    1    1    2    0    0 -0.94911694109E+02  0.17102060886E+03 -0.59045342940E+03  0.63444190485E+03  0.12500000000E+03 0.  0.
</event>
<event>
 4    0  0.2219362E-002  0.2637433E+03  0.7546771E-02  0.1104915E+00
         21   -1    0    0  502  501  0.00000000000E+00  0.00000000000E+00  0.18563633938E+04  0.18563633938E+04  0.00000000000E+00 0.  1.
         21   -1    0    0  501  502 -0.00000000000E+00 -0.00000000000E+00 -0.37471393676E+02  0.37471393676E+02  0.00000000000E+00 0.  1.
         25    1    1    2    0    0  0.22732489852E+03 -0.47001224785E+02  0.93478214985E+03  0.97125094198E+03  0.12500000000E+03 0.  0.
         25    1    1    2    0    0 -0.22732489852E+03  0.47001224785E+02  0.88410985029E+03  0.92258384551E+03  0.12500000000E+03 0.  0.
</event>
<event>
 4    0  0.2219362E-002  0.2090128E+03  0.7546771E-02  0.1142350E+00
         21   -1    0    0  502  501  0.00000000000E+00  0.00000000000E+00  0.14224396560E+03  0.14224396560E+03  0.00000000000E+00 0.  1.
         21   -1    0    0  501  502 -0.00000000000E+00 -0.00000000000E+00 -0.30712282781E+03  0.30712282781E+03  0.00000000000E+00 0.  1.
         25    1    1    2    0    0  0.60105829831E+02 -0.68391250292E+02  0.68713149021E+02  0.16922343438E+03  0.12500000000E+03 0.  0.
         25    1    1    2    0    0 -0.60105829831E+02  0.68391250292E+02 -0.23359201123E+03  0.28014335903E+03  0.12500000000E+03 0.  0.
</event>
<event>
 4    0  0.2219362E-002  0.2868695E+03  0.7546771E-02  0.1091995E+00
         21   -1    0    0  502  501  0.00000000000E+00  0.00000000000E+00  0.17489319643E+03  0.17489319643E+03  0.00000000000E+00 0.  1.
         21   -1    0    0  501  502 -0.00000000000E+00 -0.00000000000E+00 -0.47053925780E+03  0.47053925780E+03  0.00000000000E+00 0.  1.
         25    1    1    2    0    0  0.88068753990E+01 -0.14751736337E+03  0.90365947849E+02  0.21361165249E+03  0.12500000000E+03 0.  0.
         25    1    1    2    0    0 -0.88068753990E+01  0.14751736337E+03 -0.38601200922E+03  0.43182080173E+03  0.12500000000E+03 0.  0.
</event>
<event>
 4    0  0.2219362E-002  0.2175881E+03  0.7546771E-02  0.1135694E+00
         21   -1    0    0  502  501  0.00000000000E+00  0.00000000000E+00  0.46019214119E+02  0.46019214119E+02  0.00000000000E+00 0.  1.
         21   -1    0    0  501  502 -0.00000000000E+00 -0.00000000000E+00 -0.10288006208E+04  0.10288006208E+04  0.00000000000E+00 0.  1.
         25    1    1    2    0    0 -0.14214401943E+03  0.69880067076E+02 -0.69251971496E+03  0.72131595133E+03  0.12500000000E+03 0.  0.
         25    1    1    2    0    0  0.14214401943E+03 -0.69880067076E+02 -0.29026169174E+03  0.35350388361E+03  0.12500000000E+03 0.  0.
</event>
<event>
 4    0  0.2219362E-002  0.2054485E+03  0.7546771E-02  0.1145222E+00
         21   -1    0    0  502  501  0.00000000000E+00  0.00000000000E+00  0.22915950666E+03  0.22915950666E+03  0.00000000000E+00 0. -1.
         21   -1    0    0  501  502 -0.00000000000E+00 -0.00000000000E+00 -0.18419094612E+03  0.18419094612E+03  0.00000000000E+00 0. -1.
         25    1    1    2    0    0 -0.46648908065E+02  0.12090344794E+03 -0.77052657299E+02  0.19584656327E+03  0.12500000000E+03 0.  0.
         25    1    1    2    0    0  0.46648908065E+02 -0.12090344794E+03  0.12202121784E+03  0.21750388951E+03  0.12500000000E+03 0.  0.
</event>
<event>
 4    0  0.2219362E-002  0.2458212E+03  0.7546771E-02  0.1115975E+00
         21   -1    0    0  502  501  0.00000000000E+00  0.00000000000E+00  0.47512761842E+02  0.47512761842E+02  0.00000000000E+00 0.  1.
         21   -1    0    0  501  502 -0.00000000000E+00 -0.00000000000E+00 -0.12718281435E+04  0.12718281435E+04  0.00000000000E+00 0.  1.
         25    1    1    2    0    0  0.17895610655E+03  0.49015351305E+02 -0.33881498712E+03  0.40601525616E+03  0.12500000000E+03 0.  0.
         25    1    1    2    0    0 -0.17895610655E+03 -0.49015351305E+02 -0.88550039449E+03  0.91332564914E+03  0.12500000000E+03 0.  0.
</event>
<event>
 4    0  0.2219362E-002  0.2629798E+03  0.7546771E-02  0.1105366E+00
         21   -1    0    0  502  501  0.00000000000E+00  0.00000000000E+00  0.69167380746E+02  0.69167380746E+02  0.00000000000E+00 0. -1.
         21   -1    0    0  501  502 -0.00000000000E+00 -0.00000000000E+00 -0.99986950248E+03  0.99986950248E+03  0.00000000000E+00 0. -1.
         25    1    1    2    0    0  0.10060393515E+03 -0.18140079424E+02 -0.88723602092E+03  0.90181093976E+03  0.12500000000E+03 0.  0.
         25    1    1    2    0    0 -0.10060393515E+03  0.18140079424E+02 -0.43466100812E+02  0.16722594347E+03  0.12500000000E+03 0.  0.
</event>
<event>
 4    0  0.2219362E-002  0.1962357E+03  0.7546771E-02  0.1152954E+00
         21   -1    0    0  502  501  0.00000000000E+00  0.00000000000E+00  0.28054045208E+02  0.28054045208E+02  0.00000000000E+00 0.  1.
         21   -1    0    0  501  502 -0.00000000000E+00 -0.00000000000E+00 -0.13726523216E+04  0.13726523216E+04  0.00000000000E+00 0.  1.
         25    1    1    2    0    0  0.33245920528E+01  0.91805712759E+02 -0.11012271970E+04  0.11120996724E+04  0.12500000000E+03 0.  0.
         25    1    1    2    0    0 -0.33245920528E+01 -0.91805712759E+02 -0.24337107940E+03  0.28860669447E+03  0.12500000000E+03 0.  0.
</event>
<event>
 4    0  0.2219362E-002  0.2404446E+03  0.7546771E-02  0.1119497E+00
         21   -1    0    0  502  501  0.00000000000E+00  0.00000000000E+00  0.23164520464E+03  0.23164520464E+03  0.00000000000E+00 0.  1.
         21   -1    0    0  501  502 -0.00000000000E+00 -0.00000000000E+00 -0.24957818861E+03  0.24957818861E+03  0.00000000000E+00 0.  1.
         25    1    1    2    0    0 -0.14278298978E+03  0.13335704219E+03 -0.72394361358E+02  0.24297536178E+03  0.12500000000E+03 0.  0.
         25    1    1    2    0    0  0.14278298978E+03 -0.13335704219E+03  0.54461377385E+02  0.23824803147E+03  0.12500000000E+03 0.  0.
</event>
<event>
 4    0  0.2219362E-002  0.4668059E+03  0.7546771E-02  0.1022826E+00
         21   -1    0    0  502  501  0.00000000000E+00  0.00000000000E+00  0.60976306663E+03  0.60976306663E+03  0.00000000000E+00 0. -1.
         21   -1    0    0  501  502 -0.00000000000E+00 -0.00000000000E+00 -0.35736468855E+03  0.35736468855E+03  0.00000000000E+00 0. -1.
         25    1    1    2    0    0  0.44929819642E+03  0.91516560732E+01  0.10737640603E+03  0.47865155874E+03  0.12500000000E+03 0.  0.
         25    1    1    2    0    0 -0.44929819642E+03 -0.91516560732E+01  0.14502197205E+03  0.48847619644E+03  0.12500000000E+03 0.  0.
</event>
<event>
 4    0  0.2219362E-002  0.2642811E+03  0.7546771E-02  0.1104598E+00
         21   -1    0    0  502  501  0.00000000000E+00  0.00000000000E+00  0.13593989635E+03  0.13593989635E+03  0.00000000000E+00 0.  1.
         21   -1    0    0  501  502 -0.00000000000E+00 -0.00000000000E+00 -0.51378962180E+03  0.51378962180E+03  0.00000000000E+00 0.  1.
         25    1    1    2    0    0  0.20683503731E+03  0.33818765928E+02 -0.31364915435E+03  0.39739807953E+03  0.12500000000E+03 0.  0.
         25    1    1    2    0    0 -0.20683503731E+03 -0.33818765928E+02 -0.64200571109E+02  0.25233143863E+03  0.12500000000E+03 0.  0.
</event>
<event>
 4    0  0.2219362E-002  0.2687384E+03  0.7546771E-02  0.1102004E+00
         21   -1    0    0  502  501  0.00000000000E+00  0.00000000000E+00  0.39819119769E+03  0.39819119769E+03  0.00000000000E+00 0. -1.
         21   -1    0    0  501  502 -0.00000000000E+00 -0.00000000000E+00 -0.18137101811E+03  0.18137101811E+03  0.00000000000E+00 0. -1.
         25    1    1    2    0    0  0.14530846280E+03 -0.69509292670E+02 -0.80367411739E+02  0.21915750500E+03  0.12500000000E+03 0.  0.
         25    1    1    2    0    0 -0.14530846280E+03  0.69509292670E+02  0.29718759132E+03  0.36040471079E+03  0.12500000000E+03 0.  0.
</event>
<event>
 4    0  0.2219362E-002  0.2344003E+03  0.7546771E-02  0.1123580E+00
         21   -1    0    0  502  501  0.00000000000E+00  0.00000000000E+00  0.51901639406E+02  0.51901639406E+02  0.00000000000E+00 0. -1.
         21   -1    0    0  501  502 -0.00000000000E+00 -0.00000000000E+00 -0.10586081002E+04  0.10586081002E+04  0.00000000000E+00 0. -1.
         25    1    1    2    0    0  0.18575142720E+03  0.33756598605E+02 -0.64696375066E+03  0.68544160606E+03  0.12500000000E+03 0.  0.
         25    1    1    2    0    0 -0.18575142720E+03 -0.33756598605E+02 -0.35974271010E+03  0.42506813351E+03  0.12500000000E+03 0.  0.
</event>
<event>
 4    0  0.2219362E-002  0.1990361E+03  0.7546771E-02  0.1150555E+00
         21   -1    0    0  502  501  0.00000000000E+00  0.00000000000E+00  0.63259804609E+03  0.63259804609E+03  0.00000000000E+00 0.  1.
         21   -1    0    0  501  502 -0.00000000000E+00 -0.00000000000E+00 -0.62623270414E+02  0.62623270414E+02  0.00000000000E+00 0.  1.
         25    1    1    2    0    0 -0.20342395032E+02 -0.11200721225E+03  0.10155866144E+03  0.19722725558E+03  0.12500000000E+03 0.  0.
         25    1    1    2    0    0  0.20342395032E+02  0.11200721225E+03  0.46841611424E+03  0.49799406092E+03  0.12500000000E+03 0.  0.
</event>
<event>
 4    0  0.2219362E-002  0.1591267E+03  0.7546771E-02  0.1189686E+00
         21   -1    0    0  502  501  0.00000000000E+00  0.00000000000E+00  0.11675280862E+04  0.11675280862E+04  0.00000000000E+00 0.  1.
         21   -1    0    0  501  502 -0.00000000000E+00 -0.00000000000E+00 -0.21687969850E+02  0.21687969850E+02  0.00000000000E+00 0.  1.
         25    1    1    2    0    0  0.72575284373E+02  0.48197655971E+02  0.40143352147E+03  0.42937635951E+03  0.12500000000E+03 0.  0.
         25    1    1    2    0    0 -0.72575284373E+02 -0.48197655971E+02  0.74440659492E+03  0.75983969659E+03  0.12500000000E+03 0.  0.
</event>
<event>
 4    0  0.2219362E-002  0.2228936E+03  0.7546771E-02  0.1131744E+00
         21   -1    0    0  502  501  0.00000000000E+00  0.00000000000E+00  0.43360400636E+03  0.43360400636E+03  0.00000000000E+00 0. -1.
         21   -1    0    0  501  502 -0.00000000000E+00 -0.00000000000E+00 -0.11457818027E+03  0.11457818027E+03  0.00000000000E+00 0. -1.
         25    1    1    2    0    0  0.14168063848E+03 -0.76346911345E+02  0.27055580505E+03  0.33871477357E+03  0.12500000000E+03 0.  0.
         25    1    1    2    0    0 -0.14168063848E+03  0.76346911345E+02  0.48470021051E+02  0.20946741306E+03  0.12500000000E+03 0.  0.
</event>
<event>
 4    0  0.2219362E-002  0.1560076E+03  0.7546771E-02  0.1193279E+00
         21   -1    0    0  502  501  0.00000000000E+00  0.00000000000E+00  0.18933439153E+03  0.18933439153E+03  0.00000000000E+00 0. -1.
         21   -1    0    0  501  502 -0.00000000000E+00 -0.00000000000E+00 -0.12854705746E+03  0.12854705746E+03  0.00000000000E+00 0. -1.
         25    1    1    2    0    0 -0.24336269370E+02  0.62343740466E+02 -0.35901890781E+02  0.14626326177E+03  0.12500000000E+03 0.  0.
         25    1    1    2    0    0  0.24336269370E+02 -0.62343740466E+02  0.96689224854E+02  0.17161818722E+03  0.12500000000E+03 0.  0.
</event>
<event>
 4    0  0.2219362E-002  0.1787994E+03  0.7546771E-02  0.1168970E+00
         21   -1    0    0  502  501  0.00000000000E+00  0.00000000000E+00  0.11670068749E+03  0.11670068749E+03  0.00000000000E+00 0. -1.
         21   -1    0    0  501  502 -0.00000000000E+00 -0.00000000000E+00 -0.27394202727E+03  0.27394202727E+03  0.00000000000E+00 0. -1.
         25    1    1    2    0    0 -0.22773591405E+02  0.65541424539E+02 -0.19592029309E+03  0.24253675194E+03  0.12500000000E+03 0.  0.
         25    1    1    2    0    0  0.22773591405E+02 -0.65541424539E+02  0.38678953309E+02  0.14810596283E+03  0.12500000000E+03 0.  0.
</event>
<event>
 4    0  0.2219362E-002  0.2081448E+03  0.7546771E-02  0.1143044E+00
         21   -1    0    0  502  501  0.00000000000E+00  0.00000000000E+00  0.29712091278E+02  0.29712091278E+02  0.00000000000E+00 0.  1.
         21   -1    0    0  501  502 -0.00000000000E+00 -0.00000000000E+00 -0.14581350154E+04  0.14581350154E+04  0.00000000000E+00 0.  1.
         25    1    1    2    0    0  0.56432060775E+00 -0.94408039863E+02 -0.22434185045E+03  0.27361919214E+03  0.12500000000E+03 0.  0.
         25    1    1    2    0    0 -0.56432060775E+00  0.94408039863E+02 -0.12040810737E+04  0.12142279145E+04  0.12500000000E+03 0.  0.
</event>
<event>
 4    0  0.2219362E-002  0.2997375E+03  0.7546771E-02  0.1085372E+00
         21   -1    0    0  502  501  0.00000000000E+00  0.00000000000E+00  0.18614341418E+04  0.18614341418E+04  0.00000000000E+00 0.  1.
         21   -1    0    0  501  502 -0.00000000000E+00 -0.00000000000E+00 -0.48265252686E+02  0.48265252686E+02  0.00000000000E+00 0.  1.
         25    1    1    2    0    0 -0.24106200493E+03  0.11665147067E+03  0.74733108499E+03  0.80364619481E+03  0.12500000000E+03 0.  0.
         25    1    1    2    0    0  0.24106200493E+03 -0.11665147067E+03  0.10658378041E+04  0.11060531997E+04  0.12500000000E+03 0.  0.
</event>
<event>
 4    0  0.2219362E-002  0.2761731E+03  0.7546771E-02  0.1097798E+00
         21   -1    0    0  502  501  0.00000000000E+00  0.00000000000E+00  0.66996062895E+03  0.66996062895E+03  0.00000000000E+00 0.  1.
         21   -1    0    0  501  502 -0.00000000000E+00 -0.00000000000E+00 -0.11384490690E+03  0.11384490690E+03  0.00000000000E+00 0.  1.
         25    1    1    2    0    0 -0.11080196397E+03 -0.18614972001E+03  0.44426103352E+03  0.50982512628E+03  0.12500000000E+03 0.  0.
         25    1    1    2    0    0  0.11080196397E+03  0.18614972001E+03  0.11185468853E+03  0.27398040957E+03  0.12500000000E+03 0.  0.
</event>
<event>
 4    0  0.2219362E-002  0.1978175E+03  0.7546771E-02  0.1151594E+00
         21   -1    0    0  502  501  0.00000000000E+00  0.00000000000E+00  0.47791151256E+03  0.47791151256E+03  0.00000000000E+00 0.  1.
         21   -1    0    0  501  502 -0.00000000000E+00 -0.00000000000E+00 -0.81880771117E+02  0.81880771117E+02  0.00000000000E+00 0.  1.
         25    1    1    2    0    0  0.60529886616E+02 -0.12725070030E+03  0.11253077278E+03  0.21941919406E+03  0.12500000000E+03 0.  0.
         25    1    1    2    0    0 -0.60529886616E+02  0.12725070030E+03  0.28349996867E+03  0.34037308962E+03  0.12500000000E+03 0.  0.
</event>
<event>
 4    0  0.2219362E-002  0.1723791E+03  0.7546771E-02  0.1175389E+00
         21   -1    0    0  502  501  0.00000000000E+00  0.00000000000E+00  0.22736829155E+03  0.22736829155E+03  0.00000000000E+00 0.  1.
         21   -1    0    0  501  502 -0.00000000000E+00 -0.00000000000E+00 -0.13068909138E+03  0.13068909138E+03  0.00000000000E+00 0.  1.
         25    1    1    2    0    0  0.48709001990E+02  0.39643336325E+01  0.16068481198E+03  0.20936306173E+03  0.12500000000E+03 0.  0.
         25    1    1    2    0    0 -0.48709001990E+02 -0.39643336325E+01 -0.64005611806E+02  0.14869432120E+03  0.12500000000E+03 0.  0.
</event>
<event>
 4    0  0.2219362E-002  0.1624605E+03  0.7546771E-02  0.1185947E+00
         21   -1    0    0  502  501  0.00000000000E+00  0.00000000000E+00  0.11907470551E+04  0.11907470551E+04  0.00000000000E+00 0.  1.
         21   -1    0    0  501  502 -0.00000000000E+00 -0.00000000000E+00 -0.22165424992E+02  0.22165424992E+02  0.00000000000E+00 0.  1.
         25    1    1    2    0    0  0.58859577065E+02 -0.59903999505E+02  0.81183140748E+03  0.82568043040E+03  0.12500000000E+03 0.  0.
         25    1    1    2    0    0 -0.58859577065E+02  0.59903999505E+02  0.35675022267E+03  0.38723204973E+03  0.12500000000E+03 0.  0.
</event>
<event>
 4    0  0.2219362E-002  0.3633432E+03  0.7546771E-02  0.1057268E+00
         21   -1    0    0  502  501  0.00000000000E+00  0.00000000000E+00  0.20900498379E+03  0.20900498379E+03  0.00000000000E+00 0.  1.
         21   -1    0    0  501  502 -0.00000000000E+00 -0.00000000000E+00 -0.63165147909E+03  0.63165147909E+03  0.00000000000E+00 0.  1.
         25    1    1    2    0    0  0.21895041785E+03  0.19778785594E+03 -0.13190154860E+02  0.32071529683E+03  0.12500000000E+03 0.  0.
         25    1    1    2    0    0 -0.21895041785E+03 -0.19778785594E+03 -0.40945634044E+03  0.51994116606E+03  0.12500000000E+03 0.  0.
</event>
<event>
 4    0  0.2219362E-002  0.1926954E+03  0.7546771E-02  0.1156052E+00
         21   -1    0    0  502  501  0.00000000000E+00  0.00000000000E+00  0.13978894173E+03  0.13978894173E+03  0.00000000000E+00 0.  1.
         21   -1    0    0  501  502 -0.00000000000E+00 -0.00000000000E+00 -0.26562554909E+03  0.26562554909E+03  0.00000000000E+00 0.  1.
         25    1    1    2    0    0  0.58234724171E+02  0.34164464321E+02  0.74030244823E+02  0.16019978424E+03  0.12500000000E+03 0.  0.
         25    1    1    2    0    0 -0.58234724171E+02 -0.34164464321E+02 -0.19986685218E+03  0.24521470658E+03  0.12500000000E+03 0.  0.
</event>
<event>
 4    0  0.2219362E-002  0.1909788E+03  0.7546771E-02  0.1157581E+00
         21   -1    0    0  502  501  0.00000000000E+00  0.00000000000E+00  0.45055409792E+02  0.45055409792E+02  0.00000000000E+00 0. -1.
         21   -1    0    0  501  502 -0.00000000000E+00 -0.00000000000E+00 -0.80951210686E+03  0.80951210686E+03  0.00000000000E+00 0. -1.
         25    1    1    2    0    0 -0.34699392617E+02 -0.10685731847E+03 -0.17931583187E+03  0.24576757703E+03  0.12500000000E+03 0.  0.
         25    1    1    2    0    0  0.34699392617E+02  0.10685731847E+03 -0.58514086520E+03  0.60879993962E+03  0.12500000000E+03 0.  0.
</event>
<event>
 4    0  0.2219362E-002  0.1717603E+03  0.7546771E-02  0.1176024E+00
         21   -1    0    0  502  501  0.00000000000E+00  0.00000000000E+00  0.55973099302E+02  0.55973099302E+02  0.00000000000E+00 0.  1.
         21   -1    0    0  501  502 -0.00000000000E+00 -0.00000000000E+00 -0.52706777656E+03  0.52706777656E+03  0.00000000000E+00 0.  1.
         25    1    1    2    0    0 -0.60541439258E+01 -0.11668968979E+03 -0.21017467600E+03  0.27101942881E+03  0.12500000000E+03 0.  0.
         25    1    1    2    0    0  0.60541439258E+01  0.11668968979E+03 -0.26092000126E+03  0.31202144705E+03  0.12500000000E+03 0.  0.
</event>
<event>
 4    0  0.2219362E-002  0.2218381E+03  0.7546771E-02  0.1132520E+00
         21   -1    0    0  502  501  0.00000000000E+00  0.00000000000E+00  0.12242351763E+03  0.12242351763E+03  0.00000000000E+00 0.  1.
         21   -1    0    0  501  502 -0.00000000000E+00 -0.00000000000E+00 -0.40198273594E+03  0.40198273594E+03  0.00000000000E+00 0.  1.
         25    1    1    2    0    0 -0.17646575673E+03  0.26933691129E+02 -0.18882091271E+03  0.28834688154E+03  0.12500000000E+03 0.  0.
         25    1    1    2    0    0  0.17646575673E+03 -0.26933691129E+02 -0.90738305594E+02  0.23605937202E+03  0.12500000000E+03 0.  0.
</event>
<event>
 4    0  0.2219362E-002  0.2668128E+03  0.7546771E-02  0.1103118E+00
         21   -1    0    0  502  501  0.00000000000E+00  0.00000000000E+00  0.50187272504E+03  0.50187272504E+03  0.00000000000E+00 0. -1.
         21   -1    0    0  501  502 -0.00000000000E+00 -0.00000000000E+00 -0.14184685659E+03  0.14184685659E+03  0.00000000000E+00 0. -1.
         25    1    1    2    0    0 -0.69259670965E+02  0.40915228324E+02 -0.87269454850E+02  0.17237144683E+03  0.12500000000E+03 0.  0.
         25    1    1    2    0    0  0.69259670965E+02 -0.40915228324E+02  0.44729532330E+03  0.47134813480E+03  0.12500000000E+03 0.  0.
</event>
<event>
 4    0  0.2219362E-002  0.1896277E+03  0.7546771E-02  0.1158798E+00
         21   -1    0    0  502  501  0.00000000000E+00  0.00000000000E+00  0.60816508709E+03  0.60816508709E+03  0.00000000000E+00 0. -1.
         21   -1    0    0  501  502 -0.00000000000E+00 -0.00000000000E+00 -0.59126516920E+02  0.59126516920E+02  0.00000000000E+00 0. -1.
         25    1    1    2    0    0 -0.13146152595E+03  0.32072885171E+02  0.35365433724E+03  0.39875706015E+03  0.12500000000E+03 0.  0.
         25    1    1    2    0    0  0.13146152595E+03 -0.32072885171E+02  0.19538423293E+03  0.26853454386E+03  0.12500000000E+03 0.  0.
</event>
<event>
 4    0  0.2219362E-002  0.2209190E+03  0.7546771E-02  0.1133200E+00
         21   -1    0    0  502  501  0.00000000000E+00  0.00000000000E+00  0.47078930086E+03  0.47078930086E+03  0.00000000000E+00 0.  1.
         21   -1    0    0  501  502 -0.00000000000E+00 -0.00000000000E+00 -0.10366674158E+03  0.10366674158E+03  0.00000000000E+00 0. -1.
         25    1    1    2    0    0 -0.83687978345E+02  0.15010947224E+03  0.10508059250E+03  0.23707269412E+03  0.12500000000E+03 0.  0.
         25    1    1    2    0    0  0.83687978345E+02 -0.15010947224E+03  0.26204196678E+03  0.33738334833E+03  0.12500000000E+03 0.  0.
</event>
<event>
 4    0  0.2219362E-002  0.1750082E+03  0.7546771E-02  0.1172723E+00
         21   -1    0    0  502  501  0.00000000000E+00  0.00000000000E+00  0.17500608440E+03  0.17500608440E+03  0.00000000000E+00 0. -1.
         21   -1    0    0  501  502 -0.00000000000E+00 -0.00000000000E+00 -0.17501039400E+03  0.17501039400E+03  0.00000000000E+00 0. -1.
         25    1    1    2    0    0 -0.95235453047E+02 -0.71034153507E+02  0.29784441203E+02  0.17500787245E+03  0.12500000000E+03 0.  0.
         25    1    1    2    0    0  0.95235453047E+02  0.71034153507E+02 -0.29788750806E+02  0.17500860595E+03  0.12500000000E+03 0.  0.
</event>
<event>
 4    0  0.2219362E-002  0.2686236E+03  0.7546771E-02  0.1102070E+00
         21   -1    0    0  502  501  0.00000000000E+00  0.00000000000E+00  0.46986766740E+03  0.46986766740E+03  0.00000000000E+00 0. -1.
         21   -1    0    0  501  502 -0.00000000000E+00 -0.00000000000E+00 -0.15357221726E+03  0.15357221726E+03  0.00000000000E+00 0. -1.
         25    1    1    2    0    0  0.23524641289E+03  0.22953004846E+02  0.12820258236E+03  0.29652759961E+03  0.12500000000E+03 0.  0.
         25    1    1    2    0    0 -0.23524641289E+03 -0.22953004846E+02  0.18809286778E+03  0.32691228505E+03  0.12500000000E+03 0.  0.
</event>
<event>
 4    0  0.2219362E-002  0.1731343E+03  0.7546771E-02  0.1174618E+00
         21   -1    0    0  502  501  0.00000000000E+00  0.00000000000E+00  0.17026918783E+03  0.17026918783E+03  0.00000000000E+00 0.  1.
         21   -1    0    0  501  502 -0.00000000000E+00 -0.00000000000E+00 -0.17604766029E+03  0.17604766029E+03  0.00000000000E+00 0.  1.
         25    1    1    2    0    0 -0.36824555380E+02 -0.97932826211E+02 -0.61237789395E+02  0.17413199930E+03  0.12500000000E+03 0.  0.
         25    1    1    2    0    0  0.36824555380E+02  0.97932826211E+02  0.55459316939E+02  0.17218484882E+03  0.12500000000E+03 0.  0.
</event>
<event>
 4    0  0.2219362E-002  0.1743837E+03  0.7546771E-02  0.1173352E+00
         21   -1    0    0  502  501  0.00000000000E+00  0.00000000000E+00  0.40414153174E+02  0.40414153174E+02  0.00000000000E+00 0.  1.
         21   -1    0    0  501  502 -0.00000000000E+00 -0.00000000000E+00 -0.75245136570E+03  0.75245136570E+03  0.00000000000E+00 0.  1.
         25    1    1    2    0    0 -0.67700306244E+02 -0.99415732883E+02 -0.39654940509E+03  0.43283166484E+03  0.12500000000E+03 0.  0.
         25    1    1    2    0    0  0.67700306244E+02  0.99415732883E+02 -0.31548780743E+03  0.36003385403E+03  0.12500000000E+03 0.  0.
</event>
<event>
 4    0  0.2219362E-002  0.1726080E+03  0.7546771E-02  0.1175155E+00
         21   -1    0    0  502  501  0.00000000000E+00  0.00000000000E+00  0.29332442254E+03  0.29332442254E+03  0.00000000000E+00 0. -1.
         21   -1    0    0  501  502 -0.00000000000E+00 -0.00000000000E+00 -0.10157187260E+03  0.10157187260E+03  0.00000000000E+00 0. -1.
         25    1    1    2    0    0 -0.10443220663E+03 -0.24860129825E+02  0.37052117299E+02  0.16888449080E+03  0.12500000000E+03 0.  0.
         25    1    1    2    0    0  0.10443220663E+03  0.24860129825E+02  0.15470043264E+03  0.22601180433E+03  0.12500000000E+03 0.  0.
</event>
<event>
 4    0  0.2219362E-002  0.2809624E+03  0.7546771E-02  0.1095164E+00
         21   -1    0    0  502  501  0.00000000000E+00  0.00000000000E+00  0.15832450461E+03  0.15832450461E+03  0.00000000000E+00 0.  1.
         21   -1    0    0  501  502 -0.00000000000E+00 -0.00000000000E+00 -0.49859538837E+03  0.49859538837E+03  0.00000000000E+00 0.  1.
         25    1    1    2    0    0  0.16272858767E+03  0.14551688618E+03 -0.31642649423E+03  0.40423567836E+03  0.12500000000E+03 0.  0.
         25    1    1    2    0    0 -0.16272858767E+03 -0.14551688618E+03 -0.23844389532E+02  0.25268421462E+03  0.12500000000E+03 0.  0.
</event>
<event>
 4    0  0.2219362E-002  0.3216480E+03  0.7546771E-02  0.1074893E+00
         21   -1    0    0  502  501  0.00000000000E+00  0.00000000000E+00  0.68893777307E+02  0.68893777307E+02  0.00000000000E+00 0.  1.
         21   -1    0    0  501  502 -0.00000000000E+00 -0.00000000000E+00 -0.15016953135E+04  0.15016953135E+04  0.00000000000E+00 0.  1.
         25    1    1    2    0    0 -0.10006669469E+03 -0.27380952841E+03 -0.84668161804E+03  0.90414587516E+03  0.12500000000E+03 0.  0.
         25    1    1    2    0    0  0.10006669469E+03  0.27380952841E+03 -0.58611991815E+03  0.66644321564E+03  0.12500000000E+03 0.  0.
</event>
<event>
 4    0  0.2219362E-002  0.1965308E+03  0.7546771E-02  0.1152699E+00
         21   -1    0    0  502  501  0.00000000000E+00  0.00000000000E+00  0.20333155496E+03  0.20333155496E+03  0.00000000000E+00 0.  1.
         21   -1    0    0  501  502 -0.00000000000E+00 -0.00000000000E+00 -0.18995757769E+03  0.18995757769E+03  0.00000000000E+00 0.  1.
         25    1    1    2    0    0 -0.21166796546E+02 -0.94450201452E+02  0.12350426466E+03  0.20061699135E+03  0.12500000000E+03 0.  0.
         25    1    1    2    0    0  0.21166796546E+02  0.94450201452E+02 -0.11013028740E+03  0.19267214130E+03  0.12500000000E+03 0.  0.
</event>
<event>
 4    0  0.2219362E-002  0.2621826E+03  0.7546771E-02  0.1105839E+00
         21   -1    0    0  502  501  0.00000000000E+00  0.00000000000E+00  0.72776263875E+02  0.72776263875E+02  0.00000000000E+00 0. -1.
         21   -1    0    0  501  502 -0.00000000000E+00 -0.00000000000E+00 -0.94453515452E+03  0.94453515452E+03  0.00000000000E+00 0. -1.
         25    1    1    2    0    0 -0.12107887974E+03 -0.19605550500E+03 -0.44385114703E+03  0.51548685423E+03  0.12500000000E+03 0.  0.
         25    1    1    2    0    0  0.12107887974E+03  0.19605550500E+03 -0.42790774362E+03  0.50182456417E+03  0.12500000000E+03 0.  0.
</event>
<event>
 4    0  0.2219362E-002  0.2114414E+03  0.7546771E-02  0.1140430E+00
         21   -1    0    0  502  501  0.00000000000E+00  0.00000000000E+00  0.95667595292E+02  0.95667595292E+02  0.00000000000E+00 0. -1.
         21   -1    0    0  501  502 -0.00000000000E+00 -0.00000000000E+00 -0.46732109556E+03  0.46732109556E+03  0.00000000000E+00 0. -1.
         25    1    1    2    0    0 -0.70020809618E+02  0.72701982513E+02 -0.36882268112E+03  0.40229797681E+03  0.12500000000E+03 0.  0.
         25    1    1    2    0    0  0.70020809618E+02 -0.72701982513E+02 -0.28308191484E+01  0.16069071404E+03  0.12500000000E+03 0.  0.
</event>
<event>
 4    0  0.2219362E-002  0.2605786E+03  0.7546771E-02  0.1106796E+00
         21   -1    0    0  502  501  0.00000000000E+00  0.00000000000E+00  0.20020013898E+03  0.20020013898E+03  0.00000000000E+00 0. -1.
         21   -1    0    0  501  502 -0.00000000000E+00 -0.00000000000E+00 -0.33916658711E+03  0.33916658711E+03  0.00000000000E+00 0. -1.
         25    1    1    2    0    0  0.14868685529E+03 -0.67642518078E+02  0.96084334198E+02  0.22702530799E+03  0.12500000000E+03 0.  0.
         25    1    1    2    0    0 -0.14868685529E+03  0.67642518078E+02 -0.23505078233E+03  0.31234141810E+03  0.12500000000E+03 0.  0.
</event>
<event>
 4    0  0.2219362E-002  0.1881985E+03  0.7546771E-02  0.1160096E+00
         21   -1    0    0  502  501  0.00000000000E+00  0.00000000000E+00  0.15976801196E+03  0.15976801196E+03  0.00000000000E+00 0.  1.
         21   -1    0    0  501  502 -0.00000000000E+00 -0.00000000000E+00 -0.22168815580E+03  0.22168815580E+03  0.00000000000E+00 0.  1.
         25    1    1    2    0    0 -0.78092698026E+02 -0.11686418235E+03 -0.24715323714E+02  0.18971440069E+03  0.12500000000E+03 0.  0.
         25    1    1    2    0    0  0.78092698026E+02  0.11686418235E+03 -0.37204820118E+02  0.19174176708E+03  0.12500000000E+03 0.  0.
</event>
<event>
 4    0  0.2219362E-002  0.2102979E+03  0.7546771E-02  0.1141330E+00
         21   -1    0    0  502  501  0.00000000000E+00  0.00000000000E+00  0.56505373723E+02  0.56505373723E+02  0.00000000000E+00 0.  1.
         21   -1    0    0  501  502 -0.00000000000E+00 -0.00000000000E+00 -0.78267253040E+03  0.78267253040E+03  0.00000000000E+00 0.  1.
         25    1    1    2    0    0 -0.14119985314E+03  0.66050943056E+01 -0.54831815136E+03  0.57987828112E+03  0.12500000000E+03 0.  0.
         25    1    1    2    0    0  0.14119985314E+03 -0.66050943056E+01 -0.17784900531E+03  0.25929962300E+03  0.12500000000E+03 0.  0.
</event>
<event>
 4    0  0.2219362E-002  0.2307149E+03  0.7546771E-02  0.1126138E+00
         21   -1    0    0  502  501  0.00000000000E+00  0.00000000000E+00  0.23539523185E+03  0.23539523185E+03  0.00000000000E+00 0. -1.
         21   -1    0    0  501  502 -0.00000000000E+00 -0.00000000000E+00 -0.22612767494E+03  0.22612767494E+03  0.00000000000E+00 0. -1.
         25    1    1    2    0    0  0.11504609865E+03  0.10711461043E+03  0.11821385427E+03  0.23304218486E+03  0.12500000000E+03 0.  0.
         25    1    1    2    0    0 -0.11504609865E+03 -0.10711461043E+03 -0.10894629737E+03  0.22848072193E+03  0.12500000000E+03 0.  0.
</event>
<event>
 4    0  0.2219362E-002  0.5366845E+03  0.7546771E-02  0.1004624E+00
         21   -1    0    0  502  501  0.00000000000E+00  0.00000000000E+00  0.22265707422E+04  0.22265707422E+04  0.00000000000E+00 0. -1.
         21   -1    0    0  501  502 -0.00000000000E+00 -0.00000000000E+00 -0.12936046243E+03  0.12936046243E+03  0.00000000000E+00 0. -1.
         25    1    1    2    0    0  0.76080983997E+02 -0.10473553618E+03  0.21583783752E+04  0.21658670456E+04  0.12500000000E+03 0.  0.
         25    1    1    2    0    0 -0.76080983997E+02  0.10473553618E+03 -0.61168095408E+02  0.19006415906E+03  0.12500000000E+03 0.  0.
</event>
<event>
 4    0  0.2219362E-002  0.2312555E+03  0.7546771E-02  0.1125759E+00
         21   -1    0    0  502  501  0.00000000000E+00  0.00000000000E+00  0.92548610805E+02  0.92548610805E+02  0.00000000000E+00 0.  1.
         21   -1    0    0  501  502 -0.00000000000E+00 -0.00000000000E+00 -0.57784883731E+03  0.57784883731E+03  0.00000000000E+00 0.  1.
         25    1    1    2    0    0  0.89557742190E+02 -0.29329531565E+02  0.40726602932E+01  0.15659628722E+03  0.12500000000E+03 0.  0.
         25    1    1    2    0    0 -0.89557742190E+02  0.29329531565E+02 -0.48937288680E+03  0.51380116090E+03  0.12500000000E+03 0.  0.
</event>
<event>
 4    0  0.2219362E-002  0.2908295E+03  0.7546771E-02  0.1089917E+00
         21   -1    0    0  502  501  0.00000000000E+00  0.00000000000E+00  0.74715786863E+03  0.74715786863E+03  0.00000000000E+00 0. -1.
         21   -1    0    0  501  502 -0.00000000000E+00 -0.00000000000E+00 -0.11320475824E+03  0.11320475824E+03  0.00000000000E+00 0. -1.
         25    1    1    2    0    0 -0.95047992543E+02 -0.17110254572E+02  0.67817445346E+03  0.69632784738E+03  0.12500000000E+03 0.  0.
         25    1    1    2    0    0  0.95047992543E+02  0.17110254572E+02 -0.44221343076E+02  0.16403477949E+03  0.12500000000E+03 0.  0.
</event>
<event>
 4    0  0.2219362E-002  0.2353315E+03  0.7546771E-02  0.1122942E+00
         21   -1    0    0  502  501  0.00000000000E+00  0.00000000000E+00  0.47297462457E+02  0.47297462457E+02  0.00000000000E+00 0. -1.
         21   -1    0    0  501  502 -0.00000000000E+00 -0.00000000000E+00 -0.11709067421E+04  0.11709067421E+04  0.00000000000E+00 0. -1.
         25    1    1    2    0    0 -0.99257613887E+02  0.16646158507E+03 -0.44055892902E+03  0.49727125712E+03  0.12500000000E+03 0.  0.
         25    1    1    2    0    0  0.99257613887E+02 -0.16646158507E+03 -0.68305035067E+03  0.72093294748E+03  0.12500000000E+03 0.  0.
</event>
<event>
 4    0  0.2219362E-002  0.1890684E+03  0.7546771E-02  0.1159304E+00
         21   -1    0    0  502  501  0.00000000000E+00  0.00000000000E+00  0.33350157855E+03  0.33350157855E+03  0.00000000000E+00 0. -1.
         21   -1    0    0  501  502 -0.00000000000E+00 -0.00000000000E+00 -0.10718648286E+03  0.10718648286E+03  0.00000000000E+00 0. -1.
         25    1    1    2    0    0  0.55229737833E+02 -0.95611955261E+02  0.93770022411E+01  0.16704759232E+03  0.12500000000E+03 0.  0.
         25    1    1    2    0    0 -0.55229737833E+02  0.95611955261E+02  0.21693809345E+03  0.27364046908E+03  0.12500000000E+03 0.  0.
</event>
<event>
 4    0  0.2219362E-002  0.3694788E+03  0.7546771E-02  0.1054892E+00
         21   -1    0    0  502  501  0.00000000000E+00  0.00000000000E+00  0.20723701841E+03  0.20723701841E+03  0.00000000000E+00 0. -1.
         21   -1    0    0  501  502 -0.00000000000E+00 -0.00000000000E+00 -0.65873658713E+03  0.65873658713E+03  0.00000000000E+00 0. -1.
         25    1    1    2    0    0  0.22109262250E+03 -0.25177887209E+03 -0.33452105553E+03  0.48969774836E+03  0.12500000000E+03 0.  0.
         25    1    1    2    0    0 -0.22109262250E+03  0.25177887209E+03 -0.11697851319E+03  0.37627585719E+03  0.12500000000E+03 0.  0.
</event>
<event>
 4    0  0.2219362E-002  0.2585649E+03  0.7546771E-02  0.1108009E+00
         21   -1    0    0  502  501  0.00000000000E+00  0.00000000000E+00  0.71683555786E+03  0.71683555786E+03  0.00000000000E+00 0. -1.
         21   -1    0    0  501  502 -0.00000000000E+00 -0.00000000000E+00 -0.93265173245E+02  0.93265173245E+02  0.00000000000E+00 0. -1.
         25    1    1    2    0    0  0.17534285868E+03  0.10839097266E+03  0.45821262618E+03  0.51776204171E+03  0.12500000000E+03 0.  0.
         25    1    1    2    0    0 -0.17534285868E+03 -0.10839097266E+03  0.16535775844E+03  0.29233868940E+03  0.12500000000E+03 0.  0.
</event>
<event>
 4    0  0.2219362E-002  0.2597693E+03  0.7546771E-02  0.1107282E+00
         21   -1    0    0  502  501  0.00000000000E+00  0.00000000000E+00  0.16863831988E+03  0.16863831988E+03  0.00000000000E+00 0.  1.
         21   -1    0    0  501  502 -0.00000000000E+00 -0.00000000000E+00 -0.40014671938E+03  0.40014671938E+03  0.00000000000E+00 0.  1.
         25    1    1    2    0    0  0.28458000745E+02 -0.12526662939E+03 -0.32160213541E+03  0.36817729390E+03  0.12500000000E+03 0.  0.
         25    1    1    2    0    0 -0.28458000745E+02  0.12526662939E+03  0.90093735914E+02  0.20060774535E+03  0.12500000000E+03 0.  0.
</event>
<event>
 4    0  0.2219362E-002  0.1810768E+03  0.7546771E-02  0.1166765E+00
         21   -1    0    0  502  501  0.00000000000E+00  0.00000000000E+00  0.43284578650E+02  0.43284578650E+02  0.00000000000E+00 0.  1.
         21   -1    0    0  501  502 -0.00000000000E+00 -0.00000000000E+00 -0.75751717876E+03  0.75751717876E+03  0.00000000000E+00 0.  1.
         25    1    1    2    0    0 -0.99819518053E+02 -0.78820231978E+02 -0.42659393686E+03  0.46236776717E+03  0.12500000000E+03 0.  0.
         25    1    1    2    0    0  0.99819518053E+02  0.78820231978E+02 -0.28763866325E+03  0.33843399024E+03  0.12500000000E+03 0.  0.
</event>
<event>
 4    0  0.2219362E-002  0.1950637E+03  0.7546771E-02  0.1153972E+00
         21   -1    0    0  502  501  0.00000000000E+00  0.00000000000E+00  0.27358555161E+03  0.27358555161E+03  0.00000000000E+00 0. -1.
         21   -1    0    0  501  502 -0.00000000000E+00 -0.00000000000E+00 -0.13907837428E+03  0.13907837428E+03  0.00000000000E+00 0. -1.
         25    1    1    2    0    0  0.14481776551E+03 -0.19064706046E+02  0.32344295290E+02  0.19495333201E+03  0.12500000000E+03 0.  0.
         25    1    1    2    0    0 -0.14481776551E+03  0.19064706046E+02  0.10216288204E+03  0.21771059389E+03  0.12500000000E+03 0.  0.
</event>
<event>
 4    0  0.2219362E-002  0.2249013E+03  0.7546771E-02  0.1130281E+00
         21   -1    0    0  502  501  0.00000000000E+00  0.00000000000E+00  0.17490420256E+03  0.17490420256E+03  0.00000000000E+00 0. -1.
         21   -1    0    0  501  502 -0.00000000000E+00 -0.00000000000E+00 -0.28919038049E+03  0.28919038049E+03  0.00000000000E+00 0. -1.
         25    1    1    2    0    0 -0.16817429437E+02  0.18154478244E+03 -0.99862494741E+02  0.24256721093E+03  0.12500000000E+03 0.  0.
         25    1    1    2    0    0  0.16817429437E+02 -0.18154478244E+03 -0.14423683190E+02  0.22152737212E+03  0.12500000000E+03 0.  0.
</event>
<event>
 4    0  0.2219362E-002  0.2338742E+03  0.7546771E-02  0.1123942E+00
         21   -1    0    0  502  501  0.00000000000E+00  0.00000000000E+00  0.10504393475E+03  0.10504393475E+03  0.00000000000E+00 0.  1.
         21   -1    0    0  501  502 -0.00000000000E+00 -0.00000000000E+00 -0.52070743338E+03  0.52070743338E+03  0.00000000000E+00 0.  1.
         25    1    1    2    0    0 -0.99888986199E+02  0.15829817474E+03 -0.12284192207E+03  0.25642008406E+03  0.12500000000E+03 0.  0.
         25    1    1    2    0    0  0.99888986199E+02 -0.15829817474E+03 -0.29282157656E+03  0.36933128407E+03  0.12500000000E+03 0.  0.
</event>
<event>
 4    0  0.2219362E-002  0.1461606E+03  0.7546771E-02  0.1205272E+00
         21   -1    0    0  502  501  0.00000000000E+00  0.00000000000E+00  0.29949594548E+03  0.29949594548E+03  0.00000000000E+00 0.  1.
         21   -1    0    0  501  502 -0.00000000000E+00 -0.00000000000E+00 -0.71329554106E+02  0.71329554106E+02  0.00000000000E+00 0.  1.
         25    1    1    2    0    0 -0.72321840597E+02  0.22004584661E+02  0.10796488233E+03  0.18164819347E+03  0.12500000000E+03 0.  0.
         25    1    1    2    0    0  0.72321840597E+02 -0.22004584661E+02  0.12020150904E+03  0.18917730612E+03  0.12500000000E+03 0.  0.
</event>
<event>
 4    0  0.2219362E-002  0.1855442E+03  0.7546771E-02  0.1162543E+00
         21   -1    0    0  502  501  0.00000000000E+00  0.00000000000E+00  0.15297201017E+02  0.15297201017E+02  0.00000000000E+00 0. -1.
         21   -1    0    0  501  502 -0.00000000000E+00 -0.00000000000E+00 -0.22505184316E+04  0.22505184316E+04  0.00000000000E+00 0. -1.
         25    1    1    2    0    0  0.13250600983E+03 -0.38540862636E+01 -0.13316590078E+04  0.13440659990E+04  0.12500000000E+03 0.  0.
         25    1    1    2    0    0 -0.13250600983E+03  0.38540862636E+01 -0.90356222277E+03  0.92174963360E+03  0.12500000000E+03 0.  0.
</event>
<event>
 4    0  0.2219362E-002  0.1952847E+03  0.7546771E-02  0.1153779E+00
         21   -1    0    0  502  501  0.00000000000E+00  0.00000000000E+00  0.41751811154E+02  0.41751811154E+02  0.00000000000E+00 0. -1.
         21   -1    0    0  501  502 -0.00000000000E+00 -0.00000000000E+00 -0.91340057661E+03  0.91340057661E+03  0.00000000000E+00 0. -1.
         25    1    1    2    0    0  0.95688795678E+02 -0.11473216930E+03 -0.40199877728E+03  0.44670777162E+03  0.12500000000E+03 0.  0.
         25    1    1    2    0    0 -0.95688795678E+02  0.11473216930E+03 -0.46964998817E+03  0.50844461614E+03  0.12500000000E+03 0.  0.
</event>
<event>
 4    0  0.2219362E-002  0.4318424E+03  0.7546771E-02  0.1033280E+00
         21   -1    0    0  502  501  0.00000000000E+00  0.00000000000E+00  0.72191355100E+02  0.72191355100E+02  0.00000000000E+00 0.  1.
         21   -1    0    0  501  502 -0.00000000000E+00 -0.00000000000E+00 -0.25832430780E+04  0.25832430780E+04  0.00000000000E+00 0.  1.
         25    1    1    2    0    0 -0.14241733679E+03 -0.29456749078E+02 -0.24451486323E+04  0.24526571779E+04  0.12500000000E+03 0.  0.
         25    1    1    2    0    0  0.14241733679E+03  0.29456749078E+02 -0.65903090512E+02  0.20277725519E+03  0.12500000000E+03 0.  0.
</event>
<event>
 4    0  0.2219362E-002  0.2794990E+03  0.7546771E-02  0.1095963E+00
         21   -1    0    0  502  501  0.00000000000E+00  0.00000000000E+00  0.30921243527E+03  0.30921243527E+03  0.00000000000E+00 0.  1.
         21   -1    0    0  501  502 -0.00000000000E+00 -0.00000000000E+00 -0.25264091644E+03  0.25264091644E+03  0.00000000000E+00 0.  1.
         25    1    1    2    0    0  0.14346713895E+03 -0.12130202364E+03  0.19404541933E+03  0.29761657491E+03  0.12500000000E+03 0.  0.
         25    1    1    2    0    0 -0.14346713895E+03  0.12130202364E+03 -0.13747390050E+03  0.26423677681E+03  0.12500000000E+03 0.  0.
</event>
<event>
 4    0  0.2219362E-002  0.1829406E+03  0.7546771E-02  0.1164987E+00
         21   -1    0    0  502  501  0.00000000000E+00  0.00000000000E+00  0.11459408140E+03  0.11459408140E+03  0.00000000000E+00 0.  1.
         21   -1    0    0  501  502 -0.00000000000E+00 -0.00000000000E+00 -0.29205040730E+03  0.29205040730E+03  0.00000000000E+00 0.  1.
         25    1    1    2    0    0 -0.98596734064E+02  0.35547017957E+01 -0.18880641183E+03  0.24699557288E+03  0.12500000000E+03 0.  0.
         25    1    1    2    0    0  0.98596734064E+02 -0.35547017957E+01  0.11350085932E+02  0.15964891582E+03  0.12500000000E+03 0.  0.
</event>
<event>
 4    0  0.2219362E-002  0.2061454E+03  0.7546771E-02  0.1144655E+00
         21   -1    0    0  502  501  0.00000000000E+00  0.00000000000E+00  0.53164811037E+02  0.53164811037E+02  0.00000000000E+00 0.  1.
         21   -1    0    0  501  502 -0.00000000000E+00 -0.00000000000E+00 -0.79932454175E+03  0.79932454175E+03  0.00000000000E+00 0.  1.
         25    1    1    2    0    0 -0.13540461131E+03 -0.68831854102E+02 -0.50051907199E+03  0.53778859632E+03  0.12500000000E+03 0.  0.
         25    1    1    2    0    0  0.13540461131E+03  0.68831854102E+02 -0.24564065872E+03  0.31470075647E+03  0.12500000000E+03 0.  0.
</event>
<event>
 4    0  0.2219362E-002  0.2322552E+03  0.7546771E-02  0.1125062E+00
         21   -1    0    0  502  501  0.00000000000E+00  0.00000000000E+00  0.24866689552E+03  0.24866689552E+03  0.00000000000E+00 0. -1.
         21   -1    0    0  501  502 -0.00000000000E+00 -0.00000000000E+00 -0.21692673301E+03  0.21692673301E+03  0.00000000000E+00 0. -1.
         25    1    1    2    0    0 -0.98591802308E+02  0.12494580148E+03 -0.98350456169E+02  0.22501024203E+03  0.12500000000E+03 0.  0.
         25    1    1    2    0    0  0.98591802308E+02 -0.12494580148E+03  0.13009061868E+03  0.24058338650E+03  0.12500000000E+03 0.  0.
</event>
<event>
 4    0  0.2219362E-002  0.2570592E+03  0.7546771E-02  0.1108923E+00
         21   -1    0    0  502  501  0.00000000000E+00  0.00000000000E+00  0.41099336941E+02  0.41099336941E+02  0.00000000000E+00 0.  1.
         21   -1    0    0  501  502 -0.00000000000E+00 -0.00000000000E+00 -0.16077984713E+04  0.16077984713E+04  0.00000000000E+00 0.  1.
         25    1    1    2    0    0 -0.20052556144E+02 -0.62859154482E+02 -0.14719797397E+04  0.14787503956E+04  0.12500000000E+03 0.  0.
         25    1    1    2    0    0  0.20052556144E+02  0.62859154482E+02 -0.94719394630E+02  0.17014741264E+03  0.12500000000E+03 0.  0.
</event>
<event>
 4    0  0.2219362E-002  0.2136117E+03  0.7546771E-02  0.1138737E+00
         21   -1    0    0  502  501  0.00000000000E+00  0.00000000000E+00  0.15698686304E+03  0.15698686304E+03  0.00000000000E+00 0. -1.
         21   -1    0    0  501  502 -0.00000000000E+00 -0.00000000000E+00 -0.29066087525E+03  0.29066087525E+03  0.00000000000E+00 0. -1.
         25    1    1    2    0    0  0.14901102426E+03 -0.41579826496E+02 -0.14848380671E+03  0.24820477066E+03  0.12500000000E+03 0.  0.
         25    1    1    2    0    0 -0.14901102426E+03  0.41579826496E+02  0.14809794505E+02  0.19944296763E+03  0.12500000000E+03 0.  0.
</event>
<event>
 4    0  0.2219362E-002  0.2019105E+03  0.7546771E-02  0.1148137E+00
         21   -1    0    0  502  501  0.00000000000E+00  0.00000000000E+00  0.22978203640E+03  0.22978203640E+03  0.00000000000E+00 0.  1.
         21   -1    0    0  501  502 -0.00000000000E+00 -0.00000000000E+00 -0.17741959906E+03  0.17741959906E+03  0.00000000000E+00 0.  1.
         25    1    1    2    0    0  0.95764576904E+02 -0.94038705469E+02  0.11131971765E+03  0.21454885657E+03  0.12500000000E+03 0.  0.
         25    1    1    2    0    0 -0.95764576904E+02  0.94038705469E+02 -0.58957280314E+02  0.19265277890E+03  0.12500000000E+03 0.  0.
</event>
<event>
 4    0  0.2219362E-002  0.3714566E+03  0.7546771E-02  0.1054137E+00
         21   -1    0    0  502  501  0.00000000000E+00  0.00000000000E+00  0.69113730503E+03  0.69113730503E+03  0.00000000000E+00 0.  1.
         21   -1    0    0  501  502 -0.00000000000E+00 -0.00000000000E+00 -0.19964190855E+03  0.19964190855E+03  0.00000000000E+00 0.  1.
         25    1    1    2    0    0  0.20226493598E+03  0.23786454945E+03  0.43481671638E+03  0.54971012821E+03  0.12500000000E+03 0.  0.
         25    1    1    2    0    0 -0.20226493598E+03 -0.23786454945E+03  0.56678680104E+02  0.34106908536E+03  0.12500000000E+03 0.  0.
</event>
<event>
 4    0  0.2219362E-002  0.1482304E+03  0.7546771E-02  0.1202665E+00
         21   -1    0    0  502  501  0.00000000000E+00  0.00000000000E+00  0.38089617601E+03  0.38089617601E+03  0.00000000000E+00 0. -1.
         21   -1    0    0  501  502 -0.00000000000E+00 -0.00000000000E+00 -0.57685636599E+02  0.57685636599E+02  0.00000000000E+00 0. -1.
         25    1    1    2    0    0 -0.66406748366E+02 -0.43937761348E+02  0.15773183359E+03  0.21643639812E+03  0.12500000000E+03 0.  0.
         25    1    1    2    0    0  0.66406748366E+02  0.43937761348E+02  0.16547870581E+03  0.22214541449E+03  0.12500000000E+03 0.  0.
</event>
<event>
 4    0  0.2219362E-002  0.1886660E+03  0.7546771E-02  0.1159670E+00
         21   -1    0    0  502  501  0.00000000000E+00  0.00000000000E+00  0.36737387437E+02  0.36737387437E+02  0.00000000000E+00 0. -1.
         21   -1    0    0  501  502 -0.00000000000E+00 -0.00000000000E+00 -0.96890040411E+03  0.96890040411E+03  0.00000000000E+00 0. -1.
         25    1    1    2    0    0  0.11734243574E+03  0.54983314430E+02 -0.31585113087E+03  0.36356477960E+03  0.12500000000E+03 0.  0.
         25    1    1    2    0    0 -0.11734243574E+03 -0.54983314430E+02 -0.61631188581E+03  0.64207301195E+03  0.12500000000E+03 0.  0.
</event>
<event>
 4    0  0.2219362E-002  0.2064089E+03  0.7546771E-02  0.1144442E+00
         21   -1    0    0  502  501  0.00000000000E+00  0.00000000000E+00  0.40247442145E+03  0.40247442145E+03  0.00000000000E+00 0. -1.
         21   -1    0    0  501  502 -0.00000000000E+00 -0.00000000000E+00 -0.10585674978E+03  0.10585674978E+03  0.00000000000E+00 0. -1.
         25    1    1    2    0    0 -0.17133244429E+00 -0.16418095511E+03  0.14224895385E+03  0.25062956778E+03  0.12500000000E+03 0.  0.
         25    1    1    2    0    0  0.17133244429E+00  0.16418095511E+03  0.15436871782E+03  0.25770160345E+03  0.12500000000E+03 0.  0.
</event>
<event>
 4    0  0.2219362E-002  0.4904314E+03  0.7546771E-02  0.1016307E+00
         21   -1    0    0  502  501  0.00000000000E+00  0.00000000000E+00  0.21952976345E+03  0.21952976345E+03  0.00000000000E+00 0. -1.
         21   -1    0    0  501  502 -0.00000000000E+00 -0.00000000000E+00 -0.10956278311E+04  0.10956278311E+04  0.00000000000E+00 0. -1.
         25    1    1    2    0    0  0.28144295176E+03  0.24237523705E+03 -0.42696567827E+02  0.39421299767E+03  0.12500000000E+03 0.  0.
         25    1    1    2    0    0 -0.28144295176E+03 -0.24237523705E+03 -0.83340149985E+03  0.92094459692E+03  0.12500000000E+03 0.  0.
</event>
<event>
 4    0  0.2219362E-002  0.1831889E+03  0.7546771E-02  0.1164752E+00
         21   -1    0    0  502  501  0.00000000000E+00  0.00000000000E+00  0.17870642272E+03  0.17870642272E+03  0.00000000000E+00 0.  1.
         21   -1    0    0  501  502 -0.00000000000E+00 -0.00000000000E+00 -0.18778372164E+03  0.18778372164E+03  0.00000000000E+00 0.  1.
         25    1    1    2    0    0  0.26833737907E+02 -0.12903882606E+03 -0.28254341526E+02  0.18383246704E+03  0.12500000000E+03 0.  0.
         25    1    1    2    0    0 -0.26833737907E+02  0.12903882606E+03  0.19177042610E+02  0.18265767732E+03  0.12500000000E+03 0.  0.
</event>
<event>
 4    0  0.2219362E-002  0.1970082E+03  0.7546771E-02  0.1152288E+00
         21   -1    0    0  502  501  0.00000000000E+00  0.00000000000E+00  0.27405626900E+02  0.27405626900E+02  0.00000000000E+00 0. -1.
         21   -1    0    0  501  502 -0.00000000000E+00 -0.00000000000E+00 -0.14162140291E+04  0.14162140291E+04  0.00000000000E+00 0. -1.
         25    1    1    2    0    0 -0.20287067338E+02 -0.11477174183E+03 -0.33536278358E+03  0.37640047082E+03  0.12500000000E+03 0.  0.
         25    1    1    2    0    0  0.20287067338E+02  0.11477174183E+03 -0.10534456186E+04  0.10672191851E+04  0.12500000000E+03 0.  0.
</event>
<event>
 4    0  0.2219362E-002  0.1435739E+03  0.7546771E-02  0.1208599E+00
         21   -1    0    0  502  501  0.00000000000E+00  0.00000000000E+00  0.52009926574E+03  0.52009926574E+03  0.00000000000E+00 0.  1.
         21   -1    0    0  501  502 -0.00000000000E+00 -0.00000000000E+00 -0.39633734368E+02  0.39633734368E+02  0.00000000000E+00 0.  1.
         25    1    1    2    0    0  0.58372131435E+02  0.15310428594E+02  0.16869743391E+03  0.21846175674E+03  0.12500000000E+03 0.  0.
         25    1    1    2    0    0 -0.58372131435E+02 -0.15310428594E+02  0.31176809747E+03  0.34127124337E+03  0.12500000000E+03 0.  0.
</event>
<event>
 4    0  0.2219362E-002  0.2540607E+03  0.7546771E-02  0.1110765E+00
         21   -1    0    0  502  501  0.00000000000E+00  0.00000000000E+00  0.21626559329E+03  0.21626559329E+03  0.00000000000E+00 0.  1.
         21   -1    0    0  501  502 -0.00000000000E+00 -0.00000000000E+00 -0.29846104850E+03  0.29846104850E+03  0.00000000000E+00 0.  1.
         25    1    1    2    0    0  0.80838331893E+02  0.31068959620E+02  0.16507122904E+03  0.22444069776E+03  0.12500000000E+03 0.  0.
         25    1    1    2    0    0 -0.80838331893E+02 -0.31068959620E+02 -0.24726668426E+03  0.29028594402E+03  0.12500000000E+03 0.  0.
</event>
<event>
 4    0  0.2219362E-002  0.1895250E+03  0.7546771E-02  0.1158890E+00
         21   -1    0    0  502  501  0.00000000000E+00  0.00000000000E+00  0.19903142908E+03  0.19903142908E+03  0.00000000000E+00 0.  1.
         21   -1    0    0  501  502 -0.00000000000E+00 -0.00000000000E+00 -0.18047259961E+03  0.18047259961E+03  0.00000000000E+00 0.  1.
         25    1    1    2    0    0 -0.32518374255E+02  0.90116263153E+02 -0.96280910107E+02  0.18458981337E+03  0.12500000000E+03 0.  0.
         25    1    1    2    0    0  0.32518374255E+02 -0.90116263153E+02  0.11483973957E+03  0.19491421532E+03  0.12500000000E+03 0.  0.
</event>
<event>
 4    0  0.2219362E-002  0.2552373E+03  0.7546771E-02  0.1110039E+00
         21   -1    0    0  502  501  0.00000000000E+00  0.00000000000E+00  0.35694339312E+03  0.35694339312E+03  0.00000000000E+00 0. -1.
         21   -1    0    0  501  502 -0.00000000000E+00 -0.00000000000E+00 -0.18251095380E+03  0.18251095380E+03  0.00000000000E+00 0. -1.
         25    1    1    2    0    0  0.46230060019E+02 -0.20372719064E+03  0.61881102666E+01  0.24352675287E+03  0.12500000000E+03 0.  0.
         25    1    1    2    0    0 -0.46230060019E+02  0.20372719064E+03  0.16824432906E+03  0.29592759404E+03  0.12500000000E+03 0.  0.
</event>
<event>
 4    0  0.2219362E-002  0.1871333E+03  0.7546771E-02  0.1161073E+00
         21   -1    0    0  502  501  0.00000000000E+00  0.00000000000E+00  0.10102342516E+03  0.10102342516E+03  0.00000000000E+00 0. -1.
         21   -1    0    0  501  502 -0.00000000000E+00 -0.00000000000E+00 -0.34664108225E+03  0.34664108225E+03  0.00000000000E+00 0. -1.
         25    1    1    2    0    0 -0.10784227786E+03  0.83968359191E+02 -0.15475255314E+03  0.24135864381E+03  0.12500000000E+03 0.  0.
         25    1    1    2    0    0  0.10784227786E+03 -0.83968359191E+02 -0.90865103957E+02  0.20630586360E+03  0.12500000000E+03 0.  0.
</event>
<event>
 4    0  0.2219362E-002  0.1528604E+03  0.7546771E-02  0.1197002E+00
         21   -1    0    0  502  501  0.00000000000E+00  0.00000000000E+00  0.98273845867E+02  0.98273845867E+02  0.00000000000E+00 0. -1.
         21   -1    0    0  501  502 -0.00000000000E+00 -0.00000000000E+00 -0.23776710886E+03  0.23776710886E+03  0.00000000000E+00 0. -1.
         25    1    1    2    0    0 -0.58886968194E+02  0.61663512169E+02 -0.93607225916E+02  0.17792519917E+03  0.12500000000E+03 0.  0.
         25    1    1    2    0    0  0.58886968194E+02 -0.61663512169E+02 -0.45886037075E+02  0.15811575555E+03  0.12500000000E+03 0.  0.
</event>
<event>
 4    0  0.2219362E-002  0.2486571E+03  0.7546771E-02  0.1114156E+00
         21   -1    0    0  502  501  0.00000000000E+00  0.00000000000E+00  0.41993995445E+03  0.41993995445E+03  0.00000000000E+00 0. -1.
         21   -1    0    0  501  502 -0.00000000000E+00 -0.00000000000E+00 -0.14723618553E+03  0.14723618553E+03  0.00000000000E+00 0. -1.
         25    1    1    2    0    0 -0.11542351739E+03  0.22769585013E+02  0.34152492162E+03  0.38223724891E+03  0.12500000000E+03 0.  0.
         25    1    1    2    0    0  0.11542351739E+03 -0.22769585013E+02 -0.68821152705E+02  0.18493889107E+03  0.12500000000E+03 0.  0.
</event>
<event>
 4    0  0.2219362E-002  0.2076010E+03  0.7546771E-02  0.1143480E+00
         21   -1    0    0  502  501  0.00000000000E+00  0.00000000000E+00  0.11351692913E+03  0.11351692913E+03  0.00000000000E+00 0.  1.
         21   -1    0    0  501  502 -0.00000000000E+00 -0.00000000000E+00 -0.37966299826E+03  0.37966299826E+03  0.00000000000E+00 0.  1.
         25    1    1    2    0    0 -0.60457272080E+02 -0.10403010823E+03  0.23361103882E+01  0.17351600093E+03  0.12500000000E+03 0.  0.
         25    1    1    2    0    0  0.60457272080E+02  0.10403010823E+03 -0.26848217952E+03  0.31966392647E+03  0.12500000000E+03 0.  0.
</event>
<event>
 4    0  0.2219362E-002  0.2302345E+03  0.7546771E-02  0.1126475E+00
         21   -1    0    0  502  501  0.00000000000E+00  0.00000000000E+00  0.52372330127E+02  0.52372330127E+02  0.00000000000E+00 0. -1.
         21   -1    0    0  501  502 -0.00000000000E+00 -0.00000000000E+00 -0.10121364349E+04  0.10121364349E+04  0.00000000000E+00 0. -1.
         25    1    1    2    0    0 -0.98727703399E+02 -0.54096410311E+02 -0.84327754683E+03  0.85989278518E+03  0.12500000000E+03 0.  0.
         25    1    1    2    0    0  0.98727703399E+02  0.54096410311E+02 -0.11648655795E+03  0.20461597985E+03  0.12500000000E+03 0.  0.
</event>
<event>
 4    0  0.2219362E-002  0.2886427E+03  0.7546771E-02  0.1091060E+00
         21   -1    0    0  502  501  0.00000000000E+00  0.00000000000E+00  0.44298197010E+03  0.44298197010E+03  0.00000000000E+00 0.  1.
         21   -1    0    0  501  502 -0.00000000000E+00 -0.00000000000E+00 -0.18807675208E+03  0.18807675208E+03  0.00000000000E+00 0.  1.
         25    1    1    2    0    0 -0.19817118580E+03 -0.95511893507E+02  0.27929905060E+03  0.37686509569E+03  0.12500000000E+03 0.  0.
         25    1    1    2    0    0  0.19817118580E+03  0.95511893507E+02 -0.24393832580E+02  0.25419362649E+03  0.12500000000E+03 0.  0.
</event>
<event>
 4    0  0.2219362E-002  0.1920341E+03  0.7546771E-02  0.1156639E+00
         21   -1    0    0  502  501  0.00000000000E+00  0.00000000000E+00  0.54567733373E+02  0.54567733373E+02  0.00000000000E+00 0. -1.
         21   -1    0    0  501  502 -0.00000000000E+00 -0.00000000000E+00 -0.67580375463E+03  0.67580375463E+03  0.00000000000E+00 0. -1.
         25    1    1    2    0    0  0.49738746334E+02 -0.13671113564E+03 -0.29275832583E+03  0.34999473545E+03  0.12500000000E+03 0.  0.
         25    1    1    2    0    0 -0.49738746334E+02  0.13671113564E+03 -0.32847769542E+03  0.38037675255E+03  0.12500000000E+03 0.  0.
</event>
<event>
 4    0  0.2219362E-002  0.1894736E+03  0.7546771E-02  0.1158937E+00
         21   -1    0    0  502  501  0.00000000000E+00  0.00000000000E+00  0.78019022727E+03  0.78019022727E+03  0.00000000000E+00 0.  1.
         21   -1    0    0  501  502 -0.00000000000E+00 -0.00000000000E+00 -0.46014732322E+02  0.46014732322E+02  0.00000000000E+00 0.  1.
         25    1    1    2    0    0 -0.12607846279E+03 -0.53346958330E+02  0.45246861810E+03  0.48897293086E+03  0.12500000000E+03 0.  0.
         25    1    1    2    0    0  0.12607846279E+03  0.53346958330E+02  0.28170687684E+03  0.33723202873E+03  0.12500000000E+03 0.  0.
</event>
<event>
 4    0  0.2219362E-002  0.2285409E+03  0.7546771E-02  0.1127671E+00
         21   -1    0    0  502  501  0.00000000000E+00  0.00000000000E+00  0.12039584974E+04  0.12039584974E+04  0.00000000000E+00 0.  1.
         21   -1    0    0  501  502 -0.00000000000E+00 -0.00000000000E+00 -0.43382672598E+02  0.43382672598E+02  0.00000000000E+00 0.  1.
         25    1    1    2    0    0 -0.23785828685E+02  0.18334251126E+03  0.44588475575E+03  0.49861654354E+03  0.12500000000E+03 0.  0.
         25    1    1    2    0    0  0.23785828685E+02 -0.18334251126E+03  0.71469106909E+03  0.74872462649E+03  0.12500000000E+03 0.  0.
</event>
<event>
 4    0  0.2219362E-002  0.2305654E+03  0.7546771E-02  0.1126242E+00
         21   -1    0    0  502  501  0.00000000000E+00  0.00000000000E+00  0.18999634958E+03  0.18999634958E+03  0.00000000000E+00 0. -1.
         21   -1    0    0  501  502 -0.00000000000E+00 -0.00000000000E+00 -0.27979699826E+03  0.27979699826E+03  0.00000000000E+00 0. -1.
         25    1    1    2    0    0 -0.14093845570E+03  0.13575416592E+02 -0.17962470028E+03  0.26064913808E+03  0.12500000000E+03 0.  0.
         25    1    1    2    0    0  0.14093845570E+03 -0.13575416592E+02  0.89824051601E+02  0.20914420976E+03  0.12500000000E+03 0.  0.
</event>
<event>
 4    0  0.2219362E-002  0.1938717E+03  0.7546771E-02  0.1155015E+00
         21   -1    0    0  502  501  0.00000000000E+00  0.00000000000E+00  0.19289876834E+03  0.19289876834E+03  0.00000000000E+00 0.  1.
         21   -1    0    0  501  502 -0.00000000000E+00 -0.00000000000E+00 -0.19484952131E+03  0.19484952131E+03  0.00000000000E+00 0.  1.
         25    1    1    2    0    0 -0.73291897347E+01  0.44248772015E+02 -0.14222008179E+03  0.19458474378E+03  0.12500000000E+03 0.  0.
         25    1    1    2    0    0  0.73291897347E+01 -0.44248772015E+02  0.14026932882E+03  0.19316354587E+03  0.12500000000E+03 0.  0.
</event>
<event>
 4    0  0.2219362E-002  0.2692563E+03  0.7546771E-02  0.1101706E+00
         21   -1    0    0  502  501  0.00000000000E+00  0.00000000000E+00  0.10832371934E+03  0.10832371934E+03  0.00000000000E+00 0. -1.
         21   -1    0    0  501  502 -0.00000000000E+00 -0.00000000000E+00 -0.66928051432E+03  0.66928051432E+03  0.00000000000E+00 0.  1.
         25    1    1    2    0    0  0.18659691633E+03  0.65283159247E+02 -0.47309571296E+03  0.52775453924E+03  0.12500000000E+03 0.  0.
         25    1    1    2    0    0 -0.18659691633E+03 -0.65283159247E+02 -0.87861082020E+02  0.24984969442E+03  0.12500000000E+03 0.  0.
</event>
<event>
 4    0  0.2219362E-002  0.2175357E+03  0.7546771E-02  0.1135734E+00
         21   -1    0    0  502  501  0.00000000000E+00  0.00000000000E+00  0.46288896225E+02  0.46288896225E+02  0.00000000000E+00 0.  1.
         21   -1    0    0  501  502 -0.00000000000E+00 -0.00000000000E+00 -0.10223141787E+04  0.10223141787E+04  0.00000000000E+00 0.  1.
         25    1    1    2    0    0 -0.70705199337E+02 -0.16045610443E+03 -0.56377252145E+03  0.60349800547E+03  0.12500000000E+03 0.  0.
         25    1    1    2    0    0  0.70705199337E+02  0.16045610443E+03 -0.41225276104E+03  0.46510506947E+03  0.12500000000E+03 0.  0.
</event>
<event>
 4    0  0.2219362E-002  0.2338199E+03  0.7546771E-02  0.1123980E+00
         21   -1    0    0  502  501  0.00000000000E+00  0.00000000000E+00  0.51208724541E+03  0.51208724541E+03  0.00000000000E+00 0. -1.
         21   -1    0    0  501  502 -0.00000000000E+00 -0.00000000000E+00 -0.10676258743E+03  0.10676258743E+03  0.00000000000E+00 0. -1.
         25    1    1    2    0    0  0.14676688028E+03  0.12175957156E+03  0.13414350106E+03  0.26454751802E+03  0.12500000000E+03 0.  0.
         25    1    1    2    0    0 -0.14676688028E+03 -0.12175957156E+03  0.27118115692E+03  0.35430231482E+03  0.12500000000E+03 0.  0.
</event>
<event>
 4    0  0.2219362E-002  0.1732540E+03  0.7546771E-02  0.1174496E+00
         21   -1    0    0  502  501  0.00000000000E+00  0.00000000000E+00  0.11413077380E+03  0.11413077380E+03  0.00000000000E+00 0.  1.
         21   -1    0    0  501  502 -0.00000000000E+00 -0.00000000000E+00 -0.26300494570E+03  0.26300494570E+03  0.00000000000E+00 0.  1.
         25    1    1    2    0    0 -0.17336209352E+02  0.11827182119E+03 -0.85493222777E+02  0.19293226527E+03  0.12500000000E+03 0.  0.
         25    1    1    2    0    0  0.17336209352E+02 -0.11827182119E+03 -0.63380949121E+02  0.18420345424E+03  0.12500000000E+03 0.  0.
</event>
<event>
 4    0  0.2219362E-002  0.3041473E+03  0.7546771E-02  0.1083186E+00
         21   -1    0    0  502  501  0.00000000000E+00  0.00000000000E+00  0.21930275724E+03  0.21930275724E+03  0.00000000000E+00 0. -1.
         21   -1    0    0  501  502 -0.00000000000E+00 -0.00000000000E+00 -0.42181686119E+03  0.42181686119E+03  0.00000000000E+00 0. -1.
         25    1    1    2    0    0 -0.28916165033E+02  0.74982699483E+02 -0.38094863145E+03  0.40890758079E+03  0.12500000000E+03 0.  0.
         25    1    1    2    0    0  0.28916165033E+02 -0.74982699483E+02  0.17843452750E+03  0.23221203765E+03  0.12500000000E+03 0.  0.
</event>
<event>
 4    0  0.2219362E-002  0.2771673E+03  0.7546771E-02  0.1097246E+00
         21   -1    0    0  502  501  0.00000000000E+00  0.00000000000E+00  0.14449967611E+03  0.14449967611E+03  0.00000000000E+00 0. -1.
         21   -1    0    0  501  502 -0.00000000000E+00 -0.00000000000E+00 -0.53163942267E+03  0.53163942267E+03  0.00000000000E+00 0. -1.
         25    1    1    2    0    0 -0.84140127016E+02 -0.23001311304E+03 -0.15112163872E+03  0.31376478903E+03  0.12500000000E+03 0.  0.
         25    1    1    2    0    0  0.84140127016E+02  0.23001311304E+03 -0.23601810784E+03  0.36237430976E+03  0.12500000000E+03 0.  0.
</event>
<event>
 4    0  0.2219362E-002  0.2912485E+03  0.7546771E-02  0.1089699E+00
         21   -1    0    0  502  501  0.00000000000E+00  0.00000000000E+00  0.36613969924E+02  0.36613969924E+02  0.00000000000E+00 0.  1.
         21   -1    0    0  501  502 -0.00000000000E+00 -0.00000000000E+00 -0.23167576165E+04  0.23167576165E+04  0.00000000000E+00 0.  1.
         25    1    1    2    0    0 -0.15239774867E+03  0.30052988713E+02 -0.19978052275E+04  0.20077298083E+04  0.12500000000E+03 0.  0.
         25    1    1    2    0    0  0.15239774867E+03 -0.30052988713E+02 -0.28233841909E+03  0.34564177818E+03  0.12500000000E+03 0.  0.
</event>
<event>
 4    0  0.2219362E-002  0.2147889E+03  0.7546771E-02  0.1137829E+00
         21   -1    0    0  502  501  0.00000000000E+00  0.00000000000E+00  0.34980293864E+02  0.34980293864E+02  0.00000000000E+00 0. -1.
         21   -1    0    0  501  502 -0.00000000000E+00 -0.00000000000E+00 -0.13188650964E+04  0.13188650964E+04  0.00000000000E+00 0. -1.
         25    1    1    2    0    0 -0.75489401206E+02  0.83391302625E+02 -0.22080318017E+03  0.27754603838E+03  0.12500000000E+03 0.  0.
         25    1    1    2    0    0  0.75489401206E+02 -0.83391302625E+02 -0.10630816223E+04  0.10762993519E+04  0.12500000000E+03 0.  0.
</event>
<event>
 4    0  0.2219362E-002  0.2688005E+03  0.7546771E-02  0.1101968E+00
         21   -1    0    0  502  501  0.00000000000E+00  0.00000000000E+00  0.44164352500E+03  0.44164352500E+03  0.00000000000E+00 0.  1.
         21   -1    0    0  501  502 -0.00000000000E+00 -0.00000000000E+00 -0.16360185731E+03  0.16360185731E+03  0.00000000000E+00 0.  1.
         25    1    1    2    0    0  0.10115885442E+03 -0.18988953828E+03  0.25348782309E+03  0.35520730149E+03  0.12500000000E+03 0.  0.
         25    1    1    2    0    0 -0.10115885442E+03  0.18988953828E+03  0.24553844592E+02  0.25003808082E+03  0.12500000000E+03 0.  0.
</event>
<event>
 4    0  0.2219362E-002  0.1489446E+03  0.7546771E-02  0.1201776E+00
         21   -1    0    0  502  501  0.00000000000E+00  0.00000000000E+00  0.15205606125E+03  0.15205606125E+03  0.00000000000E+00 0.  1.
         21   -1    0    0  501  502 -0.00000000000E+00 -0.00000000000E+00 -0.14589678487E+03  0.14589678487E+03  0.00000000000E+00 0.  1.
         25    1    1    2    0    0  0.17135489638E+02 -0.14652169636E+02 -0.74726314908E+02  0.14736801966E+03  0.12500000000E+03 0.  0.
         25    1    1    2    0    0 -0.17135489638E+02  0.14652169636E+02  0.80885591284E+02  0.15058482645E+03  0.12500000000E+03 0.  0.
</event>
<event>
 4    0  0.2219362E-002  0.1762929E+03  0.7546771E-02  0.1171440E+00
         21   -1    0    0  502  501  0.00000000000E+00  0.00000000000E+00  0.45726487081E+03  0.45726487081E+03  0.00000000000E+00 0. -1.
         21   -1    0    0  501  502 -0.00000000000E+00 -0.00000000000E+00 -0.67967565830E+02  0.67967565830E+02  0.00000000000E+00 0. -1.
         25    1    1    2    0    0 -0.75094243455E+02  0.15778812181E+02  0.48950714795E+02  0.15462628752E+03  0.12500000000E+03 0.  0.
         25    1    1    2    0    0  0.75094243455E+02 -0.15778812181E+02  0.34034659018E+03  0.37060614912E+03  0.12500000000E+03 0.  0.
</event>
<event>
 4    0  0.2219362E-002  0.1983685E+03  0.7546771E-02  0.1151123E+00
         21   -1    0    0  502  501  0.00000000000E+00  0.00000000000E+00  0.36332338345E+03  0.36332338345E+03  0.00000000000E+00 0. -1.
         21   -1    0    0  501  502 -0.00000000000E+00 -0.00000000000E+00 -0.10830587406E+03  0.10830587406E+03  0.00000000000E+00 0. -1.
         25    1    1    2    0    0 -0.84772884061E+02  0.12624121393E+03  0.15667050329E+03  0.25158285428E+03  0.12500000000E+03 0.  0.
         25    1    1    2    0    0  0.84772884061E+02 -0.12624121393E+03  0.98347006094E+02  0.22004640323E+03  0.12500000000E+03 0.  0.
</event>
<event>
 4    0  0.2219362E-002  0.2107229E+03  0.7546771E-02  0.1140995E+00
         21   -1    0    0  502  501  0.00000000000E+00  0.00000000000E+00  0.46278776155E+02  0.46278776155E+02  0.00000000000E+00 0. -1.
         21   -1    0    0  501  502 -0.00000000000E+00 -0.00000000000E+00 -0.95949285952E+03  0.95949285952E+03  0.00000000000E+00 0. -1.
         25    1    1    2    0    0  0.76136181189E+02 -0.47150455649E+02 -0.80045277398E+03  0.81508866201E+03  0.12500000000E+03 0.  0.
         25    1    1    2    0    0 -0.76136181189E+02  0.47150455649E+02 -0.11276130938E+03  0.19068297367E+03  0.12500000000E+03 0.  0.
</event>
<event>
 4    0  0.2219362E-002  0.1748221E+03  0.7546771E-02  0.1172910E+00
         21   -1    0    0  502  501  0.00000000000E+00  0.00000000000E+00  0.75016191319E+02  0.75016191319E+02  0.00000000000E+00 0. -1.
         21   -1    0    0  501  502 -0.00000000000E+00 -0.00000000000E+00 -0.40741552018E+03  0.40741552018E+03  0.00000000000E+00 0. -1.
         25    1    1    2    0    0 -0.10238553305E+03  0.40597964384E+02 -0.93100424673E+02  0.19084989170E+03  0.12500000000E+03 0.  0.
         25    1    1    2    0    0  0.10238553305E+03 -0.40597964384E+02 -0.23929890419E+03  0.29158181980E+03  0.12500000000E+03 0.  0.
</event>
<event>
 4    0  0.2219362E-002  0.1983211E+03  0.7546771E-02  0.1151163E+00
         21   -1    0    0  502  501  0.00000000000E+00  0.00000000000E+00  0.83550220806E+03  0.83550220806E+03  0.00000000000E+00 0.  1.
         21   -1    0    0  501  502 -0.00000000000E+00 -0.00000000000E+00 -0.47074991357E+02  0.47074991357E+02  0.00000000000E+00 0.  1.
         25    1    1    2    0    0  0.67895668863E+02 -0.13674282649E+03  0.34983167207E+03  0.40164115978E+03  0.12500000000E+03 0.  0.
         25    1    1    2    0    0 -0.67895668863E+02  0.13674282649E+03  0.43859554464E+03  0.48093603964E+03  0.12500000000E+03 0.  0.
</event>
<event>
 4    0  0.2219362E-002  0.3043111E+03  0.7546771E-02  0.1083105E+00
         21   -1    0    0  502  501  0.00000000000E+00  0.00000000000E+00  0.61784243291E+03  0.61784243291E+03  0.00000000000E+00 0.  1.
         21   -1    0    0  501  502 -0.00000000000E+00 -0.00000000000E+00 -0.14988493421E+03  0.14988493421E+03  0.00000000000E+00 0.  1.
         25    1    1    2    0    0 -0.25149212989E+03  0.42939089498E+02  0.37151510296E+03  0.46769704781E+03  0.12500000000E+03 0.  0.
         25    1    1    2    0    0  0.25149212989E+03 -0.42939089498E+02  0.96442395735E+02  0.30003031930E+03  0.12500000000E+03 0.  0.
</event>
<event>
 4    0  0.2219362E-002  0.1609332E+03  0.7546771E-02  0.1187647E+00
         21   -1    0    0  502  501  0.00000000000E+00  0.00000000000E+00  0.29225098528E+03  0.29225098528E+03  0.00000000000E+00 0.  1.
         21   -1    0    0  501  502 -0.00000000000E+00 -0.00000000000E+00 -0.88620768142E+02  0.88620768142E+02  0.00000000000E+00 0.  1.
         25    1    1    2    0    0 -0.56819199094E+02 -0.78920442555E+02  0.67978523790E+02  0.17234540126E+03  0.12500000000E+03 0.  0.
         25    1    1    2    0    0  0.56819199094E+02  0.78920442555E+02  0.13565169335E+03  0.20852635217E+03  0.12500000000E+03 0.  0.
</event>
<event>
 4    0  0.2219362E-002  0.2371915E+03  0.7546771E-02  0.1121678E+00
         21   -1    0    0  502  501  0.00000000000E+00  0.00000000000E+00  0.20857637288E+03  0.20857637288E+03  0.00000000000E+00 0.  1.
         21   -1    0    0  501  502 -0.00000000000E+00 -0.00000000000E+00 -0.26973245609E+03  0.26973245609E+03  0.00000000000E+00 0.  1.
         25    1    1    2    0    0  0.10046788671E+03  0.99899808687E+01  0.14533995863E+03  0.21666171686E+03  0.12500000000E+03 0.  0.
         25    1    1    2    0    0 -0.10046788671E+03 -0.99899808687E+01 -0.20649604184E+03  0.26164711211E+03  0.12500000000E+03 0.  0.
</event>
<event>
 4    0  0.2219362E-002  0.2147335E+03  0.7546771E-02  0.1137871E+00
         21   -1    0    0  502  501  0.00000000000E+00  0.00000000000E+00  0.31408761133E+03  0.31408761133E+03  0.00000000000E+00 0. -1.
         21   -1    0    0  501  502 -0.00000000000E+00 -0.00000000000E+00 -0.14680763459E+03  0.14680763459E+03  0.00000000000E+00 0. -1.
         25    1    1    2    0    0 -0.58456069247E+02 -0.13121850871E+03 -0.22870341817E+02  0.19179014989E+03  0.12500000000E+03 0.  0.
         25    1    1    2    0    0  0.58456069247E+02  0.13121850871E+03  0.19015031856E+03  0.26910509603E+03  0.12500000000E+03 0.  0.
</event>
<event>
 4    0  0.2219362E-002  0.2471483E+03  0.7546771E-02  0.1115120E+00
         21   -1    0    0  502  501  0.00000000000E+00  0.00000000000E+00  0.36525090207E+02  0.36525090207E+02  0.00000000000E+00 0. -1.
         21   -1    0    0  501  502 -0.00000000000E+00 -0.00000000000E+00 -0.16723375876E+04  0.16723375876E+04  0.00000000000E+00 0. -1.
         25    1    1    2    0    0  0.19484637965E+03 -0.53329462934E+02 -0.58220653777E+03  0.62880728041E+03  0.12500000000E+03 0.  0.
         25    1    1    2    0    0 -0.19484637965E+03  0.53329462934E+02 -0.10536059596E+04  0.10800553974E+04  0.12500000000E+03 0.  0.
</event>
<event>
 4    0  0.2219362E-002  0.2582519E+03  0.7546771E-02  0.1108198E+00
         21   -1    0    0  502  501  0.00000000000E+00  0.00000000000E+00  0.32778468811E+03  0.32778468811E+03  0.00000000000E+00 0. -1.
         21   -1    0    0  501  502 -0.00000000000E+00 -0.00000000000E+00 -0.20346899849E+03  0.20346899849E+03  0.00000000000E+00 0. -1.
         25    1    1    2    0    0  0.17681779980E+03 -0.81000508994E+02  0.18052421874E+03  0.29332509326E+03  0.12500000000E+03 0.  0.
         25    1    1    2    0    0 -0.17681779980E+03  0.81000508994E+02 -0.56208529122E+02  0.23792859334E+03  0.12500000000E+03 0.  0.
</event>
<event>
 4    0  0.2219362E-002  0.2181392E+03  0.7546771E-02  0.1135278E+00
         21   -1    0    0  502  501  0.00000000000E+00  0.00000000000E+00  0.16762156923E+04  0.16762156923E+04  0.00000000000E+00 0.  1.
         21   -1    0    0  501  502 -0.00000000000E+00 -0.00000000000E+00 -0.28388191336E+02  0.28388191336E+02  0.00000000000E+00 0.  1.
         25    1    1    2    0    0 -0.87797377186E+02  0.15476537322E+03  0.89147819476E+03  0.91761597192E+03  0.12500000000E+03 0.  0.
         25    1    1    2    0    0  0.87797377186E+02 -0.15476537322E+03  0.75634930616E+03  0.78698791167E+03  0.12500000000E+03 0.  0.
</event>
<event>
 4    0  0.2219362E-002  0.2290275E+03  0.7546771E-02  0.1127326E+00
         21   -1    0    0  502  501  0.00000000000E+00  0.00000000000E+00  0.20058461515E+03  0.20058461515E+03  0.00000000000E+00 0.  1.
         21   -1    0    0  501  502 -0.00000000000E+00 -0.00000000000E+00 -0.26150367891E+03  0.26150367891E+03  0.00000000000E+00 0.  1.
         25    1    1    2    0    0 -0.11823258983E+03  0.15077805250E+03 -0.19610848398E+02  0.22961391898E+03  0.12500000000E+03 0.  0.
         25    1    1    2    0    0  0.11823258983E+03 -0.15077805250E+03 -0.41308215368E+02  0.23247437508E+03  0.12500000000E+03 0.  0.
</event>
<event>
 4    0  0.2219362E-002  0.2006887E+03  0.7546771E-02  0.1149159E+00
         21   -1    0    0  502  501  0.00000000000E+00  0.00000000000E+00  0.15934040178E+02  0.15934040178E+02  0.00000000000E+00 0.  1.
         21   -1    0    0  501  502 -0.00000000000E+00 -0.00000000000E+00 -0.25276664101E+04  0.25276664101E+04  0.00000000000E+00 0.  1.
         25    1    1    2    0    0  0.12749660050E+02 -0.15547032372E+03 -0.11429713593E+04  0.11603198282E+04  0.12500000000E+03 0.  0.
         25    1    1    2    0    0 -0.12749660050E+02  0.15547032372E+03 -0.13687610106E+04  0.13832806221E+04  0.12500000000E+03 0.  0.
</event>
<event>
 4    0  0.2219362E-002  0.2098264E+03  0.7546771E-02  0.1141704E+00
         21   -1    0    0  502  501  0.00000000000E+00  0.00000000000E+00  0.70471889830E+03  0.70471889830E+03  0.00000000000E+00 0.  1.
         21   -1    0    0  501  502 -0.00000000000E+00 -0.00000000000E+00 -0.62474740665E+02  0.62474740665E+02  0.00000000000E+00 0.  1.
         25    1    1    2    0    0  0.12929234325E+03  0.10603192140E+03  0.28265013499E+03  0.35139063333E+03  0.12500000000E+03 0.  0.
         25    1    1    2    0    0 -0.12929234325E+03 -0.10603192140E+03  0.35959402264E+03  0.41580300564E+03  0.12500000000E+03 0.  0.
</event>
<event>
 4    0  0.2219362E-002  0.2495342E+03  0.7546771E-02  0.1113600E+00
         21   -1    0    0  502  501  0.00000000000E+00  0.00000000000E+00  0.82795365680E+03  0.82795365680E+03  0.00000000000E+00 0.  1.
         21   -1    0    0  501  502 -0.00000000000E+00 -0.00000000000E+00 -0.75206274267E+02  0.75206274267E+02  0.00000000000E+00 0.  1.
         25    1    1    2    0    0 -0.75994261021E+02 -0.22073535048E+02  0.12720456176E+02  0.14848965844E+03  0.12500000000E+03 0.  0.
         25    1    1    2    0    0  0.75994261021E+02  0.22073535048E+02  0.74002692636E+03  0.75467027263E+03  0.12500000000E+03 0.  0.
</event>
<event>
 4    0  0.2219362E-002  0.1703184E+03  0.7546771E-02  0.1177516E+00
         21   -1    0    0  502  501  0.00000000000E+00  0.00000000000E+00  0.77975647296E+02  0.77975647296E+02  0.00000000000E+00 0. -1.
         21   -1    0    0  501  502 -0.00000000000E+00 -0.00000000000E+00 -0.37201820828E+03  0.37201820828E+03  0.00000000000E+00 0. -1.
         25    1    1    2    0    0  0.92532151654E+02  0.14889187544E+02 -0.57429315763E+02  0.16645423787E+03  0.12500000000E+03 0.  0.
         25    1    1    2    0    0 -0.92532151654E+02 -0.14889187544E+02 -0.23661324522E+03  0.28353961770E+03  0.12500000000E+03 0.  0.
</event>
<event>
 4    0  0.2219362E-002  0.1701704E+03  0.7546771E-02  0.1177670E+00
         21   -1    0    0  502  501  0.00000000000E+00  0.00000000000E+00  0.50101015371E+03  0.50101015371E+03  0.00000000000E+00 0.  1.
         21   -1    0    0  501  502 -0.00000000000E+00 -0.00000000000E+00 -0.57799186128E+02  0.57799186128E+02  0.00000000000E+00 0.  1.
         25    1    1    2    0    0 -0.80974463889E+02 -0.81995193860E+02  0.23354788808E+03  0.28887660280E+03  0.12500000000E+03 0.  0.
         25    1    1    2    0    0  0.80974463889E+02  0.81995193860E+02  0.20966307949E+03  0.26993273703E+03  0.12500000000E+03 0.  0.
</event>
<event>
 4    0  0.2219362E-002  0.2305398E+03  0.7546771E-02  0.1126260E+00
         21   -1    0    0  502  501  0.00000000000E+00  0.00000000000E+00  0.14859133130E+03  0.14859133130E+03  0.00000000000E+00 0.  1.
         21   -1    0    0  501  502 -0.00000000000E+00 -0.00000000000E+00 -0.35768296125E+03  0.35768296125E+03  0.00000000000E+00 0.  1.
         25    1    1    2    0    0  0.13253786324E+02  0.18661498788E+03 -0.15969624689E+03  0.27591431247E+03  0.12500000000E+03 0.  0.
         25    1    1    2    0    0 -0.13253786324E+02 -0.18661498788E+03 -0.49395383061E+02  0.23035998008E+03  0.12500000000E+03 0.  0.
</event>
<event>
 4    0  0.2219362E-002  0.2635394E+03  0.7546771E-02  0.1105035E+00
         21   -1    0    0  502  501  0.00000000000E+00  0.00000000000E+00  0.73705879828E+02  0.73705879828E+02  0.00000000000E+00 0.  1.
         21   -1    0    0  501  502 -0.00000000000E+00 -0.00000000000E+00 -0.94229924898E+03  0.94229924898E+03  0.00000000000E+00 0.  1.
         25    1    1    2    0    0  0.11037023267E+03  0.20346261486E+03 -0.40385675437E+03  0.48197915096E+03  0.12500000000E+03 0.  0.
         25    1    1    2    0    0 -0.11037023267E+03 -0.20346261486E+03 -0.46473661478E+03  0.53402597785E+03  0.12500000000E+03 0.  0.
</event>
<event>
 4    0  0.2219362E-002  0.1741021E+03  0.7546771E-02  0.1173636E+00
         21   -1    0    0  502  501  0.00000000000E+00  0.00000000000E+00  0.32985485124E+03  0.32985485124E+03  0.00000000000E+00 0. -1.
         21   -1    0    0  501  502 -0.00000000000E+00 -0.00000000000E+00 -0.91893546907E+02  0.91893546907E+02  0.00000000000E+00 0. -1.
         25    1    1    2    0    0 -0.46268396229E+02  0.51236221492E+02 -0.16586594776E+01  0.14280639353E+03  0.12500000000E+03 0.  0.
         25    1    1    2    0    0  0.46268396229E+02 -0.51236221492E+02  0.23961996381E+03  0.27894200462E+03  0.12500000000E+03 0.  0.
</event>
<event>
 4    0  0.2219362E-002  0.3284022E+03  0.7546771E-02  0.1071846E+00
         21   -1    0    0  502  501  0.00000000000E+00  0.00000000000E+00  0.75194526610E+03  0.75194526610E+03  0.00000000000E+00 0.  1.
         21   -1    0    0  501  502 -0.00000000000E+00 -0.00000000000E+00 -0.14342537468E+03  0.14342537468E+03  0.00000000000E+00 0.  1.
         25    1    1    2    0    0 -0.70699162205E+02  0.26186360619E+03  0.11808092264E+03  0.32115264918E+03  0.12500000000E+03 0.  0.
         25    1    1    2    0    0  0.70699162205E+02 -0.26186360619E+03  0.49043896878E+03  0.57421799160E+03  0.12500000000E+03 0.  0.
</event>
<event>
 4    0  0.2219362E-002  0.1481241E+03  0.7546771E-02  0.1202797E+00
         21   -1    0    0  502  501  0.00000000000E+00  0.00000000000E+00  0.72818609035E+03  0.72818609035E+03  0.00000000000E+00 0.  1.
         21   -1    0    0  501  502 -0.00000000000E+00 -0.00000000000E+00 -0.30130685549E+02  0.30130685549E+02  0.00000000000E+00 0.  1.
         25    1    1    2    0    0 -0.62944247015E+02  0.46062336205E+01  0.22540150853E+03  0.26535643137E+03  0.12500000000E+03 0.  0.
         25    1    1    2    0    0  0.62944247015E+02 -0.46062336205E+01  0.47265389627E+03  0.49296034453E+03  0.12500000000E+03 0.  0.
</event>
<event>
 4    0  0.2219362E-002  0.1683369E+03  0.7546771E-02  0.1179593E+00
         21   -1    0    0  502  501  0.00000000000E+00  0.00000000000E+00  0.77664453534E+02  0.77664453534E+02  0.00000000000E+00 0. -1.
         21   -1    0    0  501  502 -0.00000000000E+00 -0.00000000000E+00 -0.36486849189E+03  0.36486849189E+03  0.00000000000E+00 0. -1.
         25    1    1    2    0    0 -0.68321224752E+02  0.77392426963E+02 -0.20318679114E+03  0.25993701082E+03  0.12500000000E+03 0.  0.
         25    1    1    2    0    0  0.68321224752E+02 -0.77392426963E+02 -0.84017247218E+02  0.18259593460E+03  0.12500000000E+03 0.  0.
</event>
<event>
 4    0  0.2219362E-002  0.1845861E+03  0.7546771E-02  0.1163437E+00
         21   -1    0    0  502  501  0.00000000000E+00  0.00000000000E+00  0.37366448084E+03  0.37366448084E+03  0.00000000000E+00 0. -1.
         21   -1    0    0  501  502 -0.00000000000E+00 -0.00000000000E+00 -0.91183475701E+02  0.91183475701E+02  0.00000000000E+00 0. -1.
         25    1    1    2    0    0  0.22282536999E+02 -0.11812856284E+03  0.22083870090E+03  0.28079458796E+03  0.12500000000E+03 0.  0.
         25    1    1    2    0    0 -0.22282536999E+02  0.11812856284E+03  0.61642304239E+02  0.18405336858E+03  0.12500000000E+03 0.  0.
</event>
<event>
 4    0  0.2219362E-002  0.2137943E+03  0.7546771E-02  0.1138596E+00
         21   -1    0    0  502  501  0.00000000000E+00  0.00000000000E+00  0.40584064099E+02  0.40584064099E+02  0.00000000000E+00 0. -1.
         21   -1    0    0  501  502 -0.00000000000E+00 -0.00000000000E+00 -0.11262547720E+04  0.11262547720E+04  0.00000000000E+00 0. -1.
         25    1    1    2    0    0  0.14918052543E+03 -0.72480746411E+01 -0.30220376313E+03  0.35952674199E+03  0.12500000000E+03 0.  0.
         25    1    1    2    0    0 -0.14918052543E+03  0.72480746411E+01 -0.78346694472E+03  0.80731209407E+03  0.12500000000E+03 0.  0.
</event>
<event>
 4    0  0.2219362E-002  0.2120213E+03  0.7546771E-02  0.1139975E+00
         21   -1    0    0  502  501  0.00000000000E+00  0.00000000000E+00  0.18840868240E+04  0.18840868240E+04  0.00000000000E+00 0.  1.
         21   -1    0    0  501  502 -0.00000000000E+00 -0.00000000000E+00 -0.23859316922E+02  0.23859316922E+02  0.00000000000E+00 0.  1.
         25    1    1    2    0    0 -0.13185110298E+03  0.10615456703E+03  0.10469705048E+04  0.10679071792E+04  0.12500000000E+03 0.  0.
         25    1    1    2    0    0  0.13185110298E+03 -0.10615456703E+03  0.81325700222E+03  0.84003896166E+03  0.12500000000E+03 0.  0.
</event>
<event>
 4    0  0.2219362E-002  0.2161166E+03  0.7546771E-02  0.1136812E+00
         21   -1    0    0  502  501  0.00000000000E+00  0.00000000000E+00  0.78985822826E+03  0.78985822826E+03  0.00000000000E+00 0. -1.
         21   -1    0    0  501  502 -0.00000000000E+00 -0.00000000000E+00 -0.59132627425E+02  0.59132627425E+02  0.00000000000E+00 0. -1.
         25    1    1    2    0    0 -0.75028904320E+02 -0.15862439167E+03  0.33189309322E+03  0.39568808352E+03  0.12500000000E+03 0.  0.
         25    1    1    2    0    0  0.75028904320E+02  0.15862439167E+03  0.39883250762E+03  0.45330277216E+03  0.12500000000E+03 0.  0.
</event>
<event>
 4    0  0.2219362E-002  0.2052107E+03  0.7546771E-02  0.1145416E+00
         21   -1    0    0  502  501  0.00000000000E+00  0.00000000000E+00  0.17245010334E+04  0.17245010334E+04  0.00000000000E+00 0.  1.
         21   -1    0    0  501  502 -0.00000000000E+00 -0.00000000000E+00 -0.24419479731E+02  0.24419479731E+02  0.00000000000E+00 0.  1.
         25    1    1    2    0    0 -0.11590713088E+03  0.19235272164E+02  0.37016003513E+03  0.40798028175E+03  0.12500000000E+03 0.  0.
         25    1    1    2    0    0  0.11590713088E+03 -0.19235272164E+02  0.13299215186E+04  0.13409402314E+04  0.12500000000E+03 0.  0.
</event>
<event>
 4    0  0.2219362E-002  0.2462843E+03  0.7546771E-02  0.1115676E+00
         21   -1    0    0  502  501  0.00000000000E+00  0.00000000000E+00  0.21091561306E+04  0.21091561306E+04  0.00000000000E+00 0.  1.
         21   -1    0    0  501  502 -0.00000000000E+00 -0.00000000000E+00 -0.28758390601E+02  0.28758390601E+02  0.00000000000E+00 0.  1.
         25    1    1    2    0    0 -0.14854868002E+03  0.12982658747E+03  0.70094969638E+03  0.73883498158E+03  0.12500000000E+03 0.  0.
         25    1    1    2    0    0  0.14854868002E+03 -0.12982658747E+03  0.13794480436E+04  0.13990795396E+04  0.12500000000E+03 0.  0.
</event>
<event>
 4    0  0.2219362E-002  0.2054905E+03  0.7546771E-02  0.1145188E+00
         21   -1    0    0  502  501  0.00000000000E+00  0.00000000000E+00  0.33093795781E+03  0.33093795781E+03  0.00000000000E+00 0.  1.
         21   -1    0    0  501  502 -0.00000000000E+00 -0.00000000000E+00 -0.12759597118E+03  0.12759597118E+03  0.00000000000E+00 0.  1.
         25    1    1    2    0    0 -0.80671788679E+02  0.13300618981E+03  0.15636068282E+03  0.25351971747E+03  0.12500000000E+03 0.  0.
         25    1    1    2    0    0  0.80671788679E+02 -0.13300618981E+03  0.46981303814E+02  0.20501421152E+03  0.12500000000E+03 0.  0.
</event>
<event>
 4    0  0.2219362E-002  0.2064244E+03  0.7546771E-02  0.1144429E+00
         21   -1    0    0  502  501  0.00000000000E+00  0.00000000000E+00  0.20089757024E+03  0.20089757024E+03  0.00000000000E+00 0. -1.
         21   -1    0    0  501  502 -0.00000000000E+00 -0.00000000000E+00 -0.21210337085E+03  0.21210337085E+03  0.00000000000E+00 0. -1.
         25    1    1    2    0    0  0.63456890767E+02 -0.12809906446E+03  0.75358386731E+02  0.20430377812E+03  0.12500000000E+03 0.  0.
         25    1    1    2    0    0 -0.63456890767E+02  0.12809906446E+03 -0.86564187344E+02  0.20869716297E+03  0.12500000000E+03 0.  0.
</event>
<event>
 4    0  0.2219362E-002  0.1862340E+03  0.7546771E-02  0.1161903E+00
         21   -1    0    0  502  501  0.00000000000E+00  0.00000000000E+00  0.11753145634E+03  0.11753145634E+03  0.00000000000E+00 0.  1.
         21   -1    0    0  501  502 -0.00000000000E+00 -0.00000000000E+00 -0.29509627383E+03  0.29509627383E+03  0.00000000000E+00 0.  1.
         25    1    1    2    0    0 -0.58697582326E+02  0.10209927279E+03 -0.16857955407E+03  0.24065272432E+03  0.12500000000E+03 0.  0.
         25    1    1    2    0    0  0.58697582326E+02 -0.10209927279E+03 -0.89852634214E+01  0.17197500584E+03  0.12500000000E+03 0.  0.
</event>
<event>
 4    0  0.2219362E-002  0.2276970E+03  0.7546771E-02  0.1128271E+00
         21   -1    0    0  502  501  0.00000000000E+00  0.00000000000E+00  0.20170075670E+04  0.20170075670E+04  0.00000000000E+00 0. -1.
         21   -1    0    0  501  502 -0.00000000000E+00 -0.00000000000E+00 -0.25704382838E+02  0.25704382838E+02  0.00000000000E+00 0. -1.
         25    1    1    2    0    0  0.18080770996E+03 -0.44024666934E+02  0.11745887944E+04  0.11957898792E+04  0.12500000000E+03 0.  0.
         25    1    1    2    0    0 -0.18080770996E+03  0.44024666934E+02  0.81671438970E+03  0.84692207057E+03  0.12500000000E+03 0.  0.
</event>
<event>
 4    0  0.2219362E-002  0.1964904E+03  0.7546771E-02  0.1152734E+00
         21   -1    0    0  502  501  0.00000000000E+00  0.00000000000E+00  0.24878853643E+03  0.24878853643E+03  0.00000000000E+00 0.  1.
         21   -1    0    0  501  502 -0.00000000000E+00 -0.00000000000E+00 -0.15518593220E+03  0.15518593220E+03  0.00000000000E+00 0.  1.
         25    1    1    2    0    0 -0.23953269068E+02  0.94268595241E+02  0.16634358879E+03  0.22968569107E+03  0.12500000000E+03 0.  0.
         25    1    1    2    0    0  0.23953269068E+02 -0.94268595241E+02 -0.72740984572E+02  0.17428877756E+03  0.12500000000E+03 0.  0.
</event>
<event>
 4    0  0.2219362E-002  0.2443336E+03  0.7546771E-02  0.1116939E+00
         21   -1    0    0  502  501  0.00000000000E+00  0.00000000000E+00  0.43898333944E+02  0.43898333944E+02  0.00000000000E+00 0.  1.
         21   -1    0    0  501  502 -0.00000000000E+00 -0.00000000000E+00 -0.13599357923E+04  0.13599357923E+04  0.00000000000E+00 0.  1.
         25    1    1    2    0    0 -0.12831692251E+03  0.10869183326E+03 -0.10190619619E+04  0.10403804253E+04  0.12500000000E+03 0.  0.
         25    1    1    2    0    0  0.12831692251E+03 -0.10869183326E+03 -0.29697549650E+03  0.36345370096E+03  0.12500000000E+03 0.  0.
</event>
<event>
 4    0  0.2219362E-002  0.2055484E+03  0.7546771E-02  0.1145140E+00
         21   -1    0    0  502  501  0.00000000000E+00  0.00000000000E+00  0.24966037172E+03  0.24966037172E+03  0.00000000000E+00 0. -1.
         21   -1    0    0  501  502 -0.00000000000E+00 -0.00000000000E+00 -0.16923055917E+03  0.16923055917E+03  0.00000000000E+00 0. -1.
         25    1    1    2    0    0 -0.13860528985E+03 -0.85089914619E+02  0.53634422432E+02  0.21202210077E+03  0.12500000000E+03 0.  0.
         25    1    1    2    0    0  0.13860528985E+03  0.85089914619E+02  0.26795390122E+02  0.20686883012E+03  0.12500000000E+03 0.  0.
</event>
<event>
 4    0  0.2219362E-002  0.2507316E+03  0.7546771E-02  0.1112843E+00
         21   -1    0    0  502  501  0.00000000000E+00  0.00000000000E+00  0.11630085273E+03  0.11630085273E+03  0.00000000000E+00 0. -1.
         21   -1    0    0  501  502 -0.00000000000E+00 -0.00000000000E+00 -0.54054905079E+03  0.54054905079E+03  0.00000000000E+00 0. -1.
         25    1    1    2    0    0  0.21008173019E+03  0.68551615678E+00 -0.13911723791E+03  0.28127105997E+03  0.12500000000E+03 0.  0.
         25    1    1    2    0    0 -0.21008173019E+03 -0.68551615678E+00 -0.28513096015E+03  0.37557884355E+03  0.12500000000E+03 0.  0.
</event>
<event>
 4    0  0.2219362E-002  0.2451070E+03  0.7546771E-02  0.1116437E+00
         21   -1    0    0  502  501  0.00000000000E+00  0.00000000000E+00  0.13991604836E+03  0.13991604836E+03  0.00000000000E+00 0. -1.
         21   -1    0    0  501  502 -0.00000000000E+00 -0.00000000000E+00 -0.42938212317E+03  0.42938212317E+03  0.00000000000E+00 0. -1.
         25    1    1    2    0    0 -0.10445044400E+03  0.18074111444E+03 -0.11037655070E+03  0.26718014269E+03  0.12500000000E+03 0.  0.
         25    1    1    2    0    0  0.10445044400E+03 -0.18074111444E+03 -0.17908952411E+03  0.30211802884E+03  0.12500000000E+03 0.  0.
</event>
<event>
 4    0  0.2219362E-002  0.1663741E+03  0.7546771E-02  0.1181683E+00
         21   -1    0    0  502  501  0.00000000000E+00  0.00000000000E+00  0.28852966383E+03  0.28852966383E+03  0.00000000000E+00 0. -1.
         21   -1    0    0  501  502 -0.00000000000E+00 -0.00000000000E+00 -0.95935830843E+02  0.95935830843E+02  0.00000000000E+00 0. -1.
         25    1    1    2    0    0  0.22765203694E+02  0.10361984749E+03  0.63616448561E+02  0.17586182024E+03  0.12500000000E+03 0.  0.
         25    1    1    2    0    0 -0.22765203694E+02 -0.10361984749E+03  0.12897738443E+03  0.20860367443E+03  0.12500000000E+03 0.  0.
</event>
<event>
 4    0  0.2219362E-002  0.1828531E+03  0.7546771E-02  0.1165070E+00
         21   -1    0    0  502  501  0.00000000000E+00  0.00000000000E+00  0.12420625302E+03  0.12420625302E+03  0.00000000000E+00 0. -1.
         21   -1    0    0  501  502 -0.00000000000E+00 -0.00000000000E+00 -0.26919149481E+03  0.26919149481E+03  0.00000000000E+00 0. -1.
         25    1    1    2    0    0 -0.68576145959E+02  0.11441800024E+03 -0.68176267407E+02  0.19510809827E+03  0.12500000000E+03 0.  0.
         25    1    1    2    0    0  0.68576145959E+02 -0.11441800024E+03 -0.76808974381E+02  0.19828964955E+03  0.12500000000E+03 0.  0.
</event>
<event>
 4    0  0.2219362E-002  0.2033488E+03  0.7546771E-02  0.1146944E+00
         21   -1    0    0  502  501  0.00000000000E+00  0.00000000000E+00  0.37757335185E+03  0.37757335185E+03  0.00000000000E+00 0.  1.
         21   -1    0    0  501  502 -0.00000000000E+00 -0.00000000000E+00 -0.10951705415E+03  0.10951705415E+03  0.00000000000E+00 0.  1.
         25    1    1    2    0    0  0.50680309551E+02  0.12789443636E+03  0.23279249084E+03  0.29789733873E+03  0.12500000000E+03 0.  0.
         25    1    1    2    0    0 -0.50680309551E+02 -0.12789443636E+03  0.35263806857E+02  0.18919306727E+03  0.12500000000E+03 0.  0.
</event>
<event>
 4    0  0.2219362E-002  0.2077021E+03  0.7546771E-02  0.1143399E+00
         21   -1    0    0  502  501  0.00000000000E+00  0.00000000000E+00  0.28098830925E+03  0.28098830925E+03  0.00000000000E+00 0.  1.
         21   -1    0    0  501  502 -0.00000000000E+00 -0.00000000000E+00 -0.15353012267E+03  0.15353012267E+03  0.00000000000E+00 0.  1.
         25    1    1    2    0    0  0.12379112988E+03 -0.61076641455E+02  0.15994283083E+03  0.24548178976E+03  0.12500000000E+03 0.  0.
         25    1    1    2    0    0 -0.12379112988E+03  0.61076641455E+02 -0.32484644249E+02  0.18903664216E+03  0.12500000000E+03 0.  0.
</event>
<event>
 4    0  0.2219362E-002  0.2092485E+03  0.7546771E-02  0.1142162E+00
         21   -1    0    0  502  501  0.00000000000E+00  0.00000000000E+00  0.26293786705E+03  0.26293786705E+03  0.00000000000E+00 0. -1.
         21   -1    0    0  501  502 -0.00000000000E+00 -0.00000000000E+00 -0.16652204861E+03  0.16652204861E+03  0.00000000000E+00 0. -1.
         25    1    1    2    0    0  0.13764060046E+03 -0.95665406241E+02  0.56362610368E+02  0.21656072750E+03  0.12500000000E+03 0.  0.
         25    1    1    2    0    0 -0.13764060046E+03  0.95665406241E+02  0.40053208067E+02  0.21289918817E+03  0.12500000000E+03 0.  0.
</event>
<event>
 4    0  0.2219362E-002  0.1877822E+03  0.7546771E-02  0.1160477E+00
         21   -1    0    0  502  501  0.00000000000E+00  0.00000000000E+00  0.60137896010E+03  0.60137896010E+03  0.00000000000E+00 0. -1.
         21   -1    0    0  501  502 -0.00000000000E+00 -0.00000000000E+00 -0.58635500002E+02  0.58635500002E+02  0.00000000000E+00 0. -1.
         25    1    1    2    0    0 -0.11199243703E+03  0.74097375908E+02  0.34176469662E+03  0.38789281370E+03  0.12500000000E+03 0.  0.
         25    1    1    2    0    0  0.11199243703E+03 -0.74097375908E+02  0.20097876348E+03  0.27212164640E+03  0.12500000000E+03 0.  0.
</event>
<event>
 4    0  0.2219362E-002  0.1687592E+03  0.7546771E-02  0.1179148E+00
         21   -1    0    0  502  501  0.00000000000E+00  0.00000000000E+00  0.54632541700E+02  0.54632541700E+02  0.00000000000E+00 0.  1.
         21   -1    0    0  501  502 -0.00000000000E+00 -0.00000000000E+00 -0.52129512132E+03  0.52129512132E+03  0.00000000000E+00 0.  1.
         25    1    1    2    0    0  0.66515200165E+02  0.30608467922E+01 -0.76745194934E+02  0.16108527425E+03  0.12500000000E+03 0.  0.
         25    1    1    2    0    0 -0.66515200165E+02 -0.30608467922E+01 -0.38991738469E+03  0.41484238877E+03  0.12500000000E+03 0.  0.
</event>
<event>
 4    0  0.2219362E-002  0.1938427E+03  0.7546771E-02  0.1155040E+00
         21   -1    0    0  502  501  0.00000000000E+00  0.00000000000E+00  0.14940823295E+02  0.14940823295E+02  0.00000000000E+00 0.  1.
         21   -1    0    0  501  502 -0.00000000000E+00 -0.00000000000E+00 -0.25149223280E+04  0.25149223280E+04  0.00000000000E+00 0.  1.
         25    1    1    2    0    0 -0.82530487984E+02  0.10844103477E+03 -0.16293310389E+04  0.16397912592E+04  0.12500000000E+03 0.  0.
         25    1    1    2    0    0  0.82530487984E+02 -0.10844103477E+03 -0.87065046580E+03  0.89007189208E+03  0.12500000000E+03 0.  0.
</event>
<event>
 4    0  0.2219362E-002  0.3087070E+03  0.7546771E-02  0.1080967E+00
         21   -1    0    0  502  501  0.00000000000E+00  0.00000000000E+00  0.73641453039E+02  0.73641453039E+02  0.00000000000E+00 0.  1.
         21   -1    0    0  501  502 -0.00000000000E+00 -0.00000000000E+00 -0.12941081044E+04  0.12941081044E+04  0.00000000000E+00 0.  1.
         25    1    1    2    0    0  0.20420445595E+02  0.28152748513E+03 -0.60905752633E+03  0.68282559256E+03  0.12500000000E+03 0.  0.
         25    1    1    2    0    0 -0.20420445595E+02 -0.28152748513E+03 -0.61140912499E+03  0.68492396483E+03  0.12500000000E+03 0.  0.
</event>
<event>
 4    0  0.2219362E-002  0.1918706E+03  0.7546771E-02  0.1156785E+00
         21   -1    0    0  502  501  0.00000000000E+00  0.00000000000E+00  0.70339177281E+03  0.70339177281E+03  0.00000000000E+00 0. -1.
         21   -1    0    0  501  502 -0.00000000000E+00 -0.00000000000E+00 -0.52338275064E+02  0.52338275064E+02  0.00000000000E+00 0. -1.
         25    1    1    2    0    0 -0.39836229898E+02  0.65000572533E+02  0.56973963094E+03  0.58825185653E+03  0.12500000000E+03 0.  0.
         25    1    1    2    0    0  0.39836229898E+02 -0.65000572533E+02  0.81313866804E+02  0.16747819135E+03  0.12500000000E+03 0.  0.
</event>
<event>
 4    0  0.2219362E-002  0.2681127E+03  0.7546771E-02  0.1102365E+00
         21   -1    0    0  502  501  0.00000000000E+00  0.00000000000E+00  0.11103065113E+04  0.11103065113E+04  0.00000000000E+00 0.  1.
         21   -1    0    0  501  502 -0.00000000000E+00 -0.00000000000E+00 -0.64742837599E+02  0.64742837599E+02  0.00000000000E+00 0.  1.
         25    1    1    2    0    0 -0.14256746981E+03 -0.16084642505E+03  0.74259730911E+03  0.78311737268E+03  0.12500000000E+03 0.  0.
         25    1    1    2    0    0  0.14256746981E+03  0.16084642505E+03  0.30296636456E+03  0.39193197618E+03  0.12500000000E+03 0.  0.
</event>
<event>
 4    0  0.2219362E-002  0.1747628E+03  0.7546771E-02  0.1172970E+00
         21   -1    0    0  502  501  0.00000000000E+00  0.00000000000E+00  0.14555214124E+03  0.14555214124E+03  0.00000000000E+00 0. -1.
         21   -1    0    0  501  502 -0.00000000000E+00 -0.00000000000E+00 -0.20983578698E+03  0.20983578698E+03  0.00000000000E+00 0. -1.
         25    1    1    2    0    0  0.11891312593E+03  0.23340378975E+02 -0.16656705244E+02  0.17489296909E+03  0.12500000000E+03 0.  0.
         25    1    1    2    0    0 -0.11891312593E+03 -0.23340378975E+02 -0.47626940492E+02  0.18049495913E+03  0.12500000000E+03 0.  0.
</event>
<event>
 4    0  0.2219362E-002  0.2232832E+03  0.7546771E-02  0.1131459E+00
         21   -1    0    0  502  501  0.00000000000E+00  0.00000000000E+00  0.29677015188E+03  0.29677015188E+03  0.00000000000E+00 0. -1.
         21   -1    0    0  501  502 -0.00000000000E+00 -0.00000000000E+00 -0.16799333299E+03  0.16799333299E+03  0.00000000000E+00 0. -1.
         25    1    1    2    0    0  0.44474804612E+02  0.17209705391E+03  0.10964408894E+02  0.21757900283E+03  0.12500000000E+03 0.  0.
         25    1    1    2    0    0 -0.44474804612E+02 -0.17209705391E+03  0.11781241000E+03  0.24718448204E+03  0.12500000000E+03 0.  0.
</event>
<event>
 4    0  0.2219362E-002  0.4862851E+03  0.7546771E-02  0.1017422E+00
         21   -1    0    0  502  501  0.00000000000E+00  0.00000000000E+00  0.31543625122E+03  0.31543625122E+03  0.00000000000E+00 0. -1.
         21   -1    0    0  501  502 -0.00000000000E+00 -0.00000000000E+00 -0.74967039911E+03  0.74967039911E+03  0.00000000000E+00 0.  1.
         25    1    1    2    0    0 -0.13686070376E+03 -0.35776911125E+03 -0.51526775986E+03  0.65410660718E+03  0.12500000000E+03 0.  0.
         25    1    1    2    0    0  0.13686070376E+03  0.35776911125E+03  0.81033611970E+02  0.41100004315E+03  0.12500000000E+03 0.  0.
</event>
<event>
 4    0  0.2219362E-002  0.2347071E+03  0.7546771E-02  0.1123370E+00
         21   -1    0    0  502  501  0.00000000000E+00  0.00000000000E+00  0.22767684092E+03  0.22767684092E+03  0.00000000000E+00 0.  1.
         21   -1    0    0  501  502 -0.00000000000E+00 -0.00000000000E+00 -0.24195453977E+03  0.24195453977E+03  0.00000000000E+00 0.  1.
         25    1    1    2    0    0  0.28694188825E+02  0.58417104051E+02 -0.19491296889E+03  0.24052438537E+03  0.12500000000E+03 0.  0.
         25    1    1    2    0    0 -0.28694188825E+02 -0.58417104051E+02  0.18063527004E+03  0.22910699531E+03  0.12500000000E+03 0.  0.
</event>
<event>
 4    0  0.2219362E-002  0.1670611E+03  0.7546771E-02  0.1180948E+00
         21   -1    0    0  502  501  0.00000000000E+00  0.00000000000E+00  0.22232358542E+03  0.22232358542E+03  0.00000000000E+00 0.  1.
         21   -1    0    0  501  502 -0.00000000000E+00 -0.00000000000E+00 -0.12553516299E+03  0.12553516299E+03  0.00000000000E+00 0.  1.
         25    1    1    2    0    0 -0.82425100692E+02  0.68991678236E+02  0.76536581758E+02  0.18175972391E+03  0.12500000000E+03 0.  0.
         25    1    1    2    0    0  0.82425100692E+02 -0.68991678236E+02  0.20251840668E+02  0.16609902450E+03  0.12500000000E+03 0.  0.
</event>
<event>
 4    0  0.2219362E-002  0.1811638E+03  0.7546771E-02  0.1166681E+00
         21   -1    0    0  502  501  0.00000000000E+00  0.00000000000E+00  0.51726253039E+03  0.51726253039E+03  0.00000000000E+00 0.  1.
         21   -1    0    0  501  502 -0.00000000000E+00 -0.00000000000E+00 -0.63449999838E+02  0.63449999838E+02  0.00000000000E+00 0.  1.
         25    1    1    2    0    0 -0.53756096646E+02  0.10819591799E+03  0.30861763191E+03  0.35421168434E+03  0.12500000000E+03 0.  0.
         25    1    1    2    0    0  0.53756096646E+02 -0.10819591799E+03  0.14519489864E+03  0.22650084589E+03  0.12500000000E+03 0.  0.
</event>
<event>
 4    0  0.2219362E-002  0.2430362E+03  0.7546771E-02  0.1117787E+00
         21   -1    0    0  502  501  0.00000000000E+00  0.00000000000E+00  0.31833195588E+03  0.31833195588E+03  0.00000000000E+00 0.  1.
         21   -1    0    0  501  502 -0.00000000000E+00 -0.00000000000E+00 -0.18555035296E+03  0.18555035296E+03  0.00000000000E+00 0.  1.
         25    1    1    2    0    0 -0.64456681988E+02 -0.18862647364E+03  0.12950676021E+03  0.26857328860E+03  0.12500000000E+03 0.  0.
         25    1    1    2    0    0  0.64456681988E+02  0.18862647364E+03  0.32748427140E+01  0.23530902024E+03  0.12500000000E+03 0.  0.
</event>
<event>
 4    0  0.2219362E-002  0.2184302E+03  0.7546771E-02  0.1135059E+00
         21   -1    0    0  502  501  0.00000000000E+00  0.00000000000E+00  0.12107042541E+04  0.12107042541E+04  0.00000000000E+00 0. -1.
         21   -1    0    0  501  502 -0.00000000000E+00 -0.00000000000E+00 -0.39408272447E+02  0.39408272447E+02  0.00000000000E+00 0. -1.
         25    1    1    2    0    0 -0.10145640925E+02 -0.14133058844E+03  0.27205327903E+03  0.33123293298E+03  0.12500000000E+03 0.  0.
         25    1    1    2    0    0  0.10145640925E+02  0.14133058844E+03  0.89924270265E+03  0.91887959360E+03  0.12500000000E+03 0.  0.
</event>
<event>
 4    0  0.2219362E-002  0.2023368E+03  0.7546771E-02  0.1147782E+00
         21   -1    0    0  502  501  0.00000000000E+00  0.00000000000E+00  0.24849588376E+03  0.24849588376E+03  0.00000000000E+00 0.  1.
         21   -1    0    0  501  502 -0.00000000000E+00 -0.00000000000E+00 -0.16475196870E+03  0.16475196870E+03  0.00000000000E+00 0.  1.
         25    1    1    2    0    0 -0.15523407856E+03  0.16626233175E+02  0.10544025151E+02  0.20027537852E+03  0.12500000000E+03 0.  0.
         25    1    1    2    0    0  0.15523407856E+03 -0.16626233175E+02  0.73199889908E+02  0.21297247394E+03  0.12500000000E+03 0.  0.
</event>
<event>
 4    0  0.2219362E-002  0.2177213E+03  0.7546771E-02  0.1135593E+00
         21   -1    0    0  502  501  0.00000000000E+00  0.00000000000E+00  0.28560425930E+03  0.28560425930E+03  0.00000000000E+00 0.  1.
         21   -1    0    0  501  502 -0.00000000000E+00 -0.00000000000E+00 -0.16597294347E+03  0.16597294347E+03  0.00000000000E+00 0.  1.
         25    1    1    2    0    0 -0.29129709924E+02  0.16840398981E+03  0.72509136505E+01  0.21186320949E+03  0.12500000000E+03 0.  0.
         25    1    1    2    0    0  0.29129709924E+02 -0.16840398981E+03  0.11238040218E+03  0.23971399329E+03  0.12500000000E+03 0.  0.
</event>
<event>
 4    0  0.2219362E-002  0.3361622E+03  0.7546771E-02  0.1068442E+00
         21   -1    0    0  502  501  0.00000000000E+00  0.00000000000E+00  0.23523701157E+04  0.23523701157E+04  0.00000000000E+00 0.  1.
         21   -1    0    0  501  502 -0.00000000000E+00 -0.00000000000E+00 -0.48038797142E+02  0.48038797142E+02  0.00000000000E+00 0.  1.
         25    1    1    2    0    0  0.68432660617E+02 -0.15106060252E+03  0.20837508672E+03  0.29418958418E+03  0.12500000000E+03 0.  0.
         25    1    1    2    0    0 -0.68432660617E+02  0.15106060252E+03  0.20959562319E+04  0.21062193287E+04  0.12500000000E+03 0.  0.
</event>
<event>
 4    0  0.2219362E-002  0.2599795E+03  0.7546771E-02  0.1107156E+00
         21   -1    0    0  502  501  0.00000000000E+00  0.00000000000E+00  0.65792338305E+03  0.65792338305E+03  0.00000000000E+00 0.  1.
         21   -1    0    0  501  502 -0.00000000000E+00 -0.00000000000E+00 -0.10273134207E+03  0.10273134207E+03  0.00000000000E+00 0.  1.
         25    1    1    2    0    0 -0.77610136092E+01 -0.17050071843E+02  0.60994911182E+03  0.62290758327E+03  0.12500000000E+03 0.  0.
         25    1    1    2    0    0  0.77610136092E+01  0.17050071843E+02 -0.54757070843E+02  0.13774714186E+03  0.12500000000E+03 0.  0.
</event>
<event>
 4    0  0.2219362E-002  0.2262075E+03  0.7546771E-02  0.1129338E+00
         21   -1    0    0  502  501  0.00000000000E+00  0.00000000000E+00  0.38139757295E+02  0.38139757295E+02  0.00000000000E+00 0.  1.
         21   -1    0    0  501  502 -0.00000000000E+00 -0.00000000000E+00 -0.13416396629E+04  0.13416396629E+04  0.00000000000E+00 0.  1.
         25    1    1    2    0    0  0.14414012245E+02 -0.18798073016E+03 -0.65339926863E+03  0.69144784540E+03  0.12500000000E+03 0.  0.
         25    1    1    2    0    0 -0.14414012245E+02  0.18798073016E+03 -0.65010063694E+03  0.68833157476E+03  0.12500000000E+03 0.  0.
</event>
<event>
 4    0  0.2219362E-002  0.1722137E+03  0.7546771E-02  0.1175559E+00
         21   -1    0    0  502  501  0.00000000000E+00  0.00000000000E+00  0.15023025809E+02  0.15023025809E+02  0.00000000000E+00 0. -1.
         21   -1    0    0  501  502 -0.00000000000E+00 -0.00000000000E+00 -0.19741400541E+04  0.19741400541E+04  0.00000000000E+00 0. -1.
         25    1    1    2    0    0  0.79987281760E+02  0.80508217412E+02 -0.78345251611E+03  0.80143769771E+03  0.12500000000E+03 0.  0.
         25    1    1    2    0    0 -0.79987281760E+02 -0.80508217412E+02 -0.11756645122E+04  0.11877253822E+04  0.12500000000E+03 0.  0.
</event>
<event>
 4    0  0.2219362E-002  0.2104603E+03  0.7546771E-02  0.1141202E+00
         21   -1    0    0  502  501  0.00000000000E+00  0.00000000000E+00  0.89772543038E+02  0.89772543038E+02  0.00000000000E+00 0.  1.
         21   -1    0    0  501  502 -0.00000000000E+00 -0.00000000000E+00 -0.49339740290E+03  0.49339740290E+03  0.00000000000E+00 0.  1.
         25    1    1    2    0    0  0.70492085210E+01  0.12642009924E+03 -0.35755725208E+03  0.39937942029E+03  0.12500000000E+03 0.  0.
         25    1    1    2    0    0 -0.70492085210E+01 -0.12642009924E+03 -0.46067607785E+02  0.18379052566E+03  0.12500000000E+03 0.  0.
</event>
<event>
 4    0  0.2219362E-002  0.1738338E+03  0.7546771E-02  0.1173908E+00
         21   -1    0    0  502  501  0.00000000000E+00  0.00000000000E+00  0.65051288426E+03  0.65051288426E+03  0.00000000000E+00 0.  1.
         21   -1    0    0  501  502 -0.00000000000E+00 -0.00000000000E+00 -0.46452843620E+02  0.46452843620E+02  0.00000000000E+00 0.  1.
         25    1    1    2    0    0  0.86203976986E+02  0.78143233896E+02  0.23689508110E+03  0.29203042667E+03  0.12500000000E+03 0.  0.
         25    1    1    2    0    0 -0.86203976986E+02 -0.78143233896E+02  0.36716495953E+03  0.40493530120E+03  0.12500000000E+03 0.  0.
</event>
<event>
 4    0  0.2219362E-002  0.3622691E+03  0.7546771E-02  0.1057689E+00
         21   -1    0    0  502  501  0.00000000000E+00  0.00000000000E+00  0.69011638729E+03  0.69011638729E+03  0.00000000000E+00 0. -1.
         21   -1    0    0  501  502 -0.00000000000E+00 -0.00000000000E+00 -0.19016928053E+03  0.19016928053E+03  0.00000000000E+00 0. -1.
         25    1    1    2    0    0 -0.85301805286E+02 -0.14925270516E+03  0.60639670310E+03  0.64256885196E+03  0.12500000000E+03 0.  0.
         25    1    1    2    0    0  0.85301805286E+02  0.14925270516E+03 -0.10644959634E+03  0.23771681586E+03  0.12500000000E+03 0.  0.
</event>
<event>
 4    0  0.2219362E-002  0.2151309E+03  0.7546771E-02  0.1137566E+00
         21   -1    0    0  502  501  0.00000000000E+00  0.00000000000E+00  0.29516505348E+03  0.29516505348E+03  0.00000000000E+00 0. -1.
         21   -1    0    0  501  502 -0.00000000000E+00 -0.00000000000E+00 -0.15679805993E+03  0.15679805993E+03  0.00000000000E+00 0. -1.
         25    1    1    2    0    0 -0.79268185711E+02  0.12216856905E+03 -0.32918281493E+02  0.19472343923E+03  0.12500000000E+03 0.  0.
         25    1    1    2    0    0  0.79268185711E+02 -0.12216856905E+03  0.17128527504E+03  0.25723967418E+03  0.12500000000E+03 0.  0.
</event>
<event>
 4    0  0.2219362E-002  0.2068915E+03  0.7546771E-02  0.1144051E+00
         21   -1    0    0  502  501  0.00000000000E+00  0.00000000000E+00  0.69899569678E+03  0.69899569678E+03  0.00000000000E+00 0. -1.
         21   -1    0    0  501  502 -0.00000000000E+00 -0.00000000000E+00 -0.61236574385E+02  0.61236574385E+02  0.00000000000E+00 0. -1.
         25    1    1    2    0    0  0.28005448511E+02 -0.69729023030E+02  0.49277968405E+02  0.15394726360E+03  0.12500000000E+03 0.  0.
         25    1    1    2    0    0 -0.28005448511E+02  0.69729023030E+02  0.58848115399E+03  0.60628500757E+03  0.12500000000E+03 0.  0.
</event>
<event>
 4    0  0.2219362E-002  0.2125074E+03  0.7546771E-02  0.1139596E+00
         21   -1    0    0  502  501  0.00000000000E+00  0.00000000000E+00  0.17060166090E+03  0.17060166090E+03  0.00000000000E+00 0. -1.
         21   -1    0    0  501  502 -0.00000000000E+00 -0.00000000000E+00 -0.26470661993E+03  0.26470661993E+03  0.00000000000E+00 0. -1.
         25    1    1    2    0    0 -0.10883193686E+03  0.31929252047E+02 -0.17929389707E+03  0.24624209458E+03  0.12500000000E+03 0.  0.
         25    1    1    2    0    0  0.10883193686E+03 -0.31929252047E+02  0.85188938038E+02  0.18906618625E+03  0.12500000000E+03 0.  0.
</event>
<event>
 4    0  0.2219362E-002  0.2186163E+03  0.7546771E-02  0.1134919E+00
         21   -1    0    0  502  501  0.00000000000E+00  0.00000000000E+00  0.65091384564E+03  0.65091384564E+03  0.00000000000E+00 0. -1.
         21   -1    0    0  501  502 -0.00000000000E+00 -0.00000000000E+00 -0.73424592946E+02  0.73424592946E+02  0.00000000000E+00 0. -1.
         25    1    1    2    0    0 -0.83154118870E+02 -0.15354660927E+03  0.22090482113E+03  0.30808295750E+03  0.12500000000E+03 0.  0.
         25    1    1    2    0    0  0.83154118870E+02  0.15354660927E+03  0.35658443157E+03  0.41625548109E+03  0.12500000000E+03 0.  0.
</event>
<event>
 4    0  0.2219362E-002  0.1918153E+03  0.7546771E-02  0.1156834E+00
         21   -1    0    0  502  501  0.00000000000E+00  0.00000000000E+00  0.47573566469E+03  0.47573566469E+03  0.00000000000E+00 0. -1.
         21   -1    0    0  501  502 -0.00000000000E+00 -0.00000000000E+00 -0.77339363813E+02  0.77339363813E+02  0.00000000000E+00 0. -1.
         25    1    1    2    0    0  0.76564357795E+02  0.11928040104E+03  0.24653684467E+03  0.31063697580E+03  0.12500000000E+03 0.  0.
         25    1    1    2    0    0 -0.76564357795E+02 -0.11928040104E+03  0.15185945621E+03  0.24243805270E+03  0.12500000000E+03 0.  0.
</event>
<event>
 4    0  0.2219362E-002  0.2127726E+03  0.7546771E-02  0.1139389E+00
         21   -1    0    0  502  501  0.00000000000E+00  0.00000000000E+00  0.38524986271E+02  0.38524986271E+02  0.00000000000E+00 0.  1.
         21   -1    0    0  501  502 -0.00000000000E+00 -0.00000000000E+00 -0.11751381838E+04  0.11751381838E+04  0.00000000000E+00 0.  1.
         25    1    1    2    0    0  0.12958225651E+03 -0.94341327147E+02 -0.74767424468E+03  0.77481199227E+03  0.12500000000E+03 0.  0.
         25    1    1    2    0    0 -0.12958225651E+03  0.94341327147E+02 -0.38893895284E+03  0.43885117779E+03  0.12500000000E+03 0.  0.
</event>
<event>
 4    0  0.2219362E-002  0.2221286E+03  0.7546771E-02  0.1132306E+00
         21   -1    0    0  502  501  0.00000000000E+00  0.00000000000E+00  0.60037902173E+03  0.60037902173E+03  0.00000000000E+00 0.  1.
         21   -1    0    0  501  502 -0.00000000000E+00 -0.00000000000E+00 -0.82183289752E+02  0.82183289752E+02  0.00000000000E+00 0.  1.
         25    1    1    2    0    0  0.45172578889E+02  0.23037196663E+02  0.53024243303E+03  0.54713189644E+03  0.12500000000E+03 0.  0.
         25    1    1    2    0    0 -0.45172578889E+02 -0.23037196663E+02 -0.12046701050E+02  0.13543041505E+03  0.12500000000E+03 0.  0.
</event>
<event>
 4    0  0.2219362E-002  0.1945309E+03  0.7546771E-02  0.1154437E+00
         21   -1    0    0  502  501  0.00000000000E+00  0.00000000000E+00  0.32322221756E+03  0.32322221756E+03  0.00000000000E+00 0.  1.
         21   -1    0    0  501  502 -0.00000000000E+00 -0.00000000000E+00 -0.11707816528E+03  0.11707816528E+03  0.00000000000E+00 0.  1.
         25    1    1    2    0    0 -0.55527252129E+02  0.13726769734E+02  0.25884219225E+03  0.29308016041E+03  0.12500000000E+03 0.  0.
         25    1    1    2    0    0  0.55527252129E+02 -0.13726769734E+02 -0.52698139966E+02  0.14722022243E+03  0.12500000000E+03 0.  0.
</event>
<event>
 4    0  0.2219362E-002  0.2123550E+03  0.7546771E-02  0.1139715E+00
         21   -1    0    0  502  501  0.00000000000E+00  0.00000000000E+00  0.57025820719E+02  0.57025820719E+02  0.00000000000E+00 0. -1.
         21   -1    0    0  501  502 -0.00000000000E+00 -0.00000000000E+00 -0.79077564893E+03  0.79077564893E+03  0.00000000000E+00 0. -1.
         25    1    1    2    0    0  0.67496921329E+02  0.15096491547E+03 -0.27488998720E+03  0.34429020485E+03  0.12500000000E+03 0.  0.
         25    1    1    2    0    0 -0.67496921329E+02 -0.15096491547E+03 -0.45885984101E+03  0.50351126480E+03  0.12500000000E+03 0.  0.
</event>
<event>
 4    0  0.2219362E-002  0.3181345E+03  0.7546771E-02  0.1076511E+00
         21   -1    0    0  502  501  0.00000000000E+00  0.00000000000E+00  0.21667284614E+03  0.21667284614E+03  0.00000000000E+00 0.  1.
         21   -1    0    0  501  502 -0.00000000000E+00 -0.00000000000E+00 -0.46710775589E+03  0.46710775589E+03  0.00000000000E+00 0.  1.
         25    1    1    2    0    0  0.20920688992E+02 -0.28924946551E+03 -0.16658379603E+03  0.35704073945E+03  0.12500000000E+03 0.  0.
         25    1    1    2    0    0 -0.20920688992E+02  0.28924946551E+03 -0.83851113718E+02  0.32673986258E+03  0.12500000000E+03 0.  0.
</event>
<event>
 4    0  0.2219362E-002  0.2595406E+03  0.7546771E-02  0.1107420E+00
         21   -1    0    0  502  501  0.00000000000E+00  0.00000000000E+00  0.67941775429E+03  0.67941775429E+03  0.00000000000E+00 0. -1.
         21   -1    0    0  501  502 -0.00000000000E+00 -0.00000000000E+00 -0.99145636054E+02  0.99145636054E+02  0.00000000000E+00 0. -1.
         25    1    1    2    0    0 -0.60372495344E+02  0.21706471647E+03  0.24331706927E+03  0.35438697144E+03  0.12500000000E+03 0.  0.
         25    1    1    2    0    0  0.60372495344E+02 -0.21706471647E+03  0.33695504897E+03  0.42417641891E+03  0.12500000000E+03 0.  0.
</event>
<event>
 4    0  0.2219362E-002  0.1917741E+03  0.7546771E-02  0.1156871E+00
         21   -1    0    0  502  501  0.00000000000E+00  0.00000000000E+00  0.24460721041E+03  0.24460721041E+03  0.00000000000E+00 0.  1.
         21   -1    0    0  501  502 -0.00000000000E+00 -0.00000000000E+00 -0.15035248919E+03  0.15035248919E+03  0.00000000000E+00 0.  1.
         25    1    1    2    0    0 -0.10738456729E+03 -0.58905405469E+02  0.12788918053E+03  0.21675316510E+03  0.12500000000E+03 0.  0.
         25    1    1    2    0    0  0.10738456729E+03  0.58905405469E+02 -0.33634459312E+02  0.17820653450E+03  0.12500000000E+03 0.  0.
</event>
<event>
 4    0  0.2219362E-002  0.1987636E+03  0.7546771E-02  0.1150786E+00
         21   -1    0    0  502  501  0.00000000000E+00  0.00000000000E+00  0.11359084424E+02  0.11359084424E+02  0.00000000000E+00 0. -1.
         21   -1    0    0  501  502 -0.00000000000E+00 -0.00000000000E+00 -0.34780050098E+04  0.34780050098E+04  0.00000000000E+00 0. -1.
         25    1    1    2    0    0  0.21804465723E+02  0.10988740478E+03 -0.79895285224E+03  0.81639533105E+03  0.12500000000E+03 0.  0.
         25    1    1    2    0    0 -0.21804465723E+02 -0.10988740478E+03 -0.26676930731E+04  0.26729687632E+04  0.12500000000E+03 0.  0.
</event>
<event>
 4    0  0.2219362E-002  0.3825995E+03  0.7546771E-02  0.1049977E+00
         21   -1    0    0  502  501  0.00000000000E+00  0.00000000000E+00  0.56777806312E+02  0.56777806312E+02  0.00000000000E+00 0.  1.
         21   -1    0    0  501  502 -0.00000000000E+00 -0.00000000000E+00 -0.25781624855E+04  0.25781624855E+04  0.00000000000E+00 0.  1.
         25    1    1    2    0    0 -0.31871448936E+02 -0.77796421183E+02 -0.49641240267E+02  0.15861060854E+03  0.12500000000E+03 0.  0.
         25    1    1    2    0    0  0.31871448936E+02  0.77796421183E+02 -0.24717434389E+04  0.24763296833E+04  0.12500000000E+03 0.  0.
</event>
<event>
 4    0  0.2219362E-002  0.2063653E+03  0.7546771E-02  0.1144477E+00
         21   -1    0    0  502  501  0.00000000000E+00  0.00000000000E+00  0.44202897935E+03  0.44202897935E+03  0.00000000000E+00 0.  1.
         21   -1    0    0  501  502 -0.00000000000E+00 -0.00000000000E+00 -0.96343503939E+02  0.96343503939E+02  0.00000000000E+00 0.  1.
         25    1    1    2    0    0  0.60928111911E+02  0.41625835296E+02  0.36418189480E+03  0.39204387189E+03  0.12500000000E+03 0.  0.
         25    1    1    2    0    0 -0.60928111911E+02 -0.41625835296E+02 -0.18496419386E+02  0.14632861140E+03  0.12500000000E+03 0.  0.
</event>
<event>
 4    0  0.2219362E-002  0.2161648E+03  0.7546771E-02  0.1136775E+00
         21   -1    0    0  502  501  0.00000000000E+00  0.00000000000E+00  0.81154193630E+03  0.81154193630E+03  0.00000000000E+00 0.  1.
         21   -1    0    0  501  502 -0.00000000000E+00 -0.00000000000E+00 -0.57578295244E+02  0.57578295244E+02  0.00000000000E+00 0.  1.
         25    1    1    2    0    0  0.13221476589E+03 -0.83256477954E+02  0.54140841363E+03  0.57720053343E+03  0.12500000000E+03 0.  0.
         25    1    1    2    0    0 -0.13221476589E+03  0.83256477954E+02  0.21255522742E+03  0.29191969811E+03  0.12500000000E+03 0.  0.
</event>
<event>
 4    0  0.2219362E-002  0.3537389E+03  0.7546771E-02  0.1061091E+00
         21   -1    0    0  502  501  0.00000000000E+00  0.00000000000E+00  0.73990161765E+02  0.73990161765E+02  0.00000000000E+00 0. -1.
         21   -1    0    0  501  502 -0.00000000000E+00 -0.00000000000E+00 -0.16911876006E+04  0.16911876006E+04  0.00000000000E+00 0. -1.
         25    1    1    2    0    0 -0.64093634911E+02  0.32456760424E+03 -0.82695378760E+03  0.89940518710E+03  0.12500000000E+03 0.  0.
         25    1    1    2    0    0  0.64093634911E+02 -0.32456760424E+03 -0.79024365123E+03  0.86577257526E+03  0.12500000000E+03 0.  0.
</event>
<event>
 4    0  0.2219362E-002  0.2503213E+03  0.7546771E-02  0.1113102E+00
         21   -1    0    0  502  501  0.00000000000E+00  0.00000000000E+00  0.74544250705E+02  0.74544250705E+02  0.00000000000E+00 0. -1.
         21   -1    0    0  501  502 -0.00000000000E+00 -0.00000000000E+00 -0.84058452351E+03  0.84058452351E+03  0.00000000000E+00 0. -1.
         25    1    1    2    0    0 -0.14423848893E+03 -0.99269303388E+02 -0.61693962700E+03  0.65337480793E+03  0.12500000000E+03 0.  0.
         25    1    1    2    0    0  0.14423848893E+03  0.99269303388E+02 -0.14910064581E+03  0.26175396629E+03  0.12500000000E+03 0.  0.
</event>
<event>
 4    0  0.2219362E-002  0.2624933E+03  0.7546771E-02  0.1105654E+00
         21   -1    0    0  502  501  0.00000000000E+00  0.00000000000E+00  0.33429090995E+03  0.33429090995E+03  0.00000000000E+00 0.  1.
         21   -1    0    0  501  502 -0.00000000000E+00 -0.00000000000E+00 -0.20611612538E+03  0.20611612538E+03  0.00000000000E+00 0.  1.
         25    1    1    2    0    0  0.17220299168E+03  0.13423522332E+03 -0.12976701623E+02  0.25192530700E+03  0.12500000000E+03 0.  0.
         25    1    1    2    0    0 -0.17220299168E+03 -0.13423522332E+03  0.14115148619E+03  0.28848172833E+03  0.12500000000E+03 0.  0.
</event>
<event>
 4    0  0.2219362E-002  0.2083743E+03  0.7546771E-02  0.1142860E+00
         21   -1    0    0  502  501  0.00000000000E+00  0.00000000000E+00  0.15181156977E+03  0.15181156977E+03  0.00000000000E+00 0.  1.
         21   -1    0    0  501  502 -0.00000000000E+00 -0.00000000000E+00 -0.28601149594E+03  0.28601149594E+03  0.00000000000E+00 0.  1.
         25    1    1    2    0    0  0.66008162278E+02  0.24590586353E+02  0.91647468874E+02  0.17025285012E+03  0.12500000000E+03 0.  0.
         25    1    1    2    0    0 -0.66008162278E+02 -0.24590586353E+02 -0.22584739504E+03  0.26757021559E+03  0.12500000000E+03 0.  0.
</event>
<event>
 4    0  0.2219362E-002  0.2323615E+03  0.7546771E-02  0.1124989E+00
         21   -1    0    0  502  501  0.00000000000E+00  0.00000000000E+00  0.62272190730E+02  0.62272190730E+02  0.00000000000E+00 0. -1.
         21   -1    0    0  501  502 -0.00000000000E+00 -0.00000000000E+00 -0.86702982413E+03  0.86702982413E+03  0.00000000000E+00 0. -1.
         25    1    1    2    0    0 -0.26723819098E+02 -0.16711093143E+03 -0.59959555962E+03  0.63543690563E+03  0.12500000000E+03 0.  0.
         25    1    1    2    0    0  0.26723819098E+02  0.16711093143E+03 -0.20516207378E+03  0.29386510924E+03  0.12500000000E+03 0.  0.
</event>
<event>
 4    0  0.2219362E-002  0.4437644E+03  0.7546771E-02  0.1029598E+00
         21   -1    0    0  502  501  0.00000000000E+00  0.00000000000E+00  0.65644516608E+03  0.65644516608E+03  0.00000000000E+00 0.  1.
         21   -1    0    0  501  502 -0.00000000000E+00 -0.00000000000E+00 -0.29998976191E+03  0.29998976191E+03  0.00000000000E+00 0.  1.
         25    1    1    2    0    0 -0.86591921248E+02 -0.14752022305E+03  0.59842571311E+03  0.63482179480E+03  0.12500000000E+03 0.  0.
         25    1    1    2    0    0  0.86591921248E+02  0.14752022305E+03 -0.24197030894E+03  0.32161313319E+03  0.12500000000E+03 0.  0.
</event>
<event>
 4    0  0.2219362E-002  0.2442071E+03  0.7546771E-02  0.1117022E+00
         21   -1    0    0  502  501  0.00000000000E+00  0.00000000000E+00  0.78504130340E+02  0.78504130340E+02  0.00000000000E+00 0. -1.
         21   -1    0    0  501  502 -0.00000000000E+00 -0.00000000000E+00 -0.75966814059E+03  0.75966814059E+03  0.00000000000E+00 0. -1.
         25    1    1    2    0    0 -0.17708811828E+03 -0.10735752061E+03 -0.28299001686E+03  0.37228240424E+03  0.12500000000E+03 0.  0.
         25    1    1    2    0    0  0.17708811828E+03  0.10735752061E+03 -0.39817399339E+03  0.46588986669E+03  0.12500000000E+03 0.  0.
</event>
<event>
 4    0  0.2219362E-002  0.2076486E+03  0.7546771E-02  0.1143442E+00
         21   -1    0    0  502  501  0.00000000000E+00  0.00000000000E+00  0.12481575178E+03  0.12481575178E+03  0.00000000000E+00 0. -1.
         21   -1    0    0  501  502 -0.00000000000E+00 -0.00000000000E+00 -0.34545260206E+03  0.34545260206E+03  0.00000000000E+00 0. -1.
         25    1    1    2    0    0  0.15989015749E+02  0.13390520879E+03 -0.10778329721E+01  0.18388152514E+03  0.12500000000E+03 0.  0.
         25    1    1    2    0    0 -0.15989015749E+02 -0.13390520879E+03 -0.21955901731E+03  0.28638682869E+03  0.12500000000E+03 0.  0.
</event>
<event>
 4    0  0.2219362E-002  0.2294452E+03  0.7546771E-02  0.1127031E+00
         21   -1    0    0  502  501  0.00000000000E+00  0.00000000000E+00  0.15607191159E+04  0.15607191159E+04  0.00000000000E+00 0.  1.
         21   -1    0    0  501  502 -0.00000000000E+00 -0.00000000000E+00 -0.33731303863E+02  0.33731303863E+02  0.00000000000E+00 0.  1.
         25    1    1    2    0    0 -0.74397090450E+02  0.19835432611E+02  0.13761608561E+04  0.13839696793E+04  0.12500000000E+03 0.  0.
         25    1    1    2    0    0  0.74397090450E+02 -0.19835432611E+02  0.15082695594E+03  0.21048074043E+03  0.12500000000E+03 0.  0.
</event>
<event>
 4    0  0.2219362E-002  0.2350522E+03  0.7546771E-02  0.1123133E+00
         21   -1    0    0  502  501  0.00000000000E+00  0.00000000000E+00  0.15972928729E+03  0.15972928729E+03  0.00000000000E+00 0. -1.
         21   -1    0    0  501  502 -0.00000000000E+00 -0.00000000000E+00 -0.34589477616E+03  0.34589477616E+03  0.00000000000E+00 0. -1.
         25    1    1    2    0    0  0.69801808494E+02 -0.87517175192E+02 -0.27011884278E+03  0.31799487047E+03  0.12500000000E+03 0.  0.
         25    1    1    2    0    0 -0.69801808494E+02  0.87517175192E+02  0.83953353908E+02  0.18762919297E+03  0.12500000000E+03 0.  0.
</event>
<event>
 4    0  0.2219362E-002  0.1573115E+03  0.7546771E-02  0.1191766E+00
         21   -1    0    0  502  501  0.00000000000E+00  0.00000000000E+00  0.10054905815E+04  0.10054905815E+04  0.00000000000E+00 0. -1.
         21   -1    0    0  501  502 -0.00000000000E+00 -0.00000000000E+00 -0.24611783241E+02  0.24611783241E+02  0.00000000000E+00 0. -1.
         25    1    1    2    0    0  0.44618489625E+02 -0.77657957800E+01  0.76575073358E+03  0.77720673130E+03  0.12500000000E+03 0.  0.
         25    1    1    2    0    0 -0.44618489625E+02  0.77657957800E+01  0.21512806468E+03  0.25289563344E+03  0.12500000000E+03 0.  0.
</event>
<event>
 4    0  0.2219362E-002  0.5519502E+03  0.7546771E-02  0.1001044E+00
         21   -1    0    0  502  501  0.00000000000E+00  0.00000000000E+00  0.40770951859E+03  0.40770951859E+03  0.00000000000E+00 0. -1.
         21   -1    0    0  501  502 -0.00000000000E+00 -0.00000000000E+00 -0.74722075484E+03  0.74722075484E+03  0.00000000000E+00 0. -1.
         25    1    1    2    0    0  0.27605231282E+03  0.18616140378E+03 -0.61136136931E+03  0.70728259667E+03  0.12500000000E+03 0.  0.
         25    1    1    2    0    0 -0.27605231282E+03 -0.18616140378E+03  0.27185013306E+03  0.44764767676E+03  0.12500000000E+03 0.  0.
</event>
<event>
 4    0  0.2219362E-002  0.2370527E+03  0.7546771E-02  0.1121772E+00
         21   -1    0    0  502  501  0.00000000000E+00  0.00000000000E+00  0.72800265025E+03  0.72800265025E+03  0.00000000000E+00 0. -1.
         21   -1    0    0  501  502 -0.00000000000E+00 -0.00000000000E+00 -0.77189229441E+02  0.77189229441E+02  0.00000000000E+00 0. -1.
         25    1    1    2    0    0  0.11571964245E+03 -0.16467222471E+03  0.31214373620E+03  0.39187585954E+03  0.12500000000E+03 0.  0.
         25    1    1    2    0    0 -0.11571964245E+03  0.16467222471E+03  0.33866968461E+03  0.41331602015E+03  0.12500000000E+03 0.  0.
</event>
<event>
 4    0  0.2219362E-002  0.2108978E+03  0.7546771E-02  0.1140857E+00
         21   -1    0    0  502  501  0.00000000000E+00  0.00000000000E+00  0.28405935749E+03  0.28405935749E+03  0.00000000000E+00 0.  1.
         21   -1    0    0  501  502 -0.00000000000E+00 -0.00000000000E+00 -0.15657950071E+03  0.15657950071E+03  0.00000000000E+00 0.  1.
         25    1    1    2    0    0  0.20592244251E+02  0.11549422654E+03  0.19206874785E+03  0.25744584049E+03  0.12500000000E+03 0.  0.
         25    1    1    2    0    0 -0.20592244251E+02 -0.11549422654E+03 -0.64588891066E+02  0.18319301770E+03  0.12500000000E+03 0.  0.
</event>
<event>
 4    0  0.2219362E-002  0.2142424E+03  0.7546771E-02  0.1138250E+00
         21   -1    0    0  502  501  0.00000000000E+00  0.00000000000E+00  0.20245311882E+03  0.20245311882E+03  0.00000000000E+00 0.  1.
         21   -1    0    0  501  502 -0.00000000000E+00 -0.00000000000E+00 -0.22671817848E+03  0.22671817848E+03  0.00000000000E+00 0.  1.
         25    1    1    2    0    0 -0.35805188983E+02  0.93823838581E+02  0.13018621795E+03  0.20653904132E+03  0.12500000000E+03 0.  0.
         25    1    1    2    0    0  0.35805188983E+02 -0.93823838581E+02 -0.15445127762E+03  0.22263225598E+03  0.12500000000E+03 0.  0.
</event>
<event>
 4    0  0.2219362E-002  0.2564379E+03  0.7546771E-02  0.1109302E+00
         21   -1    0    0  502  501  0.00000000000E+00  0.00000000000E+00  0.51740678096E+02  0.51740678096E+02  0.00000000000E+00 0.  1.
         21   -1    0    0  501  502 -0.00000000000E+00 -0.00000000000E+00 -0.12709613822E+04  0.12709613822E+04  0.00000000000E+00 0.  1.
         25    1    1    2    0    0  0.26797802306E+02  0.47046188051E+02 -0.49286753898E+02  0.14486424724E+03  0.12500000000E+03 0.  0.
         25    1    1    2    0    0 -0.26797802306E+02 -0.47046188051E+02 -0.11699339502E+04  0.11778378131E+04  0.12500000000E+03 0.  0.
</event>
<event>
 4    0  0.2219362E-002  0.3556372E+03  0.7546771E-02  0.1060325E+00
         21   -1    0    0  502  501  0.00000000000E+00  0.00000000000E+00  0.12479618808E+04  0.12479618808E+04  0.00000000000E+00 0.  1.
         21   -1    0    0  501  502 -0.00000000000E+00 -0.00000000000E+00 -0.10134750174E+03  0.10134750174E+03  0.00000000000E+00 0.  1.
         25    1    1    2    0    0 -0.86998346623E+02 -0.26751244622E+03  0.91117681396E+03  0.96176910300E+03  0.12500000000E+03 0.  0.
         25    1    1    2    0    0  0.86998346623E+02  0.26751244622E+03  0.23543756510E+03  0.38754027953E+03  0.12500000000E+03 0.  0.
</event>
<event>
 4    0  0.2219362E-002  0.2552300E+03  0.7546771E-02  0.1110043E+00
         21   -1    0    0  502  501  0.00000000000E+00  0.00000000000E+00  0.30945827092E+03  0.30945827092E+03  0.00000000000E+00 0. -1.
         21   -1    0    0  501  502 -0.00000000000E+00 -0.00000000000E+00 -0.21050455378E+03  0.21050455378E+03  0.00000000000E+00 0. -1.
         25    1    1    2    0    0 -0.26950974999E+02 -0.48003973617E+02 -0.17014450125E+03  0.21818544370E+03  0.12500000000E+03 0.  0.
         25    1    1    2    0    0  0.26950974999E+02  0.48003973617E+02  0.26909821840E+03  0.30177738100E+03  0.12500000000E+03 0.  0.
</event>
<event>
 4    0  0.2219362E-002  0.2182762E+03  0.7546771E-02  0.1135175E+00
         21   -1    0    0  502  501  0.00000000000E+00  0.00000000000E+00  0.57825626302E+02  0.57825626302E+02  0.00000000000E+00 0.  1.
         21   -1    0    0  501  502 -0.00000000000E+00 -0.00000000000E+00 -0.82393381844E+03  0.82393381844E+03  0.00000000000E+00 0.  1.
         25    1    1    2    0    0  0.13319439992E+03  0.73939874741E+02 -0.19345246997E+03  0.27614617757E+03  0.12500000000E+03 0.  0.
         25    1    1    2    0    0 -0.13319439992E+03 -0.73939874741E+02 -0.57265572217E+03  0.60561326718E+03  0.12500000000E+03 0.  0.
</event>
<event>
 4    0  0.2219362E-002  0.2867112E+03  0.7546771E-02  0.1092079E+00
         21   -1    0    0  502  501  0.00000000000E+00  0.00000000000E+00  0.15598794589E+03  0.15598794589E+03  0.00000000000E+00 0.  1.
         21   -1    0    0  501  502 -0.00000000000E+00 -0.00000000000E+00 -0.52698507951E+03  0.52698507951E+03  0.00000000000E+00 0.  1.
         25    1    1    2    0    0 -0.11102456354E+03  0.18255520507E+03 -0.35779108523E+03  0.43507736929E+03  0.12500000000E+03 0.  0.
         25    1    1    2    0    0  0.11102456354E+03 -0.18255520507E+03 -0.13206048394E+02  0.24789565611E+03  0.12500000000E+03 0.  0.
</event>
<event>
 4    0  0.2219362E-002  0.2541554E+03  0.7546771E-02  0.1110707E+00
         21   -1    0    0  502  501  0.00000000000E+00  0.00000000000E+00  0.55306645484E+03  0.55306645484E+03  0.00000000000E+00 0.  1.
         21   -1    0    0  501  502 -0.00000000000E+00 -0.00000000000E+00 -0.11679421373E+03  0.11679421373E+03  0.00000000000E+00 0.  1.
         25    1    1    2    0    0  0.40325195223E+02 -0.18427622646E+03  0.37060541802E+03  0.43423176401E+03  0.12500000000E+03 0.  0.
         25    1    1    2    0    0 -0.40325195223E+02  0.18427622646E+03  0.65666823083E+02  0.23562890456E+03  0.12500000000E+03 0.  0.
</event>
<event>
 4    0  0.2219362E-002  0.2473012E+03  0.7546771E-02  0.1115022E+00
         21   -1    0    0  502  501  0.00000000000E+00  0.00000000000E+00  0.28373693271E+03  0.28373693271E+03  0.00000000000E+00 0.  1.
         21   -1    0    0  501  502 -0.00000000000E+00 -0.00000000000E+00 -0.21554436505E+03  0.21554436505E+03  0.00000000000E+00 0.  1.
         25    1    1    2    0    0  0.49042322873E+02  0.16887106119E+03 -0.87920277124E+02  0.23297544907E+03  0.12500000000E+03 0.  0.
         25    1    1    2    0    0 -0.49042322873E+02 -0.16887106119E+03  0.15611284478E+03  0.26630584869E+03  0.12500000000E+03 0.  0.
</event>
<event>
 4    0  0.2219362E-002  0.2563672E+03  0.7546771E-02  0.1109346E+00
         21   -1    0    0  502  501  0.00000000000E+00  0.00000000000E+00  0.98470601761E+02  0.98470601761E+02  0.00000000000E+00 0.  1.
         21   -1    0    0  501  502 -0.00000000000E+00 -0.00000000000E+00 -0.66744960557E+03  0.66744960557E+03  0.00000000000E+00 0.  1.
         25    1    1    2    0    0 -0.11498208751E+03 -0.15701078934E+03 -0.11931943593E+03  0.26026024708E+03  0.12500000000E+03 0.  0.
         25    1    1    2    0    0  0.11498208751E+03  0.15701078934E+03 -0.44965956789E+03  0.50565996026E+03  0.12500000000E+03 0.  0.
</event>
<event>
 4    0  0.2219362E-002  0.3048076E+03  0.7546771E-02  0.1082862E+00
         21   -1    0    0  502  501  0.00000000000E+00  0.00000000000E+00  0.10302822712E+04  0.10302822712E+04  0.00000000000E+00 0.  1.
         21   -1    0    0  501  502 -0.00000000000E+00 -0.00000000000E+00 -0.90176923201E+02  0.90176923201E+02  0.00000000000E+00 0.  1.
         25    1    1    2    0    0 -0.10911133712E+03 -0.19742752851E+03  0.17141793918E+03  0.30966437117E+03  0.12500000000E+03 0.  0.
         25    1    1    2    0    0  0.10911133712E+03  0.19742752851E+03  0.76868740885E+03  0.81079482326E+03  0.12500000000E+03 0.  0.
</event>
<event>
 4    0  0.2219362E-002  0.2681616E+03  0.7546771E-02  0.1102336E+00
         21   -1    0    0  502  501  0.00000000000E+00  0.00000000000E+00  0.19962645406E+03  0.19962645406E+03  0.00000000000E+00 0.  1.
         21   -1    0    0  501  502 -0.00000000000E+00 -0.00000000000E+00 -0.36022594467E+03  0.36022594467E+03  0.00000000000E+00 0.  1.
         25    1    1    2    0    0  0.20527676132E+03  0.10965207680E+03 -0.32196622260E+02  0.26612731759E+03  0.12500000000E+03 0.  0.
         25    1    1    2    0    0 -0.20527676132E+03 -0.10965207680E+03 -0.12840286835E+03  0.29372508113E+03  0.12500000000E+03 0.  0.
</event>
<event>
 4    0  0.2219362E-002  0.2554359E+03  0.7546771E-02  0.1109917E+00
         21   -1    0    0  502  501  0.00000000000E+00  0.00000000000E+00  0.23352436657E+03  0.23352436657E+03  0.00000000000E+00 0. -1.
         21   -1    0    0  501  502 -0.00000000000E+00 -0.00000000000E+00 -0.27940340934E+03  0.27940340934E+03  0.00000000000E+00 0. -1.
         25    1    1    2    0    0 -0.47442249768E+02  0.21764703379E+03 -0.21707471297E+02  0.25635368671E+03  0.12500000000E+03 0.  0.
         25    1    1    2    0    0  0.47442249768E+02 -0.21764703379E+03 -0.24171571476E+02  0.25657408920E+03  0.12500000000E+03 0.  0.
</event>
<event>
 4    0  0.2219362E-002  0.1929208E+03  0.7546771E-02  0.1155853E+00
         21   -1    0    0  502  501  0.00000000000E+00  0.00000000000E+00  0.82673658050E+03  0.82673658050E+03  0.00000000000E+00 0. -1.
         21   -1    0    0  501  502 -0.00000000000E+00 -0.00000000000E+00 -0.45018500247E+02  0.45018500247E+02  0.00000000000E+00 0. -1.
         25    1    1    2    0    0  0.13873363218E+03 -0.40501607014E+02  0.45089342732E+03  0.48971142898E+03  0.12500000000E+03 0.  0.
         25    1    1    2    0    0 -0.13873363218E+03  0.40501607014E+02  0.33082465294E+03  0.38204365177E+03  0.12500000000E+03 0.  0.
</event>
<event>
 4    0  0.2219362E-002  0.2217605E+03  0.7546771E-02  0.1132577E+00
         21   -1    0    0  502  501  0.00000000000E+00  0.00000000000E+00  0.71748694152E+03  0.71748694152E+03  0.00000000000E+00 0.  1.
         21   -1    0    0  501  502 -0.00000000000E+00 -0.00000000000E+00 -0.68541634271E+02  0.68541634271E+02  0.00000000000E+00 0.  1.
         25    1    1    2    0    0  0.12036548163E+03  0.82329449536E+02  0.12802698974E+03  0.23082871904E+03  0.12500000000E+03 0.  0.
         25    1    1    2    0    0 -0.12036548163E+03 -0.82329449536E+02  0.52091831750E+03  0.55519985675E+03  0.12500000000E+03 0.  0.
</event>
<event>
 4    0  0.2219362E-002  0.1653842E+03  0.7546771E-02  0.1182749E+00
         21   -1    0    0  502  501  0.00000000000E+00  0.00000000000E+00  0.49163587263E+03  0.49163587263E+03  0.00000000000E+00 0.  1.
         21   -1    0    0  501  502 -0.00000000000E+00 -0.00000000000E+00 -0.55634551177E+02  0.55634551177E+02  0.00000000000E+00 0.  1.
         25    1    1    2    0    0 -0.70894658523E+02 -0.81858852748E+02  0.21821470343E+03  0.27380573620E+03  0.12500000000E+03 0.  0.
         25    1    1    2    0    0  0.70894658523E+02  0.81858852748E+02  0.21778661802E+03  0.27346468761E+03  0.12500000000E+03 0.  0.
</event>
<event>
 4    0  0.2219362E-002  0.2270889E+03  0.7546771E-02  0.1128706E+00
         21   -1    0    0  502  501  0.00000000000E+00  0.00000000000E+00  0.22245280912E+03  0.22245280912E+03  0.00000000000E+00 0. -1.
         21   -1    0    0  501  502 -0.00000000000E+00 -0.00000000000E+00 -0.23182169743E+03  0.23182169743E+03  0.00000000000E+00 0. -1.
         25    1    1    2    0    0  0.56055514396E+02 -0.18437970063E+02  0.17552660386E+03  0.22342060804E+03  0.12500000000E+03 0.  0.
         25    1    1    2    0    0 -0.56055514396E+02  0.18437970063E+02 -0.18489549217E+03  0.23085389851E+03  0.12500000000E+03 0.  0.
</event>
<event>
 4    0  0.2219362E-002  0.2555502E+03  0.7546771E-02  0.1109847E+00
         21   -1    0    0  502  501  0.00000000000E+00  0.00000000000E+00  0.15812457411E+03  0.15812457411E+03  0.00000000000E+00 0. -1.
         21   -1    0    0  501  502 -0.00000000000E+00 -0.00000000000E+00 -0.41300293996E+03  0.41300293996E+03  0.00000000000E+00 0. -1.
         25    1    1    2    0    0  0.14143858591E+03  0.16602104472E+03 -0.17880592695E+03  0.30848730993E+03  0.12500000000E+03 0.  0.
         25    1    1    2    0    0 -0.14143858591E+03 -0.16602104472E+03 -0.76072438899E+02  0.26264020415E+03  0.12500000000E+03 0.  0.
</event>
<event>
 4    0  0.2219362E-002  0.2144965E+03  0.7546771E-02  0.1138054E+00
         21   -1    0    0  502  501  0.00000000000E+00  0.00000000000E+00  0.10533078456E+04  0.10533078456E+04  0.00000000000E+00 0. -1.
         21   -1    0    0  501  502 -0.00000000000E+00 -0.00000000000E+00 -0.43680256350E+02  0.43680256350E+02  0.00000000000E+00 0. -1.
         25    1    1    2    0    0 -0.14548431782E+03 -0.14617014588E+02  0.74746327896E+03  0.77181973105E+03  0.12500000000E+03 0.  0.
         25    1    1    2    0    0  0.14548431782E+03  0.14617014588E+02  0.26216431031E+03  0.32516837092E+03  0.12500000000E+03 0.  0.
</event>
<event>
 4    0  0.2219362E-002  0.1564969E+03  0.7546771E-02  0.1192709E+00
         21   -1    0    0  502  501  0.00000000000E+00  0.00000000000E+00  0.46165888744E+02  0.46165888744E+02  0.00000000000E+00 0. -1.
         21   -1    0    0  501  502 -0.00000000000E+00 -0.00000000000E+00 -0.53050574224E+03  0.53050574224E+03  0.00000000000E+00 0. -1.
         25    1    1    2    0    0 -0.19858676219E+02 -0.74947966557E+02 -0.34061035987E+03  0.37101480020E+03  0.12500000000E+03 0.  0.
         25    1    1    2    0    0  0.19858676219E+02  0.74947966557E+02 -0.14372949362E+03  0.20565683079E+03  0.12500000000E+03 0.  0.
</event>
<event>
 4    0  0.2219362E-002  0.3491204E+03  0.7546771E-02  0.1062977E+00
         21   -1    0    0  502  501  0.00000000000E+00  0.00000000000E+00  0.18165522938E+03  0.18165522938E+03  0.00000000000E+00 0.  1.
         21   -1    0    0  501  502 -0.00000000000E+00 -0.00000000000E+00 -0.67096924171E+03  0.67096924171E+03  0.00000000000E+00 0.  1.
         25    1    1    2    0    0 -0.21607103268E+03  0.11561268188E+03  0.17829413930E+02  0.27567348689E+03  0.12500000000E+03 0.  0.
         25    1    1    2    0    0  0.21607103268E+03 -0.11561268188E+03 -0.50714342626E+03  0.57695098420E+03  0.12500000000E+03 0.  0.
</event>
<event>
 4    0  0.2219362E-002  0.1701563E+03  0.7546771E-02  0.1177685E+00
         21   -1    0    0  502  501  0.00000000000E+00  0.00000000000E+00  0.71842627114E+03  0.71842627114E+03  0.00000000000E+00 0.  1.
         21   -1    0    0  501  502 -0.00000000000E+00 -0.00000000000E+00 -0.40300828496E+02  0.40300828496E+02  0.00000000000E+00 0.  1.
         25    1    1    2    0    0 -0.97403656536E+02  0.50929117221E+02  0.26033494866E+03  0.30899924398E+03  0.12500000000E+03 0.  0.
         25    1    1    2    0    0  0.97403656536E+02 -0.50929117221E+02  0.41779049398E+03  0.44972785565E+03  0.12500000000E+03 0.  0.
</event>
<event>
 4    0  0.2219362E-002  0.2437782E+03  0.7546771E-02  0.1117301E+00
         21   -1    0    0  502  501  0.00000000000E+00  0.00000000000E+00  0.10323490776E+04  0.10323490776E+04  0.00000000000E+00 0.  1.
         21   -1    0    0  501  502 -0.00000000000E+00 -0.00000000000E+00 -0.57565623224E+02  0.57565623224E+02  0.00000000000E+00 0.  1.
         25    1    1    2    0    0  0.16678119700E+03  0.12033892397E+03  0.40065706819E+03  0.46738475647E+03  0.12500000000E+03 0.  0.
         25    1    1    2    0    0 -0.16678119700E+03 -0.12033892397E+03  0.57412638618E+03  0.62252994435E+03  0.12500000000E+03 0.  0.
</event>
<event>
 4    0  0.2219362E-002  0.1956116E+03  0.7546771E-02  0.1153495E+00
         21   -1    0    0  502  501  0.00000000000E+00  0.00000000000E+00  0.11909719685E+04  0.11909719685E+04  0.00000000000E+00 0.  1.
         21   -1    0    0  501  502 -0.00000000000E+00 -0.00000000000E+00 -0.32128278669E+02  0.32128278669E+02  0.00000000000E+00 0.  1.
         25    1    1    2    0    0 -0.12745222655E+03 -0.78911653594E+02  0.61991503418E+03  0.64991597052E+03  0.12500000000E+03 0.  0.
         25    1    1    2    0    0  0.12745222655E+03  0.78911653594E+02  0.53892865567E+03  0.57318427667E+03  0.12500000000E+03 0.  0.
</event>
<event>
 4    0  0.2219362E-002  0.1674952E+03  0.7546771E-02  0.1180485E+00
         21   -1    0    0  502  501  0.00000000000E+00  0.00000000000E+00  0.16715878377E+03  0.16715878377E+03  0.00000000000E+00 0.  1.
         21   -1    0    0  501  502 -0.00000000000E+00 -0.00000000000E+00 -0.16783238065E+03  0.16783238065E+03  0.00000000000E+00 0.  1.
         25    1    1    2    0    0 -0.60596719700E+02 -0.90741957579E+02  0.22545365779E+02  0.16744957098E+03  0.12500000000E+03 0.  0.
         25    1    1    2    0    0  0.60596719700E+02  0.90741957579E+02 -0.23218962655E+02  0.16754159343E+03  0.12500000000E+03 0.  0.
</event>
<event>
 4    0  0.2219362E-002  0.2880548E+03  0.7546771E-02  0.1091369E+00
         21   -1    0    0  502  501  0.00000000000E+00  0.00000000000E+00  0.17670699002E+03  0.17670699002E+03  0.00000000000E+00 0.  1.
         21   -1    0    0  501  502 -0.00000000000E+00 -0.00000000000E+00 -0.46956590890E+03  0.46956590890E+03  0.00000000000E+00 0.  1.
         25    1    1    2    0    0 -0.29583288394E+02 -0.18033978429E+03 -0.35313384315E+03  0.41680465440E+03  0.12500000000E+03 0.  0.
         25    1    1    2    0    0  0.29583288394E+02  0.18033978429E+03  0.60274924262E+02  0.22946824453E+03  0.12500000000E+03 0.  0.
</event>
<event>
 4    0  0.2219362E-002  0.2864670E+03  0.7546771E-02  0.1092208E+00
         21   -1    0    0  502  501  0.00000000000E+00  0.00000000000E+00  0.91815199418E+03  0.91815199418E+03  0.00000000000E+00 0. -1.
         21   -1    0    0  501  502 -0.00000000000E+00 -0.00000000000E+00 -0.89378818552E+02  0.89378818552E+02  0.00000000000E+00 0. -1.
         25    1    1    2    0    0 -0.14233987124E+03 -0.18796831378E+03  0.59752558358E+03  0.65441160515E+03  0.12500000000E+03 0.  0.
         25    1    1    2    0    0  0.14233987124E+03  0.18796831378E+03  0.23124759205E+03  0.35311920758E+03  0.12500000000E+03 0.  0.
</event>
<event>
 4    0  0.2219362E-002  0.1727641E+03  0.7546771E-02  0.1174996E+00
         21   -1    0    0  502  501  0.00000000000E+00  0.00000000000E+00  0.84360304153E+02  0.84360304153E+02  0.00000000000E+00 0. -1.
         21   -1    0    0  501  502 -0.00000000000E+00 -0.00000000000E+00 -0.35380896069E+03  0.35380896069E+03  0.00000000000E+00 0. -1.
         25    1    1    2    0    0 -0.49068182094E+02 -0.10458595275E+03 -0.17226830068E+03  0.24217199555E+03  0.12500000000E+03 0.  0.
         25    1    1    2    0    0  0.49068182094E+02  0.10458595275E+03 -0.97180355854E+02  0.19599726929E+03  0.12500000000E+03 0.  0.
</event>
<event>
 4    0  0.2219362E-002  0.3017893E+03  0.7546771E-02  0.1084350E+00
         21   -1    0    0  502  501  0.00000000000E+00  0.00000000000E+00  0.62830194602E+03  0.62830194602E+03  0.00000000000E+00 0.  1.
         21   -1    0    0  501  502 -0.00000000000E+00 -0.00000000000E+00 -0.14495701945E+03  0.14495701945E+03  0.00000000000E+00 0.  1.
         25    1    1    2    0    0  0.30585100747E+02 -0.17179623513E+03 -0.30102155082E+02  0.21674993549E+03  0.12500000000E+03 0.  0.
         25    1    1    2    0    0 -0.30585100747E+02  0.17179623513E+03  0.51344708166E+03  0.55650902999E+03  0.12500000000E+03 0.  0.
</event>
<event>
 4    0  0.2219362E-002  0.1694029E+03  0.7546771E-02  0.1178472E+00
         21   -1    0    0  502  501  0.00000000000E+00  0.00000000000E+00  0.26632132754E+03  0.26632132754E+03  0.00000000000E+00 0. -1.
         21   -1    0    0  501  502 -0.00000000000E+00 -0.00000000000E+00 -0.10775452687E+03  0.10775452687E+03  0.00000000000E+00 0. -1.
         25    1    1    2    0    0  0.91922375360E+02 -0.19115262652E+02  0.15132305109E+03  0.21757477370E+03  0.12500000000E+03 0.  0.
         25    1    1    2    0    0 -0.91922375360E+02  0.19115262652E+02  0.72437495865E+01  0.15650108072E+03  0.12500000000E+03 0.  0.
</event>
<event>
 4    0  0.2219362E-002  0.3679765E+03  0.7546771E-02  0.1055469E+00
         21   -1    0    0  502  501  0.00000000000E+00  0.00000000000E+00  0.35491801127E+03  0.35491801127E+03  0.00000000000E+00 0. -1.
         21   -1    0    0  501  502 -0.00000000000E+00 -0.00000000000E+00 -0.38151541021E+03  0.38151541021E+03  0.00000000000E+00 0. -1.
         25    1    1    2    0    0  0.10742855946E+03  0.32257217827E+03 -0.78055591200E+02  0.37055550313E+03  0.12500000000E+03 0.  0.
         25    1    1    2    0    0 -0.10742855946E+03 -0.32257217827E+03  0.51458192260E+02  0.36587791834E+03  0.12500000000E+03 0.  0.
</event>
<event>
 4    0  0.2219362E-002  0.1931735E+03  0.7546771E-02  0.1155630E+00
         21   -1    0    0  502  501  0.00000000000E+00  0.00000000000E+00  0.95546893533E+03  0.95546893533E+03  0.00000000000E+00 0.  1.
         21   -1    0    0  501  502 -0.00000000000E+00 -0.00000000000E+00 -0.39055173206E+02  0.39055173206E+02  0.00000000000E+00 0.  1.
         25    1    1    2    0    0 -0.31359713583E+01 -0.11845917220E+03  0.68333439815E+03  0.70470796042E+03  0.12500000000E+03 0.  0.
         25    1    1    2    0    0  0.31359713583E+01  0.11845917220E+03  0.23307936397E+03  0.28981614811E+03  0.12500000000E+03 0.  0.
</event>
<event>
 4    0  0.2219362E-002  0.2607998E+03  0.7546771E-02  0.1106664E+00
         21   -1    0    0  502  501  0.00000000000E+00  0.00000000000E+00  0.22486654855E+03  0.22486654855E+03  0.00000000000E+00 0. -1.
         21   -1    0    0  501  502 -0.00000000000E+00 -0.00000000000E+00 -0.30247518142E+03  0.30247518142E+03  0.00000000000E+00 0. -1.
         25    1    1    2    0    0 -0.16134353195E+02  0.17032682062E+03 -0.19253084623E+03  0.28629472563E+03  0.12500000000E+03 0.  0.
         25    1    1    2    0    0  0.16134353195E+02 -0.17032682062E+03  0.11492221336E+03  0.24104700433E+03  0.12500000000E+03 0.  0.
</event>
<event>
 4    0  0.2219362E-002  0.1992828E+03  0.7546771E-02  0.1150346E+00
         21   -1    0    0  502  501  0.00000000000E+00  0.00000000000E+00  0.31221225594E+03  0.31221225594E+03  0.00000000000E+00 0.  1.
         21   -1    0    0  501  502 -0.00000000000E+00 -0.00000000000E+00 -0.12720075227E+03  0.12720075227E+03  0.00000000000E+00 0.  1.
         25    1    1    2    0    0 -0.91298634053E+02  0.61828649587E+02 -0.27914854312E+02  0.16900432415E+03  0.12500000000E+03 0.  0.
         25    1    1    2    0    0  0.91298634053E+02 -0.61828649587E+02  0.21292635798E+03  0.27040868406E+03  0.12500000000E+03 0.  0.
</event>
<event>
 4    0  0.2219362E-002  0.2550169E+03  0.7546771E-02  0.1110175E+00
         21   -1    0    0  502  501  0.00000000000E+00  0.00000000000E+00  0.56471983337E+03  0.56471983337E+03  0.00000000000E+00 0. -1.
         21   -1    0    0  501  502 -0.00000000000E+00 -0.00000000000E+00 -0.11516085333E+03  0.11516085333E+03  0.00000000000E+00 0. -1.
         25    1    1    2    0    0 -0.20290396243E+03 -0.11220575588E+02  0.34484448925E+03  0.41933118302E+03  0.12500000000E+03 0.  0.
         25    1    1    2    0    0  0.20290396243E+03  0.11220575588E+02  0.10471449079E+03  0.26054950367E+03  0.12500000000E+03 0.  0.
</event>
<event>
 4    0  0.2219362E-002  0.1981642E+03  0.7546771E-02  0.1151297E+00
         21   -1    0    0  502  501  0.00000000000E+00  0.00000000000E+00  0.20340152777E+03  0.20340152777E+03  0.00000000000E+00 0.  1.
         21   -1    0    0  501  502 -0.00000000000E+00 -0.00000000000E+00 -0.19306170102E+03  0.19306170102E+03  0.00000000000E+00 0.  1.
         25    1    1    2    0    0  0.95978981476E+02  0.11458292693E+03 -0.30937145061E+02  0.19728993632E+03  0.12500000000E+03 0.  0.
         25    1    1    2    0    0 -0.95978981476E+02 -0.11458292693E+03  0.41276971809E+02  0.19917329246E+03  0.12500000000E+03 0.  0.
</event>
<event>
 4    0  0.2219362E-002  0.4143256E+03  0.7546771E-02  0.1038929E+00
         21   -1    0    0  502  501  0.00000000000E+00  0.00000000000E+00  0.16933346575E+03  0.16933346575E+03  0.00000000000E+00 0. -1.
         21   -1    0    0  501  502 -0.00000000000E+00 -0.00000000000E+00 -0.10137728308E+04  0.10137728308E+04  0.00000000000E+00 0.  1.
         25    1    1    2    0    0 -0.33747973524E+02  0.39193188878E+03 -0.37091724459E+03  0.55493615263E+03  0.12500000000E+03 0.  0.
         25    1    1    2    0    0  0.33747973524E+02 -0.39193188878E+03 -0.47352212046E+03  0.62817014393E+03  0.12500000000E+03 0.  0.
</event>
<event>
 4    0  0.2219362E-002  0.1519713E+03  0.7546771E-02  0.1198071E+00
         21   -1    0    0  502  501  0.00000000000E+00  0.00000000000E+00  0.99757536424E+02  0.99757536424E+02  0.00000000000E+00 0. -1.
         21   -1    0    0  501  502 -0.00000000000E+00 -0.00000000000E+00 -0.23151415102E+03  0.23151415102E+03  0.00000000000E+00 0. -1.
         25    1    1    2    0    0 -0.74317463021E+02  0.11854215152E+02 -0.19551481112E+02  0.14721028544E+03  0.12500000000E+03 0.  0.
         25    1    1    2    0    0  0.74317463021E+02 -0.11854215152E+02 -0.11220513349E+03  0.18406140200E+03  0.12500000000E+03 0.  0.
</event>
<event>
 4    0  0.2219362E-002  0.2485075E+03  0.7546771E-02  0.1114252E+00
         21   -1    0    0  502  501  0.00000000000E+00  0.00000000000E+00  0.44475988444E+02  0.44475988444E+02  0.00000000000E+00 0.  1.
         21   -1    0    0  501  502 -0.00000000000E+00 -0.00000000000E+00 -0.13885240656E+04  0.13885240656E+04  0.00000000000E+00 0.  1.
         25    1    1    2    0    0  0.14134039022E+03  0.51986329413E+02 -0.11135539445E+04  0.11306224267E+04  0.12500000000E+03 0.  0.
         25    1    1    2    0    0 -0.14134039022E+03 -0.51986329413E+02 -0.23049413265E+03  0.30237762738E+03  0.12500000000E+03 0.  0.
</event>
<event>
 4    0  0.2219362E-002  0.1790895E+03  0.7546771E-02  0.1168687E+00
         21   -1    0    0  502  501  0.00000000000E+00  0.00000000000E+00  0.11447613563E+03  0.11447613563E+03  0.00000000000E+00 0.  1.
         21   -1    0    0  501  502 -0.00000000000E+00 -0.00000000000E+00 -0.28017248664E+03  0.28017248664E+03  0.00000000000E+00 0.  1.
         25    1    1    2    0    0 -0.57162626568E+02 -0.98994998349E+02 -0.14691011345E+03  0.22422122337E+03  0.12500000000E+03 0.  0.
         25    1    1    2    0    0  0.57162626568E+02  0.98994998349E+02 -0.18786237557E+02  0.17042739890E+03  0.12500000000E+03 0.  0.
</event>
<event>
 4    0  0.2219362E-002  0.1961673E+03  0.7546771E-02  0.1153014E+00
         21   -1    0    0  502  501  0.00000000000E+00  0.00000000000E+00  0.15635408687E+02  0.15635408687E+02  0.00000000000E+00 0.  1.
         21   -1    0    0  501  502 -0.00000000000E+00 -0.00000000000E+00 -0.24611842060E+04  0.24611842060E+04  0.00000000000E+00 0.  1.
         25    1    1    2    0    0 -0.23650496625E+02  0.14895116215E+03 -0.11563146097E+04  0.11727890992E+04  0.12500000000E+03 0.  0.
         25    1    1    2    0    0  0.23650496625E+02 -0.14895116215E+03 -0.12892341877E+04  0.13040305155E+04  0.12500000000E+03 0.  0.
</event>
<event>
 4    0  0.2219362E-002  0.2055582E+03  0.7546771E-02  0.1145132E+00
         21   -1    0    0  502  501  0.00000000000E+00  0.00000000000E+00  0.13917255068E+03  0.13917255068E+03  0.00000000000E+00 0.  1.
         21   -1    0    0  501  502 -0.00000000000E+00 -0.00000000000E+00 -0.30361007729E+03  0.30361007729E+03  0.00000000000E+00 0.  1.
         25    1    1    2    0    0  0.11396662393E+03 -0.21679295452E+02 -0.20582257505E+03  0.26729443619E+03  0.12500000000E+03 0.  0.
         25    1    1    2    0    0 -0.11396662393E+03  0.21679295452E+02  0.41385048436E+02  0.17548819178E+03  0.12500000000E+03 0.  0.
</event>
<event>
 4    0  0.2219362E-002  0.1541705E+03  0.7546771E-02  0.1195440E+00
         21   -1    0    0  502  501  0.00000000000E+00  0.00000000000E+00  0.42948729183E+02  0.42948729183E+02  0.00000000000E+00 0. -1.
         21   -1    0    0  501  502 -0.00000000000E+00 -0.00000000000E+00 -0.55341651161E+03  0.55341651161E+03  0.00000000000E+00 0. -1.
         25    1    1    2    0    0 -0.16276733945E+02 -0.88760158249E+02 -0.25429008858E+03  0.29737475836E+03  0.12500000000E+03 0.  0.
         25    1    1    2    0    0  0.16276733945E+02  0.88760158249E+02 -0.25617769385E+03  0.29899048243E+03  0.12500000000E+03 0.  0.
</event>
<event>
 4    0  0.2219362E-002  0.2304190E+03  0.7546771E-02  0.1126345E+00
         21   -1    0    0  502  501  0.00000000000E+00  0.00000000000E+00  0.14149597451E+03  0.14149597451E+03  0.00000000000E+00 0. -1.
         21   -1    0    0  501  502 -0.00000000000E+00 -0.00000000000E+00 -0.37522576790E+03  0.37522576790E+03  0.00000000000E+00 0. -1.
         25    1    1    2    0    0 -0.88192132277E+02  0.11020125827E+03  0.31658385868E+02  0.19117903367E+03  0.12500000000E+03 0.  0.
         25    1    1    2    0    0  0.88192132277E+02 -0.11020125827E+03 -0.26538817927E+03  0.32554270874E+03  0.12500000000E+03 0.  0.
</event>
<event>
 4    0  0.2219362E-002  0.2908563E+03  0.7546771E-02  0.1089903E+00
         21   -1    0    0  502  501  0.00000000000E+00  0.00000000000E+00  0.13051073353E+03  0.13051073353E+03  0.00000000000E+00 0.  1.
         21   -1    0    0  501  502 -0.00000000000E+00 -0.00000000000E+00 -0.64820234061E+03  0.64820234061E+03  0.00000000000E+00 0.  1.
         25    1    1    2    0    0  0.14556668543E+03 -0.11797490212E+03 -0.50518992129E+03  0.55312710476E+03  0.12500000000E+03 0.  0.
         25    1    1    2    0    0 -0.14556668543E+03  0.11797490212E+03 -0.12501685784E+02  0.22558596939E+03  0.12500000000E+03 0.  0.
</event>
<event>
 4    0  0.2219362E-002  0.2321089E+03  0.7546771E-02  0.1125164E+00
         21   -1    0    0  502  501  0.00000000000E+00  0.00000000000E+00  0.80032781146E+03  0.80032781146E+03  0.00000000000E+00 0. -1.
         21   -1    0    0  501  502 -0.00000000000E+00 -0.00000000000E+00 -0.67315587616E+02  0.67315587616E+02  0.00000000000E+00 0.  1.
         25    1    1    2    0    0 -0.11316765813E+03 -0.13043690463E+03  0.19491167867E+03  0.28885336663E+03  0.12500000000E+03 0.  0.
         25    1    1    2    0    0  0.11316765813E+03  0.13043690463E+03  0.53810054518E+03  0.57879003244E+03  0.12500000000E+03 0.  0.
</event>
<event>
 4    0  0.2219362E-002  0.2471519E+03  0.7546771E-02  0.1115118E+00
         21   -1    0    0  502  501  0.00000000000E+00  0.00000000000E+00  0.21466823851E+03  0.21466823851E+03  0.00000000000E+00 0.  1.
         21   -1    0    0  501  502 -0.00000000000E+00 -0.00000000000E+00 -0.28455100153E+03  0.28455100153E+03  0.00000000000E+00 0.  1.
         25    1    1    2    0    0 -0.92631265186E+02  0.18233382402E+03 -0.95814190634E+02  0.25813084628E+03  0.12500000000E+03 0.  0.
         25    1    1    2    0    0  0.92631265186E+02 -0.18233382402E+03  0.25931427610E+02  0.24108839377E+03  0.12500000000E+03 0.  0.
</event>
<event>
 4    0  0.2219362E-002  0.1912818E+03  0.7546771E-02  0.1157310E+00
         21   -1    0    0  502  501  0.00000000000E+00  0.00000000000E+00  0.24070834523E+02  0.24070834523E+02  0.00000000000E+00 0.  1.
         21   -1    0    0  501  502 -0.00000000000E+00 -0.00000000000E+00 -0.15200432366E+04  0.15200432366E+04  0.00000000000E+00 0.  1.
         25    1    1    2    0    0 -0.11895499986E+03 -0.54374593539E+02 -0.49732300603E+03  0.52920890086E+03  0.12500000000E+03 0.  0.
         25    1    1    2    0    0  0.11895499986E+03  0.54374593539E+02 -0.99864939608E+03  0.10149051703E+04  0.12500000000E+03 0.  0.
</event>
<event>
 4    0  0.2219362E-002  0.2219064E+03  0.7546771E-02  0.1132470E+00
         21   -1    0    0  502  501  0.00000000000E+00  0.00000000000E+00  0.64522370662E+03  0.64522370662E+03  0.00000000000E+00 0.  1.
         21   -1    0    0  501  502 -0.00000000000E+00 -0.00000000000E+00 -0.76318441119E+02  0.76318441119E+02  0.00000000000E+00 0.  1.
         25    1    1    2    0    0  0.68523798320E+02 -0.16131943323E+03  0.37197333035E+03  0.42977741794E+03  0.12500000000E+03 0.  0.
         25    1    1    2    0    0 -0.68523798320E+02  0.16131943323E+03  0.19693193515E+03  0.29176472980E+03  0.12500000000E+03 0.  0.
</event>
<event>
 4    0  0.2219362E-002  0.2005767E+03  0.7546771E-02  0.1149253E+00
         21   -1    0    0  502  501  0.00000000000E+00  0.00000000000E+00  0.33101263872E+03  0.33101263872E+03  0.00000000000E+00 0. -1.
         21   -1    0    0  501  502 -0.00000000000E+00 -0.00000000000E+00 -0.12153918533E+03  0.12153918533E+03  0.00000000000E+00 0. -1.
         25    1    1    2    0    0  0.25465205021E+02 -0.10914207158E+03  0.22855107502E+03  0.28358607573E+03  0.12500000000E+03 0.  0.
         25    1    1    2    0    0 -0.25465205021E+02  0.10914207158E+03 -0.19077621636E+02  0.16896574831E+03  0.12500000000E+03 0.  0.
</event>
<event>
 4    0  0.2219362E-002  0.1858819E+03  0.7546771E-02  0.1162229E+00
         21   -1    0    0  502  501  0.00000000000E+00  0.00000000000E+00  0.31402748897E+03  0.31402748897E+03  0.00000000000E+00 0.  1.
         21   -1    0    0  501  502 -0.00000000000E+00 -0.00000000000E+00 -0.11002878508E+03  0.11002878508E+03  0.00000000000E+00 0.  1.
         25    1    1    2    0    0  0.12365107621E+03 -0.51872898181E+02  0.13709533330E+03  0.22891159129E+03  0.12500000000E+03 0.  0.
         25    1    1    2    0    0 -0.12365107621E+03  0.51872898181E+02  0.66903370589E+02  0.19514468276E+03  0.12500000000E+03 0.  0.
</event>
<event>
 4    0  0.2219362E-002  0.2523126E+03  0.7546771E-02  0.1111852E+00
         21   -1    0    0  502  501  0.00000000000E+00  0.00000000000E+00  0.13640947198E+03  0.13640947198E+03  0.00000000000E+00 0.  1.
         21   -1    0    0  501  502 -0.00000000000E+00 -0.00000000000E+00 -0.46669505332E+03  0.46669505332E+03  0.00000000000E+00 0.  1.
         25    1    1    2    0    0 -0.82570180933E+02 -0.63638473006E+02 -0.39555940554E+03  0.42773815979E+03  0.12500000000E+03 0.  0.
         25    1    1    2    0    0  0.82570180933E+02  0.63638473006E+02  0.65273824209E+02  0.17536636551E+03  0.12500000000E+03 0.  0.
</event>
<event>
 4    0  0.2219362E-002  0.2086372E+03  0.7546771E-02  0.1142650E+00
         21   -1    0    0  502  501  0.00000000000E+00  0.00000000000E+00  0.13930922814E+04  0.13930922814E+04  0.00000000000E+00 0.  1.
         21   -1    0    0  501  502 -0.00000000000E+00 -0.00000000000E+00 -0.31246663783E+02  0.31246663783E+02  0.00000000000E+00 0.  1.
         25    1    1    2    0    0 -0.13969609480E+03  0.86088264266E+02  0.57415823670E+03  0.61008923029E+03  0.12500000000E+03 0.  0.
         25    1    1    2    0    0  0.13969609480E+03 -0.86088264266E+02  0.78768738097E+03  0.81424971494E+03  0.12500000000E+03 0.  0.
</event>
<event>
 4    0  0.2219362E-002  0.4787318E+03  0.7546771E-02  0.1019484E+00
         21   -1    0    0  502  501  0.00000000000E+00  0.00000000000E+00  0.27806477713E+03  0.27806477713E+03  0.00000000000E+00 0. -1.
         21   -1    0    0  501  502 -0.00000000000E+00 -0.00000000000E+00 -0.82421143624E+03  0.82421143624E+03  0.00000000000E+00 0. -1.
         25    1    1    2    0    0 -0.16912465070E+03  0.18890273669E+03 -0.71786534735E+03  0.77151995977E+03  0.12500000000E+03 0.  0.
         25    1    1    2    0    0  0.16912465070E+03 -0.18890273669E+03  0.17171868824E+03  0.33075625360E+03  0.12500000000E+03 0.  0.
</event>
<event>
 4    0  0.2219362E-002  0.1932458E+03  0.7546771E-02  0.1155566E+00
         21   -1    0    0  502  501  0.00000000000E+00  0.00000000000E+00  0.78711665866E+02  0.78711665866E+02  0.00000000000E+00 0. -1.
         21   -1    0    0  501  502 -0.00000000000E+00 -0.00000000000E+00 -0.47443948688E+03  0.47443948688E+03  0.00000000000E+00 0. -1.
         25    1    1    2    0    0  0.13336412267E+03  0.10659196671E+02 -0.10941416632E+03  0.21329807191E+03  0.12500000000E+03 0.  0.
         25    1    1    2    0    0 -0.13336412267E+03 -0.10659196671E+02 -0.28631365470E+03  0.33985308084E+03  0.12500000000E+03 0.  0.
</event>
<event>
 4    0  0.2219362E-002  0.3844211E+03  0.7546771E-02  0.1049312E+00
         21   -1    0    0  502  501  0.00000000000E+00  0.00000000000E+00  0.38399090622E+03  0.38399090622E+03  0.00000000000E+00 0.  1.
         21   -1    0    0  501  502 -0.00000000000E+00 -0.00000000000E+00 -0.38485176506E+03  0.38485176506E+03  0.00000000000E+00 0.  1.
         25    1    1    2    0    0 -0.27875200055E+03  0.43544392241E+02 -0.22968106084E+03  0.38467802331E+03  0.12500000000E+03 0.  0.
         25    1    1    2    0    0  0.27875200055E+03 -0.43544392241E+02  0.22882020201E+03  0.38416464797E+03  0.12500000000E+03 0.  0.
</event>
<event>
 4    0  0.2219362E-002  0.1894193E+03  0.7546771E-02  0.1158986E+00
         21   -1    0    0  502  501  0.00000000000E+00  0.00000000000E+00  0.19622893332E+04  0.19622893332E+04  0.00000000000E+00 0.  1.
         21   -1    0    0  501  502 -0.00000000000E+00 -0.00000000000E+00 -0.18284604617E+02  0.18284604617E+02  0.00000000000E+00 0.  1.
         25    1    1    2    0    0 -0.52506443331E+02  0.11864814541E+02  0.16607718362E+04  0.16663390388E+04  0.12500000000E+03 0.  0.
         25    1    1    2    0    0  0.52506443331E+02 -0.11864814541E+02  0.28323289242E+03  0.31423489902E+03  0.12500000000E+03 0.  0.
</event>
<event>
 4    0  0.2219362E-002  0.2307664E+03  0.7546771E-02  0.1126102E+00
         21   -1    0    0  502  501  0.00000000000E+00  0.00000000000E+00  0.93112296337E+03  0.93112296337E+03  0.00000000000E+00 0.  1.
         21   -1    0    0  501  502 -0.00000000000E+00 -0.00000000000E+00 -0.57192354084E+02  0.57192354084E+02  0.00000000000E+00 0.  1.
         25    1    1    2    0    0 -0.17571457533E+03 -0.80403887315E+02  0.40064279124E+03  0.46203900620E+03  0.12500000000E+03 0.  0.
         25    1    1    2    0    0  0.17571457533E+03  0.80403887315E+02  0.47328781805E+03  0.52627631126E+03  0.12500000000E+03 0.  0.
</event>
<event>
 4    0  0.2219362E-002  0.1602515E+03  0.7546771E-02  0.1188413E+00
         21   -1    0    0  502  501  0.00000000000E+00  0.00000000000E+00  0.14566426642E+02  0.14566426642E+02  0.00000000000E+00 0. -1.
         21   -1    0    0  501  502 -0.00000000000E+00 -0.00000000000E+00 -0.17629951464E+04  0.17629951464E+04  0.00000000000E+00 0. -1.
         25    1    1    2    0    0 -0.94603293837E+02  0.27296177010E+02 -0.76888472041E+03  0.78517741802E+03  0.12500000000E+03 0.  0.
         25    1    1    2    0    0  0.94603293837E+02 -0.27296177010E+02 -0.97954399931E+03  0.99238415498E+03  0.12500000000E+03 0.  0.
</event>
<event>
 4    0  0.2219362E-002  0.2018337E+03  0.7546771E-02  0.1148201E+00
         21   -1    0    0  502  501  0.00000000000E+00  0.00000000000E+00  0.30372679857E+03  0.30372679857E+03  0.00000000000E+00 0. -1.
         21   -1    0    0  501  502 -0.00000000000E+00 -0.00000000000E+00 -0.13412332378E+03  0.13412332378E+03  0.00000000000E+00 0. -1.
         25    1    1    2    0    0 -0.11578222810E+03  0.93526077535E+02  0.14380671527E+03  0.24178093986E+03  0.12500000000E+03 0.  0.
         25    1    1    2    0    0  0.11578222810E+03 -0.93526077535E+02  0.25796759517E+02  0.19606918249E+03  0.12500000000E+03 0.  0.
</event>
<event>
 4    0  0.2219362E-002  0.2000179E+03  0.7546771E-02  0.1149724E+00
         21   -1    0    0  502  501  0.00000000000E+00  0.00000000000E+00  0.16827886530E+03  0.16827886530E+03  0.00000000000E+00 0.  1.
         21   -1    0    0  501  502 -0.00000000000E+00 -0.00000000000E+00 -0.23774319139E+03  0.23774319139E+03  0.00000000000E+00 0.  1.
         25    1    1    2    0    0 -0.12080159003E+03  0.98821140071E+02 -0.39653704304E+02  0.20385303075E+03  0.12500000000E+03 0.  0.
         25    1    1    2    0    0  0.12080159003E+03 -0.98821140071E+02 -0.29810621777E+02  0.20216902594E+03  0.12500000000E+03 0.  0.
</event>
<event>
 4    0  0.2219362E-002  0.2470334E+03  0.7546771E-02  0.1115194E+00
         21   -1    0    0  502  501  0.00000000000E+00  0.00000000000E+00  0.55563068639E+02  0.55563068639E+02  0.00000000000E+00 0. -1.
         21   -1    0    0  501  502 -0.00000000000E+00 -0.00000000000E+00 -0.10983106850E+04  0.10983106850E+04  0.00000000000E+00 0. -1.
         25    1    1    2    0    0  0.12574047338E+03  0.16066020757E+02 -0.92135669471E+03  0.93839860536E+03  0.12500000000E+03 0.  0.
         25    1    1    2    0    0 -0.12574047338E+03 -0.16066020757E+02 -0.12139092168E+03  0.21547514830E+03  0.12500000000E+03 0.  0.
</event>
<event>
 4    0  0.2219362E-002  0.1648824E+03  0.7546771E-02  0.1183292E+00
         21   -1    0    0  502  501  0.00000000000E+00  0.00000000000E+00  0.17062622269E+04  0.17062622269E+04  0.00000000000E+00 0.  1.
         21   -1    0    0  501  502 -0.00000000000E+00 -0.00000000000E+00 -0.15933195291E+02  0.15933195291E+02  0.00000000000E+00 0.  1.
         25    1    1    2    0    0  0.20723616231E+02 -0.91060477191E+02  0.11234667355E+04  0.11342504064E+04  0.12500000000E+03 0.  0.
         25    1    1    2    0    0 -0.20723616231E+02  0.91060477191E+02  0.56686229615E+03  0.58794501577E+03  0.12500000000E+03 0.  0.
</event>
<event>
 4    0  0.2219362E-002  0.2778793E+03  0.7546771E-02  0.1096853E+00
         21   -1    0    0  502  501  0.00000000000E+00  0.00000000000E+00  0.15434734424E+04  0.15434734424E+04  0.00000000000E+00 0.  1.
         21   -1    0    0  501  502 -0.00000000000E+00 -0.00000000000E+00 -0.50028005034E+02  0.50028005034E+02  0.00000000000E+00 0. -1.
         25    1    1    2    0    0  0.21670005849E+03 -0.51769090005E+02  0.10601983025E+04  0.10905431650E+04  0.12500000000E+03 0.  0.
         25    1    1    2    0    0 -0.21670005849E+03  0.51769090005E+02  0.43324713484E+03  0.50295828244E+03  0.12500000000E+03 0.  0.
</event>
<event>
 4    0  0.2219362E-002  0.2136378E+03  0.7546771E-02  0.1138717E+00
         21   -1    0    0  502  501  0.00000000000E+00  0.00000000000E+00  0.10510510698E+04  0.10510510698E+04  0.00000000000E+00 0.  1.
         21   -1    0    0  501  502 -0.00000000000E+00 -0.00000000000E+00 -0.43424254553E+02  0.43424254553E+02  0.00000000000E+00 0.  1.
         25    1    1    2    0    0 -0.12680472277E+03  0.88661141766E+02  0.30414826960E+03  0.36341629803E+03  0.12500000000E+03 0.  0.
         25    1    1    2    0    0  0.12680472277E+03 -0.88661141766E+02  0.70347854560E+03  0.73105902627E+03  0.12500000000E+03 0.  0.
</event>
<event>
 4    0  0.2219362E-002  0.1856706E+03  0.7546771E-02  0.1162425E+00
         21   -1    0    0  502  501  0.00000000000E+00  0.00000000000E+00  0.74002127472E+02  0.74002127472E+02  0.00000000000E+00 0. -1.
         21   -1    0    0  501  502 -0.00000000000E+00 -0.00000000000E+00 -0.46584571005E+03  0.46584571005E+03  0.00000000000E+00 0. -1.
         25    1    1    2    0    0  0.36643960373E+02  0.60606725479E+02 -0.24939780989E+02  0.14581820079E+03  0.12500000000E+03 0.  0.
         25    1    1    2    0    0 -0.36643960373E+02 -0.60606725479E+02 -0.36690380158E+03  0.39402963673E+03  0.12500000000E+03 0.  0.
</event>
<event>
 4    0  0.2219362E-002  0.2791402E+03  0.7546771E-02  0.1096159E+00
         21   -1    0    0  502  501  0.00000000000E+00  0.00000000000E+00  0.10509404004E+03  0.10509404004E+03  0.00000000000E+00 0. -1.
         21   -1    0    0  501  502 -0.00000000000E+00 -0.00000000000E+00 -0.74142390444E+03  0.74142390444E+03  0.00000000000E+00 0. -1.
         25    1    1    2    0    0  0.17871552556E+03  0.11559566032E+03 -0.51582285936E+03  0.57183897909E+03  0.12500000000E+03 0.  0.
         25    1    1    2    0    0 -0.17871552556E+03 -0.11559566032E+03 -0.12050700504E+03  0.27467896538E+03  0.12500000000E+03 0.  0.
</event>
<event>
 4    0  0.2219362E-002  0.2131126E+03  0.7546771E-02  0.1139125E+00
         21   -1    0    0  502  501  0.00000000000E+00  0.00000000000E+00  0.22875779649E+02  0.22875779649E+02  0.00000000000E+00 0.  1.
         21   -1    0    0  501  502 -0.00000000000E+00 -0.00000000000E+00 -0.19853744064E+04  0.19853744064E+04  0.00000000000E+00 0.  1.
         25    1    1    2    0    0  0.12474326792E+03 -0.11926446899E+03 -0.96870253961E+03  0.99186415738E+03  0.12500000000E+03 0.  0.
         25    1    1    2    0    0 -0.12474326792E+03  0.11926446899E+03 -0.99379608711E+03  0.10163860286E+04  0.12500000000E+03 0.  0.
</event>
<event>
 4    0  0.2219362E-002  0.4510521E+03  0.7546771E-02  0.1027409E+00
         21   -1    0    0  502  501  0.00000000000E+00  0.00000000000E+00  0.40643249794E+03  0.40643249794E+03  0.00000000000E+00 0.  1.
         21   -1    0    0  501  502 -0.00000000000E+00 -0.00000000000E+00 -0.50057014729E+03  0.50057014729E+03  0.00000000000E+00 0.  1.
         25    1    1    2    0    0 -0.29576060445E+03  0.25643675931E+03  0.13992178582E+03  0.43409359915E+03  0.12500000000E+03 0.  0.
         25    1    1    2    0    0  0.29576060445E+03 -0.25643675931E+03 -0.23405943517E+03  0.47290904608E+03  0.12500000000E+03 0.  0.
</event>
<event>
 4    0  0.2219362E-002  0.1834673E+03  0.7546771E-02  0.1164489E+00
         21   -1    0    0  502  501  0.00000000000E+00  0.00000000000E+00  0.80005027192E+03  0.80005027192E+03  0.00000000000E+00 0. -1.
         21   -1    0    0  501  502 -0.00000000000E+00 -0.00000000000E+00 -0.42072661721E+02  0.42072661721E+02  0.00000000000E+00 0. -1.
         25    1    1    2    0    0  0.12037106124E+03  0.55193265979E+02  0.43029450756E+03  0.46724067913E+03  0.12500000000E+03 0.  0.
         25    1    1    2    0    0 -0.12037106124E+03 -0.55193265979E+02  0.32768310263E+03  0.37488225451E+03  0.12500000000E+03 0.  0.
</event>
<event>
 4    0  0.2219362E-002  0.2242035E+03  0.7546771E-02  0.1130787E+00
         21   -1    0    0  502  501  0.00000000000E+00  0.00000000000E+00  0.21601235728E+03  0.21601235728E+03  0.00000000000E+00 0. -1.
         21   -1    0    0  501  502 -0.00000000000E+00 -0.00000000000E+00 -0.23270521040E+03  0.23270521040E+03  0.00000000000E+00 0. -1.
         25    1    1    2    0    0 -0.17217547746E+03 -0.27342961154E+02 -0.73584901282E+02  0.22678573646E+03  0.12500000000E+03 0.  0.
         25    1    1    2    0    0  0.17217547746E+03  0.27342961154E+02  0.56892048156E+02  0.22193183122E+03  0.12500000000E+03 0.  0.
</event>
<event>
 4    0  0.2219362E-002  0.1647537E+03  0.7546771E-02  0.1183432E+00
         21   -1    0    0  502  501  0.00000000000E+00  0.00000000000E+00  0.49343830327E+03  0.49343830327E+03  0.00000000000E+00 0. -1.
         21   -1    0    0  501  502 -0.00000000000E+00 -0.00000000000E+00 -0.55009465382E+02  0.55009465382E+02  0.00000000000E+00 0. -1.
         25    1    1    2    0    0 -0.82902766258E+02 -0.52857755926E+02  0.29084305318E+03  0.33148377426E+03  0.12500000000E+03 0.  0.
         25    1    1    2    0    0  0.82902766258E+02  0.52857755926E+02  0.14758578471E+03  0.21696399439E+03  0.12500000000E+03 0.  0.
</event>
<event>
 4    0  0.2219362E-002  0.6392704E+03  0.7546771E-02  0.9827123E-01
         21   -1    0    0  502  501  0.00000000000E+00  0.00000000000E+00  0.19886047879E+03  0.19886047879E+03  0.00000000000E+00 0. -1.
         21   -1    0    0  501  502 -0.00000000000E+00 -0.00000000000E+00 -0.20550421784E+04  0.20550421784E+04  0.00000000000E+00 0. -1.
         25    1    1    2    0    0  0.11510607187E+03  0.44907486207E+03 -0.16721060499E+04  0.17396784995E+04  0.12500000000E+03 0.  0.
         25    1    1    2    0    0 -0.11510607187E+03 -0.44907486207E+03 -0.18407564972E+03  0.51422415768E+03  0.12500000000E+03 0.  0.
</event>
<event>
 4    0  0.2219362E-002  0.3049386E+03  0.7546771E-02  0.1082798E+00
         21   -1    0    0  502  501  0.00000000000E+00  0.00000000000E+00  0.11964788989E+04  0.11964788989E+04  0.00000000000E+00 0. -1.
         21   -1    0    0  501  502 -0.00000000000E+00 -0.00000000000E+00 -0.77717650648E+02  0.77717650648E+02  0.00000000000E+00 0.  1.
         25    1    1    2    0    0  0.17302602000E+02 -0.22617615262E+03  0.22309616018E+03  0.34183611385E+03  0.12500000000E+03 0.  0.
         25    1    1    2    0    0 -0.17302602000E+02  0.22617615262E+03  0.89566508808E+03  0.93236043570E+03  0.12500000000E+03 0.  0.
</event>
<event>
 4    0  0.2219362E-002  0.2804766E+03  0.7546771E-02  0.1095429E+00
         21   -1    0    0  502  501  0.00000000000E+00  0.00000000000E+00  0.24883845329E+03  0.24883845329E+03  0.00000000000E+00 0.  1.
         21   -1    0    0  501  502 -0.00000000000E+00 -0.00000000000E+00 -0.31613727711E+03  0.31613727711E+03  0.00000000000E+00 0.  1.
         25    1    1    2    0    0  0.10444963059E+03  0.22653855891E+03 -0.49376711362E+01  0.27906777779E+03  0.12500000000E+03 0.  0.
         25    1    1    2    0    0 -0.10444963059E+03 -0.22653855891E+03 -0.62361152681E+02  0.28590795261E+03  0.12500000000E+03 0.  0.
</event>
<event>
 4    0  0.2219362E-002  0.2165255E+03  0.7546771E-02  0.1136500E+00
         21   -1    0    0  502  501  0.00000000000E+00  0.00000000000E+00  0.35162544512E+03  0.35162544512E+03  0.00000000000E+00 0.  1.
         21   -1    0    0  501  502 -0.00000000000E+00 -0.00000000000E+00 -0.13333303531E+03  0.13333303531E+03  0.00000000000E+00 0.  1.
         25    1    1    2    0    0 -0.26076509775E+02 -0.54821538494E+02 -0.76808330092E+02  0.15877627347E+03  0.12500000000E+03 0.  0.
         25    1    1    2    0    0  0.26076509775E+02  0.54821538494E+02  0.29510073990E+03  0.32618220696E+03  0.12500000000E+03 0.  0.
</event>
<event>
 4    0  0.2219362E-002  0.2268700E+03  0.7546771E-02  0.1128862E+00
         21   -1    0    0  502  501  0.00000000000E+00  0.00000000000E+00  0.12586784426E+03  0.12586784426E+03  0.00000000000E+00 0.  1.
         21   -1    0    0  501  502 -0.00000000000E+00 -0.00000000000E+00 -0.40892091496E+03  0.40892091496E+03  0.00000000000E+00 0.  1.
         25    1    1    2    0    0  0.29883202878E+02  0.18671427588E+03 -0.13035958570E+03  0.26148393491E+03  0.12500000000E+03 0.  0.
         25    1    1    2    0    0 -0.29883202878E+02 -0.18671427588E+03 -0.15269348499E+03  0.27330482431E+03  0.12500000000E+03 0.  0.
</event>
<event>
 4    0  0.2219362E-002  0.1866181E+03  0.7546771E-02  0.1161547E+00
         21   -1    0    0  502  501  0.00000000000E+00  0.00000000000E+00  0.28447027154E+02  0.28447027154E+02  0.00000000000E+00 0. -1.
         21   -1    0    0  501  502 -0.00000000000E+00 -0.00000000000E+00 -0.12242511039E+04  0.12242511039E+04  0.00000000000E+00 0. -1.
         25    1    1    2    0    0  0.12853157287E+03  0.29243234952E+02 -0.45448985272E+03  0.48945026125E+03  0.12500000000E+03 0.  0.
         25    1    1    2    0    0 -0.12853157287E+03 -0.29243234952E+02 -0.74131422407E+03  0.76324786985E+03  0.12500000000E+03 0.  0.
</event>
<event>
 4    0  0.2219362E-002  0.2620174E+03  0.7546771E-02  0.1105937E+00
         21   -1    0    0  502  501  0.00000000000E+00  0.00000000000E+00  0.26732811644E+03  0.26732811644E+03  0.00000000000E+00 0.  1.
         21   -1    0    0  501  502 -0.00000000000E+00 -0.00000000000E+00 -0.25681225249E+03  0.25681225249E+03  0.00000000000E+00 0.  1.
         25    1    1    2    0    0  0.14560466515E+03  0.17833058861E+03  0.19545175527E+00  0.26196861558E+03  0.12500000000E+03 0.  0.
         25    1    1    2    0    0 -0.14560466515E+03 -0.17833058861E+03  0.10320412191E+02  0.26217175335E+03  0.12500000000E+03 0.  0.
</event>
<event>
 4    0  0.2219362E-002  0.3670323E+03  0.7546771E-02  0.1055834E+00
         21   -1    0    0  502  501  0.00000000000E+00  0.00000000000E+00  0.13781659656E+04  0.13781659656E+04  0.00000000000E+00 0.  1.
         21   -1    0    0  501  502 -0.00000000000E+00 -0.00000000000E+00 -0.97747836384E+02  0.97747836384E+02  0.00000000000E+00 0.  1.
         25    1    1    2    0    0  0.18703060689E+03 -0.24568121531E+03  0.95005120995E+03  0.10067581681E+04  0.12500000000E+03 0.  0.
         25    1    1    2    0    0 -0.18703060689E+03  0.24568121531E+03  0.33036691924E+03  0.46915563388E+03  0.12500000000E+03 0.  0.
</event>
<event>
 4    0  0.2219362E-002  0.1650333E+03  0.7546771E-02  0.1183129E+00
         21   -1    0    0  502  501  0.00000000000E+00  0.00000000000E+00  0.47961484880E+02  0.47961484880E+02  0.00000000000E+00 0.  1.
         21   -1    0    0  501  502 -0.00000000000E+00 -0.00000000000E+00 -0.56787239356E+03  0.56787239356E+03  0.00000000000E+00 0.  1.
         25    1    1    2    0    0 -0.15953993283E+02 -0.10426723193E+03 -0.30103740992E+03  0.34259992372E+03  0.12500000000E+03 0.  0.
         25    1    1    2    0    0  0.15953993283E+02  0.10426723193E+03 -0.21887349876E+03  0.27323395473E+03  0.12500000000E+03 0.  0.
</event>
<event>
 4    0  0.2219362E-002  0.1878682E+03  0.7546771E-02  0.1160398E+00
         21   -1    0    0  502  501  0.00000000000E+00  0.00000000000E+00  0.53109570595E+02  0.53109570595E+02  0.00000000000E+00 0. -1.
         21   -1    0    0  501  502 -0.00000000000E+00 -0.00000000000E+00 -0.66455935253E+03  0.66455935253E+03  0.00000000000E+00 0. -1.
         25    1    1    2    0    0 -0.87732897359E+02 -0.76325430467E+02 -0.45547475500E+03  0.48642048174E+03  0.12500000000E+03 0.  0.
         25    1    1    2    0    0  0.87732897359E+02  0.76325430467E+02 -0.15597502694E+03  0.23124844138E+03  0.12500000000E+03 0.  0.
</event>
<event>
 4    0  0.2219362E-002  0.2814473E+03  0.7546771E-02  0.1094901E+00
         21   -1    0    0  502  501  0.00000000000E+00  0.00000000000E+00  0.38268798220E+03  0.38268798220E+03  0.00000000000E+00 0.  1.
         21   -1    0    0  501  502 -0.00000000000E+00 -0.00000000000E+00 -0.20699003187E+03  0.20699003187E+03  0.00000000000E+00 0. -1.
         25    1    1    2    0    0 -0.21057068332E+03  0.13825546830E+03  0.75767201720E+02  0.29123917326E+03  0.12500000000E+03 0.  0.
         25    1    1    2    0    0  0.21057068332E+03 -0.13825546830E+03  0.99930748604E+02  0.29843884081E+03  0.12500000000E+03 0.  0.
</event>
<event>
 4    0  0.2219362E-002  0.2862835E+03  0.7546771E-02  0.1092306E+00
         21   -1    0    0  502  501  0.00000000000E+00  0.00000000000E+00  0.87618511504E+02  0.87618511504E+02  0.00000000000E+00 0.  1.
         21   -1    0    0  501  502 -0.00000000000E+00 -0.00000000000E+00 -0.93539839869E+03  0.93539839869E+03  0.00000000000E+00 0.  1.
         25    1    1    2    0    0 -0.24383391426E+02 -0.17895903704E+03 -0.95831706840E+02  0.23964474280E+03  0.12500000000E+03 0.  0.
         25    1    1    2    0    0  0.24383391426E+02  0.17895903704E+03 -0.75194818035E+03  0.78337216740E+03  0.12500000000E+03 0.  0.
</event>
<event>
 4    0  0.2219362E-002  0.2475725E+03  0.7546771E-02  0.1114849E+00
         21   -1    0    0  502  501  0.00000000000E+00  0.00000000000E+00  0.97602851181E+03  0.97602851181E+03  0.00000000000E+00 0. -1.
         21   -1    0    0  501  502 -0.00000000000E+00 -0.00000000000E+00 -0.62797482949E+02  0.62797482949E+02  0.00000000000E+00 0. -1.
         25    1    1    2    0    0 -0.17945249811E+03 -0.10819609299E+03  0.36865999914E+03  0.44209138036E+03  0.12500000000E+03 0.  0.
         25    1    1    2    0    0  0.17945249811E+03  0.10819609299E+03  0.54457102972E+03  0.59673461441E+03  0.12500000000E+03 0.  0.
</event>
<event>
 4    0  0.2219362E-002  0.2024542E+03  0.7546771E-02  0.1147685E+00
         21   -1    0    0  502  501  0.00000000000E+00  0.00000000000E+00  0.11502868898E+03  0.11502868898E+03  0.00000000000E+00 0. -1.
         21   -1    0    0  501  502 -0.00000000000E+00 -0.00000000000E+00 -0.35632588882E+03  0.35632588882E+03  0.00000000000E+00 0. -1.
         25    1    1    2    0    0  0.99972116084E+02  0.46016720060E+02 -0.25465050801E+03  0.30427593357E+03  0.12500000000E+03 0.  0.
         25    1    1    2    0    0 -0.99972116084E+02 -0.46016720060E+02  0.13353308169E+02  0.16707864423E+03  0.12500000000E+03 0.  0.
</event>
<event>
 4    0  0.2219362E-002  0.2698777E+03  0.7546771E-02  0.1101350E+00
         21   -1    0    0  502  501  0.00000000000E+00  0.00000000000E+00  0.30396745080E+02  0.30396745080E+02  0.00000000000E+00 0. -1.
         21   -1    0    0  501  502 -0.00000000000E+00 -0.00000000000E+00 -0.23961115465E+04  0.23961115465E+04  0.00000000000E+00 0. -1.
         25    1    1    2    0    0  0.11497781652E+03 -0.15339250265E+02 -0.24250070589E+03  0.29645705127E+03  0.12500000000E+03 0.  0.
         25    1    1    2    0    0 -0.11497781652E+03  0.15339250265E+02 -0.21232140955E+04  0.21300512403E+04  0.12500000000E+03 0.  0.
</event>
<event>
 4    0  0.2219362E-002  0.2956496E+03  0.7546771E-02  0.1087436E+00
         21   -1    0    0  502  501  0.00000000000E+00  0.00000000000E+00  0.55444963266E+03  0.55444963266E+03  0.00000000000E+00 0. -1.
         21   -1    0    0  501  502 -0.00000000000E+00 -0.00000000000E+00 -0.15764944109E+03  0.15764944109E+03  0.00000000000E+00 0. -1.
         25    1    1    2    0    0  0.23295435109E+03 -0.84024898744E+00  0.35778280002E+03  0.44486173999E+03  0.12500000000E+03 0.  0.
         25    1    1    2    0    0 -0.23295435109E+03  0.84024898744E+00  0.39017391541E+02  0.26723733376E+03  0.12500000000E+03 0.  0.
</event>
<event>
 4    0  0.2219362E-002  0.2215943E+03  0.7546771E-02  0.1132700E+00
         21   -1    0    0  502  501  0.00000000000E+00  0.00000000000E+00  0.57596124876E+02  0.57596124876E+02  0.00000000000E+00 0.  1.
         21   -1    0    0  501  502 -0.00000000000E+00 -0.00000000000E+00 -0.85255798411E+03  0.85255798411E+03  0.00000000000E+00 0.  1.
         25    1    1    2    0    0 -0.16532198610E+03 -0.18735634791E+02 -0.24112476977E+03  0.31850987064E+03  0.12500000000E+03 0.  0.
         25    1    1    2    0    0  0.16532198610E+03  0.18735634791E+02 -0.55383708946E+03  0.59164423834E+03  0.12500000000E+03 0.  0.
</event>
<event>
 4    0  0.2219362E-002  0.1796394E+03  0.7546771E-02  0.1168152E+00
         21   -1    0    0  502  501  0.00000000000E+00  0.00000000000E+00  0.15161276060E+04  0.15161276060E+04  0.00000000000E+00 0. -1.
         21   -1    0    0  501  502 -0.00000000000E+00 -0.00000000000E+00 -0.21284693382E+02  0.21284693382E+02  0.00000000000E+00 0. -1.
         25    1    1    2    0    0  0.54305378935E+02 -0.10690719634E+03  0.54367361922E+03  0.57059988350E+03  0.12500000000E+03 0.  0.
         25    1    1    2    0    0 -0.54305378935E+02  0.10690719634E+03  0.95116929339E+03  0.96681241588E+03  0.12500000000E+03 0.  0.
</event>
<event>
 4    0  0.2219362E-002  0.4422452E+03  0.7546771E-02  0.1030060E+00
         21   -1    0    0  502  501  0.00000000000E+00  0.00000000000E+00  0.82638351890E+03  0.82638351890E+03  0.00000000000E+00 0. -1.
         21   -1    0    0  501  502 -0.00000000000E+00 -0.00000000000E+00 -0.23667081261E+03  0.23667081261E+03  0.00000000000E+00 0. -1.
         25    1    1    2    0    0  0.31877114735E+03 -0.60787152474E+02 -0.33514646689E+02  0.34936850721E+03  0.12500000000E+03 0.  0.
         25    1    1    2    0    0 -0.31877114735E+03  0.60787152474E+02  0.62322735298E+03  0.71368582429E+03  0.12500000000E+03 0.  0.
</event>
<event>
 4    0  0.2219362E-002  0.2345658E+03  0.7546771E-02  0.1123467E+00
         21   -1    0    0  502  501  0.00000000000E+00  0.00000000000E+00  0.44483839446E+03  0.44483839446E+03  0.00000000000E+00 0. -1.
         21   -1    0    0  501  502 -0.00000000000E+00 -0.00000000000E+00 -0.12368786886E+03  0.12368786886E+03  0.00000000000E+00 0. -1.
         25    1    1    2    0    0 -0.55520596848E+02  0.13894644684E+03  0.25321425289E+01  0.19498734192E+03  0.12500000000E+03 0.  0.
         25    1    1    2    0    0  0.55520596848E+02 -0.13894644684E+03  0.31861838308E+03  0.37353892140E+03  0.12500000000E+03 0.  0.
</event>
<event>
 4    0  0.2219362E-002  0.5131474E+03  0.7546771E-02  0.1010403E+00
         21   -1    0    0  502  501  0.00000000000E+00  0.00000000000E+00  0.69423733123E+03  0.69423733123E+03  0.00000000000E+00 0. -1.
         21   -1    0    0  501  502 -0.00000000000E+00 -0.00000000000E+00 -0.37929426430E+03  0.37929426430E+03  0.00000000000E+00 0.  1.
         25    1    1    2    0    0  0.29012113596E+02  0.42339979217E+03 -0.11446751476E+03  0.45698675985E+03  0.12500000000E+03 0.  0.
         25    1    1    2    0    0 -0.29012113596E+02 -0.42339979217E+03  0.42941058169E+03  0.61654483568E+03  0.12500000000E+03 0.  0.
</event>
<event>
 4    0  0.2219362E-002  0.3234149E+03  0.7546771E-02  0.1074088E+00
         21   -1    0    0  502  501  0.00000000000E+00  0.00000000000E+00  0.81656769490E+03  0.81656769490E+03  0.00000000000E+00 0. -1.
         21   -1    0    0  501  502 -0.00000000000E+00 -0.00000000000E+00 -0.12809370090E+03  0.12809370090E+03  0.00000000000E+00 0. -1.
         25    1    1    2    0    0  0.25775697996E+03  0.73439548838E+01  0.56320482995E+03  0.63191555992E+03  0.12500000000E+03 0.  0.
         25    1    1    2    0    0 -0.25775697996E+03 -0.73439548838E+01  0.12526916405E+03  0.31274583587E+03  0.12500000000E+03 0.  0.
</event>
<event>
 4    0  0.2219362E-002  0.1872322E+03  0.7546771E-02  0.1160982E+00
         21   -1    0    0  502  501  0.00000000000E+00  0.00000000000E+00  0.18604274943E+03  0.18604274943E+03  0.00000000000E+00 0. -1.
         21   -1    0    0  501  502 -0.00000000000E+00 -0.00000000000E+00 -0.18842932312E+03  0.18842932312E+03  0.00000000000E+00 0. -1.
         25    1    1    2    0    0 -0.23505377843E+02 -0.13739114867E+03 -0.26351296406E+01  0.18724522538E+03  0.12500000000E+03 0.  0.
         25    1    1    2    0    0  0.23505377843E+02  0.13739114867E+03  0.24855594890E+00  0.18722684717E+03  0.12500000000E+03 0.  0.
</event>
<event>
 4    0  0.2219362E-002  0.1927429E+03  0.7546771E-02  0.1156010E+00
         21   -1    0    0  502  501  0.00000000000E+00  0.00000000000E+00  0.46530412378E+03  0.46530412378E+03  0.00000000000E+00 0.  1.
         21   -1    0    0  501  502 -0.00000000000E+00 -0.00000000000E+00 -0.79839850282E+02  0.79839850282E+02  0.00000000000E+00 0.  1.
         25    1    1    2    0    0 -0.46557605036E+01  0.10194602334E+02  0.39960414845E+03  0.41884851853E+03  0.12500000000E+03 0.  0.
         25    1    1    2    0    0  0.46557605036E+01 -0.10194602334E+02 -0.14139874951E+02  0.12629545552E+03  0.12500000000E+03 0.  0.
</event>
<event>
 4    0  0.2219362E-002  0.3359089E+03  0.7546771E-02  0.1068552E+00
         21   -1    0    0  502  501  0.00000000000E+00  0.00000000000E+00  0.18883530841E+03  0.18883530841E+03  0.00000000000E+00 0.  1.
         21   -1    0    0  501  502 -0.00000000000E+00 -0.00000000000E+00 -0.59753025355E+03  0.59753025355E+03  0.00000000000E+00 0. -1.
         25    1    1    2    0    0  0.28718572426E+03 -0.12080423059E+03 -0.19047280826E+03  0.38597175160E+03  0.12500000000E+03 0.  0.
         25    1    1    2    0    0 -0.28718572426E+03  0.12080423059E+03 -0.21822213688E+03  0.40039381036E+03  0.12500000000E+03 0.  0.
</event>
<event>
 4    0  0.2219362E-002  0.1653767E+03  0.7546771E-02  0.1182757E+00
         21   -1    0    0  502  501  0.00000000000E+00  0.00000000000E+00  0.24150452912E+02  0.24150452912E+02  0.00000000000E+00 0. -1.
         21   -1    0    0  501  502 -0.00000000000E+00 -0.00000000000E+00 -0.11324606330E+04  0.11324606330E+04  0.00000000000E+00 0. -1.
         25    1    1    2    0    0 -0.61606985613E+02  0.18605024895E+02 -0.85866396228E+03  0.87009790699E+03  0.12500000000E+03 0.  0.
         25    1    1    2    0    0  0.61606985613E+02 -0.18605024895E+02 -0.24964621777E+03  0.28651317889E+03  0.12500000000E+03 0.  0.
</event>
<event>
 4    0  0.2219362E-002  0.3919444E+03  0.7546771E-02  0.1046605E+00
         21   -1    0    0  502  501  0.00000000000E+00  0.00000000000E+00  0.58488077398E+03  0.58488077398E+03  0.00000000000E+00 0.  1.
         21   -1    0    0  501  502 -0.00000000000E+00 -0.00000000000E+00 -0.26265255891E+03  0.26265255891E+03  0.00000000000E+00 0.  1.
         25    1    1    2    0    0  0.15086152660E+03  0.15106657354E+03 -0.16756630386E+03  0.29880390901E+03  0.12500000000E+03 0.  0.
         25    1    1    2    0    0 -0.15086152660E+03 -0.15106657354E+03  0.48979451894E+03  0.54872942388E+03  0.12500000000E+03 0.  0.
</event>
<event>
 4    0  0.2219362E-002  0.2417350E+03  0.7546771E-02  0.1118642E+00
         21   -1    0    0  502  501  0.00000000000E+00  0.00000000000E+00  0.29545099666E+03  0.29545099666E+03  0.00000000000E+00 0. -1.
         21   -1    0    0  501  502 -0.00000000000E+00 -0.00000000000E+00 -0.19778505899E+03  0.19778505899E+03  0.00000000000E+00 0. -1.
         25    1    1    2    0    0 -0.20352767975E+03  0.22666945611E+02  0.18681163949E+02  0.24064765266E+03  0.12500000000E+03 0.  0.
         25    1    1    2    0    0  0.20352767975E+03 -0.22666945611E+02  0.78984773721E+02  0.25258840299E+03  0.12500000000E+03 0.  0.
</event>
<event>
 4    0  0.2219362E-002  0.2172457E+03  0.7546771E-02  0.1135953E+00
         21   -1    0    0  502  501  0.00000000000E+00  0.00000000000E+00  0.21587626032E+03  0.21587626032E+03  0.00000000000E+00 0. -1.
         21   -1    0    0  501  502 -0.00000000000E+00 -0.00000000000E+00 -0.21862382441E+03  0.21862382441E+03  0.00000000000E+00 0. -1.
         25    1    1    2    0    0  0.63203116507E+02 -0.12913732855E+03 -0.10577706709E+03  0.21791023722E+03  0.12500000000E+03 0.  0.
         25    1    1    2    0    0 -0.63203116507E+02  0.12913732855E+03  0.10302950300E+03  0.21658984752E+03  0.12500000000E+03 0.  0.
</event>
<event>
 4    0  0.2219362E-002  0.1492090E+03  0.7546771E-02  0.1201448E+00
         21   -1    0    0  502  501  0.00000000000E+00  0.00000000000E+00  0.29780784499E+03  0.29780784499E+03  0.00000000000E+00 0. -1.
         21   -1    0    0  501  502 -0.00000000000E+00 -0.00000000000E+00 -0.74757388247E+02  0.74757388247E+02  0.00000000000E+00 0.  1.
         25    1    1    2    0    0  0.67947932853E+01  0.64943980185E+02  0.50689538879E+02  0.14986099936E+03  0.12500000000E+03 0.  0.
         25    1    1    2    0    0 -0.67947932853E+01 -0.64943980185E+02  0.17236091786E+03  0.22270423387E+03  0.12500000000E+03 0.  0.
</event>
<event>
 4    0  0.2219362E-002  0.2234920E+03  0.7546771E-02  0.1131306E+00
         21   -1    0    0  502  501  0.00000000000E+00  0.00000000000E+00  0.34140022022E+03  0.34140022022E+03  0.00000000000E+00 0.  1.
         21   -1    0    0  501  502 -0.00000000000E+00 -0.00000000000E+00 -0.14630535373E+03  0.14630535373E+03  0.00000000000E+00 0.  1.
         25    1    1    2    0    0  0.59767543854E-01 -0.41787693906E+02 -0.99388225248E+02  0.16507342079E+03  0.12500000000E+03 0.  0.
         25    1    1    2    0    0 -0.59767543854E-01  0.41787693906E+02  0.29448309174E+03  0.32263215316E+03  0.12500000000E+03 0.  0.
</event>
<event>
 4    0  0.2219362E-002  0.2322697E+03  0.7546771E-02  0.1125052E+00
         21   -1    0    0  502  501  0.00000000000E+00  0.00000000000E+00  0.82829675848E+03  0.82829675848E+03  0.00000000000E+00 0.  1.
         21   -1    0    0  501  502 -0.00000000000E+00 -0.00000000000E+00 -0.65132716176E+02  0.65132716176E+02  0.00000000000E+00 0.  1.
         25    1    1    2    0    0  0.17700820901E+03  0.51214057421E+02  0.50871264975E+03  0.55530923434E+03  0.12500000000E+03 0.  0.
         25    1    1    2    0    0 -0.17700820901E+03 -0.51214057421E+02  0.25445139256E+03  0.33812024032E+03  0.12500000000E+03 0.  0.
</event>
<event>
 4    0  0.2219362E-002  0.2106003E+03  0.7546771E-02  0.1141091E+00
         21   -1    0    0  502  501  0.00000000000E+00  0.00000000000E+00  0.14196661844E+04  0.14196661844E+04  0.00000000000E+00 0. -1.
         21   -1    0    0  501  502 -0.00000000000E+00 -0.00000000000E+00 -0.31241500317E+02  0.31241500317E+02  0.00000000000E+00 0. -1.
         25    1    1    2    0    0  0.11621273133E+03 -0.28743857299E+01  0.26932855896E+03  0.31886758018E+03  0.12500000000E+03 0.  0.
         25    1    1    2    0    0 -0.11621273133E+03  0.28743857299E+01  0.11190961251E+04  0.11320401045E+04  0.12500000000E+03 0.  0.
</event>
<event>
 4    0  0.2219362E-002  0.2206026E+03  0.7546771E-02  0.1133435E+00
         21   -1    0    0  502  501  0.00000000000E+00  0.00000000000E+00  0.10832195255E+04  0.10832195255E+04  0.00000000000E+00 0. -1.
         21   -1    0    0  501  502 -0.00000000000E+00 -0.00000000000E+00 -0.44926744845E+02  0.44926744845E+02  0.00000000000E+00 0. -1.
         25    1    1    2    0    0  0.11035006851E+03 -0.52177980269E+02  0.86353873724E+03  0.88103565760E+03  0.12500000000E+03 0.  0.
         25    1    1    2    0    0 -0.11035006851E+03  0.52177980269E+02  0.17475404343E+03  0.24711061276E+03  0.12500000000E+03 0.  0.
</event>
<event>
 4    0  0.2219362E-002  0.3186463E+03  0.7546771E-02  0.1076274E+00
         21   -1    0    0  502  501  0.00000000000E+00  0.00000000000E+00  0.16648118817E+04  0.16648118817E+04  0.00000000000E+00 0.  1.
         21   -1    0    0  501  502 -0.00000000000E+00 -0.00000000000E+00 -0.60989146893E+02  0.60989146893E+02  0.00000000000E+00 0.  1.
         25    1    1    2    0    0  0.23806759635E+03 -0.17039942505E+03  0.76377614654E+03  0.82746066161E+03  0.12500000000E+03 0.  0.
         25    1    1    2    0    0 -0.23806759635E+03  0.17039942505E+03  0.84004658825E+03  0.89834036697E+03  0.12500000000E+03 0.  0.
</event>
<event>
 4    0  0.2219362E-002  0.1723919E+03  0.7546771E-02  0.1175376E+00
         21   -1    0    0  502  501  0.00000000000E+00  0.00000000000E+00  0.20147010135E+04  0.20147010135E+04  0.00000000000E+00 0.  1.
         21   -1    0    0  501  502 -0.00000000000E+00 -0.00000000000E+00 -0.14751061888E+02  0.14751061888E+02  0.00000000000E+00 0.  1.
         25    1    1    2    0    0 -0.61011697739E+02 -0.95270358768E+00  0.15993998097E+04  0.16054370389E+04  0.12500000000E+03 0.  0.
         25    1    1    2    0    0  0.61011697739E+02  0.95270358768E+00  0.40055014195E+03  0.42401503644E+03  0.12500000000E+03 0.  0.
</event>
<event>
 4    0  0.2219362E-002  0.2718683E+03  0.7546771E-02  0.1100215E+00
         21   -1    0    0  502  501  0.00000000000E+00  0.00000000000E+00  0.46303829047E+03  0.46303829047E+03  0.00000000000E+00 0.  1.
         21   -1    0    0  501  502 -0.00000000000E+00 -0.00000000000E+00 -0.15962476025E+03  0.15962476025E+03  0.00000000000E+00 0.  1.
         25    1    1    2    0    0 -0.89735797607E+02 -0.29658258983E+02  0.40611501904E+03  0.43530051044E+03  0.12500000000E+03 0.  0.
         25    1    1    2    0    0  0.89735797607E+02  0.29658258983E+02 -0.10270148882E+03  0.18736254029E+03  0.12500000000E+03 0.  0.
</event>
<event>
 4    0  0.2219362E-002  0.2351503E+03  0.7546771E-02  0.1123066E+00
         21   -1    0    0  502  501  0.00000000000E+00  0.00000000000E+00  0.52837681796E+03  0.52837681796E+03  0.00000000000E+00 0. -1.
         21   -1    0    0  501  502 -0.00000000000E+00 -0.00000000000E+00 -0.10465198605E+03  0.10465198605E+03  0.00000000000E+00 0. -1.
         25    1    1    2    0    0  0.54119744525E+02 -0.58844865120E+02  0.45740855834E+03  0.48087342840E+03  0.12500000000E+03 0.  0.
         25    1    1    2    0    0 -0.54119744525E+02  0.58844865120E+02 -0.33683726432E+02  0.15215537560E+03  0.12500000000E+03 0.  0.
</event>
<event>
 4    0  0.2219362E-002  0.2670139E+03  0.7546771E-02  0.1103001E+00
         21   -1    0    0  502  501  0.00000000000E+00  0.00000000000E+00  0.44307827656E+03  0.44307827656E+03  0.00000000000E+00 0.  1.
         21   -1    0    0  501  502 -0.00000000000E+00 -0.00000000000E+00 -0.16091157623E+03  0.16091157623E+03  0.00000000000E+00 0.  1.
         25    1    1    2    0    0  0.22339695235E+03 -0.27063940681E+02  0.22131934792E+03  0.33947887853E+03  0.12500000000E+03 0.  0.
         25    1    1    2    0    0 -0.22339695235E+03  0.27063940681E+02  0.60847352410E+02  0.26451097426E+03  0.12500000000E+03 0.  0.
</event>
<event>
 4    0  0.2219362E-002  0.2653993E+03  0.7546771E-02  0.1103942E+00
         21   -1    0    0  502  501  0.00000000000E+00  0.00000000000E+00  0.33586547707E+03  0.33586547707E+03  0.00000000000E+00 0. -1.
         21   -1    0    0  501  502 -0.00000000000E+00 -0.00000000000E+00 -0.20971722037E+03  0.20971722037E+03  0.00000000000E+00 0. -1.
         25    1    1    2    0    0 -0.16118848114E+03  0.11317982379E+03 -0.67022849090E+02  0.24271065338E+03  0.12500000000E+03 0.  0.
         25    1    1    2    0    0  0.16118848114E+03 -0.11317982379E+03  0.19317110579E+03  0.30287204407E+03  0.12500000000E+03 0.  0.
</event>
<event>
 4    0  0.2219362E-002  0.1820079E+03  0.7546771E-02  0.1165874E+00
         21   -1    0    0  502  501  0.00000000000E+00  0.00000000000E+00  0.37809256417E+02  0.37809256417E+02  0.00000000000E+00 0.  1.
         21   -1    0    0  501  502 -0.00000000000E+00 -0.00000000000E+00 -0.87615811909E+03  0.87615811909E+03  0.00000000000E+00 0.  1.
         25    1    1    2    0    0  0.97130607209E+02 -0.42172794016E+02 -0.61828795283E+03  0.63962324225E+03  0.12500000000E+03 0.  0.
         25    1    1    2    0    0 -0.97130607209E+02  0.42172794016E+02 -0.22006090984E+03  0.27434413326E+03  0.12500000000E+03 0.  0.
</event>
<event>
 4    0  0.2219362E-002  0.1934274E+03  0.7546771E-02  0.1155406E+00
         21   -1    0    0  502  501  0.00000000000E+00  0.00000000000E+00  0.28726296799E+03  0.28726296799E+03  0.00000000000E+00 0.  1.
         21   -1    0    0  501  502 -0.00000000000E+00 -0.00000000000E+00 -0.13024359281E+03  0.13024359281E+03  0.00000000000E+00 0.  1.
         25    1    1    2    0    0  0.35511567786E+02  0.12462547146E+03  0.22224675994E+01  0.18006254176E+03  0.12500000000E+03 0.  0.
         25    1    1    2    0    0 -0.35511567786E+02 -0.12462547146E+03  0.15479690758E+03  0.23744401904E+03  0.12500000000E+03 0.  0.
</event>
<event>
 4    0  0.2219362E-002  0.1973765E+03  0.7546771E-02  0.1151972E+00
         21   -1    0    0  502  501  0.00000000000E+00  0.00000000000E+00  0.43491612611E+02  0.43491612611E+02  0.00000000000E+00 0. -1.
         21   -1    0    0  501  502 -0.00000000000E+00 -0.00000000000E+00 -0.89574676499E+03  0.89574676499E+03  0.00000000000E+00 0. -1.
         25    1    1    2    0    0 -0.96524537485E+02 -0.11375274933E+03 -0.34808787180E+03  0.39880677127E+03  0.12500000000E+03 0.  0.
         25    1    1    2    0    0  0.96524537485E+02  0.11375274933E+03 -0.50416728058E+03  0.54043160634E+03  0.12500000000E+03 0.  0.
</event>
<event>
 4    0  0.2219362E-002  0.3980168E+03  0.7546771E-02  0.1044469E+00
         21   -1    0    0  502  501  0.00000000000E+00  0.00000000000E+00  0.47917507385E+03  0.47917507385E+03  0.00000000000E+00 0. -1.
         21   -1    0    0  501  502 -0.00000000000E+00 -0.00000000000E+00 -0.33060435242E+03  0.33060435242E+03  0.00000000000E+00 0. -1.
         25    1    1    2    0    0  0.35436501622E+03  0.10906117358E+03  0.14850731338E+03  0.41850725971E+03  0.12500000000E+03 0.  0.
         25    1    1    2    0    0 -0.35436501622E+03 -0.10906117358E+03  0.63408046590E-01  0.39127216656E+03  0.12500000000E+03 0.  0.
</event>
<event>
 4    0  0.2219362E-002  0.2441081E+03  0.7546771E-02  0.1117086E+00
         21   -1    0    0  502  501  0.00000000000E+00  0.00000000000E+00  0.31988761891E+03  0.31988761891E+03  0.00000000000E+00 0.  1.
         21   -1    0    0  501  502 -0.00000000000E+00 -0.00000000000E+00 -0.18628033412E+03  0.18628033412E+03  0.00000000000E+00 0.  1.
         25    1    1    2    0    0  0.17354314716E+03  0.18958233878E+02 -0.53600732016E+02  0.22130223007E+03  0.12500000000E+03 0.  0.
         25    1    1    2    0    0 -0.17354314716E+03 -0.18958233878E+02  0.18720801681E+03  0.28486572296E+03  0.12500000000E+03 0.  0.
</event>
<event>
 4    0  0.2219362E-002  0.2002956E+03  0.7546771E-02  0.1149490E+00
         21   -1    0    0  502  501  0.00000000000E+00  0.00000000000E+00  0.15075487242E+03  0.15075487242E+03  0.00000000000E+00 0. -1.
         21   -1    0    0  501  502 -0.00000000000E+00 -0.00000000000E+00 -0.26611634633E+03  0.26611634633E+03  0.00000000000E+00 0. -1.
         25    1    1    2    0    0 -0.45864438292E+02 -0.51129407483E+02 -0.20402139302E+03  0.24893270541E+03  0.12500000000E+03 0.  0.
         25    1    1    2    0    0  0.45864438292E+02  0.51129407483E+02  0.88659919111E+02  0.16793851335E+03  0.12500000000E+03 0.  0.
</event>
<event>
 4    0  0.2219362E-002  0.2130300E+03  0.7546771E-02  0.1139189E+00
         21   -1    0    0  502  501  0.00000000000E+00  0.00000000000E+00  0.40201502511E+03  0.40201502511E+03  0.00000000000E+00 0. -1.
         21   -1    0    0  501  502 -0.00000000000E+00 -0.00000000000E+00 -0.11288581769E+03  0.11288581769E+03  0.00000000000E+00 0. -1.
         25    1    1    2    0    0  0.11735037327E+03 -0.55200847139E+02  0.70985082211E+01  0.18025990250E+03  0.12500000000E+03 0.  0.
         25    1    1    2    0    0 -0.11735037327E+03  0.55200847139E+02  0.28203069920E+03  0.33464094030E+03  0.12500000000E+03 0.  0.
</event>
<event>
 4    0  0.2219362E-002  0.2080197E+03  0.7546771E-02  0.1143144E+00
         21   -1    0    0  502  501  0.00000000000E+00  0.00000000000E+00  0.81703205305E+03  0.81703205305E+03  0.00000000000E+00 0.  1.
         21   -1    0    0  501  502 -0.00000000000E+00 -0.00000000000E+00 -0.52962648200E+02  0.52962648200E+02  0.00000000000E+00 0.  1.
         25    1    1    2    0    0  0.10746823169E+03 -0.12601395244E+03  0.41292723659E+03  0.46212859655E+03  0.12500000000E+03 0.  0.
         25    1    1    2    0    0 -0.10746823169E+03  0.12601395244E+03  0.35114216826E+03  0.40786610470E+03  0.12500000000E+03 0.  0.
</event>
<event>
 4    0  0.2219362E-002  0.1827512E+03  0.7546771E-02  0.1165167E+00
         21   -1    0    0  502  501  0.00000000000E+00  0.00000000000E+00  0.62646382830E+02  0.62646382830E+02  0.00000000000E+00 0. -1.
         21   -1    0    0  501  502 -0.00000000000E+00 -0.00000000000E+00 -0.53311924746E+03  0.53311924746E+03  0.00000000000E+00 0. -1.
         25    1    1    2    0    0  0.22771276877E+02  0.25144426901E+02 -0.44538661459E+03  0.46383726641E+03  0.12500000000E+03 0.  0.
         25    1    1    2    0    0 -0.22771276877E+02 -0.25144426901E+02 -0.25086250040E+02  0.13192836388E+03  0.12500000000E+03 0.  0.
</event>
<event>
 4    0  0.2219362E-002  0.2161143E+03  0.7546771E-02  0.1136814E+00
         21   -1    0    0  502  501  0.00000000000E+00  0.00000000000E+00  0.33992777183E+03  0.33992777183E+03  0.00000000000E+00 0. -1.
         21   -1    0    0  501  502 -0.00000000000E+00 -0.00000000000E+00 -0.13739793433E+03  0.13739793433E+03  0.00000000000E+00 0. -1.
         25    1    1    2    0    0 -0.12208940501E+03  0.70436401094E+02  0.21820608777E+03  0.28828112348E+03  0.12500000000E+03 0.  0.
         25    1    1    2    0    0  0.12208940501E+03 -0.70436401094E+02 -0.15676250276E+02  0.18904458267E+03  0.12500000000E+03 0.  0.
</event>
<event>
 4    0  0.2219362E-002  0.1797140E+03  0.7546771E-02  0.1168080E+00
         21   -1    0    0  502  501  0.00000000000E+00  0.00000000000E+00  0.10798000539E+03  0.10798000539E+03  0.00000000000E+00 0.  1.
         21   -1    0    0  501  502 -0.00000000000E+00 -0.00000000000E+00 -0.29910287746E+03  0.29910287746E+03  0.00000000000E+00 0.  1.
         25    1    1    2    0    0  0.12457457752E+03  0.98224753495E+01 -0.13238045376E+03  0.22082774039E+03  0.12500000000E+03 0.  0.
         25    1    1    2    0    0 -0.12457457752E+03 -0.98224753495E+01 -0.58742418305E+02  0.18625514246E+03  0.12500000000E+03 0.  0.
</event>
<event>
 4    0  0.2219362E-002  0.2133072E+03  0.7546771E-02  0.1138974E+00
         21   -1    0    0  502  501  0.00000000000E+00  0.00000000000E+00  0.67639134846E+03  0.67639134846E+03  0.00000000000E+00 0.  1.
         21   -1    0    0  501  502 -0.00000000000E+00 -0.00000000000E+00 -0.67268669986E+02  0.67268669986E+02  0.00000000000E+00 0.  1.
         25    1    1    2    0    0 -0.12904198084E+03 -0.68587362825E+02  0.46545184979E+03  0.50361342678E+03  0.12500000000E+03 0.  0.
         25    1    1    2    0    0  0.12904198084E+03  0.68587362825E+02  0.14367082868E+03  0.24004659167E+03  0.12500000000E+03 0.  0.
</event>
<event>
 4    0  0.2219362E-002  0.2692877E+03  0.7546771E-02  0.1101688E+00
         21   -1    0    0  502  501  0.00000000000E+00  0.00000000000E+00  0.32723641000E+03  0.32723641000E+03  0.00000000000E+00 0. -1.
         21   -1    0    0  501  502 -0.00000000000E+00 -0.00000000000E+00 -0.22160078973E+03  0.22160078973E+03  0.00000000000E+00 0. -1.
         25    1    1    2    0    0  0.22094020076E+03  0.82059408467E+02  0.90156473554E+02  0.28160523531E+03  0.12500000000E+03 0.  0.
         25    1    1    2    0    0 -0.22094020076E+03 -0.82059408467E+02  0.15479146716E+02  0.26723196443E+03  0.12500000000E+03 0.  0.
</event>
<event>
 4    0  0.2219362E-002  0.1787470E+03  0.7546771E-02  0.1169021E+00
         21   -1    0    0  502  501  0.00000000000E+00  0.00000000000E+00  0.93641404379E+02  0.93641404379E+02  0.00000000000E+00 0.  1.
         21   -1    0    0  501  502 -0.00000000000E+00 -0.00000000000E+00 -0.34120033765E+03  0.34120033765E+03  0.00000000000E+00 0.  1.
         25    1    1    2    0    0 -0.30075709283E+02  0.99632950322E+02 -0.21393969520E+03  0.26874982095E+03  0.12500000000E+03 0.  0.
         25    1    1    2    0    0  0.30075709283E+02 -0.99632950322E+02 -0.33619238071E+02  0.16609192108E+03  0.12500000000E+03 0.  0.
</event>
<event>
 4    0  0.2219362E-002  0.1936563E+03  0.7546771E-02  0.1155204E+00
         21   -1    0    0  502  501  0.00000000000E+00  0.00000000000E+00  0.39433558122E+03  0.39433558122E+03  0.00000000000E+00 0.  1.
         21   -1    0    0  501  502 -0.00000000000E+00 -0.00000000000E+00 -0.95103644424E+02  0.95103644424E+02  0.00000000000E+00 0.  1.
         25    1    1    2    0    0 -0.14143247123E+03  0.21101313223E+02  0.19739146668E+03  0.27392845864E+03  0.12500000000E+03 0.  0.
         25    1    1    2    0    0  0.14143247123E+03 -0.21101313223E+02  0.10184047012E+03  0.21551076700E+03  0.12500000000E+03 0.  0.
</event>
<event>
 4    0  0.2219362E-002  0.1871862E+03  0.7546771E-02  0.1161024E+00
         21   -1    0    0  502  501  0.00000000000E+00  0.00000000000E+00  0.78648681614E+02  0.78648681614E+02  0.00000000000E+00 0. -1.
         21   -1    0    0  501  502 -0.00000000000E+00 -0.00000000000E+00 -0.44550858945E+03  0.44550858945E+03  0.00000000000E+00 0. -1.
         25    1    1    2    0    0 -0.74285989525E+02  0.78043799065E+02 -0.59741778728E+02  0.17550875459E+03  0.12500000000E+03 0.  0.
         25    1    1    2    0    0  0.74285989525E+02 -0.78043799065E+02 -0.30711812911E+03  0.34864851647E+03  0.12500000000E+03 0.  0.
</event>
<event>
 4    0  0.2219362E-002  0.1765573E+03  0.7546771E-02  0.1171177E+00
         21   -1    0    0  502  501  0.00000000000E+00  0.00000000000E+00  0.40409915784E+02  0.40409915784E+02  0.00000000000E+00 0.  1.
         21   -1    0    0  501  502 -0.00000000000E+00 -0.00000000000E+00 -0.77140700839E+03  0.77140700839E+03  0.00000000000E+00 0.  1.
         25    1    1    2    0    0 -0.74406560584E+02 -0.30947268402E+02 -0.14674820557E+03  0.20893564922E+03  0.12500000000E+03 0.  0.
         25    1    1    2    0    0  0.74406560584E+02  0.30947268402E+02 -0.58424888704E+03  0.60288127495E+03  0.12500000000E+03 0.  0.
</event>
<event>
 4    0  0.2219362E-002  0.2349902E+03  0.7546771E-02  0.1123176E+00
         21   -1    0    0  502  501  0.00000000000E+00  0.00000000000E+00  0.31900712747E+02  0.31900712747E+02  0.00000000000E+00 0. -1.
         21   -1    0    0  501  502 -0.00000000000E+00 -0.00000000000E+00 -0.17310088115E+04  0.17310088115E+04  0.00000000000E+00 0. -1.
         25    1    1    2    0    0 -0.10412113170E+03  0.14392707678E+03 -0.51323098669E+03  0.55730356108E+03  0.12500000000E+03 0.  0.
         25    1    1    2    0    0  0.10412113170E+03 -0.14392707678E+03 -0.11858771121E+04  0.12056059632E+04  0.12500000000E+03 0.  0.
</event>
<event>
 4    0  0.2219362E-002  0.2655598E+03  0.7546771E-02  0.1103848E+00
         21   -1    0    0  502  501  0.00000000000E+00  0.00000000000E+00  0.80319842569E+03  0.80319842569E+03  0.00000000000E+00 0.  1.
         21   -1    0    0  501  502 -0.00000000000E+00 -0.00000000000E+00 -0.87801508629E+02  0.87801508629E+02  0.00000000000E+00 0.  1.
         25    1    1    2    0    0  0.14571405709E+03 -0.18308410198E+03  0.37787550082E+03  0.46170041038E+03  0.12500000000E+03 0.  0.
         25    1    1    2    0    0 -0.14571405709E+03  0.18308410198E+03  0.33752141624E+03  0.42929952394E+03  0.12500000000E+03 0.  0.
</event>
<event>
 4    0  0.2219362E-002  0.2063337E+03  0.7546771E-02  0.1144503E+00
         21   -1    0    0  502  501  0.00000000000E+00  0.00000000000E+00  0.13332248353E+03  0.13332248353E+03  0.00000000000E+00 0.  1.
         21   -1    0    0  501  502 -0.00000000000E+00 -0.00000000000E+00 -0.31932796086E+03  0.31932796086E+03  0.00000000000E+00 0.  1.
         25    1    1    2    0    0 -0.57872776749E+02  0.14119460361E+03 -0.26612186013E+02  0.19904367064E+03  0.12500000000E+03 0.  0.
         25    1    1    2    0    0  0.57872776749E+02 -0.14119460361E+03 -0.15939329132E+03  0.25360677375E+03  0.12500000000E+03 0.  0.
</event>
<event>
 4    0  0.2219362E-002  0.3358052E+03  0.7546771E-02  0.1068597E+00
         21   -1    0    0  502  501  0.00000000000E+00  0.00000000000E+00  0.11872278376E+03  0.11872278376E+03  0.00000000000E+00 0.  1.
         21   -1    0    0  501  502 -0.00000000000E+00 -0.00000000000E+00 -0.94981878218E+03  0.94981878218E+03  0.00000000000E+00 0. -1.
         25    1    1    2    0    0  0.13107118937E+02  0.29157346538E+03 -0.24160098809E+03  0.39897734237E+03  0.12500000000E+03 0.  0.
         25    1    1    2    0    0 -0.13107118937E+02 -0.29157346538E+03 -0.58949501033E+03  0.66956422356E+03  0.12500000000E+03 0.  0.
</event>
<event>
 4    0  0.2219362E-002  0.2933827E+03  0.7546771E-02  0.1088596E+00
         21   -1    0    0  502  501  0.00000000000E+00  0.00000000000E+00  0.21204573386E+04  0.21204573386E+04  0.00000000000E+00 0.  1.
         21   -1    0    0  501  502 -0.00000000000E+00 -0.00000000000E+00 -0.40591899792E+02  0.40591899792E+02  0.00000000000E+00 0. -1.
         25    1    1    2    0    0  0.19119738208E+03  0.16058026348E+03  0.13715229161E+04  0.13996580187E+04  0.12500000000E+03 0.  0.
         25    1    1    2    0    0 -0.19119738208E+03 -0.16058026348E+03  0.70834252267E+03  0.76139121965E+03  0.12500000000E+03 0.  0.
</event>
<event>
 4    0  0.2219362E-002  0.2657948E+03  0.7546771E-02  0.1103711E+00
         21   -1    0    0  502  501  0.00000000000E+00  0.00000000000E+00  0.77674205876E+02  0.77674205876E+02  0.00000000000E+00 0.  1.
         21   -1    0    0  501  502 -0.00000000000E+00 -0.00000000000E+00 -0.90952811219E+03  0.90952811219E+03  0.00000000000E+00 0.  1.
         25    1    1    2    0    0 -0.22271447982E+03 -0.33672942879E+02 -0.29434494326E+03  0.39115157193E+03  0.12500000000E+03 0.  0.
         25    1    1    2    0    0  0.22271447982E+03  0.33672942879E+02 -0.53750896306E+03  0.59605074614E+03  0.12500000000E+03 0.  0.
</event>
<event>
 4    0  0.2219362E-002  0.2124529E+03  0.7546771E-02  0.1139638E+00
         21   -1    0    0  502  501  0.00000000000E+00  0.00000000000E+00  0.68414569354E+02  0.68414569354E+02  0.00000000000E+00 0.  1.
         21   -1    0    0  501  502 -0.00000000000E+00 -0.00000000000E+00 -0.65974580444E+03  0.65974580444E+03  0.00000000000E+00 0.  1.
         25    1    1    2    0    0 -0.12079010180E+03  0.12086998293E+03 -0.26542363856E+03  0.33952099990E+03  0.12500000000E+03 0.  0.
         25    1    1    2    0    0  0.12079010180E+03 -0.12086998293E+03 -0.32590759652E+03  0.38863937389E+03  0.12500000000E+03 0.  0.
</event>
<event>
 4    0  0.2219362E-002  0.1857871E+03  0.7546771E-02  0.1162317E+00
         21   -1    0    0  502  501  0.00000000000E+00  0.00000000000E+00  0.10166687080E+03  0.10166687080E+03  0.00000000000E+00 0. -1.
         21   -1    0    0  501  502 -0.00000000000E+00 -0.00000000000E+00 -0.33950945312E+03  0.33950945312E+03  0.00000000000E+00 0. -1.
         25    1    1    2    0    0  0.68575969827E+02  0.10712018515E+03 -0.18078112390E+03  0.25393741840E+03  0.12500000000E+03 0.  0.
         25    1    1    2    0    0 -0.68575969827E+02 -0.10712018515E+03 -0.57061458428E+02  0.18723890553E+03  0.12500000000E+03 0.  0.
</event>
<event>
 4    0  0.2219362E-002  0.1995524E+03  0.7546771E-02  0.1150117E+00
         21   -1    0    0  502  501  0.00000000000E+00  0.00000000000E+00  0.25852978445E+03  0.25852978445E+03  0.00000000000E+00 0.  1.
         21   -1    0    0  501  502 -0.00000000000E+00 -0.00000000000E+00 -0.15402922969E+03  0.15402922969E+03  0.00000000000E+00 0.  1.
         25    1    1    2    0    0 -0.17610561714E+02 -0.70456608057E+02  0.19444430009E+03  0.24229703123E+03  0.12500000000E+03 0.  0.
         25    1    1    2    0    0  0.17610561714E+02  0.70456608057E+02 -0.89943745333E+02  0.17026198292E+03  0.12500000000E+03 0.  0.
</event>
<event>
 4    0  0.2219362E-002  0.1915822E+03  0.7546771E-02  0.1157042E+00
         21   -1    0    0  502  501  0.00000000000E+00  0.00000000000E+00  0.17409873171E+03  0.17409873171E+03  0.00000000000E+00 0. -1.
         21   -1    0    0  501  502 -0.00000000000E+00 -0.00000000000E+00 -0.21082132358E+03  0.21082132358E+03  0.00000000000E+00 0. -1.
         25    1    1    2    0    0  0.95220963829E+02 -0.10062083106E+03  0.25279001303E+02  0.18829660513E+03  0.12500000000E+03 0.  0.
         25    1    1    2    0    0 -0.95220963829E+02  0.10062083106E+03 -0.62001593173E+02  0.19662345016E+03  0.12500000000E+03 0.  0.
</event>
<event>
 4    0  0.2219362E-002  0.2224645E+03  0.7546771E-02  0.1132059E+00
         21   -1    0    0  502  501  0.00000000000E+00  0.00000000000E+00  0.87511522345E+02  0.87511522345E+02  0.00000000000E+00 0.  1.
         21   -1    0    0  501  502 -0.00000000000E+00 -0.00000000000E+00 -0.56553085993E+03  0.56553085993E+03  0.00000000000E+00 0.  1.
         25    1    1    2    0    0  0.43290326664E+02 -0.63300779034E+02 -0.48454206150E+03  0.50624801271E+03  0.12500000000E+03 0.  0.
         25    1    1    2    0    0 -0.43290326664E+02  0.63300779034E+02  0.65227239149E+01  0.14679436957E+03  0.12500000000E+03 0.  0.
</event>
<event>
 4    0  0.2219362E-002  0.2123237E+03  0.7546771E-02  0.1139739E+00
         21   -1    0    0  502  501  0.00000000000E+00  0.00000000000E+00  0.63078619084E+03  0.63078619084E+03  0.00000000000E+00 0. -1.
         21   -1    0    0  501  502 -0.00000000000E+00 -0.00000000000E+00 -0.71468501915E+02  0.71468501915E+02  0.00000000000E+00 0. -1.
         25    1    1    2    0    0  0.74130502462E+02  0.15052717334E+03  0.33934435218E+03  0.39866445874E+03  0.12500000000E+03 0.  0.
         25    1    1    2    0    0 -0.74130502462E+02 -0.15052717334E+03  0.21997333674E+03  0.30359023401E+03  0.12500000000E+03 0.  0.
</event>
<event>
 4    0  0.2219362E-002  0.1844986E+03  0.7546771E-02  0.1163519E+00
         21   -1    0    0  502  501  0.00000000000E+00  0.00000000000E+00  0.43497590206E+03  0.43497590206E+03  0.00000000000E+00 0. -1.
         21   -1    0    0  501  502 -0.00000000000E+00 -0.00000000000E+00 -0.78256570672E+02  0.78256570672E+02  0.00000000000E+00 0. -1.
         25    1    1    2    0    0 -0.35474496831E+02  0.80661688313E+02  0.32189717659E+03  0.35638117260E+03  0.12500000000E+03 0.  0.
         25    1    1    2    0    0  0.35474496831E+02 -0.80661688313E+02  0.34822154793E+02  0.15685130013E+03  0.12500000000E+03 0.  0.
</event>
<event>
 4    0  0.2219362E-002  0.2254950E+03  0.7546771E-02  0.1129851E+00
         21   -1    0    0  502  501  0.00000000000E+00  0.00000000000E+00  0.23340411507E+02  0.23340411507E+02  0.00000000000E+00 0. -1.
         21   -1    0    0  501  502 -0.00000000000E+00 -0.00000000000E+00 -0.21785394687E+04  0.21785394687E+04  0.00000000000E+00 0. -1.
         25    1    1    2    0    0 -0.19867459539E+02  0.14091998600E+03 -0.48024058439E+03  0.51624526855E+03  0.12500000000E+03 0.  0.
         25    1    1    2    0    0  0.19867459539E+02 -0.14091998600E+03 -0.16749584728E+04  0.16856346117E+04  0.12500000000E+03 0.  0.
</event>
<event>
 4    0  0.2219362E-002  0.1588568E+03  0.7546771E-02  0.1189993E+00
         21   -1    0    0  502  501  0.00000000000E+00  0.00000000000E+00  0.10369697339E+03  0.10369697339E+03  0.00000000000E+00 0.  1.
         21   -1    0    0  501  502 -0.00000000000E+00 -0.00000000000E+00 -0.24335794730E+03  0.24335794730E+03  0.00000000000E+00 0.  1.
         25    1    1    2    0    0  0.95442420397E+02  0.12919423556E+02 -0.49857609375E+02  0.16549002486E+03  0.12500000000E+03 0.  0.
         25    1    1    2    0    0 -0.95442420397E+02 -0.12919423556E+02 -0.89803364527E+02  0.18156489583E+03  0.12500000000E+03 0.  0.
</event>
<event>
 4    0  0.2219362E-002  0.4536576E+03  0.7546771E-02  0.1026637E+00
         21   -1    0    0  502  501  0.00000000000E+00  0.00000000000E+00  0.45986459422E+03  0.45986459422E+03  0.00000000000E+00 0. -1.
         21   -1    0    0  501  502 -0.00000000000E+00 -0.00000000000E+00 -0.44753443436E+03  0.44753443436E+03  0.00000000000E+00 0. -1.
         25    1    1    2    0    0 -0.30315174985E+03  0.30011467927E+03  0.96784907861E+02  0.45493089864E+03  0.12500000000E+03 0.  0.
         25    1    1    2    0    0  0.30315174985E+03 -0.30011467927E+03 -0.84454747994E+02  0.45246812994E+03  0.12500000000E+03 0.  0.
</event>
<event>
 4    0  0.2219362E-002  0.1901821E+03  0.7546771E-02  0.1158297E+00
         21   -1    0    0  502  501  0.00000000000E+00  0.00000000000E+00  0.13344398583E+03  0.13344398583E+03  0.00000000000E+00 0.  1.
         21   -1    0    0  501  502 -0.00000000000E+00 -0.00000000000E+00 -0.27104422469E+03  0.27104422469E+03  0.00000000000E+00 0. -1.
         25    1    1    2    0    0 -0.11317668392E+03 -0.87923523990E+02 -0.71108954839E+02  0.20302953311E+03  0.12500000000E+03 0.  0.
         25    1    1    2    0    0  0.11317668392E+03  0.87923523990E+02 -0.66491284022E+02  0.20145867742E+03  0.12500000000E+03 0.  0.
</event>
<event>
 4    0  0.2219362E-002  0.2125623E+03  0.7546771E-02  0.1139553E+00
         21   -1    0    0  502  501  0.00000000000E+00  0.00000000000E+00  0.10335249994E+03  0.10335249994E+03  0.00000000000E+00 0.  1.
         21   -1    0    0  501  502 -0.00000000000E+00 -0.00000000000E+00 -0.43717123389E+03  0.43717123389E+03  0.00000000000E+00 0.  1.
         25    1    1    2    0    0 -0.11956673394E+03  0.46522775970E+02 -0.31241747023E+03  0.36012532298E+03  0.12500000000E+03 0.  0.
         25    1    1    2    0    0  0.11956673394E+03 -0.46522775970E+02 -0.21401263724E+02  0.18039841085E+03  0.12500000000E+03 0.  0.
</event>
<event>
 4    0  0.2219362E-002  0.1711837E+03  0.7546771E-02  0.1176619E+00
         21   -1    0    0  502  501  0.00000000000E+00  0.00000000000E+00  0.29501938188E+03  0.29501938188E+03  0.00000000000E+00 0. -1.
         21   -1    0    0  501  502 -0.00000000000E+00 -0.00000000000E+00 -0.99328596952E+02  0.99328596952E+02  0.00000000000E+00 0. -1.
         25    1    1    2    0    0 -0.70152906616E+02 -0.18917399508E+02 -0.77185360068E+01  0.14478906764E+03  0.12500000000E+03 0.  0.
         25    1    1    2    0    0  0.70152906616E+02  0.18917399508E+02  0.20340932094E+03  0.24955891119E+03  0.12500000000E+03 0.  0.
</event>
<event>
 4    0  0.2219362E-002  0.1801626E+03  0.7546771E-02  0.1167646E+00
         21   -1    0    0  502  501  0.00000000000E+00  0.00000000000E+00  0.10407688244E+04  0.10407688244E+04  0.00000000000E+00 0.  1.
         21   -1    0    0  501  502 -0.00000000000E+00 -0.00000000000E+00 -0.31187100817E+02  0.31187100817E+02  0.00000000000E+00 0.  1.
         25    1    1    2    0    0  0.29832793036E+02  0.34885882143E+02  0.14376968016E+03  0.19596362225E+03  0.12500000000E+03 0.  0.
         25    1    1    2    0    0 -0.29832793036E+02 -0.34885882143E+02  0.86581204346E+03  0.87599230299E+03  0.12500000000E+03 0.  0.
</event>
<event>
 4    0  0.2219362E-002  0.1748815E+03  0.7546771E-02  0.1172851E+00
         21   -1    0    0  502  501  0.00000000000E+00  0.00000000000E+00  0.27643204161E+03  0.27643204161E+03  0.00000000000E+00 0.  1.
         21   -1    0    0  501  502 -0.00000000000E+00 -0.00000000000E+00 -0.11063668645E+03  0.11063668645E+03  0.00000000000E+00 0.  1.
         25    1    1    2    0    0  0.46579615957E+02 -0.11258484399E+03  0.71106816514E+02  0.18848391728E+03  0.12500000000E+03 0.  0.
         25    1    1    2    0    0 -0.46579615957E+02  0.11258484399E+03  0.94688538647E+02  0.19858481077E+03  0.12500000000E+03 0.  0.
</event>
<event>
 4    0  0.2219362E-002  0.2743526E+03  0.7546771E-02  0.1098814E+00
         21   -1    0    0  502  501  0.00000000000E+00  0.00000000000E+00  0.26411861259E+03  0.26411861259E+03  0.00000000000E+00 0. -1.
         21   -1    0    0  501  502 -0.00000000000E+00 -0.00000000000E+00 -0.28498311096E+03  0.28498311096E+03  0.00000000000E+00 0. -1.
         25    1    1    2    0    0  0.24014351156E+03  0.87844395811E+01 -0.54032892112E+02  0.27620757765E+03  0.12500000000E+03 0.  0.
         25    1    1    2    0    0 -0.24014351156E+03 -0.87844395811E+01  0.33168393740E+02  0.27289414590E+03  0.12500000000E+03 0.  0.
</event>
<event>
 4    0  0.2219362E-002  0.2041419E+03  0.7546771E-02  0.1146291E+00
         21   -1    0    0  502  501  0.00000000000E+00  0.00000000000E+00  0.11354134767E+03  0.11354134767E+03  0.00000000000E+00 0. -1.
         21   -1    0    0  501  502 -0.00000000000E+00 -0.00000000000E+00 -0.36703742910E+03  0.36703742910E+03  0.00000000000E+00 0. -1.
         25    1    1    2    0    0  0.12378730803E+03 -0.93065378159E+02 -0.73266261106E+02  0.21207877607E+03  0.12500000000E+03 0.  0.
         25    1    1    2    0    0 -0.12378730803E+03  0.93065378159E+02 -0.18022982033E+03  0.26850000071E+03  0.12500000000E+03 0.  0.
</event>
<event>
 4    0  0.2219362E-002  0.2316441E+03  0.7546771E-02  0.1125488E+00
         21   -1    0    0  502  501  0.00000000000E+00  0.00000000000E+00  0.34022563148E+03  0.34022563148E+03  0.00000000000E+00 0.  1.
         21   -1    0    0  501  502 -0.00000000000E+00 -0.00000000000E+00 -0.15771593160E+03  0.15771593160E+03  0.00000000000E+00 0.  1.
         25    1    1    2    0    0  0.13968780971E+03  0.11633496164E+03  0.16715948903E+03  0.27679198372E+03  0.12500000000E+03 0.  0.
         25    1    1    2    0    0 -0.13968780971E+03 -0.11633496164E+03  0.15350210853E+02  0.22114957937E+03  0.12500000000E+03 0.  0.
</event>
<event>
 4    0  0.2219362E-002  0.2613785E+03  0.7546771E-02  0.1106318E+00
         21   -1    0    0  502  501  0.00000000000E+00  0.00000000000E+00  0.18046536310E+03  0.18046536310E+03  0.00000000000E+00 0.  1.
         21   -1    0    0  501  502 -0.00000000000E+00 -0.00000000000E+00 -0.37856958522E+03  0.37856958522E+03  0.00000000000E+00 0.  1.
         25    1    1    2    0    0  0.27892048850E+01 -0.22922090624E+03 -0.86232976910E+02  0.27497478035E+03  0.12500000000E+03 0.  0.
         25    1    1    2    0    0 -0.27892048850E+01  0.22922090624E+03 -0.11187124521E+03  0.28406016797E+03  0.12500000000E+03 0.  0.
</event>
<event>
 4    0  0.2219362E-002  0.2352641E+03  0.7546771E-02  0.1122989E+00
         21   -1    0    0  502  501  0.00000000000E+00  0.00000000000E+00  0.50042578916E+02  0.50042578916E+02  0.00000000000E+00 0.  1.
         21   -1    0    0  501  502 -0.00000000000E+00 -0.00000000000E+00 -0.11060417843E+04  0.11060417843E+04  0.00000000000E+00 0.  1.
         25    1    1    2    0    0 -0.37495393946E+02 -0.67998204945E+02 -0.97900690975E+03  0.99000464129E+03  0.12500000000E+03 0.  0.
         25    1    1    2    0    0  0.37495393946E+02  0.67998204945E+02 -0.76992295610E+02  0.16607972190E+03  0.12500000000E+03 0.  0.
</event>
<event>
 4    0  0.2219362E-002  0.2245625E+03  0.7546771E-02  0.1130527E+00
         21   -1    0    0  502  501  0.00000000000E+00  0.00000000000E+00  0.98794455215E+03  0.98794455215E+03  0.00000000000E+00 0.  1.
         21   -1    0    0  501  502 -0.00000000000E+00 -0.00000000000E+00 -0.51043682052E+02  0.51043682052E+02  0.00000000000E+00 0.  1.
         25    1    1    2    0    0  0.16239485567E+03 -0.40163028843E+02  0.65946973544E+03  0.69174452653E+03  0.12500000000E+03 0.  0.
         25    1    1    2    0    0 -0.16239485567E+03  0.40163028843E+02  0.27743113466E+03  0.34724370766E+03  0.12500000000E+03 0.  0.
</event>
<event>
 4    0  0.2219362E-002  0.1892739E+03  0.7546771E-02  0.1159118E+00
         21   -1    0    0  502  501  0.00000000000E+00  0.00000000000E+00  0.66320306333E+02  0.66320306333E+02  0.00000000000E+00 0.  1.
         21   -1    0    0  501  502 -0.00000000000E+00 -0.00000000000E+00 -0.54017544573E+03  0.54017544573E+03  0.00000000000E+00 0.  1.
         25    1    1    2    0    0 -0.95332546395E+02  0.88380840161E+02 -0.14488836536E+03  0.23133764442E+03  0.12500000000E+03 0.  0.
         25    1    1    2    0    0  0.95332546395E+02 -0.88380840161E+02 -0.32896677404E+03  0.37515810764E+03  0.12500000000E+03 0.  0.
</event>
<event>
 4    0  0.2219362E-002  0.2785686E+03  0.7546771E-02  0.1096473E+00
         21   -1    0    0  502  501  0.00000000000E+00  0.00000000000E+00  0.17230989449E+03  0.17230989449E+03  0.00000000000E+00 0.  1.
         21   -1    0    0  501  502 -0.00000000000E+00 -0.00000000000E+00 -0.45035394093E+03  0.45035394093E+03  0.00000000000E+00 0.  1.
         25    1    1    2    0    0  0.13832713000E+03  0.57124601657E+02  0.83317933563E+02  0.21204832719E+03  0.12500000000E+03 0.  0.
         25    1    1    2    0    0 -0.13832713000E+03 -0.57124601657E+02 -0.36136198001E+03  0.41061550824E+03  0.12500000000E+03 0.  0.
</event>
<event>
 4    0  0.2219362E-002  0.1718255E+03  0.7546771E-02  0.1175957E+00
         21   -1    0    0  502  501  0.00000000000E+00  0.00000000000E+00  0.71128765994E+02  0.71128765994E+02  0.00000000000E+00 0.  1.
         21   -1    0    0  501  502 -0.00000000000E+00 -0.00000000000E+00 -0.41507833515E+03  0.41507833515E+03  0.00000000000E+00 0.  1.
         25    1    1    2    0    0  0.76680177686E+02  0.84571268331E+02 -0.21363085386E+03  0.27257162508E+03  0.12500000000E+03 0.  0.
         25    1    1    2    0    0 -0.76680177686E+02 -0.84571268331E+02 -0.13031871529E+03  0.21363547606E+03  0.12500000000E+03 0.  0.
</event>
<event>
 4    0  0.2219362E-002  0.3561132E+03  0.7546771E-02  0.1060134E+00
         21   -1    0    0  502  501  0.00000000000E+00  0.00000000000E+00  0.23680505787E+03  0.23680505787E+03  0.00000000000E+00 0. -1.
         21   -1    0    0  501  502 -0.00000000000E+00 -0.00000000000E+00 -0.53553177723E+03  0.53553177723E+03  0.00000000000E+00 0. -1.
         25    1    1    2    0    0  0.25903419538E+03 -0.54589935946E+02 -0.36923918196E+03  0.47121263669E+03  0.12500000000E+03 0.  0.
         25    1    1    2    0    0 -0.25903419538E+03  0.54589935946E+02  0.70512462593E+02  0.30112419841E+03  0.12500000000E+03 0.  0.
</event>
<event>
 4    0  0.2219362E-002  0.2945358E+03  0.7546771E-02  0.1088004E+00
         21   -1    0    0  502  501  0.00000000000E+00  0.00000000000E+00  0.94350938142E+02  0.94350938142E+02  0.00000000000E+00 0. -1.
         21   -1    0    0  501  502 -0.00000000000E+00 -0.00000000000E+00 -0.91945410352E+03  0.91945410352E+03  0.00000000000E+00 0. -1.
         25    1    1    2    0    0  0.44221958233E+02  0.24063920616E+03 -0.22989979753E+03  0.35824813473E+03  0.12500000000E+03 0.  0.
         25    1    1    2    0    0 -0.44221958233E+02 -0.24063920616E+03 -0.59520336785E+03  0.65555690693E+03  0.12500000000E+03 0.  0.
</event>
<event>
 4    0  0.2219362E-002  0.1651194E+03  0.7546771E-02  0.1183035E+00
         21   -1    0    0  502  501  0.00000000000E+00  0.00000000000E+00  0.58104407784E+02  0.58104407784E+02  0.00000000000E+00 0. -1.
         21   -1    0    0  501  502 -0.00000000000E+00 -0.00000000000E+00 -0.46923138694E+03  0.46923138694E+03  0.00000000000E+00 0. -1.
         25    1    1    2    0    0  0.75523802556E+02 -0.67186849088E+02 -0.14535859961E+03  0.21673033918E+03  0.12500000000E+03 0.  0.
         25    1    1    2    0    0 -0.75523802556E+02  0.67186849088E+02 -0.26576837955E+03  0.31060545554E+03  0.12500000000E+03 0.  0.
</event>
<event>
 4    0  0.2219362E-002  0.2546055E+03  0.7546771E-02  0.1110428E+00
         21   -1    0    0  502  501  0.00000000000E+00  0.00000000000E+00  0.13529412754E+04  0.13529412754E+04  0.00000000000E+00 0.  1.
         21   -1    0    0  501  502 -0.00000000000E+00 -0.00000000000E+00 -0.47913360130E+02  0.47913360130E+02  0.00000000000E+00 0.  1.
         25    1    1    2    0    0 -0.28828473285E+02  0.12611772401E+03  0.11481744137E+04  0.11621816749E+04  0.12500000000E+03 0.  0.
         25    1    1    2    0    0  0.28828473285E+02 -0.12611772401E+03  0.15685350155E+03  0.23867296062E+03  0.12500000000E+03 0.  0.
</event>
<event>
 4    0  0.2219362E-002  0.1915082E+03  0.7546771E-02  0.1157108E+00
         21   -1    0    0  502  501  0.00000000000E+00  0.00000000000E+00  0.28905431665E+02  0.28905431665E+02  0.00000000000E+00 0.  1.
         21   -1    0    0  501  502 -0.00000000000E+00 -0.00000000000E+00 -0.12688058997E+04  0.12688058997E+04  0.00000000000E+00 0.  1.
         25    1    1    2    0    0  0.10241843206E+03  0.97854179121E+02 -0.72630783121E+03  0.75047521030E+03  0.12500000000E+03 0.  0.
         25    1    1    2    0    0 -0.10241843206E+03 -0.97854179121E+02 -0.51359263679E+03  0.54723612103E+03  0.12500000000E+03 0.  0.
</event>
<event>
 4    0  0.2219362E-002  0.2061641E+03  0.7546771E-02  0.1144640E+00
         21   -1    0    0  502  501  0.00000000000E+00  0.00000000000E+00  0.94962208041E+03  0.94962208041E+03  0.00000000000E+00 0. -1.
         21   -1    0    0  501  502 -0.00000000000E+00 -0.00000000000E+00 -0.44758493468E+02  0.44758493468E+02  0.00000000000E+00 0. -1.
         25    1    1    2    0    0 -0.82212767941E+02  0.13957032447E+03  0.39142968357E+03  0.44167976166E+03  0.12500000000E+03 0.  0.
         25    1    1    2    0    0  0.82212767941E+02 -0.13957032447E+03  0.51343390337E+03  0.55270081221E+03  0.12500000000E+03 0.  0.
</event>
<event>
 4    0  0.2219362E-002  0.1950159E+03  0.7546771E-02  0.1154014E+00
         21   -1    0    0  502  501  0.00000000000E+00  0.00000000000E+00  0.29484208104E+02  0.29484208104E+02  0.00000000000E+00 0. -1.
         21   -1    0    0  501  502 -0.00000000000E+00 -0.00000000000E+00 -0.12898832280E+04  0.12898832280E+04  0.00000000000E+00 0. -1.
         25    1    1    2    0    0 -0.13801247248E+03  0.54129165110E+02 -0.56015383965E+03  0.59276870122E+03  0.12500000000E+03 0.  0.
         25    1    1    2    0    0  0.13801247248E+03 -0.54129165110E+02 -0.70024518024E+03  0.72659873488E+03  0.12500000000E+03 0.  0.
</event>
<event>
 4    0  0.2219362E-002  0.2196703E+03  0.7546771E-02  0.1134129E+00
         21   -1    0    0  502  501  0.00000000000E+00  0.00000000000E+00  0.15993369739E+03  0.15993369739E+03  0.00000000000E+00 0. -1.
         21   -1    0    0  501  502 -0.00000000000E+00 -0.00000000000E+00 -0.30171899222E+03  0.30171899222E+03  0.00000000000E+00 0. -1.
         25    1    1    2    0    0 -0.20595607174E+01 -0.63104338239E+02  0.10694681002E+03  0.17620731957E+03  0.12500000000E+03 0.  0.
         25    1    1    2    0    0  0.20595607174E+01  0.63104338239E+02 -0.24873210485E+03  0.28544537004E+03  0.12500000000E+03 0.  0.
</event>
<event>
 4    0  0.2219362E-002  0.2620443E+03  0.7546771E-02  0.1105921E+00
         21   -1    0    0  502  501  0.00000000000E+00  0.00000000000E+00  0.94702801272E+03  0.94702801272E+03  0.00000000000E+00 0.  1.
         21   -1    0    0  501  502 -0.00000000000E+00 -0.00000000000E+00 -0.72508134641E+02  0.72508134641E+02  0.00000000000E+00 0.  1.
         25    1    1    2    0    0  0.15272268531E+02 -0.19933836822E+03  0.65968766894E+03  0.70055824011E+03  0.12500000000E+03 0.  0.
         25    1    1    2    0    0 -0.15272268531E+02  0.19933836822E+03  0.21483220914E+03  0.31897790725E+03  0.12500000000E+03 0.  0.
</event>
<event>
 4    0  0.2219362E-002  0.2224802E+03  0.7546771E-02  0.1132047E+00
         21   -1    0    0  502  501  0.00000000000E+00  0.00000000000E+00  0.40749980596E+03  0.40749980596E+03  0.00000000000E+00 0.  1.
         21   -1    0    0  501  502 -0.00000000000E+00 -0.00000000000E+00 -0.12146615314E+03  0.12146615314E+03  0.00000000000E+00 0.  1.
         25    1    1    2    0    0 -0.32639875663E+02 -0.11608588583E+02  0.35789699079E+03  0.38067752341E+03  0.12500000000E+03 0.  0.
         25    1    1    2    0    0  0.32639875663E+02  0.11608588583E+02 -0.71863337976E+02  0.14828843568E+03  0.12500000000E+03 0.  0.
</event>
<event>
 4    0  0.2219362E-002  0.2364082E+03  0.7546771E-02  0.1122209E+00
         21   -1    0    0  502  501  0.00000000000E+00  0.00000000000E+00  0.28590148982E+03  0.28590148982E+03  0.00000000000E+00 0. -1.
         21   -1    0    0  501  502 -0.00000000000E+00 -0.00000000000E+00 -0.19548284890E+03  0.19548284890E+03  0.00000000000E+00 0. -1.
         25    1    1    2    0    0  0.43177676602E+02 -0.18630207042E+03 -0.16645740785E+02  0.22907390486E+03  0.12500000000E+03 0.  0.
         25    1    1    2    0    0 -0.43177676602E+02  0.18630207042E+03  0.10706438171E+03  0.25231043385E+03  0.12500000000E+03 0.  0.
</event>
<event>
 4    0  0.2219362E-002  0.3101443E+03  0.7546771E-02  0.1080277E+00
         21   -1    0    0  502  501  0.00000000000E+00  0.00000000000E+00  0.23832604522E+03  0.23832604522E+03  0.00000000000E+00 0.  1.
         21   -1    0    0  501  502 -0.00000000000E+00 -0.00000000000E+00 -0.40360463449E+03  0.40360463449E+03  0.00000000000E+00 0.  1.
         25    1    1    2    0    0  0.16868319742E+02  0.22803385188E+03  0.91396265554E+02  0.27615621516E+03  0.12500000000E+03 0.  0.
         25    1    1    2    0    0 -0.16868319742E+02 -0.22803385188E+03 -0.25667485482E+03  0.36577446455E+03  0.12500000000E+03 0.  0.
</event>
<event>
 4    0  0.2219362E-002  0.1983202E+03  0.7546771E-02  0.1151164E+00
         21   -1    0    0  502  501  0.00000000000E+00  0.00000000000E+00  0.86611351255E+03  0.86611351255E+03  0.00000000000E+00 0. -1.
         21   -1    0    0  501  502 -0.00000000000E+00 -0.00000000000E+00 -0.45410813503E+02  0.45410813503E+02  0.00000000000E+00 0. -1.
         25    1    1    2    0    0 -0.69048237035E+01 -0.15147555030E+03  0.47173289964E+03  0.51102783440E+03  0.12500000000E+03 0.  0.
         25    1    1    2    0    0  0.69048237035E+01  0.15147555030E+03  0.34896979941E+03  0.40049649165E+03  0.12500000000E+03 0.  0.
</event>
<event>
 4    0  0.2219362E-002  0.3807788E+03  0.7546771E-02  0.1050646E+00
         21   -1    0    0  502  501  0.00000000000E+00  0.00000000000E+00  0.13841067801E+04  0.13841067801E+04  0.00000000000E+00 0.  1.
         21   -1    0    0  501  502 -0.00000000000E+00 -0.00000000000E+00 -0.10475529423E+03  0.10475529423E+03  0.00000000000E+00 0.  1.
         25    1    1    2    0    0  0.23466633510E+03 -0.70606580099E+02  0.11543849780E+04  0.11867111086E+04  0.12500000000E+03 0.  0.
         25    1    1    2    0    0 -0.23466633510E+03  0.70606580099E+02  0.12496650793E+03  0.30215096572E+03  0.12500000000E+03 0.  0.
</event>
<event>
 4    0  0.2219362E-002  0.2665600E+03  0.7546771E-02  0.1103265E+00
         21   -1    0    0  502  501  0.00000000000E+00  0.00000000000E+00  0.63567605090E+03  0.63567605090E+03  0.00000000000E+00 0.  1.
         21   -1    0    0  501  502 -0.00000000000E+00 -0.00000000000E+00 -0.11177741852E+03  0.11177741852E+03  0.00000000000E+00 0.  1.
         25    1    1    2    0    0 -0.14953740100E+03  0.15093640426E+03  0.11975495646E+03  0.27406109177E+03  0.12500000000E+03 0.  0.
         25    1    1    2    0    0  0.14953740100E+03 -0.15093640426E+03  0.40414367592E+03  0.47339237765E+03  0.12500000000E+03 0.  0.
</event>
<event>
 4    0  0.2219362E-002  0.1758216E+03  0.7546771E-02  0.1171909E+00
         21   -1    0    0  502  501  0.00000000000E+00  0.00000000000E+00  0.56901910140E+02  0.56901910140E+02  0.00000000000E+00 0.  1.
         21   -1    0    0  501  502 -0.00000000000E+00 -0.00000000000E+00 -0.54327216550E+03  0.54327216550E+03  0.00000000000E+00 0.  1.
         25    1    1    2    0    0 -0.74605946311E+02 -0.96788454620E+02 -0.27530560999E+03  0.32611689785E+03  0.12500000000E+03 0.  0.
         25    1    1    2    0    0  0.74605946311E+02  0.96788454620E+02 -0.21106464537E+03  0.27405717779E+03  0.12500000000E+03 0.  0.
</event>
<event>
 4    0  0.2219362E-002  0.1571331E+03  0.7546771E-02  0.1191972E+00
         21   -1    0    0  502  501  0.00000000000E+00  0.00000000000E+00  0.33464129818E+02  0.33464129818E+02  0.00000000000E+00 0.  1.
         21   -1    0    0  501  502 -0.00000000000E+00 -0.00000000000E+00 -0.73782905836E+03  0.73782905836E+03  0.00000000000E+00 0.  1.
         25    1    1    2    0    0  0.86319288639E+02 -0.38322288654E+02 -0.32250815095E+03  0.35854724211E+03  0.12500000000E+03 0.  0.
         25    1    1    2    0    0 -0.86319288639E+02  0.38322288654E+02 -0.38185677759E+03  0.41274594607E+03  0.12500000000E+03 0.  0.
</event>
<event>
 4    0  0.2219362E-002  0.2788295E+03  0.7546771E-02  0.1096330E+00
         21   -1    0    0  502  501  0.00000000000E+00  0.00000000000E+00  0.11491837848E+03  0.11491837848E+03  0.00000000000E+00 0.  1.
         21   -1    0    0  501  502 -0.00000000000E+00 -0.00000000000E+00 -0.67653114827E+03  0.67653114827E+03  0.00000000000E+00 0.  1.
         25    1    1    2    0    0  0.19446590807E+03  0.13418578905E+03 -0.16817548882E+03  0.31580185311E+03  0.12500000000E+03 0.  0.
         25    1    1    2    0    0 -0.19446590807E+03 -0.13418578905E+03 -0.39343728096E+03  0.47564767364E+03  0.12500000000E+03 0.  0.
</event>
<event>
 4    0  0.2219362E-002  0.1950782E+03  0.7546771E-02  0.1153959E+00
         21   -1    0    0  502  501  0.00000000000E+00  0.00000000000E+00  0.13959622538E+04  0.13959622538E+04  0.00000000000E+00 0. -1.
         21   -1    0    0  501  502 -0.00000000000E+00 -0.00000000000E+00 -0.27261136852E+02  0.27261136852E+02  0.00000000000E+00 0. -1.
         25    1    1    2    0    0  0.12398952985E+03 -0.77036716072E+02  0.56213697367E+03  0.59407999150E+03  0.12500000000E+03 0.  0.
         25    1    1    2    0    0 -0.12398952985E+03  0.77036716072E+02  0.80656414330E+03  0.82914339917E+03  0.12500000000E+03 0.  0.
</event>
<event>
 4    0  0.2219362E-002  0.2474124E+03  0.7546771E-02  0.1114951E+00
         21   -1    0    0  502  501  0.00000000000E+00  0.00000000000E+00  0.12426201765E+04  0.12426201765E+04  0.00000000000E+00 0. -1.
         21   -1    0    0  501  502 -0.00000000000E+00 -0.00000000000E+00 -0.49261158022E+02  0.49261158022E+02  0.00000000000E+00 0. -1.
         25    1    1    2    0    0 -0.45593504406E+02 -0.88089477843E+02  0.10304512033E+03  0.18995215338E+03  0.12500000000E+03 0.  0.
         25    1    1    2    0    0  0.45593504406E+02  0.88089477843E+02  0.10903138981E+04  0.11019291811E+04  0.12500000000E+03 0.  0.
</event>
<event>
 4    0  0.2219362E-002  0.2346731E+03  0.7546771E-02  0.1123393E+00
         21   -1    0    0  502  501  0.00000000000E+00  0.00000000000E+00  0.10983849333E+04  0.10983849333E+04  0.00000000000E+00 0. -1.
         21   -1    0    0  501  502 -0.00000000000E+00 -0.00000000000E+00 -0.50138563574E+02  0.50138563574E+02  0.00000000000E+00 0. -1.
         25    1    1    2    0    0 -0.40714423254E+02 -0.89611593580E+02  0.94625926963E+03  0.95954130047E+03  0.12500000000E+03 0.  0.
         25    1    1    2    0    0  0.40714423254E+02  0.89611593580E+02  0.10198710008E+03  0.18898219638E+03  0.12500000000E+03 0.  0.
</event>
<event>
 4    0  0.2219362E-002  0.1944218E+03  0.7546771E-02  0.1154533E+00
         21   -1    0    0  502  501  0.00000000000E+00  0.00000000000E+00  0.36260909834E+02  0.36260909834E+02  0.00000000000E+00 0. -1.
         21   -1    0    0  501  502 -0.00000000000E+00 -0.00000000000E+00 -0.10424402401E+04  0.10424402401E+04  0.00000000000E+00 0. -1.
         25    1    1    2    0    0 -0.68583100036E+02  0.11841764456E+03 -0.66599611100E+03  0.69130470852E+03  0.12500000000E+03 0.  0.
         25    1    1    2    0    0  0.68583100036E+02 -0.11841764456E+03 -0.34018321929E+03  0.38739644144E+03  0.12500000000E+03 0.  0.
</event>
<event>
 4    0  0.2219362E-002  0.2270659E+03  0.7546771E-02  0.1128722E+00
         21   -1    0    0  502  501  0.00000000000E+00  0.00000000000E+00  0.70772513893E+02  0.70772513893E+02  0.00000000000E+00 0.  1.
         21   -1    0    0  501  502 -0.00000000000E+00 -0.00000000000E+00 -0.72851595595E+03  0.72851595595E+03  0.00000000000E+00 0.  1.
         25    1    1    2    0    0 -0.59206175215E+02 -0.14483009630E+03 -0.51722670724E+03  0.55464366458E+03  0.12500000000E+03 0.  0.
         25    1    1    2    0    0  0.59206175215E+02  0.14483009630E+03 -0.14051673482E+03  0.24464480526E+03  0.12500000000E+03 0.  0.
</event>
<event>
 4    0  0.2219362E-002  0.2379892E+03  0.7546771E-02  0.1121140E+00
         21   -1    0    0  502  501  0.00000000000E+00  0.00000000000E+00  0.15936295492E+03  0.15936295492E+03  0.00000000000E+00 0. -1.
         21   -1    0    0  501  502 -0.00000000000E+00 -0.00000000000E+00 -0.35540790545E+03  0.35540790545E+03  0.00000000000E+00 0. -1.
         25    1    1    2    0    0 -0.14666159074E+03 -0.62699070938E+02 -0.23298515270E+03  0.30878451560E+03  0.12500000000E+03 0.  0.
         25    1    1    2    0    0  0.14666159074E+03  0.62699070938E+02  0.36940202168E+02  0.20598634477E+03  0.12500000000E+03 0.  0.
</event>
<event>
 4    0  0.2219362E-002  0.2232385E+03  0.7546771E-02  0.1131491E+00
         21   -1    0    0  502  501  0.00000000000E+00  0.00000000000E+00  0.33633526742E+03  0.33633526742E+03  0.00000000000E+00 0.  1.
         21   -1    0    0  501  502 -0.00000000000E+00 -0.00000000000E+00 -0.14817187704E+03  0.14817187704E+03  0.00000000000E+00 0.  1.
         25    1    1    2    0    0 -0.30438538069E+02 -0.14574885257E+03  0.21316089116E+03  0.28849921689E+03  0.12500000000E+03 0.  0.
         25    1    1    2    0    0  0.30438538069E+02  0.14574885257E+03 -0.24997500778E+02  0.19600792757E+03  0.12500000000E+03 0.  0.
</event>
<event>
 4    0  0.2219362E-002  0.2958844E+03  0.7546771E-02  0.1087316E+00
         21   -1    0    0  502  501  0.00000000000E+00  0.00000000000E+00  0.80446731200E+02  0.80446731200E+02  0.00000000000E+00 0.  1.
         21   -1    0    0  501  502 -0.00000000000E+00 -0.00000000000E+00 -0.10882674879E+04  0.10882674879E+04  0.00000000000E+00 0. -1.
         25    1    1    2    0    0 -0.11025733551E+03 -0.23846747863E+03 -0.61024903575E+03  0.67605643554E+03  0.12500000000E+03 0.  0.
         25    1    1    2    0    0  0.11025733551E+03  0.23846747863E+03 -0.39757172092E+03  0.49265778353E+03  0.12500000000E+03 0.  0.
</event>
<event>
 4    0  0.2219362E-002  0.1941660E+03  0.7546771E-02  0.1154757E+00
         21   -1    0    0  502  501  0.00000000000E+00  0.00000000000E+00  0.65021192434E+02  0.65021192434E+02  0.00000000000E+00 0.  1.
         21   -1    0    0  501  502 -0.00000000000E+00 -0.00000000000E+00 -0.57981772548E+03  0.57981772548E+03  0.00000000000E+00 0.  1.
         25    1    1    2    0    0  0.13441802477E+03 -0.58696471841E+02 -0.21803417419E+03  0.29099378396E+03  0.12500000000E+03 0.  0.
         25    1    1    2    0    0 -0.13441802477E+03  0.58696471841E+02 -0.29676235885E+03  0.35384513395E+03  0.12500000000E+03 0.  0.
</event>
<event>
 4    0  0.2219362E-002  0.1726447E+03  0.7546771E-02  0.1175118E+00
         21   -1    0    0  502  501  0.00000000000E+00  0.00000000000E+00  0.33568638399E+03  0.33568638399E+03  0.00000000000E+00 0.  1.
         21   -1    0    0  501  502 -0.00000000000E+00 -0.00000000000E+00 -0.88791827679E+02  0.88791827679E+02  0.00000000000E+00 0.  1.
         25    1    1    2    0    0  0.23702653066E+02  0.49165955475E+02  0.25356060495E+03  0.28791854286E+03  0.12500000000E+03 0.  0.
         25    1    1    2    0    0 -0.23702653066E+02 -0.49165955475E+02 -0.66660486427E+01  0.13655966881E+03  0.12500000000E+03 0.  0.
</event>
<event>
 4    0  0.2219362E-002  0.1733375E+03  0.7546771E-02  0.1174411E+00
         21   -1    0    0  502  501  0.00000000000E+00  0.00000000000E+00  0.38093512480E+02  0.38093512480E+02  0.00000000000E+00 0. -1.
         21   -1    0    0  501  502 -0.00000000000E+00 -0.00000000000E+00 -0.78874016236E+03  0.78874016236E+03  0.00000000000E+00 0. -1.
         25    1    1    2    0    0 -0.68137103876E+02 -0.81367315947E+02 -0.24130236333E+03  0.29174498381E+03  0.12500000000E+03 0.  0.
         25    1    1    2    0    0  0.68137103876E+02  0.81367315947E+02 -0.50934428655E+03  0.53508869103E+03  0.12500000000E+03 0.  0.
</event>
<event>
 4    0  0.2219362E-002  0.2730582E+03  0.7546771E-02  0.1099542E+00
         21   -1    0    0  502  501  0.00000000000E+00  0.00000000000E+00  0.14203397263E+03  0.14203397263E+03  0.00000000000E+00 0. -1.
         21   -1    0    0  501  502 -0.00000000000E+00 -0.00000000000E+00 -0.52495031755E+03  0.52495031755E+03  0.00000000000E+00 0. -1.
         25    1    1    2    0    0 -0.10161604401E+03  0.14522999335E+03 -0.39405864902E+03  0.44980528036E+03  0.12500000000E+03 0.  0.
         25    1    1    2    0    0  0.10161604401E+03 -0.14522999335E+03  0.11142304102E+02  0.21717900983E+03  0.12500000000E+03 0.  0.
</event>
<event>
 4    0  0.2219362E-002  0.2022508E+03  0.7546771E-02  0.1147854E+00
         21   -1    0    0  502  501  0.00000000000E+00  0.00000000000E+00  0.15734607900E+03  0.15734607900E+03  0.00000000000E+00 0.  1.
         21   -1    0    0  501  502 -0.00000000000E+00 -0.00000000000E+00 -0.25997084806E+03  0.25997084806E+03  0.00000000000E+00 0.  1.
         25    1    1    2    0    0  0.15418552831E+03 -0.20010683586E+02 -0.16989946150E+02  0.20021803832E+03  0.12500000000E+03 0.  0.
         25    1    1    2    0    0 -0.15418552831E+03  0.20010683586E+02 -0.85634822914E+02  0.21709888874E+03  0.12500000000E+03 0.  0.
</event>
<event>
 4    0  0.2219362E-002  0.2057098E+03  0.7546771E-02  0.1145009E+00
         21   -1    0    0  502  501  0.00000000000E+00  0.00000000000E+00  0.61735833580E+02  0.61735833580E+02  0.00000000000E+00 0. -1.
         21   -1    0    0  501  502 -0.00000000000E+00 -0.00000000000E+00 -0.68544515169E+03  0.68544515169E+03  0.00000000000E+00 0. -1.
         25    1    1    2    0    0 -0.11712168081E+03 -0.58884474842E+02 -0.48892863766E+03  0.52140299406E+03  0.12500000000E+03 0.  0.
         25    1    1    2    0    0  0.11712168081E+03  0.58884474842E+02 -0.13478068046E+03  0.22577799122E+03  0.12500000000E+03 0.  0.
</event>
<event>
 4    0  0.2219362E-002  0.2476193E+03  0.7546771E-02  0.1114819E+00
         21   -1    0    0  502  501  0.00000000000E+00  0.00000000000E+00  0.73758570105E+03  0.73758570105E+03  0.00000000000E+00 0. -1.
         21   -1    0    0  501  502 -0.00000000000E+00 -0.00000000000E+00 -0.83129726351E+02  0.83129726351E+02  0.00000000000E+00 0. -1.
         25    1    1    2    0    0 -0.10544083776E+03 -0.10102787465E+03  0.58591187112E+03  0.61663775626E+03  0.12500000000E+03 0.  0.
         25    1    1    2    0    0  0.10544083776E+03  0.10102787465E+03  0.68544103583E+02  0.20407767115E+03  0.12500000000E+03 0.  0.
</event>
<event>
 4    0  0.2219362E-002  0.1632559E+03  0.7546771E-02  0.1185069E+00
         21   -1    0    0  502  501  0.00000000000E+00  0.00000000000E+00  0.13695175052E+03  0.13695175052E+03  0.00000000000E+00 0.  1.
         21   -1    0    0  501  502 -0.00000000000E+00 -0.00000000000E+00 -0.19461232611E+03  0.19461232611E+03  0.00000000000E+00 0.  1.
         25    1    1    2    0    0  0.14480659957E+01 -0.81781272159E+02  0.38046361212E+02  0.15415186983E+03  0.12500000000E+03 0.  0.
         25    1    1    2    0    0 -0.14480659957E+01  0.81781272159E+02 -0.95706936804E+02  0.17741220681E+03  0.12500000000E+03 0.  0.
</event>
<event>
 4    0  0.2219362E-002  0.2618582E+03  0.7546771E-02  0.1106032E+00
         21   -1    0    0  502  501  0.00000000000E+00  0.00000000000E+00  0.41176623408E+03  0.41176623408E+03  0.00000000000E+00 0.  1.
         21   -1    0    0  501  502 -0.00000000000E+00 -0.00000000000E+00 -0.16652587569E+03  0.16652587569E+03  0.00000000000E+00 0.  1.
         25    1    1    2    0    0 -0.94774489881E+02 -0.11040819736E+03 -0.74203406069E+02  0.20567770771E+03  0.12500000000E+03 0.  0.
         25    1    1    2    0    0  0.94774489881E+02  0.11040819736E+03  0.31944376446E+03  0.37261440206E+03  0.12500000000E+03 0.  0.
</event>
<event>
 4    0  0.2219362E-002  0.2314032E+03  0.7546771E-02  0.1125656E+00
         21   -1    0    0  502  501  0.00000000000E+00  0.00000000000E+00  0.18818228195E+04  0.18818228195E+04  0.00000000000E+00 0.  1.
         21   -1    0    0  501  502 -0.00000000000E+00 -0.00000000000E+00 -0.28455092497E+02  0.28455092497E+02  0.00000000000E+00 0.  1.
         25    1    1    2    0    0  0.10674798444E+02  0.18328395934E+03  0.65869251336E+03  0.69513148988E+03  0.12500000000E+03 0.  0.
         25    1    1    2    0    0 -0.10674798444E+02 -0.18328395934E+03  0.11946752136E+04  0.12151464221E+04  0.12500000000E+03 0.  0.
</event>
<event>
 4    0  0.2219362E-002  0.2597925E+03  0.7546771E-02  0.1107268E+00
         21   -1    0    0  502  501  0.00000000000E+00  0.00000000000E+00  0.12562881195E+03  0.12562881195E+03  0.00000000000E+00 0.  1.
         21   -1    0    0  501  502 -0.00000000000E+00 -0.00000000000E+00 -0.53723454120E+03  0.53723454120E+03  0.00000000000E+00 0.  1.
         25    1    1    2    0    0  0.13968653198E+03 -0.13442001913E+03 -0.35828669259E+03  0.42611667751E+03  0.12500000000E+03 0.  0.
         25    1    1    2    0    0 -0.13968653198E+03  0.13442001913E+03 -0.53319036664E+02  0.23674667565E+03  0.12500000000E+03 0.  0.
</event>
<event>
 4    0  0.2219362E-002  0.3591536E+03  0.7546771E-02  0.1058920E+00
         21   -1    0    0  502  501  0.00000000000E+00  0.00000000000E+00  0.10556891911E+04  0.10556891911E+04  0.00000000000E+00 0. -1.
         21   -1    0    0  501  502 -0.00000000000E+00 -0.00000000000E+00 -0.12218679196E+03  0.12218679196E+03  0.00000000000E+00 0.  1.
         25    1    1    2    0    0  0.25399086012E+03 -0.21805560684E+03  0.52602632844E+03  0.63591532684E+03  0.12500000000E+03 0.  0.
         25    1    1    2    0    0 -0.25399086012E+03  0.21805560684E+03  0.40747607074E+03  0.54196065625E+03  0.12500000000E+03 0.  0.
</event>
<event>
 4    0  0.2219362E-002  0.3198425E+03  0.7546771E-02  0.1075722E+00
         21   -1    0    0  502  501  0.00000000000E+00  0.00000000000E+00  0.45756861975E+03  0.45756861975E+03  0.00000000000E+00 0. -1.
         21   -1    0    0  501  502 -0.00000000000E+00 -0.00000000000E+00 -0.22357131151E+03  0.22357131151E+03  0.00000000000E+00 0. -1.
         25    1    1    2    0    0 -0.66792120005E+01 -0.14617208750E+03 -0.15502382313E+03  0.24711996434E+03  0.12500000000E+03 0.  0.
         25    1    1    2    0    0  0.66792120005E+01  0.14617208750E+03  0.38902113137E+03  0.43401996693E+03  0.12500000000E+03 0.  0.
</event>
<event>
 4    0  0.2219362E-002  0.2772400E+03  0.7546771E-02  0.1097206E+00
         21   -1    0    0  502  501  0.00000000000E+00  0.00000000000E+00  0.31941627401E+03  0.31941627401E+03  0.00000000000E+00 0.  1.
         21   -1    0    0  501  502 -0.00000000000E+00 -0.00000000000E+00 -0.24063275229E+03  0.24063275229E+03  0.00000000000E+00 0.  1.
         25    1    1    2    0    0 -0.99458477863E+02 -0.19960016560E+03  0.14772949307E+03  0.29526465764E+03  0.12500000000E+03 0.  0.
         25    1    1    2    0    0  0.99458477863E+02  0.19960016560E+03 -0.68945971346E+02  0.26478436867E+03  0.12500000000E+03 0.  0.
</event>
<event>
 4    0  0.2219362E-002  0.2176781E+03  0.7546771E-02  0.1135626E+00
         21   -1    0    0  502  501  0.00000000000E+00  0.00000000000E+00  0.16623919040E+03  0.16623919040E+03  0.00000000000E+00 0.  1.
         21   -1    0    0  501  502 -0.00000000000E+00 -0.00000000000E+00 -0.28503360605E+03  0.28503360605E+03  0.00000000000E+00 0.  1.
         25    1    1    2    0    0  0.12130240723E+03 -0.33519285130E+02 -0.19018847952E+03  0.26006628812E+03  0.12500000000E+03 0.  0.
         25    1    1    2    0    0 -0.12130240723E+03  0.33519285130E+02  0.71394063858E+02  0.19120650833E+03  0.12500000000E+03 0.  0.
</event>
<event>
 4    0  0.2219362E-002  0.1820886E+03  0.7546771E-02  0.1165797E+00
         21   -1    0    0  502  501  0.00000000000E+00  0.00000000000E+00  0.30161448286E+03  0.30161448286E+03  0.00000000000E+00 0. -1.
         21   -1    0    0  501  502 -0.00000000000E+00 -0.00000000000E+00 -0.10992922254E+03  0.10992922254E+03  0.00000000000E+00 0. -1.
         25    1    1    2    0    0 -0.22713073116E+02  0.15372004689E+02 -0.50539192763E+02  0.13759139589E+03  0.12500000000E+03 0.  0.
         25    1    1    2    0    0  0.22713073116E+02 -0.15372004689E+02  0.24222445308E+03  0.27395230952E+03  0.12500000000E+03 0.  0.
</event>
<event>
 4    0  0.2219362E-002  0.2963996E+03  0.7546771E-02  0.1087054E+00
         21   -1    0    0  502  501  0.00000000000E+00  0.00000000000E+00  0.11543005662E+04  0.11543005662E+04  0.00000000000E+00 0.  1.
         21   -1    0    0  501  502 -0.00000000000E+00 -0.00000000000E+00 -0.76109061088E+02  0.76109061088E+02  0.00000000000E+00 0.  1.
         25    1    1    2    0    0 -0.14475244098E+03  0.22027943036E+03  0.64796914918E+03  0.71060911540E+03  0.12500000000E+03 0.  0.
         25    1    1    2    0    0  0.14475244098E+03 -0.22027943036E+03  0.43022235591E+03  0.51980051186E+03  0.12500000000E+03 0.  0.
</event>
<event>
 4    0  0.2219362E-002  0.3830169E+03  0.7546771E-02  0.1049824E+00
         21   -1    0    0  502  501  0.00000000000E+00  0.00000000000E+00  0.66959403149E+03  0.66959403149E+03  0.00000000000E+00 0. -1.
         21   -1    0    0  501  502 -0.00000000000E+00 -0.00000000000E+00 -0.21909083263E+03  0.21909083263E+03  0.00000000000E+00 0. -1.
         25    1    1    2    0    0 -0.33754722233E+03  0.12909841667E+03  0.25046596993E+03  0.45712441477E+03  0.12500000000E+03 0.  0.
         25    1    1    2    0    0  0.33754722233E+03 -0.12909841667E+03  0.20003722892E+03  0.43156044935E+03  0.12500000000E+03 0.  0.
</event>
<event>
 4    0  0.2219362E-002  0.1885074E+03  0.7546771E-02  0.1159814E+00
         21   -1    0    0  502  501  0.00000000000E+00  0.00000000000E+00  0.28691834740E+03  0.28691834740E+03  0.00000000000E+00 0. -1.
         21   -1    0    0  501  502 -0.00000000000E+00 -0.00000000000E+00 -0.12385076645E+03  0.12385076645E+03  0.00000000000E+00 0. -1.
         25    1    1    2    0    0 -0.37233805906E+02 -0.84188934867E+02  0.19804693125E+03  0.25163807349E+03  0.12500000000E+03 0.  0.
         25    1    1    2    0    0  0.37233805906E+02  0.84188934867E+02 -0.34979350293E+02  0.15913104035E+03  0.12500000000E+03 0.  0.
</event>
<event>
 4    0  0.2219362E-002  0.2105507E+03  0.7546771E-02  0.1141131E+00
         21   -1    0    0  502  501  0.00000000000E+00  0.00000000000E+00  0.16036856225E+03  0.16036856225E+03  0.00000000000E+00 0.  1.
         21   -1    0    0  501  502 -0.00000000000E+00 -0.00000000000E+00 -0.27643578847E+03  0.27643578847E+03  0.00000000000E+00 0.  1.
         25    1    1    2    0    0 -0.35915101108E+02 -0.56595624411E+02 -0.21944357878E+03  0.26129187408E+03  0.12500000000E+03 0.  0.
         25    1    1    2    0    0  0.35915101108E+02  0.56595624411E+02  0.10337635256E+03  0.17551247665E+03  0.12500000000E+03 0.  0.
</event>
<event>
 4    0  0.2219362E-002  0.2355533E+03  0.7546771E-02  0.1122791E+00
         21   -1    0    0  502  501  0.00000000000E+00  0.00000000000E+00  0.53721236457E+02  0.53721236457E+02  0.00000000000E+00 0. -1.
         21   -1    0    0  501  502 -0.00000000000E+00 -0.00000000000E+00 -0.10328383556E+04  0.10328383556E+04  0.00000000000E+00 0. -1.
         25    1    1    2    0    0 -0.14149842752E+03  0.92239594257E+02 -0.24405538768E+03  0.32205275964E+03  0.12500000000E+03 0.  0.
         25    1    1    2    0    0  0.14149842752E+03 -0.92239594257E+02 -0.73506173148E+03  0.76450683242E+03  0.12500000000E+03 0.  0.
</event>
<event>
 4    0  0.2219362E-002  0.3106341E+03  0.7546771E-02  0.1080042E+00
         21   -1    0    0  502  501  0.00000000000E+00  0.00000000000E+00  0.58620100579E+03  0.58620100579E+03  0.00000000000E+00 0. -1.
         21   -1    0    0  501  502 -0.00000000000E+00 -0.00000000000E+00 -0.16460830720E+03  0.16460830720E+03  0.00000000000E+00 0. -1.
         25    1    1    2    0    0  0.16594600561E+03  0.17036578299E+03  0.22385001817E+02  0.26960835502E+03  0.12500000000E+03 0.  0.
         25    1    1    2    0    0 -0.16594600561E+03 -0.17036578299E+03  0.39920769677E+03  0.48120095797E+03  0.12500000000E+03 0.  0.
</event>
<event>
 4    0  0.2219362E-002  0.2375358E+03  0.7546771E-02  0.1121445E+00
         21   -1    0    0  502  501  0.00000000000E+00  0.00000000000E+00  0.15563828231E+03  0.15563828231E+03  0.00000000000E+00 0.  1.
         21   -1    0    0  501  502 -0.00000000000E+00 -0.00000000000E+00 -0.36252798449E+03  0.36252798449E+03  0.00000000000E+00 0.  1.
         25    1    1    2    0    0  0.37176844188E+02 -0.19500431623E+03 -0.14410123608E+03  0.27531612254E+03  0.12500000000E+03 0.  0.
         25    1    1    2    0    0 -0.37176844188E+02  0.19500431623E+03 -0.62788466101E+02  0.24285014426E+03  0.12500000000E+03 0.  0.
</event>
<event>
 4    0  0.2219362E-002  0.1946379E+03  0.7546771E-02  0.1154344E+00
         21   -1    0    0  502  501  0.00000000000E+00  0.00000000000E+00  0.17283832589E+03  0.17283832589E+03  0.00000000000E+00 0.  1.
         21   -1    0    0  501  502 -0.00000000000E+00 -0.00000000000E+00 -0.21918697339E+03  0.21918697339E+03  0.00000000000E+00 0.  1.
         25    1    1    2    0    0 -0.85176220306E+01 -0.69280403159E+02  0.10961521209E+03  0.18031311341E+03  0.12500000000E+03 0.  0.
         25    1    1    2    0    0  0.85176220306E+01  0.69280403159E+02 -0.15596385959E+03  0.21171218587E+03  0.12500000000E+03 0.  0.
</event>
<event>
 4    0  0.2219362E-002  0.2718664E+03  0.7546771E-02  0.1100216E+00
         21   -1    0    0  502  501  0.00000000000E+00  0.00000000000E+00  0.10108915625E+03  0.10108915625E+03  0.00000000000E+00 0. -1.
         21   -1    0    0  501  502 -0.00000000000E+00 -0.00000000000E+00 -0.73114999807E+03  0.73114999807E+03  0.00000000000E+00 0. -1.
         25    1    1    2    0    0  0.23163662001E+03 -0.47024185201E+02 -0.39031896602E+03  0.47311805394E+03  0.12500000000E+03 0.  0.
         25    1    1    2    0    0 -0.23163662001E+03  0.47024185201E+02 -0.23974187580E+03  0.35912110038E+03  0.12500000000E+03 0.  0.
</event>
<event>
 4    0  0.2219362E-002  0.2433647E+03  0.7546771E-02  0.1117571E+00
         21   -1    0    0  502  501  0.00000000000E+00  0.00000000000E+00  0.44794382371E+03  0.44794382371E+03  0.00000000000E+00 0.  1.
         21   -1    0    0  501  502 -0.00000000000E+00 -0.00000000000E+00 -0.13221827467E+03  0.13221827467E+03  0.00000000000E+00 0.  1.
         25    1    1    2    0    0 -0.19578232063E+03  0.61603043687E+02  0.20365186049E+03  0.31499957515E+03  0.12500000000E+03 0.  0.
         25    1    1    2    0    0  0.19578232063E+03 -0.61603043687E+02  0.11207368856E+03  0.26516252323E+03  0.12500000000E+03 0.  0.
</event>
<event>
 4    0  0.2219362E-002  0.2809397E+03  0.7546771E-02  0.1095177E+00
         21   -1    0    0  502  501  0.00000000000E+00  0.00000000000E+00  0.98856737052E+02  0.98856737052E+02  0.00000000000E+00 0. -1.
         21   -1    0    0  501  502 -0.00000000000E+00 -0.00000000000E+00 -0.79839914991E+03  0.79839914991E+03  0.00000000000E+00 0. -1.
         25    1    1    2    0    0 -0.41855573521E+02 -0.25371000395E+02  0.44327655733E+02  0.14137014451E+03  0.12500000000E+03 0.  0.
         25    1    1    2    0    0  0.41855573521E+02  0.25371000395E+02 -0.74387006859E+03  0.75588574245E+03  0.12500000000E+03 0.  0.
</event>
<event>
 4    0  0.2219362E-002  0.1631002E+03  0.7546771E-02  0.1185240E+00
         21   -1    0    0  502  501  0.00000000000E+00  0.00000000000E+00  0.76277843723E+02  0.76277843723E+02  0.00000000000E+00 0. -1.
         21   -1    0    0  501  502 -0.00000000000E+00 -0.00000000000E+00 -0.34874706999E+03  0.34874706999E+03  0.00000000000E+00 0. -1.
         25    1    1    2    0    0 -0.99863754983E+02  0.14397658897E+02 -0.99459550121E+02  0.18893719658E+03  0.12500000000E+03 0.  0.
         25    1    1    2    0    0  0.99863754983E+02 -0.14397658897E+02 -0.17300967614E+03  0.23608771713E+03  0.12500000000E+03 0.  0.
</event>
<event>
 4    0  0.2219362E-002  0.1771886E+03  0.7546771E-02  0.1170552E+00
         21   -1    0    0  502  501  0.00000000000E+00  0.00000000000E+00  0.35775243710E+02  0.35775243710E+02  0.00000000000E+00 0.  1.
         21   -1    0    0  501  502 -0.00000000000E+00 -0.00000000000E+00 -0.87758430082E+03  0.87758430082E+03  0.00000000000E+00 0.  1.
         25    1    1    2    0    0  0.13531843519E+02  0.67354713273E+02 -0.14996191574E+03  0.20696218099E+03  0.12500000000E+03 0.  0.
         25    1    1    2    0    0 -0.13531843519E+02 -0.67354713273E+02 -0.69184714137E+03  0.70639736353E+03  0.12500000000E+03 0.  0.
</event>
<event>
 4    0  0.2219362E-002  0.2051142E+03  0.7546771E-02  0.1145494E+00
         21   -1    0    0  502  501  0.00000000000E+00  0.00000000000E+00  0.15884408811E+02  0.15884408811E+02  0.00000000000E+00 0.  1.
         21   -1    0    0  501  502 -0.00000000000E+00 -0.00000000000E+00 -0.26486248725E+04  0.26486248725E+04  0.00000000000E+00 0.  1.
         25    1    1    2    0    0  0.48522552107E+02 -0.95851172301E+02 -0.52340011466E+03  0.54873906852E+03  0.12500000000E+03 0.  0.
         25    1    1    2    0    0 -0.48522552107E+02  0.95851172301E+02 -0.21093403491E+04  0.21157702128E+04  0.12500000000E+03 0.  0.
</event>
<event>
 4    0  0.2219362E-002  0.2117039E+03  0.7546771E-02  0.1140224E+00
         21   -1    0    0  502  501  0.00000000000E+00  0.00000000000E+00  0.12318301578E+03  0.12318301578E+03  0.00000000000E+00 0. -1.
         21   -1    0    0  501  502 -0.00000000000E+00 -0.00000000000E+00 -0.36383715709E+03  0.36383715709E+03  0.00000000000E+00 0. -1.
         25    1    1    2    0    0 -0.11778890230E+03 -0.11942978442E+03 -0.82951223139E+02  0.22504133916E+03  0.12500000000E+03 0.  0.
         25    1    1    2    0    0  0.11778890230E+03  0.11942978442E+03 -0.15770291817E+03  0.26197883371E+03  0.12500000000E+03 0.  0.
</event>
<event>
 4    0  0.2219362E-002  0.2681368E+03  0.7546771E-02  0.1102351E+00
         21   -1    0    0  502  501  0.00000000000E+00  0.00000000000E+00  0.17607051067E+03  0.17607051067E+03  0.00000000000E+00 0. -1.
         21   -1    0    0  501  502 -0.00000000000E+00 -0.00000000000E+00 -0.40834412914E+03  0.40834412914E+03  0.00000000000E+00 0. -1.
         25    1    1    2    0    0  0.15665438229E+03 -0.10779392569E+03  0.38411682705E+02  0.23078254543E+03  0.12500000000E+03 0.  0.
         25    1    1    2    0    0 -0.15665438229E+03  0.10779392569E+03 -0.27068530117E+03  0.35363209438E+03  0.12500000000E+03 0.  0.
</event>
<event>
 4    0  0.2219362E-002  0.2317571E+03  0.7546771E-02  0.1125409E+00
         21   -1    0    0  502  501  0.00000000000E+00  0.00000000000E+00  0.20937733776E+04  0.20937733776E+04  0.00000000000E+00 0. -1.
         21   -1    0    0  501  502 -0.00000000000E+00 -0.00000000000E+00 -0.25652889307E+02  0.25652889307E+02  0.00000000000E+00 0. -1.
         25    1    1    2    0    0 -0.52346293344E+01  0.43220712129E+02  0.16418882753E+03  0.21089903363E+03  0.12500000000E+03 0.  0.
         25    1    1    2    0    0  0.52346293344E+01 -0.43220712129E+02  0.19039316607E+04  0.19085272332E+04  0.12500000000E+03 0.  0.
</event>
<event>
 4    0  0.2219362E-002  0.2106995E+03  0.7546771E-02  0.1141013E+00
         21   -1    0    0  502  501  0.00000000000E+00  0.00000000000E+00  0.78609337257E+03  0.78609337257E+03  0.00000000000E+00 0. -1.
         21   -1    0    0  501  502 -0.00000000000E+00 -0.00000000000E+00 -0.56474540583E+02  0.56474540583E+02  0.00000000000E+00 0. -1.
         25    1    1    2    0    0 -0.15208593286E+03 -0.33117628379E+02  0.23005221608E+03  0.30459141552E+03  0.12500000000E+03 0.  0.
         25    1    1    2    0    0  0.15208593286E+03  0.33117628379E+02  0.49956661590E+03  0.53797649763E+03  0.12500000000E+03 0.  0.
</event>
<event>
 4    0  0.2219362E-002  0.2854860E+03  0.7546771E-02  0.1092730E+00
         21   -1    0    0  502  501  0.00000000000E+00  0.00000000000E+00  0.74404549691E+03  0.74404549691E+03  0.00000000000E+00 0.  1.
         21   -1    0    0  501  502 -0.00000000000E+00 -0.00000000000E+00 -0.10953934041E+03  0.10953934041E+03  0.00000000000E+00 0.  1.
         25    1    1    2    0    0  0.20860512836E+03  0.84879055094E+02  0.13320376227E+03  0.28998068186E+03  0.12500000000E+03 0.  0.
         25    1    1    2    0    0 -0.20860512836E+03 -0.84879055094E+02  0.50130239424E+03  0.56360415545E+03  0.12500000000E+03 0.  0.
</event>
<event>
 4    0  0.2219362E-002  0.2118721E+03  0.7546771E-02  0.1140092E+00
         21   -1    0    0  502  501  0.00000000000E+00  0.00000000000E+00  0.23959161277E+03  0.23959161277E+03  0.00000000000E+00 0.  1.
         21   -1    0    0  501  502 -0.00000000000E+00 -0.00000000000E+00 -0.18735958387E+03  0.18735958387E+03  0.00000000000E+00 0.  1.
         25    1    1    2    0    0  0.14435467802E+03 -0.91454625000E+02  0.18146450959E+02  0.21250062396E+03  0.12500000000E+03 0.  0.
         25    1    1    2    0    0 -0.14435467802E+03  0.91454625000E+02  0.34085577941E+02  0.21445057268E+03  0.12500000000E+03 0.  0.
</event>
<event>
 4    0  0.2219362E-002  0.3355953E+03  0.7546771E-02  0.1068688E+00
         21   -1    0    0  502  501  0.00000000000E+00  0.00000000000E+00  0.22726227780E+03  0.22726227780E+03  0.00000000000E+00 0.  1.
         21   -1    0    0  501  502 -0.00000000000E+00 -0.00000000000E+00 -0.49556926951E+03  0.49556926951E+03  0.00000000000E+00 0.  1.
         25    1    1    2    0    0 -0.77944362454E+02  0.26036525411E+03  0.29646859923E+02  0.30061491229E+03  0.12500000000E+03 0.  0.
         25    1    1    2    0    0  0.77944362454E+02 -0.26036525411E+03 -0.29795385163E+03  0.42221663502E+03  0.12500000000E+03 0.  0.
</event>
<event>
 4    0  0.2219362E-002  0.1999309E+03  0.7546771E-02  0.1149797E+00
         21   -1    0    0  502  501  0.00000000000E+00  0.00000000000E+00  0.28020725843E+02  0.28020725843E+02  0.00000000000E+00 0.  1.
         21   -1    0    0  501  502 -0.00000000000E+00 -0.00000000000E+00 -0.14265282570E+04  0.14265282570E+04  0.00000000000E+00 0.  1.
         25    1    1    2    0    0  0.70406710817E+02  0.13745879622E+03 -0.78021301974E+03  0.80511451468E+03  0.12500000000E+03 0.  0.
         25    1    1    2    0    0 -0.70406710817E+02 -0.13745879622E+03 -0.61829451146E+03  0.64943446820E+03  0.12500000000E+03 0.  0.
</event>
<event>
 4    0  0.2219362E-002  0.2477971E+03  0.7546771E-02  0.1114705E+00
         21   -1    0    0  502  501  0.00000000000E+00  0.00000000000E+00  0.15269376847E+03  0.15269376847E+03  0.00000000000E+00 0.  1.
         21   -1    0    0  501  502 -0.00000000000E+00 -0.00000000000E+00 -0.40213431785E+03  0.40213431785E+03  0.00000000000E+00 0.  1.
         25    1    1    2    0    0  0.14237597895E+03 -0.15699977869E+03 -0.15752347069E+03  0.29216175949E+03  0.12500000000E+03 0.  0.
         25    1    1    2    0    0 -0.14237597895E+03  0.15699977869E+03 -0.91917078688E+02  0.26266632682E+03  0.12500000000E+03 0.  0.
</event>
<event>
 4    0  0.2219362E-002  0.3353421E+03  0.7546771E-02  0.1068797E+00
         21   -1    0    0  502  501  0.00000000000E+00  0.00000000000E+00  0.50326686660E+03  0.50326686660E+03  0.00000000000E+00 0. -1.
         21   -1    0    0  501  502 -0.00000000000E+00 -0.00000000000E+00 -0.22344871359E+03  0.22344871359E+03  0.00000000000E+00 0. -1.
         25    1    1    2    0    0 -0.13411462190E+03  0.27982852198E+03  0.11476245075E+03  0.35367520923E+03  0.12500000000E+03 0.  0.
         25    1    1    2    0    0  0.13411462190E+03 -0.27982852198E+03  0.16505570226E+03  0.37304037096E+03  0.12500000000E+03 0.  0.
</event>
<event>
 4    0  0.2219362E-002  0.2478540E+03  0.7546771E-02  0.1114669E+00
         21   -1    0    0  502  501  0.00000000000E+00  0.00000000000E+00  0.44170565199E+03  0.44170565199E+03  0.00000000000E+00 0.  1.
         21   -1    0    0  501  502 -0.00000000000E+00 -0.00000000000E+00 -0.13907812949E+03  0.13907812949E+03  0.00000000000E+00 0.  1.
         25    1    1    2    0    0  0.19380728868E+03  0.76563065396E+02  0.20851291193E+03  0.32019650618E+03  0.12500000000E+03 0.  0.
         25    1    1    2    0    0 -0.19380728868E+03 -0.76563065396E+02  0.94114610573E+02  0.26058727531E+03  0.12500000000E+03 0.  0.
</event>
<event>
 4    0  0.2219362E-002  0.2277394E+03  0.7546771E-02  0.1128241E+00
         21   -1    0    0  502  501  0.00000000000E+00  0.00000000000E+00  0.64683348895E+03  0.64683348895E+03  0.00000000000E+00 0. -1.
         21   -1    0    0  501  502 -0.00000000000E+00 -0.00000000000E+00 -0.80183319880E+02  0.80183319880E+02  0.00000000000E+00 0. -1.
         25    1    1    2    0    0  0.78131827437E+01 -0.79454491203E+02  0.74794368496E+01  0.14850927235E+03  0.12500000000E+03 0.  0.
         25    1    1    2    0    0 -0.78131827437E+01  0.79454491203E+02  0.55917073222E+03  0.57850753649E+03  0.12500000000E+03 0.  0.
</event>
<event>
 4    0  0.2219362E-002  0.2457562E+03  0.7546771E-02  0.1116017E+00
         21   -1    0    0  502  501  0.00000000000E+00  0.00000000000E+00  0.13911728296E+03  0.13911728296E+03  0.00000000000E+00 0. -1.
         21   -1    0    0  501  502 -0.00000000000E+00 -0.00000000000E+00 -0.43413816432E+03  0.43413816432E+03  0.00000000000E+00 0. -1.
         25    1    1    2    0    0  0.11864530680E+03  0.17286291532E+03 -0.18076202450E+03  0.30374035922E+03  0.12500000000E+03 0.  0.
         25    1    1    2    0    0 -0.11864530680E+03 -0.17286291532E+03 -0.11425885687E+03  0.26951508806E+03  0.12500000000E+03 0.  0.
</event>
<event>
 4    0  0.2219362E-002  0.3588224E+03  0.7546771E-02  0.1059051E+00
         21   -1    0    0  502  501  0.00000000000E+00  0.00000000000E+00  0.12523569038E+03  0.12523569038E+03  0.00000000000E+00 0.  1.
         21   -1    0    0  501  502 -0.00000000000E+00 -0.00000000000E+00 -0.10280898611E+04  0.10280898611E+04  0.00000000000E+00 0.  1.
         25    1    1    2    0    0 -0.27525306918E+03 -0.14059884491E+03 -0.23824413828E+03  0.40977744778E+03  0.12500000000E+03 0.  0.
         25    1    1    2    0    0  0.27525306918E+03  0.14059884491E+03 -0.66461003243E+03  0.74354810369E+03  0.12500000000E+03 0.  0.
</event>
<event>
 4    0  0.2219362E-002  0.3728558E+03  0.7546771E-02  0.1053606E+00
         21   -1    0    0  502  501  0.00000000000E+00  0.00000000000E+00  0.23446170384E+03  0.23446170384E+03  0.00000000000E+00 0.  1.
         21   -1    0    0  501  502 -0.00000000000E+00 -0.00000000000E+00 -0.59293890928E+03  0.59293890928E+03  0.00000000000E+00 0.  1.
         25    1    1    2    0    0 -0.20298248778E+03 -0.10031860189E+02 -0.49714586922E+03  0.55143589278E+03  0.12500000000E+03 0.  0.
         25    1    1    2    0    0  0.20298248778E+03  0.10031860189E+02  0.13866866377E+03  0.27596472035E+03  0.12500000000E+03 0.  0.
</event>
<event>
 4    0  0.2219362E-002  0.3295801E+03  0.7546771E-02  0.1071323E+00
         21   -1    0    0  502  501  0.00000000000E+00  0.00000000000E+00  0.15309361682E+03  0.15309361682E+03  0.00000000000E+00 0.  1.
         21   -1    0    0  501  502 -0.00000000000E+00 -0.00000000000E+00 -0.70952051242E+03  0.70952051242E+03  0.00000000000E+00 0.  1.
         25    1    1    2    0    0 -0.27450377565E+03  0.14112239486E+02 -0.45106797022E+03  0.54280640371E+03  0.12500000000E+03 0.  0.
         25    1    1    2    0    0  0.27450377565E+03 -0.14112239486E+02 -0.10535892538E+03  0.31980772553E+03  0.12500000000E+03 0.  0.
</event>
<event>
 4    0  0.2219362E-002  0.2413503E+03  0.7546771E-02  0.1118897E+00
         21   -1    0    0  502  501  0.00000000000E+00  0.00000000000E+00  0.78022912741E+02  0.78022912741E+02  0.00000000000E+00 0. -1.
         21   -1    0    0  501  502 -0.00000000000E+00 -0.00000000000E+00 -0.74657526666E+03  0.74657526666E+03  0.00000000000E+00 0. -1.
         25    1    1    2    0    0  0.74404525370E+02 -0.17365268639E+03 -0.19202802105E+03  0.29696977920E+03  0.12500000000E+03 0.  0.
         25    1    1    2    0    0 -0.74404525370E+02  0.17365268639E+03 -0.47652433287E+03  0.52762840021E+03  0.12500000000E+03 0.  0.
</event>
<event>
 4    0  0.2219362E-002  0.2416836E+03  0.7546771E-02  0.1118676E+00
         21   -1    0    0  502  501  0.00000000000E+00  0.00000000000E+00  0.87680341097E+03  0.87680341097E+03  0.00000000000E+00 0. -1.
         21   -1    0    0  501  502 -0.00000000000E+00 -0.00000000000E+00 -0.66618110413E+02  0.66618110413E+02  0.00000000000E+00 0. -1.
         25    1    1    2    0    0 -0.15537855162E+03  0.22233668995E+01  0.67155420681E+03  0.70054085558E+03  0.12500000000E+03 0.  0.
         25    1    1    2    0    0  0.15537855162E+03 -0.22233668995E+01  0.13863109375E+03  0.24288066580E+03  0.12500000000E+03 0.  0.
</event>
<event>
 4    0  0.2219362E-002  0.2189730E+03  0.7546771E-02  0.1134651E+00
         21   -1    0    0  502  501  0.00000000000E+00  0.00000000000E+00  0.38962926627E+03  0.38962926627E+03  0.00000000000E+00 0.  1.
         21   -1    0    0  501  502 -0.00000000000E+00 -0.00000000000E+00 -0.12306355575E+03  0.12306355575E+03  0.00000000000E+00 0.  1.
         25    1    1    2    0    0  0.17458307610E+03 -0.42952355808E+02  0.13318080336E+03  0.25629335090E+03  0.12500000000E+03 0.  0.
         25    1    1    2    0    0 -0.17458307610E+03  0.42952355808E+02  0.13338490716E+03  0.25639947112E+03  0.12500000000E+03 0.  0.
</event>
<event>
 4    0  0.2219362E-002  0.2439403E+03  0.7546771E-02  0.1117195E+00
         21   -1    0    0  502  501  0.00000000000E+00  0.00000000000E+00  0.24240229048E+03  0.24240229048E+03  0.00000000000E+00 0. -1.
         21   -1    0    0  501  502 -0.00000000000E+00 -0.00000000000E+00 -0.24548798002E+03  0.24548798002E+03  0.00000000000E+00 0. -1.
         25    1    1    2    0    0 -0.14015970573E+03  0.15494688799E+03 -0.16661593991E+02  0.24404075463E+03  0.12500000000E+03 0.  0.
         25    1    1    2    0    0  0.14015970573E+03 -0.15494688799E+03  0.13575904446E+02  0.24384951587E+03  0.12500000000E+03 0.  0.
</event>
<event>
 4    0  0.2219362E-002  0.1984400E+03  0.7546771E-02  0.1151062E+00
         21   -1    0    0  502  501  0.00000000000E+00  0.00000000000E+00  0.27787733171E+02  0.27787733171E+02  0.00000000000E+00 0.  1.
         21   -1    0    0  501  502 -0.00000000000E+00 -0.00000000000E+00 -0.14171153222E+04  0.14171153222E+04  0.00000000000E+00 0.  1.
         25    1    1    2    0    0 -0.91563456656E+02  0.12296435550E+03 -0.63717796012E+03  0.66717677731E+03  0.12500000000E+03 0.  0.
         25    1    1    2    0    0  0.91563456656E+02 -0.12296435550E+03 -0.75214962892E+03  0.77772627807E+03  0.12500000000E+03 0.  0.
</event>
<event>
 4    0  0.2219362E-002  0.1900413E+03  0.7546771E-02  0.1158424E+00
         21   -1    0    0  502  501  0.00000000000E+00  0.00000000000E+00  0.10742952403E+03  0.10742952403E+03  0.00000000000E+00 0.  1.
         21   -1    0    0  501  502 -0.00000000000E+00 -0.00000000000E+00 -0.33618049844E+03  0.33618049844E+03  0.00000000000E+00 0.  1.
         25    1    1    2    0    0  0.11347252736E+03  0.21254557433E+02 -0.15595507120E+02  0.17086834265E+03  0.12500000000E+03 0.  0.
         25    1    1    2    0    0 -0.11347252736E+03 -0.21254557433E+02 -0.21315546729E+03  0.27274167982E+03  0.12500000000E+03 0.  0.
</event>
<event>
 4    0  0.2219362E-002  0.2712885E+03  0.7546771E-02  0.1100544E+00
         21   -1    0    0  502  501  0.00000000000E+00  0.00000000000E+00  0.34766870182E+03  0.34766870182E+03  0.00000000000E+00 0. -1.
         21   -1    0    0  501  502 -0.00000000000E+00 -0.00000000000E+00 -0.21168843509E+03  0.21168843509E+03  0.00000000000E+00 0. -1.
         25    1    1    2    0    0 -0.11474867441E+03 -0.33920165519E+02  0.28338872918E+03  0.33204217764E+03  0.12500000000E+03 0.  0.
         25    1    1    2    0    0  0.11474867441E+03  0.33920165519E+02 -0.14740846244E+03  0.22731495927E+03  0.12500000000E+03 0.  0.
</event>
<event>
 4    0  0.2219362E-002  0.2366217E+03  0.7546771E-02  0.1122064E+00
         21   -1    0    0  502  501  0.00000000000E+00  0.00000000000E+00  0.52185701787E+03  0.52185701787E+03  0.00000000000E+00 0. -1.
         21   -1    0    0  501  502 -0.00000000000E+00 -0.00000000000E+00 -0.10728957589E+03  0.10728957589E+03  0.00000000000E+00 0. -1.
         25    1    1    2    0    0 -0.65788844407E+02  0.14278735155E+03  0.40979776885E+02  0.20498961419E+03  0.12500000000E+03 0.  0.
         25    1    1    2    0    0  0.65788844407E+02 -0.14278735155E+03  0.37358766509E+03  0.42415697958E+03  0.12500000000E+03 0.  0.
</event>
<event>
 4    0  0.2219362E-002  0.2191713E+03  0.7546771E-02  0.1134502E+00
         21   -1    0    0  502  501  0.00000000000E+00  0.00000000000E+00  0.91723941669E+02  0.91723941669E+02  0.00000000000E+00 0.  1.
         21   -1    0    0  501  502 -0.00000000000E+00 -0.00000000000E+00 -0.52370241310E+03  0.52370241310E+03  0.00000000000E+00 0.  1.
         25    1    1    2    0    0  0.12722817858E+03 -0.10343822046E+03 -0.32034390309E+03  0.38096153496E+03  0.12500000000E+03 0.  0.
         25    1    1    2    0    0 -0.12722817858E+03  0.10343822046E+03 -0.11163456834E+03  0.23446481980E+03  0.12500000000E+03 0.  0.
</event>
<event>
 4    0  0.2219362E-002  0.2674178E+03  0.7546771E-02  0.1102767E+00
         21   -1    0    0  502  501  0.00000000000E+00  0.00000000000E+00  0.35859133060E+03  0.35859133060E+03  0.00000000000E+00 0. -1.
         21   -1    0    0  501  502 -0.00000000000E+00 -0.00000000000E+00 -0.19942562182E+03  0.19942562182E+03  0.00000000000E+00 0. -1.
         25    1    1    2    0    0 -0.20381647702E+03  0.11482014523E+03  0.44009958912E+02  0.26886185773E+03  0.12500000000E+03 0.  0.
         25    1    1    2    0    0  0.20381647702E+03 -0.11482014523E+03  0.11515574987E+03  0.28915509469E+03  0.12500000000E+03 0.  0.
</event>
<event>
 4    0  0.2219362E-002  0.2924432E+03  0.7546771E-02  0.1089080E+00
         21   -1    0    0  502  501  0.00000000000E+00  0.00000000000E+00  0.43267464900E+03  0.43267464900E+03  0.00000000000E+00 0. -1.
         21   -1    0    0  501  502 -0.00000000000E+00 -0.00000000000E+00 -0.19766123455E+03  0.19766123455E+03  0.00000000000E+00 0. -1.
         25    1    1    2    0    0  0.24999714743E+03  0.45574889765E+02  0.19613027040E+03  0.34448182429E+03  0.12500000000E+03 0.  0.
         25    1    1    2    0    0 -0.24999714743E+03 -0.45574889765E+02  0.38883144057E+02  0.28585405925E+03  0.12500000000E+03 0.  0.
</event>
<event>
 4    0  0.2219362E-002  0.2387073E+03  0.7546771E-02  0.1120657E+00
         21   -1    0    0  502  501  0.00000000000E+00  0.00000000000E+00  0.11872785396E+03  0.11872785396E+03  0.00000000000E+00 0. -1.
         21   -1    0    0  501  502 -0.00000000000E+00 -0.00000000000E+00 -0.47993102077E+03  0.47993102077E+03  0.00000000000E+00 0. -1.
         25    1    1    2    0    0  0.70247192280E+01  0.37077393013E+02 -0.43118064970E+03  0.45051729426E+03  0.12500000000E+03 0.  0.
         25    1    1    2    0    0 -0.70247192280E+01 -0.37077393013E+02  0.69977482884E+02  0.14814158047E+03  0.12500000000E+03 0.  0.
</event>
<event>
 4    0  0.2219362E-002  0.1760450E+03  0.7546771E-02  0.1171687E+00
         21   -1    0    0  502  501  0.00000000000E+00  0.00000000000E+00  0.12846697912E+04  0.12846697912E+04  0.00000000000E+00 0.  1.
         21   -1    0    0  501  502 -0.00000000000E+00 -0.00000000000E+00 -0.24124372899E+02  0.24124372899E+02  0.00000000000E+00 0.  1.
         25    1    1    2    0    0 -0.11297986531E+03  0.46374036254E+02  0.55125660116E+03  0.57829390584E+03  0.12500000000E+03 0.  0.
         25    1    1    2    0    0  0.11297986531E+03 -0.46374036254E+02  0.70928881717E+03  0.73050025829E+03  0.12500000000E+03 0.  0.
</event>
<event>
 4    0  0.2219362E-002  0.2099349E+03  0.7546771E-02  0.1141618E+00
         21   -1    0    0  502  501  0.00000000000E+00  0.00000000000E+00  0.56963687955E+03  0.56963687955E+03  0.00000000000E+00 0.  1.
         21   -1    0    0  501  502 -0.00000000000E+00 -0.00000000000E+00 -0.77369733112E+02  0.77369733112E+02  0.00000000000E+00 0.  1.
         25    1    1    2    0    0  0.15413618842E+03  0.66499489442E+02  0.27133710653E+03  0.34267910946E+03  0.12500000000E+03 0.  0.
         25    1    1    2    0    0 -0.15413618842E+03 -0.66499489442E+02  0.22093003990E+03  0.30432750321E+03  0.12500000000E+03 0.  0.
</event>
<event>
 4    0  0.2219362E-002  0.1928631E+03  0.7546771E-02  0.1155904E+00
         21   -1    0    0  502  501  0.00000000000E+00  0.00000000000E+00  0.24260271096E+03  0.24260271096E+03  0.00000000000E+00 0.  1.
         21   -1    0    0  501  502 -0.00000000000E+00 -0.00000000000E+00 -0.15332128731E+03  0.15332128731E+03  0.00000000000E+00 0.  1.
         25    1    1    2    0    0 -0.43899067534E+01 -0.11911279551E+03 -0.43441978380E+02  0.17809922745E+03  0.12500000000E+03 0.  0.
         25    1    1    2    0    0  0.43899067534E+01  0.11911279551E+03  0.13272340204E+03  0.21782477082E+03  0.12500000000E+03 0.  0.
</event>
<event>
 4    0  0.2219362E-002  0.1841589E+03  0.7546771E-02  0.1163838E+00
         21   -1    0    0  502  501  0.00000000000E+00  0.00000000000E+00  0.16242347499E+03  0.16242347499E+03  0.00000000000E+00 0.  1.
         21   -1    0    0  501  502 -0.00000000000E+00 -0.00000000000E+00 -0.20880291857E+03  0.20880291857E+03  0.00000000000E+00 0.  1.
         25    1    1    2    0    0 -0.64063658808E+02  0.28251853013E+02  0.93426953729E+02  0.17104360632E+03  0.12500000000E+03 0.  0.
         25    1    1    2    0    0  0.64063658808E+02 -0.28251853013E+02 -0.13980639732E+03  0.20018278724E+03  0.12500000000E+03 0.  0.
</event>
<event>
 4    0  0.2219362E-002  0.2159961E+03  0.7546771E-02  0.1136904E+00
         21   -1    0    0  502  501  0.00000000000E+00  0.00000000000E+00  0.21840970705E+03  0.21840970705E+03  0.00000000000E+00 0. -1.
         21   -1    0    0  501  502 -0.00000000000E+00 -0.00000000000E+00 -0.21360916987E+03  0.21360916987E+03  0.00000000000E+00 0. -1.
         25    1    1    2    0    0  0.10698753905E+03  0.82620065504E+01 -0.13730346007E+03  0.21445706892E+03  0.12500000000E+03 0.  0.
         25    1    1    2    0    0 -0.10698753905E+03 -0.82620065504E+01  0.14210399725E+03  0.21756180800E+03  0.12500000000E+03 0.  0.
</event>
<event>
 4    0  0.2219362E-002  0.2581841E+03  0.7546771E-02  0.1108239E+00
         21   -1    0    0  502  501  0.00000000000E+00  0.00000000000E+00  0.59256392984E+02  0.59256392984E+02  0.00000000000E+00 0. -1.
         21   -1    0    0  501  502 -0.00000000000E+00 -0.00000000000E+00 -0.11249255767E+04  0.11249255767E+04  0.00000000000E+00 0. -1.
         25    1    1    2    0    0 -0.26113821337E+02  0.21295201826E+03 -0.69505203871E+03  0.73807372956E+03  0.12500000000E+03 0.  0.
         25    1    1    2    0    0  0.26113821337E+02 -0.21295201826E+03 -0.37061714505E+03  0.44610824017E+03  0.12500000000E+03 0.  0.
</event>
<event>
 4    0  0.2219362E-002  0.3195531E+03  0.7546771E-02  0.1075855E+00
         21   -1    0    0  502  501  0.00000000000E+00  0.00000000000E+00  0.16720848007E+03  0.16720848007E+03  0.00000000000E+00 0. -1.
         21   -1    0    0  501  502 -0.00000000000E+00 -0.00000000000E+00 -0.61069982744E+03  0.61069982744E+03  0.00000000000E+00 0. -1.
         25    1    1    2    0    0 -0.37959157018E+02 -0.11522466019E+03  0.10433990241E+03  0.20305032665E+03  0.12500000000E+03 0.  0.
         25    1    1    2    0    0  0.37959157018E+02  0.11522466019E+03 -0.54783124978E+03  0.57485798086E+03  0.12500000000E+03 0.  0.
</event>
<event>
 4    0  0.2219362E-002  0.1577582E+03  0.7546771E-02  0.1191251E+00
         21   -1    0    0  502  501  0.00000000000E+00  0.00000000000E+00  0.12284663751E+02  0.12284663751E+02  0.00000000000E+00 0. -1.
         21   -1    0    0  501  502 -0.00000000000E+00 -0.00000000000E+00 -0.20259134039E+04  0.20259134039E+04  0.00000000000E+00 0. -1.
         25    1    1    2    0    0  0.86744020725E+02  0.41670489218E+02 -0.10152621324E+04  0.10274449632E+04  0.12500000000E+03 0.  0.
         25    1    1    2    0    0 -0.86744020725E+02 -0.41670489218E+02 -0.99836660766E+03  0.10107531044E+04  0.12500000000E+03 0.  0.
</event>
<event>
 4    0  0.2219362E-002  0.1859882E+03  0.7546771E-02  0.1162130E+00
         21   -1    0    0  502  501  0.00000000000E+00  0.00000000000E+00  0.46098276991E+02  0.46098276991E+02  0.00000000000E+00 0. -1.
         21   -1    0    0  501  502 -0.00000000000E+00 -0.00000000000E+00 -0.75038836834E+03  0.75038836834E+03  0.00000000000E+00 0. -1.
         25    1    1    2    0    0  0.97323824563E+02 -0.75525057581E+02 -0.22031332034E+03  0.28167165329E+03  0.12500000000E+03 0.  0.
         25    1    1    2    0    0 -0.97323824563E+02  0.75525057581E+02 -0.48397677101E+03  0.51481499203E+03  0.12500000000E+03 0.  0.
</event>
<event>
 4    0  0.2219362E-002  0.1877101E+03  0.7546771E-02  0.1160543E+00
         21   -1    0    0  502  501  0.00000000000E+00  0.00000000000E+00  0.54544418213E+03  0.54544418213E+03  0.00000000000E+00 0.  1.
         21   -1    0    0  501  502 -0.00000000000E+00 -0.00000000000E+00 -0.64598907361E+02  0.64598907361E+02  0.00000000000E+00 0.  1.
         25    1    1    2    0    0 -0.87869668433E+02 -0.94029204134E+02  0.15071763770E+03  0.23431469475E+03  0.12500000000E+03 0.  0.
         25    1    1    2    0    0  0.87869668433E+02  0.94029204134E+02  0.33012763706E+03  0.37572839474E+03  0.12500000000E+03 0.  0.
</event>
<event>
 4    0  0.2219362E-002  0.1987761E+03  0.7546771E-02  0.1150776E+00
         21   -1    0    0  502  501  0.00000000000E+00  0.00000000000E+00  0.63954069476E+03  0.63954069476E+03  0.00000000000E+00 0. -1.
         21   -1    0    0  501  502 -0.00000000000E+00 -0.00000000000E+00 -0.61781765456E+02  0.61781765456E+02  0.00000000000E+00 0. -1.
         25    1    1    2    0    0 -0.31417770353E+02  0.52134824026E+02  0.53949261165E+03  0.55711973057E+03  0.12500000000E+03 0.  0.
         25    1    1    2    0    0  0.31417770353E+02 -0.52134824026E+02  0.38266317657E+02  0.14420272965E+03  0.12500000000E+03 0.  0.
</event>
<event>
 4    0  0.2219362E-002  0.2274043E+03  0.7546771E-02  0.1128480E+00
         21   -1    0    0  502  501  0.00000000000E+00  0.00000000000E+00  0.17004080172E+03  0.17004080172E+03  0.00000000000E+00 0.  1.
         21   -1    0    0  501  502 -0.00000000000E+00 -0.00000000000E+00 -0.30411950003E+03  0.30411950003E+03  0.00000000000E+00 0.  1.
         25    1    1    2    0    0 -0.21052985924E+02 -0.12649839978E+03  0.79076232383E+02  0.19576292777E+03  0.12500000000E+03 0.  0.
         25    1    1    2    0    0  0.21052985924E+02  0.12649839978E+03 -0.21315493069E+03  0.27839737398E+03  0.12500000000E+03 0.  0.
</event>
<event>
 4    0  0.2219362E-002  0.2125553E+03  0.7546771E-02  0.1139558E+00
         21   -1    0    0  502  501  0.00000000000E+00  0.00000000000E+00  0.14921827968E+03  0.14921827968E+03  0.00000000000E+00 0. -1.
         21   -1    0    0  501  502 -0.00000000000E+00 -0.00000000000E+00 -0.30277621583E+03  0.30277621583E+03  0.00000000000E+00 0. -1.
         25    1    1    2    0    0 -0.20063435916E+02  0.69195493585E+02 -0.24274042198E+03  0.28238001037E+03  0.12500000000E+03 0.  0.
         25    1    1    2    0    0  0.20063435916E+02 -0.69195493585E+02  0.89182485831E+02  0.16961448515E+03  0.12500000000E+03 0.  0.
</event>
<event>
 4    0  0.2219362E-002  0.2688098E+03  0.7546771E-02  0.1101963E+00
         21   -1    0    0  502  501  0.00000000000E+00  0.00000000000E+00  0.11201879646E+04  0.11201879646E+04  0.00000000000E+00 0.  1.
         21   -1    0    0  501  502 -0.00000000000E+00 -0.00000000000E+00 -0.64505855518E+02  0.64505855518E+02  0.00000000000E+00 0.  1.
         25    1    1    2    0    0  0.20259455848E+03 -0.19466964639E+02  0.25607320908E+03  0.35017425126E+03  0.12500000000E+03 0.  0.
         25    1    1    2    0    0 -0.20259455848E+03  0.19466964639E+02  0.79960889996E+03  0.83451956881E+03  0.12500000000E+03 0.  0.
</event>
<event>
 4    0  0.2219362E-002  0.1920161E+03  0.7546771E-02  0.1156655E+00
         21   -1    0    0  502  501  0.00000000000E+00  0.00000000000E+00  0.19182825611E+02  0.19182825611E+02  0.00000000000E+00 0. -1.
         21   -1    0    0  501  502 -0.00000000000E+00 -0.00000000000E+00 -0.19220414838E+04  0.19220414838E+04  0.00000000000E+00 0. -1.
         25    1    1    2    0    0 -0.54854122081E+02 -0.12686680393E+03 -0.11853232980E+04  0.11998835283E+04  0.12500000000E+03 0.  0.
         25    1    1    2    0    0  0.54854122081E+02  0.12686680393E+03 -0.71753536016E+03  0.74134078110E+03  0.12500000000E+03 0.  0.
</event>
<event>
 4    0  0.2219362E-002  0.1853487E+03  0.7546771E-02  0.1162725E+00
         21   -1    0    0  502  501  0.00000000000E+00  0.00000000000E+00  0.12239431830E+03  0.12239431830E+03  0.00000000000E+00 0. -1.
         21   -1    0    0  501  502 -0.00000000000E+00 -0.00000000000E+00 -0.28068417171E+03  0.28068417171E+03  0.00000000000E+00 0. -1.
         25    1    1    2    0    0 -0.27466320891E+02 -0.18210011422E+02 -0.22357513357E+03  0.25825732061E+03  0.12500000000E+03 0.  0.
         25    1    1    2    0    0  0.27466320891E+02  0.18210011422E+02  0.65285280167E+02  0.14482116940E+03  0.12500000000E+03 0.  0.
</event>
<event>
 4    0  0.2219362E-002  0.2613129E+03  0.7546771E-02  0.1106357E+00
         21   -1    0    0  502  501  0.00000000000E+00  0.00000000000E+00  0.23906041576E+03  0.23906041576E+03  0.00000000000E+00 0. -1.
         21   -1    0    0  501  502 -0.00000000000E+00 -0.00000000000E+00 -0.28563663076E+03  0.28563663076E+03  0.00000000000E+00 0. -1.
         25    1    1    2    0    0  0.98510709480E+02  0.64820753602E+01 -0.23126373861E+03  0.28081006745E+03  0.12500000000E+03 0.  0.
         25    1    1    2    0    0 -0.98510709480E+02 -0.64820753602E+01  0.18468752361E+03  0.24388697907E+03  0.12500000000E+03 0.  0.
</event>
<event>
 4    0  0.2219362E-002  0.2331217E+03  0.7546771E-02  0.1124462E+00
         21   -1    0    0  502  501  0.00000000000E+00  0.00000000000E+00  0.48515220025E+03  0.48515220025E+03  0.00000000000E+00 0. -1.
         21   -1    0    0  501  502 -0.00000000000E+00 -0.00000000000E+00 -0.11201787834E+03  0.11201787834E+03  0.00000000000E+00 0. -1.
         25    1    1    2    0    0 -0.11840795495E+03 -0.86888913582E+02  0.35430264273E+03  0.40339247606E+03  0.12500000000E+03 0.  0.
         25    1    1    2    0    0  0.11840795495E+03  0.86888913582E+02  0.18831679176E+02  0.19377760252E+03  0.12500000000E+03 0.  0.
</event>
<event>
 4    0  0.2219362E-002  0.3755327E+03  0.7546771E-02  0.1052597E+00
         21   -1    0    0  502  501  0.00000000000E+00  0.00000000000E+00  0.42034519150E+03  0.42034519150E+03  0.00000000000E+00 0. -1.
         21   -1    0    0  501  502 -0.00000000000E+00 -0.00000000000E+00 -0.33549763682E+03  0.33549763682E+03  0.00000000000E+00 0. -1.
         25    1    1    2    0    0  0.97169114442E+01  0.17890509821E+03 -0.26496693758E+03  0.34341509947E+03  0.12500000000E+03 0.  0.
         25    1    1    2    0    0 -0.97169114442E+01 -0.17890509821E+03  0.34981449226E+03  0.41242772886E+03  0.12500000000E+03 0.  0.
</event>
<event>
 4    0  0.2219362E-002  0.2808552E+03  0.7546771E-02  0.1095223E+00
         21   -1    0    0  502  501  0.00000000000E+00  0.00000000000E+00  0.20699078120E+03  0.20699078120E+03  0.00000000000E+00 0. -1.
         21   -1    0    0  501  502 -0.00000000000E+00 -0.00000000000E+00 -0.38107795317E+03  0.38107795317E+03  0.00000000000E+00 0. -1.
         25    1    1    2    0    0  0.22523436346E+03 -0.10532511992E+03 -0.47443731479E+02  0.28231154249E+03  0.12500000000E+03 0.  0.
         25    1    1    2    0    0 -0.22523436346E+03  0.10532511992E+03 -0.12664344049E+03  0.30575719188E+03  0.12500000000E+03 0.  0.
</event>
<event>
 4    0  0.2219362E-002  0.2007451E+03  0.7546771E-02  0.1149112E+00
         21   -1    0    0  502  501  0.00000000000E+00  0.00000000000E+00  0.23001972442E+04  0.23001972442E+04  0.00000000000E+00 0.  1.
         21   -1    0    0  501  502 -0.00000000000E+00 -0.00000000000E+00 -0.17519617939E+02  0.17519617939E+02  0.00000000000E+00 0.  1.
         25    1    1    2    0    0 -0.12285620742E+03 -0.48815847475E+02  0.16310720037E+04  0.16411878369E+04  0.12500000000E+03 0.  0.
         25    1    1    2    0    0  0.12285620742E+03  0.48815847475E+02  0.65160562258E+03  0.67652902528E+03  0.12500000000E+03 0.  0.
</event>
<event>
 4    0  0.2219362E-002  0.2890778E+03  0.7546771E-02  0.1090832E+00
         21   -1    0    0  502  501  0.00000000000E+00  0.00000000000E+00  0.10791222464E+03  0.10791222464E+03  0.00000000000E+00 0.  1.
         21   -1    0    0  501  502 -0.00000000000E+00 -0.00000000000E+00 -0.77438858997E+03  0.77438858997E+03  0.00000000000E+00 0.  1.
         25    1    1    2    0    0 -0.16902485239E+03 -0.13975332155E+03 -0.54819406395E+03  0.60352474959E+03  0.12500000000E+03 0.  0.
         25    1    1    2    0    0  0.16902485239E+03  0.13975332155E+03 -0.11828230138E+03  0.27877606503E+03  0.12500000000E+03 0.  0.
</event>
<event>
 4    0  0.2219362E-002  0.1828855E+03  0.7546771E-02  0.1165039E+00
         21   -1    0    0  502  501  0.00000000000E+00  0.00000000000E+00  0.84638151063E+02  0.84638151063E+02  0.00000000000E+00 0. -1.
         21   -1    0    0  501  502 -0.00000000000E+00 -0.00000000000E+00 -0.39517786443E+03  0.39517786443E+03  0.00000000000E+00 0. -1.
         25    1    1    2    0    0 -0.13088945756E+03  0.17567197264E+02 -0.12964897953E+03  0.22332602717E+03  0.12500000000E+03 0.  0.
         25    1    1    2    0    0  0.13088945756E+03 -0.17567197264E+02 -0.18089073383E+03  0.25648998831E+03  0.12500000000E+03 0.  0.
</event>
<event>
 4    0  0.2219362E-002  0.3076962E+03  0.7546771E-02  0.1081455E+00
         21   -1    0    0  502  501  0.00000000000E+00  0.00000000000E+00  0.28819507125E+03  0.28819507125E+03  0.00000000000E+00 0. -1.
         21   -1    0    0  501  502 -0.00000000000E+00 -0.00000000000E+00 -0.32851680395E+03  0.32851680395E+03  0.00000000000E+00 0. -1.
         25    1    1    2    0    0 -0.95746882979E+02 -0.56812130516E+02  0.23857259991E+03  0.29143947777E+03  0.12500000000E+03 0.  0.
         25    1    1    2    0    0  0.95746882979E+02  0.56812130516E+02 -0.27889433260E+03  0.32527239743E+03  0.12500000000E+03 0.  0.
</event>
<event>
 4    0  0.2219362E-002  0.2510515E+03  0.7546771E-02  0.1112642E+00
         21   -1    0    0  502  501  0.00000000000E+00  0.00000000000E+00  0.57625128270E+02  0.57625128270E+02  0.00000000000E+00 0.  1.
         21   -1    0    0  501  502 -0.00000000000E+00 -0.00000000000E+00 -0.10937390486E+04  0.10937390486E+04  0.00000000000E+00 0.  1.
         25    1    1    2    0    0 -0.75358420129E+02 -0.17783540719E+03 -0.28763308837E+03  0.36832338652E+03  0.12500000000E+03 0.  0.
         25    1    1    2    0    0  0.75358420129E+02  0.17783540719E+03 -0.74848083200E+03  0.78304079039E+03  0.12500000000E+03 0.  0.
</event>
<event>
 4    0  0.2219362E-002  0.3957624E+03  0.7546771E-02  0.1045257E+00
         21   -1    0    0  502  501  0.00000000000E+00  0.00000000000E+00  0.72667145528E+03  0.72667145528E+03  0.00000000000E+00 0. -1.
         21   -1    0    0  501  502 -0.00000000000E+00 -0.00000000000E+00 -0.21554154919E+03  0.21554154919E+03  0.00000000000E+00 0. -1.
         25    1    1    2    0    0  0.33096774957E+03 -0.16563738132E+03  0.33110934122E+03  0.51208767725E+03  0.12500000000E+03 0.  0.
         25    1    1    2    0    0 -0.33096774957E+03  0.16563738132E+03  0.18002056486E+03  0.43012532722E+03  0.12500000000E+03 0.  0.
</event>
<event>
 4    0  0.2219362E-002  0.2967572E+03  0.7546771E-02  0.1086873E+00
         21   -1    0    0  502  501  0.00000000000E+00  0.00000000000E+00  0.17001346315E+03  0.17001346315E+03  0.00000000000E+00 0.  1.
         21   -1    0    0  501  502 -0.00000000000E+00 -0.00000000000E+00 -0.51798730513E+03  0.51798730513E+03  0.00000000000E+00 0.  1.
         25    1    1    2    0    0 -0.24922949102E+03 -0.97116497931E+02 -0.20862469246E+03  0.36151931576E+03  0.12500000000E+03 0.  0.
         25    1    1    2    0    0  0.24922949102E+03  0.97116497931E+02 -0.13934914953E+03  0.32648145252E+03  0.12500000000E+03 0.  0.
</event>
<event>
 4    0  0.2219362E-002  0.2168207E+03  0.7546771E-02  0.1136276E+00
         21   -1    0    0  502  501  0.00000000000E+00  0.00000000000E+00  0.14190631707E+03  0.14190631707E+03  0.00000000000E+00 0. -1.
         21   -1    0    0  501  502 -0.00000000000E+00 -0.00000000000E+00 -0.33128357593E+03  0.33128357593E+03  0.00000000000E+00 0. -1.
         25    1    1    2    0    0  0.53727279479E+02 -0.15287405577E+03 -0.16539040429E+02  0.20531838044E+03  0.12500000000E+03 0.  0.
         25    1    1    2    0    0 -0.53727279479E+02  0.15287405577E+03 -0.17283821843E+03  0.26787151256E+03  0.12500000000E+03 0.  0.
</event>
<event>
 4    0  0.2219362E-002  0.3241407E+03  0.7546771E-02  0.1073759E+00
         21   -1    0    0  502  501  0.00000000000E+00  0.00000000000E+00  0.14926328070E+04  0.14926328070E+04  0.00000000000E+00 0.  1.
         21   -1    0    0  501  502 -0.00000000000E+00 -0.00000000000E+00 -0.70390532752E+02  0.70390532752E+02  0.00000000000E+00 0. -1.
         25    1    1    2    0    0  0.21266739497E+03 -0.20884142444E+03  0.77018177279E+03  0.83525273097E+03  0.12500000000E+03 0.  0.
         25    1    1    2    0    0 -0.21266739497E+03  0.20884142444E+03  0.65206050141E+03  0.72777060874E+03  0.12500000000E+03 0.  0.
</event>
<event>
 4    0  0.2219362E-002  0.1690535E+03  0.7546771E-02  0.1178839E+00
         21   -1    0    0  502  501  0.00000000000E+00  0.00000000000E+00  0.49795000068E+03  0.49795000068E+03  0.00000000000E+00 0.  1.
         21   -1    0    0  501  502 -0.00000000000E+00 -0.00000000000E+00 -0.57393453160E+02  0.57393453160E+02  0.00000000000E+00 0.  1.
         25    1    1    2    0    0 -0.44267863220E+02 -0.92045697482E+01  0.48719053667E+02  0.14157299887E+03  0.12500000000E+03 0.  0.
         25    1    1    2    0    0  0.44267863220E+02  0.92045697482E+01  0.39183749385E+03  0.41377045497E+03  0.12500000000E+03 0.  0.
</event>
<event>
 4    0  0.2219362E-002  0.1709003E+03  0.7546771E-02  0.1176912E+00
         21   -1    0    0  502  501  0.00000000000E+00  0.00000000000E+00  0.27938190149E+03  0.27938190149E+03  0.00000000000E+00 0.  1.
         21   -1    0    0  501  502 -0.00000000000E+00 -0.00000000000E+00 -0.10454115784E+03  0.10454115784E+03  0.00000000000E+00 0.  1.
         25    1    1    2    0    0 -0.48858292630E+02  0.10543735953E+03  0.97323852722E+02  0.19647163116E+03  0.12500000000E+03 0.  0.
         25    1    1    2    0    0  0.48858292630E+02 -0.10543735953E+03  0.77516890927E+02  0.18745142817E+03  0.12500000000E+03 0.  0.
</event>
<event>
 4    0  0.2219362E-002  0.3283878E+03  0.7546771E-02  0.1071852E+00
         21   -1    0    0  502  501  0.00000000000E+00  0.00000000000E+00  0.79752569582E+02  0.79752569582E+02  0.00000000000E+00 0. -1.
         21   -1    0    0  501  502 -0.00000000000E+00 -0.00000000000E+00 -0.13521639904E+04  0.13521639904E+04  0.00000000000E+00 0. -1.
         25    1    1    2    0    0  0.60370758781E+02  0.17118600656E+03 -0.11669644817E+04  0.11875943663E+04  0.12500000000E+03 0.  0.
         25    1    1    2    0    0 -0.60370758781E+02 -0.17118600656E+03 -0.10544693916E+03  0.24432219370E+03  0.12500000000E+03 0.  0.
</event>
<event>
 4    0  0.2219362E-002  0.1760246E+03  0.7546771E-02  0.1171707E+00
         21   -1    0    0  502  501  0.00000000000E+00  0.00000000000E+00  0.72106279561E+02  0.72106279561E+02  0.00000000000E+00 0.  1.
         21   -1    0    0  501  502 -0.00000000000E+00 -0.00000000000E+00 -0.42970805721E+03  0.42970805721E+03  0.00000000000E+00 0.  1.
         25    1    1    2    0    0  0.54126616377E+02  0.73371107929E+02 -0.59145904231E+02  0.16563890867E+03  0.12500000000E+03 0.  0.
         25    1    1    2    0    0 -0.54126616377E+02 -0.73371107929E+02 -0.29845587342E+03  0.33617542810E+03  0.12500000000E+03 0.  0.
</event>
<event>
 4    0  0.2219362E-002  0.2359796E+03  0.7546771E-02  0.1122500E+00
         21   -1    0    0  502  501  0.00000000000E+00  0.00000000000E+00  0.81063800984E+03  0.81063800984E+03  0.00000000000E+00 0.  1.
         21   -1    0    0  501  502 -0.00000000000E+00 -0.00000000000E+00 -0.68694507648E+02  0.68694507648E+02  0.00000000000E+00 0.  1.
         25    1    1    2    0    0  0.15031728300E+03 -0.12534412318E+03  0.44902308012E+03  0.50552266148E+03  0.12500000000E+03 0.  0.
         25    1    1    2    0    0 -0.15031728300E+03  0.12534412318E+03  0.29292042208E+03  0.37380985601E+03  0.12500000000E+03 0.  0.
</event>
<event>
 4    0  0.2219362E-002  0.3389164E+03  0.7546771E-02  0.1067258E+00
         21   -1    0    0  502  501  0.00000000000E+00  0.00000000000E+00  0.50711750538E+02  0.50711750538E+02  0.00000000000E+00 0.  1.
         21   -1    0    0  501  502 -0.00000000000E+00 -0.00000000000E+00 -0.22650429370E+04  0.22650429370E+04  0.00000000000E+00 0.  1.
         25    1    1    2    0    0  0.85334682788E+02  0.43432349148E+02 -0.21324924274E+04  0.21382977645E+04  0.12500000000E+03 0.  0.
         25    1    1    2    0    0 -0.85334682788E+02 -0.43432349148E+02 -0.81838759136E+02  0.17745692304E+03  0.12500000000E+03 0.  0.
</event>
<event>
 4    0  0.2219362E-002  0.2061350E+03  0.7546771E-02  0.1144664E+00
         21   -1    0    0  502  501  0.00000000000E+00  0.00000000000E+00  0.56681248930E+03  0.56681248930E+03  0.00000000000E+00 0. -1.
         21   -1    0    0  501  502 -0.00000000000E+00 -0.00000000000E+00 -0.74965973722E+02  0.74965973722E+02  0.00000000000E+00 0. -1.
         25    1    1    2    0    0 -0.11407921580E+03  0.52396380360E+02  0.40998438081E+03  0.44662248115E+03  0.12500000000E+03 0.  0.
         25    1    1    2    0    0  0.11407921580E+03 -0.52396380360E+02  0.81862134759E+02  0.19515598187E+03  0.12500000000E+03 0.  0.
</event>
<event>
 4    0  0.2219362E-002  0.2396395E+03  0.7546771E-02  0.1120033E+00
         21   -1    0    0  502  501  0.00000000000E+00  0.00000000000E+00  0.26692458981E+04  0.26692458981E+04  0.00000000000E+00 0.  1.
         21   -1    0    0  501  502 -0.00000000000E+00 -0.00000000000E+00 -0.21514356767E+02  0.21514356767E+02  0.00000000000E+00 0.  1.
         25    1    1    2    0    0 -0.12939579017E+03 -0.15548002840E+03  0.11568687213E+04  0.11810535754E+04  0.12500000000E+03 0.  0.
         25    1    1    2    0    0  0.12939579017E+03  0.15548002840E+03  0.14908628201E+04  0.15097066795E+04  0.12500000000E+03 0.  0.
</event>
<event>
 4    0  0.2219362E-002  0.2642152E+03  0.7546771E-02  0.1104637E+00
         21   -1    0    0  502  501  0.00000000000E+00  0.00000000000E+00  0.43228268793E+03  0.43228268793E+03  0.00000000000E+00 0. -1.
         21   -1    0    0  501  502 -0.00000000000E+00 -0.00000000000E+00 -0.16149083672E+03  0.16149083672E+03  0.00000000000E+00 0. -1.
         25    1    1    2    0    0  0.67251204718E+02 -0.84499745278E+02 -0.96310775025E+02  0.19121636142E+03  0.12500000000E+03 0.  0.
         25    1    1    2    0    0 -0.67251204718E+02  0.84499745278E+02  0.36710262623E+03  0.40255716324E+03  0.12500000000E+03 0.  0.
</event>
<event>
 4    0  0.2219362E-002  0.1763637E+03  0.7546771E-02  0.1171369E+00
         21   -1    0    0  502  501  0.00000000000E+00  0.00000000000E+00  0.49320444038E+03  0.49320444038E+03  0.00000000000E+00 0. -1.
         21   -1    0    0  501  502 -0.00000000000E+00 -0.00000000000E+00 -0.63065459519E+02  0.63065459519E+02  0.00000000000E+00 0. -1.
         25    1    1    2    0    0  0.86004672017E+02  0.85153394754E+02  0.26053843207E+03  0.31329407724E+03  0.12500000000E+03 0.  0.
         25    1    1    2    0    0 -0.86004672017E+02 -0.85153394754E+02  0.16960054878E+03  0.24297582266E+03  0.12500000000E+03 0.  0.
</event>
<event>
 4    0  0.2219362E-002  0.2257759E+03  0.7546771E-02  0.1129649E+00
         21   -1    0    0  502  501  0.00000000000E+00  0.00000000000E+00  0.78844091786E+02  0.78844091786E+02  0.00000000000E+00 0.  1.
         21   -1    0    0  501  502 -0.00000000000E+00 -0.00000000000E+00 -0.64652618706E+03  0.64652618706E+03  0.00000000000E+00 0.  1.
         25    1    1    2    0    0  0.14291982055E+02 -0.14367402950E+02  0.16426156280E+02  0.12769299757E+03  0.12500000000E+03 0.  0.
         25    1    1    2    0    0 -0.14291982055E+02  0.14367402950E+02 -0.58410825155E+03  0.59767728127E+03  0.12500000000E+03 0.  0.
</event>
<event>
 4    0  0.2219362E-002  0.3121108E+03  0.7546771E-02  0.1079339E+00
         21   -1    0    0  502  501  0.00000000000E+00  0.00000000000E+00  0.36228142439E+03  0.36228142439E+03  0.00000000000E+00 0. -1.
         21   -1    0    0  501  502 -0.00000000000E+00 -0.00000000000E+00 -0.26888804089E+03  0.26888804089E+03  0.00000000000E+00 0. -1.
         25    1    1    2    0    0  0.66480643689E+02  0.22793098038E+03 -0.11450153148E+03  0.29173242623E+03  0.12500000000E+03 0.  0.
         25    1    1    2    0    0 -0.66480643689E+02 -0.22793098038E+03  0.20789491498E+03  0.33943703905E+03  0.12500000000E+03 0.  0.
</event>
<event>
 4    0  0.2219362E-002  0.2098566E+03  0.7546771E-02  0.1141680E+00
         21   -1    0    0  502  501  0.00000000000E+00  0.00000000000E+00  0.12647059477E+03  0.12647059477E+03  0.00000000000E+00 0. -1.
         21   -1    0    0  501  502 -0.00000000000E+00 -0.00000000000E+00 -0.34822159276E+03  0.34822159276E+03  0.00000000000E+00 0. -1.
         25    1    1    2    0    0  0.43844418302E+02 -0.12720460795E+03  0.39713961759E+01  0.18369571930E+03  0.12500000000E+03 0.  0.
         25    1    1    2    0    0 -0.43844418302E+02  0.12720460795E+03 -0.22572239417E+03  0.29099646824E+03  0.12500000000E+03 0.  0.
</event>
<event>
 4    0  0.2219362E-002  0.4816100E+03  0.7546771E-02  0.1018694E+00
         21   -1    0    0  502  501  0.00000000000E+00  0.00000000000E+00  0.17035555308E+03  0.17035555308E+03  0.00000000000E+00 0. -1.
         21   -1    0    0  501  502 -0.00000000000E+00 -0.00000000000E+00 -0.13615532979E+04  0.13615532979E+04  0.00000000000E+00 0. -1.
         25    1    1    2    0    0  0.41010207580E+02  0.35660483952E+03 -0.10659776701E+04  0.11317165025E+04  0.12500000000E+03 0.  0.
         25    1    1    2    0    0 -0.41010207580E+02 -0.35660483952E+03 -0.12522007465E+03  0.40019234849E+03  0.12500000000E+03 0.  0.
</event>
<event>
 4    0  0.2219362E-002  0.1467864E+03  0.7546771E-02  0.1204478E+00
         21   -1    0    0  502  501  0.00000000000E+00  0.00000000000E+00  0.66132206379E+03  0.66132206379E+03  0.00000000000E+00 0. -1.
         21   -1    0    0  501  502 -0.00000000000E+00 -0.00000000000E+00 -0.32580576446E+02  0.32580576446E+02  0.00000000000E+00 0. -1.
         25    1    1    2    0    0  0.30671677092E+02  0.70397140275E+02  0.30261295409E+03  0.33629764958E+03  0.12500000000E+03 0.  0.
         25    1    1    2    0    0 -0.30671677092E+02 -0.70397140275E+02  0.32612853326E+03  0.35760499065E+03  0.12500000000E+03 0.  0.
</event>
<event>
 4    0  0.2219362E-002  0.2292287E+03  0.7546771E-02  0.1127184E+00
         21   -1    0    0  502  501  0.00000000000E+00  0.00000000000E+00  0.65985764427E+03  0.65985764427E+03  0.00000000000E+00 0. -1.
         21   -1    0    0  501  502 -0.00000000000E+00 -0.00000000000E+00 -0.79632029067E+02  0.79632029067E+02  0.00000000000E+00 0. -1.
         25    1    1    2    0    0 -0.11171871877E+03  0.15518216334E+03  0.25958382304E+03  0.34579088641E+03  0.12500000000E+03 0.  0.
         25    1    1    2    0    0  0.11171871877E+03 -0.15518216334E+03  0.32064179217E+03  0.39369878693E+03  0.12500000000E+03 0.  0.
</event>
<event>
 4    0  0.2219362E-002  0.2225847E+03  0.7546771E-02  0.1131971E+00
         21   -1    0    0  502  501  0.00000000000E+00  0.00000000000E+00  0.48624842697E+03  0.48624842697E+03  0.00000000000E+00 0.  1.
         21   -1    0    0  501  502 -0.00000000000E+00 -0.00000000000E+00 -0.10189020849E+03  0.10189020849E+03  0.00000000000E+00 0.  1.
         25    1    1    2    0    0 -0.28324668980E+02 -0.17597125529E+03  0.13090841709E+03  0.25402791820E+03  0.12500000000E+03 0.  0.
         25    1    1    2    0    0  0.28324668980E+02  0.17597125529E+03  0.25344980139E+03  0.33411071726E+03  0.12500000000E+03 0.  0.
</event>
<event>
 4    0  0.2219362E-002  0.2454803E+03  0.7546771E-02  0.1116195E+00
         21   -1    0    0  502  501  0.00000000000E+00  0.00000000000E+00  0.39158373865E+03  0.39158373865E+03  0.00000000000E+00 0. -1.
         21   -1    0    0  501  502 -0.00000000000E+00 -0.00000000000E+00 -0.15388940402E+03  0.15388940402E+03  0.00000000000E+00 0. -1.
         25    1    1    2    0    0 -0.13194570483E+03 -0.14645473289E+03  0.34401910774E+02  0.23593886767E+03  0.12500000000E+03 0.  0.
         25    1    1    2    0    0  0.13194570483E+03  0.14645473289E+03  0.20329242386E+03  0.30953427501E+03  0.12500000000E+03 0.  0.
</event>
<event>
 4    0  0.2219362E-002  0.1935432E+03  0.7546771E-02  0.1155304E+00
         21   -1    0    0  502  501  0.00000000000E+00  0.00000000000E+00  0.77697180807E+02  0.77697180807E+02  0.00000000000E+00 0. -1.
         21   -1    0    0  501  502 -0.00000000000E+00 -0.00000000000E+00 -0.48211471340E+03  0.48211471340E+03  0.00000000000E+00 0. -1.
         25    1    1    2    0    0  0.74868329427E+02  0.95391580599E+02 -0.32431917393E+03  0.36812056039E+03  0.12500000000E+03 0.  0.
         25    1    1    2    0    0 -0.74868329427E+02 -0.95391580599E+02 -0.80098358659E+02  0.19169133382E+03  0.12500000000E+03 0.  0.
</event>
<event>
 4    0  0.2219362E-002  0.2672834E+03  0.7546771E-02  0.1102845E+00
         21   -1    0    0  502  501  0.00000000000E+00  0.00000000000E+00  0.11159580166E+04  0.11159580166E+04  0.00000000000E+00 0.  1.
         21   -1    0    0  501  502 -0.00000000000E+00 -0.00000000000E+00 -0.64017110243E+02  0.64017110243E+02  0.00000000000E+00 0.  1.
         25    1    1    2    0    0  0.27540288600E+02  0.21243954916E+03  0.30604965817E+03  0.39392946425E+03  0.12500000000E+03 0.  0.
         25    1    1    2    0    0 -0.27540288600E+02 -0.21243954916E+03  0.74589124816E+03  0.78604566256E+03  0.12500000000E+03 0.  0.
</event>
<event>
 4    0  0.2219362E-002  0.2572058E+03  0.7546771E-02  0.1108834E+00
         21   -1    0    0  502  501  0.00000000000E+00  0.00000000000E+00  0.42588586132E+03  0.42588586132E+03  0.00000000000E+00 0.  1.
         21   -1    0    0  501  502 -0.00000000000E+00 -0.00000000000E+00 -0.15533460974E+03  0.15533460974E+03  0.00000000000E+00 0.  1.
         25    1    1    2    0    0 -0.56476821870E+02 -0.50898769427E+02 -0.10373888237E+03  0.17935181029E+03  0.12500000000E+03 0.  0.
         25    1    1    2    0    0  0.56476821870E+02  0.50898769427E+02  0.37429013395E+03  0.40186866077E+03  0.12500000000E+03 0.  0.
</event>
<event>
 4    0  0.2219362E-002  0.1912605E+03  0.7546771E-02  0.1157329E+00
         21   -1    0    0  502  501  0.00000000000E+00  0.00000000000E+00  0.97228250285E+02  0.97228250285E+02  0.00000000000E+00 0.  1.
         21   -1    0    0  501  502 -0.00000000000E+00 -0.00000000000E+00 -0.37623412144E+03  0.37623412144E+03  0.00000000000E+00 0.  1.
         25    1    1    2    0    0 -0.19379059479E+02 -0.58640525272E+02  0.22548304197E+02  0.14123627428E+03  0.12500000000E+03 0.  0.
         25    1    1    2    0    0  0.19379059479E+02  0.58640525272E+02 -0.30155417535E+03  0.33222609744E+03  0.12500000000E+03 0.  0.
</event>
<event>
 4    0  0.2219362E-002  0.2720085E+03  0.7546771E-02  0.1100136E+00
         21   -1    0    0  502  501  0.00000000000E+00  0.00000000000E+00  0.49955604657E+03  0.49955604657E+03  0.00000000000E+00 0. -1.
         21   -1    0    0  501  502 -0.00000000000E+00 -0.00000000000E+00 -0.14810874605E+03  0.14810874605E+03  0.00000000000E+00 0. -1.
         25    1    1    2    0    0 -0.17794025359E+03  0.14310205534E+01 -0.18805195951E+02  0.21827372050E+03  0.12500000000E+03 0.  0.
         25    1    1    2    0    0  0.17794025359E+03 -0.14310205534E+01  0.37025249647E+03  0.42939107212E+03  0.12500000000E+03 0.  0.
</event>
<event>
 4    0  0.2219362E-002  0.2083492E+03  0.7546771E-02  0.1142880E+00
         21   -1    0    0  502  501  0.00000000000E+00  0.00000000000E+00  0.74067359351E+02  0.74067359351E+02  0.00000000000E+00 0. -1.
         21   -1    0    0  501  502 -0.00000000000E+00 -0.00000000000E+00 -0.58607965310E+03  0.58607965310E+03  0.00000000000E+00 0. -1.
         25    1    1    2    0    0  0.46766878282E+02  0.14990751623E+03 -0.16744531297E+03  0.26138541880E+03  0.12500000000E+03 0.  0.
         25    1    1    2    0    0 -0.46766878282E+02 -0.14990751623E+03 -0.34456698078E+03  0.39876159365E+03  0.12500000000E+03 0.  0.
</event>
<event>
 4    0  0.2219362E-002  0.2101956E+03  0.7546771E-02  0.1141411E+00
         21   -1    0    0  502  501  0.00000000000E+00  0.00000000000E+00  0.41719093053E+03  0.41719093053E+03  0.00000000000E+00 0. -1.
         21   -1    0    0  501  502 -0.00000000000E+00 -0.00000000000E+00 -0.10590397358E+03  0.10590397358E+03  0.00000000000E+00 0. -1.
         25    1    1    2    0    0  0.96817869049E+02  0.18051141850E+02 -0.15228377021E+02  0.15986383880E+03  0.12500000000E+03 0.  0.
         25    1    1    2    0    0 -0.96817869049E+02 -0.18051141850E+02  0.32651533397E+03  0.36323106531E+03  0.12500000000E+03 0.  0.
</event>
<event>
 4    0  0.2219362E-002  0.2734516E+03  0.7546771E-02  0.1099320E+00
         21   -1    0    0  502  501  0.00000000000E+00  0.00000000000E+00  0.31196799094E+03  0.31196799094E+03  0.00000000000E+00 0. -1.
         21   -1    0    0  501  502 -0.00000000000E+00 -0.00000000000E+00 -0.23969060708E+03  0.23969060708E+03  0.00000000000E+00 0. -1.
         25    1    1    2    0    0 -0.43993411092E+01 -0.14502897878E+03  0.23302303311E+03  0.30162475503E+03  0.12500000000E+03 0.  0.
         25    1    1    2    0    0  0.43993411092E+01  0.14502897878E+03 -0.16074564924E+03  0.25003384299E+03  0.12500000000E+03 0.  0.
</event>
<event>
 4    0  0.2219362E-002  0.4683370E+03  0.7546771E-02  0.1022391E+00
         21   -1    0    0  502  501  0.00000000000E+00  0.00000000000E+00  0.37203872372E+03  0.37203872372E+03  0.00000000000E+00 0. -1.
         21   -1    0    0  501  502 -0.00000000000E+00 -0.00000000000E+00 -0.58956115943E+03  0.58956115943E+03  0.00000000000E+00 0. -1.
         25    1    1    2    0    0  0.43106465302E+03  0.11053101430E+03 -0.31384839276E+02  0.46329671739E+03  0.12500000000E+03 0.  0.
         25    1    1    2    0    0 -0.43106465302E+03 -0.11053101430E+03 -0.18613759644E+03  0.49830316577E+03  0.12500000000E+03 0.  0.
</event>
<event>
 4    0  0.2219362E-002  0.2170390E+03  0.7546771E-02  0.1136110E+00
         21   -1    0    0  502  501  0.00000000000E+00  0.00000000000E+00  0.54286441958E+03  0.54286441958E+03  0.00000000000E+00 0.  1.
         21   -1    0    0  501  502 -0.00000000000E+00 -0.00000000000E+00 -0.86772893099E+02  0.86772893099E+02  0.00000000000E+00 0.  1.
         25    1    1    2    0    0 -0.14211122955E+03 -0.10479560988E+03  0.20278865472E+03  0.29652311866E+03  0.12500000000E+03 0.  0.
         25    1    1    2    0    0  0.14211122955E+03  0.10479560988E+03  0.25330287176E+03  0.33311419402E+03  0.12500000000E+03 0.  0.
</event>
<event>
 4    0  0.2219362E-002  0.1891909E+03  0.7546771E-02  0.1159193E+00
         21   -1    0    0  502  501  0.00000000000E+00  0.00000000000E+00  0.14666817467E+04  0.14666817467E+04  0.00000000000E+00 0.  1.
         21   -1    0    0  501  502 -0.00000000000E+00 -0.00000000000E+00 -0.24404204820E+02  0.24404204820E+02  0.00000000000E+00 0.  1.
         25    1    1    2    0    0  0.92259916467E+01 -0.11175370044E+03  0.37772853862E+03  0.41337375022E+03  0.12500000000E+03 0.  0.
         25    1    1    2    0    0 -0.92259916467E+01  0.11175370044E+03  0.10645490032E+04  0.10777122013E+04  0.12500000000E+03 0.  0.
</event>
<event>
 4    0  0.2219362E-002  0.2091164E+03  0.7546771E-02  0.1142268E+00
         21   -1    0    0  502  501  0.00000000000E+00  0.00000000000E+00  0.63634156128E+03  0.63634156128E+03  0.00000000000E+00 0.  1.
         21   -1    0    0  501  502 -0.00000000000E+00 -0.00000000000E+00 -0.68720466529E+02  0.68720466529E+02  0.00000000000E+00 0.  1.
         25    1    1    2    0    0  0.10226000742E+03  0.13270788668E+03  0.27366808579E+03  0.34436566827E+03  0.12500000000E+03 0.  0.
         25    1    1    2    0    0 -0.10226000742E+03 -0.13270788668E+03  0.29395300896E+03  0.36069635954E+03  0.12500000000E+03 0.  0.
</event>
<event>
 4    0  0.2219362E-002  0.1727872E+03  0.7546771E-02  0.1174972E+00
         21   -1    0    0  502  501  0.00000000000E+00  0.00000000000E+00  0.21508592471E+03  0.21508592471E+03  0.00000000000E+00 0. -1.
         21   -1    0    0  501  502 -0.00000000000E+00 -0.00000000000E+00 -0.13880692943E+03  0.13880692943E+03  0.00000000000E+00 0. -1.
         25    1    1    2    0    0 -0.59278354003E+02 -0.10242595841E+03  0.22764213914E+02  0.17363239803E+03  0.12500000000E+03 0.  0.
         25    1    1    2    0    0  0.59278354003E+02  0.10242595841E+03  0.53514781365E+02  0.18026045610E+03  0.12500000000E+03 0.  0.
</event>
<event>
 4    0  0.2219362E-002  0.1557265E+03  0.7546771E-02  0.1193608E+00
         21   -1    0    0  502  501  0.00000000000E+00  0.00000000000E+00  0.34731537615E+02  0.34731537615E+02  0.00000000000E+00 0. -1.
         21   -1    0    0  501  502 -0.00000000000E+00 -0.00000000000E+00 -0.69823365321E+03  0.69823365321E+03  0.00000000000E+00 0. -1.
         25    1    1    2    0    0 -0.85892302832E+02 -0.31868147477E+02 -0.36764767951E+03  0.39897729604E+03  0.12500000000E+03 0.  0.
         25    1    1    2    0    0  0.85892302832E+02  0.31868147477E+02 -0.29585443608E+03  0.33398789478E+03  0.12500000000E+03 0.  0.
</event>
<event>
 4    0  0.2219362E-002  0.1883693E+03  0.7546771E-02  0.1159940E+00
         21   -1    0    0  502  501  0.00000000000E+00  0.00000000000E+00  0.99744867031E+03  0.99744867031E+03  0.00000000000E+00 0.  1.
         21   -1    0    0  501  502 -0.00000000000E+00 -0.00000000000E+00 -0.35573756918E+02  0.35573756918E+02  0.00000000000E+00 0.  1.
         25    1    1    2    0    0  0.29828371601E+02  0.13596125725E+03  0.42068790360E+03  0.46041123734E+03  0.12500000000E+03 0.  0.
         25    1    1    2    0    0 -0.29828371601E+02 -0.13596125725E+03  0.54118700978E+03  0.57261118989E+03  0.12500000000E+03 0.  0.
</event>
<event>
 4    0  0.2219362E-002  0.3921490E+03  0.7546771E-02  0.1046533E+00
         21   -1    0    0  502  501  0.00000000000E+00  0.00000000000E+00  0.30567524692E+03  0.30567524692E+03  0.00000000000E+00 0.  1.
         21   -1    0    0  501  502 -0.00000000000E+00 -0.00000000000E+00 -0.50308577151E+03  0.50308577151E+03  0.00000000000E+00 0.  1.
         25    1    1    2    0    0  0.34034304153E+03  0.51847264747E+02  0.45787882924E+02  0.36911116889E+03  0.12500000000E+03 0.  0.
         25    1    1    2    0    0 -0.34034304153E+03 -0.51847264747E+02 -0.24319840751E+03  0.43964984953E+03  0.12500000000E+03 0.  0.
</event>
<event>
 4    0  0.2219362E-002  0.1985642E+03  0.7546771E-02  0.1150956E+00
         21   -1    0    0  502  501  0.00000000000E+00  0.00000000000E+00  0.60860762033E+02  0.60860762033E+02  0.00000000000E+00 0. -1.
         21   -1    0    0  501  502 -0.00000000000E+00 -0.00000000000E+00 -0.64783548072E+03  0.64783548072E+03  0.00000000000E+00 0. -1.
         25    1    1    2    0    0 -0.14684332068E+03 -0.43887754990E+02 -0.32509282699E+03  0.38052521864E+03  0.12500000000E+03 0.  0.
         25    1    1    2    0    0  0.14684332068E+03  0.43887754990E+02 -0.26188189170E+03  0.32817102411E+03  0.12500000000E+03 0.  0.
</event>
<event>
 4    0  0.2219362E-002  0.3278170E+03  0.7546771E-02  0.1072107E+00
         21   -1    0    0  502  501  0.00000000000E+00  0.00000000000E+00  0.49044012919E+03  0.49044012919E+03  0.00000000000E+00 0.  1.
         21   -1    0    0  501  502 -0.00000000000E+00 -0.00000000000E+00 -0.21911748741E+03  0.21911748741E+03  0.00000000000E+00 0.  1.
         25    1    1    2    0    0  0.12270337481E+03 -0.22057942914E+03 -0.45845327551E+02  0.28537378438E+03  0.12500000000E+03 0.  0.
         25    1    1    2    0    0 -0.12270337481E+03  0.22057942914E+03  0.31716796933E+03  0.42418383223E+03  0.12500000000E+03 0.  0.
</event>
<event>
 4    0  0.2219362E-002  0.1523740E+03  0.7546771E-02  0.1197586E+00
         21   -1    0    0  502  501  0.00000000000E+00  0.00000000000E+00  0.63387230376E+02  0.63387230376E+02  0.00000000000E+00 0.  1.
         21   -1    0    0  501  502 -0.00000000000E+00 -0.00000000000E+00 -0.36628584515E+03  0.36628584515E+03  0.00000000000E+00 0.  1.
         25    1    1    2    0    0  0.68764076901E+02  0.50108485271E+02 -0.17795771966E+03  0.23352367879E+03  0.12500000000E+03 0.  0.
         25    1    1    2    0    0 -0.68764076901E+02 -0.50108485271E+02 -0.12494089511E+03  0.19614939674E+03  0.12500000000E+03 0.  0.
</event>
<event>
 4    0  0.2219362E-002  0.2273961E+03  0.7546771E-02  0.1128486E+00
         21   -1    0    0  502  501  0.00000000000E+00  0.00000000000E+00  0.51045271325E+03  0.51045271325E+03  0.00000000000E+00 0.  1.
         21   -1    0    0  501  502 -0.00000000000E+00 -0.00000000000E+00 -0.10130026959E+03  0.10130026959E+03  0.00000000000E+00 0.  1.
         25    1    1    2    0    0 -0.45311435736E+02  0.10531864331E+03  0.84907377142E+00  0.16961976230E+03  0.12500000000E+03 0.  0.
         25    1    1    2    0    0  0.45311435736E+02 -0.10531864331E+03  0.40830336989E+03  0.44213322054E+03  0.12500000000E+03 0.  0.
</event>
<event>
 4    0  0.2219362E-002  0.5067673E+03  0.7546771E-02  0.1012027E+00
         21   -1    0    0  502  501  0.00000000000E+00  0.00000000000E+00  0.17634391191E+04  0.17634391191E+04  0.00000000000E+00 0.  1.
         21   -1    0    0  501  502 -0.00000000000E+00 -0.00000000000E+00 -0.14563195009E+03  0.14563195009E+03  0.00000000000E+00 0. -1.
         25    1    1    2    0    0 -0.11203358577E+03  0.36849089102E+03  0.13828572905E+04  0.14409220475E+04  0.12500000000E+03 0.  0.
         25    1    1    2    0    0  0.11203358577E+03 -0.36849089102E+03  0.23494987852E+03  0.46814902170E+03  0.12500000000E+03 0.  0.
</event>
<event>
 4    0  0.2219362E-002  0.2119101E+03  0.7546771E-02  0.1140062E+00
         21   -1    0    0  502  501  0.00000000000E+00  0.00000000000E+00  0.17714794085E+02  0.17714794085E+02  0.00000000000E+00 0. -1.
         21   -1    0    0  501  502 -0.00000000000E+00 -0.00000000000E+00 -0.25349377272E+04  0.25349377272E+04  0.00000000000E+00 0. -1.
         25    1    1    2    0    0 -0.16088156324E+03 -0.58166495163E+02 -0.12355337763E+04  0.12535688776E+04  0.12500000000E+03 0.  0.
         25    1    1    2    0    0  0.16088156324E+03  0.58166495163E+02 -0.12816891569E+04  0.12990836437E+04  0.12500000000E+03 0.  0.
</event>
<event>
 4    0  0.2219362E-002  0.1947173E+03  0.7546771E-02  0.1154274E+00
         21   -1    0    0  502  501  0.00000000000E+00  0.00000000000E+00  0.13156565473E+04  0.13156565473E+04  0.00000000000E+00 0.  1.
         21   -1    0    0  501  502 -0.00000000000E+00 -0.00000000000E+00 -0.28818182145E+02  0.28818182145E+02  0.00000000000E+00 0.  1.
         25    1    1    2    0    0 -0.13600138193E+03 -0.29753008573E+02  0.45723997899E+03  0.49403948809E+03  0.12500000000E+03 0.  0.
         25    1    1    2    0    0  0.13600138193E+03  0.29753008573E+02  0.82959838615E+03  0.85043524134E+03  0.12500000000E+03 0.  0.
</event>
<event>
 4    0  0.2219362E-002  0.1319269E+03  0.7546771E-02  0.1224624E+00
         21   -1    0    0  502  501  0.00000000000E+00  0.00000000000E+00  0.38014207680E+03  0.38014207680E+03  0.00000000000E+00 0.  1.
         21   -1    0    0  501  502 -0.00000000000E+00 -0.00000000000E+00 -0.45784711590E+02  0.45784711590E+02  0.00000000000E+00 0.  1.
         25    1    1    2    0    0 -0.14837304238E+02  0.37281126858E+02  0.14615199496E+03  0.19645720564E+03  0.12500000000E+03 0.  0.
         25    1    1    2    0    0  0.14837304238E+02 -0.37281126858E+02  0.18820537025E+03  0.22946958275E+03  0.12500000000E+03 0.  0.
</event>
<event>
 4    0  0.2219362E-002  0.2182342E+03  0.7546771E-02  0.1135206E+00
         21   -1    0    0  502  501  0.00000000000E+00  0.00000000000E+00  0.10163108882E+03  0.10163108882E+03  0.00000000000E+00 0. -1.
         21   -1    0    0  501  502 -0.00000000000E+00 -0.00000000000E+00 -0.46861798253E+03  0.46861798253E+03  0.00000000000E+00 0. -1.
         25    1    1    2    0    0 -0.11035591869E+03  0.23920764344E+02 -0.36476643973E+03  0.40178375690E+03  0.12500000000E+03 0.  0.
         25    1    1    2    0    0  0.11035591869E+03 -0.23920764344E+02 -0.22204539776E+01  0.16846531445E+03  0.12500000000E+03 0.  0.
</event>
<event>
 4    0  0.2219362E-002  0.1912305E+03  0.7546771E-02  0.1157356E+00
         21   -1    0    0  502  501  0.00000000000E+00  0.00000000000E+00  0.57473923932E+03  0.57473923932E+03  0.00000000000E+00 0.  1.
         21   -1    0    0  501  502 -0.00000000000E+00 -0.00000000000E+00 -0.63627302480E+02  0.63627302480E+02  0.00000000000E+00 0.  1.
         25    1    1    2    0    0 -0.18922560699E+02 -0.24904771403E+02  0.19711192534E+02  0.13035276005E+03  0.12500000000E+03 0.  0.
         25    1    1    2    0    0  0.18922560699E+02  0.24904771403E+02  0.49140074430E+03  0.50801378175E+03  0.12500000000E+03 0.  0.
</event>
<event>
 4    0  0.2219362E-002  0.3819039E+03  0.7546771E-02  0.1050232E+00
         21   -1    0    0  502  501  0.00000000000E+00  0.00000000000E+00  0.29465040853E+03  0.29465040853E+03  0.00000000000E+00 0.  1.
         21   -1    0    0  501  502 -0.00000000000E+00 -0.00000000000E+00 -0.49499531023E+03  0.49499531023E+03  0.00000000000E+00 0. -1.
         25    1    1    2    0    0 -0.11943902337E+03 -0.24022846503E+03 -0.34968755451E+03  0.45812856437E+03  0.12500000000E+03 0.  0.
         25    1    1    2    0    0  0.11943902337E+03  0.24022846503E+03  0.14934265280E+03  0.33151715439E+03  0.12500000000E+03 0.  0.
</event>
<event>
 4    0  0.2219362E-002  0.1536032E+03  0.7546771E-02  0.1196114E+00
         21   -1    0    0  502  501  0.00000000000E+00  0.00000000000E+00  0.57921820250E+03  0.57921820250E+03  0.00000000000E+00 0. -1.
         21   -1    0    0  501  502 -0.00000000000E+00 -0.00000000000E+00 -0.40734133483E+02  0.40734133483E+02  0.00000000000E+00 0. -1.
         25    1    1    2    0    0 -0.13577563237E+02 -0.57934223885E+01  0.91574577873E+02  0.15565608655E+03  0.12500000000E+03 0.  0.
         25    1    1    2    0    0  0.13577563237E+02  0.57934223885E+01  0.44690949114E+03  0.46429624943E+03  0.12500000000E+03 0.  0.
</event>
<event>
 4    0  0.2219362E-002  0.3475526E+03  0.7546771E-02  0.1063624E+00
         21   -1    0    0  502  501  0.00000000000E+00  0.00000000000E+00  0.20261388179E+04  0.20261388179E+04  0.00000000000E+00 0. -1.
         21   -1    0    0  501  502 -0.00000000000E+00 -0.00000000000E+00 -0.59617232310E+02  0.59617232310E+02  0.00000000000E+00 0. -1.
         25    1    1    2    0    0  0.21785768707E+03  0.12940462336E+03  0.37597325884E+03  0.47030672941E+03  0.12500000000E+03 0.  0.
         25    1    1    2    0    0 -0.21785768707E+03 -0.12940462336E+03  0.15905483267E+04  0.16154493208E+04  0.12500000000E+03 0.  0.
</event>
<event>
 4    0  0.2219362E-002  0.2664249E+03  0.7546771E-02  0.1103343E+00
         21   -1    0    0  502  501  0.00000000000E+00  0.00000000000E+00  0.12026592229E+03  0.12026592229E+03  0.00000000000E+00 0.  1.
         21   -1    0    0  501  502 -0.00000000000E+00 -0.00000000000E+00 -0.59021084885E+03  0.59021084885E+03  0.00000000000E+00 0.  1.
         25    1    1    2    0    0 -0.16924030906E+03  0.36700702069E+02 -0.22604815054E+02  0.21476778484E+03  0.12500000000E+03 0.  0.
         25    1    1    2    0    0  0.16924030906E+03 -0.36700702069E+02 -0.44734011150E+03  0.49570898630E+03  0.12500000000E+03 0.  0.
</event>
<event>
 4    0  0.2219362E-002  0.1980633E+03  0.7546771E-02  0.1151383E+00
         21   -1    0    0  502  501  0.00000000000E+00  0.00000000000E+00  0.63774831269E+02  0.63774831269E+02  0.00000000000E+00 0.  1.
         21   -1    0    0  501  502 -0.00000000000E+00 -0.00000000000E+00 -0.61511846806E+03  0.61511846806E+03  0.00000000000E+00 0.  1.
         25    1    1    2    0    0 -0.52557928260E+02  0.11587183148E+03 -0.12808875738E+03  0.21959131795E+03  0.12500000000E+03 0.  0.
         25    1    1    2    0    0  0.52557928260E+02 -0.11587183148E+03 -0.42325487941E+03  0.45930198138E+03  0.12500000000E+03 0.  0.
</event>
<event>
 4    0  0.2219362E-002  0.3804679E+03  0.7546771E-02  0.1050761E+00
         21   -1    0    0  502  501  0.00000000000E+00  0.00000000000E+00  0.73934412704E+02  0.73934412704E+02  0.00000000000E+00 0.  1.
         21   -1    0    0  501  502 -0.00000000000E+00 -0.00000000000E+00 -0.19578945669E+04  0.19578945669E+04  0.00000000000E+00 0.  1.
         25    1    1    2    0    0  0.87287652971E+02 -0.27105365870E+03 -0.35672153365E+03  0.47324884873E+03  0.12500000000E+03 0.  0.
         25    1    1    2    0    0 -0.87287652971E+02  0.27105365870E+03 -0.15272386206E+04  0.15585801309E+04  0.12500000000E+03 0.  0.
</event>
<event>
 4    0  0.2219362E-002  0.2406293E+03  0.7546771E-02  0.1119374E+00
         21   -1    0    0  502  501  0.00000000000E+00  0.00000000000E+00  0.97608842310E+02  0.97608842310E+02  0.00000000000E+00 0. -1.
         21   -1    0    0  501  502 -0.00000000000E+00 -0.00000000000E+00 -0.59320894533E+03  0.59320894533E+03  0.00000000000E+00 0. -1.
         25    1    1    2    0    0 -0.15994979405E+03 -0.55603178565E+02 -0.41521070632E+03  0.46551109625E+03  0.12500000000E+03 0.  0.
         25    1    1    2    0    0  0.15994979405E+03  0.55603178565E+02 -0.80389396694E+02  0.22530669139E+03  0.12500000000E+03 0.  0.
</event>
<event>
 4    0  0.2219362E-002  0.2308504E+03  0.7546771E-02  0.1126043E+00
         21   -1    0    0  502  501  0.00000000000E+00  0.00000000000E+00  0.20594826920E+04  0.20594826920E+04  0.00000000000E+00 0. -1.
         21   -1    0    0  501  502 -0.00000000000E+00 -0.00000000000E+00 -0.25876351167E+02  0.25876351167E+02  0.00000000000E+00 0. -1.
         25    1    1    2    0    0  0.97473352254E+02 -0.16180692176E+03  0.12180044861E+04  0.12388875907E+04  0.12500000000E+03 0.  0.
         25    1    1    2    0    0 -0.97473352254E+02  0.16180692176E+03  0.81560185472E+03  0.84647145241E+03  0.12500000000E+03 0.  0.
</event>
<event>
 4    0  0.2219362E-002  0.2004132E+03  0.7546771E-02  0.1149391E+00
         21   -1    0    0  502  501  0.00000000000E+00  0.00000000000E+00  0.84462770834E+03  0.84462770834E+03  0.00000000000E+00 0. -1.
         21   -1    0    0  501  502 -0.00000000000E+00 -0.00000000000E+00 -0.47554038767E+02  0.47554038767E+02  0.00000000000E+00 0. -1.
         25    1    1    2    0    0  0.24560513178E+02  0.13393785520E+03  0.57092055698E+03  0.60009820050E+03  0.12500000000E+03 0.  0.
         25    1    1    2    0    0 -0.24560513178E+02 -0.13393785520E+03  0.22615311259E+03  0.29208354661E+03  0.12500000000E+03 0.  0.
</event>
<event>
 4    0  0.2219362E-002  0.1925987E+03  0.7546771E-02  0.1156138E+00
         21   -1    0    0  502  501  0.00000000000E+00  0.00000000000E+00  0.14271904846E+04  0.14271904846E+04  0.00000000000E+00 0.  1.
         21   -1    0    0  501  502 -0.00000000000E+00 -0.00000000000E+00 -0.25991103619E+02  0.25991103619E+02  0.00000000000E+00 0.  1.
         25    1    1    2    0    0 -0.11248009179E+03  0.50411699934E+02  0.40172918902E+03  0.43841128162E+03  0.12500000000E+03 0.  0.
         25    1    1    2    0    0  0.11248009179E+03 -0.50411699934E+02  0.99947019192E+03  0.10147703066E+04  0.12500000000E+03 0.  0.
</event>
<event>
 4    0  0.2219362E-002  0.2548757E+03  0.7546771E-02  0.1110262E+00
         21   -1    0    0  502  501  0.00000000000E+00  0.00000000000E+00  0.17900229113E+04  0.17900229113E+04  0.00000000000E+00 0.  1.
         21   -1    0    0  501  502 -0.00000000000E+00 -0.00000000000E+00 -0.36290932700E+02  0.36290932700E+02  0.00000000000E+00 0.  1.
         25    1    1    2    0    0  0.20515286134E+03 -0.50921768743E+02  0.11213316419E+04  0.11479069536E+04  0.12500000000E+03 0.  0.
         25    1    1    2    0    0 -0.20515286134E+03  0.50921768743E+02  0.63240033666E+03  0.67840689034E+03  0.12500000000E+03 0.  0.
</event>
<event>
 4    0  0.2219362E-002  0.2145465E+03  0.7546771E-02  0.1138015E+00
         21   -1    0    0  502  501  0.00000000000E+00  0.00000000000E+00  0.62622731090E+02  0.62622731090E+02  0.00000000000E+00 0. -1.
         21   -1    0    0  501  502 -0.00000000000E+00 -0.00000000000E+00 -0.73503987628E+03  0.73503987628E+03  0.00000000000E+00 0. -1.
         25    1    1    2    0    0  0.15922612838E+03 -0.58570525448E+02 -0.41107000734E+03  0.46193832634E+03  0.12500000000E+03 0.  0.
         25    1    1    2    0    0 -0.15922612838E+03  0.58570525448E+02 -0.26134713785E+03  0.33572428103E+03  0.12500000000E+03 0.  0.
</event>
<event>
 4    0  0.2219362E-002  0.2218341E+03  0.7546771E-02  0.1132523E+00
         21   -1    0    0  502  501  0.00000000000E+00  0.00000000000E+00  0.10194899860E+03  0.10194899860E+03  0.00000000000E+00 0.  1.
         21   -1    0    0  501  502 -0.00000000000E+00 -0.00000000000E+00 -0.48269599037E+03  0.48269599037E+03  0.00000000000E+00 0. -1.
         25    1    1    2    0    0  0.71667862952E+02  0.16774467375E+03 -0.16714159853E+03  0.27719284282E+03  0.12500000000E+03 0.  0.
         25    1    1    2    0    0 -0.71667862952E+02 -0.16774467375E+03 -0.21360539324E+03  0.30745214615E+03  0.12500000000E+03 0.  0.
</event>
<event>
 4    0  0.2219362E-002  0.1492090E+03  0.7546771E-02  0.1201448E+00
         21   -1    0    0  502  501  0.00000000000E+00  0.00000000000E+00  0.65971525431E+02  0.65971525431E+02  0.00000000000E+00 0. -1.
         21   -1    0    0  501  502 -0.00000000000E+00 -0.00000000000E+00 -0.33746871164E+03  0.33746871164E+03  0.00000000000E+00 0. -1.
         25    1    1    2    0    0 -0.63261006332E+02  0.20146489091E+02 -0.19959762409E+03  0.24468765291E+03  0.12500000000E+03 0.  0.
         25    1    1    2    0    0  0.63261006332E+02 -0.20146489091E+02 -0.71899562121E+02  0.15875258416E+03  0.12500000000E+03 0.  0.
</event>
<event>
 4    0  0.2219362E-002  0.2073303E+03  0.7546771E-02  0.1143698E+00
         21   -1    0    0  502  501  0.00000000000E+00  0.00000000000E+00  0.14395732838E+03  0.14395732838E+03  0.00000000000E+00 0. -1.
         21   -1    0    0  501  502 -0.00000000000E+00 -0.00000000000E+00 -0.29860142269E+03  0.29860142269E+03  0.00000000000E+00 0. -1.
         25    1    1    2    0    0  0.28994287686E+02 -0.14511277805E+03  0.15590390293E+01  0.19371581679E+03  0.12500000000E+03 0.  0.
         25    1    1    2    0    0 -0.28994287686E+02  0.14511277805E+03 -0.15620313334E+03  0.24884293428E+03  0.12500000000E+03 0.  0.
</event>
<event>
 4    0  0.2219362E-002  0.3192467E+03  0.7546771E-02  0.1075997E+00
         21   -1    0    0  502  501  0.00000000000E+00  0.00000000000E+00  0.21228927051E+04  0.21228927051E+04  0.00000000000E+00 0.  1.
         21   -1    0    0  501  502 -0.00000000000E+00 -0.00000000000E+00 -0.48009238674E+02  0.48009238674E+02  0.00000000000E+00 0.  1.
         25    1    1    2    0    0  0.29823709612E+02  0.12353698116E+03  0.19379232061E+04  0.19461043631E+04  0.12500000000E+03 0.  0.
         25    1    1    2    0    0 -0.29823709612E+02 -0.12353698116E+03  0.13696026035E+03  0.22479758069E+03  0.12500000000E+03 0.  0.
</event>
<event>
 4    0  0.2219362E-002  0.1966113E+03  0.7546771E-02  0.1152630E+00
         21   -1    0    0  502  501  0.00000000000E+00  0.00000000000E+00  0.56232207881E+03  0.56232207881E+03  0.00000000000E+00 0.  1.
         21   -1    0    0  501  502 -0.00000000000E+00 -0.00000000000E+00 -0.68743533661E+02  0.68743533661E+02  0.00000000000E+00 0.  1.
         25    1    1    2    0    0  0.12335857233E+03 -0.54810251456E+02  0.35808698766E+03  0.40258265209E+03  0.12500000000E+03 0.  0.
         25    1    1    2    0    0 -0.12335857233E+03  0.54810251456E+02  0.13549155749E+03  0.22848296038E+03  0.12500000000E+03 0.  0.
</event>
<event>
 4    0  0.2219362E-002  0.3228498E+03  0.7546771E-02  0.1074345E+00
         21   -1    0    0  502  501  0.00000000000E+00  0.00000000000E+00  0.72978253167E+03  0.72978253167E+03  0.00000000000E+00 0. -1.
         21   -1    0    0  501  502 -0.00000000000E+00 -0.00000000000E+00 -0.14282608883E+03  0.14282608883E+03  0.00000000000E+00 0. -1.
         25    1    1    2    0    0  0.28884228515E+03 -0.32276463117E+02  0.38038328467E+03  0.49476062800E+03  0.12500000000E+03 0.  0.
         25    1    1    2    0    0 -0.28884228515E+03  0.32276463117E+02  0.20657315818E+03  0.37784799251E+03  0.12500000000E+03 0.  0.
</event>
<event>
 4    0  0.2219362E-002  0.2141306E+03  0.7546771E-02  0.1138336E+00
         21   -1    0    0  502  501  0.00000000000E+00  0.00000000000E+00  0.45331022268E+03  0.45331022268E+03  0.00000000000E+00 0. -1.
         21   -1    0    0  501  502 -0.00000000000E+00 -0.00000000000E+00 -0.10114907264E+03  0.10114907264E+03  0.00000000000E+00 0. -1.
         25    1    1    2    0    0  0.77452022282E+02  0.12956972174E+03  0.28775173137E+03  0.34815684318E+03  0.12500000000E+03 0.  0.
         25    1    1    2    0    0 -0.77452022282E+02 -0.12956972174E+03  0.64409418667E+02  0.20630245214E+03  0.12500000000E+03 0.  0.
</event>
<event>
 4    0  0.2219362E-002  0.2546878E+03  0.7546771E-02  0.1110378E+00
         21   -1    0    0  502  501  0.00000000000E+00  0.00000000000E+00  0.20348236131E+03  0.20348236131E+03  0.00000000000E+00 0.  1.
         21   -1    0    0  501  502 -0.00000000000E+00 -0.00000000000E+00 -0.31877880818E+03  0.31877880818E+03  0.00000000000E+00 0.  1.
         25    1    1    2    0    0  0.10443613993E+03 -0.12712859697E+03  0.95022155911E+02  0.22742646637E+03  0.12500000000E+03 0.  0.
         25    1    1    2    0    0 -0.10443613993E+03  0.12712859697E+03 -0.21031860277E+03  0.29483470312E+03  0.12500000000E+03 0.  0.
</event>
<event>
 4    0  0.2219362E-002  0.1892940E+03  0.7546771E-02  0.1159100E+00
         21   -1    0    0  502  501  0.00000000000E+00  0.00000000000E+00  0.98234789912E+02  0.98234789912E+02  0.00000000000E+00 0. -1.
         21   -1    0    0  501  502 -0.00000000000E+00 -0.00000000000E+00 -0.36476082262E+03  0.36476082262E+03  0.00000000000E+00 0. -1.
         25    1    1    2    0    0 -0.57566635268E+02 -0.10912011406E+03 -0.46907515312E+02  0.18178677559E+03  0.12500000000E+03 0.  0.
         25    1    1    2    0    0  0.57566635268E+02  0.10912011406E+03 -0.21961851739E+03  0.28120883693E+03  0.12500000000E+03 0.  0.
</event>
<event>
 4    0  0.2219362E-002  0.2322758E+03  0.7546771E-02  0.1125048E+00
         21   -1    0    0  502  501  0.00000000000E+00  0.00000000000E+00  0.12632863870E+03  0.12632863870E+03  0.00000000000E+00 0. -1.
         21   -1    0    0  501  502 -0.00000000000E+00 -0.00000000000E+00 -0.42707697117E+03  0.42707697117E+03  0.00000000000E+00 0. -1.
         25    1    1    2    0    0 -0.87896790578E+01  0.19275613877E+03 -0.18979173571E+03  0.29812428689E+03  0.12500000000E+03 0.  0.
         25    1    1    2    0    0  0.87896790578E+01 -0.19275613877E+03 -0.11095659676E+03  0.25528132297E+03  0.12500000000E+03 0.  0.
</event>
<event>
 4    0  0.2219362E-002  0.1932568E+03  0.7546771E-02  0.1155556E+00
         21   -1    0    0  502  501  0.00000000000E+00  0.00000000000E+00  0.64798245654E+03  0.64798245654E+03  0.00000000000E+00 0.  1.
         21   -1    0    0  501  502 -0.00000000000E+00 -0.00000000000E+00 -0.57637649246E+02  0.57637649246E+02  0.00000000000E+00 0.  1.
         25    1    1    2    0    0  0.11929768357E+03 -0.18512045980E+02  0.44952546583E+03  0.48194686179E+03  0.12500000000E+03 0.  0.
         25    1    1    2    0    0 -0.11929768357E+03  0.18512045980E+02  0.14081934147E+03  0.22367324400E+03  0.12500000000E+03 0.  0.
</event>
<event>
 4    0  0.2219362E-002  0.3161109E+03  0.7546771E-02  0.1077453E+00
         21   -1    0    0  502  501  0.00000000000E+00  0.00000000000E+00  0.10477894337E+04  0.10477894337E+04  0.00000000000E+00 0. -1.
         21   -1    0    0  501  502 -0.00000000000E+00 -0.00000000000E+00 -0.95368514689E+02  0.95368514689E+02  0.00000000000E+00 0. -1.
         25    1    1    2    0    0 -0.12460906655E+03  0.24612048510E+03  0.63993038093E+03  0.70798206552E+03  0.12500000000E+03 0.  0.
         25    1    1    2    0    0  0.12460906655E+03 -0.24612048510E+03  0.31249053812E+03  0.43517588291E+03  0.12500000000E+03 0.  0.
</event>
<event>
 4    0  0.2219362E-002  0.1440018E+03  0.7546771E-02  0.1208043E+00
         21   -1    0    0  502  501  0.00000000000E+00  0.00000000000E+00  0.60581741398E+02  0.60581741398E+02  0.00000000000E+00 0. -1.
         21   -1    0    0  501  502 -0.00000000000E+00 -0.00000000000E+00 -0.34228989744E+03  0.34228989744E+03  0.00000000000E+00 0. -1.
         25    1    1    2    0    0  0.42773496697E+01  0.63287517706E+02 -0.18699282038E+03  0.23369835364E+03  0.12500000000E+03 0.  0.
         25    1    1    2    0    0 -0.42773496697E+01 -0.63287517706E+02 -0.94715335661E+02  0.16917328521E+03  0.12500000000E+03 0.  0.
</event>
<event>
 4    0  0.2219362E-002  0.3293634E+03  0.7546771E-02  0.1071419E+00
         21   -1    0    0  502  501  0.00000000000E+00  0.00000000000E+00  0.42734349522E+02  0.42734349522E+02  0.00000000000E+00 0. -1.
         21   -1    0    0  501  502 -0.00000000000E+00 -0.00000000000E+00 -0.25384797755E+04  0.25384797755E+04  0.00000000000E+00 0. -1.
         25    1    1    2    0    0  0.13028336329E+03  0.13469016841E+03 -0.30629244890E+03  0.38020423521E+03  0.12500000000E+03 0.  0.
         25    1    1    2    0    0 -0.13028336329E+03 -0.13469016841E+03 -0.21894529771E+04  0.22010098899E+04  0.12500000000E+03 0.  0.
</event>
<event>
 4    0  0.2219362E-002  0.2513315E+03  0.7546771E-02  0.1112466E+00
         21   -1    0    0  502  501  0.00000000000E+00  0.00000000000E+00  0.47191954326E+02  0.47191954326E+02  0.00000000000E+00 0. -1.
         21   -1    0    0  501  502 -0.00000000000E+00 -0.00000000000E+00 -0.13385231333E+04  0.13385231333E+04  0.00000000000E+00 0. -1.
         25    1    1    2    0    0 -0.20709918241E+03 -0.52527876051E+02 -0.52571463712E+03  0.58107669787E+03  0.12500000000E+03 0.  0.
         25    1    1    2    0    0  0.20709918241E+03  0.52527876051E+02 -0.76561654189E+03  0.80463838980E+03  0.12500000000E+03 0.  0.
</event>
<event>
 4    0  0.2219362E-002  0.2067888E+03  0.7546771E-02  0.1144134E+00
         21   -1    0    0  502  501  0.00000000000E+00  0.00000000000E+00  0.80947154100E+03  0.80947154100E+03  0.00000000000E+00 0.  1.
         21   -1    0    0  501  502 -0.00000000000E+00 -0.00000000000E+00 -0.52826550465E+02  0.52826550465E+02  0.00000000000E+00 0.  1.
         25    1    1    2    0    0  0.15987421601E+03  0.39691088117E+02  0.38082601693E+03  0.43334582333E+03  0.12500000000E+03 0.  0.
         25    1    1    2    0    0 -0.15987421601E+03 -0.39691088117E+02  0.37581897361E+03  0.42895226814E+03  0.12500000000E+03 0.  0.
</event>
<event>
 4    0  0.2219362E-002  0.2233316E+03  0.7546771E-02  0.1131423E+00
         21   -1    0    0  502  501  0.00000000000E+00  0.00000000000E+00  0.45148285080E+02  0.45148285080E+02  0.00000000000E+00 0.  1.
         21   -1    0    0  501  502 -0.00000000000E+00 -0.00000000000E+00 -0.11047374128E+04  0.11047374128E+04  0.00000000000E+00 0.  1.
         25    1    1    2    0    0  0.76265711678E+02 -0.54230636362E+02 -0.11874098071E+03  0.19616789033E+03  0.12500000000E+03 0.  0.
         25    1    1    2    0    0 -0.76265711678E+02  0.54230636362E+02 -0.94084814699E+03  0.95371780753E+03  0.12500000000E+03 0.  0.
</event>
<event>
 4    0  0.2219362E-002  0.2702385E+03  0.7546771E-02  0.1101143E+00
         21   -1    0    0  502  501  0.00000000000E+00  0.00000000000E+00  0.15530773803E+03  0.15530773803E+03  0.00000000000E+00 0. -1.
         21   -1    0    0  501  502 -0.00000000000E+00 -0.00000000000E+00 -0.47022039687E+03  0.47022039687E+03  0.00000000000E+00 0. -1.
         25    1    1    2    0    0  0.11199863555E+03  0.80457557535E+02 -0.38421310043E+03  0.42692132703E+03  0.12500000000E+03 0.  0.
         25    1    1    2    0    0 -0.11199863555E+03 -0.80457557535E+02  0.69300441590E+02  0.19860680787E+03  0.12500000000E+03 0.  0.
</event>
<event>
 4    0  0.2219362E-002  0.4581556E+03  0.7546771E-02  0.1025318E+00
         21   -1    0    0  502  501  0.00000000000E+00  0.00000000000E+00  0.79575918645E+03  0.79575918645E+03  0.00000000000E+00 0.  1.
         21   -1    0    0  501  502 -0.00000000000E+00 -0.00000000000E+00 -0.26378149306E+03  0.26378149306E+03  0.00000000000E+00 0.  1.
         25    1    1    2    0    0 -0.39261258212E+03 -0.16071994714E+03  0.12768513402E+03  0.46033035366E+03  0.12500000000E+03 0.  0.
         25    1    1    2    0    0  0.39261258212E+03  0.16071994714E+03  0.40429255937E+03  0.59921032585E+03  0.12500000000E+03 0.  0.
</event>
<event>
 4    0  0.2219362E-002  0.2261452E+03  0.7546771E-02  0.1129383E+00
         21   -1    0    0  502  501  0.00000000000E+00  0.00000000000E+00  0.63652244441E+03  0.63652244441E+03  0.00000000000E+00 0.  1.
         21   -1    0    0  501  502 -0.00000000000E+00 -0.00000000000E+00 -0.80345393040E+02  0.80345393040E+02  0.00000000000E+00 0.  1.
         25    1    1    2    0    0  0.17247138465E+03  0.74279870406E+02  0.25288954013E+03  0.33888345663E+03  0.12500000000E+03 0.  0.
         25    1    1    2    0    0 -0.17247138465E+03 -0.74279870406E+02  0.30328751124E+03  0.37798438082E+03  0.12500000000E+03 0.  0.
</event>
<event>
 4    0  0.2219362E-002  0.1820131E+03  0.7546771E-02  0.1165869E+00
         21   -1    0    0  502  501  0.00000000000E+00  0.00000000000E+00  0.17441847019E+03  0.17441847019E+03  0.00000000000E+00 0. -1.
         21   -1    0    0  501  502 -0.00000000000E+00 -0.00000000000E+00 -0.18993837270E+03  0.18993837270E+03  0.00000000000E+00 0. -1.
         25    1    1    2    0    0 -0.16041937856E+02 -0.45783103666E+02 -0.13095841794E+03  0.18742610165E+03  0.12500000000E+03 0.  0.
         25    1    1    2    0    0  0.16041937856E+02  0.45783103666E+02  0.11543851543E+03  0.17693074124E+03  0.12500000000E+03 0.  0.
</event>
<event>
 4    0  0.2219362E-002  0.1554517E+03  0.7546771E-02  0.1193930E+00
         21   -1    0    0  502  501  0.00000000000E+00  0.00000000000E+00  0.16273673682E+03  0.16273673682E+03  0.00000000000E+00 0. -1.
         21   -1    0    0  501  502 -0.00000000000E+00 -0.00000000000E+00 -0.14849273844E+03  0.14849273844E+03  0.00000000000E+00 0. -1.
         25    1    1    2    0    0 -0.34869805943E+02 -0.62138252067E+01 -0.78323898477E+02  0.15170414649E+03  0.12500000000E+03 0.  0.
         25    1    1    2    0    0  0.34869805943E+02  0.62138252067E+01  0.92567896859E+02  0.15952532877E+03  0.12500000000E+03 0.  0.
</event>
<event>
 4    0  0.2219362E-002  0.1658872E+03  0.7546771E-02  0.1182206E+00
         21   -1    0    0  502  501  0.00000000000E+00  0.00000000000E+00  0.14105616142E+03  0.14105616142E+03  0.00000000000E+00 0.  1.
         21   -1    0    0  501  502 -0.00000000000E+00 -0.00000000000E+00 -0.19508948341E+03  0.19508948341E+03  0.00000000000E+00 0.  1.
         25    1    1    2    0    0  0.59340338279E+02  0.32041982323E+02  0.59819066158E+02  0.15411451928E+03  0.12500000000E+03 0.  0.
         25    1    1    2    0    0 -0.59340338279E+02 -0.32041982323E+02 -0.11385238815E+03  0.18203112554E+03  0.12500000000E+03 0.  0.
</event>
<event>
 4    0  0.2219362E-002  0.2245398E+03  0.7546771E-02  0.1130543E+00
         21   -1    0    0  502  501  0.00000000000E+00  0.00000000000E+00  0.10274327539E+03  0.10274327539E+03  0.00000000000E+00 0.  1.
         21   -1    0    0  501  502 -0.00000000000E+00 -0.00000000000E+00 -0.49071929121E+03  0.49071929121E+03  0.00000000000E+00 0.  1.
         25    1    1    2    0    0  0.13557317155E+03  0.12756954830E+03 -0.20957020413E+03  0.30691814048E+03  0.12500000000E+03 0.  0.
         25    1    1    2    0    0 -0.13557317155E+03 -0.12756954830E+03 -0.17840581168E+03  0.28654442611E+03  0.12500000000E+03 0.  0.
</event>
<event>
 4    0  0.2219362E-002  0.1833441E+03  0.7546771E-02  0.1164605E+00
         21   -1    0    0  502  501  0.00000000000E+00  0.00000000000E+00  0.13301457988E+03  0.13301457988E+03  0.00000000000E+00 0.  1.
         21   -1    0    0  501  502 -0.00000000000E+00 -0.00000000000E+00 -0.25271721696E+03  0.25271721696E+03  0.00000000000E+00 0.  1.
         25    1    1    2    0    0  0.13027792088E+01 -0.11110914085E+03 -0.13887343651E+03  0.21738852265E+03  0.12500000000E+03 0.  0.
         25    1    1    2    0    0 -0.13027792088E+01  0.11110914085E+03  0.19170799435E+02  0.16834327419E+03  0.12500000000E+03 0.  0.
</event>
<event>
 4    0  0.2219362E-002  0.1904605E+03  0.7546771E-02  0.1158047E+00
         21   -1    0    0  502  501  0.00000000000E+00  0.00000000000E+00  0.33141796027E+03  0.33141796027E+03  0.00000000000E+00 0.  1.
         21   -1    0    0  501  502 -0.00000000000E+00 -0.00000000000E+00 -0.10945453446E+03  0.10945453446E+03  0.00000000000E+00 0.  1.
         25    1    1    2    0    0  0.86481786373E+02  0.11378757163E+03  0.93679368832E+02  0.21172514016E+03  0.12500000000E+03 0.  0.
         25    1    1    2    0    0 -0.86481786373E+02 -0.11378757163E+03  0.12828405698E+03  0.22914735457E+03  0.12500000000E+03 0.  0.
</event>
<event>
 4    0  0.2219362E-002  0.2078863E+03  0.7546771E-02  0.1143251E+00
         21   -1    0    0  502  501  0.00000000000E+00  0.00000000000E+00  0.62338294287E+02  0.62338294287E+02  0.00000000000E+00 0. -1.
         21   -1    0    0  501  502 -0.00000000000E+00 -0.00000000000E+00 -0.69326140878E+03  0.69326140878E+03  0.00000000000E+00 0. -1.
         25    1    1    2    0    0  0.10858717465E+03 -0.11770586224E+03 -0.39562841633E+03  0.44473889903E+03  0.12500000000E+03 0.  0.
         25    1    1    2    0    0 -0.10858717465E+03  0.11770586224E+03 -0.23529469817E+03  0.31086080404E+03  0.12500000000E+03 0.  0.
</event>
<event>
 4    0  0.2219362E-002  0.2664922E+03  0.7546771E-02  0.1103304E+00
         21   -1    0    0  502  501  0.00000000000E+00  0.00000000000E+00  0.23701240009E+03  0.23701240009E+03  0.00000000000E+00 0. -1.
         21   -1    0    0  501  502 -0.00000000000E+00 -0.00000000000E+00 -0.29963879236E+03  0.29963879236E+03  0.00000000000E+00 0. -1.
         25    1    1    2    0    0 -0.71254038293E+02  0.26793497474E+02  0.19292520166E+03  0.24215731027E+03  0.12500000000E+03 0.  0.
         25    1    1    2    0    0  0.71254038293E+02 -0.26793497474E+02 -0.25555159393E+03  0.29449388218E+03  0.12500000000E+03 0.  0.
</event>
<event>
 4    0  0.2219362E-002  0.2283867E+03  0.7546771E-02  0.1127780E+00
         21   -1    0    0  502  501  0.00000000000E+00  0.00000000000E+00  0.56962140030E+03  0.56962140030E+03  0.00000000000E+00 0. -1.
         21   -1    0    0  501  502 -0.00000000000E+00 -0.00000000000E+00 -0.91570477129E+02  0.91570477129E+02  0.00000000000E+00 0. -1.
         25    1    1    2    0    0 -0.10192925151E+03  0.50114774926E+02  0.16489968019E+02  0.16969968186E+03  0.12500000000E+03 0.  0.
         25    1    1    2    0    0  0.10192925151E+03 -0.50114774926E+02  0.46156095515E+03  0.49149219557E+03  0.12500000000E+03 0.  0.
</event>
<event>
 4    0  0.2219362E-002  0.2046260E+03  0.7546771E-02  0.1145894E+00
         21   -1    0    0  502  501  0.00000000000E+00  0.00000000000E+00  0.32312212533E+03  0.32312212533E+03  0.00000000000E+00 0. -1.
         21   -1    0    0  501  502 -0.00000000000E+00 -0.00000000000E+00 -0.12958501271E+03  0.12958501271E+03  0.00000000000E+00 0. -1.
         25    1    1    2    0    0  0.14900561506E+02 -0.27844304519E+02  0.27254173022E+03  0.30149846888E+03  0.12500000000E+03 0.  0.
         25    1    1    2    0    0 -0.14900561506E+02  0.27844304519E+02 -0.79004617599E+02  0.15120866916E+03  0.12500000000E+03 0.  0.
</event>
<event>
 4    0  0.2219362E-002  0.2888947E+03  0.7546771E-02  0.1090928E+00
         21   -1    0    0  502  501  0.00000000000E+00  0.00000000000E+00  0.13066335992E+03  0.13066335992E+03  0.00000000000E+00 0.  1.
         21   -1    0    0  501  502 -0.00000000000E+00 -0.00000000000E+00 -0.63874188921E+03  0.63874188921E+03  0.00000000000E+00 0.  1.
         25    1    1    2    0    0  0.78924080346E+02 -0.80986109762E+01  0.76304621237E+02  0.16655927828E+03  0.12500000000E+03 0.  0.
         25    1    1    2    0    0 -0.78924080346E+02  0.80986109762E+01 -0.58438315053E+03  0.60284597086E+03  0.12500000000E+03 0.  0.
</event>
<event>
 4    0  0.2219362E-002  0.1935922E+03  0.7546771E-02  0.1155261E+00
         21   -1    0    0  502  501  0.00000000000E+00  0.00000000000E+00  0.77316486246E+02  0.77316486246E+02  0.00000000000E+00 0.  1.
         21   -1    0    0  501  502 -0.00000000000E+00 -0.00000000000E+00 -0.48473410700E+03  0.48473410700E+03  0.00000000000E+00 0.  1.
         25    1    1    2    0    0  0.11832809863E+03 -0.85035691777E+02 -0.23986386350E+03  0.30723326775E+03  0.12500000000E+03 0.  0.
         25    1    1    2    0    0 -0.11832809863E+03  0.85035691777E+02 -0.16755375725E+03  0.25481732549E+03  0.12500000000E+03 0.  0.
</event>
<event>
 4    0  0.2219362E-002  0.2121317E+03  0.7546771E-02  0.1139889E+00
         21   -1    0    0  502  501  0.00000000000E+00  0.00000000000E+00  0.36029839757E+02  0.36029839757E+02  0.00000000000E+00 0. -1.
         21   -1    0    0  501  502 -0.00000000000E+00 -0.00000000000E+00 -0.12489603588E+04  0.12489603588E+04  0.00000000000E+00 0. -1.
         25    1    1    2    0    0 -0.15626655841E+03 -0.66488516722E+02 -0.67651283355E+03  0.70861454549E+03  0.12500000000E+03 0.  0.
         25    1    1    2    0    0  0.15626655841E+03  0.66488516722E+02 -0.53641768551E+03  0.57637565308E+03  0.12500000000E+03 0.  0.
</event>
<event>
 4    0  0.2219362E-002  0.2128099E+03  0.7546771E-02  0.1139360E+00
         21   -1    0    0  502  501  0.00000000000E+00  0.00000000000E+00  0.79900729794E+03  0.79900729794E+03  0.00000000000E+00 0. -1.
         21   -1    0    0  501  502 -0.00000000000E+00 -0.00000000000E+00 -0.56680393912E+02  0.56680393912E+02  0.00000000000E+00 0. -1.
         25    1    1    2    0    0  0.16546291881E+02  0.12905559832E+03  0.14429476124E+03  0.23103052905E+03  0.12500000000E+03 0.  0.
         25    1    1    2    0    0 -0.16546291881E+02 -0.12905559832E+03  0.59803214278E+03  0.62465716279E+03  0.12500000000E+03 0.  0.
</event>
<event>
 4    0  0.2219362E-002  0.1920864E+03  0.7546771E-02  0.1156593E+00
         21   -1    0    0  502  501  0.00000000000E+00  0.00000000000E+00  0.39150870412E+03  0.39150870412E+03  0.00000000000E+00 0.  1.
         21   -1    0    0  501  502 -0.00000000000E+00 -0.00000000000E+00 -0.94243542830E+02  0.94243542830E+02  0.00000000000E+00 0.  1.
         25    1    1    2    0    0 -0.23407819710E+02  0.13162154908E+03  0.74905277093E+02  0.19775732285E+03  0.12500000000E+03 0.  0.
         25    1    1    2    0    0  0.23407819710E+02 -0.13162154908E+03  0.22235988420E+03  0.28799492410E+03  0.12500000000E+03 0.  0.
</event>
<event>
 4    0  0.2219362E-002  0.1730533E+03  0.7546771E-02  0.1174701E+00
         21   -1    0    0  502  501  0.00000000000E+00  0.00000000000E+00  0.44835686394E+03  0.44835686394E+03  0.00000000000E+00 0.  1.
         21   -1    0    0  501  502 -0.00000000000E+00 -0.00000000000E+00 -0.66793779277E+02  0.66793779277E+02  0.00000000000E+00 0.  1.
         25    1    1    2    0    0 -0.21215966592E+01  0.11498358903E+03  0.14148996617E+03  0.22106591199E+03  0.12500000000E+03 0.  0.
         25    1    1    2    0    0  0.21215966592E+01 -0.11498358903E+03  0.24007311850E+03  0.29408473123E+03  0.12500000000E+03 0.  0.
</event>
<event>
 4    0  0.2219362E-002  0.1687549E+03  0.7546771E-02  0.1179153E+00
         21   -1    0    0  502  501  0.00000000000E+00  0.00000000000E+00  0.63510880685E+02  0.63510880685E+02  0.00000000000E+00 0.  1.
         21   -1    0    0  501  502 -0.00000000000E+00 -0.00000000000E+00 -0.44839878008E+03  0.44839878008E+03  0.00000000000E+00 0.  1.
         25    1    1    2    0    0  0.93344478400E+02  0.56740435104E+02 -0.23846183789E+03  0.29055415459E+03  0.12500000000E+03 0.  0.
         25    1    1    2    0    0 -0.93344478400E+02 -0.56740435104E+02 -0.14642606151E+03  0.22135550617E+03  0.12500000000E+03 0.  0.
</event>
<event>
 4    0  0.2219362E-002  0.2652656E+03  0.7546771E-02  0.1104020E+00
         21   -1    0    0  502  501  0.00000000000E+00  0.00000000000E+00  0.34158847850E+03  0.34158847850E+03  0.00000000000E+00 0.  1.
         21   -1    0    0  501  502 -0.00000000000E+00 -0.00000000000E+00 -0.20599594324E+03  0.20599594324E+03  0.00000000000E+00 0.  1.
         25    1    1    2    0    0  0.19541680775E+03 -0.11277552514E+03  0.13171249180E+03  0.28961910903E+03  0.12500000000E+03 0.  0.
         25    1    1    2    0    0 -0.19541680775E+03  0.11277552514E+03  0.38800434526E+01  0.25796531270E+03  0.12500000000E+03 0.  0.
</event>
<event>
 4    0  0.2219362E-002  0.1789727E+03  0.7546771E-02  0.1168801E+00
         21   -1    0    0  502  501  0.00000000000E+00  0.00000000000E+00  0.38791896638E+03  0.38791896638E+03  0.00000000000E+00 0.  1.
         21   -1    0    0  501  502 -0.00000000000E+00 -0.00000000000E+00 -0.82571966826E+02  0.82571966826E+02  0.00000000000E+00 0.  1.
         25    1    1    2    0    0 -0.11721903975E+02  0.12368053342E+03  0.11169486923E+03  0.20865047614E+03  0.12500000000E+03 0.  0.
         25    1    1    2    0    0  0.11721903975E+02 -0.12368053342E+03  0.19365213032E+03  0.26184045707E+03  0.12500000000E+03 0.  0.
</event>
<event>
 4    0  0.2219362E-002  0.1746427E+03  0.7546771E-02  0.1173091E+00
         21   -1    0    0  502  501  0.00000000000E+00  0.00000000000E+00  0.38813581949E+03  0.38813581949E+03  0.00000000000E+00 0.  1.
         21   -1    0    0  501  502 -0.00000000000E+00 -0.00000000000E+00 -0.78580886683E+02  0.78580886683E+02  0.00000000000E+00 0.  1.
         25    1    1    2    0    0 -0.89872144220E+02  0.74257488337E+02  0.20265538237E+03  0.26511390172E+03  0.12500000000E+03 0.  0.
         25    1    1    2    0    0  0.89872144220E+02 -0.74257488337E+02  0.10689955043E+03  0.20160280445E+03  0.12500000000E+03 0.  0.
</event>
<event>
 4    0  0.2219362E-002  0.2268438E+03  0.7546771E-02  0.1128881E+00
         21   -1    0    0  502  501  0.00000000000E+00  0.00000000000E+00  0.54111901597E+03  0.54111901597E+03  0.00000000000E+00 0.  1.
         21   -1    0    0  501  502 -0.00000000000E+00 -0.00000000000E+00 -0.95095770298E+02  0.95095770298E+02  0.00000000000E+00 0.  1.
         25    1    1    2    0    0  0.14978588778E+03 -0.16625335850E+02  0.38364242808E+03  0.43071884866E+03  0.12500000000E+03 0.  0.
         25    1    1    2    0    0 -0.14978588778E+03  0.16625335850E+02  0.62380817595E+02  0.20549593761E+03  0.12500000000E+03 0.  0.
</event>
<event>
 4    0  0.2219362E-002  0.2161845E+03  0.7546771E-02  0.1136760E+00
         21   -1    0    0  502  501  0.00000000000E+00  0.00000000000E+00  0.51461087431E+02  0.51461087431E+02  0.00000000000E+00 0. -1.
         21   -1    0    0  501  502 -0.00000000000E+00 -0.00000000000E+00 -0.90817625491E+03  0.90817625491E+03  0.00000000000E+00 0. -1.
         25    1    1    2    0    0  0.11155251128E+03 -0.76769122616E+02 -0.17751356336E+03  0.25587795164E+03  0.12500000000E+03 0.  0.
         25    1    1    2    0    0 -0.11155251128E+03  0.76769122616E+02 -0.67920160412E+03  0.70375939070E+03  0.12500000000E+03 0.  0.
</event>
<event>
 4    0  0.2219362E-002  0.2220456E+03  0.7546771E-02  0.1132367E+00
         21   -1    0    0  502  501  0.00000000000E+00  0.00000000000E+00  0.19422682903E+03  0.19422682903E+03  0.00000000000E+00 0.  1.
         21   -1    0    0  501  502 -0.00000000000E+00 -0.00000000000E+00 -0.25384878792E+03  0.25384878792E+03  0.00000000000E+00 0.  1.
         25    1    1    2    0    0 -0.18329459678E+03  0.68202265519E+01 -0.23772264025E+02  0.22323428329E+03  0.12500000000E+03 0.  0.
         25    1    1    2    0    0  0.18329459678E+03 -0.68202265519E+01 -0.35849694871E+02  0.22484133366E+03  0.12500000000E+03 0.  0.
</event>
<event>
 4    0  0.2219362E-002  0.2311396E+03  0.7546771E-02  0.1125840E+00
         21   -1    0    0  502  501  0.00000000000E+00  0.00000000000E+00  0.83940480986E+03  0.83940480986E+03  0.00000000000E+00 0.  1.
         21   -1    0    0  501  502 -0.00000000000E+00 -0.00000000000E+00 -0.63646882578E+02  0.63646882578E+02  0.00000000000E+00 0.  1.
         25    1    1    2    0    0 -0.17665324504E+03 -0.79850275907E+02  0.41672592875E+03  0.47630655595E+03  0.12500000000E+03 0.  0.
         25    1    1    2    0    0  0.17665324504E+03  0.79850275907E+02  0.35903199853E+03  0.42674513649E+03  0.12500000000E+03 0.  0.
</event>
<event>
 4    0  0.2219362E-002  0.1993879E+03  0.7546771E-02  0.1150256E+00
         21   -1    0    0  502  501  0.00000000000E+00  0.00000000000E+00  0.22119016494E+03  0.22119016494E+03  0.00000000000E+00 0.  1.
         21   -1    0    0  501  502 -0.00000000000E+00 -0.00000000000E+00 -0.17973461523E+03  0.17973461523E+03  0.00000000000E+00 0. -1.
         25    1    1    2    0    0 -0.41077841354E+01  0.15340155766E+03 -0.35189358555E+01  0.19795528458E+03  0.12500000000E+03 0.  0.
         25    1    1    2    0    0  0.41077841354E+01 -0.15340155766E+03  0.44974485566E+02  0.20296949558E+03  0.12500000000E+03 0.  0.
</event>
<event>
 4    0  0.2219362E-002  0.2132577E+03  0.7546771E-02  0.1139012E+00
         21   -1    0    0  502  501  0.00000000000E+00  0.00000000000E+00  0.39872420148E+02  0.39872420148E+02  0.00000000000E+00 0.  1.
         21   -1    0    0  501  502 -0.00000000000E+00 -0.00000000000E+00 -0.11406092723E+04  0.11406092723E+04  0.00000000000E+00 0.  1.
         25    1    1    2    0    0 -0.16026535754E+03 -0.61919418498E+02 -0.49972167914E+03  0.54301542871E+03  0.12500000000E+03 0.  0.
         25    1    1    2    0    0  0.16026535754E+03  0.61919418498E+02 -0.60101517303E+03  0.63746626375E+03  0.12500000000E+03 0.  0.
</event>
<event>
 4    0  0.2219362E-002  0.2171483E+03  0.7546771E-02  0.1136027E+00
         21   -1    0    0  502  501  0.00000000000E+00  0.00000000000E+00  0.54976828190E+02  0.54976828190E+02  0.00000000000E+00 0. -1.
         21   -1    0    0  501  502 -0.00000000000E+00 -0.00000000000E+00 -0.85769594561E+03  0.85769594561E+03  0.00000000000E+00 0. -1.
         25    1    1    2    0    0 -0.11797394723E+03 -0.34414944983E+02 -0.67069693882E+03  0.69322552204E+03  0.12500000000E+03 0.  0.
         25    1    1    2    0    0  0.11797394723E+03  0.34414944983E+02 -0.13202217860E+03  0.21944725176E+03  0.12500000000E+03 0.  0.
</event>
<event>
 4    0  0.2219362E-002  0.1784440E+03  0.7546771E-02  0.1169317E+00
         21   -1    0    0  502  501  0.00000000000E+00  0.00000000000E+00  0.26451966020E+03  0.26451966020E+03  0.00000000000E+00 0.  1.
         21   -1    0    0  501  502 -0.00000000000E+00 -0.00000000000E+00 -0.12037768796E+03  0.12037768796E+03  0.00000000000E+00 0.  1.
         25    1    1    2    0    0 -0.70986938382E+02  0.86107440785E+02  0.13823415707E+03  0.21722642325E+03  0.12500000000E+03 0.  0.
         25    1    1    2    0    0  0.70986938382E+02 -0.86107440785E+02  0.59078151642E+01  0.16767092491E+03  0.12500000000E+03 0.  0.
</event>
<event>
 4    0  0.2219362E-002  0.3424217E+03  0.7546771E-02  0.1065769E+00
         21   -1    0    0  502  501  0.00000000000E+00  0.00000000000E+00  0.12951698244E+04  0.12951698244E+04  0.00000000000E+00 0. -1.
         21   -1    0    0  501  502 -0.00000000000E+00 -0.00000000000E+00 -0.90530697087E+02  0.90530697087E+02  0.00000000000E+00 0.  1.
         25    1    1    2    0    0 -0.12529653232E+03  0.29170119717E+03  0.54371764131E+03  0.64190550934E+03  0.12500000000E+03 0.  0.
         25    1    1    2    0    0  0.12529653232E+03 -0.29170119717E+03  0.66092148601E+03  0.74379501216E+03  0.12500000000E+03 0.  0.
</event>
<event>
 4    0  0.2219362E-002  0.2106669E+03  0.7546771E-02  0.1141039E+00
         21   -1    0    0  502  501  0.00000000000E+00  0.00000000000E+00  0.12211847392E+03  0.12211847392E+03  0.00000000000E+00 0. -1.
         21   -1    0    0  501  502 -0.00000000000E+00 -0.00000000000E+00 -0.36342200748E+03  0.36342200748E+03  0.00000000000E+00 0. -1.
         25    1    1    2    0    0 -0.12733482871E+02  0.15656129130E+02 -0.31467893628E+03  0.33919771359E+03  0.12500000000E+03 0.  0.
         25    1    1    2    0    0  0.12733482871E+02 -0.15656129130E+02  0.73375402720E+02  0.14634276781E+03  0.12500000000E+03 0.  0.
</event>
<event>
 4    0  0.2219362E-002  0.2039457E+03  0.7546771E-02  0.1146452E+00
         21   -1    0    0  502  501  0.00000000000E+00  0.00000000000E+00  0.89788441390E+02  0.89788441390E+02  0.00000000000E+00 0. -1.
         21   -1    0    0  501  502 -0.00000000000E+00 -0.00000000000E+00 -0.46324287839E+03  0.46324287839E+03  0.00000000000E+00 0. -1.
         25    1    1    2    0    0 -0.14655812395E+03 -0.32997805982E+02 -0.26579333257E+03  0.32990791826E+03  0.12500000000E+03 0.  0.
         25    1    1    2    0    0  0.14655812395E+03  0.32997805982E+02 -0.10766110444E+03  0.22312340152E+03  0.12500000000E+03 0.  0.
</event>
<event>
 4    0  0.2219362E-002  0.2266833E+03  0.7546771E-02  0.1128996E+00
         21   -1    0    0  502  501  0.00000000000E+00  0.00000000000E+00  0.17372330708E+03  0.17372330708E+03  0.00000000000E+00 0.  1.
         21   -1    0    0  501  502 -0.00000000000E+00 -0.00000000000E+00 -0.29578816942E+03  0.29578816942E+03  0.00000000000E+00 0.  1.
         25    1    1    2    0    0 -0.15309519571E+03  0.21209466778E+02 -0.17387281204E+03  0.26409228538E+03  0.12500000000E+03 0.  0.
         25    1    1    2    0    0  0.15309519571E+03 -0.21209466778E+02  0.51807949695E+02  0.20541919112E+03  0.12500000000E+03 0.  0.
</event>
<event>
 4    0  0.2219362E-002  0.1898921E+03  0.7546771E-02  0.1158559E+00
         21   -1    0    0  502  501  0.00000000000E+00  0.00000000000E+00  0.95961025731E+02  0.95961025731E+02  0.00000000000E+00 0.  1.
         21   -1    0    0  501  502 -0.00000000000E+00 -0.00000000000E+00 -0.37576723924E+03  0.37576723924E+03  0.00000000000E+00 0.  1.
         25    1    1    2    0    0 -0.15142153160E+02 -0.11713991330E+03 -0.39893466527E+02  0.17654328864E+03  0.12500000000E+03 0.  0.
         25    1    1    2    0    0  0.15142153160E+02  0.11713991330E+03 -0.23991274699E+03  0.29518497634E+03  0.12500000000E+03 0.  0.
</event>
<event>
 4    0  0.2219362E-002  0.1528942E+03  0.7546771E-02  0.1196961E+00
         21   -1    0    0  502  501  0.00000000000E+00  0.00000000000E+00  0.40199256169E+03  0.40199256169E+03  0.00000000000E+00 0.  1.
         21   -1    0    0  501  502 -0.00000000000E+00 -0.00000000000E+00 -0.58151893314E+02  0.58151893314E+02  0.00000000000E+00 0.  1.
         25    1    1    2    0    0  0.47878106539E+02  0.56781244144E+02  0.10077736023E+03  0.17691099205E+03  0.12500000000E+03 0.  0.
         25    1    1    2    0    0 -0.47878106539E+02 -0.56781244144E+02  0.24306330814E+03  0.28323346295E+03  0.12500000000E+03 0.  0.
</event>
<event>
 4    0  0.2219362E-002  0.1710443E+03  0.7546771E-02  0.1176763E+00
         21   -1    0    0  502  501  0.00000000000E+00  0.00000000000E+00  0.25788789971E+03  0.25788789971E+03  0.00000000000E+00 0.  1.
         21   -1    0    0  501  502 -0.00000000000E+00 -0.00000000000E+00 -0.11344523811E+03  0.11344523811E+03  0.00000000000E+00 0.  1.
         25    1    1    2    0    0  0.96499172074E+02 -0.63203751579E+02  0.52672000434E+02  0.17806219154E+03  0.12500000000E+03 0.  0.
         25    1    1    2    0    0 -0.96499172074E+02  0.63203751579E+02  0.91770661163E+02  0.19327094628E+03  0.12500000000E+03 0.  0.
</event>
<event>
 4    0  0.2219362E-002  0.1586227E+03  0.7546771E-02  0.1190261E+00
         21   -1    0    0  502  501  0.00000000000E+00  0.00000000000E+00  0.12487902245E+03  0.12487902245E+03  0.00000000000E+00 0.  1.
         21   -1    0    0  501  502 -0.00000000000E+00 -0.00000000000E+00 -0.20148435435E+03  0.20148435435E+03  0.00000000000E+00 0.  1.
         25    1    1    2    0    0  0.97162296512E+02  0.72205429598E+01 -0.45089324114E+02  0.16477468026E+03  0.12500000000E+03 0.  0.
         25    1    1    2    0    0 -0.97162296512E+02 -0.72205429598E+01 -0.31516007785E+02  0.16158869654E+03  0.12500000000E+03 0.  0.
</event>
<event>
 4    0  0.2219362E-002  0.2146152E+03  0.7546771E-02  0.1137963E+00
         21   -1    0    0  502  501  0.00000000000E+00  0.00000000000E+00  0.18375720884E+03  0.18375720884E+03  0.00000000000E+00 0. -1.
         21   -1    0    0  501  502 -0.00000000000E+00 -0.00000000000E+00 -0.25065499875E+03  0.25065499875E+03  0.00000000000E+00 0. -1.
         25    1    1    2    0    0 -0.11767027083E+03  0.43773626722E+02 -0.15604025339E+03  0.23608469606E+03  0.12500000000E+03 0.  0.
         25    1    1    2    0    0  0.11767027083E+03 -0.43773626722E+02  0.89142463481E+02  0.19832751153E+03  0.12500000000E+03 0.  0.
</event>
<event>
 4    0  0.2219362E-002  0.2308778E+03  0.7546771E-02  0.1126023E+00
         21   -1    0    0  502  501  0.00000000000E+00  0.00000000000E+00  0.11692485585E+04  0.11692485585E+04  0.00000000000E+00 0. -1.
         21   -1    0    0  501  502 -0.00000000000E+00 -0.00000000000E+00 -0.45588741453E+02  0.45588741453E+02  0.00000000000E+00 0. -1.
         25    1    1    2    0    0 -0.18192966852E+03 -0.60845259121E+02  0.48382797434E+03  0.53527101415E+03  0.12500000000E+03 0.  0.
         25    1    1    2    0    0  0.18192966852E+03  0.60845259121E+02  0.63983184269E+03  0.67956628578E+03  0.12500000000E+03 0.  0.
</event>
<event>
 4    0  0.2219362E-002  0.1800151E+03  0.7546771E-02  0.1167788E+00
         21   -1    0    0  502  501  0.00000000000E+00  0.00000000000E+00  0.62232232436E+02  0.62232232436E+02  0.00000000000E+00 0. -1.
         21   -1    0    0  501  502 -0.00000000000E+00 -0.00000000000E+00 -0.52071765867E+03  0.52071765867E+03  0.00000000000E+00 0. -1.
         25    1    1    2    0    0 -0.83731965089E+02 -0.48083947317E+02 -0.89418104186E+02  0.18150400911E+03  0.12500000000E+03 0.  0.
         25    1    1    2    0    0  0.83731965089E+02  0.48083947317E+02 -0.36906732205E+03  0.40144588200E+03  0.12500000000E+03 0.  0.
</event>
<event>
 4    0  0.2219362E-002  0.1805926E+03  0.7546771E-02  0.1167231E+00
         21   -1    0    0  502  501  0.00000000000E+00  0.00000000000E+00  0.19691758854E+04  0.19691758854E+04  0.00000000000E+00 0.  1.
         21   -1    0    0  501  502 -0.00000000000E+00 -0.00000000000E+00 -0.16562103688E+02  0.16562103688E+02  0.00000000000E+00 0.  1.
         25    1    1    2    0    0  0.10021027092E+03 -0.40378438519E+02  0.13771659677E+04  0.13870413185E+04  0.12500000000E+03 0.  0.
         25    1    1    2    0    0 -0.10021027092E+03  0.40378438519E+02  0.57544781399E+03  0.59869667054E+03  0.12500000000E+03 0.  0.
</event>
<event>
 4    0  0.2219362E-002  0.1751948E+03  0.7546771E-02  0.1172536E+00
         21   -1    0    0  502  501  0.00000000000E+00  0.00000000000E+00  0.22551508933E+03  0.22551508933E+03  0.00000000000E+00 0.  1.
         21   -1    0    0  501  502 -0.00000000000E+00 -0.00000000000E+00 -0.13610268071E+03  0.13610268071E+03  0.00000000000E+00 0.  1.
         25    1    1    2    0    0  0.55445694899E+02  0.19049990597E+02  0.15600966429E+03  0.20832940881E+03  0.12500000000E+03 0.  0.
         25    1    1    2    0    0 -0.55445694899E+02 -0.19049990597E+02 -0.66597255676E+02  0.15328836123E+03  0.12500000000E+03 0.  0.
</event>
<event>
 4    0  0.2219362E-002  0.1660614E+03  0.7546771E-02  0.1182019E+00
         21   -1    0    0  502  501  0.00000000000E+00  0.00000000000E+00  0.15318729494E+02  0.15318729494E+02  0.00000000000E+00 0. -1.
         21   -1    0    0  501  502 -0.00000000000E+00 -0.00000000000E+00 -0.18001747770E+04  0.18001747770E+04  0.00000000000E+00 0. -1.
         25    1    1    2    0    0  0.10263879599E+03  0.35099082732E+01 -0.10972768358E+04  0.11091386281E+04  0.12500000000E+03 0.  0.
         25    1    1    2    0    0 -0.10263879599E+03 -0.35099082732E+01 -0.68757921167E+03  0.70635487839E+03  0.12500000000E+03 0.  0.
</event>
<event>
 4    0  0.2219362E-002  0.1720025E+03  0.7546771E-02  0.1175775E+00
         21   -1    0    0  502  501  0.00000000000E+00  0.00000000000E+00  0.73872448592E+02  0.73872448592E+02  0.00000000000E+00 0.  1.
         21   -1    0    0  501  502 -0.00000000000E+00 -0.00000000000E+00 -0.40048583680E+03  0.40048583680E+03  0.00000000000E+00 0.  1.
         25    1    1    2    0    0 -0.11774821144E+03  0.79788855838E+01 -0.17105394923E+03  0.24251341707E+03  0.12500000000E+03 0.  0.
         25    1    1    2    0    0  0.11774821144E+03 -0.79788855838E+01 -0.15555943898E+03  0.23184486832E+03  0.12500000000E+03 0.  0.
</event>
<event>
 4    0  0.2219362E-002  0.4140970E+03  0.7546771E-02  0.1039005E+00
         21   -1    0    0  502  501  0.00000000000E+00  0.00000000000E+00  0.19772371142E+04  0.19772371142E+04  0.00000000000E+00 0.  1.
         21   -1    0    0  501  502 -0.00000000000E+00 -0.00000000000E+00 -0.86725238636E+02  0.86725238636E+02  0.00000000000E+00 0.  1.
         25    1    1    2    0    0 -0.36921929222E+03 -0.11799460980E+03  0.75866678664E+03  0.86107253286E+03  0.12500000000E+03 0.  0.
         25    1    1    2    0    0  0.36921929222E+03  0.11799460980E+03  0.11318450889E+04  0.12028898200E+04  0.12500000000E+03 0.  0.
</event>
<event>
 4    0  0.2219362E-002  0.5235216E+03  0.7546771E-02  0.1007815E+00
         21   -1    0    0  502  501  0.00000000000E+00  0.00000000000E+00  0.23229415115E+04  0.23229415115E+04  0.00000000000E+00 0. -1.
         21   -1    0    0  501  502 -0.00000000000E+00 -0.00000000000E+00 -0.11798610536E+03  0.11798610536E+03  0.00000000000E+00 0. -1.
         25    1    1    2    0    0 -0.36683802994E+03 -0.29722374535E+03  0.15419536979E+04  0.16174542656E+04  0.12500000000E+03 0.  0.
         25    1    1    2    0    0  0.36683802994E+03  0.29722374535E+03  0.66300170823E+03  0.82347335119E+03  0.12500000000E+03 0.  0.
</event>
<event>
 4    0  0.2219362E-002  0.2022687E+03  0.7546771E-02  0.1147839E+00
         21   -1    0    0  502  501  0.00000000000E+00  0.00000000000E+00  0.41860508778E+02  0.41860508778E+02  0.00000000000E+00 0.  1.
         21   -1    0    0  501  502 -0.00000000000E+00 -0.00000000000E+00 -0.97735620174E+03  0.97735620174E+03  0.00000000000E+00 0.  1.
         25    1    1    2    0    0 -0.10835490972E+03 -0.11582420128E+03 -0.49664991099E+03  0.53613633168E+03  0.12500000000E+03 0.  0.
         25    1    1    2    0    0  0.10835490972E+03  0.11582420128E+03 -0.43884578197E+03  0.48308037883E+03  0.12500000000E+03 0.  0.
</event>
<event>
 4    0  0.2219362E-002  0.1886830E+03  0.7546771E-02  0.1159655E+00
         21   -1    0    0  502  501  0.00000000000E+00  0.00000000000E+00  0.86548918891E+02  0.86548918891E+02  0.00000000000E+00 0.  1.
         21   -1    0    0  501  502 -0.00000000000E+00 -0.00000000000E+00 -0.41134285528E+03  0.41134285528E+03  0.00000000000E+00 0.  1.
         25    1    1    2    0    0 -0.12606467725E+02  0.30786402598E+02  0.18842578853E+02  0.13071636620E+03  0.12500000000E+03 0.  0.
         25    1    1    2    0    0  0.12606467725E+02 -0.30786402598E+02 -0.34363651524E+03  0.36717540797E+03  0.12500000000E+03 0.  0.
</event>
<event>
 4    0  0.2219362E-002  0.2157020E+03  0.7546771E-02  0.1137129E+00
         21   -1    0    0  502  501  0.00000000000E+00  0.00000000000E+00  0.65759021290E+02  0.65759021290E+02  0.00000000000E+00 0.  1.
         21   -1    0    0  501  502 -0.00000000000E+00 -0.00000000000E+00 -0.70754348838E+03  0.70754348838E+03  0.00000000000E+00 0.  1.
         25    1    1    2    0    0 -0.51432647036E+02 -0.58149707945E+02 -0.60360961155E+03  0.62128597994E+03  0.12500000000E+03 0.  0.
         25    1    1    2    0    0  0.51432647036E+02  0.58149707945E+02 -0.38174855538E+02  0.15201652973E+03  0.12500000000E+03 0.  0.
</event>
<event>
 4    0  0.2219362E-002  0.1983863E+03  0.7546771E-02  0.1151108E+00
         21   -1    0    0  502  501  0.00000000000E+00  0.00000000000E+00  0.58440940818E+02  0.58440940818E+02  0.00000000000E+00 0. -1.
         21   -1    0    0  501  502 -0.00000000000E+00 -0.00000000000E+00 -0.67345104864E+03  0.67345104864E+03  0.00000000000E+00 0. -1.
         25    1    1    2    0    0 -0.11619441889E+03  0.98673366976E+02 -0.34852589662E+03  0.40041587998E+03  0.12500000000E+03 0.  0.
         25    1    1    2    0    0  0.11619441889E+03 -0.98673366976E+02 -0.26648421121E+03  0.33147610947E+03  0.12500000000E+03 0.  0.
</event>
<event>
 4    0  0.2219362E-002  0.1904950E+03  0.7546771E-02  0.1158016E+00
         21   -1    0    0  502  501  0.00000000000E+00  0.00000000000E+00  0.31019356372E+02  0.31019356372E+02  0.00000000000E+00 0. -1.
         21   -1    0    0  501  502 -0.00000000000E+00 -0.00000000000E+00 -0.11698617909E+04  0.11698617909E+04  0.00000000000E+00 0. -1.
         25    1    1    2    0    0 -0.67100511050E+02  0.11993086132E+03 -0.43653269656E+03  0.47441720590E+03  0.12500000000E+03 0.  0.
         25    1    1    2    0    0  0.67100511050E+02 -0.11993086132E+03 -0.70230973794E+03  0.72646394136E+03  0.12500000000E+03 0.  0.
</event>
<event>
 4    0  0.2219362E-002  0.2500888E+03  0.7546771E-02  0.1113249E+00
         21   -1    0    0  502  501  0.00000000000E+00  0.00000000000E+00  0.45169990948E+03  0.45169990948E+03  0.00000000000E+00 0. -1.
         21   -1    0    0  501  502 -0.00000000000E+00 -0.00000000000E+00 -0.13846452044E+03  0.13846452044E+03  0.00000000000E+00 0. -1.
         25    1    1    2    0    0 -0.18114966578E+03  0.29552240882E+02  0.29233744832E+03  0.36711676622E+03  0.12500000000E+03 0.  0.
         25    1    1    2    0    0  0.18114966578E+03 -0.29552240882E+02  0.20897940728E+02  0.22304766370E+03  0.12500000000E+03 0.  0.
</event>
<event>
 4    0  0.2219362E-002  0.2811213E+03  0.7546771E-02  0.1095078E+00
         21   -1    0    0  502  501  0.00000000000E+00  0.00000000000E+00  0.35413059495E+03  0.35413059495E+03  0.00000000000E+00 0.  1.
         21   -1    0    0  501  502 -0.00000000000E+00 -0.00000000000E+00 -0.22316402954E+03  0.22316402954E+03  0.00000000000E+00 0.  1.
         25    1    1    2    0    0  0.21487603937E+03 -0.63707241651E+01 -0.69144839243E+02  0.25810522508E+03  0.12500000000E+03 0.  0.
         25    1    1    2    0    0 -0.21487603937E+03  0.63707241651E+01  0.20011140465E+03  0.31918939941E+03  0.12500000000E+03 0.  0.
</event>
<event>
 4    0  0.2219362E-002  0.2971798E+03  0.7546771E-02  0.1086659E+00
         21   -1    0    0  502  501  0.00000000000E+00  0.00000000000E+00  0.46684040139E+03  0.46684040139E+03  0.00000000000E+00 0. -1.
         21   -1    0    0  501  502 -0.00000000000E+00 -0.00000000000E+00 -0.18917772680E+03  0.18917772680E+03  0.00000000000E+00 0. -1.
         25    1    1    2    0    0 -0.23826455859E+03 -0.11699186787E+03  0.19099642150E+03  0.35008817469E+03  0.12500000000E+03 0.  0.
         25    1    1    2    0    0  0.23826455859E+03  0.11699186787E+03  0.86666253091E+02  0.30592995351E+03  0.12500000000E+03 0.  0.
</event>
<event>
 4    0  0.2219362E-002  0.1826688E+03  0.7546771E-02  0.1165245E+00
         21   -1    0    0  502  501  0.00000000000E+00  0.00000000000E+00  0.23837765832E+03  0.23837765832E+03  0.00000000000E+00 0. -1.
         21   -1    0    0  501  502 -0.00000000000E+00 -0.00000000000E+00 -0.13997909517E+03  0.13997909517E+03  0.00000000000E+00 0. -1.
         25    1    1    2    0    0 -0.41952271528E+02  0.11838459296E+03  0.95142129065E+02  0.20112665080E+03  0.12500000000E+03 0.  0.
         25    1    1    2    0    0  0.41952271528E+02 -0.11838459296E+03  0.32564340910E+01  0.17723010269E+03  0.12500000000E+03 0.  0.
</event>
<event>
 4    0  0.2219362E-002  0.2721077E+03  0.7546771E-02  0.1100079E+00
         21   -1    0    0  502  501  0.00000000000E+00  0.00000000000E+00  0.38984371188E+03  0.38984371188E+03  0.00000000000E+00 0. -1.
         21   -1    0    0  501  502 -0.00000000000E+00 -0.00000000000E+00 -0.18992888344E+03  0.18992888344E+03  0.00000000000E+00 0.  1.
         25    1    1    2    0    0 -0.79538835644E+02  0.20939217852E+03  0.19669838137E+03  0.32324412452E+03  0.12500000000E+03 0.  0.
         25    1    1    2    0    0  0.79538835644E+02 -0.20939217852E+03  0.32164470673E+01  0.25652847080E+03  0.12500000000E+03 0.  0.
</event>
<event>
 4    0  0.2219362E-002  0.1927829E+03  0.7546771E-02  0.1155975E+00
         21   -1    0    0  502  501  0.00000000000E+00  0.00000000000E+00  0.14905519777E+03  0.14905519777E+03  0.00000000000E+00 0.  1.
         21   -1    0    0  501  502 -0.00000000000E+00 -0.00000000000E+00 -0.24933882717E+03  0.24933882717E+03  0.00000000000E+00 0.  1.
         25    1    1    2    0    0  0.12784337076E+03  0.55188892278E+02 -0.22253548656E+01  0.18713549498E+03  0.12500000000E+03 0.  0.
         25    1    1    2    0    0 -0.12784337076E+03 -0.55188892278E+02 -0.98058274532E+02  0.21125852996E+03  0.12500000000E+03 0.  0.
</event>
<event>
 4    0  0.2219362E-002  0.3277997E+03  0.7546771E-02  0.1072115E+00
         21   -1    0    0  502  501  0.00000000000E+00  0.00000000000E+00  0.55105366609E+03  0.55105366609E+03  0.00000000000E+00 0. -1.
         21   -1    0    0  501  502 -0.00000000000E+00 -0.00000000000E+00 -0.19499491309E+03  0.19499491309E+03  0.00000000000E+00 0. -1.
         25    1    1    2    0    0  0.68240312742E+02 -0.29057596288E+03  0.11850035712E+03  0.34461350107E+03  0.12500000000E+03 0.  0.
         25    1    1    2    0    0 -0.68240312742E+02  0.29057596288E+03  0.23755839587E+03  0.40143507810E+03  0.12500000000E+03 0.  0.
</event>
<event>
 4    0  0.2219362E-002  0.2586279E+03  0.7546771E-02  0.1107970E+00
         21   -1    0    0  502  501  0.00000000000E+00  0.00000000000E+00  0.18421381733E+03  0.18421381733E+03  0.00000000000E+00 0.  1.
         21   -1    0    0  501  502 -0.00000000000E+00 -0.00000000000E+00 -0.36310181832E+03  0.36310181832E+03  0.00000000000E+00 0.  1.
         25    1    1    2    0    0 -0.10038773667E+03  0.18046480809E+03  0.87848363508E+01  0.24155210200E+03  0.12500000000E+03 0.  0.
         25    1    1    2    0    0  0.10038773667E+03 -0.18046480809E+03 -0.18767283734E+03  0.30576353364E+03  0.12500000000E+03 0.  0.
</event>
<event>
 4    0  0.2219362E-002  0.2788418E+03  0.7546771E-02  0.1096323E+00
         21   -1    0    0  502  501  0.00000000000E+00  0.00000000000E+00  0.50144986812E+02  0.50144986812E+02  0.00000000000E+00 0.  1.
         21   -1    0    0  501  502 -0.00000000000E+00 -0.00000000000E+00 -0.15505586671E+04  0.15505586671E+04  0.00000000000E+00 0.  1.
         25    1    1    2    0    0 -0.76787736312E+02 -0.11645388665E+03 -0.15730364884E+03  0.24459620214E+03  0.12500000000E+03 0.  0.
         25    1    1    2    0    0  0.76787736312E+02  0.11645388665E+03 -0.13431100315E+04  0.13561074518E+04  0.12500000000E+03 0.  0.
</event>
<event>
 4    0  0.2219362E-002  0.5018866E+03  0.7546771E-02  0.1013288E+00
         21   -1    0    0  502  501  0.00000000000E+00  0.00000000000E+00  0.66027253234E+03  0.66027253234E+03  0.00000000000E+00 0.  1.
         21   -1    0    0  501  502 -0.00000000000E+00 -0.00000000000E+00 -0.38149424445E+03  0.38149424445E+03  0.00000000000E+00 0. -1.
         25    1    1    2    0    0 -0.45903657534E+03 -0.10265105401E+03  0.12222337141E+02  0.48685336798E+03  0.12500000000E+03 0.  0.
         25    1    1    2    0    0  0.45903657534E+03  0.10265105401E+03  0.26655595075E+03  0.55491340880E+03  0.12500000000E+03 0.  0.
</event>
<event>
 4    0  0.2219362E-002  0.2789959E+03  0.7546771E-02  0.1096239E+00
         21   -1    0    0  502  501  0.00000000000E+00  0.00000000000E+00  0.22707930829E+04  0.22707930829E+04  0.00000000000E+00 0. -1.
         21   -1    0    0  501  502 -0.00000000000E+00 -0.00000000000E+00 -0.34278197876E+02  0.34278197876E+02  0.00000000000E+00 0. -1.
         25    1    1    2    0    0 -0.27115821175E+02 -0.15217363023E+03  0.19269407585E+04  0.19371674600E+04  0.12500000000E+03 0.  0.
         25    1    1    2    0    0  0.27115821175E+02  0.15217363023E+03  0.30957412653E+03  0.36790382073E+03  0.12500000000E+03 0.  0.
</event>
<event>
 4    0  0.2219362E-002  0.1991606E+03  0.7546771E-02  0.1150449E+00
         21   -1    0    0  502  501  0.00000000000E+00  0.00000000000E+00  0.18695314286E+04  0.18695314286E+04  0.00000000000E+00 0. -1.
         21   -1    0    0  501  502 -0.00000000000E+00 -0.00000000000E+00 -0.21216525626E+02  0.21216525626E+02  0.00000000000E+00 0. -1.
         25    1    1    2    0    0 -0.55612563934E+02 -0.95161138874E+02  0.14417876136E+04  0.14513872407E+04  0.12500000000E+03 0.  0.
         25    1    1    2    0    0  0.55612563934E+02  0.95161138874E+02  0.40652728935E+03  0.43936071354E+03  0.12500000000E+03 0.  0.
</event>
<event>
 4    0  0.2219362E-002  0.1997030E+03  0.7546771E-02  0.1149990E+00
         21   -1    0    0  502  501  0.00000000000E+00  0.00000000000E+00  0.15233264040E+02  0.15233264040E+02  0.00000000000E+00 0. -1.
         21   -1    0    0  501  502 -0.00000000000E+00 -0.00000000000E+00 -0.26180406858E+04  0.26180406858E+04  0.00000000000E+00 0. -1.
         25    1    1    2    0    0  0.80823977642E+02  0.13787085563E+02 -0.21744117158E+04  0.21795444269E+04  0.12500000000E+03 0.  0.
         25    1    1    2    0    0 -0.80823977642E+02 -0.13787085563E+02 -0.42839570598E+03  0.45372952295E+03  0.12500000000E+03 0.  0.
</event>
<event>
 4    0  0.2219362E-002  0.1696919E+03  0.7546771E-02  0.1178170E+00
         21   -1    0    0  502  501  0.00000000000E+00  0.00000000000E+00  0.16555746739E+03  0.16555746739E+03  0.00000000000E+00 0.  1.
         21   -1    0    0  501  502 -0.00000000000E+00 -0.00000000000E+00 -0.17392952216E+03  0.17392952216E+03  0.00000000000E+00 0.  1.
         25    1    1    2    0    0  0.10115870448E+03 -0.17182288043E+02  0.47230160978E+02  0.16847552528E+03  0.12500000000E+03 0.  0.
         25    1    1    2    0    0 -0.10115870448E+03  0.17182288043E+02 -0.55602215753E+02  0.17101146427E+03  0.12500000000E+03 0.  0.
</event>
<event>
 4    0  0.2219362E-002  0.2573665E+03  0.7546771E-02  0.1108736E+00
         21   -1    0    0  502  501  0.00000000000E+00  0.00000000000E+00  0.70579883314E+03  0.70579883314E+03  0.00000000000E+00 0. -1.
         21   -1    0    0  501  502 -0.00000000000E+00 -0.00000000000E+00 -0.93847581515E+02  0.93847581515E+02  0.00000000000E+00 0. -1.
         25    1    1    2    0    0  0.11595334092E+03  0.16204795258E+03  0.14372569587E+03  0.27565701852E+03  0.12500000000E+03 0.  0.
         25    1    1    2    0    0 -0.11595334092E+03 -0.16204795258E+03  0.46822555575E+03  0.52398939614E+03  0.12500000000E+03 0.  0.
</event>
<event>
 4    0  0.2219362E-002  0.5614223E+03  0.7546771E-02  0.9988841E-01
         21   -1    0    0  502  501  0.00000000000E+00  0.00000000000E+00  0.12498346815E+04  0.12498346815E+04  0.00000000000E+00 0.  1.
         21   -1    0    0  501  502 -0.00000000000E+00 -0.00000000000E+00 -0.25218938039E+03  0.25218938039E+03  0.00000000000E+00 0. -1.
         25    1    1    2    0    0  0.57596663516E+02  0.54103282814E+03  0.41927602484E+03  0.69817711347E+03  0.12500000000E+03 0.  0.
         25    1    1    2    0    0 -0.57596663516E+02 -0.54103282814E+03  0.57836927632E+03  0.80384694847E+03  0.12500000000E+03 0.  0.
</event>
<event>
 4    0  0.2219362E-002  0.1912120E+03  0.7546771E-02  0.1157373E+00
         21   -1    0    0  502  501  0.00000000000E+00  0.00000000000E+00  0.89719186330E+02  0.89719186330E+02  0.00000000000E+00 0. -1.
         21   -1    0    0  501  502 -0.00000000000E+00 -0.00000000000E+00 -0.40751622320E+03  0.40751622320E+03  0.00000000000E+00 0. -1.
         25    1    1    2    0    0  0.35559656634E+02  0.74285560294E+02 -0.31358752616E+03  0.34748376971E+03  0.12500000000E+03 0.  0.
         25    1    1    2    0    0 -0.35559656634E+02 -0.74285560294E+02 -0.42095107076E+01  0.14975163982E+03  0.12500000000E+03 0.  0.
</event>
<event>
 4    0  0.2219362E-002  0.2860257E+03  0.7546771E-02  0.1092443E+00
         21   -1    0    0  502  501  0.00000000000E+00  0.00000000000E+00  0.75661440820E+02  0.75661440820E+02  0.00000000000E+00 0. -1.
         21   -1    0    0  501  502 -0.00000000000E+00 -0.00000000000E+00 -0.10812736997E+04  0.10812736997E+04  0.00000000000E+00 0. -1.
         25    1    1    2    0    0  0.24027617877E+03 -0.52605236750E+02 -0.35030654768E+03  0.44591437560E+03  0.12500000000E+03 0.  0.
         25    1    1    2    0    0 -0.24027617877E+03  0.52605236750E+02 -0.65530571124E+03  0.71102076496E+03  0.12500000000E+03 0.  0.
</event>
<event>
 4    0  0.2219362E-002  0.2217997E+03  0.7546771E-02  0.1132548E+00
         21   -1    0    0  502  501  0.00000000000E+00  0.00000000000E+00  0.10722861160E+03  0.10722861160E+03  0.00000000000E+00 0. -1.
         21   -1    0    0  501  502 -0.00000000000E+00 -0.00000000000E+00 -0.45878693828E+03  0.45878693828E+03  0.00000000000E+00 0. -1.
         25    1    1    2    0    0 -0.16097422338E+03 -0.53872934551E+02 -0.26376585713E+03  0.33765725382E+03  0.12500000000E+03 0.  0.
         25    1    1    2    0    0  0.16097422338E+03  0.53872934551E+02 -0.87792469552E+02  0.22835829606E+03  0.12500000000E+03 0.  0.
</event>
<event>
 4    0  0.2219362E-002  0.1785944E+03  0.7546771E-02  0.1169170E+00
         21   -1    0    0  502  501  0.00000000000E+00  0.00000000000E+00  0.49998244563E+03  0.49998244563E+03  0.00000000000E+00 0.  1.
         21   -1    0    0  501  502 -0.00000000000E+00 -0.00000000000E+00 -0.63794154258E+02  0.63794154258E+02  0.00000000000E+00 0.  1.
         25    1    1    2    0    0  0.30467399373E+02  0.56278452647E+02  0.39225534028E+03  0.41663506649E+03  0.12500000000E+03 0.  0.
         25    1    1    2    0    0 -0.30467399373E+02 -0.56278452647E+02  0.43932951093E+02  0.14714153339E+03  0.12500000000E+03 0.  0.
</event>
<event>
 4    0  0.2219362E-002  0.1620439E+03  0.7546771E-02  0.1186408E+00
         21   -1    0    0  502  501  0.00000000000E+00  0.00000000000E+00  0.14587082206E+03  0.14587082206E+03  0.00000000000E+00 0.  1.
         21   -1    0    0  501  502 -0.00000000000E+00 -0.00000000000E+00 -0.18001016449E+03  0.18001016449E+03  0.00000000000E+00 0.  1.
         25    1    1    2    0    0 -0.83319028143E+02 -0.60673902245E+02 -0.20225156049E+02  0.16327106235E+03  0.12500000000E+03 0.  0.
         25    1    1    2    0    0  0.83319028143E+02  0.60673902245E+02 -0.13914186385E+02  0.16260992420E+03  0.12500000000E+03 0.  0.
</event>
<event>
 4    0  0.2219362E-002  0.3866099E+03  0.7546771E-02  0.1048517E+00
         21   -1    0    0  502  501  0.00000000000E+00  0.00000000000E+00  0.29876995974E+03  0.29876995974E+03  0.00000000000E+00 0. -1.
         21   -1    0    0  501  502 -0.00000000000E+00 -0.00000000000E+00 -0.50027515331E+03  0.50027515331E+03  0.00000000000E+00 0. -1.
         25    1    1    2    0    0  0.92790541869E+02  0.10552347763E+03 -0.44981678267E+03  0.48755043530E+03  0.12500000000E+03 0.  0.
         25    1    1    2    0    0 -0.92790541869E+02 -0.10552347763E+03  0.24831158909E+03  0.31149467776E+03  0.12500000000E+03 0.  0.
</event>
<event>
 4    0  0.2219362E-002  0.2411742E+03  0.7546771E-02  0.1119013E+00
         21   -1    0    0  502  501  0.00000000000E+00  0.00000000000E+00  0.67739962540E+02  0.67739962540E+02  0.00000000000E+00 0. -1.
         21   -1    0    0  501  502 -0.00000000000E+00 -0.00000000000E+00 -0.85865127825E+03  0.85865127825E+03  0.00000000000E+00 0. -1.
         25    1    1    2    0    0  0.14798064015E+03 -0.11365795751E+03 -0.22666688157E+03  0.31909132919E+03  0.12500000000E+03 0.  0.
         25    1    1    2    0    0 -0.14798064015E+03  0.11365795751E+03 -0.56424443414E+03  0.60729991160E+03  0.12500000000E+03 0.  0.
</event>
<event>
 4    0  0.2219362E-002  0.2683022E+03  0.7546771E-02  0.1102255E+00
         21   -1    0    0  502  501  0.00000000000E+00  0.00000000000E+00  0.87316250086E+03  0.87316250086E+03  0.00000000000E+00 0.  1.
         21   -1    0    0  501  502 -0.00000000000E+00 -0.00000000000E+00 -0.82442917616E+02  0.82442917616E+02  0.00000000000E+00 0.  1.
         25    1    1    2    0    0  0.21757566112E+03 -0.27801183122E+02  0.55710252672E+03  0.61163739207E+03  0.12500000000E+03 0.  0.
         25    1    1    2    0    0 -0.21757566112E+03  0.27801183122E+02  0.23361705652E+03  0.34396802641E+03  0.12500000000E+03 0.  0.
</event>
<event>
 4    0  0.2219362E-002  0.2335254E+03  0.7546771E-02  0.1124183E+00
         21   -1    0    0  502  501  0.00000000000E+00  0.00000000000E+00  0.13589320300E+03  0.13589320300E+03  0.00000000000E+00 0.  1.
         21   -1    0    0  501  502 -0.00000000000E+00 -0.00000000000E+00 -0.40130131013E+03  0.40130131013E+03  0.00000000000E+00 0.  1.
         25    1    1    2    0    0 -0.18435051627E+03 -0.22706476119E+02 -0.56336466222E+02  0.23086683247E+03  0.12500000000E+03 0.  0.
         25    1    1    2    0    0  0.18435051627E+03  0.22706476119E+02 -0.20907164090E+03  0.30632768066E+03  0.12500000000E+03 0.  0.
</event>
<event>
 4    0  0.2219362E-002  0.3132200E+03  0.7546771E-02  0.1078813E+00
         21   -1    0    0  502  501  0.00000000000E+00  0.00000000000E+00  0.70432224253E+03  0.70432224253E+03  0.00000000000E+00 0.  1.
         21   -1    0    0  501  502 -0.00000000000E+00 -0.00000000000E+00 -0.13929248104E+03  0.13929248104E+03  0.00000000000E+00 0.  1.
         25    1    1    2    0    0 -0.81252536764E+02  0.18356714950E+03  0.59271357765E+01  0.23655655570E+03  0.12500000000E+03 0.  0.
         25    1    1    2    0    0  0.81252536764E+02 -0.18356714950E+03  0.55910262571E+03  0.60705816787E+03  0.12500000000E+03 0.  0.
</event>
<event>
 4    0  0.2219362E-002  0.1650587E+03  0.7546771E-02  0.1183101E+00
         21   -1    0    0  502  501  0.00000000000E+00  0.00000000000E+00  0.60050109560E+03  0.60050109560E+03  0.00000000000E+00 0.  1.
         21   -1    0    0  501  502 -0.00000000000E+00 -0.00000000000E+00 -0.45369404421E+02  0.45369404421E+02  0.00000000000E+00 0.  1.
         25    1    1    2    0    0  0.62025244823E+02 -0.14396526854E+02  0.10739659803E+03  0.17667320184E+03  0.12500000000E+03 0.  0.
         25    1    1    2    0    0 -0.62025244823E+02  0.14396526854E+02  0.44773509315E+03  0.46919729818E+03  0.12500000000E+03 0.  0.
</event>
<event>
 4    0  0.2219362E-002  0.2548924E+03  0.7546771E-02  0.1110251E+00
         21   -1    0    0  502  501  0.00000000000E+00  0.00000000000E+00  0.14412478455E+03  0.14412478455E+03  0.00000000000E+00 0.  1.
         21   -1    0    0  501  502 -0.00000000000E+00 -0.00000000000E+00 -0.45079092963E+03  0.45079092963E+03  0.00000000000E+00 0.  1.
         25    1    1    2    0    0 -0.22989239249E+02  0.21897995492E+03 -0.11902226916E+03  0.27977138226E+03  0.12500000000E+03 0.  0.
         25    1    1    2    0    0  0.22989239249E+02 -0.21897995492E+03 -0.18764387592E+03  0.31514433193E+03  0.12500000000E+03 0.  0.
</event>
<event>
 4    0  0.2219362E-002  0.2227098E+03  0.7546771E-02  0.1131879E+00
         21   -1    0    0  502  501  0.00000000000E+00  0.00000000000E+00  0.60824307193E+03  0.60824307193E+03  0.00000000000E+00 0. -1.
         21   -1    0    0  501  502 -0.00000000000E+00 -0.00000000000E+00 -0.81545803388E+02  0.81545803388E+02  0.00000000000E+00 0. -1.
         25    1    1    2    0    0  0.13441855776E+03  0.11819198636E+03  0.19519188367E+03  0.29285246415E+03  0.12500000000E+03 0.  0.
         25    1    1    2    0    0 -0.13441855776E+03 -0.11819198636E+03  0.33150538487E+03  0.39693641117E+03  0.12500000000E+03 0.  0.
</event>
<event>
 4    0  0.2219362E-002  0.2294851E+03  0.7546771E-02  0.1127003E+00
         21   -1    0    0  502  501  0.00000000000E+00  0.00000000000E+00  0.30168624701E+03  0.30168624701E+03  0.00000000000E+00 0.  1.
         21   -1    0    0  501  502 -0.00000000000E+00 -0.00000000000E+00 -0.17456358179E+03  0.17456358179E+03  0.00000000000E+00 0.  1.
         25    1    1    2    0    0  0.10345928220E+03 -0.36003878004E+02 -0.10063102320E+03  0.19429798026E+03  0.12500000000E+03 0.  0.
         25    1    1    2    0    0 -0.10345928220E+03  0.36003878004E+02  0.22775368842E+03  0.28195184853E+03  0.12500000000E+03 0.  0.
</event>
<event>
 4    0  0.2219362E-002  0.2372130E+03  0.7546771E-02  0.1121664E+00
         21   -1    0    0  502  501  0.00000000000E+00  0.00000000000E+00  0.34667812074E+03  0.34667812074E+03  0.00000000000E+00 0. -1.
         21   -1    0    0  501  502 -0.00000000000E+00 -0.00000000000E+00 -0.16231191056E+03  0.16231191056E+03  0.00000000000E+00 0. -1.
         25    1    1    2    0    0 -0.12621426883E+03  0.49266721866E+00 -0.76479410591E+02  0.19340213190E+03  0.12500000000E+03 0.  0.
         25    1    1    2    0    0  0.12621426883E+03 -0.49266721866E+00  0.26084562077E+03  0.31558789941E+03  0.12500000000E+03 0.  0.
</event>
<event>
 4    0  0.2219362E-002  0.3064458E+03  0.7546771E-02  0.1082062E+00
         21   -1    0    0  502  501  0.00000000000E+00  0.00000000000E+00  0.55957799137E+03  0.55957799137E+03  0.00000000000E+00 0.  1.
         21   -1    0    0  501  502 -0.00000000000E+00 -0.00000000000E+00 -0.16782119344E+03  0.16782119344E+03  0.00000000000E+00 0. -1.
         25    1    1    2    0    0 -0.23681697721E+03 -0.96954836070E+02  0.61595731291E+02  0.29137871413E+03  0.12500000000E+03 0.  0.
         25    1    1    2    0    0  0.23681697721E+03  0.96954836070E+02  0.33016106664E+03  0.43602047069E+03  0.12500000000E+03 0.  0.
</event>
<event>
 4    0  0.2219362E-002  0.1661213E+03  0.7546771E-02  0.1181954E+00
         21   -1    0    0  502  501  0.00000000000E+00  0.00000000000E+00  0.12209580890E+02  0.12209580890E+02  0.00000000000E+00 0.  1.
         21   -1    0    0  501  502 -0.00000000000E+00 -0.00000000000E+00 -0.22602165994E+04  0.22602165994E+04  0.00000000000E+00 0.  1.
         25    1    1    2    0    0  0.88507140089E+02  0.61405776442E+02 -0.12550528844E+04  0.12658542277E+04  0.12500000000E+03 0.  0.
         25    1    1    2    0    0 -0.88507140089E+02 -0.61405776442E+02 -0.99295413411E+03  0.10065719526E+04  0.12500000000E+03 0.  0.
</event>
<event>
 4    0  0.2219362E-002  0.3138124E+03  0.7546771E-02  0.1078533E+00
         21   -1    0    0  502  501  0.00000000000E+00  0.00000000000E+00  0.16385741440E+03  0.16385741440E+03  0.00000000000E+00 0.  1.
         21   -1    0    0  501  502 -0.00000000000E+00 -0.00000000000E+00 -0.60099965800E+03  0.60099965800E+03  0.00000000000E+00 0.  1.
         25    1    1    2    0    0  0.80775637973E+02 -0.94661654750E+02  0.97733870368E+02  0.20164930445E+03  0.12500000000E+03 0.  0.
         25    1    1    2    0    0 -0.80775637973E+02  0.94661654750E+02 -0.53487611397E+03  0.56320776794E+03  0.12500000000E+03 0.  0.
</event>
<event>
 4    0  0.2219362E-002  0.1757914E+03  0.7546771E-02  0.1171939E+00
         21   -1    0    0  502  501  0.00000000000E+00  0.00000000000E+00  0.51362568196E+03  0.51362568196E+03  0.00000000000E+00 0. -1.
         21   -1    0    0  501  502 -0.00000000000E+00 -0.00000000000E+00 -0.60165603947E+02  0.60165603947E+02  0.00000000000E+00 0. -1.
         25    1    1    2    0    0 -0.57414534022E+02  0.81541038979E+02  0.10755621698E+03  0.19271406167E+03  0.12500000000E+03 0.  0.
         25    1    1    2    0    0  0.57414534022E+02 -0.81541038979E+02  0.34590386103E+03  0.38107722423E+03  0.12500000000E+03 0.  0.
</event>
<event>
 4    0  0.2219362E-002  0.1967392E+03  0.7546771E-02  0.1152520E+00
         21   -1    0    0  502  501  0.00000000000E+00  0.00000000000E+00  0.39828078396E+03  0.39828078396E+03  0.00000000000E+00 0.  1.
         21   -1    0    0  501  502 -0.00000000000E+00 -0.00000000000E+00 -0.97183460872E+02  0.97183460872E+02  0.00000000000E+00 0.  1.
         25    1    1    2    0    0 -0.33800784645E+02  0.29901366778E+02  0.33321690152E+03  0.35874097653E+03  0.12500000000E+03 0.  0.
         25    1    1    2    0    0  0.33800784645E+02 -0.29901366778E+02 -0.32119578434E+02  0.13672326831E+03  0.12500000000E+03 0.  0.
</event>
<event>
 4    0  0.2219362E-002  0.3403519E+03  0.7546771E-02  0.1066646E+00
         21   -1    0    0  502  501  0.00000000000E+00  0.00000000000E+00  0.33255952389E+03  0.33255952389E+03  0.00000000000E+00 0.  1.
         21   -1    0    0  501  502 -0.00000000000E+00 -0.00000000000E+00 -0.34832683831E+03  0.34832683831E+03  0.00000000000E+00 0.  1.
         25    1    1    2    0    0 -0.27456491426E+03 -0.15739829647E+03 -0.15253919121E+02  0.34061385457E+03  0.12500000000E+03 0.  0.
         25    1    1    2    0    0  0.27456491426E+03  0.15739829647E+03 -0.51339529880E+00  0.34027250763E+03  0.12500000000E+03 0.  0.
</event>
<event>
 4    0  0.2219362E-002  0.2227150E+03  0.7546771E-02  0.1131875E+00
         21   -1    0    0  502  501  0.00000000000E+00  0.00000000000E+00  0.10200614625E+03  0.10200614625E+03  0.00000000000E+00 0. -1.
         21   -1    0    0  501  502 -0.00000000000E+00 -0.00000000000E+00 -0.48626435495E+03  0.48626435495E+03  0.00000000000E+00 0. -1.
         25    1    1    2    0    0 -0.14370265060E+03 -0.10101981233E+03 -0.11834220477E+03  0.24593765816E+03  0.12500000000E+03 0.  0.
         25    1    1    2    0    0  0.14370265060E+03  0.10101981233E+03 -0.26591600394E+03  0.34233284304E+03  0.12500000000E+03 0.  0.
</event>
<event>
 4    0  0.2219362E-002  0.4052351E+03  0.7546771E-02  0.1041982E+00
         21   -1    0    0  502  501  0.00000000000E+00  0.00000000000E+00  0.59530819771E+03  0.59530819771E+03  0.00000000000E+00 0.  1.
         21   -1    0    0  501  502 -0.00000000000E+00 -0.00000000000E+00 -0.27584948604E+03  0.27584948604E+03  0.00000000000E+00 0.  1.
         25    1    1    2    0    0  0.18663184230E+03  0.26621064524E+03 -0.62879468408E+02  0.35394686006E+03  0.12500000000E+03 0.  0.
         25    1    1    2    0    0 -0.18663184230E+03 -0.26621064524E+03  0.38233818008E+03  0.51721082369E+03  0.12500000000E+03 0.  0.
</event>
<event>
 4    0  0.2219362E-002  0.2619991E+03  0.7546771E-02  0.1105948E+00
         21   -1    0    0  502  501  0.00000000000E+00  0.00000000000E+00  0.40892338908E+03  0.40892338908E+03  0.00000000000E+00 0.  1.
         21   -1    0    0  501  502 -0.00000000000E+00 -0.00000000000E+00 -0.16786400519E+03  0.16786400519E+03  0.00000000000E+00 0.  1.
         25    1    1    2    0    0 -0.13691635048E+03 -0.37170907128E+01 -0.83207770846E+02  0.20324477096E+03  0.12500000000E+03 0.  0.
         25    1    1    2    0    0  0.13691635048E+03  0.37170907128E+01  0.32426715474E+03  0.37354262332E+03  0.12500000000E+03 0.  0.
</event>
<event>
 4    0  0.2219362E-002  0.3500032E+03  0.7546771E-02  0.1062614E+00
         21   -1    0    0  502  501  0.00000000000E+00  0.00000000000E+00  0.47495456952E+02  0.47495456952E+02  0.00000000000E+00 0. -1.
         21   -1    0    0  501  502 -0.00000000000E+00 -0.00000000000E+00 -0.25792416488E+04  0.25792416488E+04  0.00000000000E+00 0. -1.
         25    1    1    2    0    0 -0.30212256122E+03  0.11029741613E+03 -0.14857581211E+04  0.15253018575E+04  0.12500000000E+03 0.  0.
         25    1    1    2    0    0  0.30212256122E+03 -0.11029741613E+03 -0.10459880707E+04  0.11014352483E+04  0.12500000000E+03 0.  0.
</event>
<event>
 4    0  0.2219362E-002  0.4470418E+03  0.7546771E-02  0.1028608E+00
         21   -1    0    0  502  501  0.00000000000E+00  0.00000000000E+00  0.59507910068E+03  0.59507910068E+03  0.00000000000E+00 0. -1.
         21   -1    0    0  501  502 -0.00000000000E+00 -0.00000000000E+00 -0.33583165778E+03  0.33583165778E+03  0.00000000000E+00 0. -1.
         25    1    1    2    0    0 -0.18677453460E+03  0.22012886146E+03  0.46032230559E+03  0.55755095502E+03  0.12500000000E+03 0.  0.
         25    1    1    2    0    0  0.18677453460E+03 -0.22012886146E+03 -0.20107486268E+03  0.37335980344E+03  0.12500000000E+03 0.  0.
</event>
<event>
 4    0  0.2219362E-002  0.1884399E+03  0.7546771E-02  0.1159876E+00
         21   -1    0    0  502  501  0.00000000000E+00  0.00000000000E+00  0.23703926429E+03  0.23703926429E+03  0.00000000000E+00 0.  1.
         21   -1    0    0  501  502 -0.00000000000E+00 -0.00000000000E+00 -0.14980472600E+03  0.14980472600E+03  0.00000000000E+00 0.  1.
         25    1    1    2    0    0  0.51560481447E+02 -0.12866523301E+03  0.17021285416E+02  0.18742451704E+03  0.12500000000E+03 0.  0.
         25    1    1    2    0    0 -0.51560481447E+02  0.12866523301E+03  0.70213252876E+02  0.19941947325E+03  0.12500000000E+03 0.  0.
</event>
<event>
 4    0  0.2219362E-002  0.1754535E+03  0.7546771E-02  0.1172277E+00
         21   -1    0    0  502  501  0.00000000000E+00  0.00000000000E+00  0.91246482337E+02  0.91246482337E+02  0.00000000000E+00 0.  1.
         21   -1    0    0  501  502 -0.00000000000E+00 -0.00000000000E+00 -0.33737100278E+03  0.33737100278E+03  0.00000000000E+00 0.  1.
         25    1    1    2    0    0 -0.46116717976E+02 -0.34239656811E+02  0.99577078729E+01  0.13792484084E+03  0.12500000000E+03 0.  0.
         25    1    1    2    0    0  0.46116717976E+02  0.34239656811E+02 -0.25608222831E+03  0.29069264427E+03  0.12500000000E+03 0.  0.
</event>
<event>
 4    0  0.2219362E-002  0.2785029E+03  0.7546771E-02  0.1096509E+00
         21   -1    0    0  502  501  0.00000000000E+00  0.00000000000E+00  0.17761449950E+03  0.17761449950E+03  0.00000000000E+00 0. -1.
         21   -1    0    0  501  502 -0.00000000000E+00 -0.00000000000E+00 -0.43669793676E+03  0.43669793676E+03  0.00000000000E+00 0. -1.
         25    1    1    2    0    0  0.13387670530E+02  0.24415800135E+03 -0.18063897985E+03  0.32870625243E+03  0.12500000000E+03 0.  0.
         25    1    1    2    0    0 -0.13387670530E+02 -0.24415800135E+03 -0.78444457407E+02  0.28560618383E+03  0.12500000000E+03 0.  0.
</event>
<event>
 4    0  0.2219362E-002  0.2452126E+03  0.7546771E-02  0.1116368E+00
         21   -1    0    0  502  501  0.00000000000E+00  0.00000000000E+00  0.10075020717E+04  0.10075020717E+04  0.00000000000E+00 0.  1.
         21   -1    0    0  501  502 -0.00000000000E+00 -0.00000000000E+00 -0.59681477322E+02  0.59681477322E+02  0.00000000000E+00 0.  1.
         25    1    1    2    0    0 -0.18652732387E+03 -0.35774355415E+02  0.27409406424E+03  0.35612470163E+03  0.12500000000E+03 0.  0.
         25    1    1    2    0    0  0.18652732387E+03  0.35774355415E+02  0.67372653013E+03  0.71105884739E+03  0.12500000000E+03 0.  0.
</event>
<event>
 4    0  0.2219362E-002  0.3742682E+03  0.7546771E-02  0.1053073E+00
         21   -1    0    0  502  501  0.00000000000E+00  0.00000000000E+00  0.17468804488E+03  0.17468804488E+03  0.00000000000E+00 0.  1.
         21   -1    0    0  501  502 -0.00000000000E+00 -0.00000000000E+00 -0.80186771391E+03  0.80186771391E+03  0.00000000000E+00 0.  1.
         25    1    1    2    0    0 -0.15860387043E+02  0.11201553521E+03 -0.74952173685E+03  0.76824922130E+03  0.12500000000E+03 0.  0.
         25    1    1    2    0    0  0.15860387043E+02 -0.11201553521E+03  0.12234206782E+03  0.20830653750E+03  0.12500000000E+03 0.  0.
</event>
<event>
 4    0  0.2219362E-002  0.1834033E+03  0.7546771E-02  0.1164549E+00
         21   -1    0    0  502  501  0.00000000000E+00  0.00000000000E+00  0.57651108673E+03  0.57651108673E+03  0.00000000000E+00 0. -1.
         21   -1    0    0  501  502 -0.00000000000E+00 -0.00000000000E+00 -0.58345382644E+02  0.58345382644E+02  0.00000000000E+00 0. -1.
         25    1    1    2    0    0  0.91728183971E+02 -0.87433025358E+02  0.18259224869E+03  0.25499710379E+03  0.12500000000E+03 0.  0.
         25    1    1    2    0    0 -0.91728183971E+02  0.87433025358E+02  0.33557345539E+03  0.37985936558E+03  0.12500000000E+03 0.  0.
</event>
<event>
 4    0  0.2219362E-002  0.2220110E+03  0.7546771E-02  0.1132393E+00
         21   -1    0    0  502  501  0.00000000000E+00  0.00000000000E+00  0.11427704394E+03  0.11427704394E+03  0.00000000000E+00 0.  1.
         21   -1    0    0  501  502 -0.00000000000E+00 -0.00000000000E+00 -0.43131038545E+03  0.43131038545E+03  0.00000000000E+00 0.  1.
         25    1    1    2    0    0  0.17945743260E+03 -0.20949820724E+02 -0.11927366345E+03  0.24999014359E+03  0.12500000000E+03 0.  0.
         25    1    1    2    0    0 -0.17945743260E+03  0.20949820724E+02 -0.19775967807E+03  0.29559728580E+03  0.12500000000E+03 0.  0.
</event>
<event>
 4    0  0.2219362E-002  0.1989875E+03  0.7546771E-02  0.1150596E+00
         21   -1    0    0  502  501  0.00000000000E+00  0.00000000000E+00  0.29744988262E+02  0.29744988262E+02  0.00000000000E+00 0. -1.
         21   -1    0    0  501  502 -0.00000000000E+00 -0.00000000000E+00 -0.13311833587E+04  0.13311833587E+04  0.00000000000E+00 0. -1.
         25    1    1    2    0    0 -0.15402969209E+02 -0.13262631344E+03 -0.38267490549E+03  0.42413685736E+03  0.12500000000E+03 0.  0.
         25    1    1    2    0    0  0.15402969209E+02  0.13262631344E+03 -0.91876346495E+03  0.93679148961E+03  0.12500000000E+03 0.  0.
</event>
<event>
 4    0  0.2219362E-002  0.1943589E+03  0.7546771E-02  0.1154588E+00
         21   -1    0    0  502  501  0.00000000000E+00  0.00000000000E+00  0.38766909106E+02  0.38766909106E+02  0.00000000000E+00 0.  1.
         21   -1    0    0  501  502 -0.00000000000E+00 -0.00000000000E+00 -0.97442359264E+03  0.97442359264E+03  0.00000000000E+00 0.  1.
         25    1    1    2    0    0  0.14804792713E+03 -0.44821148081E+01 -0.42986713287E+03  0.47153900157E+03  0.12500000000E+03 0.  0.
         25    1    1    2    0    0 -0.14804792713E+03  0.44821148081E+01 -0.50578955066E+03  0.54165150017E+03  0.12500000000E+03 0.  0.
</event>
<event>
 4    0  0.2219362E-002  0.1710537E+03  0.7546771E-02  0.1176753E+00
         21   -1    0    0  502  501  0.00000000000E+00  0.00000000000E+00  0.83592105908E+03  0.83592105908E+03  0.00000000000E+00 0. -1.
         21   -1    0    0  501  502 -0.00000000000E+00 -0.00000000000E+00 -0.35002555094E+02  0.35002555094E+02  0.00000000000E+00 0. -1.
         25    1    1    2    0    0  0.70888433459E+02  0.87349303557E+02  0.48012578269E+03  0.50872471734E+03  0.12500000000E+03 0.  0.
         25    1    1    2    0    0 -0.70888433459E+02 -0.87349303557E+02  0.32079272130E+03  0.36219889683E+03  0.12500000000E+03 0.  0.
</event>
<event>
 4    0  0.2219362E-002  0.2523083E+03  0.7546771E-02  0.1111855E+00
         21   -1    0    0  502  501  0.00000000000E+00  0.00000000000E+00  0.19594289661E+03  0.19594289661E+03  0.00000000000E+00 0.  1.
         21   -1    0    0  501  502 -0.00000000000E+00 -0.00000000000E+00 -0.32488780216E+03  0.32488780216E+03  0.00000000000E+00 0.  1.
         25    1    1    2    0    0  0.21379364705E+02 -0.11069712754E+03  0.12951209488E+03  0.21238953364E+03  0.12500000000E+03 0.  0.
         25    1    1    2    0    0 -0.21379364705E+02  0.11069712754E+03 -0.25845700043E+03  0.30844116514E+03  0.12500000000E+03 0.  0.
</event>
<event>
 4    0  0.2219362E-002  0.1708804E+03  0.7546771E-02  0.1176933E+00
         21   -1    0    0  502  501  0.00000000000E+00  0.00000000000E+00  0.95283728416E+02  0.95283728416E+02  0.00000000000E+00 0.  1.
         21   -1    0    0  501  502 -0.00000000000E+00 -0.00000000000E+00 -0.30645425638E+03  0.30645425638E+03  0.00000000000E+00 0.  1.
         25    1    1    2    0    0 -0.10138457123E+03 -0.30211238289E+02 -0.48195664663E+02  0.17070258432E+03  0.12500000000E+03 0.  0.
         25    1    1    2    0    0  0.10138457123E+03  0.30211238289E+02 -0.16297486330E+03  0.23103540047E+03  0.12500000000E+03 0.  0.
</event>
<event>
 4    0  0.2219362E-002  0.2030675E+03  0.7546771E-02  0.1147176E+00
         21   -1    0    0  502  501  0.00000000000E+00  0.00000000000E+00  0.95224870838E+02  0.95224870838E+02  0.00000000000E+00 0.  1.
         21   -1    0    0  501  502 -0.00000000000E+00 -0.00000000000E+00 -0.43304238065E+03  0.43304238065E+03  0.00000000000E+00 0.  1.
         25    1    1    2    0    0 -0.14688615955E+03 -0.13491550230E+02 -0.24965643951E+03  0.31577033360E+03  0.12500000000E+03 0.  0.
         25    1    1    2    0    0  0.14688615955E+03  0.13491550230E+02 -0.88161070307E+02  0.21249691789E+03  0.12500000000E+03 0.  0.
</event>
<event>
 4    0  0.2219362E-002  0.3332847E+03  0.7546771E-02  0.1069693E+00
         21   -1    0    0  502  501  0.00000000000E+00  0.00000000000E+00  0.93187311860E+03  0.93187311860E+03  0.00000000000E+00 0. -1.
         21   -1    0    0  501  502 -0.00000000000E+00 -0.00000000000E+00 -0.11919938768E+03  0.11919938768E+03  0.00000000000E+00 0. -1.
         25    1    1    2    0    0 -0.77707813677E+02  0.72362151195E+02  0.86383460298E+03  0.87926674368E+03  0.12500000000E+03 0.  0.
         25    1    1    2    0    0  0.77707813677E+02 -0.72362151195E+02 -0.51160872064E+02  0.17180576260E+03  0.12500000000E+03 0.  0.
</event>
<event>
 4    0  0.2219362E-002  0.1713144E+03  0.7546771E-02  0.1176484E+00
         21   -1    0    0  502  501  0.00000000000E+00  0.00000000000E+00  0.14698422971E+03  0.14698422971E+03  0.00000000000E+00 0.  1.
         21   -1    0    0  501  502 -0.00000000000E+00 -0.00000000000E+00 -0.19967184185E+03  0.19967184185E+03  0.00000000000E+00 0.  1.
         25    1    1    2    0    0 -0.36404465377E+02  0.10771791746E+03 -0.54874145958E+02  0.17766430912E+03  0.12500000000E+03 0.  0.
         25    1    1    2    0    0  0.36404465377E+02 -0.10771791746E+03  0.21865338132E+01  0.16899176244E+03  0.12500000000E+03 0.  0.
</event>
<event>
 4    0  0.2219362E-002  0.2274430E+03  0.7546771E-02  0.1128453E+00
         21   -1    0    0  502  501  0.00000000000E+00  0.00000000000E+00  0.24729770077E+04  0.24729770077E+04  0.00000000000E+00 0.  1.
         21   -1    0    0  501  502 -0.00000000000E+00 -0.00000000000E+00 -0.20918227763E+02  0.20918227763E+02  0.00000000000E+00 0.  1.
         25    1    1    2    0    0 -0.32067201920E+02  0.14245471408E+03  0.18926312082E+04  0.19023668262E+04  0.12500000000E+03 0.  0.
         25    1    1    2    0    0  0.32067201920E+02 -0.14245471408E+03  0.55942757177E+03  0.59152840934E+03  0.12500000000E+03 0.  0.
</event>
<event>
 4    0  0.2219362E-002  0.2032724E+03  0.7546771E-02  0.1147007E+00
         21   -1    0    0  502  501  0.00000000000E+00  0.00000000000E+00  0.17850007126E+02  0.17850007126E+02  0.00000000000E+00 0.  1.
         21   -1    0    0  501  502 -0.00000000000E+00 -0.00000000000E+00 -0.23148265014E+04  0.23148265014E+04  0.00000000000E+00 0.  1.
         25    1    1    2    0    0  0.15648396604E+03 -0.34515967512E+02 -0.11715010150E+04  0.11889988275E+04  0.12500000000E+03 0.  0.
         25    1    1    2    0    0 -0.15648396604E+03  0.34515967512E+02 -0.11254754793E+04  0.11436776810E+04  0.12500000000E+03 0.  0.
</event>
<event>
 4    0  0.2219362E-002  0.2021289E+03  0.7546771E-02  0.1147955E+00
         21   -1    0    0  502  501  0.00000000000E+00  0.00000000000E+00  0.11483555213E+03  0.11483555213E+03  0.00000000000E+00 0.  1.
         21   -1    0    0  501  502 -0.00000000000E+00 -0.00000000000E+00 -0.35577924969E+03  0.35577924969E+03  0.00000000000E+00 0.  1.
         25    1    1    2    0    0 -0.58364362573E+02  0.83125329809E+02  0.21701137628E+02  0.16251817944E+03  0.12500000000E+03 0.  0.
         25    1    1    2    0    0  0.58364362573E+02 -0.83125329809E+02 -0.26264483518E+03  0.30809662238E+03  0.12500000000E+03 0.  0.
</event>
<event>
 4    0  0.2219362E-002  0.1864422E+03  0.7546771E-02  0.1161710E+00
         21   -1    0    0  502  501  0.00000000000E+00  0.00000000000E+00  0.61837368836E+03  0.61837368836E+03  0.00000000000E+00 0. -1.
         21   -1    0    0  501  502 -0.00000000000E+00 -0.00000000000E+00 -0.56213061891E+02  0.56213061891E+02  0.00000000000E+00 0. -1.
         25    1    1    2    0    0 -0.28263464696E+02 -0.11600594668E+03  0.15470848985E+03  0.23198258541E+03  0.12500000000E+03 0.  0.
         25    1    1    2    0    0  0.28263464696E+02  0.11600594668E+03  0.40745213662E+03  0.44260416484E+03  0.12500000000E+03 0.  0.
</event>
<event>
 4    0  0.2219362E-002  0.3354886E+03  0.7546771E-02  0.1068734E+00
         21   -1    0    0  502  501  0.00000000000E+00  0.00000000000E+00  0.90947422486E+02  0.90947422486E+02  0.00000000000E+00 0.  1.
         21   -1    0    0  501  502 -0.00000000000E+00 -0.00000000000E+00 -0.12375565397E+04  0.12375565397E+04  0.00000000000E+00 0.  1.
         25    1    1    2    0    0  0.16591270636E+03  0.16745680154E+03 -0.97596498408E+03  0.10117813285E+04  0.12500000000E+03 0.  0.
         25    1    1    2    0    0 -0.16591270636E+03 -0.16745680154E+03 -0.17064413308E+03  0.31672263365E+03  0.12500000000E+03 0.  0.
</event>
<event>
 4    0  0.2219362E-002  0.1895916E+03  0.7546771E-02  0.1158830E+00
         21   -1    0    0  502  501  0.00000000000E+00  0.00000000000E+00  0.31381130930E+02  0.31381130930E+02  0.00000000000E+00 0. -1.
         21   -1    0    0  501  502 -0.00000000000E+00 -0.00000000000E+00 -0.11454326189E+04  0.11454326189E+04  0.00000000000E+00 0. -1.
         25    1    1    2    0    0 -0.67278485776E+02  0.12445609472E+03 -0.50289065766E+03  0.53715894084E+03  0.12500000000E+03 0.  0.
         25    1    1    2    0    0  0.67278485776E+02 -0.12445609472E+03 -0.61116083031E+03  0.63965480899E+03  0.12500000000E+03 0.  0.
</event>
<event>
 4    0  0.2219362E-002  0.1922027E+03  0.7546771E-02  0.1156490E+00
         21   -1    0    0  502  501  0.00000000000E+00  0.00000000000E+00  0.10677558068E+03  0.10677558068E+03  0.00000000000E+00 0. -1.
         21   -1    0    0  501  502 -0.00000000000E+00 -0.00000000000E+00 -0.34597680459E+03  0.34597680459E+03  0.00000000000E+00 0. -1.
         25    1    1    2    0    0  0.10816787234E+03 -0.10812074969E+02 -0.48048426161E+01  0.16572650990E+03  0.12500000000E+03 0.  0.
         25    1    1    2    0    0 -0.10816787234E+03  0.10812074969E+02 -0.23439638129E+03  0.28702587537E+03  0.12500000000E+03 0.  0.
</event>
<event>
 4    0  0.2219362E-002  0.1802791E+03  0.7546771E-02  0.1167533E+00
         21   -1    0    0  502  501  0.00000000000E+00  0.00000000000E+00  0.12532721363E+03  0.12532721363E+03  0.00000000000E+00 0.  1.
         21   -1    0    0  501  502 -0.00000000000E+00 -0.00000000000E+00 -0.25932572773E+03  0.25932572773E+03  0.00000000000E+00 0.  1.
         25    1    1    2    0    0 -0.74888009343E+02 -0.95094915155E+02 -0.11731357844E+03  0.20985407434E+03  0.12500000000E+03 0.  0.
         25    1    1    2    0    0  0.74888009343E+02  0.95094915155E+02 -0.16684935666E+02  0.17479886702E+03  0.12500000000E+03 0.  0.
</event>
<event>
 4    0  0.2219362E-002  0.1982549E+03  0.7546771E-02  0.1151220E+00
         21   -1    0    0  502  501  0.00000000000E+00  0.00000000000E+00  0.59124042582E+02  0.59124042582E+02  0.00000000000E+00 0. -1.
         21   -1    0    0  501  502 -0.00000000000E+00 -0.00000000000E+00 -0.66478885559E+03  0.66478885559E+03  0.00000000000E+00 0. -1.
         25    1    1    2    0    0  0.11884813993E+03  0.15560048964E+02 -0.47902084530E+03  0.50936525767E+03  0.12500000000E+03 0.  0.
         25    1    1    2    0    0 -0.11884813993E+03 -0.15560048964E+02 -0.12664396771E+03  0.21454764050E+03  0.12500000000E+03 0.  0.
</event>
<event>
 4    0  0.2219362E-002  0.2272303E+03  0.7546771E-02  0.1128604E+00
         21   -1    0    0  502  501  0.00000000000E+00  0.00000000000E+00  0.28300172240E+02  0.28300172240E+02  0.00000000000E+00 0. -1.
         21   -1    0    0  501  502 -0.00000000000E+00 -0.00000000000E+00 -0.18244986669E+04  0.18244986669E+04  0.00000000000E+00 0. -1.
         25    1    1    2    0    0 -0.10853631437E+03 -0.53761188335E+02 -0.30255895218E+03  0.34905202542E+03  0.12500000000E+03 0.  0.
         25    1    1    2    0    0  0.10853631437E+03  0.53761188335E+02 -0.14936395425E+04  0.15037468138E+04  0.12500000000E+03 0.  0.
</event>
<event>
 4    0  0.2219362E-002  0.2498218E+03  0.7546771E-02  0.1113417E+00
         21   -1    0    0  502  501  0.00000000000E+00  0.00000000000E+00  0.42320830357E+03  0.42320830357E+03  0.00000000000E+00 0. -1.
         21   -1    0    0  501  502 -0.00000000000E+00 -0.00000000000E+00 -0.14747095122E+03  0.14747095122E+03  0.00000000000E+00 0. -1.
         25    1    1    2    0    0 -0.50020374091E+02 -0.13486377053E+03 -0.46639609560E+02  0.19619002932E+03  0.12500000000E+03 0.  0.
         25    1    1    2    0    0  0.50020374091E+02  0.13486377053E+03  0.32237696190E+03  0.37448922547E+03  0.12500000000E+03 0.  0.
</event>
<event>
 4    0  0.2219362E-002  0.2637109E+03  0.7546771E-02  0.1104934E+00
         21   -1    0    0  502  501  0.00000000000E+00  0.00000000000E+00  0.56633848990E+03  0.56633848990E+03  0.00000000000E+00 0. -1.
         21   -1    0    0  501  502 -0.00000000000E+00 -0.00000000000E+00 -0.12279486245E+03  0.12279486245E+03  0.00000000000E+00 0. -1.
         25    1    1    2    0    0  0.31936955634E+02  0.73509703051E+02 -0.62981128084E+02  0.16129249230E+03  0.12500000000E+03 0.  0.
         25    1    1    2    0    0 -0.31936955634E+02 -0.73509703051E+02  0.50652475553E+03  0.52784086005E+03  0.12500000000E+03 0.  0.
</event>
<event>
 4    0  0.2219362E-002  0.2193557E+03  0.7546771E-02  0.1134364E+00
         21   -1    0    0  502  501  0.00000000000E+00  0.00000000000E+00  0.24338764659E+03  0.24338764659E+03  0.00000000000E+00 0.  1.
         21   -1    0    0  501  502 -0.00000000000E+00 -0.00000000000E+00 -0.19769669489E+03  0.19769669489E+03  0.00000000000E+00 0.  1.
         25    1    1    2    0    0 -0.15581570219E+03 -0.88046197682E+02  0.44438776140E+02  0.22277897297E+03  0.12500000000E+03 0.  0.
         25    1    1    2    0    0  0.15581570219E+03  0.88046197682E+02  0.12521755583E+01  0.21830536850E+03  0.12500000000E+03 0.  0.
</event>
<event>
 4    0  0.2219362E-002  0.1758651E+03  0.7546771E-02  0.1171866E+00
         21   -1    0    0  502  501  0.00000000000E+00  0.00000000000E+00  0.30744773035E+02  0.30744773035E+02  0.00000000000E+00 0.  1.
         21   -1    0    0  501  502 -0.00000000000E+00 -0.00000000000E+00 -0.10059773420E+04  0.10059773420E+04  0.00000000000E+00 0.  1.
         25    1    1    2    0    0  0.10180554174E+03 -0.58940526475E+02 -0.60043983260E+03  0.62449287151E+03  0.12500000000E+03 0.  0.
         25    1    1    2    0    0 -0.10180554174E+03  0.58940526475E+02 -0.37479273641E+03  0.41222924357E+03  0.12500000000E+03 0.  0.
</event>
<event>
 4    0  0.2219362E-002  0.2414687E+03  0.7546771E-02  0.1118818E+00
         21   -1    0    0  502  501  0.00000000000E+00  0.00000000000E+00  0.25811875595E+03  0.25811875595E+03  0.00000000000E+00 0.  1.
         21   -1    0    0  501  502 -0.00000000000E+00 -0.00000000000E+00 -0.22589263155E+03  0.22589263155E+03  0.00000000000E+00 0. -1.
         25    1    1    2    0    0  0.77804026948E+02  0.13901669107E+03  0.14794653726E+03  0.25078334254E+03  0.12500000000E+03 0.  0.
         25    1    1    2    0    0 -0.77804026948E+02 -0.13901669107E+03 -0.11572041285E+03  0.23322804496E+03  0.12500000000E+03 0.  0.
</event>
<event>
 4    0  0.2219362E-002  0.2168879E+03  0.7546771E-02  0.1136225E+00
         21   -1    0    0  502  501  0.00000000000E+00  0.00000000000E+00  0.10764212687E+04  0.10764212687E+04  0.00000000000E+00 0. -1.
         21   -1    0    0  501  502 -0.00000000000E+00 -0.00000000000E+00 -0.43700701431E+02  0.43700701431E+02  0.00000000000E+00 0. -1.
         25    1    1    2    0    0  0.12500557749E+03  0.50622331139E+01  0.84056860358E+03  0.85897182604E+03  0.12500000000E+03 0.  0.
         25    1    1    2    0    0 -0.12500557749E+03 -0.50622331139E+01  0.19215196369E+03  0.26115014409E+03  0.12500000000E+03 0.  0.
</event>
<event>
 4    0  0.2219362E-002  0.3226583E+03  0.7546771E-02  0.1074432E+00
         21   -1    0    0  502  501  0.00000000000E+00  0.00000000000E+00  0.23619171363E+03  0.23619171363E+03  0.00000000000E+00 0.  1.
         21   -1    0    0  501  502 -0.00000000000E+00 -0.00000000000E+00 -0.44077917693E+03  0.44077917693E+03  0.00000000000E+00 0.  1.
         25    1    1    2    0    0  0.13406199536E+03 -0.24095087139E+03 -0.21936274099E+03  0.37386488624E+03  0.12500000000E+03 0.  0.
         25    1    1    2    0    0 -0.13406199536E+03  0.24095087139E+03  0.14775277688E+02  0.30310600432E+03  0.12500000000E+03 0.  0.
</event>
<event>
 4    0  0.2219362E-002  0.2335623E+03  0.7546771E-02  0.1124157E+00
         21   -1    0    0  502  501  0.00000000000E+00  0.00000000000E+00  0.11053364917E+04  0.11053364917E+04  0.00000000000E+00 0. -1.
         21   -1    0    0  501  502 -0.00000000000E+00 -0.00000000000E+00 -0.49352692639E+02  0.49352692639E+02  0.00000000000E+00 0. -1.
         25    1    1    2    0    0 -0.51214639627E+02 -0.15955298778E+02  0.58662287793E+02  0.14813431365E+03  0.12500000000E+03 0.  0.
         25    1    1    2    0    0  0.51214639627E+02  0.15955298778E+02  0.99732151132E+03  0.10065548707E+04  0.12500000000E+03 0.  0.
</event>
<event>
 4    0  0.2219362E-002  0.2388239E+03  0.7546771E-02  0.1120579E+00
         21   -1    0    0  502  501  0.00000000000E+00  0.00000000000E+00  0.13864364398E+03  0.13864364398E+03  0.00000000000E+00 0. -1.
         21   -1    0    0  501  502 -0.00000000000E+00 -0.00000000000E+00 -0.41139182675E+03  0.41139182675E+03  0.00000000000E+00 0. -1.
         25    1    1    2    0    0  0.11843413757E+03  0.15309290489E+03 -0.20872755621E+03  0.31089592341E+03  0.12500000000E+03 0.  0.
         25    1    1    2    0    0 -0.11843413757E+03 -0.15309290489E+03 -0.64020626557E+02  0.23913954732E+03  0.12500000000E+03 0.  0.
</event>
<event>
 4    0  0.2219362E-002  0.1942108E+03  0.7546771E-02  0.1154717E+00
         21   -1    0    0  502  501  0.00000000000E+00  0.00000000000E+00  0.12648342426E+03  0.12648342426E+03  0.00000000000E+00 0.  1.
         21   -1    0    0  501  502 -0.00000000000E+00 -0.00000000000E+00 -0.29820391679E+03  0.29820391679E+03  0.00000000000E+00 0.  1.
         25    1    1    2    0    0  0.10899785216E+03 -0.79443031603E+02 -0.17569666319E+02  0.18473066941E+03  0.12500000000E+03 0.  0.
         25    1    1    2    0    0 -0.10899785216E+03  0.79443031603E+02 -0.15415082621E+03  0.23995667164E+03  0.12500000000E+03 0.  0.
</event>
<event>
 4    0  0.2219362E-002  0.1682556E+03  0.7546771E-02  0.1179679E+00
         21   -1    0    0  502  501  0.00000000000E+00  0.00000000000E+00  0.18757782633E+03  0.18757782633E+03  0.00000000000E+00 0.  1.
         21   -1    0    0  501  502 -0.00000000000E+00 -0.00000000000E+00 -0.15092382773E+03  0.15092382773E+03  0.00000000000E+00 0.  1.
         25    1    1    2    0    0  0.70701369012E+02  0.45894897700E+02 -0.56813805809E+02  0.16111434991E+03  0.12500000000E+03 0.  0.
         25    1    1    2    0    0 -0.70701369012E+02 -0.45894897700E+02  0.93467804409E+02  0.17738730416E+03  0.12500000000E+03 0.  0.
</event>
<event>
 4    0  0.2219362E-002  0.1801301E+03  0.7546771E-02  0.1167677E+00
         21   -1    0    0  502  501  0.00000000000E+00  0.00000000000E+00  0.16007576070E+03  0.16007576070E+03  0.00000000000E+00 0.  1.
         21   -1    0    0  501  502 -0.00000000000E+00 -0.00000000000E+00 -0.20269680285E+03  0.20269680285E+03  0.00000000000E+00 0.  1.
         25    1    1    2    0    0 -0.21255915228E+02 -0.10321797198E+03  0.54821506814E+02  0.17244176200E+03  0.12500000000E+03 0.  0.
         25    1    1    2    0    0  0.21255915228E+02  0.10321797198E+03 -0.97442548966E+02  0.19033080156E+03  0.12500000000E+03 0.  0.
</event>
<event>
 4    0  0.2219362E-002  0.1814884E+03  0.7546771E-02  0.1166370E+00
         21   -1    0    0  502  501  0.00000000000E+00  0.00000000000E+00  0.61796211882E+02  0.61796211882E+02  0.00000000000E+00 0.  1.
         21   -1    0    0  501  502 -0.00000000000E+00 -0.00000000000E+00 -0.53301047622E+03  0.53301047622E+03  0.00000000000E+00 0.  1.
         25    1    1    2    0    0 -0.11179613279E+03 -0.59380612206E+02 -0.29443124998E+03  0.34400464150E+03  0.12500000000E+03 0.  0.
         25    1    1    2    0    0  0.11179613279E+03  0.59380612206E+02 -0.17678301436E+03  0.25080204660E+03  0.12500000000E+03 0.  0.
</event>
<event>
 4    0  0.2219362E-002  0.2336666E+03  0.7546771E-02  0.1124085E+00
         21   -1    0    0  502  501  0.00000000000E+00  0.00000000000E+00  0.80916619590E+03  0.80916619590E+03  0.00000000000E+00 0.  1.
         21   -1    0    0  501  502 -0.00000000000E+00 -0.00000000000E+00 -0.67476978139E+02  0.67476978139E+02  0.00000000000E+00 0.  1.
         25    1    1    2    0    0 -0.82649195606E+02  0.18069246790E+02  0.36241023604E+02  0.15522821588E+03  0.12500000000E+03 0.  0.
         25    1    1    2    0    0  0.82649195606E+02 -0.18069246790E+02  0.70544819415E+03  0.72141495815E+03  0.12500000000E+03 0.  0.
</event>
<event>
 4    0  0.2219362E-002  0.2450613E+03  0.7546771E-02  0.1116466E+00
         21   -1    0    0  502  501  0.00000000000E+00  0.00000000000E+00  0.21009238296E+03  0.21009238296E+03  0.00000000000E+00 0. -1.
         21   -1    0    0  501  502 -0.00000000000E+00 -0.00000000000E+00 -0.28585062964E+03  0.28585062964E+03  0.00000000000E+00 0. -1.
         25    1    1    2    0    0 -0.93175794316E+02 -0.18612796346E+03 -0.71510741004E+02  0.25310893605E+03  0.12500000000E+03 0.  0.
         25    1    1    2    0    0  0.93175794316E+02  0.18612796346E+03 -0.42475056807E+01  0.24283407655E+03  0.12500000000E+03 0.  0.
</event>
<event>
 4    0  0.2219362E-002  0.2695037E+03  0.7546771E-02  0.1101564E+00
         21   -1    0    0  502  501  0.00000000000E+00  0.00000000000E+00  0.50984290347E+03  0.50984290347E+03  0.00000000000E+00 0.  1.
         21   -1    0    0  501  502 -0.00000000000E+00 -0.00000000000E+00 -0.14246003737E+03  0.14246003737E+03  0.00000000000E+00 0.  1.
         25    1    1    2    0    0  0.23602341482E+02  0.20870792035E+02  0.47011263378E+03  0.48746645928E+03  0.12500000000E+03 0.  0.
         25    1    1    2    0    0 -0.23602341482E+02 -0.20870792035E+02 -0.10272976768E+03  0.16483648155E+03  0.12500000000E+03 0.  0.
</event>
<event>
 4    0  0.2219362E-002  0.2512768E+03  0.7546771E-02  0.1112501E+00
         21   -1    0    0  502  501  0.00000000000E+00  0.00000000000E+00  0.20829507212E+03  0.20829507212E+03  0.00000000000E+00 0. -1.
         21   -1    0    0  501  502 -0.00000000000E+00 -0.00000000000E+00 -0.30312792414E+03  0.30312792414E+03  0.00000000000E+00 0. -1.
         25    1    1    2    0    0  0.16655762028E+03  0.11964846995E+03  0.27764696599E+02  0.24177070875E+03  0.12500000000E+03 0.  0.
         25    1    1    2    0    0 -0.16655762028E+03 -0.11964846995E+03 -0.12259754862E+03  0.26965228751E+03  0.12500000000E+03 0.  0.
</event>
<event>
 4    0  0.2219362E-002  0.1888073E+03  0.7546771E-02  0.1159541E+00
         21   -1    0    0  502  501  0.00000000000E+00  0.00000000000E+00  0.21671565898E+02  0.21671565898E+02  0.00000000000E+00 0.  1.
         21   -1    0    0  501  502 -0.00000000000E+00 -0.00000000000E+00 -0.16449300709E+04  0.16449300709E+04  0.00000000000E+00 0.  1.
         25    1    1    2    0    0 -0.13179030880E+03  0.50130950252E+02 -0.75914521403E+03  0.78218172675E+03  0.12500000000E+03 0.  0.
         25    1    1    2    0    0  0.13179030880E+03 -0.50130950252E+02 -0.86411329101E+03  0.88441991010E+03  0.12500000000E+03 0.  0.
</event>
<event>
 4    0  0.2219362E-002  0.1644966E+03  0.7546771E-02  0.1183712E+00
         21   -1    0    0  502  501  0.00000000000E+00  0.00000000000E+00  0.48347843301E+03  0.48347843301E+03  0.00000000000E+00 0.  1.
         21   -1    0    0  501  502 -0.00000000000E+00 -0.00000000000E+00 -0.55967578773E+02  0.55967578773E+02  0.00000000000E+00 0.  1.
         25    1    1    2    0    0  0.16002915438E+02  0.85971666635E+02  0.11285270161E+03  0.18975761652E+03  0.12500000000E+03 0.  0.
         25    1    1    2    0    0 -0.16002915438E+02 -0.85971666635E+02  0.31465815264E+03  0.34968839527E+03  0.12500000000E+03 0.  0.
</event>
<event>
 4    0  0.2219362E-002  0.2059057E+03  0.7546771E-02  0.1144850E+00
         21   -1    0    0  502  501  0.00000000000E+00  0.00000000000E+00  0.73916013750E+02  0.73916013750E+02  0.00000000000E+00 0.  1.
         21   -1    0    0  501  502 -0.00000000000E+00 -0.00000000000E+00 -0.57358563425E+03  0.57358563425E+03  0.00000000000E+00 0.  1.
         25    1    1    2    0    0 -0.94657614296E+02  0.13335809415E+03 -0.25811283338E+03  0.33013887983E+03  0.12500000000E+03 0.  0.
         25    1    1    2    0    0  0.94657614296E+02 -0.13335809415E+03 -0.24155678711E+03  0.31736276817E+03  0.12500000000E+03 0.  0.
</event>
<event>
 4    0  0.2219362E-002  0.2559280E+03  0.7546771E-02  0.1109615E+00
         21   -1    0    0  502  501  0.00000000000E+00  0.00000000000E+00  0.66114303860E+03  0.66114303860E+03  0.00000000000E+00 0.  1.
         21   -1    0    0  501  502 -0.00000000000E+00 -0.00000000000E+00 -0.99069521060E+02  0.99069521060E+02  0.00000000000E+00 0.  1.
         25    1    1    2    0    0  0.17587189463E+03 -0.98200023894E+02  0.42426469995E+03  0.48600381031E+03  0.12500000000E+03 0.  0.
         25    1    1    2    0    0 -0.17587189463E+03  0.98200023894E+02  0.13780881759E+03  0.27420874935E+03  0.12500000000E+03 0.  0.
</event>
<event>
 4    0  0.2219362E-002  0.1825914E+03  0.7546771E-02  0.1165318E+00
         21   -1    0    0  502  501  0.00000000000E+00  0.00000000000E+00  0.55299955644E+02  0.55299955644E+02  0.00000000000E+00 0.  1.
         21   -1    0    0  501  502 -0.00000000000E+00 -0.00000000000E+00 -0.60288710542E+03  0.60288710542E+03  0.00000000000E+00 0.  1.
         25    1    1    2    0    0  0.41627001087E+02 -0.11250894386E+03 -0.16988754496E+03  0.24264757901E+03  0.12500000000E+03 0.  0.
         25    1    1    2    0    0 -0.41627001087E+02  0.11250894386E+03 -0.37769960482E+03  0.41553948206E+03  0.12500000000E+03 0.  0.
</event>
<event>
 4    0  0.2219362E-002  0.2746977E+03  0.7546771E-02  0.1098621E+00
         21   -1    0    0  502  501  0.00000000000E+00  0.00000000000E+00  0.17421349452E+04  0.17421349452E+04  0.00000000000E+00 0.  1.
         21   -1    0    0  501  502 -0.00000000000E+00 -0.00000000000E+00 -0.43314006598E+02  0.43314006598E+02  0.00000000000E+00 0.  1.
         25    1    1    2    0    0 -0.17455297638E+03 -0.27963109494E+02  0.13988470155E+04  0.14155029671E+04  0.12500000000E+03 0.  0.
         25    1    1    2    0    0  0.17455297638E+03  0.27963109494E+02  0.29997392304E+03  0.36994598465E+03  0.12500000000E+03 0.  0.
</event>
<event>
 4    0  0.2219362E-002  0.1888585E+03  0.7546771E-02  0.1159495E+00
         21   -1    0    0  502  501  0.00000000000E+00  0.00000000000E+00  0.62686929148E+02  0.62686929148E+02  0.00000000000E+00 0. -1.
         21   -1    0    0  501  502 -0.00000000000E+00 -0.00000000000E+00 -0.56897864033E+03  0.56897864033E+03  0.00000000000E+00 0. -1.
         25    1    1    2    0    0  0.40992998163E+02 -0.11788577587E+03 -0.14139946921E+03  0.22626597611E+03  0.12500000000E+03 0.  0.
         25    1    1    2    0    0 -0.40992998163E+02  0.11788577587E+03 -0.36489224197E+03  0.40539959337E+03  0.12500000000E+03 0.  0.
</event>
<event>
 4    0  0.2219362E-002  0.1930964E+03  0.7546771E-02  0.1155698E+00
         21   -1    0    0  502  501  0.00000000000E+00  0.00000000000E+00  0.28667277948E+03  0.28667277948E+03  0.00000000000E+00 0.  1.
         21   -1    0    0  501  502 -0.00000000000E+00 -0.00000000000E+00 -0.13006547539E+03  0.13006547539E+03  0.00000000000E+00 0.  1.
         25    1    1    2    0    0  0.92882462354E+02 -0.11052795279E+03  0.47447400729E+02  0.19677356529E+03  0.12500000000E+03 0.  0.
         25    1    1    2    0    0 -0.92882462354E+02  0.11052795279E+03  0.10915990336E+03  0.21996468958E+03  0.12500000000E+03 0.  0.
</event>
<event>
 4    0  0.2219362E-002  0.2029014E+03  0.7546771E-02  0.1147314E+00
         21   -1    0    0  502  501  0.00000000000E+00  0.00000000000E+00  0.92529598542E+03  0.92529598542E+03  0.00000000000E+00 0. -1.
         21   -1    0    0  501  502 -0.00000000000E+00 -0.00000000000E+00 -0.44492771842E+02  0.44492771842E+02  0.00000000000E+00 0. -1.
         25    1    1    2    0    0  0.16672510964E+01 -0.62537626510E+02  0.88927904835E+02  0.16567107990E+03  0.12500000000E+03 0.  0.
         25    1    1    2    0    0 -0.16672510964E+01  0.62537626510E+02  0.79187530874E+03  0.80411767736E+03  0.12500000000E+03 0.  0.
</event>
<event>
 4    0  0.2219362E-002  0.1894772E+03  0.7546771E-02  0.1158934E+00
         21   -1    0    0  502  501  0.00000000000E+00  0.00000000000E+00  0.19130291805E+04  0.19130291805E+04  0.00000000000E+00 0.  1.
         21   -1    0    0  501  502 -0.00000000000E+00 -0.00000000000E+00 -0.18766894060E+02  0.18766894060E+02  0.00000000000E+00 0.  1.
         25    1    1    2    0    0  0.23236329612E+02  0.58450046112E+01  0.23158898381E+03  0.26425848807E+03  0.12500000000E+03 0.  0.
         25    1    1    2    0    0 -0.23236329612E+02 -0.58450046112E+01  0.16626733026E+04  0.16675375865E+04  0.12500000000E+03 0.  0.
</event>
<event>
 4    0  0.2219362E-002  0.1891858E+03  0.7546771E-02  0.1159198E+00
         21   -1    0    0  502  501  0.00000000000E+00  0.00000000000E+00  0.93508350846E+03  0.93508350846E+03  0.00000000000E+00 0. -1.
         21   -1    0    0  501  502 -0.00000000000E+00 -0.00000000000E+00 -0.38276020761E+02  0.38276020761E+02  0.00000000000E+00 0. -1.
         25    1    1    2    0    0  0.58159316210E+02 -0.12953608003E+03  0.45365925357E+03  0.49152194300E+03  0.12500000000E+03 0.  0.
         25    1    1    2    0    0 -0.58159316210E+02  0.12953608003E+03  0.44314823412E+03  0.48183758623E+03  0.12500000000E+03 0.  0.
</event>
<event>
 4    0  0.2219362E-002  0.1959953E+03  0.7546771E-02  0.1153162E+00
         21   -1    0    0  502  501  0.00000000000E+00  0.00000000000E+00  0.87555484071E+02  0.87555484071E+02  0.00000000000E+00 0. -1.
         21   -1    0    0  501  502 -0.00000000000E+00 -0.00000000000E+00 -0.43874076447E+03  0.43874076447E+03  0.00000000000E+00 0. -1.
         25    1    1    2    0    0 -0.45416947160E+02  0.29180229155E+02  0.13688744903E+02  0.13684504595E+03  0.12500000000E+03 0.  0.
         25    1    1    2    0    0  0.45416947160E+02 -0.29180229155E+02 -0.36487402530E+03  0.38945120259E+03  0.12500000000E+03 0.  0.
</event>
