<event>
 5    0  0.5474724E-005  0.2927625E+03  0.7546771E-02  0.1088916E+00
         21   -1    0    0  502  501  0.00000000000E+00  0.00000000000E+00  0.45592520641E+02  0.45592520641E+02  0.00000000000E+00 0. -1.
         21   -1    0    0  501  502 -0.00000000000E+00 -0.00000000000E+00 -0.18799115360E+04  0.18799115360E+04  0.00000000000E+00 0. -1.
         25    1    1    2    0    0  0.27152496126E+02 -0.28824555902E+02 -0.99105781461E+03  0.99969430576E+03  0.12500000000E+03 0.  0.
         25    1    1    2    0    0 -0.12856954782E+03  0.78301421320E+02 -0.30996791692E+03  0.36656015976E+03  0.12500000000E+03 0.  0.
         25    1    1    2    0    0  0.10141705169E+03 -0.49476865418E+02 -0.53329328379E+03  0.55924959108E+03  0.12500000000E+03 0.  0.
</event>
<event>
 5    0  0.5474724E-005  0.4562375E+03  0.7546771E-02  0.1025878E+00
         21   -1    0    0  502  501  0.00000000000E+00  0.00000000000E+00  0.10199796083E+03  0.10199796083E+03  0.00000000000E+00 0.  1.
         21   -1    0    0  501  502 -0.00000000000E+00 -0.00000000000E+00 -0.20407530169E+04  0.20407530169E+04  0.00000000000E+00 0.  1.
         25    1    1    2    0    0 -0.25660660084E+00 -0.19422223626E+03 -0.43986640697E+03  0.49681968448E+03  0.12500000000E+03 0.  0.
         25    1    1    2    0    0 -0.29089862679E+03  0.19681265103E+02 -0.65504756147E+03  0.72781980672E+03  0.12500000000E+03 0.  0.
         25    1    1    2    0    0  0.29115523339E+03  0.17454097116E+03 -0.84384108759E+03  0.91811148650E+03  0.12500000000E+03 0.  0.
</event>
<event>
 5    0  0.5474724E-005  0.2587931E+03  0.7546771E-02  0.1107871E+00
         21   -1    0    0  502  501  0.00000000000E+00  0.00000000000E+00  0.16019625556E+03  0.16019625556E+03  0.00000000000E+00 0.  1.
         21   -1    0    0  501  502 -0.00000000000E+00 -0.00000000000E+00 -0.41807389814E+03  0.41807389814E+03  0.00000000000E+00 0.  1.
         25    1    1    2    0    0  0.85386581472E+01 -0.21209807006E+02  0.76481553396E+02  0.14831450572E+03  0.12500000000E+03 0.  0.
         25    1    1    2    0    0  0.40956163242E+02  0.23707932771E+02 -0.19395218792E+03  0.23554601373E+03  0.12500000000E+03 0.  0.
         25    1    1    2    0    0 -0.49494821389E+02 -0.24981257645E+01 -0.14040700805E+03  0.19440963425E+03  0.12500000000E+03 0.  0.
</event>
<event>
 5    0  0.5474724E-005  0.2775875E+03  0.7546771E-02  0.1097014E+00
         21   -1    0    0  502  501  0.00000000000E+00  0.00000000000E+00  0.65297887585E+03  0.65297887585E+03  0.00000000000E+00 0.  1.
         21   -1    0    0  501  502 -0.00000000000E+00 -0.00000000000E+00 -0.11800506312E+03  0.11800506312E+03  0.00000000000E+00 0.  1.
         25    1    1    2    0    0  0.87970350819E+02 -0.49821817231E+02  0.11291702049E+03  0.19645928233E+03  0.12500000000E+03 0.  0.
         25    1    1    2    0    0 -0.70243143238E+01  0.13305850293E+03  0.95652304657E+02  0.20622383369E+03  0.12500000000E+03 0.  0.
         25    1    1    2    0    0 -0.80946036496E+02 -0.83236685703E+02  0.32640448759E+03  0.36830082295E+03  0.12500000000E+03 0.  0.
</event>
<event>
 5    0  0.5567050E-005  0.3760270E+03  0.7546771E-02  0.1052412E+00
         21   -1    0    0  502  501  0.00000000000E+00  0.00000000000E+00  0.79984384766E+03  0.79984384766E+03  0.00000000000E+00 0. -1.
         21   -1    0    0  501  502 -0.00000000000E+00 -0.00000000000E+00 -0.17677991413E+03  0.17677991413E+03  0.00000000000E+00 0. -1.
         25    1    1    2    0    0 -0.38483801862E+02 -0.19463296524E+03  0.34779868698E+03  0.41946623324E+03  0.12500000000E+03 0.  0.
         25    1    1    2    0    0 -0.13637693337E+03  0.12554594791E+03  0.32997851612E+02  0.22599626370E+03  0.12500000000E+03 0.  0.
         25    1    1    2    0    0  0.17486073523E+03  0.69087017328E+02  0.24226739493E+03  0.33116126485E+03  0.12500000000E+03 0.  0.
</event>
<event>
 5    0  0.5474724E-005  0.2245233E+03  0.7546771E-02  0.1130555E+00
         21   -1    0    0  502  501  0.00000000000E+00  0.00000000000E+00  0.36930643235E+03  0.36930643235E+03  0.00000000000E+00 0. -1.
         21   -1    0    0  501  502 -0.00000000000E+00 -0.00000000000E+00 -0.13650108046E+03  0.13650108046E+03  0.00000000000E+00 0. -1.
         25    1    1    2    0    0  0.71830029097E+02 -0.68430398688E+02  0.93302605018E+02  0.18485845571E+03  0.12500000000E+03 0.  0.
         25    1    1    2    0    0 -0.84065650510E+02  0.57599007970E+02  0.95481705907E+02  0.18742047774E+03  0.12500000000E+03 0.  0.
         25    1    1    2    0    0  0.12235621413E+02  0.10831390717E+02  0.44021040963E+02  0.13352857935E+03  0.12500000000E+03 0.  0.
</event>
<event>
 5    0  0.5474724E-005  0.3089937E+03  0.7546771E-02  0.1080829E+00
         21   -1    0    0  502  501  0.00000000000E+00  0.00000000000E+00  0.91565119170E+02  0.91565119170E+02  0.00000000000E+00 0. -1.
         21   -1    0    0  501  502 -0.00000000000E+00 -0.00000000000E+00 -0.10427238311E+04  0.10427238311E+04  0.00000000000E+00 0. -1.
         25    1    1    2    0    0  0.70486560579E+02  0.66524402302E+02 -0.11609633738E+03  0.19620706123E+03  0.12500000000E+03 0.  0.
         25    1    1    2    0    0 -0.15887183463E+03  0.33069655196E+02 -0.63486774198E+03  0.66709512946E+03  0.12500000000E+03 0.  0.
         25    1    1    2    0    0  0.88385274053E+02 -0.99594057498E+02 -0.20019463256E+03  0.27098675958E+03  0.12500000000E+03 0.  0.
</event>
<event>
 5    0  0.5474724E-005  0.2838934E+03  0.7546771E-02  0.1093581E+00
         21   -1    0    0  502  501  0.00000000000E+00  0.00000000000E+00  0.12374401920E+03  0.12374401920E+03  0.00000000000E+00 0.  1.
         21   -1    0    0  501  502 -0.00000000000E+00 -0.00000000000E+00 -0.65130807049E+03  0.65130807049E+03  0.00000000000E+00 0.  1.
         25    1    1    2    0    0 -0.15475414578E+03  0.14586789888E+02 -0.15599820245E+03  0.25322333866E+03  0.12500000000E+03 0.  0.
         25    1    1    2    0    0 -0.13963123334E+02 -0.25021402371E+00 -0.45534567551E+02  0.13376631961E+03  0.12500000000E+03 0.  0.
         25    1    1    2    0    0  0.16871726911E+03 -0.14336575864E+02 -0.32603128128E+03  0.38806243142E+03  0.12500000000E+03 0.  0.
</event>
<event>
 5    0  0.5474724E-005  0.3907692E+03  0.7546771E-02  0.1047024E+00
         21   -1    0    0  502  501  0.00000000000E+00  0.00000000000E+00  0.76463529035E+02  0.76463529035E+02  0.00000000000E+00 0. -1.
         21   -1    0    0  501  502 -0.00000000000E+00 -0.00000000000E+00 -0.19970384114E+04  0.19970384114E+04  0.00000000000E+00 0. -1.
         25    1    1    2    0    0 -0.23053912291E+02  0.16227252234E+03 -0.65951204181E+03  0.69097394138E+03  0.12500000000E+03 0.  0.
         25    1    1    2    0    0 -0.87229377410E+02 -0.28613950399E+03 -0.51889892242E+03  0.61185445305E+03  0.12500000000E+03 0.  0.
         25    1    1    2    0    0  0.11028328970E+03  0.12386698164E+03 -0.74216391813E+03  0.77067354600E+03  0.12500000000E+03 0.  0.
</event>
<event>
 5    0  0.5474724E-005  0.3456838E+03  0.7546771E-02  0.1064401E+00
         21   -1    0    0  502  501  0.00000000000E+00  0.00000000000E+00  0.66385526020E+03  0.66385526020E+03  0.00000000000E+00 0.  1.
         21   -1    0    0  501  502 -0.00000000000E+00 -0.00000000000E+00 -0.18000506185E+03  0.18000506185E+03  0.00000000000E+00 0.  1.
         25    1    1    2    0    0  0.14251440138E+03 -0.91090074492E+02  0.24666223165E+03  0.32415276151E+03  0.12500000000E+03 0.  0.
         25    1    1    2    0    0  0.15871441243E+02  0.19324418508E+03  0.79517845238E+02  0.24401496967E+03  0.12500000000E+03 0.  0.
         25    1    1    2    0    0 -0.15838584262E+03 -0.10215411058E+03  0.15767012146E+03  0.27569259086E+03  0.12500000000E+03 0.  0.
</event>
<event>
 5    0  0.5474724E-005  0.4050516E+03  0.7546771E-02  0.1042044E+00
         21   -1    0    0  502  501  0.00000000000E+00  0.00000000000E+00  0.44230738690E+03  0.44230738690E+03  0.00000000000E+00 0. -1.
         21   -1    0    0  501  502 -0.00000000000E+00 -0.00000000000E+00 -0.37093387594E+03  0.37093387594E+03  0.00000000000E+00 0. -1.
         25    1    1    2    0    0  0.82885295168E+01  0.70139689986E+01 -0.52760804300E+02  0.13611244599E+03  0.12500000000E+03 0.  0.
         25    1    1    2    0    0  0.16641534936E+03  0.14267461579E+03  0.27638713619E+03  0.37425253980E+03  0.12500000000E+03 0.  0.
         25    1    1    2    0    0 -0.17470387888E+03 -0.14968858479E+03 -0.15225282094E+03  0.30287627704E+03  0.12500000000E+03 0.  0.
</event>
<event>
 5    0  0.5474724E-005  0.5248956E+03  0.7546771E-02  0.1007478E+00
         21   -1    0    0  502  501  0.00000000000E+00  0.00000000000E+00  0.23115290769E+03  0.23115290769E+03  0.00000000000E+00 0. -1.
         21   -1    0    0  501  502 -0.00000000000E+00 -0.00000000000E+00 -0.11919182203E+04  0.11919182203E+04  0.00000000000E+00 0. -1.
         25    1    1    2    0    0  0.25542628533E+03 -0.28270524776E+03 -0.18551793803E+03  0.44182207921E+03  0.12500000000E+03 0.  0.
         25    1    1    2    0    0  0.71090099204E+02  0.18642254090E+03 -0.25483282666E+03  0.34694658884E+03  0.12500000000E+03 0.  0.
         25    1    1    2    0    0 -0.32651638453E+03  0.96282706855E+02 -0.52041454789E+03  0.63430245992E+03  0.12500000000E+03 0.  0.
</event>
<event>
 5    0  0.5474724E-005  0.2538158E+03  0.7546771E-02  0.1110917E+00
         21   -1    0    0  502  501  0.00000000000E+00  0.00000000000E+00  0.15099371151E+04  0.15099371151E+04  0.00000000000E+00 0.  1.
         21   -1    0    0  501  502 -0.00000000000E+00 -0.00000000000E+00 -0.42665652666E+02  0.42665652666E+02  0.00000000000E+00 0.  1.
         25    1    1    2    0    0  0.12192549187E+03 -0.37051913529E+02  0.49328256351E+03  0.52458684441E+03  0.12500000000E+03 0.  0.
         25    1    1    2    0    0 -0.63359734806E+02  0.10325483387E+03  0.57020691152E+03  0.59618532241E+03  0.12500000000E+03 0.  0.
         25    1    1    2    0    0 -0.58565757068E+02 -0.66202920336E+02  0.40378198739E+03  0.43183060093E+03  0.12500000000E+03 0.  0.
</event>
<event>
 5    0  0.5618321E-005  0.3374988E+03  0.7546771E-02  0.1067866E+00
         21   -1    0    0  502  501  0.00000000000E+00  0.00000000000E+00  0.11546571725E+03  0.11546571725E+03  0.00000000000E+00 0.  1.
         21   -1    0    0  501  502 -0.00000000000E+00 -0.00000000000E+00 -0.98648686809E+03  0.98648686809E+03  0.00000000000E+00 0.  1.
         25    1    1    2    0    0 -0.14381583813E+03 -0.85204181877E+02 -0.27122486800E+03  0.34224359297E+03  0.12500000000E+03 0.  0.
         25    1    1    2    0    0 -0.21005664084E+02 -0.50566265166E+01 -0.49477153184E+03  0.51077458445E+03  0.12500000000E+03 0.  0.
         25    1    1    2    0    0  0.16482150221E+03  0.90260808394E+02 -0.10502475100E+03  0.24893440792E+03  0.12500000000E+03 0.  0.
</event>
<event>
 5    0  0.5474724E-005  0.2126052E+03  0.7546771E-02  0.1139519E+00
         21   -1    0    0  502  501  0.00000000000E+00  0.00000000000E+00  0.14737225083E+02  0.14737225083E+02  0.00000000000E+00 0. -1.
         21   -1    0    0  501  502 -0.00000000000E+00 -0.00000000000E+00 -0.30671277911E+04  0.30671277911E+04  0.00000000000E+00 0. -1.
         25    1    1    2    0    0  0.25992835950E+02  0.14356438887E+02 -0.10154241739E+04  0.10235199010E+04  0.12500000000E+03 0.  0.
         25    1    1    2    0    0 -0.40420435643E+02  0.37472895669E+02 -0.62072366245E+03  0.63557918048E+03  0.12500000000E+03 0.  0.
         25    1    1    2    0    0  0.14427599693E+02 -0.51829334556E+02 -0.14162427296E+04  0.14227659346E+04  0.12500000000E+03 0.  0.
</event>
<event>
 5    0  0.5474724E-005  0.3296795E+03  0.7546771E-02  0.1071279E+00
         21   -1    0    0  502  501  0.00000000000E+00  0.00000000000E+00  0.23416680490E+03  0.23416680490E+03  0.00000000000E+00 0. -1.
         21   -1    0    0  501  502 -0.00000000000E+00 -0.00000000000E+00 -0.46415017409E+03  0.46415017409E+03  0.00000000000E+00 0. -1.
         25    1    1    2    0    0 -0.17686462468E+03  0.61300403201E+02 -0.16295806008E+03  0.27788336445E+03  0.12500000000E+03 0.  0.
         25    1    1    2    0    0 -0.42353968772E+02 -0.48736906138E+02 -0.89539099064E+02  0.16676748769E+03  0.12500000000E+03 0.  0.
         25    1    1    2    0    0  0.21921859345E+03 -0.12563497063E+02  0.22513789953E+02  0.25366612685E+03  0.12500000000E+03 0.  0.
</event>
<event>
 5    0  0.5474724E-005  0.2890138E+03  0.7546771E-02  0.1090865E+00
         21   -1    0    0  502  501  0.00000000000E+00  0.00000000000E+00  0.12301725227E+03  0.12301725227E+03  0.00000000000E+00 0. -1.
         21   -1    0    0  501  502 -0.00000000000E+00 -0.00000000000E+00 -0.67900199225E+03  0.67900199225E+03  0.00000000000E+00 0. -1.
         25    1    1    2    0    0 -0.97651544418E+00 -0.52379488890E+01  0.18110424100E+02  0.12641747170E+03  0.12500000000E+03 0.  0.
         25    1    1    2    0    0  0.69621504837E+02  0.10475522853E+03 -0.34581012551E+03  0.38862636908E+03  0.12500000000E+03 0.  0.
         25    1    1    2    0    0 -0.68644989393E+02 -0.99517279645E+02 -0.22828503857E+03  0.28697540374E+03  0.12500000000E+03 0.  0.
</event>
<event>
 5    0  0.5474724E-005  0.4270210E+03  0.7546771E-02  0.1034805E+00
         21   -1    0    0  502  501  0.00000000000E+00  0.00000000000E+00  0.24083606066E+03  0.24083606066E+03  0.00000000000E+00 0.  1.
         21   -1    0    0  501  502 -0.00000000000E+00 -0.00000000000E+00 -0.75714142115E+03  0.75714142115E+03  0.00000000000E+00 0.  1.
         25    1    1    2    0    0 -0.81646950639E+01  0.17325088051E+03 -0.18512629443E+03  0.28280607266E+03  0.12500000000E+03 0.  0.
         25    1    1    2    0    0  0.67131126366E+02  0.14788289750E+03 -0.30115282235E+03  0.36427182420E+03  0.12500000000E+03 0.  0.
         25    1    1    2    0    0 -0.58966431302E+02 -0.32113377801E+03 -0.30026243713E+02  0.35089958494E+03  0.12500000000E+03 0.  0.
</event>
<event>
 5    0  0.5474724E-005  0.3674218E+03  0.7546771E-02  0.1055683E+00
         21   -1    0    0  502  501  0.00000000000E+00  0.00000000000E+00  0.30575780000E+03  0.30575780000E+03  0.00000000000E+00 0.  1.
         21   -1    0    0  501  502 -0.00000000000E+00 -0.00000000000E+00 -0.44152194083E+03  0.44152194083E+03  0.00000000000E+00 0.  1.
         25    1    1    2    0    0  0.16186896376E+03  0.12612322795E+03 -0.72338185409E+02  0.25093115216E+03  0.12500000000E+03 0.  0.
         25    1    1    2    0    0 -0.47847629954E+02  0.44257527914E+02 -0.18065103611E+03  0.22914606983E+03  0.12500000000E+03 0.  0.
         25    1    1    2    0    0 -0.11402133380E+03 -0.17038075586E+03  0.11722508070E+03  0.26720251884E+03  0.12500000000E+03 0.  0.
</event>
<event>
 5    0  0.5474724E-005  0.2620525E+03  0.7546771E-02  0.1105916E+00
         21   -1    0    0  502  501  0.00000000000E+00  0.00000000000E+00  0.11835378161E+03  0.11835378161E+03  0.00000000000E+00 0. -1.
         21   -1    0    0  501  502 -0.00000000000E+00 -0.00000000000E+00 -0.58022236610E+03  0.58022236610E+03  0.00000000000E+00 0. -1.
         25    1    1    2    0    0 -0.35182236705E+02  0.36021253848E+02 -0.64645527723E+02  0.14946359009E+03  0.12500000000E+03 0.  0.
         25    1    1    2    0    0 -0.26553806864E+02  0.10606982303E+03 -0.10835213664E+03  0.19829548036E+03  0.12500000000E+03 0.  0.
         25    1    1    2    0    0  0.61736043569E+02 -0.14209107688E+03 -0.28887092012E+03  0.35081707726E+03  0.12500000000E+03 0.  0.
</event>
<event>
 5    0  0.5474724E-005  0.3626559E+03  0.7546771E-02  0.1057537E+00
         21   -1    0    0  502  501  0.00000000000E+00  0.00000000000E+00  0.19523774569E+04  0.19523774569E+04  0.00000000000E+00 0.  1.
         21   -1    0    0  501  502 -0.00000000000E+00 -0.00000000000E+00 -0.67363667240E+02  0.67363667240E+02  0.00000000000E+00 0.  1.
         25    1    1    2    0    0  0.70051847541E+02 -0.22099482415E+03  0.84991805340E+03  0.88979304961E+03  0.12500000000E+03 0.  0.
         25    1    1    2    0    0  0.87645241109E+02  0.38655704212E+02  0.21816545852E+03  0.26906712741E+03  0.12500000000E+03 0.  0.
         25    1    1    2    0    0 -0.15769708865E+03  0.18233911994E+03  0.81693027769E+03  0.86088094708E+03  0.12500000000E+03 0.  0.
</event>
<event>
 5    0  0.5474724E-005  0.2050265E+03  0.7546771E-02  0.1145566E+00
         21   -1    0    0  502  501  0.00000000000E+00  0.00000000000E+00  0.67246000935E+02  0.67246000935E+02  0.00000000000E+00 0. -1.
         21   -1    0    0  501  502 -0.00000000000E+00 -0.00000000000E+00 -0.62510597963E+03  0.62510597963E+03  0.00000000000E+00 0. -1.
         25    1    1    2    0    0 -0.23994986824E+02  0.37696542250E+02 -0.12549326638E+03  0.18267552819E+03  0.12500000000E+03 0.  0.
         25    1    1    2    0    0  0.33369523284E+02  0.57059747301E+01 -0.15324575530E+03  0.20063734635E+03  0.12500000000E+03 0.  0.
         25    1    1    2    0    0 -0.93745364606E+01 -0.43402516980E+02 -0.27912095701E+03  0.30903910603E+03  0.12500000000E+03 0.  0.
</event>
<event>
 5    0  0.5474724E-005  0.3229659E+03  0.7546771E-02  0.1074292E+00
         21   -1    0    0  502  501  0.00000000000E+00  0.00000000000E+00  0.20698543800E+03  0.20698543800E+03  0.00000000000E+00 0.  1.
         21   -1    0    0  501  502 -0.00000000000E+00 -0.00000000000E+00 -0.50393378566E+03  0.50393378566E+03  0.00000000000E+00 0.  1.
         25    1    1    2    0    0  0.31258972713E+02  0.19276807305E+02 -0.35212895515E+03  0.37545774693E+03  0.12500000000E+03 0.  0.
         25    1    1    2    0    0  0.39965816581E+01  0.77031416710E+02  0.86937381563E+02  0.17068368445E+03  0.12500000000E+03 0.  0.
         25    1    1    2    0    0 -0.35255554371E+02 -0.96308224016E+02 -0.31756774070E+02  0.16477779227E+03  0.12500000000E+03 0.  0.
</event>
<event>
 5    0  0.5474724E-005  0.4716383E+03  0.7546771E-02  0.1021459E+00
         21   -1    0    0  502  501  0.00000000000E+00  0.00000000000E+00  0.15875931349E+03  0.15875931349E+03  0.00000000000E+00 0.  1.
         21   -1    0    0  501  502 -0.00000000000E+00 -0.00000000000E+00 -0.14011318541E+04  0.14011318541E+04  0.00000000000E+00 0.  1.
         25    1    1    2    0    0  0.16021036808E+03  0.28989314109E+03 -0.60625131560E+03  0.70204775689E+03  0.12500000000E+03 0.  0.
         25    1    1    2    0    0 -0.42853700583E+02 -0.36498621608E+03 -0.43936612178E+03  0.58627550397E+03  0.12500000000E+03 0.  0.
         25    1    1    2    0    0 -0.11735666750E+03  0.75093074997E+02 -0.19675510322E+03  0.27156790672E+03  0.12500000000E+03 0.  0.
</event>
<event>
 5    0  0.5474724E-005  0.2935048E+03  0.7546771E-02  0.1088533E+00
         21   -1    0    0  502  501  0.00000000000E+00  0.00000000000E+00  0.37507826244E+03  0.37507826244E+03  0.00000000000E+00 0.  1.
         21   -1    0    0  501  502 -0.00000000000E+00 -0.00000000000E+00 -0.22967223197E+03  0.22967223197E+03  0.00000000000E+00 0.  1.
         25    1    1    2    0    0 -0.19181445206E+03 -0.73860722375E+01  0.38433077175E+02  0.23227018643E+03  0.12500000000E+03 0.  0.
         25    1    1    2    0    0  0.25068723560E+02 -0.32360958977E+02  0.90560861593E+02  0.15969327544E+03  0.12500000000E+03 0.  0.
         25    1    1    2    0    0  0.16674572850E+03  0.39747031214E+02  0.16412091700E+02  0.21278703254E+03  0.12500000000E+03 0.  0.
</event>
<event>
 5    0  0.5474724E-005  0.3094641E+03  0.7546771E-02  0.1080603E+00
         21   -1    0    0  502  501  0.00000000000E+00  0.00000000000E+00  0.20051920575E+04  0.20051920575E+04  0.00000000000E+00 0.  1.
         21   -1    0    0  501  502 -0.00000000000E+00 -0.00000000000E+00 -0.47760034776E+02  0.47760034776E+02  0.00000000000E+00 0.  1.
         25    1    1    2    0    0 -0.51857601277E+02 -0.10770701054E+02  0.18151080265E+03  0.22666360601E+03  0.12500000000E+03 0.  0.
         25    1    1    2    0    0  0.13221782739E+03 -0.95245033058E+02  0.13079336774E+04  0.13239594686E+04  0.12500000000E+03 0.  0.
         25    1    1    2    0    0 -0.80360226116E+02  0.10601573411E+03  0.46798754268E+03  0.50232901760E+03  0.12500000000E+03 0.  0.
</event>
<event>
 5    0  0.5474724E-005  0.5015931E+03  0.7546771E-02  0.1013364E+00
         21   -1    0    0  502  501  0.00000000000E+00  0.00000000000E+00  0.13540463290E+03  0.13540463290E+03  0.00000000000E+00 0. -1.
         21   -1    0    0  501  502 -0.00000000000E+00 -0.00000000000E+00 -0.18581022568E+04  0.18581022568E+04  0.00000000000E+00 0. -1.
         25    1    1    2    0    0  0.53795423347E+02  0.16258872951E+03 -0.70644502018E+03  0.73757617171E+03  0.12500000000E+03 0.  0.
         25    1    1    2    0    0  0.27992620532E+03 -0.21651865761E+03 -0.56707293272E+03  0.68002626460E+03  0.12500000000E+03 0.  0.
         25    1    1    2    0    0 -0.33372162867E+03  0.53929928102E+02 -0.44917967098E+03  0.57590445336E+03  0.12500000000E+03 0.  0.
</event>
<event>
 5    0  0.5474724E-005  0.2604563E+03  0.7546771E-02  0.1106869E+00
         21   -1    0    0  502  501  0.00000000000E+00  0.00000000000E+00  0.11437298446E+03  0.11437298446E+03  0.00000000000E+00 0. -1.
         21   -1    0    0  501  502 -0.00000000000E+00 -0.00000000000E+00 -0.59312519398E+03  0.59312519398E+03  0.00000000000E+00 0. -1.
         25    1    1    2    0    0 -0.14970215405E+02 -0.21337575876E+02 -0.41991241621E+01  0.12775770872E+03  0.12500000000E+03 0.  0.
         25    1    1    2    0    0  0.12794518568E+02  0.11999910031E+03 -0.24593605783E+03  0.30111962461E+03  0.12500000000E+03 0.  0.
         25    1    1    2    0    0  0.21756968366E+01 -0.98661524436E+02 -0.22861702753E+03  0.27862084512E+03  0.12500000000E+03 0.  0.
</event>
<event>
 5    0  0.5474724E-005  0.3662792E+03  0.7546771E-02  0.1056125E+00
         21   -1    0    0  502  501  0.00000000000E+00  0.00000000000E+00  0.11587104519E+04  0.11587104519E+04  0.00000000000E+00 0. -1.
         21   -1    0    0  501  502 -0.00000000000E+00 -0.00000000000E+00 -0.11578427513E+03  0.11578427513E+03  0.00000000000E+00 0. -1.
         25    1    1    2    0    0 -0.10323027278E+03 -0.11503535386E+02  0.56299759051E+03  0.58598643966E+03  0.12500000000E+03 0.  0.
         25    1    1    2    0    0  0.18038496050E+03  0.15128724615E+03  0.16356484302E+03  0.31273794572E+03  0.12500000000E+03 0.  0.
         25    1    1    2    0    0 -0.77154687724E+02 -0.13978371076E+03  0.31636374325E+03  0.37577034166E+03  0.12500000000E+03 0.  0.
</event>
<event>
 5    0  0.5474724E-005  0.6325818E+03  0.7546771E-02  0.9840024E-01
         21   -1    0    0  502  501  0.00000000000E+00  0.00000000000E+00  0.23565112189E+04  0.23565112189E+04  0.00000000000E+00 0. -1.
         21   -1    0    0  501  502 -0.00000000000E+00 -0.00000000000E+00 -0.16981023511E+03  0.16981023511E+03  0.00000000000E+00 0. -1.
         25    1    1    2    0    0 -0.28954639633E+02  0.10599296616E+03  0.12510794666E+03  0.20820633600E+03  0.12500000000E+03 0.  0.
         25    1    1    2    0    0  0.26748220105E+03  0.20253984951E+03  0.17929213359E+04  0.18283219178E+04  0.12500000000E+03 0.  0.
         25    1    1    2    0    0 -0.23852756142E+03 -0.30853281567E+03  0.26867170121E+03  0.48979320017E+03  0.12500000000E+03 0.  0.
</event>
<event>
 5    0  0.5474724E-005  0.2814716E+03  0.7546771E-02  0.1094888E+00
         21   -1    0    0  502  501  0.00000000000E+00  0.00000000000E+00  0.15231579725E+03  0.15231579725E+03  0.00000000000E+00 0.  1.
         21   -1    0    0  501  502 -0.00000000000E+00 -0.00000000000E+00 -0.52014468948E+03  0.52014468948E+03  0.00000000000E+00 0.  1.
         25    1    1    2    0    0  0.31280827950E+02  0.10341678422E+03 -0.80960125876E+02  0.18399202004E+03  0.12500000000E+03 0.  0.
         25    1    1    2    0    0  0.10139941261E+03 -0.13501711475E+03 -0.16143067979E+03  0.26494589359E+03  0.12500000000E+03 0.  0.
         25    1    1    2    0    0 -0.13268024056E+03  0.31600330524E+02 -0.12543808658E+03  0.22352257310E+03  0.12500000000E+03 0.  0.
</event>
<event>
 5    0  0.5474724E-005  0.2235763E+03  0.7546771E-02  0.1131245E+00
         21   -1    0    0  502  501  0.00000000000E+00  0.00000000000E+00  0.41588673448E+03  0.41588673448E+03  0.00000000000E+00 0.  1.
         21   -1    0    0  501  502 -0.00000000000E+00 -0.00000000000E+00 -0.12019224587E+03  0.12019224587E+03  0.00000000000E+00 0.  1.
         25    1    1    2    0    0  0.18415672726E+02  0.48715057320E+02  0.50371418981E+02  0.14448035736E+03  0.12500000000E+03 0.  0.
         25    1    1    2    0    0  0.54738650391E+02 -0.48882908946E+02  0.61207609461E+02  0.15734430428E+03  0.12500000000E+03 0.  0.
         25    1    1    2    0    0 -0.73154323118E+02  0.16785162665E+00  0.18411546016E+03  0.23425431871E+03  0.12500000000E+03 0.  0.
</event>
<event>
 5    0  0.5474724E-005  0.3461118E+03  0.7546771E-02  0.1064222E+00
         21   -1    0    0  502  501  0.00000000000E+00  0.00000000000E+00  0.74084502361E+03  0.74084502361E+03  0.00000000000E+00 0.  1.
         21   -1    0    0  501  502 -0.00000000000E+00 -0.00000000000E+00 -0.16169829761E+03  0.16169829761E+03  0.00000000000E+00 0.  1.
         25    1    1    2    0    0 -0.20973018938E+02 -0.10879484221E+03  0.48875428583E+03  0.51650937758E+03  0.12500000000E+03 0.  0.
         25    1    1    2    0    0  0.25646232456E+02  0.35225665322E+02 -0.85817140601E+02  0.15775981224E+03  0.12500000000E+03 0.  0.
         25    1    1    2    0    0 -0.46732135186E+01  0.73569176893E+02  0.17620958077E+03  0.22827413141E+03  0.12500000000E+03 0.  0.
</event>
<event>
 5    0  0.5474724E-005  0.4698675E+03  0.7546771E-02  0.1021958E+00
         21   -1    0    0  502  501  0.00000000000E+00  0.00000000000E+00  0.62814192551E+03  0.62814192551E+03  0.00000000000E+00 0. -1.
         21   -1    0    0  501  502 -0.00000000000E+00 -0.00000000000E+00 -0.35147392838E+03  0.35147392838E+03  0.00000000000E+00 0. -1.
         25    1    1    2    0    0 -0.11526756347E+03  0.20156334498E+03  0.48795446545E+03  0.55465210140E+03  0.12500000000E+03 0.  0.
         25    1    1    2    0    0  0.95136635177E+01 -0.93515353299E+02 -0.15657424321E+03  0.22130550091E+03  0.12500000000E+03 0.  0.
         25    1    1    2    0    0  0.10575389996E+03 -0.10804799168E+03 -0.54712225111E+02  0.20365825159E+03  0.12500000000E+03 0.  0.
</event>
<event>
 5    0  0.5474724E-005  0.3187682E+03  0.7546771E-02  0.1076218E+00
         21   -1    0    0  502  501  0.00000000000E+00  0.00000000000E+00  0.71512906293E+03  0.71512906293E+03  0.00000000000E+00 0.  1.
         21   -1    0    0  501  502 -0.00000000000E+00 -0.00000000000E+00 -0.14209066655E+03  0.14209066655E+03  0.00000000000E+00 0.  1.
         25    1    1    2    0    0 -0.15971570379E+02  0.15738467105E+03  0.23863087135E+03  0.31240153410E+03  0.12500000000E+03 0.  0.
         25    1    1    2    0    0 -0.14351291817E+03 -0.42746414269E+02  0.18026938497E+03  0.26560358577E+03  0.12500000000E+03 0.  0.
         25    1    1    2    0    0  0.15948448855E+03 -0.11463825678E+03  0.15413814006E+03  0.27921460962E+03  0.12500000000E+03 0.  0.
</event>
<event>
 5    0  0.5474724E-005  0.2403689E+03  0.7546771E-02  0.1119547E+00
         21   -1    0    0  502  501  0.00000000000E+00  0.00000000000E+00  0.46923983611E+03  0.46923983611E+03  0.00000000000E+00 0. -1.
         21   -1    0    0  501  502 -0.00000000000E+00 -0.00000000000E+00 -0.12312941793E+03  0.12312941793E+03  0.00000000000E+00 0. -1.
         25    1    1    2    0    0 -0.16155766040E+02 -0.13968900109E+03  0.13558177062E+03  0.23190826274E+03  0.12500000000E+03 0.  0.
         25    1    1    2    0    0  0.25023218097E+02  0.96676541025E+02  0.11025921625E+03  0.19430545488E+03  0.12500000000E+03 0.  0.
         25    1    1    2    0    0 -0.88674520570E+01  0.43012460069E+02  0.10026943130E+03  0.16615553641E+03  0.12500000000E+03 0.  0.
</event>
<event>
 5    0  0.5474724E-005  0.3008462E+03  0.7546771E-02  0.1084818E+00
         21   -1    0    0  502  501  0.00000000000E+00  0.00000000000E+00  0.98824410493E+02  0.98824410493E+02  0.00000000000E+00 0.  1.
         21   -1    0    0  501  502 -0.00000000000E+00 -0.00000000000E+00 -0.91585073975E+03  0.91585073975E+03  0.00000000000E+00 0.  1.
         25    1    1    2    0    0  0.30417833128E+01  0.89201662270E+02 -0.20898813428E+03  0.25935926678E+03  0.12500000000E+03 0.  0.
         25    1    1    2    0    0  0.85506206431E+02 -0.20453674239E+03 -0.31251654035E+03  0.40303619976E+03  0.12500000000E+03 0.  0.
         25    1    1    2    0    0 -0.88547989744E+02  0.11533508012E+03 -0.29552165463E+03  0.35227968370E+03  0.12500000000E+03 0.  0.
</event>
<event>
 5    0  0.5474724E-005  0.4228959E+03  0.7546771E-02  0.1036128E+00
         21   -1    0    0  502  501  0.00000000000E+00  0.00000000000E+00  0.50187032108E+03  0.50187032108E+03  0.00000000000E+00 0.  1.
         21   -1    0    0  501  502 -0.00000000000E+00 -0.00000000000E+00 -0.35634898122E+03  0.35634898122E+03  0.00000000000E+00 0.  1.
         25    1    1    2    0    0 -0.40848512190E+02  0.11404963776E+01  0.10804655906E+03  0.17020270446E+03  0.12500000000E+03 0.  0.
         25    1    1    2    0    0  0.22768637478E+03  0.13941947057E+03 -0.17974442550E+03  0.34527081043E+03  0.12500000000E+03 0.  0.
         25    1    1    2    0    0 -0.18683786259E+03 -0.14055996695E+03  0.21721920630E+03  0.34274578742E+03  0.12500000000E+03 0.  0.
</event>
<event>
 5    0  0.5474724E-005  0.5220486E+03  0.7546771E-02  0.1008179E+00
         21   -1    0    0  502  501  0.00000000000E+00  0.00000000000E+00  0.83074203249E+03  0.83074203249E+03  0.00000000000E+00 0.  1.
         21   -1    0    0  501  502 -0.00000000000E+00 -0.00000000000E+00 -0.32806180081E+03  0.32806180081E+03  0.00000000000E+00 0.  1.
         25    1    1    2    0    0  0.31905323839E+03 -0.15528282012E+03  0.15978740756E+03  0.40873553646E+03  0.12500000000E+03 0.  0.
         25    1    1    2    0    0 -0.44220257664E+03  0.16379257181E+03  0.21697354708E+03  0.53392288348E+03  0.12500000000E+03 0.  0.
         25    1    1    2    0    0  0.12314933825E+03 -0.85097516904E+01  0.12591927705E+03  0.21614541336E+03  0.12500000000E+03 0.  0.
</event>
<event>
 5    0  0.5742246E-005  0.6098969E+03  0.7546771E-02  0.9885083E-01
         21   -1    0    0  502  501  0.00000000000E+00  0.00000000000E+00  0.86322537062E+03  0.86322537062E+03  0.00000000000E+00 0.  1.
         21   -1    0    0  501  502 -0.00000000000E+00 -0.00000000000E+00 -0.43091207734E+03  0.43091207734E+03  0.00000000000E+00 0.  1.
         25    1    1    2    0    0  0.33642895598E+03  0.26161372155E+03  0.13113865569E+03  0.46308587620E+03  0.12500000000E+03 0.  0.
         25    1    1    2    0    0 -0.41350895750E+03 -0.44553640002E+02  0.35808554500E+03  0.56287204790E+03  0.12500000000E+03 0.  0.
         25    1    1    2    0    0  0.77080001520E+02 -0.21706008155E+03 -0.56910907408E+02  0.26817952386E+03  0.12500000000E+03 0.  0.
</event>
<event>
 5    0  0.5575278E-005  0.2987930E+03  0.7546771E-02  0.1085846E+00
         21   -1    0    0  502  501  0.00000000000E+00  0.00000000000E+00  0.58706004922E+03  0.58706004922E+03  0.00000000000E+00 0. -1.
         21   -1    0    0  501  502 -0.00000000000E+00 -0.00000000000E+00 -0.15207515232E+03  0.15207515232E+03  0.00000000000E+00 0. -1.
         25    1    1    2    0    0  0.28945481032E+02  0.19461663300E+03  0.16970870119E+03  0.28833924113E+03  0.12500000000E+03 0.  0.
         25    1    1    2    0    0 -0.88851069828E+02 -0.10752249023E+03  0.80307341777E+02  0.20378878197E+03  0.12500000000E+03 0.  0.
         25    1    1    2    0    0  0.59905588795E+02 -0.87094142771E+02  0.18496885393E+03  0.24700717843E+03  0.12500000000E+03 0.  0.
</event>
<event>
 5    0  0.5474724E-005  0.3229714E+03  0.7546771E-02  0.1074290E+00
         21   -1    0    0  502  501  0.00000000000E+00  0.00000000000E+00  0.75139783933E+03  0.75139783933E+03  0.00000000000E+00 0. -1.
         21   -1    0    0  501  502 -0.00000000000E+00 -0.00000000000E+00 -0.13882194192E+03  0.13882194192E+03  0.00000000000E+00 0. -1.
         25    1    1    2    0    0 -0.32065261335E+02 -0.10018566817E+03  0.20478459555E+03  0.26196770729E+03  0.12500000000E+03 0.  0.
         25    1    1    2    0    0  0.39209079609E+02  0.28642420878E+02 -0.53928782452E+02  0.14453737847E+03  0.12500000000E+03 0.  0.
         25    1    1    2    0    0 -0.71438182742E+01  0.71543247294E+02  0.46172008432E+03  0.48371469549E+03  0.12500000000E+03 0.  0.
</event>
<event>
 5    0  0.5474724E-005  0.5576889E+03  0.7546771E-02  0.9997298E-01
         21   -1    0    0  502  501  0.00000000000E+00  0.00000000000E+00  0.74414974159E+03  0.74414974159E+03  0.00000000000E+00 0. -1.
         21   -1    0    0  501  502 -0.00000000000E+00 -0.00000000000E+00 -0.41794928894E+03  0.41794928894E+03  0.00000000000E+00 0. -1.
         25    1    1    2    0    0 -0.53064952692E+02 -0.10883733931E+03  0.10799079861E+03  0.20481325205E+03  0.12500000000E+03 0.  0.
         25    1    1    2    0    0 -0.34697524545E+03  0.15760775618E+03 -0.11767518884E+03  0.41797664508E+03  0.12500000000E+03 0.  0.
         25    1    1    2    0    0  0.40004019814E+03 -0.48770416869E+02  0.33588484288E+03  0.53930913340E+03  0.12500000000E+03 0.  0.
</event>
<event>
 5    0  0.5474724E-005  0.2082162E+03  0.7546771E-02  0.1142986E+00
         21   -1    0    0  502  501  0.00000000000E+00  0.00000000000E+00  0.42835199095E+03  0.42835199095E+03  0.00000000000E+00 0. -1.
         21   -1    0    0  501  502 -0.00000000000E+00 -0.00000000000E+00 -0.10121113881E+03  0.10121113881E+03  0.00000000000E+00 0. -1.
         25    1    1    2    0    0  0.98482204680E+01  0.25206955106E+02  0.10960010209E+03  0.16843265838E+03  0.12500000000E+03 0.  0.
         25    1    1    2    0    0  0.46717291149E+02 -0.47486491303E+02  0.15096424277E+03  0.20700887600E+03  0.12500000000E+03 0.  0.
         25    1    1    2    0    0 -0.56565511617E+02  0.22279536197E+02  0.66576507290E+02  0.15412159537E+03  0.12500000000E+03 0.  0.
</event>
<event>
 5    0  0.5474724E-005  0.5232028E+03  0.7546771E-02  0.1007894E+00
         21   -1    0    0  502  501  0.00000000000E+00  0.00000000000E+00  0.42805457070E+03  0.42805457070E+03  0.00000000000E+00 0.  1.
         21   -1    0    0  501  502 -0.00000000000E+00 -0.00000000000E+00 -0.63950055452E+03  0.63950055452E+03  0.00000000000E+00 0.  1.
         25    1    1    2    0    0 -0.88525947530E+02 -0.78818894558E+02  0.43066512016E+02  0.17756403347E+03  0.12500000000E+03 0.  0.
         25    1    1    2    0    0  0.41573390819E+03  0.15870048424E+03 -0.26070731288E+03  0.53067299640E+03  0.12500000000E+03 0.  0.
         25    1    1    2    0    0 -0.32720796066E+03 -0.79881589682E+02  0.61948170450E+01  0.35931809535E+03  0.12500000000E+03 0.  0.
</event>
<event>
 5    0  0.6762757E-005  0.3024638E+03  0.7546771E-02  0.1084015E+00
         21   -1    0    0  502  501  0.00000000000E+00  0.00000000000E+00  0.49459751909E+03  0.49459751909E+03  0.00000000000E+00 0. -1.
         21   -1    0    0  501  502 -0.00000000000E+00 -0.00000000000E+00 -0.18496724173E+03  0.18496724173E+03  0.00000000000E+00 0. -1.
         25    1    1    2    0    0  0.12984458021E+03 -0.19486136816E+02 -0.28666828928E+02  0.18353776619E+03  0.12500000000E+03 0.  0.
         25    1    1    2    0    0 -0.48502668674E+02 -0.95437802794E+02  0.21584225864E+03  0.27142911355E+03  0.12500000000E+03 0.  0.
         25    1    1    2    0    0 -0.81341911534E+02  0.11492393961E+03  0.12245484766E+03  0.22459788107E+03  0.12500000000E+03 0.  0.
</event>
<event>
 5    0  0.5474724E-005  0.2130021E+03  0.7546771E-02  0.1139210E+00
         21   -1    0    0  502  501  0.00000000000E+00  0.00000000000E+00  0.14375996657E+04  0.14375996657E+04  0.00000000000E+00 0.  1.
         21   -1    0    0  501  502 -0.00000000000E+00 -0.00000000000E+00 -0.31559477670E+02  0.31559477670E+02  0.00000000000E+00 0.  1.
         25    1    1    2    0    0  0.68551537668E+01 -0.95364405006E+01  0.41187005668E+03  0.43058086397E+03  0.12500000000E+03 0.  0.
         25    1    1    2    0    0 -0.78253369774E+01  0.25000742494E+02  0.22127981429E+03  0.25549174005E+03  0.12500000000E+03 0.  0.
         25    1    1    2    0    0  0.97018321055E+00 -0.15464301994E+02  0.77289031702E+03  0.78308653931E+03  0.12500000000E+03 0.  0.
</event>
<event>
 5    0  0.5474724E-005  0.3421983E+03  0.7546771E-02  0.1065863E+00
         21   -1    0    0  502  501  0.00000000000E+00  0.00000000000E+00  0.20354908789E+03  0.20354908789E+03  0.00000000000E+00 0. -1.
         21   -1    0    0  501  502 -0.00000000000E+00 -0.00000000000E+00 -0.57528961872E+03  0.57528961872E+03  0.00000000000E+00 0. -1.
         25    1    1    2    0    0 -0.60056605875E+02 -0.64730539930E+02 -0.83316928977E+02  0.17425139702E+03  0.12500000000E+03 0.  0.
         25    1    1    2    0    0  0.21602943914E+03  0.13354025470E+03 -0.27197917576E+03  0.39255495188E+03  0.12500000000E+03 0.  0.
         25    1    1    2    0    0 -0.15597283327E+03 -0.68809714770E+02 -0.16444426086E+02  0.21203235770E+03  0.12500000000E+03 0.  0.
</event>
<event>
 5    0  0.5474724E-005  0.2261619E+03  0.7546771E-02  0.1129371E+00
         21   -1    0    0  502  501  0.00000000000E+00  0.00000000000E+00  0.59846903726E+03  0.59846903726E+03  0.00000000000E+00 0.  1.
         21   -1    0    0  501  502 -0.00000000000E+00 -0.00000000000E+00 -0.85466771725E+02  0.85466771725E+02  0.00000000000E+00 0.  1.
         25    1    1    2    0    0  0.21496067530E+02 -0.37573095325E+02  0.28443963612E+03  0.31369527412E+03  0.12500000000E+03 0.  0.
         25    1    1    2    0    0 -0.81631387882E+02  0.10363230146E+02  0.12532987150E+03  0.19520157970E+03  0.12500000000E+03 0.  0.
         25    1    1    2    0    0  0.60135320352E+02  0.27209865179E+02  0.10323275791E+03  0.17503895516E+03  0.12500000000E+03 0.  0.
</event>
<event>
 5    0  0.5474724E-005  0.3322906E+03  0.7546771E-02  0.1070128E+00
         21   -1    0    0  502  501  0.00000000000E+00  0.00000000000E+00  0.30940947036E+03  0.30940947036E+03  0.00000000000E+00 0. -1.
         21   -1    0    0  501  502 -0.00000000000E+00 -0.00000000000E+00 -0.35686381353E+03  0.35686381353E+03  0.00000000000E+00 0. -1.
         25    1    1    2    0    0  0.11127133464E+03 -0.21347927908E+03 -0.16511828484E+02  0.27175789406E+03  0.12500000000E+03 0.  0.
         25    1    1    2    0    0 -0.43908020097E+02  0.13114285962E+03 -0.10553898847E+03  0.21421914468E+03  0.12500000000E+03 0.  0.
         25    1    1    2    0    0 -0.67363314539E+02  0.82336419453E+02  0.74596473778E+02  0.18029624515E+03  0.12500000000E+03 0.  0.
</event>
<event>
 5    0  0.5474724E-005  0.3643648E+03  0.7546771E-02  0.1056869E+00
         21   -1    0    0  502  501  0.00000000000E+00  0.00000000000E+00  0.59625515586E+02  0.59625515586E+02  0.00000000000E+00 0. -1.
         21   -1    0    0  501  502 -0.00000000000E+00 -0.00000000000E+00 -0.22265923309E+04  0.22265923309E+04  0.00000000000E+00 0. -1.
         25    1    1    2    0    0 -0.12536537298E+03 -0.13400483579E+03 -0.82537011957E+03  0.85471317238E+03  0.12500000000E+03 0.  0.
         25    1    1    2    0    0 -0.67181222319E+02  0.11144895584E+03 -0.10194131069E+04  0.10352595176E+04  0.12500000000E+03 0.  0.
         25    1    1    2    0    0  0.19254659530E+03  0.22555879944E+02 -0.32218358882E+03  0.39624515643E+03  0.12500000000E+03 0.  0.
</event>
<event>
 5    0  0.6387935E-005  0.3103085E+03  0.7546771E-02  0.1080198E+00
         21   -1    0    0  502  501  0.00000000000E+00  0.00000000000E+00  0.17656876281E+03  0.17656876281E+03  0.00000000000E+00 0. -1.
         21   -1    0    0  501  502 -0.00000000000E+00 -0.00000000000E+00 -0.54534785377E+03  0.54534785377E+03  0.00000000000E+00 0. -1.
         25    1    1    2    0    0  0.46141313175E+02 -0.13774732385E+03 -0.16540924574E+03  0.25315719343E+03  0.12500000000E+03 0.  0.
         25    1    1    2    0    0 -0.53437878359E+02  0.10165711600E+03  0.55790390569E+02  0.17868224242E+03  0.12500000000E+03 0.  0.
         25    1    1    2    0    0  0.72965651838E+01  0.36090207848E+02 -0.25916023579E+03  0.29007718073E+03  0.12500000000E+03 0.  0.
</event>
<event>
 5    0  0.5474724E-005  0.3107984E+03  0.7546771E-02  0.1079964E+00
         21   -1    0    0  502  501  0.00000000000E+00  0.00000000000E+00  0.33428094780E+03  0.33428094780E+03  0.00000000000E+00 0. -1.
         21   -1    0    0  501  502 -0.00000000000E+00 -0.00000000000E+00 -0.28896539947E+03  0.28896539947E+03  0.00000000000E+00 0. -1.
         25    1    1    2    0    0 -0.36013567031E+02 -0.40214207378E+02 -0.51361257347E+02  0.14552366901E+03  0.12500000000E+03 0.  0.
         25    1    1    2    0    0  0.90614278766E+02 -0.15189548099E+03  0.10764131260E+03  0.24185705869E+03  0.12500000000E+03 0.  0.
         25    1    1    2    0    0 -0.54600711734E+02  0.19210968836E+03 -0.10964506929E+02  0.23586561957E+03  0.12500000000E+03 0.  0.
</event>
<event>
 5    0  0.5474724E-005  0.3640854E+03  0.7546771E-02  0.1056978E+00
         21   -1    0    0  502  501  0.00000000000E+00  0.00000000000E+00  0.55999061267E+03  0.55999061267E+03  0.00000000000E+00 0.  1.
         21   -1    0    0  501  502 -0.00000000000E+00 -0.00000000000E+00 -0.23671495816E+03  0.23671495816E+03  0.00000000000E+00 0.  1.
         25    1    1    2    0    0 -0.67146602198E+02  0.18232064727E+03 -0.11243952574E+03  0.25693799166E+03  0.12500000000E+03 0.  0.
         25    1    1    2    0    0  0.39673862600E+02 -0.10691205270E+03  0.21235290145E+03  0.27151971777E+03  0.12500000000E+03 0.  0.
         25    1    1    2    0    0  0.27472739598E+02 -0.75408594570E+02  0.22336227879E+03  0.26824786140E+03  0.12500000000E+03 0.  0.
</event>
<event>
 5    0  0.5474724E-005  0.2557372E+03  0.7546771E-02  0.1109732E+00
         21   -1    0    0  502  501  0.00000000000E+00  0.00000000000E+00  0.85567898600E+03  0.85567898600E+03  0.00000000000E+00 0.  1.
         21   -1    0    0  501  502 -0.00000000000E+00 -0.00000000000E+00 -0.76432279348E+02  0.76432279348E+02  0.00000000000E+00 0.  1.
         25    1    1    2    0    0  0.71919584348E+01  0.57650712161E+02  0.12182953978E+03  0.18396403356E+03  0.12500000000E+03 0.  0.
         25    1    1    2    0    0 -0.26163441420E+02 -0.30682373212E+02  0.74362318585E+02  0.15093272713E+03  0.12500000000E+03 0.  0.
         25    1    1    2    0    0  0.18971482986E+02 -0.26968338950E+02  0.58305484828E+03  0.59721450466E+03  0.12500000000E+03 0.  0.
</event>
<event>
 5    0  0.5474724E-005  0.2132289E+03  0.7546771E-02  0.1139034E+00
         21   -1    0    0  502  501  0.00000000000E+00  0.00000000000E+00  0.19580358935E+02  0.19580358935E+02  0.00000000000E+00 0.  1.
         21   -1    0    0  501  502 -0.00000000000E+00 -0.00000000000E+00 -0.23220488619E+04  0.23220488619E+04  0.00000000000E+00 0.  1.
         25    1    1    2    0    0 -0.42222200930E+02 -0.28162250309E+02 -0.47090877353E+03  0.48985293669E+03  0.12500000000E+03 0.  0.
         25    1    1    2    0    0 -0.18948829982E+02 -0.73043441689E+01 -0.98733839190E+03  0.99542679878E+03  0.12500000000E+03 0.  0.
         25    1    1    2    0    0  0.61171030911E+02  0.35466594478E+02 -0.84422133754E+03  0.85634948538E+03  0.12500000000E+03 0.  0.
</event>
<event>
 5    0  0.5577977E-005  0.4197441E+03  0.7546771E-02  0.1037150E+00
         21   -1    0    0  502  501  0.00000000000E+00  0.00000000000E+00  0.66406405743E+03  0.66406405743E+03  0.00000000000E+00 0.  1.
         21   -1    0    0  501  502 -0.00000000000E+00 -0.00000000000E+00 -0.26531346966E+03  0.26531346966E+03  0.00000000000E+00 0.  1.
         25    1    1    2    0    0  0.18666756218E+03  0.86611878840E+02 -0.36916245360E+02  0.24358613569E+03  0.12500000000E+03 0.  0.
         25    1    1    2    0    0  0.81703127915E+02  0.73032823441E+02  0.25386179424E+03  0.30344687341E+03  0.12500000000E+03 0.  0.
         25    1    1    2    0    0 -0.26837069010E+03 -0.15964470228E+03  0.18180503889E+03  0.38234451799E+03  0.12500000000E+03 0.  0.
</event>
<event>
 5    0  0.5474724E-005  0.2495371E+03  0.7546771E-02  0.1113598E+00
         21   -1    0    0  502  501  0.00000000000E+00  0.00000000000E+00  0.18546448080E+03  0.18546448080E+03  0.00000000000E+00 0.  1.
         21   -1    0    0  501  502 -0.00000000000E+00 -0.00000000000E+00 -0.33574497027E+03  0.33574497027E+03  0.00000000000E+00 0.  1.
         25    1    1    2    0    0  0.84217344188E+02 -0.47948279769E+02  0.36970081928E+02  0.16242963262E+03  0.12500000000E+03 0.  0.
         25    1    1    2    0    0 -0.53087223617E+02 -0.11083687518E+02 -0.16716681084E+03  0.21566372918E+03  0.12500000000E+03 0.  0.
         25    1    1    2    0    0 -0.31130120571E+02  0.59031967287E+02 -0.20083760558E+02  0.14311608927E+03  0.12500000000E+03 0.  0.
</event>
<event>
 5    0  0.5474724E-005  0.3716282E+03  0.7546771E-02  0.1054072E+00
         21   -1    0    0  502  501  0.00000000000E+00  0.00000000000E+00  0.99551443089E+02  0.99551443089E+02  0.00000000000E+00 0. -1.
         21   -1    0    0  501  502 -0.00000000000E+00 -0.00000000000E+00 -0.13872979347E+04  0.13872979347E+04  0.00000000000E+00 0. -1.
         25    1    1    2    0    0  0.10520758947E+03 -0.23972749322E+03 -0.43152569614E+03  0.51997820562E+03  0.12500000000E+03 0.  0.
         25    1    1    2    0    0 -0.74756529507E+02  0.21188173941E+03 -0.29915066345E+03  0.39445979471E+03  0.12500000000E+03 0.  0.
         25    1    1    2    0    0 -0.30451059962E+02  0.27845753809E+02 -0.55707013206E+03  0.57241137750E+03  0.12500000000E+03 0.  0.
</event>
<event>
 5    0  0.5474724E-005  0.2711286E+03  0.7546771E-02  0.1100635E+00
         21   -1    0    0  502  501  0.00000000000E+00  0.00000000000E+00  0.17523003216E+04  0.17523003216E+04  0.00000000000E+00 0.  1.
         21   -1    0    0  501  502 -0.00000000000E+00 -0.00000000000E+00 -0.41950988279E+02  0.41950988279E+02  0.00000000000E+00 0.  1.
         25    1    1    2    0    0 -0.46433597069E+02  0.84271093775E+02  0.93778477451E+03  0.95095897886E+03  0.12500000000E+03 0.  0.
         25    1    1    2    0    0  0.38017831137E+02 -0.14398878429E+03  0.51910348139E+03  0.55432080051E+03  0.12500000000E+03 0.  0.
         25    1    1    2    0    0  0.84157659314E+01  0.59717690510E+02  0.25346107743E+03  0.28897153052E+03  0.12500000000E+03 0.  0.
</event>
<event>
 5    0  0.5474724E-005  0.3282572E+03  0.7546771E-02  0.1071911E+00
         21   -1    0    0  502  501  0.00000000000E+00  0.00000000000E+00  0.73183738532E+03  0.73183738532E+03  0.00000000000E+00 0.  1.
         21   -1    0    0  501  502 -0.00000000000E+00 -0.00000000000E+00 -0.14723596193E+03  0.14723596193E+03  0.00000000000E+00 0.  1.
         25    1    1    2    0    0  0.52869115512E+02 -0.42466623860E+02  0.11215452851E+03  0.18111376475E+03  0.12500000000E+03 0.  0.
         25    1    1    2    0    0 -0.12329623767E+03  0.11002972749E+03  0.81922113694E+01  0.20736589759E+03  0.12500000000E+03 0.  0.
         25    1    1    2    0    0  0.70427122161E+02 -0.67563103632E+02  0.46425468352E+03  0.49059368491E+03  0.12500000000E+03 0.  0.
</event>
<event>
 5    0  0.5474724E-005  0.2113390E+03  0.7546771E-02  0.1140510E+00
         21   -1    0    0  502  501  0.00000000000E+00  0.00000000000E+00  0.91058577690E+02  0.91058577690E+02  0.00000000000E+00 0.  1.
         21   -1    0    0  501  502 -0.00000000000E+00 -0.00000000000E+00 -0.49049955182E+03  0.49049955182E+03  0.00000000000E+00 0.  1.
         25    1    1    2    0    0 -0.69354761464E+02  0.34475799697E+02 -0.19557050312E+03  0.24468650431E+03  0.12500000000E+03 0.  0.
         25    1    1    2    0    0  0.85269015250E+01 -0.27646705715E+01 -0.87820939639E+02  0.15302898056E+03  0.12500000000E+03 0.  0.
         25    1    1    2    0    0  0.60827859939E+02 -0.31711129126E+02 -0.11604953137E+03  0.18384264464E+03  0.12500000000E+03 0.  0.
</event>
<event>
 5    0  0.5474724E-005  0.3143320E+03  0.7546771E-02  0.1078288E+00
         21   -1    0    0  502  501  0.00000000000E+00  0.00000000000E+00  0.19660260940E+03  0.19660260940E+03  0.00000000000E+00 0. -1.
         21   -1    0    0  501  502 -0.00000000000E+00 -0.00000000000E+00 -0.50256012381E+03  0.50256012381E+03  0.00000000000E+00 0. -1.
         25    1    1    2    0    0  0.35613685390E+02 -0.12550115654E+02  0.93704400822E+02  0.16072135740E+03  0.12500000000E+03 0.  0.
         25    1    1    2    0    0 -0.13338513043E+03 -0.28866328777E+02 -0.14311360630E+03  0.23394734934E+03  0.12500000000E+03 0.  0.
         25    1    1    2    0    0  0.97771445040E+02  0.41416444430E+02 -0.25654830894E+03  0.30449402647E+03  0.12500000000E+03 0.  0.
</event>
<event>
 5    0  0.5474724E-005  0.2518903E+03  0.7546771E-02  0.1112116E+00
         21   -1    0    0  502  501  0.00000000000E+00  0.00000000000E+00  0.21284551495E+03  0.21284551495E+03  0.00000000000E+00 0. -1.
         21   -1    0    0  501  502 -0.00000000000E+00 -0.00000000000E+00 -0.29809754937E+03  0.29809754937E+03  0.00000000000E+00 0. -1.
         25    1    1    2    0    0 -0.94304861720E+02  0.92337461298E+02 -0.57525565534E+00  0.18178268515E+03  0.12500000000E+03 0.  0.
         25    1    1    2    0    0  0.10113796215E+03 -0.92173915093E+02 -0.15133134264E+02  0.18595410661E+03  0.12500000000E+03 0.  0.
         25    1    1    2    0    0 -0.68331004299E+01 -0.16354620503E+00 -0.69543644500E+02  0.14320627256E+03  0.12500000000E+03 0.  0.
</event>
<event>
 5    0  0.5474724E-005  0.2938650E+03  0.7546771E-02  0.1088348E+00
         21   -1    0    0  502  501  0.00000000000E+00  0.00000000000E+00  0.57329848055E+03  0.57329848055E+03  0.00000000000E+00 0. -1.
         21   -1    0    0  501  502 -0.00000000000E+00 -0.00000000000E+00 -0.15063120339E+03  0.15063120339E+03  0.00000000000E+00 0. -1.
         25    1    1    2    0    0 -0.39520481951E+02  0.19455399066E+03  0.10697450963E+03  0.25784039538E+03  0.12500000000E+03 0.  0.
         25    1    1    2    0    0  0.14585577279E+02 -0.13354011870E+03  0.10212036967E+03  0.20999826730E+03  0.12500000000E+03 0.  0.
         25    1    1    2    0    0  0.24934904672E+02 -0.61013871965E+02  0.21357239786E+03  0.25609102126E+03  0.12500000000E+03 0.  0.
</event>
<event>
 5    0  0.5474724E-005  0.3147826E+03  0.7546771E-02  0.1078076E+00
         21   -1    0    0  502  501  0.00000000000E+00  0.00000000000E+00  0.21171271697E+03  0.21171271697E+03  0.00000000000E+00 0.  1.
         21   -1    0    0  501  502 -0.00000000000E+00 -0.00000000000E+00 -0.46803083376E+03  0.46803083376E+03  0.00000000000E+00 0.  1.
         25    1    1    2    0    0  0.19009104601E+02  0.23715367326E+03 -0.15916158225E+03  0.31234695462E+03  0.12500000000E+03 0.  0.
         25    1    1    2    0    0 -0.26639468004E+02 -0.10682281524E+03 -0.82978769060E+02  0.18609473724E+03  0.12500000000E+03 0.  0.
         25    1    1    2    0    0  0.76303634030E+01 -0.13033085801E+03 -0.14177765478E+02  0.18130185887E+03  0.12500000000E+03 0.  0.
</event>
<event>
 5    0  0.5474724E-005  0.3554703E+03  0.7546771E-02  0.1060392E+00
         21   -1    0    0  502  501  0.00000000000E+00  0.00000000000E+00  0.65043889392E+02  0.65043889392E+02  0.00000000000E+00 0. -1.
         21   -1    0    0  501  502 -0.00000000000E+00 -0.00000000000E+00 -0.19426753780E+04  0.19426753780E+04  0.00000000000E+00 0. -1.
         25    1    1    2    0    0 -0.20401183695E+03  0.11800047929E+02 -0.50179822514E+03  0.55604543834E+03  0.12500000000E+03 0.  0.
         25    1    1    2    0    0  0.33346551500E+02  0.85864288164E+02 -0.98103196586E+03  0.99324387062E+03  0.12500000000E+03 0.  0.
         25    1    1    2    0    0  0.17066528545E+03 -0.97664336093E+02 -0.39480129762E+03  0.45842995845E+03  0.12500000000E+03 0.  0.
</event>
<event>
 5    0  0.5474724E-005  0.2922723E+03  0.7546771E-02  0.1089169E+00
         21   -1    0    0  502  501  0.00000000000E+00  0.00000000000E+00  0.94055949734E+02  0.94055949734E+02  0.00000000000E+00 0.  1.
         21   -1    0    0  501  502 -0.00000000000E+00 -0.00000000000E+00 -0.90821558090E+03  0.90821558090E+03  0.00000000000E+00 0.  1.
         25    1    1    2    0    0  0.13061927101E+03  0.97236145818E+02 -0.32940058731E+03  0.38813143255E+03  0.12500000000E+03 0.  0.
         25    1    1    2    0    0 -0.79892521328E+02 -0.32167338660E+02 -0.42774548895E+03  0.45388187446E+03  0.12500000000E+03 0.  0.
         25    1    1    2    0    0 -0.50726749683E+02 -0.65068807157E+02 -0.57013554906E+02  0.16025822363E+03  0.12500000000E+03 0.  0.
</event>
<event>
 5    0  0.5474724E-005  0.3105812E+03  0.7546771E-02  0.1080068E+00
         21   -1    0    0  502  501  0.00000000000E+00  0.00000000000E+00  0.17692420116E+04  0.17692420116E+04  0.00000000000E+00 0. -1.
         21   -1    0    0  501  502 -0.00000000000E+00 -0.00000000000E+00 -0.54520920161E+02  0.54520920161E+02  0.00000000000E+00 0. -1.
         25    1    1    2    0    0  0.10124561857E+03 -0.16861945285E+03  0.44426889470E+03  0.50168022281E+03  0.12500000000E+03 0.  0.
         25    1    1    2    0    0 -0.10437601933E+03  0.34477235391E+02  0.41385868145E+03  0.44607963570E+03  0.12500000000E+03 0.  0.
         25    1    1    2    0    0  0.31304007596E+01  0.13414221746E+03  0.85659351525E+03  0.87600307322E+03  0.12500000000E+03 0.  0.
</event>
<event>
 5    0  0.5474724E-005  0.2624254E+03  0.7546771E-02  0.1105695E+00
         21   -1    0    0  502  501  0.00000000000E+00  0.00000000000E+00  0.30791775009E+03  0.30791775009E+03  0.00000000000E+00 0.  1.
         21   -1    0    0  501  502 -0.00000000000E+00 -0.00000000000E+00 -0.22365423918E+03  0.22365423918E+03  0.00000000000E+00 0.  1.
         25    1    1    2    0    0  0.14246959921E+02  0.12352088168E+03 -0.34777770064E+02  0.17970775545E+03  0.12500000000E+03 0.  0.
         25    1    1    2    0    0  0.73802757513E+02 -0.94886470599E+02  0.82640071349E+02  0.19210588412E+03  0.12500000000E+03 0.  0.
         25    1    1    2    0    0 -0.88049717434E+02 -0.28634411085E+02  0.36401209630E+02  0.15975834971E+03  0.12500000000E+03 0.  0.
</event>
<event>
 5    0  0.5474724E-005  0.3458079E+03  0.7546771E-02  0.1064349E+00
         21   -1    0    0  502  501  0.00000000000E+00  0.00000000000E+00  0.83892318151E+03  0.83892318151E+03  0.00000000000E+00 0.  1.
         21   -1    0    0  501  502 -0.00000000000E+00 -0.00000000000E+00 -0.14254360171E+03  0.14254360171E+03  0.00000000000E+00 0.  1.
         25    1    1    2    0    0  0.71618349242E+02 -0.80792187634E+02  0.36632683682E+02  0.16918486648E+03  0.12500000000E+03 0.  0.
         25    1    1    2    0    0 -0.38089355607E+02 -0.12689095376E+03  0.46544583815E+03  0.49981690789E+03  0.12500000000E+03 0.  0.
         25    1    1    2    0    0 -0.33528993635E+02  0.20768314140E+03  0.19430105796E+03  0.31246500886E+03  0.12500000000E+03 0.  0.
</event>
<event>
 5    0  0.5474724E-005  0.2346717E+03  0.7546771E-02  0.1123394E+00
         21   -1    0    0  502  501  0.00000000000E+00  0.00000000000E+00  0.41101427834E+02  0.41101427834E+02  0.00000000000E+00 0. -1.
         21   -1    0    0  501  502 -0.00000000000E+00 -0.00000000000E+00 -0.13398753179E+04  0.13398753179E+04  0.00000000000E+00 0. -1.
         25    1    1    2    0    0 -0.68805212808E+02  0.32522565091E+02 -0.26589446874E+03  0.30350740198E+03  0.12500000000E+03 0.  0.
         25    1    1    2    0    0 -0.27465365801E+02 -0.63569681208E+02 -0.56233643315E+03  0.58020919912E+03  0.12500000000E+03 0.  0.
         25    1    1    2    0    0  0.96270578609E+02  0.31047116116E+02 -0.47054298815E+03  0.49726014461E+03  0.12500000000E+03 0.  0.
</event>
<event>
 5    0  0.5474724E-005  0.2726747E+03  0.7546771E-02  0.1099758E+00
         21   -1    0    0  502  501  0.00000000000E+00  0.00000000000E+00  0.63374486468E+03  0.63374486468E+03  0.00000000000E+00 0.  1.
         21   -1    0    0  501  502 -0.00000000000E+00 -0.00000000000E+00 -0.11732086722E+03  0.11732086722E+03  0.00000000000E+00 0.  1.
         25    1    1    2    0    0 -0.10085914038E+03 -0.23749050588E+01  0.27623587541E+03  0.31954571697E+03  0.12500000000E+03 0.  0.
         25    1    1    2    0    0  0.12628350516E+03 -0.79416911145E+01  0.22881677860E+02  0.17932976695E+03  0.12500000000E+03 0.  0.
         25    1    1    2    0    0 -0.25424364785E+02  0.10316596173E+02  0.21730644419E+03  0.25219024797E+03  0.12500000000E+03 0.  0.
</event>
<event>
 5    0  0.5474724E-005  0.2966740E+03  0.7546771E-02  0.1086915E+00
         21   -1    0    0  502  501  0.00000000000E+00  0.00000000000E+00  0.98974913502E+02  0.98974913502E+02  0.00000000000E+00 0.  1.
         21   -1    0    0  501  502 -0.00000000000E+00 -0.00000000000E+00 -0.88927026455E+03  0.88927026455E+03  0.00000000000E+00 0.  1.
         25    1    1    2    0    0 -0.50471095613E+02  0.17352271439E+03 -0.15899767919E+03  0.27122449353E+03  0.12500000000E+03 0.  0.
         25    1    1    2    0    0 -0.35482464597E+02 -0.40119947835E+02 -0.21691008544E+03  0.25601484464E+03  0.12500000000E+03 0.  0.
         25    1    1    2    0    0  0.85953560210E+02 -0.13340276655E+03 -0.41438758641E+03  0.46100583989E+03  0.12500000000E+03 0.  0.
</event>
<event>
 5    0  0.5474724E-005  0.2495897E+03  0.7546771E-02  0.1113564E+00
         21   -1    0    0  502  501  0.00000000000E+00  0.00000000000E+00  0.24600523686E+02  0.24600523686E+02  0.00000000000E+00 0.  1.
         21   -1    0    0  501  502 -0.00000000000E+00 -0.00000000000E+00 -0.25322636424E+04  0.25322636424E+04  0.00000000000E+00 0.  1.
         25    1    1    2    0    0 -0.81706167492E+02  0.61902762818E+01 -0.52727668747E+03  0.54805102178E+03  0.12500000000E+03 0.  0.
         25    1    1    2    0    0 -0.44709072409E+02 -0.30299834092E+01 -0.12526895037E+04  0.12597079323E+04  0.12500000000E+03 0.  0.
         25    1    1    2    0    0  0.12641523990E+03 -0.31602928726E+01 -0.72769692746E+03  0.74910521194E+03  0.12500000000E+03 0.  0.
</event>
<event>
 5    0  0.5474724E-005  0.3281897E+03  0.7546771E-02  0.1071941E+00
         21   -1    0    0  502  501  0.00000000000E+00  0.00000000000E+00  0.13501867748E+03  0.13501867748E+03  0.00000000000E+00 0.  1.
         21   -1    0    0  501  502 -0.00000000000E+00 -0.00000000000E+00 -0.79773044594E+03  0.79773044594E+03  0.00000000000E+00 0.  1.
         25    1    1    2    0    0  0.81186574414E+02  0.45523700616E+02 -0.35305745724E+03  0.38592516800E+03  0.12500000000E+03 0.  0.
         25    1    1    2    0    0 -0.21860501838E+03  0.29046954970E+01 -0.22227775515E+03  0.33590027055E+03  0.12500000000E+03 0.  0.
         25    1    1    2    0    0  0.13741844397E+03 -0.48428396113E+02 -0.87376556071E+02  0.21092368488E+03  0.12500000000E+03 0.  0.
</event>
<event>
 5    0  0.5474724E-005  0.2509411E+03  0.7546771E-02  0.1112711E+00
         21   -1    0    0  502  501  0.00000000000E+00  0.00000000000E+00  0.42011376078E+03  0.42011376078E+03  0.00000000000E+00 0.  1.
         21   -1    0    0  501  502 -0.00000000000E+00 -0.00000000000E+00 -0.14989143601E+03  0.14989143601E+03  0.00000000000E+00 0.  1.
         25    1    1    2    0    0 -0.49583791683E+02  0.63427891039E+02  0.20729250161E+02  0.15012112300E+03  0.12500000000E+03 0.  0.
         25    1    1    2    0    0  0.60680939052E+01 -0.54236001998E+02  0.25270993969E+03  0.28716838143E+03  0.12500000000E+03 0.  0.
         25    1    1    2    0    0  0.43515697778E+02 -0.91918890404E+01 -0.32168650739E+01  0.13271569236E+03  0.12500000000E+03 0.  0.
</event>
<event>
 5    0  0.5474724E-005  0.2553071E+03  0.7546771E-02  0.1109996E+00
         21   -1    0    0  502  501  0.00000000000E+00  0.00000000000E+00  0.13844749525E+03  0.13844749525E+03  0.00000000000E+00 0. -1.
         21   -1    0    0  501  502 -0.00000000000E+00 -0.00000000000E+00 -0.47080442348E+03  0.47080442348E+03  0.00000000000E+00 0. -1.
         25    1    1    2    0    0  0.13455355534E+02  0.16391690951E+02 -0.18687311385E+03  0.22582359222E+03  0.12500000000E+03 0.  0.
         25    1    1    2    0    0 -0.43228975880E+02  0.80548297176E+02  0.15678149531E+02  0.15565210216E+03  0.12500000000E+03 0.  0.
         25    1    1    2    0    0  0.29773620346E+02 -0.96939988126E+02 -0.16116196391E+03  0.22777622435E+03  0.12500000000E+03 0.  0.
</event>
<event>
 5    0  0.6757123E-005  0.2818038E+03  0.7546771E-02  0.1094708E+00
         21   -1    0    0  502  501  0.00000000000E+00  0.00000000000E+00  0.29281747558E+03  0.29281747558E+03  0.00000000000E+00 0. -1.
         21   -1    0    0  501  502 -0.00000000000E+00 -0.00000000000E+00 -0.27120431458E+03  0.27120431458E+03  0.00000000000E+00 0. -1.
         25    1    1    2    0    0 -0.17583877706E+03 -0.34004612414E+02 -0.80829890468E+02  0.23288207397E+03  0.12500000000E+03 0.  0.
         25    1    1    2    0    0  0.11248538381E+03 -0.73381290764E+01  0.45852774677E+02  0.17445425376E+03  0.12500000000E+03 0.  0.
         25    1    1    2    0    0  0.63353393248E+02  0.41342741490E+02  0.56590276789E+02  0.15668546243E+03  0.12500000000E+03 0.  0.
</event>
<event>
 5    0  0.5474724E-005  0.3741262E+03  0.7546771E-02  0.1053126E+00
         21   -1    0    0  502  501  0.00000000000E+00  0.00000000000E+00  0.51723324366E+03  0.51723324366E+03  0.00000000000E+00 0. -1.
         21   -1    0    0  501  502 -0.00000000000E+00 -0.00000000000E+00 -0.27061371297E+03  0.27061371297E+03  0.00000000000E+00 0. -1.
         25    1    1    2    0    0  0.98409329359E+01  0.96424351839E+02  0.28370274305E+02  0.16069963302E+03  0.12500000000E+03 0.  0.
         25    1    1    2    0    0  0.15747849925E+03  0.10028974044E+03 -0.54590202746E+02  0.23121980884E+03  0.12500000000E+03 0.  0.
         25    1    1    2    0    0 -0.16731943219E+03 -0.19671409228E+03  0.27283945914E+03  0.39592751477E+03  0.12500000000E+03 0.  0.
</event>
<event>
 5    0  0.5474724E-005  0.5513838E+03  0.7546771E-02  0.1001174E+00
         21   -1    0    0  502  501  0.00000000000E+00  0.00000000000E+00  0.24824106535E+03  0.24824106535E+03  0.00000000000E+00 0.  1.
         21   -1    0    0  501  502 -0.00000000000E+00 -0.00000000000E+00 -0.12247129334E+04  0.12247129334E+04  0.00000000000E+00 0.  1.
         25    1    1    2    0    0 -0.19410630551E+03 -0.12703615264E+03 -0.24828186028E+02  0.26468260377E+03  0.12500000000E+03 0.  0.
         25    1    1    2    0    0  0.19795036442E+03  0.38673828250E+03 -0.64234090130E+03  0.78547926734E+03  0.12500000000E+03 0.  0.
         25    1    1    2    0    0 -0.38440589071E+01 -0.25970212987E+03 -0.30930278074E+03  0.42279212767E+03  0.12500000000E+03 0.  0.
</event>
<event>
 5    0  0.5474724E-005  0.2451231E+03  0.7546771E-02  0.1116426E+00
         21   -1    0    0  502  501  0.00000000000E+00  0.00000000000E+00  0.29729108234E+04  0.29729108234E+04  0.00000000000E+00 0. -1.
         21   -1    0    0  501  502 -0.00000000000E+00 -0.00000000000E+00 -0.20210951766E+02  0.20210951766E+02  0.00000000000E+00 0. -1.
         25    1    1    2    0    0  0.12499142812E+03 -0.12181469480E+02  0.11738858858E+04  0.11871833549E+04  0.12500000000E+03 0.  0.
         25    1    1    2    0    0 -0.71806956217E+02 -0.53522645258E+02  0.10896972015E+04  0.11004934818E+04  0.12500000000E+03 0.  0.
         25    1    1    2    0    0 -0.53184471901E+02  0.65704114738E+02  0.68911678430E+03  0.70544493842E+03  0.12500000000E+03 0.  0.
</event>
<event>
 5    0  0.5474724E-005  0.3620442E+03  0.7546771E-02  0.1057777E+00
         21   -1    0    0  502  501  0.00000000000E+00  0.00000000000E+00  0.22028940437E+03  0.22028940437E+03  0.00000000000E+00 0.  1.
         21   -1    0    0  501  502 -0.00000000000E+00 -0.00000000000E+00 -0.59501724252E+03  0.59501724252E+03  0.00000000000E+00 0.  1.
         25    1    1    2    0    0  0.19795755152E+03 -0.17876915073E+03 -0.26358805879E+03  0.39528377932E+03  0.12500000000E+03 0.  0.
         25    1    1    2    0    0 -0.19125973768E+03  0.14989772498E+03 -0.10033243803E+03  0.29110344095E+03  0.12500000000E+03 0.  0.
         25    1    1    2    0    0 -0.66978138391E+01  0.28871425751E+02 -0.10807341339E+02  0.12891942663E+03  0.12500000000E+03 0.  0.
</event>
<event>
 5    0  0.5474724E-005  0.2319469E+03  0.7546771E-02  0.1125277E+00
         21   -1    0    0  502  501  0.00000000000E+00  0.00000000000E+00  0.32823682606E+03  0.32823682606E+03  0.00000000000E+00 0. -1.
         21   -1    0    0  501  502 -0.00000000000E+00 -0.00000000000E+00 -0.16390412506E+03  0.16390412506E+03  0.00000000000E+00 0. -1.
         25    1    1    2    0    0  0.46246704682E+02  0.54961890665E+02  0.15208691210E+02  0.14496851868E+03  0.12500000000E+03 0.  0.
         25    1    1    2    0    0 -0.77564039350E+02 -0.93727511346E+02  0.11302104806E+03  0.20784557702E+03  0.12500000000E+03 0.  0.
         25    1    1    2    0    0  0.31317334668E+02  0.38765620681E+02  0.36102961730E+02  0.13932685543E+03  0.12500000000E+03 0.  0.
</event>
<event>
 5    0  0.5474724E-005  0.3230816E+03  0.7546771E-02  0.1074240E+00
         21   -1    0    0  502  501  0.00000000000E+00  0.00000000000E+00  0.10540960902E+04  0.10540960902E+04  0.00000000000E+00 0. -1.
         21   -1    0    0  501  502 -0.00000000000E+00 -0.00000000000E+00 -0.99024857196E+02  0.99024857196E+02  0.00000000000E+00 0. -1.
         25    1    1    2    0    0 -0.56819583441E+02 -0.19023192481E+03  0.49089819441E+03  0.54407967023E+03  0.12500000000E+03 0.  0.
         25    1    1    2    0    0  0.10000717881E+03  0.20565064382E+03  0.29186934222E+03  0.39128804741E+03  0.12500000000E+03 0.  0.
         25    1    1    2    0    0 -0.43187595372E+02 -0.15418719013E+02  0.17230369641E+03  0.21775322979E+03  0.12500000000E+03 0.  0.
</event>
<event>
 5    0  0.5474724E-005  0.3379299E+03  0.7546771E-02  0.1067681E+00
         21   -1    0    0  502  501  0.00000000000E+00  0.00000000000E+00  0.34496834655E+03  0.34496834655E+03  0.00000000000E+00 0.  1.
         21   -1    0    0  501  502 -0.00000000000E+00 -0.00000000000E+00 -0.33103512906E+03  0.33103512906E+03  0.00000000000E+00 0.  1.
         25    1    1    2    0    0 -0.57360054995E+02 -0.11772940595E+02 -0.20325081459E+03  0.24569222957E+03  0.12500000000E+03 0.  0.
         25    1    1    2    0    0 -0.89440016114E+02  0.71206351603E+02  0.10810546773E+03  0.20095186773E+03  0.12500000000E+03 0.  0.
         25    1    1    2    0    0  0.14680007111E+03 -0.59433411008E+02  0.10907856434E+03  0.22935937831E+03  0.12500000000E+03 0.  0.
</event>
<event>
 5    0  0.5474724E-005  0.2736468E+03  0.7546771E-02  0.1099210E+00
         21   -1    0    0  502  501  0.00000000000E+00  0.00000000000E+00  0.21701942649E+03  0.21701942649E+03  0.00000000000E+00 0. -1.
         21   -1    0    0  501  502 -0.00000000000E+00 -0.00000000000E+00 -0.34505007611E+03  0.34505007611E+03  0.00000000000E+00 0. -1.
         25    1    1    2    0    0 -0.35393868194E+02  0.51912946533E+02 -0.33093897977E+02  0.14376329854E+03  0.12500000000E+03 0.  0.
         25    1    1    2    0    0 -0.78101739805E+02 -0.58728023105E+02  0.77759976328E+02  0.17669317015E+03  0.12500000000E+03 0.  0.
         25    1    1    2    0    0  0.11349560800E+03  0.68150765716E+01 -0.17269672797E+03  0.24161303391E+03  0.12500000000E+03 0.  0.
</event>
<event>
 5    0  0.5474724E-005  0.2902494E+03  0.7546771E-02  0.1090219E+00
         21   -1    0    0  502  501  0.00000000000E+00  0.00000000000E+00  0.10820674354E+04  0.10820674354E+04  0.00000000000E+00 0. -1.
         21   -1    0    0  501  502 -0.00000000000E+00 -0.00000000000E+00 -0.77855353897E+02  0.77855353897E+02  0.00000000000E+00 0. -1.
         25    1    1    2    0    0  0.10081684623E+03  0.90029965642E+01  0.69542880649E+03  0.71378660350E+03  0.12500000000E+03 0.  0.
         25    1    1    2    0    0  0.28087932065E+02 -0.39601013881E+02  0.90216044943E+02  0.16162025552E+03  0.12500000000E+03 0.  0.
         25    1    1    2    0    0 -0.12890477830E+03  0.30598017316E+02  0.21856723011E+03  0.28451593033E+03  0.12500000000E+03 0.  0.
</event>
<event>
 5    0  0.5474724E-005  0.2715830E+03  0.7546771E-02  0.1100377E+00
         21   -1    0    0  502  501  0.00000000000E+00  0.00000000000E+00  0.93310232991E+02  0.93310232991E+02  0.00000000000E+00 0.  1.
         21   -1    0    0  501  502 -0.00000000000E+00 -0.00000000000E+00 -0.79045280587E+03  0.79045280587E+03  0.00000000000E+00 0.  1.
         25    1    1    2    0    0 -0.29804950889E+02  0.65474668453E+02 -0.11806730843E+03  0.18638711497E+03  0.12500000000E+03 0.  0.
         25    1    1    2    0    0  0.60356659418E+02 -0.16335116663E+03 -0.41464158903E+03  0.46677529640E+03  0.12500000000E+03 0.  0.
         25    1    1    2    0    0 -0.30551708529E+02  0.97876498173E+02 -0.16443367541E+03  0.23060062749E+03  0.12500000000E+03 0.  0.
</event>
<event>
 5    0  0.5474724E-005  0.4990585E+03  0.7546771E-02  0.1014025E+00
         21   -1    0    0  502  501  0.00000000000E+00  0.00000000000E+00  0.22828393705E+03  0.22828393705E+03  0.00000000000E+00 0. -1.
         21   -1    0    0  501  502 -0.00000000000E+00 -0.00000000000E+00 -0.10910071053E+04  0.10910071053E+04  0.00000000000E+00 0. -1.
         25    1    1    2    0    0 -0.33374925063E+03  0.27920501227E+03 -0.33090685334E+03  0.56077477365E+03  0.12500000000E+03 0.  0.
         25    1    1    2    0    0  0.13909404241E+03 -0.23081891977E+03 -0.23305678584E+03  0.37757779567E+03  0.12500000000E+03 0.  0.
         25    1    1    2    0    0  0.19465520822E+03 -0.48386092506E+02 -0.29875952907E+03  0.38093847304E+03  0.12500000000E+03 0.  0.
</event>
<event>
 5    0  0.5474724E-005  0.3418758E+03  0.7546771E-02  0.1066000E+00
         21   -1    0    0  502  501  0.00000000000E+00  0.00000000000E+00  0.41495710116E+03  0.41495710116E+03  0.00000000000E+00 0. -1.
         21   -1    0    0  501  502 -0.00000000000E+00 -0.00000000000E+00 -0.28166534118E+03  0.28166534118E+03  0.00000000000E+00 0. -1.
         25    1    1    2    0    0 -0.12540158596E+02  0.47084924082E+02 -0.48635396528E+02  0.14270475622E+03  0.12500000000E+03 0.  0.
         25    1    1    2    0    0  0.53505496743E+02  0.14083633740E+03  0.24729478806E+03  0.31540041902E+03  0.12500000000E+03 0.  0.
         25    1    1    2    0    0 -0.40965338147E+02 -0.18792126148E+03 -0.65367631556E+02  0.23851726710E+03  0.12500000000E+03 0.  0.
</event>
<event>
 5    0  0.5474724E-005  0.2974933E+03  0.7546771E-02  0.1086500E+00
         21   -1    0    0  502  501  0.00000000000E+00  0.00000000000E+00  0.21367732749E+03  0.21367732749E+03  0.00000000000E+00 0.  1.
         21   -1    0    0  501  502 -0.00000000000E+00 -0.00000000000E+00 -0.41418649492E+03  0.41418649492E+03  0.00000000000E+00 0.  1.
         25    1    1    2    0    0  0.92409052695E+02 -0.12174010328E+03 -0.19788197607E+03  0.27953955395E+03  0.12500000000E+03 0.  0.
         25    1    1    2    0    0 -0.93389809151E+02  0.12704034303E+03  0.57844505003E+02  0.20936067436E+03  0.12500000000E+03 0.  0.
         25    1    1    2    0    0  0.98075645549E+00 -0.53002397441E+01 -0.60471696362E+02  0.13896359410E+03  0.12500000000E+03 0.  0.
</event>
<event>
 5    0  0.5474724E-005  0.2785330E+03  0.7546771E-02  0.1096493E+00
         21   -1    0    0  502  501  0.00000000000E+00  0.00000000000E+00  0.20830218301E+04  0.20830218301E+04  0.00000000000E+00 0. -1.
         21   -1    0    0  501  502 -0.00000000000E+00 -0.00000000000E+00 -0.37244261159E+02  0.37244261159E+02  0.00000000000E+00 0. -1.
         25    1    1    2    0    0 -0.56662395228E+02 -0.13439618951E+02  0.19222256072E+03  0.23657084191E+03  0.12500000000E+03 0.  0.
         25    1    1    2    0    0  0.76551579660E+02  0.33770266394E+02  0.45374188983E+03  0.47802434857E+03  0.12500000000E+03 0.  0.
         25    1    1    2    0    0 -0.19889184432E+02 -0.20330647443E+02  0.13998131184E+04  0.14056709008E+04  0.12500000000E+03 0.  0.
</event>
<event>
 5    0  0.5474724E-005  0.1925910E+03  0.7546771E-02  0.1156145E+00
         21   -1    0    0  502  501  0.00000000000E+00  0.00000000000E+00  0.48115675602E+03  0.48115675602E+03  0.00000000000E+00 0. -1.
         21   -1    0    0  501  502 -0.00000000000E+00 -0.00000000000E+00 -0.77087722515E+02  0.77087722515E+02  0.00000000000E+00 0. -1.
         25    1    1    2    0    0 -0.12494907736E+02 -0.29341308985E+02  0.10089741655E+03  0.16377522340E+03  0.12500000000E+03 0.  0.
         25    1    1    2    0    0  0.85850467407E+01  0.16792691227E+02  0.16115472889E+03  0.20482076103E+03  0.12500000000E+03 0.  0.
         25    1    1    2    0    0  0.39098609953E+01  0.12548617758E+02  0.14201688807E+03  0.18964849411E+03  0.12500000000E+03 0.  0.
</event>
<event>
 5    0  0.5474724E-005  0.2690945E+03  0.7546771E-02  0.1101799E+00
         21   -1    0    0  502  501  0.00000000000E+00  0.00000000000E+00  0.28361645007E+03  0.28361645007E+03  0.00000000000E+00 0.  1.
         21   -1    0    0  501  502 -0.00000000000E+00 -0.00000000000E+00 -0.25531608165E+03  0.25531608165E+03  0.00000000000E+00 0.  1.
         25    1    1    2    0    0  0.11196306727E+03 -0.54007782768E+02  0.12871851429E+02  0.17675761254E+03  0.12500000000E+03 0.  0.
         25    1    1    2    0    0 -0.10652972696E+03 -0.75934004820E+02  0.17417936046E+02  0.18177717214E+03  0.12500000000E+03 0.  0.
         25    1    1    2    0    0 -0.54333403084E+01  0.12994178759E+03 -0.19894190561E+01  0.18039774704E+03  0.12500000000E+03 0.  0.
</event>
<event>
 5    0  0.5474724E-005  0.2369689E+03  0.7546771E-02  0.1121829E+00
         21   -1    0    0  502  501  0.00000000000E+00  0.00000000000E+00  0.93367407914E+02  0.93367407914E+02  0.00000000000E+00 0. -1.
         21   -1    0    0  501  502 -0.00000000000E+00 -0.00000000000E+00 -0.60143343344E+03  0.60143343344E+03  0.00000000000E+00 0. -1.
         25    1    1    2    0    0 -0.35959437931E+02  0.62768639955E+02 -0.10470495991E+03  0.17838473020E+03  0.12500000000E+03 0.  0.
         25    1    1    2    0    0  0.80455107700E+02 -0.57472506613E+02 -0.10784332900E+03  0.19243517605E+03  0.12500000000E+03 0.  0.
         25    1    1    2    0    0 -0.44495669769E+02 -0.52961333419E+01 -0.29551773662E+03  0.32398093510E+03  0.12500000000E+03 0.  0.
</event>
<event>
 5    0  0.5474724E-005  0.2724871E+03  0.7546771E-02  0.1099865E+00
         21   -1    0    0  502  501  0.00000000000E+00  0.00000000000E+00  0.12532909383E+03  0.12532909383E+03  0.00000000000E+00 0. -1.
         21   -1    0    0  501  502 -0.00000000000E+00 -0.00000000000E+00 -0.59243410817E+03  0.59243410817E+03  0.00000000000E+00 0. -1.
         25    1    1    2    0    0 -0.76377144760E+02  0.17142449189E+02 -0.18347406012E+03  0.23540404105E+03  0.12500000000E+03 0.  0.
         25    1    1    2    0    0  0.72419722163E+02 -0.12004795949E+03 -0.43645690552E+02  0.19283691306E+03  0.12500000000E+03 0.  0.
         25    1    1    2    0    0  0.39574225963E+01  0.10290551030E+03 -0.23998526367E+03  0.28952224788E+03  0.12500000000E+03 0.  0.
</event>
<event>
 5    0  0.5474724E-005  0.2951578E+03  0.7546771E-02  0.1087687E+00
         21   -1    0    0  502  501  0.00000000000E+00  0.00000000000E+00  0.11693825859E+04  0.11693825859E+04  0.00000000000E+00 0.  1.
         21   -1    0    0  501  502 -0.00000000000E+00 -0.00000000000E+00 -0.74499234445E+02  0.74499234445E+02  0.00000000000E+00 0.  1.
         25    1    1    2    0    0 -0.20377708123E+02 -0.35876703025E+02  0.48540375399E+02  0.14029809996E+03  0.12500000000E+03 0.  0.
         25    1    1    2    0    0 -0.57276348132E+01  0.94280433931E+02  0.83681093605E+03  0.85135136619E+03  0.12500000000E+03 0.  0.
         25    1    1    2    0    0  0.26105342937E+02 -0.58403730906E+02  0.20953204000E+03  0.25223235419E+03  0.12500000000E+03 0.  0.
</event>
<event>
 5    0  0.5474724E-005  0.4764321E+03  0.7546771E-02  0.1020120E+00
         21   -1    0    0  502  501  0.00000000000E+00  0.00000000000E+00  0.34960184528E+03  0.34960184528E+03  0.00000000000E+00 0. -1.
         21   -1    0    0  501  502 -0.00000000000E+00 -0.00000000000E+00 -0.64927439648E+03  0.64927439648E+03  0.00000000000E+00 0. -1.
         25    1    1    2    0    0 -0.13652407376E+02  0.20519825934E+02  0.25163876921E+03  0.28205411121E+03  0.12500000000E+03 0.  0.
         25    1    1    2    0    0 -0.23281386920E+02 -0.19682205295E+03 -0.33507328004E+03  0.40887656634E+03  0.12500000000E+03 0.  0.
         25    1    1    2    0    0  0.36933794296E+02  0.17630222702E+03 -0.21623804036E+03  0.30794556421E+03  0.12500000000E+03 0.  0.
</event>
<event>
 5    0  0.5474724E-005  0.2384947E+03  0.7546771E-02  0.1120800E+00
         21   -1    0    0  502  501  0.00000000000E+00  0.00000000000E+00  0.75584225901E+03  0.75584225901E+03  0.00000000000E+00 0. -1.
         21   -1    0    0  501  502 -0.00000000000E+00 -0.00000000000E+00 -0.75253429055E+02  0.75253429055E+02  0.00000000000E+00 0. -1.
         25    1    1    2    0    0  0.60158617342E+02 -0.11703284552E+03  0.30282207449E+03  0.35304667534E+03  0.12500000000E+03 0.  0.
         25    1    1    2    0    0 -0.64859183865E+02  0.59437511073E+02  0.16813699122E+03  0.22723243446E+03  0.12500000000E+03 0.  0.
         25    1    1    2    0    0  0.47005665228E+01  0.57595334442E+02  0.20962976424E+03  0.25081657826E+03  0.12500000000E+03 0.  0.
</event>
<event>
 5    0  0.5474724E-005  0.2924303E+03  0.7546771E-02  0.1089087E+00
         21   -1    0    0  502  501  0.00000000000E+00  0.00000000000E+00  0.43783188742E+03  0.43783188742E+03  0.00000000000E+00 0.  1.
         21   -1    0    0  501  502 -0.00000000000E+00 -0.00000000000E+00 -0.19531576554E+03  0.19531576554E+03  0.00000000000E+00 0.  1.
         25    1    1    2    0    0 -0.21238426496E+02 -0.14244782897E+03  0.11121422083E+03  0.22076244620E+03  0.12500000000E+03 0.  0.
         25    1    1    2    0    0 -0.28001308148E+02  0.13971515083E+03  0.18760257125E+03  0.26669105978E+03  0.12500000000E+03 0.  0.
         25    1    1    2    0    0  0.49239734644E+02  0.27326781396E+01 -0.56300670196E+02  0.14569414697E+03  0.12500000000E+03 0.  0.
</event>
<event>
 5    0  0.5474724E-005  0.3338826E+03  0.7546771E-02  0.1069432E+00
         21   -1    0    0  502  501  0.00000000000E+00  0.00000000000E+00  0.79979314990E+02  0.79979314990E+02  0.00000000000E+00 0. -1.
         21   -1    0    0  501  502 -0.00000000000E+00 -0.00000000000E+00 -0.13938300487E+04  0.13938300487E+04  0.00000000000E+00 0. -1.
         25    1    1    2    0    0  0.11013128006E+03  0.14089831050E+03 -0.54297061381E+03  0.58516947990E+03  0.12500000000E+03 0.  0.
         25    1    1    2    0    0  0.52586163004E+02 -0.15697293042E+02 -0.53396565165E+03  0.55114065962E+03  0.12500000000E+03 0.  0.
         25    1    1    2    0    0 -0.16271744306E+03 -0.12520101746E+03 -0.23691446829E+03  0.33749922420E+03  0.12500000000E+03 0.  0.
</event>
<event>
 5    0  0.5474724E-005  0.2695466E+03  0.7546771E-02  0.1101539E+00
         21   -1    0    0  502  501  0.00000000000E+00  0.00000000000E+00  0.19866110796E+03  0.19866110796E+03  0.00000000000E+00 0. -1.
         21   -1    0    0  501  502 -0.00000000000E+00 -0.00000000000E+00 -0.36572529316E+03  0.36572529316E+03  0.00000000000E+00 0. -1.
         25    1    1    2    0    0 -0.11265517284E+00 -0.35382794333E+02 -0.20938272843E+02  0.13158786455E+03  0.12500000000E+03 0.  0.
         25    1    1    2    0    0 -0.74812711660E+02  0.66696641811E+02  0.66212827355E+02  0.17336240181E+03  0.12500000000E+03 0.  0.
         25    1    1    2    0    0  0.74925366832E+02 -0.31313847478E+02 -0.21233873971E+03  0.25943613476E+03  0.12500000000E+03 0.  0.
</event>
<event>
 5    0  0.5474724E-005  0.2354283E+03  0.7546771E-02  0.1122876E+00
         21   -1    0    0  502  501  0.00000000000E+00  0.00000000000E+00  0.11729311697E+03  0.11729311697E+03  0.00000000000E+00 0. -1.
         21   -1    0    0  501  502 -0.00000000000E+00 -0.00000000000E+00 -0.47254676704E+03  0.47254676704E+03  0.00000000000E+00 0. -1.
         25    1    1    2    0    0 -0.55467321557E+02  0.17057591831E+02 -0.25947012344E+03  0.29379811122E+03  0.12500000000E+03 0.  0.
         25    1    1    2    0    0  0.38797388697E+02  0.46501806697E+02 -0.48011095799E+02  0.14696163008E+03  0.12500000000E+03 0.  0.
         25    1    1    2    0    0  0.16669932860E+02 -0.63559398528E+02 -0.47772430830E+02  0.14908014271E+03  0.12500000000E+03 0.  0.
</event>
<event>
 5    0  0.7354372E-005  0.6081959E+03  0.7546771E-02  0.9888547E-01
         21   -1    0    0  502  501  0.00000000000E+00  0.00000000000E+00  0.88279088992E+03  0.88279088992E+03  0.00000000000E+00 0. -1.
         21   -1    0    0  501  502 -0.00000000000E+00 -0.00000000000E+00 -0.41901457445E+03  0.41901457445E+03  0.00000000000E+00 0. -1.
         25    1    1    2    0    0 -0.62391438646E+02  0.47949806502E+03  0.32689444604E+03  0.59690540693E+03  0.12500000000E+03 0.  0.
         25    1    1    2    0    0  0.31793560596E+02 -0.24006573680E+03  0.28584284446E+03  0.39493483033E+03  0.12500000000E+03 0.  0.
         25    1    1    2    0    0  0.30597878050E+02 -0.23943232822E+03 -0.14896097503E+03  0.30996522711E+03  0.12500000000E+03 0.  0.
</event>
<event>
 5    0  0.6487072E-005  0.3006687E+03  0.7546771E-02  0.1084907E+00
         21   -1    0    0  502  501  0.00000000000E+00  0.00000000000E+00  0.14406468356E+03  0.14406468356E+03  0.00000000000E+00 0. -1.
         21   -1    0    0  501  502 -0.00000000000E+00 -0.00000000000E+00 -0.62750729968E+03  0.62750729968E+03  0.00000000000E+00 0. -1.
         25    1    1    2    0    0 -0.29834432501E+02  0.14347473663E+03 -0.16231351751E+03  0.25188444053E+03  0.12500000000E+03 0.  0.
         25    1    1    2    0    0  0.77852634831E+02 -0.13359226959E+03 -0.32650163188E+02  0.20149183706E+03  0.12500000000E+03 0.  0.
         25    1    1    2    0    0 -0.48018202330E+02 -0.98824670404E+01 -0.28847893543E+03  0.31819570565E+03  0.12500000000E+03 0.  0.
</event>
<event>
 5    0  0.5474724E-005  0.2990367E+03  0.7546771E-02  0.1085723E+00
         21   -1    0    0  502  501  0.00000000000E+00  0.00000000000E+00  0.33084003716E+03  0.33084003716E+03  0.00000000000E+00 0.  1.
         21   -1    0    0  501  502 -0.00000000000E+00 -0.00000000000E+00 -0.27029064746E+03  0.27029064746E+03  0.00000000000E+00 0. -1.
         25    1    1    2    0    0  0.19351941310E+02  0.66003971825E+02  0.15722362096E+03  0.21230941787E+03  0.12500000000E+03 0.  0.
         25    1    1    2    0    0  0.11847367909E+03 -0.78765074507E+02 -0.36633342289E+02  0.19289103496E+03  0.12500000000E+03 0.  0.
         25    1    1    2    0    0 -0.13782562040E+03  0.12761102682E+02 -0.60040888968E+02  0.19593023179E+03  0.12500000000E+03 0.  0.
</event>
<event>
 5    0  0.5474724E-005  0.3168993E+03  0.7546771E-02  0.1077085E+00
         21   -1    0    0  502  501  0.00000000000E+00  0.00000000000E+00  0.26725009443E+03  0.26725009443E+03  0.00000000000E+00 0. -1.
         21   -1    0    0  501  502 -0.00000000000E+00 -0.00000000000E+00 -0.37577235257E+03  0.37577235257E+03  0.00000000000E+00 0. -1.
         25    1    1    2    0    0 -0.14795619145E+03 -0.38376192028E+02  0.13176119682E+03  0.23738108537E+03  0.12500000000E+03 0.  0.
         25    1    1    2    0    0  0.14288684456E+03  0.58485407361E+02 -0.12781264741E+03  0.23621656602E+03  0.12500000000E+03 0.  0.
         25    1    1    2    0    0  0.50693468914E+01 -0.20109215333E+02 -0.11247080755E+03  0.16942479562E+03  0.12500000000E+03 0.  0.
</event>
<event>
 5    0  0.5474724E-005  0.2356319E+03  0.7546771E-02  0.1122737E+00
         21   -1    0    0  502  501  0.00000000000E+00  0.00000000000E+00  0.45863221179E+03  0.45863221179E+03  0.00000000000E+00 0.  1.
         21   -1    0    0  501  502 -0.00000000000E+00 -0.00000000000E+00 -0.12106081872E+03  0.12106081872E+03  0.00000000000E+00 0.  1.
         25    1    1    2    0    0  0.40673908955E+02 -0.29381582132E+02  0.25227064358E+02  0.13703667033E+03  0.12500000000E+03 0.  0.
         25    1    1    2    0    0  0.35755031062E+02 -0.55528455520E+02  0.11221672090E+03  0.18049771209E+03  0.12500000000E+03 0.  0.
         25    1    1    2    0    0 -0.76428940017E+02  0.84910037652E+02  0.20012760781E+03  0.26215864810E+03  0.12500000000E+03 0.  0.
</event>
<event>
 5    0  0.5474724E-005  0.3073957E+03  0.7546771E-02  0.1081601E+00
         21   -1    0    0  502  501  0.00000000000E+00  0.00000000000E+00  0.11432097893E+04  0.11432097893E+04  0.00000000000E+00 0.  1.
         21   -1    0    0  501  502 -0.00000000000E+00 -0.00000000000E+00 -0.82655088347E+02  0.82655088347E+02  0.00000000000E+00 0.  1.
         25    1    1    2    0    0 -0.26365004504E+02 -0.51381003508E+01  0.20763145513E+02  0.12952845923E+03  0.12500000000E+03 0.  0.
         25    1    1    2    0    0  0.13066998140E+03  0.87106575040E+01  0.62609993531E+03  0.65174891529E+03  0.12500000000E+03 0.  0.
         25    1    1    2    0    0 -0.10430497689E+03 -0.35725571531E+01  0.41369162012E+03  0.44458750312E+03  0.12500000000E+03 0.  0.
</event>
<event>
 5    0  0.5474724E-005  0.3240404E+03  0.7546771E-02  0.1073805E+00
         21   -1    0    0  502  501  0.00000000000E+00  0.00000000000E+00  0.86953556783E+03  0.86953556783E+03  0.00000000000E+00 0. -1.
         21   -1    0    0  501  502 -0.00000000000E+00 -0.00000000000E+00 -0.12075664022E+03  0.12075664022E+03  0.00000000000E+00 0. -1.
         25    1    1    2    0    0  0.12584009384E+03  0.10795066369E+02  0.19638449871E+03  0.26484737871E+03  0.12500000000E+03 0.  0.
         25    1    1    2    0    0 -0.13770892004E+03  0.44997801531E+02  0.55599277810E+03  0.58799788953E+03  0.12500000000E+03 0.  0.
         25    1    1    2    0    0  0.11868826202E+02 -0.55792867900E+02 -0.35983492003E+01  0.13744693980E+03  0.12500000000E+03 0.  0.
</event>
<event>
 5    0  0.5474724E-005  0.2655907E+03  0.7546771E-02  0.1103830E+00
         21   -1    0    0  502  501  0.00000000000E+00  0.00000000000E+00  0.11527605628E+03  0.11527605628E+03  0.00000000000E+00 0.  1.
         21   -1    0    0  501  502 -0.00000000000E+00 -0.00000000000E+00 -0.61190889563E+03  0.61190889563E+03  0.00000000000E+00 0.  1.
         25    1    1    2    0    0 -0.36575707200E+02 -0.65070769490E+02 -0.22767584764E+02  0.14736129178E+03  0.12500000000E+03 0.  0.
         25    1    1    2    0    0 -0.10066920067E+02 -0.45477674649E+02 -0.96685992997E+02  0.16475054784E+03  0.12500000000E+03 0.  0.
         25    1    1    2    0    0  0.46642627267E+02  0.11054844414E+03 -0.37717926159E+03  0.41507311229E+03  0.12500000000E+03 0.  0.
</event>
<event>
 5    0  0.5474724E-005  0.3633901E+03  0.7546771E-02  0.1057250E+00
         21   -1    0    0  502  501  0.00000000000E+00  0.00000000000E+00  0.50243646666E+03  0.50243646666E+03  0.00000000000E+00 0.  1.
         21   -1    0    0  501  502 -0.00000000000E+00 -0.00000000000E+00 -0.26282406749E+03  0.26282406749E+03  0.00000000000E+00 0.  1.
         25    1    1    2    0    0  0.11808108997E+03  0.18800267812E+02 -0.91414870129E+02  0.19564833850E+03  0.12500000000E+03 0.  0.
         25    1    1    2    0    0  0.45319983164E+02 -0.42480797511E+02 -0.39566257436E+02  0.14508276176E+03  0.12500000000E+03 0.  0.
         25    1    1    2    0    0 -0.16340107313E+03  0.23680529699E+02  0.37059352673E+03  0.42452943389E+03  0.12500000000E+03 0.  0.
</event>
<event>
 5    0  0.5474724E-005  0.2932350E+03  0.7546771E-02  0.1088672E+00
         21   -1    0    0  502  501  0.00000000000E+00  0.00000000000E+00  0.36109009414E+03  0.36109009414E+03  0.00000000000E+00 0. -1.
         21   -1    0    0  501  502 -0.00000000000E+00 -0.00000000000E+00 -0.23813100327E+03  0.23813100327E+03  0.00000000000E+00 0. -1.
         25    1    1    2    0    0 -0.20661622384E+02  0.74836195213E+02  0.52873824886E+02  0.15635856264E+03  0.12500000000E+03 0.  0.
         25    1    1    2    0    0  0.15764862898E+03  0.30636537940E+02 -0.32581179865E+02  0.20610245258E+03  0.12500000000E+03 0.  0.
         25    1    1    2    0    0 -0.13698700660E+03 -0.10547273315E+03  0.10266644585E+03  0.23676008219E+03  0.12500000000E+03 0.  0.
</event>
<event>
 5    0  0.5474724E-005  0.3108277E+03  0.7546771E-02  0.1079950E+00
         21   -1    0    0  502  501  0.00000000000E+00  0.00000000000E+00  0.30264156203E+03  0.30264156203E+03  0.00000000000E+00 0. -1.
         21   -1    0    0  501  502 -0.00000000000E+00 -0.00000000000E+00 -0.31923516993E+03  0.31923516993E+03  0.00000000000E+00 0. -1.
         25    1    1    2    0    0  0.41938367183E+02  0.83170567947E+02 -0.20569239587E+02  0.15723951040E+03  0.12500000000E+03 0.  0.
         25    1    1    2    0    0 -0.10969423530E+03  0.82724200029E+02 -0.11238290930E+03  0.21709683745E+03  0.12500000000E+03 0.  0.
         25    1    1    2    0    0  0.67755868114E+02 -0.16589476798E+03  0.11635854099E+03  0.24754038411E+03  0.12500000000E+03 0.  0.
</event>
<event>
 5    0  0.5474724E-005  0.2996528E+03  0.7546771E-02  0.1085414E+00
         21   -1    0    0  502  501  0.00000000000E+00  0.00000000000E+00  0.18786832170E+03  0.18786832170E+03  0.00000000000E+00 0.  1.
         21   -1    0    0  501  502 -0.00000000000E+00 -0.00000000000E+00 -0.47795076201E+03  0.47795076201E+03  0.00000000000E+00 0.  1.
         25    1    1    2    0    0 -0.74303344695E+02  0.38414033516E+02 -0.74049560302E+02  0.16764534704E+03  0.12500000000E+03 0.  0.
         25    1    1    2    0    0  0.12547664270E+03 -0.35586538905E+02 -0.29186251800E+03  0.34324848001E+03  0.12500000000E+03 0.  0.
         25    1    1    2    0    0 -0.51173298003E+02 -0.28274946111E+01  0.75829637994E+02  0.15492525666E+03  0.12500000000E+03 0.  0.
</event>
<event>
 5    0  0.5474724E-005  0.3543022E+03  0.7546771E-02  0.1060863E+00
         21   -1    0    0  502  501  0.00000000000E+00  0.00000000000E+00  0.33263030696E+03  0.33263030696E+03  0.00000000000E+00 0.  1.
         21   -1    0    0  501  502 -0.00000000000E+00 -0.00000000000E+00 -0.37738603866E+03  0.37738603866E+03  0.00000000000E+00 0.  1.
         25    1    1    2    0    0 -0.52238694626E+02  0.78838633087E+02 -0.19760336494E+03  0.25222311773E+03  0.12500000000E+03 0.  0.
         25    1    1    2    0    0 -0.15734503309E+01 -0.14149064209E+03 -0.59460163363E+02  0.19794592336E+03  0.12500000000E+03 0.  0.
         25    1    1    2    0    0  0.53812144957E+02  0.62652009006E+02  0.21230779660E+03  0.25984730453E+03  0.12500000000E+03 0.  0.
</event>
<event>
 5    0  0.5474724E-005  0.2811549E+03  0.7546771E-02  0.1095060E+00
         21   -1    0    0  502  501  0.00000000000E+00  0.00000000000E+00  0.11585946772E+03  0.11585946772E+03  0.00000000000E+00 0.  1.
         21   -1    0    0  501  502 -0.00000000000E+00 -0.00000000000E+00 -0.68227564046E+03  0.68227564046E+03  0.00000000000E+00 0.  1.
         25    1    1    2    0    0 -0.10194272375E+03 -0.68850825272E+02 -0.89202907096E+02  0.19676105738E+03  0.12500000000E+03 0.  0.
         25    1    1    2    0    0  0.64612680687E+02  0.15329927511E+03 -0.30715606347E+03  0.37100581340E+03  0.12500000000E+03 0.  0.
         25    1    1    2    0    0  0.37330043060E+02 -0.84448449835E+02 -0.17005720217E+03  0.23036823741E+03  0.12500000000E+03 0.  0.
</event>
<event>
 5    0  0.5474724E-005  0.3025242E+03  0.7546771E-02  0.1083986E+00
         21   -1    0    0  502  501  0.00000000000E+00  0.00000000000E+00  0.93146277633E+02  0.93146277633E+02  0.00000000000E+00 0. -1.
         21   -1    0    0  501  502 -0.00000000000E+00 -0.00000000000E+00 -0.98255012249E+03  0.98255012249E+03  0.00000000000E+00 0. -1.
         25    1    1    2    0    0 -0.45451340973E+02  0.18362356018E+03 -0.53635360824E+03  0.58230887793E+03  0.12500000000E+03 0.  0.
         25    1    1    2    0    0  0.52893673575E+02 -0.28980500457E+02 -0.98017919627E+02  0.16991210280E+03  0.12500000000E+03 0.  0.
         25    1    1    2    0    0 -0.74423326019E+01 -0.15464305973E+03 -0.25503231699E+03  0.32347541939E+03  0.12500000000E+03 0.  0.
</event>
<event>
 5    0  0.5474724E-005  0.2311064E+03  0.7546771E-02  0.1125863E+00
         21   -1    0    0  502  501  0.00000000000E+00  0.00000000000E+00  0.29462014793E+03  0.29462014793E+03  0.00000000000E+00 0. -1.
         21   -1    0    0  501  502 -0.00000000000E+00 -0.00000000000E+00 -0.18128477262E+03  0.18128477262E+03  0.00000000000E+00 0. -1.
         25    1    1    2    0    0 -0.39661325135E+02 -0.57604138546E+02  0.48677023766E+02  0.15128023708E+03  0.12500000000E+03 0.  0.
         25    1    1    2    0    0  0.30304779715E+02  0.19550844311E+02  0.12498092437E+03  0.18040467467E+03  0.12500000000E+03 0.  0.
         25    1    1    2    0    0  0.93565454204E+01  0.38053294234E+02 -0.60322572823E+02  0.14422000879E+03  0.12500000000E+03 0.  0.
</event>
<event>
 5    0  0.5474724E-005  0.3300396E+03  0.7546771E-02  0.1071119E+00
         21   -1    0    0  502  501  0.00000000000E+00  0.00000000000E+00  0.41611718232E+03  0.41611718232E+03  0.00000000000E+00 0.  1.
         21   -1    0    0  501  502 -0.00000000000E+00 -0.00000000000E+00 -0.26176801545E+03  0.26176801545E+03  0.00000000000E+00 0.  1.
         25    1    1    2    0    0 -0.26133743928E+02 -0.55834644253E+02  0.18669572285E+03  0.23298234483E+03  0.12500000000E+03 0.  0.
         25    1    1    2    0    0 -0.12959535902E+03 -0.16081147114E+02  0.87847356113E+02  0.20098686113E+03  0.12500000000E+03 0.  0.
         25    1    1    2    0    0  0.15572910295E+03  0.71915791367E+02 -0.12019391210E+03  0.24391599181E+03  0.12500000000E+03 0.  0.
</event>
<event>
 5    0  0.5474724E-005  0.4534448E+03  0.7546771E-02  0.1026700E+00
         21   -1    0    0  502  501  0.00000000000E+00  0.00000000000E+00  0.11688574025E+04  0.11688574025E+04  0.00000000000E+00 0. -1.
         21   -1    0    0  501  502 -0.00000000000E+00 -0.00000000000E+00 -0.17590871150E+03  0.17590871150E+03  0.00000000000E+00 0. -1.
         25    1    1    2    0    0 -0.10936329327E+03  0.16112482968E+03  0.38035132584E+03  0.44521194023E+03  0.12500000000E+03 0.  0.
         25    1    1    2    0    0  0.29289300265E+03 -0.50631939939E+02  0.11282336749E+03  0.34161969585E+03  0.12500000000E+03 0.  0.
         25    1    1    2    0    0 -0.18352970938E+03 -0.11049288974E+03  0.49977399769E+03  0.55793447795E+03  0.12500000000E+03 0.  0.
</event>
<event>
 5    0  0.5474724E-005  0.4024203E+03  0.7546771E-02  0.1042945E+00
         21   -1    0    0  502  501  0.00000000000E+00  0.00000000000E+00  0.40726855577E+03  0.40726855577E+03  0.00000000000E+00 0. -1.
         21   -1    0    0  501  502 -0.00000000000E+00 -0.00000000000E+00 -0.39762981661E+03  0.39762981661E+03  0.00000000000E+00 0. -1.
         25    1    1    2    0    0  0.24753787727E+02  0.80911729521E+02 -0.84125317750E+02  0.17280488149E+03  0.12500000000E+03 0.  0.
         25    1    1    2    0    0 -0.27906239864E+03 -0.11683132741E+03  0.11175930309E+03  0.34589091232E+03  0.12500000000E+03 0.  0.
         25    1    1    2    0    0  0.25430861091E+03  0.35919597885E+02 -0.17995246183E+02  0.28620257857E+03  0.12500000000E+03 0.  0.
</event>
<event>
 5    0  0.5474724E-005  0.3438107E+03  0.7546771E-02  0.1065184E+00
         21   -1    0    0  502  501  0.00000000000E+00  0.00000000000E+00  0.58134169969E+03  0.58134169969E+03  0.00000000000E+00 0.  1.
         21   -1    0    0  501  502 -0.00000000000E+00 -0.00000000000E+00 -0.20333277404E+03  0.20333277404E+03  0.00000000000E+00 0.  1.
         25    1    1    2    0    0 -0.22461351112E+03  0.71972706557E+02  0.19116095554E+03  0.32832729218E+03  0.12500000000E+03 0.  0.
         25    1    1    2    0    0  0.17219527438E+03 -0.12930541721E+03  0.47119670707E+02  0.25340948445E+03  0.12500000000E+03 0.  0.
         25    1    1    2    0    0  0.52418236733E+02  0.57332710654E+02  0.13972829941E+03  0.20293769711E+03  0.12500000000E+03 0.  0.
</event>
<event>
 5    0  0.5792493E-005  0.3087083E+03  0.7546771E-02  0.1080967E+00
         21   -1    0    0  502  501  0.00000000000E+00  0.00000000000E+00  0.35182105937E+03  0.35182105937E+03  0.00000000000E+00 0. -1.
         21   -1    0    0  501  502 -0.00000000000E+00 -0.00000000000E+00 -0.27087858334E+03  0.27087858334E+03  0.00000000000E+00 0. -1.
         25    1    1    2    0    0 -0.14622081301E+03  0.99448558378E+01  0.16067031681E+02  0.19329401393E+03  0.12500000000E+03 0.  0.
         25    1    1    2    0    0  0.75936014075E+01 -0.39588722604E+02  0.16867410655E+03  0.21377765075E+03  0.12500000000E+03 0.  0.
         25    1    1    2    0    0  0.13862721160E+03  0.29643866766E+02 -0.10379866220E+03  0.21562797803E+03  0.12500000000E+03 0.  0.
</event>
<event>
 5    0  0.6094446E-005  0.3541671E+03  0.7546771E-02  0.1060918E+00
         21   -1    0    0  502  501  0.00000000000E+00  0.00000000000E+00  0.19949142397E+03  0.19949142397E+03  0.00000000000E+00 0. -1.
         21   -1    0    0  501  502 -0.00000000000E+00 -0.00000000000E+00 -0.62877051806E+03  0.62877051806E+03  0.00000000000E+00 0. -1.
         25    1    1    2    0    0 -0.14301764754E+03  0.11941890446E+03 -0.12879409215E+03  0.25870415618E+03  0.12500000000E+03 0.  0.
         25    1    1    2    0    0 -0.99828693470E+01 -0.11142883714E+03 -0.32946455035E+03  0.36971331240E+03  0.12500000000E+03 0.  0.
         25    1    1    2    0    0  0.15300051689E+03 -0.79900673220E+01  0.28979548414E+02  0.19984447345E+03  0.12500000000E+03 0.  0.
</event>
<event>
 5    0  0.5474724E-005  0.3461216E+03  0.7546771E-02  0.1064218E+00
         21   -1    0    0  502  501  0.00000000000E+00  0.00000000000E+00  0.27585974564E+03  0.27585974564E+03  0.00000000000E+00 0.  1.
         21   -1    0    0  501  502 -0.00000000000E+00 -0.00000000000E+00 -0.43427917976E+03  0.43427917976E+03  0.00000000000E+00 0.  1.
         25    1    1    2    0    0 -0.10884285676E+02  0.93628973841E+02 -0.93078386373E+02  0.18213576921E+03  0.12500000000E+03 0.  0.
         25    1    1    2    0    0 -0.24534830317E+02  0.90072606777E+02  0.15009624857E+03  0.21649230061E+03  0.12500000000E+03 0.  0.
         25    1    1    2    0    0  0.35419115993E+02 -0.18370158062E+03 -0.21543729631E+03  0.31151085558E+03  0.12500000000E+03 0.  0.
</event>
<event>
 5    0  0.5474724E-005  0.2598699E+03  0.7546771E-02  0.1107221E+00
         21   -1    0    0  502  501  0.00000000000E+00  0.00000000000E+00  0.54996181104E+02  0.54996181104E+02  0.00000000000E+00 0. -1.
         21   -1    0    0  501  502 -0.00000000000E+00 -0.00000000000E+00 -0.12279462696E+04  0.12279462696E+04  0.00000000000E+00 0. -1.
         25    1    1    2    0    0  0.62956319646E+02  0.35780860244E+02 -0.96915591098E+02  0.17395804075E+03  0.12500000000E+03 0.  0.
         25    1    1    2    0    0 -0.24657843585E+02  0.30902185941E+01 -0.62125876409E+03  0.63419635024E+03  0.12500000000E+03 0.  0.
         25    1    1    2    0    0 -0.38298476061E+02 -0.38871078838E+02 -0.45477573327E+03  0.47478805968E+03  0.12500000000E+03 0.  0.
</event>
<event>
 5    0  0.5474724E-005  0.2947153E+03  0.7546771E-02  0.1087913E+00
         21   -1    0    0  502  501  0.00000000000E+00  0.00000000000E+00  0.65831454614E+02  0.65831454614E+02  0.00000000000E+00 0. -1.
         21   -1    0    0  501  502 -0.00000000000E+00 -0.00000000000E+00 -0.13193856988E+04  0.13193856988E+04  0.00000000000E+00 0. -1.
         25    1    1    2    0    0 -0.36436998634E+02  0.99032418766E+02 -0.30878274358E+03  0.34943791661E+03  0.12500000000E+03 0.  0.
         25    1    1    2    0    0 -0.77197144511E+01  0.57080950266E+02 -0.71437237727E+03  0.72750994652E+03  0.12500000000E+03 0.  0.
         25    1    1    2    0    0  0.44156713085E+02 -0.15611336903E+03 -0.23039912336E+03  0.30826929031E+03  0.12500000000E+03 0.  0.
</event>
<event>
 5    0  0.6567424E-005  0.2830879E+03  0.7546771E-02  0.1094014E+00
         21   -1    0    0  502  501  0.00000000000E+00  0.00000000000E+00  0.10512265135E+04  0.10512265135E+04  0.00000000000E+00 0. -1.
         21   -1    0    0  501  502 -0.00000000000E+00 -0.00000000000E+00 -0.76233558470E+02  0.76233558470E+02  0.00000000000E+00 0. -1.
         25    1    1    2    0    0 -0.22022714118E+02 -0.12884173629E+03  0.12150612083E+03  0.21788513108E+03  0.12500000000E+03 0.  0.
         25    1    1    2    0    0 -0.28268072838E+02  0.15227642450E+02  0.47230574550E+03  0.48962095775E+03  0.12500000000E+03 0.  0.
         25    1    1    2    0    0  0.50290786956E+02  0.11361409384E+03  0.38118108872E+03  0.41995398316E+03  0.12500000000E+03 0.  0.
</event>
<event>
 5    0  0.5474724E-005  0.3226406E+03  0.7546771E-02  0.1074440E+00
         21   -1    0    0  502  501  0.00000000000E+00  0.00000000000E+00  0.10997793090E+04  0.10997793090E+04  0.00000000000E+00 0.  1.
         21   -1    0    0  501  502 -0.00000000000E+00 -0.00000000000E+00 -0.94652566497E+02  0.94652566497E+02  0.00000000000E+00 0.  1.
         25    1    1    2    0    0  0.99293495995E+01 -0.68287808244E+02  0.82786738969E+03  0.84009001402E+03  0.12500000000E+03 0.  0.
         25    1    1    2    0    0 -0.76504867434E+02 -0.31367959879E+01  0.67030191080E+02  0.16118585777E+03  0.12500000000E+03 0.  0.
         25    1    1    2    0    0  0.66575517834E+02  0.71424604232E+02  0.11022916169E+03  0.19315600366E+03  0.12500000000E+03 0.  0.
</event>
<event>
 5    0  0.5474724E-005  0.2260809E+03  0.7546771E-02  0.1129429E+00
         21   -1    0    0  502  501  0.00000000000E+00  0.00000000000E+00  0.53358405513E+03  0.53358405513E+03  0.00000000000E+00 0. -1.
         21   -1    0    0  501  502 -0.00000000000E+00 -0.00000000000E+00 -0.95791059855E+02  0.95791059855E+02  0.00000000000E+00 0. -1.
         25    1    1    2    0    0  0.50105050552E+02  0.64207923416E+02  0.25498680215E+03  0.29542586683E+03  0.12500000000E+03 0.  0.
         25    1    1    2    0    0 -0.47448354880E+02 -0.57648672456E+01  0.12881973037E+03  0.18575280081E+03  0.12500000000E+03 0.  0.
         25    1    1    2    0    0 -0.26566956718E+01 -0.58443056170E+02  0.53986462755E+02  0.14819644735E+03  0.12500000000E+03 0.  0.
</event>
<event>
 5    0  0.6683012E-005  0.3429897E+03  0.7546771E-02  0.1065530E+00
         21   -1    0    0  502  501  0.00000000000E+00  0.00000000000E+00  0.70381468713E+03  0.70381468713E+03  0.00000000000E+00 0. -1.
         21   -1    0    0  501  502 -0.00000000000E+00 -0.00000000000E+00 -0.16714901359E+03  0.16714901359E+03  0.00000000000E+00 0. -1.
         25    1    1    2    0    0 -0.24461304624E+02 -0.12042776965E+03  0.27069077518E+03  0.32248984309E+03  0.12500000000E+03 0.  0.
         25    1    1    2    0    0  0.14271878428E+03  0.12287861857E+03 -0.65829472948E+01  0.22613301724E+03  0.12500000000E+03 0.  0.
         25    1    1    2    0    0 -0.11825747966E+03 -0.24508489216E+01  0.27255784566E+03  0.32234084040E+03  0.12500000000E+03 0.  0.
</event>
<event>
 5    0  0.5474724E-005  0.3410011E+03  0.7546771E-02  0.1066370E+00
         21   -1    0    0  502  501  0.00000000000E+00  0.00000000000E+00  0.19659987462E+04  0.19659987462E+04  0.00000000000E+00 0.  1.
         21   -1    0    0  501  502 -0.00000000000E+00 -0.00000000000E+00 -0.59146407640E+02  0.59146407640E+02  0.00000000000E+00 0.  1.
         25    1    1    2    0    0  0.19565926913E+03 -0.90658158834E+02  0.13317993955E+04  0.13549229060E+04  0.12500000000E+03 0.  0.
         25    1    1    2    0    0 -0.59121715511E+02  0.77841156488E+02  0.26837771482E+03  0.31177912165E+03  0.12500000000E+03 0.  0.
         25    1    1    2    0    0 -0.13653755362E+03  0.12817002346E+02  0.30667522833E+03  0.35844312627E+03  0.12500000000E+03 0.  0.
</event>
<event>
 5    0  0.5474724E-005  0.3642123E+03  0.7546771E-02  0.1056928E+00
         21   -1    0    0  502  501  0.00000000000E+00  0.00000000000E+00  0.34789947912E+03  0.34789947912E+03  0.00000000000E+00 0.  1.
         21   -1    0    0  501  502 -0.00000000000E+00 -0.00000000000E+00 -0.38128992194E+03  0.38128992194E+03  0.00000000000E+00 0.  1.
         25    1    1    2    0    0 -0.29681761053E+02 -0.82474445758E+02 -0.78461435951E+02  0.17165150181E+03  0.12500000000E+03 0.  0.
         25    1    1    2    0    0 -0.73743191614E+02 -0.18253017128E+03  0.76026651899E+02  0.24527611693E+03  0.12500000000E+03 0.  0.
         25    1    1    2    0    0  0.10342495267E+03  0.26500461704E+03 -0.30955658761E+02  0.31226178232E+03  0.12500000000E+03 0.  0.
</event>
<event>
 5    0  0.5474724E-005  0.2349042E+03  0.7546771E-02  0.1123235E+00
         21   -1    0    0  502  501  0.00000000000E+00  0.00000000000E+00  0.78316528764E+02  0.78316528764E+02  0.00000000000E+00 0. -1.
         21   -1    0    0  501  502 -0.00000000000E+00 -0.00000000000E+00 -0.70457627236E+03  0.70457627236E+03  0.00000000000E+00 0. -1.
         25    1    1    2    0    0  0.27702467095E+02  0.94632438646E+02 -0.31864494911E+03  0.35620545858E+03  0.12500000000E+03 0.  0.
         25    1    1    2    0    0 -0.17804211209E+02 -0.65931068834E+02 -0.75252850187E+02  0.16109589453E+03  0.12500000000E+03 0.  0.
         25    1    1    2    0    0 -0.98982558855E+01 -0.28701369812E+02 -0.23236194430E+03  0.26559144801E+03  0.12500000000E+03 0.  0.
</event>
<event>
 5    0  0.5474724E-005  0.4467211E+03  0.7546771E-02  0.1028704E+00
         21   -1    0    0  502  501  0.00000000000E+00  0.00000000000E+00  0.10610311000E+04  0.10610311000E+04  0.00000000000E+00 0. -1.
         21   -1    0    0  501  502 -0.00000000000E+00 -0.00000000000E+00 -0.18808095545E+03  0.18808095545E+03  0.00000000000E+00 0. -1.
         25    1    1    2    0    0 -0.20909895139E+02 -0.27028554606E+03  0.53288233774E+03  0.61080282089E+03  0.12500000000E+03 0.  0.
         25    1    1    2    0    0 -0.85425604962E+02 -0.63855675776E+02  0.13893639990E+03  0.21518225886E+03  0.12500000000E+03 0.  0.
         25    1    1    2    0    0  0.10633550010E+03  0.33414122183E+03  0.20113140686E+03  0.42312697567E+03  0.12500000000E+03 0.  0.
</event>
<event>
 5    0  0.5474724E-005  0.3252444E+03  0.7546771E-02  0.1073261E+00
         21   -1    0    0  502  501  0.00000000000E+00  0.00000000000E+00  0.17200976765E+03  0.17200976765E+03  0.00000000000E+00 0. -1.
         21   -1    0    0  501  502 -0.00000000000E+00 -0.00000000000E+00 -0.61498787818E+03  0.61498787818E+03  0.00000000000E+00 0. -1.
         25    1    1    2    0    0  0.25372370824E+02  0.16969572229E+03 -0.73645531229E+02  0.22469770723E+03  0.12500000000E+03 0.  0.
         25    1    1    2    0    0 -0.10015178249E+03 -0.21748282201E+03 -0.22110172485E+03  0.34905605586E+03  0.12500000000E+03 0.  0.
         25    1    1    2    0    0  0.74779411668E+02  0.47787099713E+02 -0.14823085446E+03  0.21324388273E+03  0.12500000000E+03 0.  0.
</event>
<event>
 5    0  0.5474724E-005  0.3524565E+03  0.7546771E-02  0.1061611E+00
         21   -1    0    0  502  501  0.00000000000E+00  0.00000000000E+00  0.22956759620E+03  0.22956759620E+03  0.00000000000E+00 0.  1.
         21   -1    0    0  501  502 -0.00000000000E+00 -0.00000000000E+00 -0.54112843254E+03  0.54112843254E+03  0.00000000000E+00 0.  1.
         25    1    1    2    0    0 -0.18659698361E+02  0.84051726330E+02 -0.11467071010E+03  0.19022946354E+03  0.12500000000E+03 0.  0.
         25    1    1    2    0    0  0.18486743698E+03 -0.76805223171E+02 -0.27119187903E+03  0.35950667144E+03  0.12500000000E+03 0.  0.
         25    1    1    2    0    0 -0.16620773861E+03 -0.72465031587E+01  0.74301752790E+02  0.22095989376E+03  0.12500000000E+03 0.  0.
</event>
<event>
 5    0  0.5474724E-005  0.2538590E+03  0.7546771E-02  0.1110890E+00
         21   -1    0    0  502  501  0.00000000000E+00  0.00000000000E+00  0.42170393182E+04  0.42170393182E+04  0.00000000000E+00 0.  1.
         21   -1    0    0  501  502 -0.00000000000E+00 -0.00000000000E+00 -0.15281907367E+02  0.15281907367E+02  0.00000000000E+00 0.  1.
         25    1    1    2    0    0 -0.11859086662E+03 -0.57571995998E+02  0.19210169432E+04  0.19295878898E+04  0.12500000000E+03 0.  0.
         25    1    1    2    0    0  0.17039129192E+01  0.73329821735E+02  0.96748653560E+03  0.97828184213E+03  0.12500000000E+03 0.  0.
         25    1    1    2    0    0  0.11688695370E+03 -0.15757825737E+02  0.13132539320E+04  0.13244514936E+04  0.12500000000E+03 0.  0.
</event>
<event>
 5    0  0.5474724E-005  0.2819542E+03  0.7546771E-02  0.1094626E+00
         21   -1    0    0  502  501  0.00000000000E+00  0.00000000000E+00  0.10827802538E+03  0.10827802538E+03  0.00000000000E+00 0.  1.
         21   -1    0    0  501  502 -0.00000000000E+00 -0.00000000000E+00 -0.73420426159E+03  0.73420426159E+03  0.00000000000E+00 0.  1.
         25    1    1    2    0    0 -0.69246878832E+02 -0.79677952877E+02 -0.66591735534E+02  0.17664417806E+03  0.12500000000E+03 0.  0.
         25    1    1    2    0    0  0.13554591166E+03  0.92278064408E+02 -0.41459523974E+03  0.46303579576E+03  0.12500000000E+03 0.  0.
         25    1    1    2    0    0 -0.66299032828E+02 -0.12600111531E+02 -0.14473926093E+03  0.20280231315E+03  0.12500000000E+03 0.  0.
</event>
<event>
 5    0  0.5474724E-005  0.2914941E+03  0.7546771E-02  0.1089572E+00
         21   -1    0    0  502  501  0.00000000000E+00  0.00000000000E+00  0.76721328920E+02  0.76721328920E+02  0.00000000000E+00 0.  1.
         21   -1    0    0  501  502 -0.00000000000E+00 -0.00000000000E+00 -0.11074994439E+04  0.11074994439E+04  0.00000000000E+00 0.  1.
         25    1    1    2    0    0  0.11338445029E+03  0.12504206019E+02 -0.28764743241E+03  0.33373407694E+03  0.12500000000E+03 0.  0.
         25    1    1    2    0    0  0.10163555475E+03 -0.10935691199E+02 -0.24042923217E+03  0.28962146159E+03  0.12500000000E+03 0.  0.
         25    1    1    2    0    0 -0.21502000504E+03 -0.15685148196E+01 -0.50270145040E+03  0.56086523429E+03  0.12500000000E+03 0.  0.
</event>
<event>
 5    0  0.5474724E-005  0.2113918E+03  0.7546771E-02  0.1140469E+00
         21   -1    0    0  502  501  0.00000000000E+00  0.00000000000E+00  0.63958614125E+02  0.63958614125E+02  0.00000000000E+00 0. -1.
         21   -1    0    0  501  502 -0.00000000000E+00 -0.00000000000E+00 -0.69867824219E+03  0.69867824219E+03  0.00000000000E+00 0. -1.
         25    1    1    2    0    0 -0.33284652295E+02  0.19320347667E+02 -0.20351520974E+03  0.24191854932E+03  0.12500000000E+03 0.  0.
         25    1    1    2    0    0  0.45490421298E+01 -0.43999572603E+02 -0.32949782739E+03  0.35517668058E+03  0.12500000000E+03 0.  0.
         25    1    1    2    0    0  0.28735610165E+02  0.24679224936E+02 -0.10170659094E+03  0.16554162641E+03  0.12500000000E+03 0.  0.
</event>
<event>
 5    0  0.5474724E-005  0.2893795E+03  0.7546771E-02  0.1090674E+00
         21   -1    0    0  502  501  0.00000000000E+00  0.00000000000E+00  0.18315213197E+03  0.18315213197E+03  0.00000000000E+00 0.  1.
         21   -1    0    0  501  502 -0.00000000000E+00 -0.00000000000E+00 -0.45721811071E+03  0.45721811071E+03  0.00000000000E+00 0.  1.
         25    1    1    2    0    0 -0.25329493465E+02 -0.19036571370E+02 -0.13470634953E+03  0.18647995842E+03  0.12500000000E+03 0.  0.
         25    1    1    2    0    0 -0.97402773859E+02  0.48531687384E+02 -0.20579024446E+03  0.26422953989E+03  0.12500000000E+03 0.  0.
         25    1    1    2    0    0  0.12273226732E+03 -0.29495116014E+02  0.66430615247E+02  0.18966074437E+03  0.12500000000E+03 0.  0.
</event>
<event>
 5    0  0.5474724E-005  0.2996765E+03  0.7546771E-02  0.1085402E+00
         21   -1    0    0  502  501  0.00000000000E+00  0.00000000000E+00  0.13996644375E+03  0.13996644375E+03  0.00000000000E+00 0. -1.
         21   -1    0    0  501  502 -0.00000000000E+00 -0.00000000000E+00 -0.64162539900E+03  0.64162539900E+03  0.00000000000E+00 0. -1.
         25    1    1    2    0    0  0.13411360917E+03 -0.10183345119E+03 -0.14045586236E+03  0.25240713385E+03  0.12500000000E+03 0.  0.
         25    1    1    2    0    0 -0.36219797149E+02  0.14350355826E+03 -0.29339344464E+03  0.35158193682E+03  0.12500000000E+03 0.  0.
         25    1    1    2    0    0 -0.97893812023E+02 -0.41670107074E+02 -0.67809648245E+02  0.17760277208E+03  0.12500000000E+03 0.  0.
</event>
<event>
 5    0  0.5474724E-005  0.3016034E+03  0.7546771E-02  0.1084442E+00
         21   -1    0    0  502  501  0.00000000000E+00  0.00000000000E+00  0.60847306539E+03  0.60847306539E+03  0.00000000000E+00 0. -1.
         21   -1    0    0  501  502 -0.00000000000E+00 -0.00000000000E+00 -0.14949656528E+03  0.14949656528E+03  0.00000000000E+00 0. -1.
         25    1    1    2    0    0  0.10563432111E+02  0.66054725363E+02 -0.51922696331E+02  0.15098271171E+03  0.12500000000E+03 0.  0.
         25    1    1    2    0    0  0.39152160800E+02 -0.52883981141E+02  0.42247609188E+03  0.44546678368E+03  0.12500000000E+03 0.  0.
         25    1    1    2    0    0 -0.49715592911E+02 -0.13170744223E+02  0.88423104564E+02  0.16152013529E+03  0.12500000000E+03 0.  0.
</event>
<event>
 5    0  0.5474724E-005  0.2781882E+03  0.7546771E-02  0.1096683E+00
         21   -1    0    0  502  501  0.00000000000E+00  0.00000000000E+00  0.79278756886E+03  0.79278756886E+03  0.00000000000E+00 0. -1.
         21   -1    0    0  501  502 -0.00000000000E+00 -0.00000000000E+00 -0.97615873241E+02  0.97615873241E+02  0.00000000000E+00 0. -1.
         25    1    1    2    0    0  0.49285812028E+02  0.64322626171E+01  0.37003103249E+03  0.39372379948E+03  0.12500000000E+03 0.  0.
         25    1    1    2    0    0 -0.12362036754E+03  0.90790381940E+02  0.14294422729E+03  0.24409617129E+03  0.12500000000E+03 0.  0.
         25    1    1    2    0    0  0.74334555508E+02 -0.97222644557E+02  0.18219643583E+03  0.25258347133E+03  0.12500000000E+03 0.  0.
</event>
<event>
 5    0  0.5474724E-005  0.2961804E+03  0.7546771E-02  0.1087166E+00
         21   -1    0    0  502  501  0.00000000000E+00  0.00000000000E+00  0.86554182548E+02  0.86554182548E+02  0.00000000000E+00 0.  1.
         21   -1    0    0  501  502 -0.00000000000E+00 -0.00000000000E+00 -0.10135017803E+04  0.10135017803E+04  0.00000000000E+00 0.  1.
         25    1    1    2    0    0 -0.19159733862E+03  0.96579469930E+02 -0.45611213057E+03  0.51932688148E+03  0.12500000000E+03 0.  0.
         25    1    1    2    0    0  0.12254634913E+03 -0.27402579285E+02 -0.20328226438E+03  0.26966124684E+03  0.12500000000E+03 0.  0.
         25    1    1    2    0    0  0.69050989497E+02 -0.69176890646E+02 -0.26755320285E+03  0.31106783457E+03  0.12500000000E+03 0.  0.
</event>
<event>
 5    0  0.5474724E-005  0.3466886E+03  0.7546771E-02  0.1063982E+00
         21   -1    0    0  502  501  0.00000000000E+00  0.00000000000E+00  0.24448575223E+03  0.24448575223E+03  0.00000000000E+00 0.  1.
         21   -1    0    0  501  502 -0.00000000000E+00 -0.00000000000E+00 -0.49161559454E+03  0.49161559454E+03  0.00000000000E+00 0.  1.
         25    1    1    2    0    0  0.13472608682E+03  0.22785849728E+03 -0.20866620198E+02  0.29348088369E+03  0.12500000000E+03 0.  0.
         25    1    1    2    0    0 -0.91809384734E+02 -0.11804982391E+03 -0.61040830835E+02  0.20424423389E+03  0.12500000000E+03 0.  0.
         25    1    1    2    0    0 -0.42916702088E+02 -0.10980867337E+03 -0.16522239128E+03  0.23837622919E+03  0.12500000000E+03 0.  0.
</event>
<event>
 5    0  0.5474724E-005  0.3541725E+03  0.7546771E-02  0.1060915E+00
         21   -1    0    0  502  501  0.00000000000E+00  0.00000000000E+00  0.66545575325E+03  0.66545575325E+03  0.00000000000E+00 0.  1.
         21   -1    0    0  501  502 -0.00000000000E+00 -0.00000000000E+00 -0.18849967438E+03  0.18849967438E+03  0.00000000000E+00 0.  1.
         25    1    1    2    0    0  0.27710793146E+02  0.14014630786E+03  0.29938068722E+03  0.35448931090E+03  0.12500000000E+03 0.  0.
         25    1    1    2    0    0 -0.43786520504E+02 -0.89826849235E+02  0.28468599454E+03  0.32658419696E+03  0.12500000000E+03 0.  0.
         25    1    1    2    0    0  0.16075727358E+02 -0.50319458622E+02 -0.10711060289E+03  0.17288191975E+03  0.12500000000E+03 0.  0.
</event>
<event>
 5    0  0.5474724E-005  0.2412804E+03  0.7546771E-02  0.1118943E+00
         21   -1    0    0  502  501  0.00000000000E+00  0.00000000000E+00  0.94397062617E+03  0.94397062617E+03  0.00000000000E+00 0.  1.
         21   -1    0    0  501  502 -0.00000000000E+00 -0.00000000000E+00 -0.61671631120E+02  0.61671631120E+02  0.00000000000E+00 0.  1.
         25    1    1    2    0    0 -0.15766994437E+02 -0.66348291286E+02  0.19013333688E+03  0.23754237446E+03  0.12500000000E+03 0.  0.
         25    1    1    2    0    0  0.92151414502E+02  0.47481270061E+02  0.22048023745E+03  0.27383003726E+03  0.12500000000E+03 0.  0.
         25    1    1    2    0    0 -0.76384420065E+02  0.18867021225E+02  0.47168542072E+03  0.49426984557E+03  0.12500000000E+03 0.  0.
</event>
<event>
 5    0  0.5474724E-005  0.3322879E+03  0.7546771E-02  0.1070129E+00
         21   -1    0    0  502  501  0.00000000000E+00  0.00000000000E+00  0.31294180513E+03  0.31294180513E+03  0.00000000000E+00 0.  1.
         21   -1    0    0  501  502 -0.00000000000E+00 -0.00000000000E+00 -0.35282992558E+03  0.35282992558E+03  0.00000000000E+00 0.  1.
         25    1    1    2    0    0 -0.33183948474E+02  0.16754421903E+03  0.74528153224E+02  0.22439181222E+03  0.12500000000E+03 0.  0.
         25    1    1    2    0    0 -0.88078448014E+02 -0.16332176407E+02  0.45909085635E+02  0.16049048923E+03  0.12500000000E+03 0.  0.
         25    1    1    2    0    0  0.12126239649E+03 -0.15121204262E+03 -0.16032535931E+03  0.28088942927E+03  0.12500000000E+03 0.  0.
</event>
<event>
 5    0  0.5474724E-005  0.3893169E+03  0.7546771E-02  0.1047543E+00
         21   -1    0    0  502  501  0.00000000000E+00  0.00000000000E+00  0.77718001718E+02  0.77718001718E+02  0.00000000000E+00 0.  1.
         21   -1    0    0  501  502 -0.00000000000E+00 -0.00000000000E+00 -0.19502259466E+04  0.19502259466E+04  0.00000000000E+00 0.  1.
         25    1    1    2    0    0 -0.65503266369E+02  0.17087913003E+03 -0.58723166013E+03  0.62765944400E+03  0.12500000000E+03 0.  0.
         25    1    1    2    0    0  0.16074477663E+03  0.11057246858E+03 -0.59196804224E+03  0.63570143704E+03  0.12500000000E+03 0.  0.
         25    1    1    2    0    0 -0.95241510259E+02 -0.28145159861E+03 -0.69330824254E+03  0.76458306730E+03  0.12500000000E+03 0.  0.
</event>
<event>
 5    0  0.5474724E-005  0.2197279E+03  0.7546771E-02  0.1134086E+00
         21   -1    0    0  502  501  0.00000000000E+00  0.00000000000E+00  0.56569231742E+03  0.56569231742E+03  0.00000000000E+00 0.  1.
         21   -1    0    0  501  502 -0.00000000000E+00 -0.00000000000E+00 -0.85347402249E+02  0.85347402249E+02  0.00000000000E+00 0.  1.
         25    1    1    2    0    0 -0.46575445666E+02 -0.50359696615E+02  0.28776684152E+03  0.32115436516E+03  0.12500000000E+03 0.  0.
         25    1    1    2    0    0 -0.88793110668E+01  0.12936844996E+02  0.86546444221E+02  0.15284466340E+03  0.12500000000E+03 0.  0.
         25    1    1    2    0    0  0.55454756733E+02  0.37422851619E+02  0.10603162943E+03  0.17704069110E+03  0.12500000000E+03 0.  0.
</event>
<event>
 5    0  0.5474724E-005  0.6566296E+03  0.7546771E-02  0.9794418E-01
         21   -1    0    0  502  501  0.00000000000E+00  0.00000000000E+00  0.80862628488E+03  0.80862628488E+03  0.00000000000E+00 0.  1.
         21   -1    0    0  501  502 -0.00000000000E+00 -0.00000000000E+00 -0.53320353580E+03  0.53320353580E+03  0.00000000000E+00 0.  1.
         25    1    1    2    0    0 -0.25937399064E+03 -0.26996724420E+03 -0.21281751564E+03  0.44841217080E+03  0.12500000000E+03 0.  0.
         25    1    1    2    0    0 -0.86186423710E+02  0.37227023541E+02 -0.81749921517E+02  0.17641428678E+03  0.12500000000E+03 0.  0.
         25    1    1    2    0    0  0.34556041435E+03  0.23274022066E+03  0.56999018623E+03  0.71700336309E+03  0.12500000000E+03 0.  0.
</event>
<event>
 5    0  0.5474724E-005  0.2736211E+03  0.7546771E-02  0.1099225E+00
         21   -1    0    0  502  501  0.00000000000E+00  0.00000000000E+00  0.51150692812E+03  0.51150692812E+03  0.00000000000E+00 0.  1.
         21   -1    0    0  501  502 -0.00000000000E+00 -0.00000000000E+00 -0.14636854843E+03  0.14636854843E+03  0.00000000000E+00 0.  1.
         25    1    1    2    0    0 -0.25084524933E+02 -0.10270507874E+03  0.26486630289E+03  0.31137874847E+03  0.12500000000E+03 0.  0.
         25    1    1    2    0    0  0.56342513338E+02  0.13151472988E+03  0.99494573186E+02  0.21446392022E+03  0.12500000000E+03 0.  0.
         25    1    1    2    0    0 -0.31257988405E+02 -0.28809651134E+02  0.77750361612E+00  0.13203280785E+03  0.12500000000E+03 0.  0.
</event>
<event>
 5    0  0.5474724E-005  0.3167099E+03  0.7546771E-02  0.1077174E+00
         21   -1    0    0  502  501  0.00000000000E+00  0.00000000000E+00  0.16393892573E+03  0.16393892573E+03  0.00000000000E+00 0. -1.
         21   -1    0    0  501  502 -0.00000000000E+00 -0.00000000000E+00 -0.61184480566E+03  0.61184480566E+03  0.00000000000E+00 0. -1.
         25    1    1    2    0    0 -0.14934929758E+03  0.12345023083E+03 -0.11987498876E+03  0.25988494590E+03  0.12500000000E+03 0.  0.
         25    1    1    2    0    0  0.10361418625E+03  0.56353061388E+02 -0.11357233107E+03  0.20599815898E+03  0.12500000000E+03 0.  0.
         25    1    1    2    0    0  0.45735111335E+02 -0.17980329221E+03 -0.21445856011E+03  0.30990062650E+03  0.12500000000E+03 0.  0.
</event>
<event>
 5    0  0.5474724E-005  0.4377313E+03  0.7546771E-02  0.1031445E+00
         21   -1    0    0  502  501  0.00000000000E+00  0.00000000000E+00  0.75499341749E+03  0.75499341749E+03  0.00000000000E+00 0.  1.
         21   -1    0    0  501  502 -0.00000000000E+00 -0.00000000000E+00 -0.25378850556E+03  0.25378850556E+03  0.00000000000E+00 0.  1.
         25    1    1    2    0    0  0.32171627148E+02 -0.35950122673E+03  0.28273048724E+03  0.47522381468E+03  0.12500000000E+03 0.  0.
         25    1    1    2    0    0 -0.98491565048E+02  0.25015476111E+03  0.19086967325E+03  0.35261058557E+03  0.12500000000E+03 0.  0.
         25    1    1    2    0    0  0.66319937900E+02  0.10934646562E+03  0.27604751445E+02  0.18094752281E+03  0.12500000000E+03 0.  0.
</event>
<event>
 5    0  0.5474724E-005  0.2610216E+03  0.7546771E-02  0.1106531E+00
         21   -1    0    0  502  501  0.00000000000E+00  0.00000000000E+00  0.55190875797E+02  0.55190875797E+02  0.00000000000E+00 0. -1.
         21   -1    0    0  501  502 -0.00000000000E+00 -0.00000000000E+00 -0.12344841884E+04  0.12344841884E+04  0.00000000000E+00 0. -1.
         25    1    1    2    0    0 -0.80027641666E+02 -0.60250046281E+01 -0.31637085725E+03  0.34950857418E+03  0.12500000000E+03 0.  0.
         25    1    1    2    0    0  0.59574402935E+02 -0.94452502872E+02 -0.65871180162E+03  0.67970333409E+03  0.12500000000E+03 0.  0.
         25    1    1    2    0    0  0.20453238731E+02  0.10047750750E+03 -0.20421065369E+03  0.26046315587E+03  0.12500000000E+03 0.  0.
</event>
<event>
 5    0  0.5474724E-005  0.3268646E+03  0.7546771E-02  0.1072533E+00
         21   -1    0    0  502  501  0.00000000000E+00  0.00000000000E+00  0.95476600818E+03  0.95476600818E+03  0.00000000000E+00 0. -1.
         21   -1    0    0  501  502 -0.00000000000E+00 -0.00000000000E+00 -0.11190224210E+03  0.11190224210E+03  0.00000000000E+00 0. -1.
         25    1    1    2    0    0 -0.57241243335E+02  0.65471076052E+02  0.54853546472E+03  0.56927952519E+03  0.12500000000E+03 0.  0.
         25    1    1    2    0    0 -0.77176614533E+02 -0.13750236794E+03  0.12060059522E+03  0.23459035485E+03  0.12500000000E+03 0.  0.
         25    1    1    2    0    0  0.13441785787E+03  0.72031291886E+02  0.17372770614E+03  0.26279837025E+03  0.12500000000E+03 0.  0.
</event>
<event>
 5    0  0.5474724E-005  0.3702758E+03  0.7546771E-02  0.1054588E+00
         21   -1    0    0  502  501  0.00000000000E+00  0.00000000000E+00  0.36576938182E+03  0.36576938182E+03  0.00000000000E+00 0. -1.
         21   -1    0    0  501  502 -0.00000000000E+00 -0.00000000000E+00 -0.37483771699E+03  0.37483771699E+03  0.00000000000E+00 0. -1.
         25    1    1    2    0    0 -0.20490962151E+03 -0.12784049218E+03  0.13637714709E+03  0.30422831997E+03  0.12500000000E+03 0.  0.
         25    1    1    2    0    0  0.21987541253E+03  0.43511232556E+02 -0.11766264229E+03  0.28232591412E+03  0.12500000000E+03 0.  0.
         25    1    1    2    0    0 -0.14965791029E+02  0.84329259622E+02 -0.27782839980E+02  0.15405286471E+03  0.12500000000E+03 0.  0.
</event>
<event>
 5    0  0.5474724E-005  0.3497678E+03  0.7546771E-02  0.1062710E+00
         21   -1    0    0  502  501  0.00000000000E+00  0.00000000000E+00  0.37510338478E+03  0.37510338478E+03  0.00000000000E+00 0. -1.
         21   -1    0    0  501  502 -0.00000000000E+00 -0.00000000000E+00 -0.32614353130E+03  0.32614353130E+03  0.00000000000E+00 0. -1.
         25    1    1    2    0    0  0.31348664016E+02  0.25191351590E+03 -0.32569288023E+02  0.28483138302E+03  0.12500000000E+03 0.  0.
         25    1    1    2    0    0 -0.82332919457E+02 -0.37549142809E+02  0.19000912840E+02  0.15548209685E+03  0.12500000000E+03 0.  0.
         25    1    1    2    0    0  0.50984255441E+02 -0.21436437309E+03  0.62528228662E+02  0.26093343621E+03  0.12500000000E+03 0.  0.
</event>
<event>
 5    0  0.5474724E-005  0.3320008E+03  0.7546771E-02  0.1070255E+00
         21   -1    0    0  502  501  0.00000000000E+00  0.00000000000E+00  0.15324049388E+03  0.15324049388E+03  0.00000000000E+00 0.  1.
         21   -1    0    0  501  502 -0.00000000000E+00 -0.00000000000E+00 -0.71929107049E+03  0.71929107049E+03  0.00000000000E+00 0.  1.
         25    1    1    2    0    0  0.21738615166E+03 -0.31133232450E+01 -0.15177128914E+03  0.29313129468E+03  0.12500000000E+03 0.  0.
         25    1    1    2    0    0 -0.97362277228E+02 -0.66440879064E+02 -0.65676267115E+02  0.18393524812E+03  0.12500000000E+03 0.  0.
         25    1    1    2    0    0 -0.12002387443E+03  0.69554202309E+02 -0.34860302035E+03  0.39546502157E+03  0.12500000000E+03 0.  0.
</event>
<event>
 5    0  0.5474724E-005  0.2719574E+03  0.7546771E-02  0.1100165E+00
         21   -1    0    0  502  501  0.00000000000E+00  0.00000000000E+00  0.12037824055E+04  0.12037824055E+04  0.00000000000E+00 0. -1.
         21   -1    0    0  501  502 -0.00000000000E+00 -0.00000000000E+00 -0.61440374507E+02  0.61440374507E+02  0.00000000000E+00 0. -1.
         25    1    1    2    0    0  0.37909766886E+02  0.43177644176E+02  0.12983194997E+03  0.18916340718E+03  0.12500000000E+03 0.  0.
         25    1    1    2    0    0  0.80214905049E+01  0.69102695616E+02  0.20502072605E+03  0.24999604989E+03  0.12500000000E+03 0.  0.
         25    1    1    2    0    0 -0.45931257391E+02 -0.11228033979E+03  0.80748935496E+03  0.82606332293E+03  0.12500000000E+03 0.  0.
</event>
<event>
 5    0  0.5474724E-005  0.2985035E+03  0.7546771E-02  0.1085991E+00
         21   -1    0    0  502  501  0.00000000000E+00  0.00000000000E+00  0.87019591649E+02  0.87019591649E+02  0.00000000000E+00 0.  1.
         21   -1    0    0  501  502 -0.00000000000E+00 -0.00000000000E+00 -0.10239573172E+04  0.10239573172E+04  0.00000000000E+00 0.  1.
         25    1    1    2    0    0 -0.10265935128E+03 -0.10619400314E+03 -0.45165077030E+03  0.49135478731E+03  0.12500000000E+03 0.  0.
         25    1    1    2    0    0  0.17324707654E+03  0.10472210647E+03 -0.25950460498E+03  0.35206378559E+03  0.12500000000E+03 0.  0.
         25    1    1    2    0    0 -0.70587725261E+02  0.14718966654E+01 -0.22578235022E+03  0.26755833590E+03  0.12500000000E+03 0.  0.
</event>
<event>
 5    0  0.5474724E-005  0.6483104E+03  0.7546771E-02  0.9809955E-01
         21   -1    0    0  502  501  0.00000000000E+00  0.00000000000E+00  0.70659642347E+03  0.70659642347E+03  0.00000000000E+00 0.  1.
         21   -1    0    0  501  502 -0.00000000000E+00 -0.00000000000E+00 -0.59483228135E+03  0.59483228135E+03  0.00000000000E+00 0.  1.
         25    1    1    2    0    0 -0.22704980109E+03  0.36850930562E+03  0.33112276737E+03  0.55912253360E+03  0.12500000000E+03 0.  0.
         25    1    1    2    0    0  0.33769016263E+03 -0.39791666910E+03 -0.13705475709E+03  0.55387844147E+03  0.12500000000E+03 0.  0.
         25    1    1    2    0    0 -0.11064036154E+03  0.29407363478E+02 -0.82303868147E+02  0.18842772975E+03  0.12500000000E+03 0.  0.
</event>
<event>
 5    0  0.5474724E-005  0.3943032E+03  0.7546771E-02  0.1045770E+00
         21   -1    0    0  502  501  0.00000000000E+00  0.00000000000E+00  0.42551906445E+03  0.42551906445E+03  0.00000000000E+00 0. -1.
         21   -1    0    0  501  502 -0.00000000000E+00 -0.00000000000E+00 -0.36537724770E+03  0.36537724770E+03  0.00000000000E+00 0. -1.
         25    1    1    2    0    0 -0.44974504569E+01  0.22425318166E+03 -0.29656512849E+02  0.25848447787E+03  0.12500000000E+03 0.  0.
         25    1    1    2    0    0 -0.35168322524E+02 -0.29339683076E+03 -0.54596298765E+02  0.32546008518E+03  0.12500000000E+03 0.  0.
         25    1    1    2    0    0  0.39665772981E+02  0.69143649096E+02  0.14439462837E+03  0.20695174910E+03  0.12500000000E+03 0.  0.
</event>
<event>
 5    0  0.5474724E-005  0.2337958E+03  0.7546771E-02  0.1123996E+00
         21   -1    0    0  502  501  0.00000000000E+00  0.00000000000E+00  0.10838952544E+04  0.10838952544E+04  0.00000000000E+00 0. -1.
         21   -1    0    0  501  502 -0.00000000000E+00 -0.00000000000E+00 -0.50429646224E+02  0.50429646224E+02  0.00000000000E+00 0. -1.
         25    1    1    2    0    0 -0.28442484087E+02 -0.51301198651E+02  0.16830743452E+03  0.21769974827E+03  0.12500000000E+03 0.  0.
         25    1    1    2    0    0  0.56454249721E+02 -0.13015452888E+01  0.24108979129E+03  0.27737711476E+03  0.12500000000E+03 0.  0.
         25    1    1    2    0    0 -0.28011765634E+02  0.52602743940E+02  0.62406838236E+03  0.63924803758E+03  0.12500000000E+03 0.  0.
</event>
<event>
 5    0  0.5474724E-005  0.3024407E+03  0.7546771E-02  0.1084027E+00
         21   -1    0    0  502  501  0.00000000000E+00  0.00000000000E+00  0.43512360471E+03  0.43512360471E+03  0.00000000000E+00 0.  1.
         21   -1    0    0  501  502 -0.00000000000E+00 -0.00000000000E+00 -0.21021703755E+03  0.21021703755E+03  0.00000000000E+00 0.  1.
         25    1    1    2    0    0 -0.73997229078E+02 -0.47875393701E+02  0.10462159910E+03  0.18530602320E+03  0.12500000000E+03 0.  0.
         25    1    1    2    0    0  0.17519277665E+03 -0.73244145077E+02  0.36710619316E+01  0.22736686319E+03  0.12500000000E+03 0.  0.
         25    1    1    2    0    0 -0.10119554757E+03  0.12111953878E+03  0.11661390613E+03  0.23266775588E+03  0.12500000000E+03 0.  0.
</event>
<event>
 5    0  0.5707039E-005  0.2820043E+03  0.7546771E-02  0.1094599E+00
         21   -1    0    0  502  501  0.00000000000E+00  0.00000000000E+00  0.39978146944E+03  0.39978146944E+03  0.00000000000E+00 0.  1.
         21   -1    0    0  501  502 -0.00000000000E+00 -0.00000000000E+00 -0.19892471964E+03  0.19892471964E+03  0.00000000000E+00 0.  1.
         25    1    1    2    0    0 -0.16970634379E+03 -0.55028235895E+02  0.10699458395E+03  0.24269567541E+03  0.12500000000E+03 0.  0.
         25    1    1    2    0    0  0.10734716492E+03  0.96127159810E+02  0.88531021428E+02  0.21030118027E+03  0.12500000000E+03 0.  0.
         25    1    1    2    0    0  0.62359178871E+02 -0.41098923915E+02  0.53311444217E+01  0.14570933339E+03  0.12500000000E+03 0.  0.
</event>
<event>
 5    0  0.5474724E-005  0.3091995E+03  0.7546771E-02  0.1080730E+00
         21   -1    0    0  502  501  0.00000000000E+00  0.00000000000E+00  0.16451630317E+03  0.16451630317E+03  0.00000000000E+00 0. -1.
         21   -1    0    0  501  502 -0.00000000000E+00 -0.00000000000E+00 -0.58112361237E+03  0.58112361237E+03  0.00000000000E+00 0. -1.
         25    1    1    2    0    0 -0.36833445619E+02  0.68397418895E+02 -0.20288157247E+03  0.25064086274E+03  0.12500000000E+03 0.  0.
         25    1    1    2    0    0  0.10297432201E+03 -0.12909207785E+03  0.27437151423E+02  0.20891690414E+03  0.12500000000E+03 0.  0.
         25    1    1    2    0    0 -0.66140876388E+02  0.60694658958E+02 -0.24116288817E+03  0.28608214866E+03  0.12500000000E+03 0.  0.
</event>
<event>
 5    0  0.5474724E-005  0.2445404E+03  0.7546771E-02  0.1116805E+00
         21   -1    0    0  502  501  0.00000000000E+00  0.00000000000E+00  0.27834705757E+03  0.27834705757E+03  0.00000000000E+00 0.  1.
         21   -1    0    0  501  502 -0.00000000000E+00 -0.00000000000E+00 -0.21483977495E+03  0.21483977495E+03  0.00000000000E+00 0.  1.
         25    1    1    2    0    0  0.45889620111E+02  0.40758494925E+02  0.39670746945E+02  0.14479599548E+03  0.12500000000E+03 0.  0.
         25    1    1    2    0    0 -0.53848520685E+02 -0.55288106385E+02  0.12010123226E+03  0.18975179545E+03  0.12500000000E+03 0.  0.
         25    1    1    2    0    0  0.79589005745E+01  0.14529611460E+02 -0.96264696586E+02  0.15863904159E+03  0.12500000000E+03 0.  0.
</event>
<event>
 5    0  0.5474724E-005  0.2263068E+03  0.7546771E-02  0.1129267E+00
         21   -1    0    0  502  501  0.00000000000E+00  0.00000000000E+00  0.91614287395E+03  0.91614287395E+03  0.00000000000E+00 0. -1.
         21   -1    0    0  501  502 -0.00000000000E+00 -0.00000000000E+00 -0.55902575694E+02  0.55902575694E+02  0.00000000000E+00 0. -1.
         25    1    1    2    0    0 -0.52820758685E+02 -0.37216463444E+02  0.29893976012E+03  0.33040138904E+03  0.12500000000E+03 0.  0.
         25    1    1    2    0    0 -0.12746503161E+02  0.34164404088E+01  0.10815475967E+03  0.16582098012E+03  0.12500000000E+03 0.  0.
         25    1    1    2    0    0  0.65567261846E+02  0.33800023035E+02  0.45314577846E+03  0.47582308048E+03  0.12500000000E+03 0.  0.
</event>
<event>
 5    0  0.5474724E-005  0.3394317E+03  0.7546771E-02  0.1067038E+00
         21   -1    0    0  502  501  0.00000000000E+00  0.00000000000E+00  0.27511340012E+03  0.27511340012E+03  0.00000000000E+00 0. -1.
         21   -1    0    0  501  502 -0.00000000000E+00 -0.00000000000E+00 -0.41878689463E+03  0.41878689463E+03  0.00000000000E+00 0. -1.
         25    1    1    2    0    0 -0.79650545952E+02  0.43888800641E+02  0.85623424647E+02  0.17671108381E+03  0.12500000000E+03 0.  0.
         25    1    1    2    0    0 -0.87023302281E+02  0.67630301621E+02 -0.22607465735E+03  0.28085879643E+03  0.12500000000E+03 0.  0.
         25    1    1    2    0    0  0.16667384823E+03 -0.11151910226E+03 -0.32222618066E+01  0.23633041452E+03  0.12500000000E+03 0.  0.
</event>
<event>
 5    0  0.5474724E-005  0.2568080E+03  0.7546771E-02  0.1109076E+00
         21   -1    0    0  502  501  0.00000000000E+00  0.00000000000E+00  0.17080067827E+04  0.17080067827E+04  0.00000000000E+00 0. -1.
         21   -1    0    0  501  502 -0.00000000000E+00 -0.00000000000E+00 -0.38612460092E+02  0.38612460092E+02  0.00000000000E+00 0. -1.
         25    1    1    2    0    0 -0.82115286491E+02 -0.69351870815E+02  0.52188433536E+03  0.54730326306E+03  0.12500000000E+03 0.  0.
         25    1    1    2    0    0 -0.45618434745E+02 -0.36000402672E+02  0.37877359581E+03  0.40307754523E+03  0.12500000000E+03 0.  0.
         25    1    1    2    0    0  0.12773372124E+03  0.10535227349E+03  0.76873639147E+03  0.79623843454E+03  0.12500000000E+03 0.  0.
</event>
<event>
 5    0  0.5474724E-005  0.4297248E+03  0.7546771E-02  0.1033947E+00
         21   -1    0    0  502  501  0.00000000000E+00  0.00000000000E+00  0.83241093773E+02  0.83241093773E+02  0.00000000000E+00 0. -1.
         21   -1    0    0  501  502 -0.00000000000E+00 -0.00000000000E+00 -0.22184162676E+04  0.22184162676E+04  0.00000000000E+00 0. -1.
         25    1    1    2    0    0 -0.44586749100E+02 -0.14989824701E+02 -0.12261169665E+04  0.12333695669E+04  0.12500000000E+03 0.  0.
         25    1    1    2    0    0 -0.81291754602E+02  0.20339786541E+03 -0.22898948831E+03  0.34064677715E+03  0.12500000000E+03 0.  0.
         25    1    1    2    0    0  0.12587850370E+03 -0.18840804071E+03 -0.68006871899E+03  0.72764101730E+03  0.12500000000E+03 0.  0.
</event>
<event>
 5    0  0.5474724E-005  0.3019476E+03  0.7546771E-02  0.1084271E+00
         21   -1    0    0  502  501  0.00000000000E+00  0.00000000000E+00  0.52260179264E+03  0.52260179264E+03  0.00000000000E+00 0. -1.
         21   -1    0    0  501  502 -0.00000000000E+00 -0.00000000000E+00 -0.17445853725E+03  0.17445853725E+03  0.00000000000E+00 0. -1.
         25    1    1    2    0    0  0.99722860801E+02 -0.25399087470E+02  0.35908289297E+03  0.39389755855E+03  0.12500000000E+03 0.  0.
         25    1    1    2    0    0 -0.58738032332E+02 -0.16726415967E+02 -0.66600448019E+02  0.15424185265E+03  0.12500000000E+03 0.  0.
         25    1    1    2    0    0 -0.40984828469E+02  0.42125503437E+02  0.55660810433E+02  0.14892091869E+03  0.12500000000E+03 0.  0.
</event>
<event>
 5    0  0.5474724E-005  0.2739230E+03  0.7546771E-02  0.1099055E+00
         21   -1    0    0  502  501  0.00000000000E+00  0.00000000000E+00  0.13140810005E+04  0.13140810005E+04  0.00000000000E+00 0.  1.
         21   -1    0    0  501  502 -0.00000000000E+00 -0.00000000000E+00 -0.57099834131E+02  0.57099834131E+02  0.00000000000E+00 0.  1.
         25    1    1    2    0    0  0.46342036943E+02  0.17627787618E+02  0.16601656271E+03  0.21364648927E+03  0.12500000000E+03 0.  0.
         25    1    1    2    0    0  0.86811005393E+02 -0.71901159692E+02  0.73241655373E+03  0.75150844014E+03  0.12500000000E+03 0.  0.
         25    1    1    2    0    0 -0.13315304234E+03  0.54273372074E+02  0.35854804992E+03  0.40602590521E+03  0.12500000000E+03 0.  0.
</event>
<event>
 5    0  0.5474724E-005  0.2894889E+03  0.7546771E-02  0.1090616E+00
         21   -1    0    0  502  501  0.00000000000E+00  0.00000000000E+00  0.10803329098E+03  0.10803329098E+03  0.00000000000E+00 0.  1.
         21   -1    0    0  501  502 -0.00000000000E+00 -0.00000000000E+00 -0.77572235425E+03  0.77572235425E+03  0.00000000000E+00 0.  1.
         25    1    1    2    0    0 -0.86693157432E+02  0.66934753840E+02 -0.14023045441E+03  0.21745239746E+03  0.12500000000E+03 0.  0.
         25    1    1    2    0    0  0.10810126349E+03 -0.14124532738E+02 -0.55724559183E+02  0.17497317534E+03  0.12500000000E+03 0.  0.
         25    1    1    2    0    0 -0.21408106055E+02 -0.52810221102E+02 -0.47173404967E+03  0.49133007244E+03  0.12500000000E+03 0.  0.
</event>
<event>
 5    0  0.5474724E-005  0.2467610E+03  0.7546771E-02  0.1115369E+00
         21   -1    0    0  502  501  0.00000000000E+00  0.00000000000E+00  0.23840620367E+03  0.23840620367E+03  0.00000000000E+00 0.  1.
         21   -1    0    0  501  502 -0.00000000000E+00 -0.00000000000E+00 -0.25540865610E+03  0.25540865610E+03  0.00000000000E+00 0.  1.
         25    1    1    2    0    0  0.54081710001E+02  0.58428356523E+02  0.50291512531E+02  0.15650220585E+03  0.12500000000E+03 0.  0.
         25    1    1    2    0    0  0.50752028367E+02 -0.12388310424E+02 -0.95113087087E+02  0.16553168263E+03  0.12500000000E+03 0.  0.
         25    1    1    2    0    0 -0.10483373837E+03 -0.46040046099E+02  0.27819122127E+02  0.17178097130E+03  0.12500000000E+03 0.  0.
</event>
<event>
 5    0  0.5765552E-005  0.4001007E+03  0.7546771E-02  0.1043745E+00
         21   -1    0    0  502  501  0.00000000000E+00  0.00000000000E+00  0.78559806549E+03  0.78559806549E+03  0.00000000000E+00 0.  1.
         21   -1    0    0  501  502 -0.00000000000E+00 -0.00000000000E+00 -0.20376901664E+03  0.20376901664E+03  0.00000000000E+00 0.  1.
         25    1    1    2    0    0  0.10198625728E+03 -0.20540155164E+03  0.28141116916E+03  0.38393780775E+03  0.12500000000E+03 0.  0.
         25    1    1    2    0    0  0.77690024811E+02  0.14231941763E+03  0.31664027000E+03  0.37706314746E+03  0.12500000000E+03 0.  0.
         25    1    1    2    0    0 -0.17967628209E+03  0.63082134016E+02 -0.16222390315E+02  0.22836612692E+03  0.12500000000E+03 0.  0.
</event>
<event>
 5    0  0.5474724E-005  0.3126625E+03  0.7546771E-02  0.1079077E+00
         21   -1    0    0  502  501  0.00000000000E+00  0.00000000000E+00  0.20943009841E+03  0.20943009841E+03  0.00000000000E+00 0. -1.
         21   -1    0    0  501  502 -0.00000000000E+00 -0.00000000000E+00 -0.46678015024E+03  0.46678015024E+03  0.00000000000E+00 0. -1.
         25    1    1    2    0    0  0.76681521533E+02 -0.58458550797E+02 -0.25461268682E+03  0.29958317409E+03  0.12500000000E+03 0.  0.
         25    1    1    2    0    0 -0.10455103315E+03 -0.75865708489E+02  0.44369793395E+02  0.18514913671E+03  0.12500000000E+03 0.  0.
         25    1    1    2    0    0  0.27869511621E+02  0.13432425929E+03 -0.47107158405E+02  0.19147793785E+03  0.12500000000E+03 0.  0.
</event>
<event>
 5    0  0.5474724E-005  0.3263492E+03  0.7546771E-02  0.1072764E+00
         21   -1    0    0  502  501  0.00000000000E+00  0.00000000000E+00  0.14195957483E+03  0.14195957483E+03  0.00000000000E+00 0. -1.
         21   -1    0    0  501  502 -0.00000000000E+00 -0.00000000000E+00 -0.75024043296E+03  0.75024043296E+03  0.00000000000E+00 0. -1.
         25    1    1    2    0    0 -0.13925821202E+03 -0.13001228677E+02 -0.87718163133E+02  0.20707814396E+03  0.12500000000E+03 0.  0.
         25    1    1    2    0    0 -0.13370005962E+02  0.11602250075E+03 -0.39294370723E+03  0.42856707152E+03  0.12500000000E+03 0.  0.
         25    1    1    2    0    0  0.15262821798E+03 -0.10302127208E+03 -0.12761898777E+03  0.25655479232E+03  0.12500000000E+03 0.  0.
</event>
<event>
 5    0  0.5474724E-005  0.5145722E+03  0.7546771E-02  0.1010044E+00
         21   -1    0    0  502  501  0.00000000000E+00  0.00000000000E+00  0.12497882737E+04  0.12497882737E+04  0.00000000000E+00 0.  1.
         21   -1    0    0  501  502 -0.00000000000E+00 -0.00000000000E+00 -0.21186352899E+03  0.21186352899E+03  0.00000000000E+00 0.  1.
         25    1    1    2    0    0  0.17830140702E+01 -0.15406746800E+02  0.45136222401E+03  0.46860794301E+03  0.12500000000E+03 0.  0.
         25    1    1    2    0    0 -0.30819657439E+03  0.22126667187E+03  0.38275779515E+03  0.55323828346E+03  0.12500000000E+03 0.  0.
         25    1    1    2    0    0  0.30641356032E+03 -0.20585992507E+03  0.20380472552E+03  0.43980557618E+03  0.12500000000E+03 0.  0.
</event>
<event>
 5    0  0.5474724E-005  0.3924463E+03  0.7546771E-02  0.1046427E+00
         21   -1    0    0  502  501  0.00000000000E+00  0.00000000000E+00  0.33280303398E+03  0.33280303398E+03  0.00000000000E+00 0.  1.
         21   -1    0    0  501  502 -0.00000000000E+00 -0.00000000000E+00 -0.46277847911E+03  0.46277847911E+03  0.00000000000E+00 0.  1.
         25    1    1    2    0    0  0.14756964813E+03 -0.13606985823E+03  0.60982094651E+02  0.24420406064E+03  0.12500000000E+03 0.  0.
         25    1    1    2    0    0 -0.48649976396E+02 -0.11642293639E+03  0.29718736626E+02  0.18008143610E+03  0.12500000000E+03 0.  0.
         25    1    1    2    0    0 -0.98919671731E+02  0.25249279461E+03 -0.22067627641E+03  0.37129601635E+03  0.12500000000E+03 0.  0.
</event>
<event>
 5    0  0.5474724E-005  0.2772715E+03  0.7546771E-02  0.1097189E+00
         21   -1    0    0  502  501  0.00000000000E+00  0.00000000000E+00  0.26943125144E+03  0.26943125144E+03  0.00000000000E+00 0. -1.
         21   -1    0    0  501  502 -0.00000000000E+00 -0.00000000000E+00 -0.28533985334E+03  0.28533985334E+03  0.00000000000E+00 0. -1.
         25    1    1    2    0    0  0.12368224923E+03  0.61840869729E+02 -0.92406845782E+02  0.20805195767E+03  0.12500000000E+03 0.  0.
         25    1    1    2    0    0 -0.15645744827E+01  0.43488116309E+02  0.47532910669E+02  0.14063442591E+03  0.12500000000E+03 0.  0.
         25    1    1    2    0    0 -0.12211767475E+03 -0.10532898604E+03  0.28965333221E+02  0.20608472120E+03  0.12500000000E+03 0.  0.
</event>
<event>
 5    0  0.5474724E-005  0.2743104E+03  0.7546771E-02  0.1098838E+00
         21   -1    0    0  502  501  0.00000000000E+00  0.00000000000E+00  0.10551173553E+03  0.10551173553E+03  0.00000000000E+00 0.  1.
         21   -1    0    0  501  502 -0.00000000000E+00 -0.00000000000E+00 -0.71315474645E+03  0.71315474645E+03  0.00000000000E+00 0.  1.
         25    1    1    2    0    0 -0.96630396602E+01 -0.84572925328E+02 -0.19483116412E+03  0.24663766246E+03  0.12500000000E+03 0.  0.
         25    1    1    2    0    0  0.32249847185E+02 -0.17736094966E+02 -0.23261375903E+01  0.13032663820E+03  0.12500000000E+03 0.  0.
         25    1    1    2    0    0 -0.22586807525E+02  0.10230902029E+03 -0.41048570922E+03  0.44170218131E+03  0.12500000000E+03 0.  0.
</event>
<event>
 5    0  0.5474724E-005  0.2612792E+03  0.7546771E-02  0.1106377E+00
         21   -1    0    0  502  501  0.00000000000E+00  0.00000000000E+00  0.28239117171E+03  0.28239117171E+03  0.00000000000E+00 0. -1.
         21   -1    0    0  501  502 -0.00000000000E+00 -0.00000000000E+00 -0.24174561576E+03  0.24174561576E+03  0.00000000000E+00 0. -1.
         25    1    1    2    0    0 -0.31577197928E+02 -0.13342183487E+03  0.13712262591E+02  0.18604174691E+03  0.12500000000E+03 0.  0.
         25    1    1    2    0    0  0.87383389058E+02  0.12461803046E+03 -0.59170143125E+01  0.19704192766E+03  0.12500000000E+03 0.  0.
         25    1    1    2    0    0 -0.55806191131E+02  0.88038044140E+01  0.32850307673E+02  0.14105311289E+03  0.12500000000E+03 0.  0.
</event>
<event>
 5    0  0.5474724E-005  0.3574644E+03  0.7546771E-02  0.1059592E+00
         21   -1    0    0  502  501  0.00000000000E+00  0.00000000000E+00  0.51975629422E+02  0.51975629422E+02  0.00000000000E+00 0.  1.
         21   -1    0    0  501  502 -0.00000000000E+00 -0.00000000000E+00 -0.24584756289E+04  0.24584756289E+04  0.00000000000E+00 0.  1.
         25    1    1    2    0    0 -0.35007772529E+02  0.16120617439E+03 -0.82647639797E+03  0.85199836338E+03  0.12500000000E+03 0.  0.
         25    1    1    2    0    0  0.31303772424E+02 -0.10776240077E+02 -0.13513463503E+04  0.13575190651E+04  0.12500000000E+03 0.  0.
         25    1    1    2    0    0  0.37040001057E+01 -0.15042993431E+03 -0.22867725122E+03  0.30093382990E+03  0.12500000000E+03 0.  0.
</event>
<event>
 5    0  0.5474724E-005  0.2487135E+03  0.7546771E-02  0.1114121E+00
         21   -1    0    0  502  501  0.00000000000E+00  0.00000000000E+00  0.47229549426E+03  0.47229549426E+03  0.00000000000E+00 0. -1.
         21   -1    0    0  501  502 -0.00000000000E+00 -0.00000000000E+00 -0.13097398592E+03  0.13097398592E+03  0.00000000000E+00 0. -1.
         25    1    1    2    0    0 -0.12156631394E+02  0.92324631330E+01  0.10536009132E+03  0.16419126318E+03  0.12500000000E+03 0.  0.
         25    1    1    2    0    0 -0.24750959773E+02 -0.13746783307E+03  0.11959734918E+03  0.22234779304E+03  0.12500000000E+03 0.  0.
         25    1    1    2    0    0  0.36907591167E+02  0.12823536993E+03  0.11636406783E+03  0.21673042396E+03  0.12500000000E+03 0.  0.
</event>
<event>
 5    0  0.5474724E-005  0.2308980E+03  0.7546771E-02  0.1126009E+00
         21   -1    0    0  502  501  0.00000000000E+00  0.00000000000E+00  0.24078745588E+03  0.24078745588E+03  0.00000000000E+00 0. -1.
         21   -1    0    0  501  502 -0.00000000000E+00 -0.00000000000E+00 -0.22141470110E+03  0.22141470110E+03  0.00000000000E+00 0. -1.
         25    1    1    2    0    0 -0.38409244707E+01 -0.65637680212E+02  0.33889469652E+02  0.14524652807E+03  0.12500000000E+03 0.  0.
         25    1    1    2    0    0  0.39033835414E+02 -0.77760674847E+01 -0.80420074897E+02  0.15387168674E+03  0.12500000000E+03 0.  0.
         25    1    1    2    0    0 -0.35192910944E+02  0.73413747697E+02  0.65903360020E+02  0.16308394217E+03  0.12500000000E+03 0.  0.
</event>
<event>
 5    0  0.5474724E-005  0.3258531E+03  0.7546771E-02  0.1072987E+00
         21   -1    0    0  502  501  0.00000000000E+00  0.00000000000E+00  0.19902337943E+03  0.19902337943E+03  0.00000000000E+00 0.  1.
         21   -1    0    0  501  502 -0.00000000000E+00 -0.00000000000E+00 -0.53350651184E+03  0.53350651184E+03  0.00000000000E+00 0.  1.
         25    1    1    2    0    0 -0.78688180335E+02  0.91214009199E+02 -0.18183202684E+02  0.17454928834E+03  0.12500000000E+03 0.  0.
         25    1    1    2    0    0  0.13218840013E+03  0.44029998629E+02  0.10493853214E+01  0.18718577702E+03  0.12500000000E+03 0.  0.
         25    1    1    2    0    0 -0.53500219793E+02 -0.13524400783E+03 -0.31734931504E+03  0.37079482592E+03  0.12500000000E+03 0.  0.
</event>
<event>
 5    0  0.5474724E-005  0.2205560E+03  0.7546771E-02  0.1133469E+00
         21   -1    0    0  502  501  0.00000000000E+00  0.00000000000E+00  0.15294063276E+03  0.15294063276E+03  0.00000000000E+00 0. -1.
         21   -1    0    0  501  502 -0.00000000000E+00 -0.00000000000E+00 -0.31806423266E+03  0.31806423266E+03  0.00000000000E+00 0. -1.
         25    1    1    2    0    0  0.93466732096E+00 -0.10958065562E+01  0.24130773026E+02  0.12731601864E+03  0.12500000000E+03 0.  0.
         25    1    1    2    0    0  0.44278656605E+02  0.42154696028E+02 -0.52837296824E+02  0.14884353450E+03  0.12500000000E+03 0.  0.
         25    1    1    2    0    0 -0.45213323926E+02 -0.41058889471E+02 -0.13641707610E+03  0.19484531228E+03  0.12500000000E+03 0.  0.
</event>
<event>
 5    0  0.5474724E-005  0.2915004E+03  0.7546771E-02  0.1089568E+00
         21   -1    0    0  502  501  0.00000000000E+00  0.00000000000E+00  0.75722830319E+03  0.75722830319E+03  0.00000000000E+00 0. -1.
         21   -1    0    0  501  502 -0.00000000000E+00 -0.00000000000E+00 -0.11221516993E+03  0.11221516993E+03  0.00000000000E+00 0. -1.
         25    1    1    2    0    0 -0.83080009026E+02  0.10382638060E+03  0.30870509561E+03  0.35861684465E+03  0.12500000000E+03 0.  0.
         25    1    1    2    0    0  0.10905911206E+03 -0.16283054740E+03  0.14715068233E+03  0.27511088746E+03  0.12500000000E+03 0.  0.
         25    1    1    2    0    0 -0.25979103030E+02  0.59004166798E+02  0.18915735531E+03  0.23571574102E+03  0.12500000000E+03 0.  0.
</event>
<event>
 5    0  0.5474724E-005  0.3319526E+03  0.7546771E-02  0.1070276E+00
         21   -1    0    0  502  501  0.00000000000E+00  0.00000000000E+00  0.50446486929E+02  0.50446486929E+02  0.00000000000E+00 0.  1.
         21   -1    0    0  501  502 -0.00000000000E+00 -0.00000000000E+00 -0.21843450455E+04  0.21843450455E+04  0.00000000000E+00 0.  1.
         25    1    1    2    0    0 -0.11027182315E+03  0.18254982449E+02 -0.46831570358E+03  0.49743111843E+03  0.12500000000E+03 0.  0.
         25    1    1    2    0    0  0.12261116984E+03  0.18145810078E+03 -0.99613205497E+03  0.10275527297E+04  0.12500000000E+03 0.  0.
         25    1    1    2    0    0 -0.12339346693E+02 -0.19971308323E+03 -0.66945080005E+03  0.70980768436E+03  0.12500000000E+03 0.  0.
</event>
<event>
 5    0  0.5474724E-005  0.2572349E+03  0.7546771E-02  0.1108816E+00
         21   -1    0    0  502  501  0.00000000000E+00  0.00000000000E+00  0.32923717752E+03  0.32923717752E+03  0.00000000000E+00 0.  1.
         21   -1    0    0  501  502 -0.00000000000E+00 -0.00000000000E+00 -0.20097912075E+03  0.20097912075E+03  0.00000000000E+00 0.  1.
         25    1    1    2    0    0 -0.85064177087E+02 -0.11596862199E+03  0.10088383551E+02  0.19081774287E+03  0.12500000000E+03 0.  0.
         25    1    1    2    0    0  0.48240847757E+02  0.14223629643E+02  0.10988273197E+03  0.17386404407E+03  0.12500000000E+03 0.  0.
         25    1    1    2    0    0  0.36823329330E+02  0.10174499235E+03  0.82869412466E+01  0.16553451134E+03  0.12500000000E+03 0.  0.
</event>
<event>
 5    0  0.5474724E-005  0.4880505E+03  0.7546771E-02  0.1016946E+00
         21   -1    0    0  502  501  0.00000000000E+00  0.00000000000E+00  0.45296326829E+03  0.45296326829E+03  0.00000000000E+00 0. -1.
         21   -1    0    0  501  502 -0.00000000000E+00 -0.00000000000E+00 -0.52585560676E+03  0.52585560676E+03  0.00000000000E+00 0. -1.
         25    1    1    2    0    0 -0.80047326598E+02 -0.11149078535E+02  0.23160482547E+03  0.27531376941E+03  0.12500000000E+03 0.  0.
         25    1    1    2    0    0  0.32203470916E+03  0.72928778501E+02 -0.19658019180E+03  0.40409619207E+03  0.12500000000E+03 0.  0.
         25    1    1    2    0    0 -0.24198738256E+03 -0.61779699966E+02 -0.10791697215E+03  0.29940891357E+03  0.12500000000E+03 0.  0.
</event>
<event>
 5    0  0.5474724E-005  0.3163011E+03  0.7546771E-02  0.1077364E+00
         21   -1    0    0  502  501  0.00000000000E+00  0.00000000000E+00  0.72065295223E+03  0.72065295223E+03  0.00000000000E+00 0.  1.
         21   -1    0    0  501  502 -0.00000000000E+00 -0.00000000000E+00 -0.13882744922E+03  0.13882744922E+03  0.00000000000E+00 0.  1.
         25    1    1    2    0    0  0.64815981293E+00  0.10675569465E+03  0.46806845890E+03  0.49609503189E+03  0.12500000000E+03 0.  0.
         25    1    1    2    0    0  0.71695515353E+02 -0.12761300308E+03  0.99737749669E+02  0.21679009245E+03  0.12500000000E+03 0.  0.
         25    1    1    2    0    0 -0.72343675166E+02  0.20857308433E+02  0.14019294432E+02  0.14659527710E+03  0.12500000000E+03 0.  0.
</event>
<event>
 5    0  0.5474724E-005  0.3189869E+03  0.7546771E-02  0.1076116E+00
         21   -1    0    0  502  501  0.00000000000E+00  0.00000000000E+00  0.21065178612E+03  0.21065178612E+03  0.00000000000E+00 0. -1.
         21   -1    0    0  501  502 -0.00000000000E+00 -0.00000000000E+00 -0.48303730412E+03  0.48303730412E+03  0.00000000000E+00 0. -1.
         25    1    1    2    0    0 -0.10025178902E+03 -0.11813278008E+03  0.21311088555E+02  0.20021223096E+03  0.12500000000E+03 0.  0.
         25    1    1    2    0    0  0.12610164371E+02 -0.84066383024E+01 -0.26464340008E+03  0.29307135142E+03  0.12500000000E+03 0.  0.
         25    1    1    2    0    0  0.87641624646E+02  0.12653941838E+03 -0.29053206476E+02  0.20040550786E+03  0.12500000000E+03 0.  0.
</event>
<event>
 5    0  0.5474724E-005  0.2786928E+03  0.7546771E-02  0.1096405E+00
         21   -1    0    0  502  501  0.00000000000E+00  0.00000000000E+00  0.91367914980E+03  0.91367914980E+03  0.00000000000E+00 0.  1.
         21   -1    0    0  501  502 -0.00000000000E+00 -0.00000000000E+00 -0.85007584165E+02  0.85007584165E+02  0.00000000000E+00 0.  1.
         25    1    1    2    0    0  0.22741349886E+02 -0.45103515353E+02  0.10845246805E+03  0.17302726351E+03  0.12500000000E+03 0.  0.
         25    1    1    2    0    0 -0.12001852988E+03 -0.30927563053E+02  0.56305101124E+03  0.58992576053E+03  0.12500000000E+03 0.  0.
         25    1    1    2    0    0  0.97277179993E+02  0.76031078406E+02  0.15716808634E+03  0.23573370992E+03  0.12500000000E+03 0.  0.
</event>
<event>
 5    0  0.5474724E-005  0.4555864E+03  0.7546771E-02  0.1026069E+00
         21   -1    0    0  502  501  0.00000000000E+00  0.00000000000E+00  0.17109746743E+04  0.17109746743E+04  0.00000000000E+00 0.  1.
         21   -1    0    0  501  502 -0.00000000000E+00 -0.00000000000E+00 -0.12131039049E+03  0.12131039049E+03  0.00000000000E+00 0.  1.
         25    1    1    2    0    0 -0.31334211066E+02 -0.16018572227E+03  0.53639607477E+03  0.57444499078E+03  0.12500000000E+03 0.  0.
         25    1    1    2    0    0  0.57881359938E+02  0.14313254995E+03  0.19639779944E+01  0.19866060478E+03  0.12500000000E+03 0.  0.
         25    1    1    2    0    0 -0.26547148872E+02  0.17053172324E+02  0.10513042311E+04  0.10591794693E+04  0.12500000000E+03 0.  0.
</event>
<event>
 5    0  0.5474724E-005  0.2344390E+03  0.7546771E-02  0.1123554E+00
         21   -1    0    0  502  501  0.00000000000E+00  0.00000000000E+00  0.20808054103E+02  0.20808054103E+02  0.00000000000E+00 0.  1.
         21   -1    0    0  501  502 -0.00000000000E+00 -0.00000000000E+00 -0.26413647646E+04  0.26413647646E+04  0.00000000000E+00 0.  1.
         25    1    1    2    0    0  0.28542894262E+02  0.30554802021E+02 -0.88392837830E+03  0.89370166761E+03  0.12500000000E+03 0.  0.
         25    1    1    2    0    0 -0.10527587240E+03 -0.60854086953E+00 -0.12097538419E+04  0.12207426992E+04  0.12500000000E+03 0.  0.
         25    1    1    2    0    0  0.76732978142E+02 -0.29946261151E+02 -0.52687449032E+03  0.54772845192E+03  0.12500000000E+03 0.  0.
</event>
<event>
 5    0  0.5474724E-005  0.3008346E+03  0.7546771E-02  0.1084824E+00
         21   -1    0    0  502  501  0.00000000000E+00  0.00000000000E+00  0.28777008647E+03  0.28777008647E+03  0.00000000000E+00 0.  1.
         21   -1    0    0  501  502 -0.00000000000E+00 -0.00000000000E+00 -0.31449219982E+03  0.31449219982E+03  0.00000000000E+00 0.  1.
         25    1    1    2    0    0 -0.96459831475E+02  0.13576182144E+03  0.13287457219E+03  0.24701502623E+03  0.12500000000E+03 0.  0.
         25    1    1    2    0    0  0.96186255708E+02 -0.66137412460E+02 -0.61429378309E+02  0.18172650229E+03  0.12500000000E+03 0.  0.
         25    1    1    2    0    0  0.27357576662E+00 -0.69624408983E+02 -0.98167307231E+02  0.17352075778E+03  0.12500000000E+03 0.  0.
</event>
<event>
 5    0  0.5474724E-005  0.2784002E+03  0.7546771E-02  0.1096566E+00
         21   -1    0    0  502  501  0.00000000000E+00  0.00000000000E+00  0.75330288865E+02  0.75330288865E+02  0.00000000000E+00 0. -1.
         21   -1    0    0  501  502 -0.00000000000E+00 -0.00000000000E+00 -0.10288910051E+04  0.10288910051E+04  0.00000000000E+00 0. -1.
         25    1    1    2    0    0 -0.18043786864E+03 -0.14923091092E+02 -0.38433357923E+03  0.44285192018E+03  0.12500000000E+03 0.  0.
         25    1    1    2    0    0  0.12807543335E+02 -0.44562321180E+01 -0.18894925092E+03  0.22695971139E+03  0.12500000000E+03 0.  0.
         25    1    1    2    0    0  0.16763032530E+03  0.19379323210E+02 -0.38027788604E+03  0.43440966235E+03  0.12500000000E+03 0.  0.
</event>
<event>
 5    0  0.5474724E-005  0.2518965E+03  0.7546771E-02  0.1112112E+00
         21   -1    0    0  502  501  0.00000000000E+00  0.00000000000E+00  0.23065840642E+03  0.23065840642E+03  0.00000000000E+00 0. -1.
         21   -1    0    0  501  502 -0.00000000000E+00 -0.00000000000E+00 -0.27509009604E+03  0.27509009604E+03  0.00000000000E+00 0. -1.
         25    1    1    2    0    0 -0.11453867409E+02 -0.72066972610E+02  0.95842970629E+02  0.17359641309E+03  0.12500000000E+03 0.  0.
         25    1    1    2    0    0  0.52950299505E+02  0.83865190836E+02 -0.11704265163E+03  0.19789160354E+03  0.12500000000E+03 0.  0.
         25    1    1    2    0    0 -0.41496432095E+02 -0.11798218226E+02 -0.23232008618E+02  0.13426048583E+03  0.12500000000E+03 0.  0.
</event>
<event>
 5    0  0.5474724E-005  0.2480115E+03  0.7546771E-02  0.1114568E+00
         21   -1    0    0  502  501  0.00000000000E+00  0.00000000000E+00  0.99715019660E+03  0.99715019660E+03  0.00000000000E+00 0.  1.
         21   -1    0    0  501  502 -0.00000000000E+00 -0.00000000000E+00 -0.61685512107E+02  0.61685512107E+02  0.00000000000E+00 0.  1.
         25    1    1    2    0    0  0.18833233689E+02 -0.58310887571E+01  0.23461596995E+03  0.26656771306E+03  0.12500000000E+03 0.  0.
         25    1    1    2    0    0 -0.11092587379E+03 -0.79448642138E+02  0.27957652419E+03  0.33526805558E+03  0.12500000000E+03 0.  0.
         25    1    1    2    0    0  0.92092640104E+02  0.85279730895E+02  0.42127219034E+03  0.45699994006E+03  0.12500000000E+03 0.  0.
</event>
<event>
 5    0  0.5474724E-005  0.2836917E+03  0.7546771E-02  0.1093690E+00
         21   -1    0    0  502  501  0.00000000000E+00  0.00000000000E+00  0.65583330969E+02  0.65583330969E+02  0.00000000000E+00 0. -1.
         21   -1    0    0  501  502 -0.00000000000E+00 -0.00000000000E+00 -0.12271559568E+04  0.12271559568E+04  0.00000000000E+00 0. -1.
         25    1    1    2    0    0  0.10177615953E+03 -0.21424299232E+02 -0.98317051930E+02  0.19002270903E+03  0.12500000000E+03 0.  0.
         25    1    1    2    0    0 -0.10516126647E+03  0.28633274104E+02 -0.65573660891E+03  0.67638321728E+03  0.12500000000E+03 0.  0.
         25    1    1    2    0    0  0.33851069430E+01 -0.72089748723E+01 -0.40751896501E+03  0.42633336148E+03  0.12500000000E+03 0.  0.
</event>
<event>
 5    0  0.5474724E-005  0.3926870E+03  0.7546771E-02  0.1046342E+00
         21   -1    0    0  502  501  0.00000000000E+00  0.00000000000E+00  0.40106943967E+03  0.40106943967E+03  0.00000000000E+00 0. -1.
         21   -1    0    0  501  502 -0.00000000000E+00 -0.00000000000E+00 -0.38447976552E+03  0.38447976552E+03  0.00000000000E+00 0. -1.
         25    1    1    2    0    0 -0.10985784167E+03 -0.19031533347E+02 -0.18460078654E+03  0.24926571170E+03  0.12500000000E+03 0.  0.
         25    1    1    2    0    0 -0.11932097624E+03  0.46608717573E+02 -0.35914125669E+02  0.18255051999E+03  0.12500000000E+03 0.  0.
         25    1    1    2    0    0  0.22917881791E+03 -0.27577184225E+02  0.23710458636E+03  0.35373297350E+03  0.12500000000E+03 0.  0.
</event>
<event>
 5    0  0.5474724E-005  0.4059785E+03  0.7546771E-02  0.1041729E+00
         21   -1    0    0  502  501  0.00000000000E+00  0.00000000000E+00  0.84566690600E+03  0.84566690600E+03  0.00000000000E+00 0.  1.
         21   -1    0    0  501  502 -0.00000000000E+00 -0.00000000000E+00 -0.19489767204E+03  0.19489767204E+03  0.00000000000E+00 0.  1.
         25    1    1    2    0    0 -0.11008159962E+03  0.10581225283E+03  0.28730828232E+03  0.34854732894E+03  0.12500000000E+03 0.  0.
         25    1    1    2    0    0  0.18320684187E+03 -0.12043827734E+03  0.45483146969E+03  0.52016035160E+03  0.12500000000E+03 0.  0.
         25    1    1    2    0    0 -0.73125242251E+02  0.14626024508E+02 -0.91370518056E+02  0.17185689750E+03  0.12500000000E+03 0.  0.
</event>
<event>
 5    0  0.5474724E-005  0.3793152E+03  0.7546771E-02  0.1051187E+00
         21   -1    0    0  502  501  0.00000000000E+00  0.00000000000E+00  0.15691699690E+03  0.15691699690E+03  0.00000000000E+00 0.  1.
         21   -1    0    0  501  502 -0.00000000000E+00 -0.00000000000E+00 -0.91691792231E+03  0.91691792231E+03  0.00000000000E+00 0.  1.
         25    1    1    2    0    0  0.11513326705E+03 -0.10736768898E+03 -0.10222989774E+03  0.22552038003E+03  0.12500000000E+03 0.  0.
         25    1    1    2    0    0  0.12911437507E+03  0.17521418400E+03 -0.27232694513E+03  0.37034780567E+03  0.12500000000E+03 0.  0.
         25    1    1    2    0    0 -0.24424764212E+03 -0.67846495012E+02 -0.38544408255E+03  0.47796673350E+03  0.12500000000E+03 0.  0.
</event>
<event>
 5    0  0.5474724E-005  0.5423117E+03  0.7546771E-02  0.1003289E+00
         21   -1    0    0  502  501  0.00000000000E+00  0.00000000000E+00  0.18057105854E+03  0.18057105854E+03  0.00000000000E+00 0. -1.
         21   -1    0    0  501  502 -0.00000000000E+00 -0.00000000000E+00 -0.16287325317E+04  0.16287325317E+04  0.00000000000E+00 0. -1.
         25    1    1    2    0    0  0.16060991119E+03  0.29556374911E+03 -0.14301117090E+03  0.38630385497E+03  0.12500000000E+03 0.  0.
         25    1    1    2    0    0  0.10979414671E+03 -0.16827831125E+03 -0.65879554679E+03  0.70000636937E+03  0.12500000000E+03 0.  0.
         25    1    1    2    0    0 -0.27040405790E+03 -0.12728543786E+03 -0.64635475546E+03  0.72299336590E+03  0.12500000000E+03 0.  0.
</event>
<event>
 5    0  0.5474724E-005  0.4477021E+03  0.7546771E-02  0.1028410E+00
         21   -1    0    0  502  501  0.00000000000E+00  0.00000000000E+00  0.20339856326E+03  0.20339856326E+03  0.00000000000E+00 0. -1.
         21   -1    0    0  501  502 -0.00000000000E+00 -0.00000000000E+00 -0.98544038807E+03  0.98544038807E+03  0.00000000000E+00 0. -1.
         25    1    1    2    0    0  0.18642567866E+03  0.78089044563E+01 -0.28541998449E+03  0.36318738993E+03  0.12500000000E+03 0.  0.
         25    1    1    2    0    0 -0.17012524155E+03  0.23776985187E+03 -0.44162636638E+03  0.54418374448E+03  0.12500000000E+03 0.  0.
         25    1    1    2    0    0 -0.16300437110E+02 -0.24557875633E+03 -0.54995473937E+02  0.28146781692E+03  0.12500000000E+03 0.  0.
</event>
<event>
 5    0  0.5474724E-005  0.3473118E+03  0.7546771E-02  0.1063724E+00
         21   -1    0    0  502  501  0.00000000000E+00  0.00000000000E+00  0.22125368854E+04  0.22125368854E+04  0.00000000000E+00 0. -1.
         21   -1    0    0  501  502 -0.00000000000E+00 -0.00000000000E+00 -0.54519072910E+02  0.54519072910E+02  0.00000000000E+00 0. -1.
         25    1    1    2    0    0  0.81741443028E+02 -0.60989233488E+02  0.64737421667E+03  0.66717293599E+03  0.12500000000E+03 0.  0.
         25    1    1    2    0    0  0.64522143846E+02 -0.15936913849E+03  0.42055736657E+03  0.47122725720E+03  0.12500000000E+03 0.  0.
         25    1    1    2    0    0 -0.14626358687E+03  0.22035837198E+03  0.10900862293E+04  0.11286557651E+04  0.12500000000E+03 0.  0.
</event>
<event>
 5    0  0.5474724E-005  0.2969168E+03  0.7546771E-02  0.1086792E+00
         21   -1    0    0  502  501  0.00000000000E+00  0.00000000000E+00  0.83332045061E+03  0.83332045061E+03  0.00000000000E+00 0.  1.
         21   -1    0    0  501  502 -0.00000000000E+00 -0.00000000000E+00 -0.10579315931E+03  0.10579315931E+03  0.00000000000E+00 0.  1.
         25    1    1    2    0    0 -0.15208018468E+03  0.22092868910E+01  0.30962780610E+03  0.36691639624E+03  0.12500000000E+03 0.  0.
         25    1    1    2    0    0 -0.19212437815E+02 -0.75142344071E+02  0.82273062758E+02  0.16855072380E+03  0.12500000000E+03 0.  0.
         25    1    1    2    0    0  0.17129262249E+03  0.72933057180E+02  0.33562642243E+03  0.40364648987E+03  0.12500000000E+03 0.  0.
</event>
<event>
 5    0  0.5474724E-005  0.4848543E+03  0.7546771E-02  0.1017810E+00
         21   -1    0    0  502  501  0.00000000000E+00  0.00000000000E+00  0.11276929128E+04  0.11276929128E+04  0.00000000000E+00 0. -1.
         21   -1    0    0  501  502 -0.00000000000E+00 -0.00000000000E+00 -0.20846431570E+03  0.20846431570E+03  0.00000000000E+00 0. -1.
         25    1    1    2    0    0 -0.26894283280E+03 -0.11757525178E+02  0.84017064009E+02  0.30846775156E+03  0.12500000000E+03 0.  0.
         25    1    1    2    0    0 -0.69371400269E+02 -0.30423290805E+02  0.54081447369E+03  0.56021715678E+03  0.12500000000E+03 0.  0.
         25    1    1    2    0    0  0.33831423306E+03  0.42180815984E+02  0.29439705940E+03  0.46747232016E+03  0.12500000000E+03 0.  0.
</event>
<event>
 5    0  0.5474724E-005  0.2063616E+03  0.7546771E-02  0.1144480E+00
         21   -1    0    0  502  501  0.00000000000E+00  0.00000000000E+00  0.12336347305E+02  0.12336347305E+02  0.00000000000E+00 0. -1.
         21   -1    0    0  501  502 -0.00000000000E+00 -0.00000000000E+00 -0.34520038776E+04  0.34520038776E+04  0.00000000000E+00 0. -1.
         25    1    1    2    0    0 -0.50636177044E+02  0.20260503054E+02 -0.94891644564E+03  0.95866674670E+03  0.12500000000E+03 0.  0.
         25    1    1    2    0    0  0.26117707725E+02 -0.20430827982E+02 -0.16806885594E+04  0.16856567227E+04  0.12500000000E+03 0.  0.
         25    1    1    2    0    0  0.24518469318E+02  0.17032492819E+00 -0.81006252526E+03  0.82001675543E+03  0.12500000000E+03 0.  0.
</event>
<event>
 5    0  0.5474724E-005  0.2947162E+03  0.7546771E-02  0.1087912E+00
         21   -1    0    0  502  501  0.00000000000E+00  0.00000000000E+00  0.80164963405E+03  0.80164963405E+03  0.00000000000E+00 0.  1.
         21   -1    0    0  501  502 -0.00000000000E+00 -0.00000000000E+00 -0.10834861071E+03  0.10834861071E+03  0.00000000000E+00 0.  1.
         25    1    1    2    0    0  0.16819958049E+02 -0.16093239005E+03  0.20472125109E+03  0.28934051877E+03  0.12500000000E+03 0.  0.
         25    1    1    2    0    0  0.73512058259E+02  0.15302035696E+03  0.37042582447E+03  0.42621537254E+03  0.12500000000E+03 0.  0.
         25    1    1    2    0    0 -0.90332016308E+02  0.79120330852E+01  0.11815394779E+03  0.19444235345E+03  0.12500000000E+03 0.  0.
</event>
<event>
 5    0  0.5474724E-005  0.5624539E+03  0.7546771E-02  0.9986517E-01
         21   -1    0    0  502  501  0.00000000000E+00  0.00000000000E+00  0.29273024721E+03  0.29273024721E+03  0.00000000000E+00 0. -1.
         21   -1    0    0  501  502 -0.00000000000E+00 -0.00000000000E+00 -0.10807028747E+04  0.10807028747E+04  0.00000000000E+00 0. -1.
         25    1    1    2    0    0  0.23961297457E+03 -0.22847082545E+03 -0.31576543899E+02  0.35529617756E+03  0.12500000000E+03 0.  0.
         25    1    1    2    0    0 -0.25720813743E+03  0.32083494425E+03 -0.74653402478E+03  0.86141113155E+03  0.12500000000E+03 0.  0.
         25    1    1    2    0    0  0.17595162858E+02 -0.92364118795E+02 -0.98620588189E+01  0.15672581281E+03  0.12500000000E+03 0.  0.
</event>
<event>
 5    0  0.5474724E-005  0.3090891E+03  0.7546771E-02  0.1080783E+00
         21   -1    0    0  502  501  0.00000000000E+00  0.00000000000E+00  0.68758327801E+03  0.68758327801E+03  0.00000000000E+00 0. -1.
         21   -1    0    0  501  502 -0.00000000000E+00 -0.00000000000E+00 -0.13894475295E+03  0.13894475295E+03  0.00000000000E+00 0. -1.
         25    1    1    2    0    0  0.54246020454E+02  0.10749785472E+03  0.30014621587E+03  0.34671482576E+03  0.12500000000E+03 0.  0.
         25    1    1    2    0    0  0.41550868482E+02 -0.82442457494E+02  0.27719647060E+03  0.31778312854E+03  0.12500000000E+03 0.  0.
         25    1    1    2    0    0 -0.95796888936E+02 -0.25055397225E+02 -0.28704161414E+02  0.16203007666E+03  0.12500000000E+03 0.  0.
</event>
<event>
 5    0  0.5474724E-005  0.2348921E+03  0.7546771E-02  0.1123243E+00
         21   -1    0    0  502  501  0.00000000000E+00  0.00000000000E+00  0.94027422606E+03  0.94027422606E+03  0.00000000000E+00 0. -1.
         21   -1    0    0  501  502 -0.00000000000E+00 -0.00000000000E+00 -0.58678943200E+02  0.58678943200E+02  0.00000000000E+00 0. -1.
         25    1    1    2    0    0 -0.54472346100E+02  0.50925353808E+02  0.21234045890E+03  0.25743756260E+03  0.12500000000E+03 0.  0.
         25    1    1    2    0    0  0.26445071086E+02  0.66778135582E+02  0.27216374429E+03  0.30798825445E+03  0.12500000000E+03 0.  0.
         25    1    1    2    0    0  0.28027275014E+02 -0.11770348939E+03  0.39709107967E+03  0.43352735220E+03  0.12500000000E+03 0.  0.
</event>
<event>
 5    0  0.5474724E-005  0.2701298E+03  0.7546771E-02  0.1101205E+00
         21   -1    0    0  502  501  0.00000000000E+00  0.00000000000E+00  0.70404183171E+03  0.70404183171E+03  0.00000000000E+00 0. -1.
         21   -1    0    0  501  502 -0.00000000000E+00 -0.00000000000E+00 -0.10364457588E+03  0.10364457588E+03  0.00000000000E+00 0. -1.
         25    1    1    2    0    0 -0.12350572610E+03  0.61764503221E+02  0.24228181463E+03  0.30560431270E+03  0.12500000000E+03 0.  0.
         25    1    1    2    0    0  0.12125115242E+03 -0.10988257223E+03  0.15070652793E+03  0.25517342966E+03  0.12500000000E+03 0.  0.
         25    1    1    2    0    0  0.22545736785E+01  0.48118069008E+02  0.20740891326E+03  0.24690866524E+03  0.12500000000E+03 0.  0.
</event>
<event>
 5    0  0.5474724E-005  0.5549063E+03  0.7546771E-02  0.1000365E+00
         21   -1    0    0  502  501  0.00000000000E+00  0.00000000000E+00  0.88519517542E+03  0.88519517542E+03  0.00000000000E+00 0. -1.
         21   -1    0    0  501  502 -0.00000000000E+00 -0.00000000000E+00 -0.34785665034E+03  0.34785665034E+03  0.00000000000E+00 0. -1.
         25    1    1    2    0    0  0.62554664847E+02  0.33427565134E+03  0.34015248883E+03  0.49697284919E+03  0.12500000000E+03 0.  0.
         25    1    1    2    0    0 -0.89188324724E+02 -0.34422737896E+03 -0.11869937530E+03  0.39517285760E+03  0.12500000000E+03 0.  0.
         25    1    1    2    0    0  0.26633659876E+02  0.99517276153E+01  0.31588541155E+03  0.34090611897E+03  0.12500000000E+03 0.  0.
</event>
<event>
 5    0  0.7547734E-005  0.3331715E+03  0.7546771E-02  0.1069742E+00
         21   -1    0    0  502  501  0.00000000000E+00  0.00000000000E+00  0.20297943633E+03  0.20297943633E+03  0.00000000000E+00 0.  1.
         21   -1    0    0  501  502 -0.00000000000E+00 -0.00000000000E+00 -0.54686958566E+03  0.54686958566E+03  0.00000000000E+00 0.  1.
         25    1    1    2    0    0  0.10059924643E+03  0.90124123442E+02  0.37545756743E+02  0.18782238913E+03  0.12500000000E+03 0.  0.
         25    1    1    2    0    0 -0.15296301539E+03 -0.16239380791E+03 -0.27268492435E+03  0.37383352030E+03  0.12500000000E+03 0.  0.
         25    1    1    2    0    0  0.52363768966E+02  0.72269684470E+02 -0.10875098172E+03  0.18819311257E+03  0.12500000000E+03 0.  0.
</event>
<event>
 5    0  0.5474724E-005  0.4496966E+03  0.7546771E-02  0.1027813E+00
         21   -1    0    0  502  501  0.00000000000E+00  0.00000000000E+00  0.19568479337E+03  0.19568479337E+03  0.00000000000E+00 0. -1.
         21   -1    0    0  501  502 -0.00000000000E+00 -0.00000000000E+00 -0.10334325547E+04  0.10334325547E+04  0.00000000000E+00 0. -1.
         25    1    1    2    0    0  0.70656902283E+02 -0.45043858749E+02 -0.34055008881E+03  0.37231802272E+03  0.12500000000E+03 0.  0.
         25    1    1    2    0    0 -0.11228394471E+03 -0.25035557007E+02 -0.63277399196E+03  0.65518118735E+03  0.12500000000E+03 0.  0.
         25    1    1    2    0    0  0.41627042424E+02  0.70079415756E+02  0.13557631945E+03  0.20161813800E+03  0.12500000000E+03 0.  0.
</event>
<event>
 5    0  0.5474724E-005  0.2725592E+03  0.7546771E-02  0.1099824E+00
         21   -1    0    0  502  501  0.00000000000E+00  0.00000000000E+00  0.46787356264E+03  0.46787356264E+03  0.00000000000E+00 0.  1.
         21   -1    0    0  501  502 -0.00000000000E+00 -0.00000000000E+00 -0.15877904188E+03  0.15877904188E+03  0.00000000000E+00 0.  1.
         25    1    1    2    0    0 -0.90655714260E+02 -0.10003643028E+03  0.18413856891E+03  0.26030320488E+03  0.12500000000E+03 0.  0.
         25    1    1    2    0    0  0.14941038824E+02 -0.42066287468E+02  0.11921445827E+02  0.13326638006E+03  0.12500000000E+03 0.  0.
         25    1    1    2    0    0  0.75714675436E+02  0.14210271775E+03  0.11303450602E+03  0.23308301959E+03  0.12500000000E+03 0.  0.
</event>
<event>
 5    0  0.5474724E-005  0.2530222E+03  0.7546771E-02  0.1111410E+00
         21   -1    0    0  502  501  0.00000000000E+00  0.00000000000E+00  0.49341707454E+02  0.49341707454E+02  0.00000000000E+00 0. -1.
         21   -1    0    0  501  502 -0.00000000000E+00 -0.00000000000E+00 -0.12974867461E+04  0.12974867461E+04  0.00000000000E+00 0. -1.
         25    1    1    2    0    0  0.92091994819E+02  0.47663981013E+02 -0.41829102819E+03  0.44871502634E+03  0.12500000000E+03 0.  0.
         25    1    1    2    0    0 -0.77207421289E+01 -0.11111052749E+03 -0.29977438127E+03  0.34335817865E+03  0.12500000000E+03 0.  0.
         25    1    1    2    0    0 -0.84371252690E+02  0.63446546473E+02 -0.53007962916E+03  0.55475524854E+03  0.12500000000E+03 0.  0.
</event>
<event>
 5    0  0.5474724E-005  0.3198197E+03  0.7546771E-02  0.1075732E+00
         21   -1    0    0  502  501  0.00000000000E+00  0.00000000000E+00  0.62499593330E+02  0.62499593330E+02  0.00000000000E+00 0.  1.
         21   -1    0    0  501  502 -0.00000000000E+00 -0.00000000000E+00 -0.16365653055E+04  0.16365653055E+04  0.00000000000E+00 0.  1.
         25    1    1    2    0    0 -0.43950169920E+02  0.19804916438E+03 -0.40578515212E+03  0.47057590103E+03  0.12500000000E+03 0.  0.
         25    1    1    2    0    0  0.13204541211E+02 -0.14664485742E+03 -0.95350333718E+03  0.97286827892E+03  0.12500000000E+03 0.  0.
         25    1    1    2    0    0  0.30745628709E+02 -0.51404306951E+02 -0.21477722286E+03  0.25562071887E+03  0.12500000000E+03 0.  0.
</event>
<event>
 5    0  0.5474724E-005  0.4708040E+03  0.7546771E-02  0.1021694E+00
         21   -1    0    0  502  501  0.00000000000E+00  0.00000000000E+00  0.90751226670E+02  0.90751226670E+02  0.00000000000E+00 0. -1.
         21   -1    0    0  501  502 -0.00000000000E+00 -0.00000000000E+00 -0.24424616216E+04  0.24424616216E+04  0.00000000000E+00 0. -1.
         25    1    1    2    0    0 -0.23333734137E+03 -0.18274652434E+03 -0.81330640060E+03  0.87460557298E+03  0.12500000000E+03 0.  0.
         25    1    1    2    0    0  0.22188687488E+03 -0.43925757085E+01 -0.27330149468E+03  0.37359307670E+03  0.12500000000E+03 0.  0.
         25    1    1    2    0    0  0.11450466491E+02  0.18713910005E+03 -0.12651024997E+04  0.12850141986E+04  0.12500000000E+03 0.  0.
</event>
<event>
 5    0  0.5474724E-005  0.4899177E+03  0.7546771E-02  0.1016445E+00
         21   -1    0    0  502  501  0.00000000000E+00  0.00000000000E+00  0.79052226026E+03  0.79052226026E+03  0.00000000000E+00 0. -1.
         21   -1    0    0  501  502 -0.00000000000E+00 -0.00000000000E+00 -0.30362122414E+03  0.30362122414E+03  0.00000000000E+00 0. -1.
         25    1    1    2    0    0 -0.55939283154E+02 -0.25801042300E+03  0.36649982236E+03  0.46866374040E+03  0.12500000000E+03 0.  0.
         25    1    1    2    0    0  0.13485960821E+03  0.25183627631E+03 -0.12741846283E+03  0.33685173098E+03  0.12500000000E+03 0.  0.
         25    1    1    2    0    0 -0.78920325060E+02  0.61741466955E+01  0.24781967659E+03  0.28862801302E+03  0.12500000000E+03 0.  0.
</event>
<event>
 5    0  0.5474724E-005  0.2412922E+03  0.7546771E-02  0.1118935E+00
         21   -1    0    0  502  501  0.00000000000E+00  0.00000000000E+00  0.45229688234E+03  0.45229688234E+03  0.00000000000E+00 0.  1.
         21   -1    0    0  501  502 -0.00000000000E+00 -0.00000000000E+00 -0.12872500831E+03  0.12872500831E+03  0.00000000000E+00 0.  1.
         25    1    1    2    0    0 -0.29033449386E+01  0.73385295565E+02  0.85424955581E+02  0.16827434164E+03  0.12500000000E+03 0.  0.
         25    1    1    2    0    0  0.88038103175E+02  0.21837201114E+02  0.79166247276E+02  0.17355075820E+03  0.12500000000E+03 0.  0.
         25    1    1    2    0    0 -0.85134758236E+02 -0.95222496679E+02  0.15898067117E+03  0.23919679082E+03  0.12500000000E+03 0.  0.
</event>
<event>
 5    0  0.5474724E-005  0.2188390E+03  0.7546771E-02  0.1134752E+00
         21   -1    0    0  502  501  0.00000000000E+00  0.00000000000E+00  0.50735822045E+03  0.50735822045E+03  0.00000000000E+00 0. -1.
         21   -1    0    0  501  502 -0.00000000000E+00 -0.00000000000E+00 -0.94391863220E+02  0.94391863220E+02  0.00000000000E+00 0. -1.
         25    1    1    2    0    0  0.39580350330E+02 -0.65976727540E+02  0.63601569544E+02  0.15996778537E+03  0.12500000000E+03 0.  0.
         25    1    1    2    0    0 -0.52646962956E+02  0.40851239326E+02  0.19780009023E+03  0.24329077697E+03  0.12500000000E+03 0.  0.
         25    1    1    2    0    0  0.13066612625E+02  0.25125488214E+02  0.15156469745E+03  0.19849152132E+03  0.12500000000E+03 0.  0.
</event>
<event>
 5    0  0.5474724E-005  0.5091311E+03  0.7546771E-02  0.1011423E+00
         21   -1    0    0  502  501  0.00000000000E+00  0.00000000000E+00  0.32787850932E+03  0.32787850932E+03  0.00000000000E+00 0.  1.
         21   -1    0    0  501  502 -0.00000000000E+00 -0.00000000000E+00 -0.79058082993E+03  0.79058082993E+03  0.00000000000E+00 0.  1.
         25    1    1    2    0    0  0.14868647370E+03  0.25117287004E+02 -0.41944175264E+02  0.20030691303E+03  0.12500000000E+03 0.  0.
         25    1    1    2    0    0 -0.44644685168E+03 -0.11075117772E+03 -0.19540287874E+03  0.51515813083E+03  0.12500000000E+03 0.  0.
         25    1    1    2    0    0  0.29776037798E+03  0.85633890718E+02 -0.22535526660E+03  0.40299429539E+03  0.12500000000E+03 0.  0.
</event>
<event>
 5    0  0.5474724E-005  0.3660605E+03  0.7546771E-02  0.1056210E+00
         21   -1    0    0  502  501  0.00000000000E+00  0.00000000000E+00  0.11529229922E+04  0.11529229922E+04  0.00000000000E+00 0.  1.
         21   -1    0    0  501  502 -0.00000000000E+00 -0.00000000000E+00 -0.11622659989E+03  0.11622659989E+03  0.00000000000E+00 0.  1.
         25    1    1    2    0    0 -0.41244955353E+01  0.97257973195E+02  0.12132584678E+03  0.19955221349E+03  0.12500000000E+03 0.  0.
         25    1    1    2    0    0  0.15271857874E+03  0.47119393423E+02  0.74888381070E+03  0.77588347286E+03  0.12500000000E+03 0.  0.
         25    1    1    2    0    0 -0.14859408320E+03 -0.14437736662E+03  0.16648673486E+03  0.29371390577E+03  0.12500000000E+03 0.  0.
</event>
<event>
 5    0  0.5474724E-005  0.3259678E+03  0.7546771E-02  0.1072935E+00
         21   -1    0    0  502  501  0.00000000000E+00  0.00000000000E+00  0.74975020838E+03  0.74975020838E+03  0.00000000000E+00 0.  1.
         21   -1    0    0  501  502 -0.00000000000E+00 -0.00000000000E+00 -0.14172055786E+03  0.14172055786E+03  0.00000000000E+00 0.  1.
         25    1    1    2    0    0 -0.12303007067E+03 -0.13039986503E+03  0.13487950853E+03  0.25682290573E+03  0.12500000000E+03 0.  0.
         25    1    1    2    0    0  0.98360296544E+02  0.66264476181E+02  0.46022088124E+03  0.49142037836E+03  0.12500000000E+03 0.  0.
         25    1    1    2    0    0  0.24669774122E+02  0.64135388849E+02  0.12929260749E+02  0.14322748214E+03  0.12500000000E+03 0.  0.
</event>
<event>
 5    0  0.5474724E-005  0.4679130E+03  0.7546771E-02  0.1022511E+00
         21   -1    0    0  502  501  0.00000000000E+00  0.00000000000E+00  0.73232561451E+02  0.73232561451E+02  0.00000000000E+00 0. -1.
         21   -1    0    0  501  502 -0.00000000000E+00 -0.00000000000E+00 -0.29896886687E+04  0.29896886687E+04  0.00000000000E+00 0. -1.
         25    1    1    2    0    0 -0.26283780514E+02  0.11874191705E+03 -0.30947399679E+03  0.35523180414E+03  0.12500000000E+03 0.  0.
         25    1    1    2    0    0 -0.70301804588E+02 -0.12221491569E+03 -0.25205604962E+04  0.25275935283E+04  0.12500000000E+03 0.  0.
         25    1    1    2    0    0  0.96585585103E+02  0.34729986425E+01 -0.86421614314E+02  0.18009589776E+03  0.12500000000E+03 0.  0.
</event>
<event>
 5    0  0.5499317E-005  0.3270747E+03  0.7546771E-02  0.1072439E+00
         21   -1    0    0  502  501  0.00000000000E+00  0.00000000000E+00  0.84161585300E+02  0.84161585300E+02  0.00000000000E+00 0.  1.
         21   -1    0    0  501  502 -0.00000000000E+00 -0.00000000000E+00 -0.12711010247E+04  0.12711010247E+04  0.00000000000E+00 0.  1.
         25    1    1    2    0    0  0.58222454172E+01 -0.80591298723E+02 -0.84306630999E+03  0.85610435054E+03  0.12500000000E+03 0.  0.
         25    1    1    2    0    0  0.74531449361E+02 -0.37423510213E+02 -0.69511988524E+02  0.16556682219E+03  0.12500000000E+03 0.  0.
         25    1    1    2    0    0 -0.80353694778E+02  0.11801480894E+03 -0.27436114088E+03  0.33359143726E+03  0.12500000000E+03 0.  0.
</event>
<event>
 5    0  0.5474724E-005  0.2301768E+03  0.7546771E-02  0.1126515E+00
         21   -1    0    0  502  501  0.00000000000E+00  0.00000000000E+00  0.78111607954E+03  0.78111607954E+03  0.00000000000E+00 0. -1.
         21   -1    0    0  501  502 -0.00000000000E+00 -0.00000000000E+00 -0.67827777245E+02  0.67827777245E+02  0.00000000000E+00 0. -1.
         25    1    1    2    0    0  0.38133158441E+02 -0.81686933941E+01  0.97793409380E+02  0.16343015708E+03  0.12500000000E+03 0.  0.
         25    1    1    2    0    0 -0.53833624034E+02  0.78856578549E+02  0.31361890919E+03  0.35085358664E+03  0.12500000000E+03 0.  0.
         25    1    1    2    0    0  0.15700465593E+02 -0.70687885155E+02  0.30187598373E+03  0.33466011307E+03  0.12500000000E+03 0.  0.
</event>
<event>
 5    0  0.5474724E-005  0.4345837E+03  0.7546771E-02  0.1032422E+00
         21   -1    0    0  502  501  0.00000000000E+00  0.00000000000E+00  0.12563223758E+03  0.12563223758E+03  0.00000000000E+00 0. -1.
         21   -1    0    0  501  502 -0.00000000000E+00 -0.00000000000E+00 -0.15033003023E+04  0.15033003023E+04  0.00000000000E+00 0. -1.
         25    1    1    2    0    0 -0.17978219358E+03  0.71275641148E+02 -0.40938092038E+02  0.23388625767E+03  0.12500000000E+03 0.  0.
         25    1    1    2    0    0  0.20594470921E+03  0.19986781257E+02 -0.77860758357E+03  0.81527140504E+03  0.12500000000E+03 0.  0.
         25    1    1    2    0    0 -0.26162515638E+02 -0.91262422405E+02 -0.55812238915E+03  0.57977487721E+03  0.12500000000E+03 0.  0.
</event>
<event>
 5    0  0.5474724E-005  0.4064404E+03  0.7546771E-02  0.1041572E+00
         21   -1    0    0  502  501  0.00000000000E+00  0.00000000000E+00  0.35591406158E+03  0.35591406158E+03  0.00000000000E+00 0. -1.
         21   -1    0    0  501  502 -0.00000000000E+00 -0.00000000000E+00 -0.46413957495E+03  0.46413957495E+03  0.00000000000E+00 0. -1.
         25    1    1    2    0    0 -0.82336605722E+02 -0.21718606060E+03 -0.15177722757E+03  0.30431961549E+03  0.12500000000E+03 0.  0.
         25    1    1    2    0    0  0.10339627595E+03  0.19949780031E+03 -0.13937818393E+03  0.29247468329E+03  0.12500000000E+03 0.  0.
         25    1    1    2    0    0 -0.21059670233E+02  0.17688260292E+02  0.18292989814E+03  0.22325933775E+03  0.12500000000E+03 0.  0.
</event>
<event>
 5    0  0.5811518E-005  0.4110792E+03  0.7546771E-02  0.1040009E+00
         21   -1    0    0  502  501  0.00000000000E+00  0.00000000000E+00  0.97281816886E+03  0.97281816886E+03  0.00000000000E+00 0.  1.
         21   -1    0    0  501  502 -0.00000000000E+00 -0.00000000000E+00 -0.17370783233E+03  0.17370783233E+03  0.00000000000E+00 0.  1.
         25    1    1    2    0    0 -0.29059215904E+02 -0.18280769139E+03  0.40476269731E+03  0.46229961194E+03  0.12500000000E+03 0.  0.
         25    1    1    2    0    0  0.19619293365E+03  0.45424576581E+02  0.36140824348E+03  0.43219900257E+03  0.12500000000E+03 0.  0.
         25    1    1    2    0    0 -0.16713371775E+03  0.13738311481E+03  0.32939395740E+02  0.25202738668E+03  0.12500000000E+03 0.  0.
</event>
<event>
 5    0  0.5474724E-005  0.3077030E+03  0.7546771E-02  0.1081452E+00
         21   -1    0    0  502  501  0.00000000000E+00  0.00000000000E+00  0.52304771782E+03  0.52304771782E+03  0.00000000000E+00 0.  1.
         21   -1    0    0  501  502 -0.00000000000E+00 -0.00000000000E+00 -0.18101821171E+03  0.18101821171E+03  0.00000000000E+00 0.  1.
         25    1    1    2    0    0 -0.13366704352E+03 -0.89989337093E+02  0.18034734602E+03  0.27224093104E+03  0.12500000000E+03 0.  0.
         25    1    1    2    0    0 -0.50481834881E+02  0.46039546945E+02  0.14667233295E+03  0.20446473727E+03  0.12500000000E+03 0.  0.
         25    1    1    2    0    0  0.18414887840E+03  0.43949790148E+02  0.15009827144E+02  0.22736026122E+03  0.12500000000E+03 0.  0.
</event>
<event>
 5    0  0.5474724E-005  0.2675516E+03  0.7546771E-02  0.1102689E+00
         21   -1    0    0  502  501  0.00000000000E+00  0.00000000000E+00  0.97135607057E+03  0.97135607057E+03  0.00000000000E+00 0.  1.
         21   -1    0    0  501  502 -0.00000000000E+00 -0.00000000000E+00 -0.73694747986E+02  0.73694747986E+02  0.00000000000E+00 0.  1.
         25    1    1    2    0    0  0.49939701787E+01  0.28783884314E+02  0.28403587174E+03  0.31169669259E+03  0.12500000000E+03 0.  0.
         25    1    1    2    0    0 -0.11370611195E+03 -0.73744812412E+02  0.48498410352E+03  0.51884675765E+03  0.12500000000E+03 0.  0.
         25    1    1    2    0    0  0.10871214177E+03  0.44960928097E+02  0.12864134732E+03  0.21450736832E+03  0.12500000000E+03 0.  0.
</event>
<event>
 5    0  0.5474724E-005  0.4618656E+03  0.7546771E-02  0.1024242E+00
         21   -1    0    0  502  501  0.00000000000E+00  0.00000000000E+00  0.36806827549E+03  0.36806827549E+03  0.00000000000E+00 0. -1.
         21   -1    0    0  501  502 -0.00000000000E+00 -0.00000000000E+00 -0.57956586020E+03  0.57956586020E+03  0.00000000000E+00 0. -1.
         25    1    1    2    0    0  0.31320037603E+03 -0.19914097504E+03 -0.22098774268E+03  0.44968009285E+03  0.12500000000E+03 0.  0.
         25    1    1    2    0    0 -0.42282132105E+02  0.81313876872E+02 -0.65899287972E+02  0.16842636796E+03  0.12500000000E+03 0.  0.
         25    1    1    2    0    0 -0.27091824393E+03  0.11782709816E+03  0.75389445950E+02  0.32952767489E+03  0.12500000000E+03 0.  0.
</event>
<event>
 5    0  0.5474724E-005  0.3356143E+03  0.7546771E-02  0.1068679E+00
         21   -1    0    0  502  501  0.00000000000E+00  0.00000000000E+00  0.86357018036E+03  0.86357018036E+03  0.00000000000E+00 0.  1.
         21   -1    0    0  501  502 -0.00000000000E+00 -0.00000000000E+00 -0.13043174339E+03  0.13043174339E+03  0.00000000000E+00 0.  1.
         25    1    1    2    0    0 -0.86009742010E+02  0.87803204695E+02  0.86706278744E+02  0.19557621852E+03  0.12500000000E+03 0.  0.
         25    1    1    2    0    0  0.55898782161E+02 -0.23188565556E+03  0.31111009050E+03  0.41147310910E+03  0.12500000000E+03 0.  0.
         25    1    1    2    0    0  0.30110959849E+02  0.14408245086E+03  0.33532206772E+03  0.38695259613E+03  0.12500000000E+03 0.  0.
</event>
<event>
 5    0  0.5474724E-005  0.3573755E+03  0.7546771E-02  0.1059628E+00
         21   -1    0    0  502  501  0.00000000000E+00  0.00000000000E+00  0.21585996518E+03  0.21585996518E+03  0.00000000000E+00 0.  1.
         21   -1    0    0  501  502 -0.00000000000E+00 -0.00000000000E+00 -0.59166716725E+03  0.59166716725E+03  0.00000000000E+00 0.  1.
         25    1    1    2    0    0 -0.33239541188E+02  0.40044259990E+02 -0.86893322917E+02  0.16088461525E+03  0.12500000000E+03 0.  0.
         25    1    1    2    0    0 -0.11495935498E+02  0.19089345950E+03 -0.30347882554E+03  0.37986427440E+03  0.12500000000E+03 0.  0.
         25    1    1    2    0    0  0.44735476686E+02 -0.23093771949E+03  0.14564946395E+02  0.26677824278E+03  0.12500000000E+03 0.  0.
</event>
<event>
 5    0  0.5474724E-005  0.2605793E+03  0.7546771E-02  0.1106796E+00
         21   -1    0    0  502  501  0.00000000000E+00  0.00000000000E+00  0.91607893636E+03  0.91607893636E+03  0.00000000000E+00 0. -1.
         21   -1    0    0  501  502 -0.00000000000E+00 -0.00000000000E+00 -0.74121944556E+02  0.74121944556E+02  0.00000000000E+00 0. -1.
         25    1    1    2    0    0  0.44058309972E+01 -0.73757835861E+02  0.18525240409E+03  0.23537859486E+03  0.12500000000E+03 0.  0.
         25    1    1    2    0    0 -0.15060535138E+02 -0.41894294478E+02  0.51860282667E+03  0.53530911020E+03  0.12500000000E+03 0.  0.
         25    1    1    2    0    0  0.10654704141E+02  0.11565213034E+03  0.13810176104E+03  0.21951317586E+03  0.12500000000E+03 0.  0.
</event>
<event>
 5    0  0.5728242E-005  0.2834478E+03  0.7546771E-02  0.1093821E+00
         21   -1    0    0  502  501  0.00000000000E+00  0.00000000000E+00  0.11191292310E+03  0.11191292310E+03  0.00000000000E+00 0.  1.
         21   -1    0    0  501  502 -0.00000000000E+00 -0.00000000000E+00 -0.71790328263E+03  0.71790328263E+03  0.00000000000E+00 0.  1.
         25    1    1    2    0    0 -0.25097477235E+02  0.13833596652E+03 -0.96826513426E+02  0.21158236387E+03  0.12500000000E+03 0.  0.
         25    1    1    2    0    0  0.77887594830E+02 -0.63325223276E+02 -0.12286850214E+03  0.20198571769E+03  0.12500000000E+03 0.  0.
         25    1    1    2    0    0 -0.52790117595E+02 -0.75010743248E+02 -0.38629534396E+03  0.41624812418E+03  0.12500000000E+03 0.  0.
</event>
<event>
 5    0  0.5474724E-005  0.4253209E+03  0.7546771E-02  0.1035348E+00
         21   -1    0    0  502  501  0.00000000000E+00  0.00000000000E+00  0.43045175684E+03  0.43045175684E+03  0.00000000000E+00 0.  1.
         21   -1    0    0  501  502 -0.00000000000E+00 -0.00000000000E+00 -0.42025120769E+03  0.42025120769E+03  0.00000000000E+00 0.  1.
         25    1    1    2    0    0 -0.85743153049E+02  0.85851061928E+02 -0.39015436014E+02  0.17852029962E+03  0.12500000000E+03 0.  0.
         25    1    1    2    0    0 -0.22668828232E+03  0.59846406355E+02 -0.89144972314E+02  0.28025166508E+03  0.12500000000E+03 0.  0.
         25    1    1    2    0    0  0.31243143537E+03 -0.14569746828E+03  0.13836095748E+03  0.39193099982E+03  0.12500000000E+03 0.  0.
</event>
<event>
 5    0  0.5474724E-005  0.2385453E+03  0.7546771E-02  0.1120766E+00
         21   -1    0    0  502  501  0.00000000000E+00  0.00000000000E+00  0.72279203180E+02  0.72279203180E+02  0.00000000000E+00 0.  1.
         21   -1    0    0  501  502 -0.00000000000E+00 -0.00000000000E+00 -0.78727855304E+03  0.78727855304E+03  0.00000000000E+00 0.  1.
         25    1    1    2    0    0 -0.62931446166E+02  0.34188734367E+02 -0.41572188219E+03  0.43997604459E+03  0.12500000000E+03 0.  0.
         25    1    1    2    0    0  0.60694681100E+01  0.62577865817E+01 -0.55866572411E+02  0.13719355761E+03  0.12500000000E+03 0.  0.
         25    1    1    2    0    0  0.56861978056E+02 -0.40446520949E+02 -0.24341089525E+03  0.28238815402E+03  0.12500000000E+03 0.  0.
</event>
<event>
 5    0  0.5474724E-005  0.3836733E+03  0.7546771E-02  0.1049584E+00
         21   -1    0    0  502  501  0.00000000000E+00  0.00000000000E+00  0.25311192725E+04  0.25311192725E+04  0.00000000000E+00 0. -1.
         21   -1    0    0  501  502 -0.00000000000E+00 -0.00000000000E+00 -0.58158141284E+02  0.58158141284E+02  0.00000000000E+00 0. -1.
         25    1    1    2    0    0 -0.79730398658E+02 -0.86424113518E+02  0.33214868656E+03  0.37386336255E+03  0.12500000000E+03 0.  0.
         25    1    1    2    0    0 -0.12088477296E+03 -0.11318008545E+03  0.13567369276E+04  0.13725097270E+04  0.12500000000E+03 0.  0.
         25    1    1    2    0    0  0.20061517162E+03  0.19960419897E+03  0.78407551705E+03  0.84290432421E+03  0.12500000000E+03 0.  0.
</event>
<event>
 5    0  0.5474724E-005  0.3745787E+03  0.7546771E-02  0.1052956E+00
         21   -1    0    0  502  501  0.00000000000E+00  0.00000000000E+00  0.10744424994E+04  0.10744424994E+04  0.00000000000E+00 0.  1.
         21   -1    0    0  501  502 -0.00000000000E+00 -0.00000000000E+00 -0.13058790896E+03  0.13058790896E+03  0.00000000000E+00 0.  1.
         25    1    1    2    0    0 -0.19093662823E+02 -0.20007404962E+03  0.40348257257E+03  0.46777919969E+03  0.12500000000E+03 0.  0.
         25    1    1    2    0    0 -0.18165077767E+03  0.10657075081E+03  0.22964524163E+03  0.33573243358E+03  0.12500000000E+03 0.  0.
         25    1    1    2    0    0  0.20074444049E+03  0.93503298815E+02  0.31072677623E+03  0.40151877508E+03  0.12500000000E+03 0.  0.
</event>
<event>
 5    0  0.5474724E-005  0.3736801E+03  0.7546771E-02  0.1053295E+00
         21   -1    0    0  502  501  0.00000000000E+00  0.00000000000E+00  0.35332476496E+03  0.35332476496E+03  0.00000000000E+00 0. -1.
         21   -1    0    0  501  502 -0.00000000000E+00 -0.00000000000E+00 -0.39520819017E+03  0.39520819017E+03  0.00000000000E+00 0. -1.
         25    1    1    2    0    0  0.26121250293E+03 -0.19374745414E+01 -0.51763942466E+02  0.29417721059E+03  0.12500000000E+03 0.  0.
         25    1    1    2    0    0 -0.29091589572E+03  0.79212525654E+01  0.47667752180E+02  0.32029988952E+03  0.12500000000E+03 0.  0.
         25    1    1    2    0    0  0.29703392797E+02 -0.59837780239E+01 -0.37787234926E+02  0.13405585502E+03  0.12500000000E+03 0.  0.
</event>
<event>
 5    0  0.5474724E-005  0.2528686E+03  0.7546771E-02  0.1111505E+00
         21   -1    0    0  502  501  0.00000000000E+00  0.00000000000E+00  0.40496146505E+03  0.40496146505E+03  0.00000000000E+00 0.  1.
         21   -1    0    0  501  502 -0.00000000000E+00 -0.00000000000E+00 -0.15789786029E+03  0.15789786029E+03  0.00000000000E+00 0.  1.
         25    1    1    2    0    0  0.11676074672E+02  0.13236999273E+02  0.19369438378E+02  0.12771735987E+03  0.12500000000E+03 0.  0.
         25    1    1    2    0    0 -0.43218347961E+02 -0.13485751860E+03  0.15186709822E+03  0.24236953490E+03  0.12500000000E+03 0.  0.
         25    1    1    2    0    0  0.31542273289E+02  0.12162051933E+03  0.75827068153E+02  0.19277243058E+03  0.12500000000E+03 0.  0.
</event>
<event>
 5    0  0.5474724E-005  0.2902625E+03  0.7546771E-02  0.1090212E+00
         21   -1    0    0  502  501  0.00000000000E+00  0.00000000000E+00  0.12666550568E+04  0.12666550568E+04  0.00000000000E+00 0.  1.
         21   -1    0    0  501  502 -0.00000000000E+00 -0.00000000000E+00 -0.66515590251E+02  0.66515590251E+02  0.00000000000E+00 0.  1.
         25    1    1    2    0    0 -0.99300579854E+02  0.47392187274E+02  0.15843259702E+03  0.22985324094E+03  0.12500000000E+03 0.  0.
         25    1    1    2    0    0  0.70669032349E+02  0.29916416031E+02  0.83664191660E+03  0.84940202536E+03  0.12500000000E+03 0.  0.
         25    1    1    2    0    0  0.28631547506E+02 -0.77308603305E+02  0.20506495293E+03  0.25391538074E+03  0.12500000000E+03 0.  0.
</event>
<event>
 5    0  0.5474724E-005  0.4639310E+03  0.7546771E-02  0.1023647E+00
         21   -1    0    0  502  501  0.00000000000E+00  0.00000000000E+00  0.33394709439E+03  0.33394709439E+03  0.00000000000E+00 0. -1.
         21   -1    0    0  501  502 -0.00000000000E+00 -0.00000000000E+00 -0.64450925774E+03  0.64450925774E+03  0.00000000000E+00 0. -1.
         25    1    1    2    0    0 -0.18494096471E+03 -0.14737120188E+03 -0.72552830255E+02  0.27714679278E+03  0.12500000000E+03 0.  0.
         25    1    1    2    0    0 -0.11002203529E+03 -0.49572566192E+01 -0.29813252827E+03  0.34152222044E+03  0.12500000000E+03 0.  0.
         25    1    1    2    0    0  0.29496300000E+03  0.15232845849E+03  0.60123195174E+02  0.35978733891E+03  0.12500000000E+03 0.  0.
</event>
<event>
 5    0  0.5474724E-005  0.2955069E+03  0.7546771E-02  0.1087508E+00
         21   -1    0    0  502  501  0.00000000000E+00  0.00000000000E+00  0.77268163789E+03  0.77268163789E+03  0.00000000000E+00 0.  1.
         21   -1    0    0  501  502 -0.00000000000E+00 -0.00000000000E+00 -0.11301465891E+03  0.11301465891E+03  0.00000000000E+00 0.  1.
         25    1    1    2    0    0  0.17460019135E+03  0.22955004785E+02  0.12269619197E+03  0.24837776589E+03  0.12500000000E+03 0.  0.
         25    1    1    2    0    0 -0.87569092303E+02  0.63789491733E+02  0.22187938713E+03  0.27675423685E+03  0.12500000000E+03 0.  0.
         25    1    1    2    0    0 -0.87031099045E+02 -0.86744496518E+02  0.31509139987E+03  0.36056429406E+03  0.12500000000E+03 0.  0.
</event>
<event>
 5    0  0.5474724E-005  0.3120591E+03  0.7546771E-02  0.1079363E+00
         21   -1    0    0  502  501  0.00000000000E+00  0.00000000000E+00  0.14571354610E+03  0.14571354610E+03  0.00000000000E+00 0.  1.
         21   -1    0    0  501  502 -0.00000000000E+00 -0.00000000000E+00 -0.66830344425E+03  0.66830344425E+03  0.00000000000E+00 0.  1.
         25    1    1    2    0    0  0.90196726908E+02  0.47123351868E+02 -0.23755757974E+03  0.28707954216E+03  0.12500000000E+03 0.  0.
         25    1    1    2    0    0 -0.15334742094E+03 -0.29672325566E+02 -0.32376922995E+03  0.38058821931E+03  0.12500000000E+03 0.  0.
         25    1    1    2    0    0  0.63150694037E+02 -0.17451026301E+02  0.38736911548E+02  0.14634922888E+03  0.12500000000E+03 0.  0.
</event>
<event>
 5    0  0.5474724E-005  0.4616431E+03  0.7546771E-02  0.1024306E+00
         21   -1    0    0  502  501  0.00000000000E+00  0.00000000000E+00  0.38549832318E+03  0.38549832318E+03  0.00000000000E+00 0. -1.
         21   -1    0    0  501  502 -0.00000000000E+00 -0.00000000000E+00 -0.55282816535E+03  0.55282816535E+03  0.00000000000E+00 0. -1.
         25    1    1    2    0    0  0.36802713150E+03  0.12798716348E+03 -0.89314139811E+02  0.41883970574E+03  0.12500000000E+03 0.  0.
         25    1    1    2    0    0 -0.19044875880E+03  0.36772610664E+02 -0.87358246660E+02  0.24673754859E+03  0.12500000000E+03 0.  0.
         25    1    1    2    0    0 -0.17757837270E+03 -0.16475977414E+03  0.93425442990E+01  0.27274923421E+03  0.12500000000E+03 0.  0.
</event>
<event>
 5    0  0.5474724E-005  0.2597428E+03  0.7546771E-02  0.1107298E+00
         21   -1    0    0  502  501  0.00000000000E+00  0.00000000000E+00  0.45410203937E+03  0.45410203937E+03  0.00000000000E+00 0. -1.
         21   -1    0    0  501  502 -0.00000000000E+00 -0.00000000000E+00 -0.14857083616E+03  0.14857083616E+03  0.00000000000E+00 0. -1.
         25    1    1    2    0    0 -0.12479369774E+02 -0.85505355174E+02  0.57346248494E+02  0.16242072728E+03  0.12500000000E+03 0.  0.
         25    1    1    2    0    0  0.38756651381E+02 -0.32616185156E+00  0.25455804554E+03  0.28622889959E+03  0.12500000000E+03 0.  0.
         25    1    1    2    0    0 -0.26277281607E+02  0.85831517025E+02 -0.63730908334E+01  0.15402324867E+03  0.12500000000E+03 0.  0.
</event>
<event>
 5    0  0.5474724E-005  0.4621183E+03  0.7546771E-02  0.1024169E+00
         21   -1    0    0  502  501  0.00000000000E+00  0.00000000000E+00  0.37447637511E+03  0.37447637511E+03  0.00000000000E+00 0. -1.
         21   -1    0    0  501  502 -0.00000000000E+00 -0.00000000000E+00 -0.57027184304E+03  0.57027184304E+03  0.00000000000E+00 0. -1.
         25    1    1    2    0    0  0.11788039954E+03  0.43889838546E+02  0.60140121395E+02  0.18725368014E+03  0.12500000000E+03 0.  0.
         25    1    1    2    0    0  0.21827719085E+03  0.15862940077E+03 -0.69507783767E+02  0.30539245380E+03  0.12500000000E+03 0.  0.
         25    1    1    2    0    0 -0.33615759039E+03 -0.20251923932E+03 -0.18642780555E+03  0.45210208422E+03  0.12500000000E+03 0.  0.
</event>
<event>
 5    0  0.5474724E-005  0.2809405E+03  0.7546771E-02  0.1095176E+00
         21   -1    0    0  502  501  0.00000000000E+00  0.00000000000E+00  0.20647153563E+03  0.20647153563E+03  0.00000000000E+00 0.  1.
         21   -1    0    0  501  502 -0.00000000000E+00 -0.00000000000E+00 -0.38226840824E+03  0.38226840824E+03  0.00000000000E+00 0.  1.
         25    1    1    2    0    0 -0.90733436986E+02 -0.62114176645E+02 -0.16898465520E+03  0.23721623304E+03  0.12500000000E+03 0.  0.
         25    1    1    2    0    0  0.93314510736E+02  0.66940442335E+01 -0.10056308373E+03  0.18571575580E+03  0.12500000000E+03 0.  0.
         25    1    1    2    0    0 -0.25810737493E+01  0.55420132411E+02  0.93750866305E+02  0.16580795503E+03  0.12500000000E+03 0.  0.
</event>
<event>
 5    0  0.5474724E-005  0.3278881E+03  0.7546771E-02  0.1072075E+00
         21   -1    0    0  502  501  0.00000000000E+00  0.00000000000E+00  0.22708411332E+03  0.22708411332E+03  0.00000000000E+00 0.  1.
         21   -1    0    0  501  502 -0.00000000000E+00 -0.00000000000E+00 -0.47343946798E+03  0.47343946798E+03  0.00000000000E+00 0.  1.
         25    1    1    2    0    0 -0.83321497966E+02  0.12367659721E+03 -0.11747679255E+03  0.22729753520E+03  0.12500000000E+03 0.  0.
         25    1    1    2    0    0  0.77825943135E+02 -0.84004297882E+02 -0.24502814196E+03  0.29795534873E+03  0.12500000000E+03 0.  0.
         25    1    1    2    0    0  0.54955548310E+01 -0.39672299330E+02  0.11614957985E+03  0.17527069737E+03  0.12500000000E+03 0.  0.
</event>
<event>
 5    0  0.5474724E-005  0.3715328E+03  0.7546771E-02  0.1054108E+00
         21   -1    0    0  502  501  0.00000000000E+00  0.00000000000E+00  0.28567873456E+03  0.28567873456E+03  0.00000000000E+00 0. -1.
         21   -1    0    0  501  502 -0.00000000000E+00 -0.00000000000E+00 -0.48318819074E+03  0.48318819074E+03  0.00000000000E+00 0. -1.
         25    1    1    2    0    0  0.21129236327E+03 -0.15642155722E+03 -0.22310248667E+03  0.36675862076E+03  0.12500000000E+03 0.  0.
         25    1    1    2    0    0 -0.13019549384E+03  0.91060746719E+02 -0.69354029379E+02  0.21372390507E+03  0.12500000000E+03 0.  0.
         25    1    1    2    0    0 -0.81096869434E+02  0.65360810506E+02  0.94947059872E+02  0.18838439946E+03  0.12500000000E+03 0.  0.
</event>
<event>
 5    0  0.5474724E-005  0.2919390E+03  0.7546771E-02  0.1089341E+00
         21   -1    0    0  502  501  0.00000000000E+00  0.00000000000E+00  0.80402189911E+03  0.80402189911E+03  0.00000000000E+00 0.  1.
         21   -1    0    0  501  502 -0.00000000000E+00 -0.00000000000E+00 -0.10600257173E+03  0.10600257173E+03  0.00000000000E+00 0.  1.
         25    1    1    2    0    0 -0.86403379020E+02 -0.12363567602E+03  0.56544888677E+02  0.20389617143E+03  0.12500000000E+03 0.  0.
         25    1    1    2    0    0  0.53544800681E+02  0.78647136255E+02  0.31050203548E+03  0.34797834956E+03  0.12500000000E+03 0.  0.
         25    1    1    2    0    0  0.32858578339E+02  0.44988539761E+02  0.33097240322E+03  0.35814994985E+03  0.12500000000E+03 0.  0.
</event>
<event>
 5    0  0.5474724E-005  0.2882100E+03  0.7546771E-02  0.1091287E+00
         21   -1    0    0  502  501  0.00000000000E+00  0.00000000000E+00  0.41388720293E+03  0.41388720293E+03  0.00000000000E+00 0.  1.
         21   -1    0    0  501  502 -0.00000000000E+00 -0.00000000000E+00 -0.20069475297E+03  0.20069475297E+03  0.00000000000E+00 0.  1.
         25    1    1    2    0    0 -0.10576242702E+03 -0.50138289511E+01  0.15708557297E+03  0.22696190580E+03  0.12500000000E+03 0.  0.
         25    1    1    2    0    0 -0.34538637650E+02  0.76324234223E+02  0.10158282637E+03  0.18155543736E+03  0.12500000000E+03 0.  0.
         25    1    1    2    0    0  0.14030106467E+03 -0.71310405272E+02 -0.45475949387E+02  0.20606461273E+03  0.12500000000E+03 0.  0.
</event>
<event>
 5    0  0.5474724E-005  0.3459455E+03  0.7546771E-02  0.1064292E+00
         21   -1    0    0  502  501  0.00000000000E+00  0.00000000000E+00  0.31583528441E+03  0.31583528441E+03  0.00000000000E+00 0. -1.
         21   -1    0    0  501  502 -0.00000000000E+00 -0.00000000000E+00 -0.37892629172E+03  0.37892629172E+03  0.00000000000E+00 0. -1.
         25    1    1    2    0    0  0.50956148191E+02 -0.13780401437E+03  0.92233874203E+02  0.21381899580E+03  0.12500000000E+03 0.  0.
         25    1    1    2    0    0  0.11744460489E+03 -0.44288905322E+02 -0.68778747529E+02  0.19002699404E+03  0.12500000000E+03 0.  0.
         25    1    1    2    0    0 -0.16840075308E+03  0.18209291969E+03 -0.86546133976E+02  0.29091558629E+03  0.12500000000E+03 0.  0.
</event>
<event>
 5    0  0.5474724E-005  0.2907806E+03  0.7546771E-02  0.1089942E+00
         21   -1    0    0  502  501  0.00000000000E+00  0.00000000000E+00  0.20594191588E+03  0.20594191588E+03  0.00000000000E+00 0.  1.
         21   -1    0    0  501  502 -0.00000000000E+00 -0.00000000000E+00 -0.41056900547E+03  0.41056900547E+03  0.00000000000E+00 0.  1.
         25    1    1    2    0    0 -0.28884142682E+02  0.99836493822E+02 -0.23214233843E+03  0.28340198392E+03  0.12500000000E+03 0.  0.
         25    1    1    2    0    0  0.43593188160E+02  0.22880081825E+02 -0.46793586316E+02  0.14226209586E+03  0.12500000000E+03 0.  0.
         25    1    1    2    0    0 -0.14709045479E+02 -0.12271657565E+03  0.74308835155E+02  0.19084684158E+03  0.12500000000E+03 0.  0.
</event>
<event>
 5    0  0.5474724E-005  0.2655182E+03  0.7546771E-02  0.1103872E+00
         21   -1    0    0  502  501  0.00000000000E+00  0.00000000000E+00  0.17187303496E+03  0.17187303496E+03  0.00000000000E+00 0. -1.
         21   -1    0    0  501  502 -0.00000000000E+00 -0.00000000000E+00 -0.41018604431E+03  0.41018604431E+03  0.00000000000E+00 0. -1.
         25    1    1    2    0    0 -0.10397773741E+03  0.38146396291E+02 -0.94318677793E+02  0.19180075706E+03  0.12500000000E+03 0.  0.
         25    1    1    2    0    0 -0.62515960095E+02  0.25340328293E+02 -0.32528064651E+02  0.14571702884E+03  0.12500000000E+03 0.  0.
         25    1    1    2    0    0  0.16649369751E+03 -0.63486724584E+02 -0.11146626691E+03  0.24454129338E+03  0.12500000000E+03 0.  0.
</event>
<event>
 5    0  0.5474724E-005  0.4928382E+03  0.7546771E-02  0.1015665E+00
         21   -1    0    0  502  501  0.00000000000E+00  0.00000000000E+00  0.13170649604E+03  0.13170649604E+03  0.00000000000E+00 0. -1.
         21   -1    0    0  501  502 -0.00000000000E+00 -0.00000000000E+00 -0.18441720806E+04  0.18441720806E+04  0.00000000000E+00 0. -1.
         25    1    1    2    0    0  0.27969191998E+03  0.57007433965E+02 -0.79696401187E+03  0.85571844309E+03  0.12500000000E+03 0.  0.
         25    1    1    2    0    0 -0.27347742780E+02  0.43962945338E+02  0.21106447075E+02  0.13693473521E+03  0.12500000000E+03 0.  0.
         25    1    1    2    0    0 -0.25234417720E+03 -0.10097037930E+03 -0.93660801981E+03  0.98322539839E+03  0.12500000000E+03 0.  0.
</event>
<event>
 5    0  0.5474724E-005  0.3357214E+03  0.7546771E-02  0.1068633E+00
         21   -1    0    0  502  501  0.00000000000E+00  0.00000000000E+00  0.93655746203E+03  0.93655746203E+03  0.00000000000E+00 0.  1.
         21   -1    0    0  501  502 -0.00000000000E+00 -0.00000000000E+00 -0.12034379391E+03  0.12034379391E+03  0.00000000000E+00 0.  1.
         25    1    1    2    0    0  0.50633766280E+02 -0.14333224672E+03  0.12936231879E+03  0.23551543635E+03  0.12500000000E+03 0.  0.
         25    1    1    2    0    0 -0.13985852208E+03  0.82736361704E+00  0.13501491049E+03  0.23111710621E+03  0.12500000000E+03 0.  0.
         25    1    1    2    0    0  0.89224755802E+02  0.14250488310E+03  0.55183643884E+03  0.59026871337E+03  0.12500000000E+03 0.  0.
</event>
<event>
 5    0  0.5474724E-005  0.3132216E+03  0.7546771E-02  0.1078812E+00
         21   -1    0    0  502  501  0.00000000000E+00  0.00000000000E+00  0.59620575587E+03  0.59620575587E+03  0.00000000000E+00 0.  1.
         21   -1    0    0  501  502 -0.00000000000E+00 -0.00000000000E+00 -0.16455353537E+03  0.16455353537E+03  0.00000000000E+00 0.  1.
         25    1    1    2    0    0 -0.39890313895E+02 -0.53887286411E+02  0.64331648606E+02  0.15575184683E+03  0.12500000000E+03 0.  0.
         25    1    1    2    0    0 -0.17059543334E+03  0.95628747958E+02  0.16685327830E+03  0.28585429119E+03  0.12500000000E+03 0.  0.
         25    1    1    2    0    0  0.21048574724E+03 -0.41741461548E+02  0.20046729359E+03  0.31915315321E+03  0.12500000000E+03 0.  0.
</event>
<event>
 5    0  0.5474724E-005  0.2953329E+03  0.7546771E-02  0.1087597E+00
         21   -1    0    0  502  501  0.00000000000E+00  0.00000000000E+00  0.16801317874E+04  0.16801317874E+04  0.00000000000E+00 0. -1.
         21   -1    0    0  501  502 -0.00000000000E+00 -0.00000000000E+00 -0.51913493113E+02  0.51913493113E+02  0.00000000000E+00 0. -1.
         25    1    1    2    0    0 -0.16785056503E+03 -0.12116533127E+03  0.80165859106E+03  0.83733884796E+03  0.12500000000E+03 0.  0.
         25    1    1    2    0    0  0.12909821803E+03  0.96446140760E+02  0.57447481496E+03  0.60960193651E+03  0.12500000000E+03 0.  0.
         25    1    1    2    0    0  0.38752346996E+02  0.24719190507E+02  0.25208488829E+03  0.28510449607E+03  0.12500000000E+03 0.  0.
</event>
<event>
 5    0  0.5474724E-005  0.2653525E+03  0.7546771E-02  0.1103969E+00
         21   -1    0    0  502  501  0.00000000000E+00  0.00000000000E+00  0.52893143399E+03  0.52893143399E+03  0.00000000000E+00 0.  1.
         21   -1    0    0  501  502 -0.00000000000E+00 -0.00000000000E+00 -0.13312113586E+03  0.13312113586E+03  0.00000000000E+00 0.  1.
         25    1    1    2    0    0  0.38954399462E+02 -0.33038423724E+02  0.14690405144E+03  0.19953642026E+03  0.12500000000E+03 0.  0.
         25    1    1    2    0    0 -0.91169303038E+02  0.78039108448E+02 -0.26249579257E+01  0.17330272551E+03  0.12500000000E+03 0.  0.
         25    1    1    2    0    0  0.52214903576E+02 -0.45000684724E+02  0.25153120461E+03  0.28921342409E+03  0.12500000000E+03 0.  0.
</event>
<event>
 5    0  0.6111029E-005  0.6437563E+03  0.7546771E-02  0.9818566E-01
         21   -1    0    0  502  501  0.00000000000E+00  0.00000000000E+00  0.58506521148E+03  0.58506521148E+03  0.00000000000E+00 0.  1.
         21   -1    0    0  501  502 -0.00000000000E+00 -0.00000000000E+00 -0.70833499008E+03  0.70833499008E+03  0.00000000000E+00 0.  1.
         25    1    1    2    0    0 -0.26208628390E+03 -0.17118622792E+03  0.96266992654E+02  0.35055139240E+03  0.12500000000E+03 0.  0.
         25    1    1    2    0    0  0.10611547552E+02  0.35163799754E+03  0.18639912534E+03  0.41729069027E+03  0.12500000000E+03 0.  0.
         25    1    1    2    0    0  0.25147473635E+03 -0.18045176962E+03 -0.40593589659E+03  0.52555811888E+03  0.12500000000E+03 0.  0.
</event>
<event>
 5    0  0.5800525E-005  0.3120630E+03  0.7546771E-02  0.1079361E+00
         21   -1    0    0  502  501  0.00000000000E+00  0.00000000000E+00  0.32043847137E+03  0.32043847137E+03  0.00000000000E+00 0.  1.
         21   -1    0    0  501  502 -0.00000000000E+00 -0.00000000000E+00 -0.30390643429E+03  0.30390643429E+03  0.00000000000E+00 0.  1.
         25    1    1    2    0    0  0.63755981907E+02  0.34089130531E+02 -0.86116464423E+02  0.16813072145E+03  0.12500000000E+03 0.  0.
         25    1    1    2    0    0 -0.10891788326E+03  0.63343043460E+02 -0.93029598224E+02  0.20038700705E+03  0.12500000000E+03 0.  0.
         25    1    1    2    0    0  0.45161901357E+02 -0.97432173991E+02  0.19567809972E+03  0.25582717716E+03  0.12500000000E+03 0.  0.
</event>
<event>
 5    0  0.5474724E-005  0.3091075E+03  0.7546771E-02  0.1080774E+00
         21   -1    0    0  502  501  0.00000000000E+00  0.00000000000E+00  0.34242938244E+03  0.34242938244E+03  0.00000000000E+00 0.  1.
         21   -1    0    0  501  502 -0.00000000000E+00 -0.00000000000E+00 -0.27902820838E+03  0.27902820838E+03  0.00000000000E+00 0.  1.
         25    1    1    2    0    0 -0.63299740492E+01  0.72286245815E+02 -0.64942979890E+02  0.15845491644E+03  0.12500000000E+03 0.  0.
         25    1    1    2    0    0  0.57778006415E+02 -0.13902646367E+03 -0.75266156134E+02  0.20965841239E+03  0.12500000000E+03 0.  0.
         25    1    1    2    0    0 -0.51448032366E+02  0.66740217856E+02  0.20361031009E+03  0.25334426200E+03  0.12500000000E+03 0.  0.
</event>
<event>
 5    0  0.5474724E-005  0.2798836E+03  0.7546771E-02  0.1095753E+00
         21   -1    0    0  502  501  0.00000000000E+00  0.00000000000E+00  0.24097145941E+03  0.24097145941E+03  0.00000000000E+00 0.  1.
         21   -1    0    0  501  502 -0.00000000000E+00 -0.00000000000E+00 -0.32507933081E+03  0.32507933081E+03  0.00000000000E+00 0.  1.
         25    1    1    2    0    0 -0.48358087158E+02  0.14728473461E+02 -0.17769858732E+03  0.22306326560E+03  0.12500000000E+03 0.  0.
         25    1    1    2    0    0  0.31601898617E+02 -0.62557250420E+02 -0.44396196539E+02  0.15002703704E+03  0.12500000000E+03 0.  0.
         25    1    1    2    0    0  0.16756188542E+02  0.47828776959E+02  0.13798691246E+03  0.19296048759E+03  0.12500000000E+03 0.  0.
</event>
<event>
 5    0  0.5474724E-005  0.2797876E+03  0.7546771E-02  0.1095805E+00
         21   -1    0    0  502  501  0.00000000000E+00  0.00000000000E+00  0.36741222732E+02  0.36741222732E+02  0.00000000000E+00 0. -1.
         21   -1    0    0  501  502 -0.00000000000E+00 -0.00000000000E+00 -0.21306065486E+04  0.21306065486E+04  0.00000000000E+00 0. -1.
         25    1    1    2    0    0 -0.87180819794E+02  0.50212801078E+02 -0.46555187249E+03  0.49242803201E+03  0.12500000000E+03 0.  0.
         25    1    1    2    0    0  0.15478108980E+03 -0.96464838683E+02 -0.68386095255E+03  0.71871653194E+03  0.12500000000E+03 0.  0.
         25    1    1    2    0    0 -0.67600270002E+02  0.46252037605E+02 -0.94445250084E+03  0.95620320739E+03  0.12500000000E+03 0.  0.
</event>
<event>
 5    0  0.5474724E-005  0.3324008E+03  0.7546771E-02  0.1070079E+00
         21   -1    0    0  502  501  0.00000000000E+00  0.00000000000E+00  0.33394559333E+03  0.33394559333E+03  0.00000000000E+00 0.  1.
         21   -1    0    0  501  502 -0.00000000000E+00 -0.00000000000E+00 -0.33086320308E+03  0.33086320308E+03  0.00000000000E+00 0.  1.
         25    1    1    2    0    0  0.70215395539E+02 -0.67946539464E+02  0.18364770352E+03  0.24268995242E+03  0.12500000000E+03 0.  0.
         25    1    1    2    0    0 -0.37129990806E+01 -0.93080461327E+02 -0.12707672797E+03  0.20112496969E+03  0.12500000000E+03 0.  0.
         25    1    1    2    0    0 -0.66502396459E+02  0.16102700079E+03 -0.53488585311E+02  0.22099387430E+03  0.12500000000E+03 0.  0.
</event>
<event>
 5    0  0.5474724E-005  0.2668347E+03  0.7546771E-02  0.1103105E+00
         21   -1    0    0  502  501  0.00000000000E+00  0.00000000000E+00  0.16190867340E+04  0.16190867340E+04  0.00000000000E+00 0. -1.
         21   -1    0    0  501  502 -0.00000000000E+00 -0.00000000000E+00 -0.43975868750E+02  0.43975868750E+02  0.00000000000E+00 0. -1.
         25    1    1    2    0    0  0.60301030087E+02 -0.13778298828E+03  0.96985074070E+03  0.98937142941E+03  0.12500000000E+03 0.  0.
         25    1    1    2    0    0 -0.27507121661E+02  0.80227958585E+02  0.26208200051E+03  0.30249816871E+03  0.12500000000E+03 0.  0.
         25    1    1    2    0    0 -0.32793908425E+02  0.57555029691E+02  0.34317812408E+03  0.37119300468E+03  0.12500000000E+03 0.  0.
</event>
<event>
 5    0  0.5474724E-005  0.3960577E+03  0.7546771E-02  0.1045153E+00
         21   -1    0    0  502  501  0.00000000000E+00  0.00000000000E+00  0.10385867460E+04  0.10385867460E+04  0.00000000000E+00 0.  1.
         21   -1    0    0  501  502 -0.00000000000E+00 -0.00000000000E+00 -0.15103377617E+03  0.15103377617E+03  0.00000000000E+00 0. -1.
         25    1    1    2    0    0  0.73541000593E+02  0.98214034469E+02  0.88830136153E+02  0.19639263842E+03  0.12500000000E+03 0.  0.
         25    1    1    2    0    0  0.13845221094E+03 -0.23763680613E+01  0.67735143256E+03  0.70257001433E+03  0.12500000000E+03 0.  0.
         25    1    1    2    0    0 -0.21199321153E+03 -0.95837666408E+02  0.12137140108E+03  0.29065786939E+03  0.12500000000E+03 0.  0.
</event>
<event>
 5    0  0.5474724E-005  0.3207905E+03  0.7546771E-02  0.1075286E+00
         21   -1    0    0  502  501  0.00000000000E+00  0.00000000000E+00  0.10296140523E+04  0.10296140523E+04  0.00000000000E+00 0.  1.
         21   -1    0    0  501  502 -0.00000000000E+00 -0.00000000000E+00 -0.99946703048E+02  0.99946703048E+02  0.00000000000E+00 0.  1.
         25    1    1    2    0    0 -0.67151954655E+01 -0.70326943033E+02  0.39067667297E+03  0.41622618319E+03  0.12500000000E+03 0.  0.
         25    1    1    2    0    0  0.85542862722E+02 -0.46096800117E+02  0.17915446561E+02  0.15933756484E+03  0.12500000000E+03 0.  0.
         25    1    1    2    0    0 -0.78827667257E+02  0.11642374315E+03  0.52107522973E+03  0.55399700733E+03  0.12500000000E+03 0.  0.
</event>
<event>
 5    0  0.5474724E-005  0.2665146E+03  0.7546771E-02  0.1103291E+00
         21   -1    0    0  502  501  0.00000000000E+00  0.00000000000E+00  0.15232300627E+04  0.15232300627E+04  0.00000000000E+00 0.  1.
         21   -1    0    0  501  502 -0.00000000000E+00 -0.00000000000E+00 -0.46631199982E+02  0.46631199982E+02  0.00000000000E+00 0.  1.
         25    1    1    2    0    0  0.75142799814E+02  0.11072816113E+02  0.50434872651E+03  0.52513016059E+03  0.12500000000E+03 0.  0.
         25    1    1    2    0    0  0.29442980357E+02  0.55738792821E+02  0.15563465218E+03  0.20933429503E+03  0.12500000000E+03 0.  0.
         25    1    1    2    0    0 -0.10458578017E+03 -0.66811608934E+02  0.81661548398E+03  0.83539680702E+03  0.12500000000E+03 0.  0.
</event>
<event>
 5    0  0.5474724E-005  0.3783186E+03  0.7546771E-02  0.1051557E+00
         21   -1    0    0  502  501  0.00000000000E+00  0.00000000000E+00  0.10411604811E+04  0.10411604811E+04  0.00000000000E+00 0.  1.
         21   -1    0    0  501  502 -0.00000000000E+00 -0.00000000000E+00 -0.13746680060E+03  0.13746680060E+03  0.00000000000E+00 0.  1.
         25    1    1    2    0    0  0.13990930445E+03 -0.12258301012E+03  0.10569237556E+03  0.24778435401E+03  0.12500000000E+03 0.  0.
         25    1    1    2    0    0 -0.18917209567E+03  0.20529542916E+03  0.40633027957E+03  0.50858784011E+03  0.12500000000E+03 0.  0.
         25    1    1    2    0    0  0.49262791223E+02 -0.82712419036E+02  0.39167102535E+03  0.42225508755E+03  0.12500000000E+03 0.  0.
</event>
<event>
 5    0  0.5474724E-005  0.4012598E+03  0.7546771E-02  0.1043344E+00
         21   -1    0    0  502  501  0.00000000000E+00  0.00000000000E+00  0.13597059720E+04  0.13597059720E+04  0.00000000000E+00 0. -1.
         21   -1    0    0  501  502 -0.00000000000E+00 -0.00000000000E+00 -0.11841486494E+03  0.11841486494E+03  0.00000000000E+00 0. -1.
         25    1    1    2    0    0  0.61600379491E+02 -0.63066138689E+01  0.47321395956E+03  0.49334656344E+03  0.12500000000E+03 0.  0.
         25    1    1    2    0    0  0.13472988329E+02 -0.95588741598E+02  0.78991772894E+03  0.80555182790E+03  0.12500000000E+03 0.  0.
         25    1    1    2    0    0 -0.75073367820E+02  0.10189535547E+03 -0.21840581411E+02  0.17922244563E+03  0.12500000000E+03 0.  0.
</event>
<event>
 5    0  0.5553341E-005  0.2953668E+03  0.7546771E-02  0.1087580E+00
         21   -1    0    0  502  501  0.00000000000E+00  0.00000000000E+00  0.16387597575E+03  0.16387597575E+03  0.00000000000E+00 0.  1.
         21   -1    0    0  501  502 -0.00000000000E+00 -0.00000000000E+00 -0.53236329783E+03  0.53236329783E+03  0.00000000000E+00 0.  1.
         25    1    1    2    0    0  0.15925665906E+03 -0.75132304256E+02 -0.12825979536E+03  0.25116353578E+03  0.12500000000E+03 0.  0.
         25    1    1    2    0    0 -0.10193779507E+03 -0.16051995123E+02 -0.10766267864E+02  0.16244966339E+03  0.12500000000E+03 0.  0.
         25    1    1    2    0    0 -0.57318863991E+02  0.91184299378E+02 -0.22946125886E+03  0.28262607441E+03  0.12500000000E+03 0.  0.
</event>
<event>
 5    0  0.5474724E-005  0.3415649E+03  0.7546771E-02  0.1066131E+00
         21   -1    0    0  502  501  0.00000000000E+00  0.00000000000E+00  0.20930786052E+03  0.20930786052E+03  0.00000000000E+00 0.  1.
         21   -1    0    0  501  502 -0.00000000000E+00 -0.00000000000E+00 -0.55739216399E+03  0.55739216399E+03  0.00000000000E+00 0.  1.
         25    1    1    2    0    0  0.12154149617E+02  0.95714115053E+01 -0.20968352768E+03  0.24460481812E+03  0.12500000000E+03 0.  0.
         25    1    1    2    0    0  0.12797927080E+03  0.14031868755E+02  0.10949299363E+03  0.21021251806E+03  0.12500000000E+03 0.  0.
         25    1    1    2    0    0 -0.14013342041E+03 -0.23603280260E+02 -0.24789376943E+03  0.31188268832E+03  0.12500000000E+03 0.  0.
</event>
<event>
 5    0  0.5474724E-005  0.2134628E+03  0.7546771E-02  0.1138853E+00
         21   -1    0    0  502  501  0.00000000000E+00  0.00000000000E+00  0.58378642960E+03  0.58378642960E+03  0.00000000000E+00 0.  1.
         21   -1    0    0  501  502 -0.00000000000E+00 -0.00000000000E+00 -0.78053161298E+02  0.78053161298E+02  0.00000000000E+00 0.  1.
         25    1    1    2    0    0 -0.41953468382E+02 -0.23770339721E+02  0.16352737866E+03  0.21140323113E+03  0.12500000000E+03 0.  0.
         25    1    1    2    0    0  0.81105565051E+02 -0.28177959735E+02  0.18812564667E+03  0.24163685363E+03  0.12500000000E+03 0.  0.
         25    1    1    2    0    0 -0.39152096669E+02  0.51948299456E+02  0.15408024297E+03  0.20879950614E+03  0.12500000000E+03 0.  0.
</event>
<event>
 5    0  0.5474724E-005  0.2650787E+03  0.7546771E-02  0.1104130E+00
         21   -1    0    0  502  501  0.00000000000E+00  0.00000000000E+00  0.44837177484E+03  0.44837177484E+03  0.00000000000E+00 0.  1.
         21   -1    0    0  501  502 -0.00000000000E+00 -0.00000000000E+00 -0.15671533001E+03  0.15671533001E+03  0.00000000000E+00 0.  1.
         25    1    1    2    0    0  0.20445108541E+02 -0.70113192678E+02  0.30020738028E+02  0.14785163835E+03  0.12500000000E+03 0.  0.
         25    1    1    2    0    0  0.18223828484E+02 -0.57208361726E+02  0.57844815565E+00  0.13867313791E+03  0.12500000000E+03 0.  0.
         25    1    1    2    0    0 -0.38668937025E+02  0.12732155440E+03  0.26105725865E+03  0.31856232859E+03  0.12500000000E+03 0.  0.
</event>
<event>
 5    0  0.5474724E-005  0.3138146E+03  0.7546771E-02  0.1078532E+00
         21   -1    0    0  502  501  0.00000000000E+00  0.00000000000E+00  0.14846257640E+03  0.14846257640E+03  0.00000000000E+00 0.  1.
         21   -1    0    0  501  502 -0.00000000000E+00 -0.00000000000E+00 -0.66332963939E+03  0.66332963939E+03  0.00000000000E+00 0.  1.
         25    1    1    2    0    0 -0.63005093373E+02  0.13215313235E+02  0.15253219191E+02  0.14142823972E+03  0.12500000000E+03 0.  0.
         25    1    1    2    0    0 -0.11360683058E+03  0.49151008570E+02 -0.30409015674E+03  0.35130920430E+03  0.12500000000E+03 0.  0.
         25    1    1    2    0    0  0.17661192396E+03 -0.62366321805E+02 -0.22603012544E+03  0.31905477177E+03  0.12500000000E+03 0.  0.
</event>
<event>
 5    0  0.5474724E-005  0.2373501E+03  0.7546771E-02  0.1121571E+00
         21   -1    0    0  502  501  0.00000000000E+00  0.00000000000E+00  0.72081247496E+03  0.72081247496E+03  0.00000000000E+00 0. -1.
         21   -1    0    0  501  502 -0.00000000000E+00 -0.00000000000E+00 -0.78154965724E+02  0.78154965724E+02  0.00000000000E+00 0. -1.
         25    1    1    2    0    0  0.45892266095E+02 -0.38999325099E+02  0.30118452428E+03  0.33160845150E+03  0.12500000000E+03 0.  0.
         25    1    1    2    0    0 -0.75690745192E+02  0.98460289143E+02  0.21008602178E+03  0.27419820203E+03  0.12500000000E+03 0.  0.
         25    1    1    2    0    0  0.29798479096E+02 -0.59460964044E+02  0.13138696318E+03  0.19316078716E+03  0.12500000000E+03 0.  0.
</event>
<event>
 5    0  0.5474724E-005  0.2521876E+03  0.7546771E-02  0.1111930E+00
         21   -1    0    0  502  501  0.00000000000E+00  0.00000000000E+00  0.85872185498E+02  0.85872185498E+02  0.00000000000E+00 0. -1.
         21   -1    0    0  501  502 -0.00000000000E+00 -0.00000000000E+00 -0.74061934562E+03  0.74061934562E+03  0.00000000000E+00 0. -1.
         25    1    1    2    0    0 -0.46500377895E+02  0.14858525629E+03 -0.32503234388E+03  0.38145889438E+03  0.12500000000E+03 0.  0.
         25    1    1    2    0    0  0.15206578720E+02 -0.98448642904E+02 -0.19290166299E+03  0.25051831652E+03  0.12500000000E+03 0.  0.
         25    1    1    2    0    0  0.31293799175E+02 -0.50136613391E+02 -0.13681315326E+03  0.19451432023E+03  0.12500000000E+03 0.  0.
</event>
<event>
 5    0  0.5474724E-005  0.3161210E+03  0.7546771E-02  0.1077448E+00
         21   -1    0    0  502  501  0.00000000000E+00  0.00000000000E+00  0.16059717025E+03  0.16059717025E+03  0.00000000000E+00 0. -1.
         21   -1    0    0  501  502 -0.00000000000E+00 -0.00000000000E+00 -0.62225575248E+03  0.62225575248E+03  0.00000000000E+00 0. -1.
         25    1    1    2    0    0  0.10444977603E+03  0.60469893559E+02 -0.48654779226E+02  0.18044015984E+03  0.12500000000E+03 0.  0.
         25    1    1    2    0    0 -0.15686090768E+03  0.83084411317E+02 -0.31346991007E+03  0.38130925544E+03  0.12500000000E+03 0.  0.
         25    1    1    2    0    0  0.52411131645E+02 -0.14355430488E+03 -0.99533892938E+02  0.22110350746E+03  0.12500000000E+03 0.  0.
</event>
<event>
 5    0  0.5474724E-005  0.3185112E+03  0.7546771E-02  0.1076337E+00
         21   -1    0    0  502  501  0.00000000000E+00  0.00000000000E+00  0.15342839430E+03  0.15342839430E+03  0.00000000000E+00 0.  1.
         21   -1    0    0  501  502 -0.00000000000E+00 -0.00000000000E+00 -0.66121646202E+03  0.66121646202E+03  0.00000000000E+00 0.  1.
         25    1    1    2    0    0 -0.44700635932E+02 -0.17738892207E+03 -0.12864869434E+03  0.25620394822E+03  0.12500000000E+03 0.  0.
         25    1    1    2    0    0 -0.92246302044E+02  0.16093704292E+03 -0.19865908818E+03  0.29916641747E+03  0.12500000000E+03 0.  0.
         25    1    1    2    0    0  0.13694693798E+03  0.16451879155E+02 -0.18048028520E+03  0.25927449063E+03  0.12500000000E+03 0.  0.
</event>
<event>
 5    0  0.5474724E-005  0.2560143E+03  0.7546771E-02  0.1109562E+00
         21   -1    0    0  502  501  0.00000000000E+00  0.00000000000E+00  0.27988098687E+03  0.27988098687E+03  0.00000000000E+00 0. -1.
         21   -1    0    0  501  502 -0.00000000000E+00 -0.00000000000E+00 -0.23418284359E+03  0.23418284359E+03  0.00000000000E+00 0. -1.
         25    1    1    2    0    0  0.64954502391E+02 -0.20317311053E+02  0.59734961985E+02  0.15435396397E+03  0.12500000000E+03 0.  0.
         25    1    1    2    0    0 -0.11423743604E+03  0.74173849264E+02  0.63530054603E+02  0.19548150691E+03  0.12500000000E+03 0.  0.
         25    1    1    2    0    0  0.49282933645E+02 -0.53856538210E+02 -0.77566873299E+02  0.16422835958E+03  0.12500000000E+03 0.  0.
</event>
<event>
 5    0  0.5474724E-005  0.2464786E+03  0.7546771E-02  0.1115551E+00
         21   -1    0    0  502  501  0.00000000000E+00  0.00000000000E+00  0.14472632063E+03  0.14472632063E+03  0.00000000000E+00 0. -1.
         21   -1    0    0  501  502 -0.00000000000E+00 -0.00000000000E+00 -0.41976937489E+03  0.41976937489E+03  0.00000000000E+00 0. -1.
         25    1    1    2    0    0 -0.85141126282E+02 -0.64115809551E+01 -0.74005329100E+02  0.16849898661E+03  0.12500000000E+03 0.  0.
         25    1    1    2    0    0 -0.54812317637E+02  0.47248623841E+02 -0.54276879292E+02  0.15429777136E+03  0.12500000000E+03 0.  0.
         25    1    1    2    0    0  0.13995344392E+03 -0.40837042886E+02 -0.14676084587E+03  0.24169893756E+03  0.12500000000E+03 0.  0.
</event>
<event>
 5    0  0.5474724E-005  0.4138327E+03  0.7546771E-02  0.1039092E+00
         21   -1    0    0  502  501  0.00000000000E+00  0.00000000000E+00  0.16787564232E+03  0.16787564232E+03  0.00000000000E+00 0. -1.
         21   -1    0    0  501  502 -0.00000000000E+00 -0.00000000000E+00 -0.10201451558E+04  0.10201451558E+04  0.00000000000E+00 0. -1.
         25    1    1    2    0    0 -0.14950163843E+03  0.46482576895E+02  0.52637186033E+02  0.20714015352E+03  0.12500000000E+03 0.  0.
         25    1    1    2    0    0  0.59994700669E+02  0.78253606366E+02 -0.24729361060E+03  0.29411242895E+03  0.12500000000E+03 0.  0.
         25    1    1    2    0    0  0.89506937757E+02 -0.12473618326E+03 -0.65761308894E+03  0.68676821568E+03  0.12500000000E+03 0.  0.
</event>
<event>
 5    0  0.5474724E-005  0.3306090E+03  0.7546771E-02  0.1070868E+00
         21   -1    0    0  502  501  0.00000000000E+00  0.00000000000E+00  0.67604167846E+03  0.67604167846E+03  0.00000000000E+00 0. -1.
         21   -1    0    0  501  502 -0.00000000000E+00 -0.00000000000E+00 -0.16167985708E+03  0.16167985708E+03  0.00000000000E+00 0. -1.
         25    1    1    2    0    0  0.62569193734E+02  0.93942973195E+02  0.45963054077E+02  0.17457888921E+03  0.12500000000E+03 0.  0.
         25    1    1    2    0    0  0.73657511991E+02  0.11883574946E+03  0.18778991276E+03  0.26540048183E+03  0.12500000000E+03 0.  0.
         25    1    1    2    0    0 -0.13622670573E+03 -0.21277872266E+03  0.28060885455E+03  0.39774216450E+03  0.12500000000E+03 0.  0.
</event>
<event>
 5    0  0.5474724E-005  0.2227779E+03  0.7546771E-02  0.1131829E+00
         21   -1    0    0  502  501  0.00000000000E+00  0.00000000000E+00  0.54633093930E+03  0.54633093930E+03  0.00000000000E+00 0. -1.
         21   -1    0    0  501  502 -0.00000000000E+00 -0.00000000000E+00 -0.90842338283E+02  0.90842338283E+02  0.00000000000E+00 0. -1.
         25    1    1    2    0    0 -0.74724503851E+01  0.33208045652E+02  0.10288619737E+03  0.16543633645E+03  0.12500000000E+03 0.  0.
         25    1    1    2    0    0  0.32031963878E+02  0.67940504305E+02  0.20840702705E+03  0.25436282700E+03  0.12500000000E+03 0.  0.
         25    1    1    2    0    0 -0.24559513493E+02 -0.10114854996E+03  0.14419537660E+03  0.21737411413E+03  0.12500000000E+03 0.  0.
</event>
<event>
 5    0  0.6167704E-005  0.3129144E+03  0.7546771E-02  0.1078957E+00
         21   -1    0    0  502  501  0.00000000000E+00  0.00000000000E+00  0.42540756311E+03  0.42540756311E+03  0.00000000000E+00 0. -1.
         21   -1    0    0  501  502 -0.00000000000E+00 -0.00000000000E+00 -0.23016843412E+03  0.23016843412E+03  0.00000000000E+00 0. -1.
         25    1    1    2    0    0  0.34384499798E+02 -0.21670466557E+02 -0.14345287817E+03  0.19456523637E+03  0.12500000000E+03 0.  0.
         25    1    1    2    0    0  0.22049086855E+01 -0.78666823676E+02  0.17500742298E+03  0.22901076146E+03  0.12500000000E+03 0.  0.
         25    1    1    2    0    0 -0.36589408483E+02  0.10033729023E+03  0.16368458419E+03  0.23199999941E+03  0.12500000000E+03 0.  0.
</event>
<event>
 5    0  0.5474724E-005  0.3305734E+03  0.7546771E-02  0.1070883E+00
         21   -1    0    0  502  501  0.00000000000E+00  0.00000000000E+00  0.22721886236E+03  0.22721886236E+03  0.00000000000E+00 0.  1.
         21   -1    0    0  501  502 -0.00000000000E+00 -0.00000000000E+00 -0.48094066277E+03  0.48094066277E+03  0.00000000000E+00 0.  1.
         25    1    1    2    0    0 -0.58089716023E+02  0.10316840857E+03  0.13053910399E+03  0.21606386395E+03  0.12500000000E+03 0.  0.
         25    1    1    2    0    0  0.83705236663E+02 -0.25828846906E+02 -0.24084218328E+03  0.28513795473E+03  0.12500000000E+03 0.  0.
         25    1    1    2    0    0 -0.25615520640E+02 -0.77339561661E+02 -0.14341872111E+03  0.20695770646E+03  0.12500000000E+03 0.  0.
</event>
<event>
 5    0  0.5474724E-005  0.3600165E+03  0.7546771E-02  0.1058577E+00
         21   -1    0    0  502  501  0.00000000000E+00  0.00000000000E+00  0.84847528468E+03  0.84847528468E+03  0.00000000000E+00 0.  1.
         21   -1    0    0  501  502 -0.00000000000E+00 -0.00000000000E+00 -0.15275855416E+03  0.15275855416E+03  0.00000000000E+00 0.  1.
         25    1    1    2    0    0 -0.10731390037E+03 -0.92526301567E+02  0.32465493800E+03  0.37563708345E+03  0.12500000000E+03 0.  0.
         25    1    1    2    0    0  0.34147399454E+02 -0.11152093742E+03  0.33050505609E+03  0.37210422797E+03  0.12500000000E+03 0.  0.
         25    1    1    2    0    0  0.73166500913E+02  0.20404723898E+03  0.40556736430E+02  0.25349252743E+03  0.12500000000E+03 0.  0.
</event>
<event>
 5    0  0.5697239E-005  0.2985420E+03  0.7546771E-02  0.1085972E+00
         21   -1    0    0  502  501  0.00000000000E+00  0.00000000000E+00  0.52101196712E+03  0.52101196712E+03  0.00000000000E+00 0. -1.
         21   -1    0    0  501  502 -0.00000000000E+00 -0.00000000000E+00 -0.17106583021E+03  0.17106583021E+03  0.00000000000E+00 0. -1.
         25    1    1    2    0    0 -0.92824986441E+01  0.99323233805E+02  0.52585515643E+02  0.16834935702E+03  0.12500000000E+03 0.  0.
         25    1    1    2    0    0 -0.63334009996E+02  0.10893116624E+03  0.12865810795E+03  0.21921474527E+03  0.12500000000E+03 0.  0.
         25    1    1    2    0    0  0.72616508640E+02 -0.20825440005E+03  0.16870251331E+03  0.30451369503E+03  0.12500000000E+03 0.  0.
</event>
<event>
 5    0  0.5474724E-005  0.3116969E+03  0.7546771E-02  0.1079535E+00
         21   -1    0    0  502  501  0.00000000000E+00  0.00000000000E+00  0.12681263977E+03  0.12681263977E+03  0.00000000000E+00 0. -1.
         21   -1    0    0  501  502 -0.00000000000E+00 -0.00000000000E+00 -0.76612982705E+03  0.76612982705E+03  0.00000000000E+00 0. -1.
         25    1    1    2    0    0 -0.69589071984E+02 -0.84043246547E+02 -0.15658297514E+03  0.22814279374E+03  0.12500000000E+03 0.  0.
         25    1    1    2    0    0  0.56843368859E+02  0.22274260672E+03 -0.21791692669E+03  0.34052639306E+03  0.12500000000E+03 0.  0.
         25    1    1    2    0    0  0.12745703126E+02 -0.13869936018E+03 -0.26481728544E+03  0.32427328001E+03  0.12500000000E+03 0.  0.
</event>
<event>
 5    0  0.5474724E-005  0.3961574E+03  0.7546771E-02  0.1045118E+00
         21   -1    0    0  502  501  0.00000000000E+00  0.00000000000E+00  0.25357121731E+04  0.25357121731E+04  0.00000000000E+00 0. -1.
         21   -1    0    0  501  502 -0.00000000000E+00 -0.00000000000E+00 -0.61892149340E+02  0.61892149340E+02  0.00000000000E+00 0. -1.
         25    1    1    2    0    0  0.84371052953E+01 -0.35764067649E+02  0.69926914023E+03  0.71130344000E+03  0.12500000000E+03 0.  0.
         25    1    1    2    0    0 -0.22171714420E+02  0.15795344919E+03  0.16698055964E+04  0.16820572543E+04  0.12500000000E+03 0.  0.
         25    1    1    2    0    0  0.13734609125E+02 -0.12218938154E+03  0.10474528711E+03  0.20424362810E+03  0.12500000000E+03 0.  0.
</event>
<event>
 5    0  0.5474724E-005  0.3851052E+03  0.7546771E-02  0.1049063E+00
         21   -1    0    0  502  501  0.00000000000E+00  0.00000000000E+00  0.10253986249E+04  0.10253986249E+04  0.00000000000E+00 0. -1.
         21   -1    0    0  501  502 -0.00000000000E+00 -0.00000000000E+00 -0.14463257957E+03  0.14463257957E+03  0.00000000000E+00 0. -1.
         25    1    1    2    0    0 -0.20057456609E+03  0.37434973022E+02  0.10298607504E+03  0.26050463608E+03  0.12500000000E+03 0.  0.
         25    1    1    2    0    0  0.10900260250E+03 -0.11663860004E+03  0.13496042501E+03  0.24356815615E+03  0.12500000000E+03 0.  0.
         25    1    1    2    0    0  0.91571963590E+02  0.79203627022E+02  0.64281954526E+03  0.66595841223E+03  0.12500000000E+03 0.  0.
</event>
<event>
 5    0  0.5474724E-005  0.3189818E+03  0.7546771E-02  0.1076119E+00
         21   -1    0    0  502  501  0.00000000000E+00  0.00000000000E+00  0.22260345908E+03  0.22260345908E+03  0.00000000000E+00 0.  1.
         21   -1    0    0  501  502 -0.00000000000E+00 -0.00000000000E+00 -0.45708805740E+03  0.45708805740E+03  0.00000000000E+00 0.  1.
         25    1    1    2    0    0  0.43934480590E+02  0.18084509621E+03 -0.39458372552E+02  0.22763380806E+03  0.12500000000E+03 0.  0.
         25    1    1    2    0    0  0.10019036204E+03 -0.12489548288E+03 -0.60290660608E+02  0.21188901351E+03  0.12500000000E+03 0.  0.
         25    1    1    2    0    0 -0.14412484263E+03 -0.55949613329E+02 -0.13473556515E+03  0.24016869491E+03  0.12500000000E+03 0.  0.
</event>
<event>
 5    0  0.5474724E-005  0.2388006E+03  0.7546771E-02  0.1120594E+00
         21   -1    0    0  502  501  0.00000000000E+00  0.00000000000E+00  0.50719156999E+03  0.50719156999E+03  0.00000000000E+00 0.  1.
         21   -1    0    0  501  502 -0.00000000000E+00 -0.00000000000E+00 -0.11243431202E+03  0.11243431202E+03  0.00000000000E+00 0.  1.
         25    1    1    2    0    0 -0.21946392446E+02  0.20781957833E+02  0.21014400377E+03  0.24637174398E+03  0.12500000000E+03 0.  0.
         25    1    1    2    0    0 -0.31227394911E+02 -0.84014886884E+02  0.15903913270E+03  0.22125120823E+03  0.12500000000E+03 0.  0.
         25    1    1    2    0    0  0.53173787357E+02  0.63232929051E+02  0.25574121501E+02  0.15200292980E+03  0.12500000000E+03 0.  0.
</event>
<event>
 5    0  0.5474724E-005  0.4484989E+03  0.7546771E-02  0.1028171E+00
         21   -1    0    0  502  501  0.00000000000E+00  0.00000000000E+00  0.20458645656E+04  0.20458645656E+04  0.00000000000E+00 0. -1.
         21   -1    0    0  501  502 -0.00000000000E+00 -0.00000000000E+00 -0.98320926807E+02  0.98320926807E+02  0.00000000000E+00 0. -1.
         25    1    1    2    0    0  0.10156272863E+03 -0.11748982513E+03  0.64267980246E+03  0.67289016589E+03  0.12500000000E+03 0.  0.
         25    1    1    2    0    0 -0.16066761074E+03  0.25160362329E+03  0.27838118083E+03  0.42689524035E+03  0.12500000000E+03 0.  0.
         25    1    1    2    0    0  0.59104882106E+02 -0.13411379816E+03  0.10264826555E+04  0.10444000862E+04  0.12500000000E+03 0.  0.
</event>
<event>
 5    0  0.5474724E-005  0.4523187E+03  0.7546771E-02  0.1027033E+00
         21   -1    0    0  502  501  0.00000000000E+00  0.00000000000E+00  0.15888513218E+03  0.15888513218E+03  0.00000000000E+00 0. -1.
         21   -1    0    0  501  502 -0.00000000000E+00 -0.00000000000E+00 -0.12876738954E+04  0.12876738954E+04  0.00000000000E+00 0. -1.
         25    1    1    2    0    0  0.17667504300E+02 -0.20566662616E+03 -0.75287738433E+03  0.79060752441E+03  0.12500000000E+03 0.  0.
         25    1    1    2    0    0 -0.19441097793E+03  0.74888326615E+02 -0.58141422130E+02  0.24981856371E+03  0.12500000000E+03 0.  0.
         25    1    1    2    0    0  0.17674347363E+03  0.13077829954E+03 -0.31776995679E+03  0.40613293949E+03  0.12500000000E+03 0.  0.
</event>
<event>
 5    0  0.5474724E-005  0.4259562E+03  0.7546771E-02  0.1035145E+00
         21   -1    0    0  502  501  0.00000000000E+00  0.00000000000E+00  0.93538614401E+03  0.93538614401E+03  0.00000000000E+00 0. -1.
         21   -1    0    0  501  502 -0.00000000000E+00 -0.00000000000E+00 -0.19397200604E+03  0.19397200604E+03  0.00000000000E+00 0. -1.
         25    1    1    2    0    0  0.78132868852E+02  0.24835275720E+02  0.38186536231E+03  0.41008254175E+03  0.12500000000E+03 0.  0.
         25    1    1    2    0    0 -0.23295310465E+03 -0.13841364150E+03  0.38681205403E+03  0.48854278243E+03  0.12500000000E+03 0.  0.
         25    1    1    2    0    0  0.15482023580E+03  0.11357836578E+03 -0.27263278371E+02  0.23073282587E+03  0.12500000000E+03 0.  0.
</event>
<event>
 5    0  0.5474724E-005  0.2418891E+03  0.7546771E-02  0.1118541E+00
         21   -1    0    0  502  501  0.00000000000E+00  0.00000000000E+00  0.57639689687E+02  0.57639689687E+02  0.00000000000E+00 0. -1.
         21   -1    0    0  501  502 -0.00000000000E+00 -0.00000000000E+00 -0.10151049533E+04  0.10151049533E+04  0.00000000000E+00 0. -1.
         25    1    1    2    0    0  0.46715726152E+02 -0.97805370633E+01 -0.30372675399E+03  0.33189299339E+03  0.12500000000E+03 0.  0.
         25    1    1    2    0    0 -0.48181187762E+02 -0.14301805736E+02 -0.87890359270E+02  0.16085920475E+03  0.12500000000E+03 0.  0.
         25    1    1    2    0    0  0.14654616094E+01  0.24082342799E+02 -0.56584815039E+03  0.57999244488E+03  0.12500000000E+03 0.  0.
</event>
<event>
 5    0  0.5474724E-005  0.3598950E+03  0.7546771E-02  0.1058625E+00
         21   -1    0    0  502  501  0.00000000000E+00  0.00000000000E+00  0.12760541771E+04  0.12760541771E+04  0.00000000000E+00 0.  1.
         21   -1    0    0  501  502 -0.00000000000E+00 -0.00000000000E+00 -0.10150386602E+03  0.10150386602E+03  0.00000000000E+00 0.  1.
         25    1    1    2    0    0  0.85993909386E+02 -0.63143642924E+02  0.44815569333E+02  0.17033938872E+03  0.12500000000E+03 0.  0.
         25    1    1    2    0    0  0.95420328582E+02  0.12022090416E+03  0.52455536067E+03  0.56066160142E+03  0.12500000000E+03 0.  0.
         25    1    1    2    0    0 -0.18141423797E+03 -0.57077261236E+02  0.60517938104E+03  0.64655705295E+03  0.12500000000E+03 0.  0.
</event>
<event>
 5    0  0.5474724E-005  0.2145421E+03  0.7546771E-02  0.1138019E+00
         21   -1    0    0  502  501  0.00000000000E+00  0.00000000000E+00  0.12150156181E+03  0.12150156181E+03  0.00000000000E+00 0. -1.
         21   -1    0    0  501  502 -0.00000000000E+00 -0.00000000000E+00 -0.37882898298E+03  0.37882898298E+03  0.00000000000E+00 0. -1.
         25    1    1    2    0    0 -0.59290720743E+02 -0.45988730368E+02 -0.81997977652E+02  0.16726930748E+03  0.12500000000E+03 0.  0.
         25    1    1    2    0    0  0.38911370361E+02 -0.13954333436E+02 -0.13190465633E+03  0.18636699420E+03  0.12500000000E+03 0.  0.
         25    1    1    2    0    0  0.20379350382E+02  0.59943063804E+02 -0.43424787196E+02  0.14669424312E+03  0.12500000000E+03 0.  0.
</event>
<event>
 5    0  0.5474724E-005  0.3072918E+03  0.7546771E-02  0.1081651E+00
         21   -1    0    0  502  501  0.00000000000E+00  0.00000000000E+00  0.92844501578E+02  0.92844501578E+02  0.00000000000E+00 0.  1.
         21   -1    0    0  501  502 -0.00000000000E+00 -0.00000000000E+00 -0.10170577884E+04  0.10170577884E+04  0.00000000000E+00 0.  1.
         25    1    1    2    0    0  0.10832314443E+03  0.14614536373E+03 -0.34654237678E+03  0.41086371203E+03  0.12500000000E+03 0.  0.
         25    1    1    2    0    0 -0.86563145193E+02 -0.39277433112E+02 -0.83688600932E+02  0.17794571302E+03  0.12500000000E+03 0.  0.
         25    1    1    2    0    0 -0.21759999238E+02 -0.10686793062E+03 -0.49398230915E+03  0.52109286496E+03  0.12500000000E+03 0.  0.
</event>
<event>
 5    0  0.5474724E-005  0.2613380E+03  0.7546771E-02  0.1106342E+00
         21   -1    0    0  502  501  0.00000000000E+00  0.00000000000E+00  0.32250233912E+04  0.32250233912E+04  0.00000000000E+00 0. -1.
         21   -1    0    0  501  502 -0.00000000000E+00 -0.00000000000E+00 -0.21177376161E+02  0.21177376161E+02  0.00000000000E+00 0. -1.
         25    1    1    2    0    0 -0.40858706847E+01 -0.79748292787E+01  0.13219833504E+04  0.13279101141E+04  0.12500000000E+03 0.  0.
         25    1    1    2    0    0  0.11144137599E+03 -0.55476522073E+02  0.12437881027E+04  0.12562367091E+04  0.12500000000E+03 0.  0.
         25    1    1    2    0    0 -0.10735550531E+03  0.63451351352E+02  0.63807456192E+03  0.66205394424E+03  0.12500000000E+03 0.  0.
</event>
<event>
 5    0  0.5474724E-005  0.2901805E+03  0.7546771E-02  0.1090255E+00
         21   -1    0    0  502  501  0.00000000000E+00  0.00000000000E+00  0.35075349647E+02  0.35075349647E+02  0.00000000000E+00 0.  1.
         21   -1    0    0  501  502 -0.00000000000E+00 -0.00000000000E+00 -0.24006803232E+04  0.24006803232E+04  0.00000000000E+00 0.  1.
         25    1    1    2    0    0  0.44809801627E+02 -0.98696579448E+02 -0.51634301698E+03  0.54220295490E+03  0.12500000000E+03 0.  0.
         25    1    1    2    0    0 -0.65227463710E+02  0.12317021594E+03 -0.16175824136E+04  0.16283806032E+04  0.12500000000E+03 0.  0.
         25    1    1    2    0    0  0.20417662084E+02 -0.24473636492E+02 -0.23167954303E+03  0.26517211480E+03  0.12500000000E+03 0.  0.
</event>
<event>
 5    0  0.5474724E-005  0.4931633E+03  0.7546771E-02  0.1015579E+00
         21   -1    0    0  502  501  0.00000000000E+00  0.00000000000E+00  0.13307156888E+04  0.13307156888E+04  0.00000000000E+00 0. -1.
         21   -1    0    0  501  502 -0.00000000000E+00 -0.00000000000E+00 -0.18276632432E+03  0.18276632432E+03  0.00000000000E+00 0. -1.
         25    1    1    2    0    0  0.25936737360E+02 -0.25280874472E+03  0.99363685998E+03  0.10332106200E+04  0.12500000000E+03 0.  0.
         25    1    1    2    0    0  0.77781744484E+00  0.24582068014E+03  0.20391970653E+03  0.34298200900E+03  0.12500000000E+03 0.  0.
         25    1    1    2    0    0 -0.26714554804E+02  0.69880645833E+01 -0.49607202070E+02  0.13728938408E+03  0.12500000000E+03 0.  0.
</event>
<event>
 5    0  0.5474724E-005  0.3174784E+03  0.7546771E-02  0.1076816E+00
         21   -1    0    0  502  501  0.00000000000E+00  0.00000000000E+00  0.10231886150E+03  0.10231886150E+03  0.00000000000E+00 0.  1.
         21   -1    0    0  501  502 -0.00000000000E+00 -0.00000000000E+00 -0.98508240446E+03  0.98508240446E+03  0.00000000000E+00 0.  1.
         25    1    1    2    0    0  0.18158862164E+02  0.19919082179E+03 -0.30105469943E+03  0.38244693725E+03  0.12500000000E+03 0.  0.
         25    1    1    2    0    0 -0.10938913646E+03 -0.11755095038E+03 -0.42002068610E+03  0.46671895811E+03  0.12500000000E+03 0.  0.
         25    1    1    2    0    0  0.91230274292E+02 -0.81639871407E+02 -0.16168815743E+03  0.23823537060E+03  0.12500000000E+03 0.  0.
</event>
<event>
 5    0  0.5474724E-005  0.3302844E+03  0.7546771E-02  0.1071011E+00
         21   -1    0    0  502  501  0.00000000000E+00  0.00000000000E+00  0.13437208375E+03  0.13437208375E+03  0.00000000000E+00 0.  1.
         21   -1    0    0  501  502 -0.00000000000E+00 -0.00000000000E+00 -0.81183383086E+03  0.81183383086E+03  0.00000000000E+00 0.  1.
         25    1    1    2    0    0  0.81587248557E+02 -0.12547069523E+03 -0.17139268030E+03  0.25961476335E+03  0.12500000000E+03 0.  0.
         25    1    1    2    0    0 -0.84631275868E+02  0.20812027262E+03 -0.14390175840E+03  0.29463403877E+03  0.12500000000E+03 0.  0.
         25    1    1    2    0    0  0.30440273115E+01 -0.82649577397E+02 -0.36216730841E+03  0.39195711249E+03  0.12500000000E+03 0.  0.
</event>
<event>
 5    0  0.5474724E-005  0.2884195E+03  0.7546771E-02  0.1091177E+00
         21   -1    0    0  502  501  0.00000000000E+00  0.00000000000E+00  0.26109127727E+03  0.26109127727E+03  0.00000000000E+00 0. -1.
         21   -1    0    0  501  502 -0.00000000000E+00 -0.00000000000E+00 -0.31860804606E+03  0.31860804606E+03  0.00000000000E+00 0. -1.
         25    1    1    2    0    0 -0.63702028398E+02 -0.15495410732E+03 -0.70083658566E+02  0.22046642147E+03  0.12500000000E+03 0.  0.
         25    1    1    2    0    0  0.40567894894E+02  0.17152659596E+03  0.57132894673E+02  0.22350904874E+03  0.12500000000E+03 0.  0.
         25    1    1    2    0    0  0.23134133504E+02 -0.16572488636E+02 -0.44566004891E+02  0.13572385312E+03  0.12500000000E+03 0.  0.
</event>
<event>
 5    0  0.5474724E-005  0.3899384E+03  0.7546771E-02  0.1047320E+00
         21   -1    0    0  502  501  0.00000000000E+00  0.00000000000E+00  0.65134777988E+03  0.65134777988E+03  0.00000000000E+00 0.  1.
         21   -1    0    0  501  502 -0.00000000000E+00 -0.00000000000E+00 -0.23344210128E+03  0.23344210128E+03  0.00000000000E+00 0. -1.
         25    1    1    2    0    0  0.29549001743E+03 -0.30455332035E+01  0.20859096906E+03  0.38269938339E+03  0.12500000000E+03 0.  0.
         25    1    1    2    0    0 -0.11254835638E+03  0.51656096748E+01 -0.35400608751E+02  0.17196516841E+03  0.12500000000E+03 0.  0.
         25    1    1    2    0    0 -0.18294166105E+03 -0.21200764712E+01  0.24471531830E+03  0.33012532936E+03  0.12500000000E+03 0.  0.
</event>
<event>
 5    0  0.5474724E-005  0.2537868E+03  0.7546771E-02  0.1110935E+00
         21   -1    0    0  502  501  0.00000000000E+00  0.00000000000E+00  0.27922744705E+03  0.27922744705E+03  0.00000000000E+00 0. -1.
         21   -1    0    0  501  502 -0.00000000000E+00 -0.00000000000E+00 -0.23066413756E+03  0.23066413756E+03  0.00000000000E+00 0. -1.
         25    1    1    2    0    0 -0.59302206117E+02  0.32179517457E+02  0.79219397571E+02  0.16264373934E+03  0.12500000000E+03 0.  0.
         25    1    1    2    0    0 -0.59185227597E+02 -0.82367914080E+02  0.16332287568E+02  0.16179959225E+03  0.12500000000E+03 0.  0.
         25    1    1    2    0    0  0.11848743371E+03  0.50188396623E+02 -0.46988375654E+02  0.18544825303E+03  0.12500000000E+03 0.  0.
</event>
<event>
 5    0  0.5474724E-005  0.4111094E+03  0.7546771E-02  0.1039999E+00
         21   -1    0    0  502  501  0.00000000000E+00  0.00000000000E+00  0.83111980569E+02  0.83111980569E+02  0.00000000000E+00 0. -1.
         21   -1    0    0  501  502 -0.00000000000E+00 -0.00000000000E+00 -0.20335331553E+04  0.20335331553E+04  0.00000000000E+00 0. -1.
         25    1    1    2    0    0 -0.27697653272E+03 -0.70722279674E+02 -0.11069963623E+04  0.11501232920E+04  0.12500000000E+03 0.  0.
         25    1    1    2    0    0  0.22516775772E+02  0.76964132124E+00 -0.82408545840E+02  0.15140596410E+03  0.12500000000E+03 0.  0.
         25    1    1    2    0    0  0.25445975695E+03  0.69952638353E+02 -0.76101626652E+03  0.81511587975E+03  0.12500000000E+03 0.  0.
</event>
<event>
 5    0  0.5474724E-005  0.2634068E+03  0.7546771E-02  0.1105113E+00
         21   -1    0    0  502  501  0.00000000000E+00  0.00000000000E+00  0.16347157035E+03  0.16347157035E+03  0.00000000000E+00 0. -1.
         21   -1    0    0  501  502 -0.00000000000E+00 -0.00000000000E+00 -0.42443556601E+03  0.42443556601E+03  0.00000000000E+00 0. -1.
         25    1    1    2    0    0  0.39612930446E+02  0.74708178192E+02 -0.89318840683E+02  0.17536633499E+03  0.12500000000E+03 0.  0.
         25    1    1    2    0    0  0.89775314127E+02 -0.11280236266E+03 -0.77526333199E+02  0.20595949210E+03  0.12500000000E+03 0.  0.
         25    1    1    2    0    0 -0.12938824457E+03  0.38094184467E+02 -0.94118821781E+02  0.20658130926E+03  0.12500000000E+03 0.  0.
</event>
<event>
 5    0  0.5474724E-005  0.2526768E+03  0.7546771E-02  0.1111625E+00
         21   -1    0    0  502  501  0.00000000000E+00  0.00000000000E+00  0.14579935618E+03  0.14579935618E+03  0.00000000000E+00 0.  1.
         21   -1    0    0  501  502 -0.00000000000E+00 -0.00000000000E+00 -0.43790031255E+03  0.43790031255E+03  0.00000000000E+00 0.  1.
         25    1    1    2    0    0  0.61312413975E+02  0.31499582020E+02  0.58725662168E+01  0.14286680093E+03  0.12500000000E+03 0.  0.
         25    1    1    2    0    0 -0.29567811552E+02 -0.95019553363E+02 -0.23432147517E+03  0.28360981070E+03  0.12500000000E+03 0.  0.
         25    1    1    2    0    0 -0.31744602424E+02  0.63519971344E+02 -0.63652047422E+02  0.15722305710E+03  0.12500000000E+03 0.  0.
</event>
<event>
 5    0  0.5474724E-005  0.6792881E+03  0.7546771E-02  0.9753323E-01
         21   -1    0    0  502  501  0.00000000000E+00  0.00000000000E+00  0.25531630616E+04  0.25531630616E+04  0.00000000000E+00 0. -1.
         21   -1    0    0  501  502 -0.00000000000E+00 -0.00000000000E+00 -0.18072969280E+03  0.18072969280E+03  0.00000000000E+00 0. -1.
         25    1    1    2    0    0 -0.38659454994E+02 -0.14866586696E+03  0.95636523853E+02  0.21992598335E+03  0.12500000000E+03 0.  0.
         25    1    1    2    0    0  0.33721567054E+03 -0.22390333595E+03  0.17133152286E+04  0.17649139313E+04  0.12500000000E+03 0.  0.
         25    1    1    2    0    0 -0.29855621554E+03  0.37256920291E+03  0.56348161635E+03  0.74905283976E+03  0.12500000000E+03 0.  0.
</event>
<event>
 5    0  0.5474724E-005  0.3967987E+03  0.7546771E-02  0.1044894E+00
         21   -1    0    0  502  501  0.00000000000E+00  0.00000000000E+00  0.70633227202E+03  0.70633227202E+03  0.00000000000E+00 0. -1.
         21   -1    0    0  501  502 -0.00000000000E+00 -0.00000000000E+00 -0.22291100411E+03  0.22291100411E+03  0.00000000000E+00 0. -1.
         25    1    1    2    0    0 -0.44184844545E+02  0.93137511058E+00  0.13195072113E+03  0.18705389799E+03  0.12500000000E+03 0.  0.
         25    1    1    2    0    0 -0.10101588146E+03 -0.17006957986E+03 -0.74384609234E+02  0.24553195391E+03  0.12500000000E+03 0.  0.
         25    1    1    2    0    0  0.14520072601E+03  0.16913820475E+03  0.42585515601E+03  0.49665742423E+03  0.12500000000E+03 0.  0.
</event>
<event>
 5    0  0.5474724E-005  0.2568340E+03  0.7546771E-02  0.1109060E+00
         21   -1    0    0  502  501  0.00000000000E+00  0.00000000000E+00  0.22598803461E+02  0.22598803461E+02  0.00000000000E+00 0. -1.
         21   -1    0    0  501  502 -0.00000000000E+00 -0.00000000000E+00 -0.29189029401E+04  0.29189029401E+04  0.00000000000E+00 0. -1.
         25    1    1    2    0    0  0.15879071759E+02  0.73956691612E+02 -0.46525070737E+03  0.48765249704E+03  0.12500000000E+03 0.  0.
         25    1    1    2    0    0  0.16042475166E+02 -0.42406299451E+00 -0.45223161436E+03  0.46946349577E+03  0.12500000000E+03 0.  0.
         25    1    1    2    0    0 -0.31921546925E+02 -0.73532628617E+02 -0.19788218149E+04  0.19843857507E+04  0.12500000000E+03 0.  0.
</event>
<event>
 5    0  0.5782004E-005  0.2973242E+03  0.7546771E-02  0.1086586E+00
         21   -1    0    0  502  501  0.00000000000E+00  0.00000000000E+00  0.30451725485E+03  0.30451725485E+03  0.00000000000E+00 0. -1.
         21   -1    0    0  501  502 -0.00000000000E+00 -0.00000000000E+00 -0.29030111730E+03  0.29030111730E+03  0.00000000000E+00 0. -1.
         25    1    1    2    0    0 -0.58727815345E+01 -0.97111853032E+02 -0.68680142554E+02  0.17264751242E+03  0.12500000000E+03 0.  0.
         25    1    1    2    0    0  0.57367548694E+02 -0.82020610133E+02 -0.41707576337E+02  0.16547790805E+03  0.12500000000E+03 0.  0.
         25    1    1    2    0    0 -0.51494767160E+02  0.17913246317E+03  0.12460385644E+03  0.25669295168E+03  0.12500000000E+03 0.  0.
</event>
<event>
 5    0  0.5474724E-005  0.3295406E+03  0.7546771E-02  0.1071340E+00
         21   -1    0    0  502  501  0.00000000000E+00  0.00000000000E+00  0.22704270343E+03  0.22704270343E+03  0.00000000000E+00 0. -1.
         21   -1    0    0  501  502 -0.00000000000E+00 -0.00000000000E+00 -0.47831089936E+03  0.47831089936E+03  0.00000000000E+00 0. -1.
         25    1    1    2    0    0  0.46561417150E+02 -0.57128455187E+02  0.19199347570E+02  0.14637363460E+03  0.12500000000E+03 0.  0.
         25    1    1    2    0    0 -0.16159139677E+03  0.18560074876E+03 -0.16037896574E+03  0.31922692571E+03  0.12500000000E+03 0.  0.
         25    1    1    2    0    0  0.11502997962E+03 -0.12847229357E+03 -0.11008857776E+03  0.23975304248E+03  0.12500000000E+03 0.  0.
</event>
<event>
 5    0  0.5474724E-005  0.3519447E+03  0.7546771E-02  0.1061820E+00
         21   -1    0    0  502  501  0.00000000000E+00  0.00000000000E+00  0.18121227349E+03  0.18121227349E+03  0.00000000000E+00 0. -1.
         21   -1    0    0  501  502 -0.00000000000E+00 -0.00000000000E+00 -0.68353569356E+03  0.68353569356E+03  0.00000000000E+00 0. -1.
         25    1    1    2    0    0  0.10685142400E+03  0.34679689008E+02 -0.22789778323E+03  0.28316480579E+03  0.12500000000E+03 0.  0.
         25    1    1    2    0    0  0.46063447228E+02 -0.19541078586E+03 -0.49057704662E+02  0.24153441740E+03  0.12500000000E+03 0.  0.
         25    1    1    2    0    0 -0.15291487123E+03  0.16073109686E+03 -0.22536793218E+03  0.34004874385E+03  0.12500000000E+03 0.  0.
</event>
<event>
 5    0  0.5474724E-005  0.2414999E+03  0.7546771E-02  0.1118798E+00
         21   -1    0    0  502  501  0.00000000000E+00  0.00000000000E+00  0.27527481837E+03  0.27527481837E+03  0.00000000000E+00 0.  1.
         21   -1    0    0  501  502 -0.00000000000E+00 -0.00000000000E+00 -0.21186904527E+03  0.21186904527E+03  0.00000000000E+00 0.  1.
         25    1    1    2    0    0  0.37266438258E+02  0.45017927550E+01  0.78052278155E+02  0.15207304720E+03  0.12500000000E+03 0.  0.
         25    1    1    2    0    0 -0.53329991142E+02  0.43065583902E+02 -0.10131217846E+03  0.17489393922E+03  0.12500000000E+03 0.  0.
         25    1    1    2    0    0  0.16063552884E+02 -0.47567376657E+02  0.86665673402E+02  0.16017687723E+03  0.12500000000E+03 0.  0.
</event>
<event>
 5    0  0.5474724E-005  0.5015925E+03  0.7546771E-02  0.1013364E+00
         21   -1    0    0  502  501  0.00000000000E+00  0.00000000000E+00  0.10879185699E+04  0.10879185699E+04  0.00000000000E+00 0.  1.
         21   -1    0    0  501  502 -0.00000000000E+00 -0.00000000000E+00 -0.23126270101E+03  0.23126270101E+03  0.00000000000E+00 0.  1.
         25    1    1    2    0    0 -0.87822979529E+02  0.32783366106E+01  0.24137086748E+03  0.28567204780E+03  0.12500000000E+03 0.  0.
         25    1    1    2    0    0 -0.18077719058E+03 -0.49195148858E+02 -0.10857023226E+03  0.25002609991E+03  0.12500000000E+03 0.  0.
         25    1    1    2    0    0  0.26860017011E+03  0.45916812248E+02  0.72385523367E+03  0.78348312320E+03  0.12500000000E+03 0.  0.
</event>
<event>
 5    0  0.5474724E-005  0.2257582E+03  0.7546771E-02  0.1129661E+00
         21   -1    0    0  502  501  0.00000000000E+00  0.00000000000E+00  0.33954905448E+03  0.33954905448E+03  0.00000000000E+00 0.  1.
         21   -1    0    0  501  502 -0.00000000000E+00 -0.00000000000E+00 -0.15010128460E+03  0.15010128460E+03  0.00000000000E+00 0.  1.
         25    1    1    2    0    0  0.40888897634E+02 -0.26111854809E+01  0.54114924357E+02  0.14223974577E+03  0.12500000000E+03 0.  0.
         25    1    1    2    0    0 -0.24678879194E+02  0.57326016067E+02  0.15491542711E+03  0.20861234085E+03  0.12500000000E+03 0.  0.
         25    1    1    2    0    0 -0.16210018439E+02 -0.54714830586E+02 -0.19582581598E+02  0.13879825246E+03  0.12500000000E+03 0.  0.
</event>
<event>
 5    0  0.5474724E-005  0.2452468E+03  0.7546771E-02  0.1116346E+00
         21   -1    0    0  502  501  0.00000000000E+00  0.00000000000E+00  0.38436290934E+02  0.38436290934E+02  0.00000000000E+00 0.  1.
         21   -1    0    0  501  502 -0.00000000000E+00 -0.00000000000E+00 -0.15648228846E+04  0.15648228846E+04  0.00000000000E+00 0.  1.
         25    1    1    2    0    0 -0.37927159432E+02 -0.59382406041E+02 -0.74430330899E+03  0.75800867762E+03  0.12500000000E+03 0.  0.
         25    1    1    2    0    0  0.91555643372E+01 -0.56322475842E+02 -0.45578540237E+03  0.47604766427E+03  0.12500000000E+03 0.  0.
         25    1    1    2    0    0  0.28771595095E+02  0.11570488188E+03 -0.32629788231E+03  0.36920283365E+03  0.12500000000E+03 0.  0.
</event>
<event>
 5    0  0.5934809E-005  0.4448267E+03  0.7546771E-02  0.1029276E+00
         21   -1    0    0  502  501  0.00000000000E+00  0.00000000000E+00  0.27893419292E+03  0.27893419292E+03  0.00000000000E+00 0.  1.
         21   -1    0    0  501  502 -0.00000000000E+00 -0.00000000000E+00 -0.70938157672E+03  0.70938157672E+03  0.00000000000E+00 0.  1.
         25    1    1    2    0    0  0.17432309147E+03  0.22061773458E+03 -0.16028448051E+03  0.34695365645E+03  0.12500000000E+03 0.  0.
         25    1    1    2    0    0 -0.12906918246E+03 -0.18388451373E+03  0.76529772494E+02  0.26824275261E+03  0.12500000000E+03 0.  0.
         25    1    1    2    0    0 -0.45253909009E+02 -0.36733220859E+02 -0.34669267579E+03  0.37311936058E+03  0.12500000000E+03 0.  0.
</event>
<event>
 5    0  0.5474724E-005  0.2717045E+03  0.7546771E-02  0.1100308E+00
         21   -1    0    0  502  501  0.00000000000E+00  0.00000000000E+00  0.38233883651E+03  0.38233883651E+03  0.00000000000E+00 0. -1.
         21   -1    0    0  501  502 -0.00000000000E+00 -0.00000000000E+00 -0.19308357732E+03  0.19308357732E+03  0.00000000000E+00 0. -1.
         25    1    1    2    0    0 -0.11248891882E+03 -0.48608036380E+02  0.51939062667E+02  0.18259015387E+03  0.12500000000E+03 0.  0.
         25    1    1    2    0    0 -0.16379526283E+02 -0.72711009767E+02  0.89779686483E+02  0.17099874832E+03  0.12500000000E+03 0.  0.
         25    1    1    2    0    0  0.12886844510E+03  0.12131904615E+03  0.47536510039E+02  0.22183351164E+03  0.12500000000E+03 0.  0.
</event>
<event>
 5    0  0.5474724E-005  0.4182729E+03  0.7546771E-02  0.1037630E+00
         21   -1    0    0  502  501  0.00000000000E+00  0.00000000000E+00  0.98302775708E+02  0.98302775708E+02  0.00000000000E+00 0.  1.
         21   -1    0    0  501  502 -0.00000000000E+00 -0.00000000000E+00 -0.17797279346E+04  0.17797279346E+04  0.00000000000E+00 0.  1.
         25    1    1    2    0    0  0.17405367205E+03 -0.29583666551E+02 -0.14544719205E+03  0.26067174714E+03  0.12500000000E+03 0.  0.
         25    1    1    2    0    0 -0.81178298558E+02 -0.10917939790E+03 -0.12489837778E+04  0.12625749618E+04  0.12500000000E+03 0.  0.
         25    1    1    2    0    0 -0.92875373496E+02  0.13876306445E+03 -0.28699418913E+03  0.35478400140E+03  0.12500000000E+03 0.  0.
</event>
<event>
 5    0  0.5474724E-005  0.2669385E+03  0.7546771E-02  0.1103045E+00
         21   -1    0    0  502  501  0.00000000000E+00  0.00000000000E+00  0.28049652532E+03  0.28049652532E+03  0.00000000000E+00 0.  1.
         21   -1    0    0  501  502 -0.00000000000E+00 -0.00000000000E+00 -0.25403588758E+03  0.25403588758E+03  0.00000000000E+00 0.  1.
         25    1    1    2    0    0  0.38057272224E+02  0.10332940016E+01  0.10366002088E+02  0.13107966152E+03  0.12500000000E+03 0.  0.
         25    1    1    2    0    0  0.71896174598E+02 -0.12827830318E+03  0.18645106305E+02  0.19389951773E+03  0.12500000000E+03 0.  0.
         25    1    1    2    0    0 -0.10995344682E+03  0.12724500918E+03 -0.25504706509E+01  0.20955323364E+03  0.12500000000E+03 0.  0.
</event>
<event>
 5    0  0.5474724E-005  0.2799483E+03  0.7546771E-02  0.1095717E+00
         21   -1    0    0  502  501  0.00000000000E+00  0.00000000000E+00  0.66633490471E+03  0.66633490471E+03  0.00000000000E+00 0.  1.
         21   -1    0    0  501  502 -0.00000000000E+00 -0.00000000000E+00 -0.11761511223E+03  0.11761511223E+03  0.00000000000E+00 0.  1.
         25    1    1    2    0    0 -0.33347677114E+02  0.54517918205E+02  0.23527561725E+03  0.27397789518E+03  0.12500000000E+03 0.  0.
         25    1    1    2    0    0  0.42480795107E+01 -0.11588267104E+03  0.32524248319E+03  0.36722542463E+03  0.12500000000E+03 0.  0.
         25    1    1    2    0    0  0.29099597603E+02  0.61364752831E+02 -0.11798307956E+02  0.14274669713E+03  0.12500000000E+03 0.  0.
</event>
<event>
 5    0  0.5474724E-005  0.3094392E+03  0.7546771E-02  0.1080615E+00
         21   -1    0    0  502  501  0.00000000000E+00  0.00000000000E+00  0.18858387401E+03  0.18858387401E+03  0.00000000000E+00 0.  1.
         21   -1    0    0  501  502 -0.00000000000E+00 -0.00000000000E+00 -0.50774542133E+03  0.50774542133E+03  0.00000000000E+00 0.  1.
         25    1    1    2    0    0  0.12653371277E+03  0.24689331347E+02  0.81885874611E+01  0.17975649228E+03  0.12500000000E+03 0.  0.
         25    1    1    2    0    0  0.78203039473E+02 -0.54285344890E+02 -0.14497078412E+03  0.21378527148E+03  0.12500000000E+03 0.  0.
         25    1    1    2    0    0 -0.20473675225E+03  0.29596013543E+02 -0.18237935067E+03  0.30278753159E+03  0.12500000000E+03 0.  0.
</event>
<event>
 5    0  0.5474724E-005  0.2348454E+03  0.7546771E-02  0.1123275E+00
         21   -1    0    0  502  501  0.00000000000E+00  0.00000000000E+00  0.22784000830E+03  0.22784000830E+03  0.00000000000E+00 0. -1.
         21   -1    0    0  501  502 -0.00000000000E+00 -0.00000000000E+00 -0.24206609609E+03  0.24206609609E+03  0.00000000000E+00 0. -1.
         25    1    1    2    0    0  0.16230493396E+02  0.76168341307E+02 -0.41703931542E+02  0.15306620476E+03  0.12500000000E+03 0.  0.
         25    1    1    2    0    0  0.24312310196E+02 -0.65615892835E+02  0.91808546641E+02  0.17014800338E+03  0.12500000000E+03 0.  0.
         25    1    1    2    0    0 -0.40542803591E+02 -0.10552448473E+02 -0.64330702889E+02  0.14669189625E+03  0.12500000000E+03 0.  0.
</event>
<event>
 5    0  0.5474724E-005  0.2517394E+03  0.7546771E-02  0.1112210E+00
         21   -1    0    0  502  501  0.00000000000E+00  0.00000000000E+00  0.25052922692E+03  0.25052922692E+03  0.00000000000E+00 0. -1.
         21   -1    0    0  501  502 -0.00000000000E+00 -0.00000000000E+00 -0.25295551344E+03  0.25295551344E+03  0.00000000000E+00 0. -1.
         25    1    1    2    0    0 -0.82768348706E+02 -0.20942421217E+02  0.10345967783E+02  0.15172746489E+03  0.12500000000E+03 0.  0.
         25    1    1    2    0    0 -0.77423748362E+02  0.17197605221E+02 -0.12091655614E+02  0.14853081354E+03  0.12500000000E+03 0.  0.
         25    1    1    2    0    0  0.16019209707E+03  0.37448159964E+01 -0.68059868689E+00  0.20322646192E+03  0.12500000000E+03 0.  0.
</event>
<event>
 5    0  0.5474724E-005  0.2506283E+03  0.7546771E-02  0.1112908E+00
         21   -1    0    0  502  501  0.00000000000E+00  0.00000000000E+00  0.12766606385E+03  0.12766606385E+03  0.00000000000E+00 0.  1.
         21   -1    0    0  501  502 -0.00000000000E+00 -0.00000000000E+00 -0.49202234956E+03  0.49202234956E+03  0.00000000000E+00 0.  1.
         25    1    1    2    0    0 -0.85679514314E+02  0.68660694505E+02 -0.14122116196E+03  0.21822851951E+03  0.12500000000E+03 0.  0.
         25    1    1    2    0    0  0.81668607134E+02  0.36201341432E+02 -0.17155045532E+03  0.23029298129E+03  0.12500000000E+03 0.  0.
         25    1    1    2    0    0  0.40109071801E+01 -0.10486203594E+03 -0.51584668435E+02  0.17116691262E+03  0.12500000000E+03 0.  0.
</event>
<event>
 5    0  0.5474724E-005  0.2591344E+03  0.7546771E-02  0.1107664E+00
         21   -1    0    0  502  501  0.00000000000E+00  0.00000000000E+00  0.10796155832E+03  0.10796155832E+03  0.00000000000E+00 0.  1.
         21   -1    0    0  501  502 -0.00000000000E+00 -0.00000000000E+00 -0.62198668804E+03  0.62198668804E+03  0.00000000000E+00 0.  1.
         25    1    1    2    0    0  0.59756863861E+01  0.39081354914E+02  0.48319095573E+01  0.13119225770E+03  0.12500000000E+03 0.  0.
         25    1    1    2    0    0  0.87638912227E+01 -0.54989360150E+02 -0.12634062999E+03  0.18624604776E+03  0.12500000000E+03 0.  0.
         25    1    1    2    0    0 -0.14739577609E+02  0.15908005236E+02 -0.39251640929E+03  0.41250994090E+03  0.12500000000E+03 0.  0.
</event>
<event>
 5    0  0.5474724E-005  0.4360066E+03  0.7546771E-02  0.1031979E+00
         21   -1    0    0  502  501  0.00000000000E+00  0.00000000000E+00  0.25917469291E+03  0.25917469291E+03  0.00000000000E+00 0.  1.
         21   -1    0    0  501  502 -0.00000000000E+00 -0.00000000000E+00 -0.73348895009E+03  0.73348895009E+03  0.00000000000E+00 0.  1.
         25    1    1    2    0    0 -0.17467153097E+03 -0.14729239418E+03 -0.23837432144E+03  0.35306162385E+03  0.12500000000E+03 0.  0.
         25    1    1    2    0    0 -0.90471770395E+01 -0.14953692368E+03  0.88254802672E+01  0.19531009205E+03  0.12500000000E+03 0.  0.
         25    1    1    2    0    0  0.18371870801E+03  0.29682931785E+03 -0.24476541601E+03  0.44429192710E+03  0.12500000000E+03 0.  0.
</event>
<event>
 5    0  0.5474724E-005  0.1985821E+03  0.7546771E-02  0.1150941E+00
         21   -1    0    0  502  501  0.00000000000E+00  0.00000000000E+00  0.21324075660E+03  0.21324075660E+03  0.00000000000E+00 0. -1.
         21   -1    0    0  501  502 -0.00000000000E+00 -0.00000000000E+00 -0.18493110946E+03  0.18493110946E+03  0.00000000000E+00 0. -1.
         25    1    1    2    0    0 -0.77155042605E+01 -0.15181237816E+02  0.31077891994E+02  0.12992626508E+03  0.12500000000E+03 0.  0.
         25    1    1    2    0    0 -0.44227720793E+01  0.12804474865E+02  0.45455396911E+02  0.13369632978E+03  0.12500000000E+03 0.  0.
         25    1    1    2    0    0  0.12138276340E+02  0.23767629507E+01 -0.48223641756E+02  0.13454927119E+03  0.12500000000E+03 0.  0.
</event>
<event>
 5    0  0.6211704E-005  0.3796760E+03  0.7546771E-02  0.1051054E+00
         21   -1    0    0  502  501  0.00000000000E+00  0.00000000000E+00  0.39523537710E+03  0.39523537710E+03  0.00000000000E+00 0.  1.
         21   -1    0    0  501  502 -0.00000000000E+00 -0.00000000000E+00 -0.36472912784E+03  0.36472912784E+03  0.00000000000E+00 0.  1.
         25    1    1    2    0    0  0.11715440658E+03  0.15920047430E+03  0.12300826579E+03  0.26424605853E+03  0.12500000000E+03 0.  0.
         25    1    1    2    0    0 -0.14782215722E+02 -0.23835759601E+03  0.39689249944E+02  0.27245750869E+03  0.12500000000E+03 0.  0.
         25    1    1    2    0    0 -0.10237219085E+03  0.79157121716E+02 -0.13219126647E+03  0.22326093772E+03  0.12500000000E+03 0.  0.
</event>
<event>
 5    0  0.5474724E-005  0.3589987E+03  0.7546771E-02  0.1058981E+00
         21   -1    0    0  502  501  0.00000000000E+00  0.00000000000E+00  0.22320942323E+03  0.22320942323E+03  0.00000000000E+00 0.  1.
         21   -1    0    0  501  502 -0.00000000000E+00 -0.00000000000E+00 -0.57739528589E+03  0.57739528589E+03  0.00000000000E+00 0.  1.
         25    1    1    2    0    0  0.11454519500E+03  0.98166850189E+02 -0.28550288252E+02  0.19798346177E+03  0.12500000000E+03 0.  0.
         25    1    1    2    0    0  0.46649305190E+02  0.31057389751E+02  0.58450379589E+02  0.14893678527E+03  0.12500000000E+03 0.  0.
         25    1    1    2    0    0 -0.16119450019E+03 -0.12922423994E+03 -0.38408595399E+03  0.45368446208E+03  0.12500000000E+03 0.  0.
</event>
<event>
 5    0  0.5474724E-005  0.2375575E+03  0.7546771E-02  0.1121431E+00
         21   -1    0    0  502  501  0.00000000000E+00  0.00000000000E+00  0.35549937491E+03  0.35549937491E+03  0.00000000000E+00 0. -1.
         21   -1    0    0  501  502 -0.00000000000E+00 -0.00000000000E+00 -0.15874446186E+03  0.15874446186E+03  0.00000000000E+00 0. -1.
         25    1    1    2    0    0 -0.11646522445E+02 -0.44577387639E+02  0.63929958177E+02  0.14776611427E+03  0.12500000000E+03 0.  0.
         25    1    1    2    0    0  0.13059234982E+02 -0.48260566558E+02  0.15926018278E+03  0.20853880148E+03  0.12500000000E+03 0.  0.
         25    1    1    2    0    0 -0.14127125374E+01  0.92837954198E+02 -0.26435227907E+02  0.15793892101E+03  0.12500000000E+03 0.  0.
</event>
<event>
 5    0  0.5474724E-005  0.3592916E+03  0.7546771E-02  0.1058865E+00
         21   -1    0    0  502  501  0.00000000000E+00  0.00000000000E+00  0.27808943443E+03  0.27808943443E+03  0.00000000000E+00 0. -1.
         21   -1    0    0  501  502 -0.00000000000E+00 -0.00000000000E+00 -0.46420483186E+03  0.46420483186E+03  0.00000000000E+00 0. -1.
         25    1    1    2    0    0 -0.18231294825E+03  0.63094989281E+02  0.10177963746E+03  0.25140223423E+03  0.12500000000E+03 0.  0.
         25    1    1    2    0    0  0.52747827826E+02 -0.92822993603E+02 -0.25809841857E+03  0.30600365218E+03  0.12500000000E+03 0.  0.
         25    1    1    2    0    0  0.12956512043E+03  0.29728004321E+02 -0.29796616313E+02  0.18488837988E+03  0.12500000000E+03 0.  0.
</event>
<event>
 5    0  0.5474724E-005  0.2653144E+03  0.7546771E-02  0.1103992E+00
         21   -1    0    0  502  501  0.00000000000E+00  0.00000000000E+00  0.19489074320E+03  0.19489074320E+03  0.00000000000E+00 0. -1.
         21   -1    0    0  501  502 -0.00000000000E+00 -0.00000000000E+00 -0.36118560064E+03  0.36118560064E+03  0.00000000000E+00 0. -1.
         25    1    1    2    0    0  0.57120064786E+02  0.10600621948E+03 -0.90069044252E+02  0.19554399275E+03  0.12500000000E+03 0.  0.
         25    1    1    2    0    0  0.63813196543E+02  0.13729930585E+02 -0.36634521620E+02  0.14569736861E+03  0.12500000000E+03 0.  0.
         25    1    1    2    0    0 -0.12093326133E+03 -0.11973615006E+03 -0.39591291570E+02  0.21483498248E+03  0.12500000000E+03 0.  0.
</event>
<event>
 5    0  0.5474724E-005  0.2865017E+03  0.7546771E-02  0.1092190E+00
         21   -1    0    0  502  501  0.00000000000E+00  0.00000000000E+00  0.24966169058E+02  0.24966169058E+02  0.00000000000E+00 0. -1.
         21   -1    0    0  501  502 -0.00000000000E+00 -0.00000000000E+00 -0.32877784307E+04  0.32877784307E+04  0.00000000000E+00 0. -1.
         25    1    1    2    0    0  0.41911115621E+02  0.84088073325E+02 -0.74654545048E+03  0.76274665212E+03  0.12500000000E+03 0.  0.
         25    1    1    2    0    0  0.34713770201E+02  0.30734786749E+02 -0.19358870202E+04  0.19404724239E+04  0.12500000000E+03 0.  0.
         25    1    1    2    0    0 -0.76624885822E+02 -0.11482286007E+03 -0.58037979093E+03  0.60952552370E+03  0.12500000000E+03 0.  0.
</event>
<event>
 5    0  0.5936238E-005  0.2878345E+03  0.7546771E-02  0.1091485E+00
         21   -1    0    0  502  501  0.00000000000E+00  0.00000000000E+00  0.21884966667E+03  0.21884966667E+03  0.00000000000E+00 0. -1.
         21   -1    0    0  501  502 -0.00000000000E+00 -0.00000000000E+00 -0.37856453281E+03  0.37856453281E+03  0.00000000000E+00 0. -1.
         25    1    1    2    0    0  0.96914652605E+02  0.41411787215E+02 -0.22488307504E+03  0.27803737779E+03  0.12500000000E+03 0.  0.
         25    1    1    2    0    0 -0.43244244804E+02 -0.60903863624E+02 -0.34458871462E+02  0.14963876214E+03  0.12500000000E+03 0.  0.
         25    1    1    2    0    0 -0.53670407801E+02  0.19492076410E+02  0.99627080368E+02  0.16973805955E+03  0.12500000000E+03 0.  0.
</event>
<event>
 5    0  0.5474724E-005  0.2711753E+03  0.7546771E-02  0.1100609E+00
         21   -1    0    0  502  501  0.00000000000E+00  0.00000000000E+00  0.83853387586E+03  0.83853387586E+03  0.00000000000E+00 0. -1.
         21   -1    0    0  501  502 -0.00000000000E+00 -0.00000000000E+00 -0.87696001742E+02  0.87696001742E+02  0.00000000000E+00 0. -1.
         25    1    1    2    0    0  0.60792527258E+02  0.41427829726E+02  0.88490646517E+02  0.16990465258E+03  0.12500000000E+03 0.  0.
         25    1    1    2    0    0 -0.41467974806E+02  0.10729276959E+03  0.30331830831E+03  0.34764684307E+03  0.12500000000E+03 0.  0.
         25    1    1    2    0    0 -0.19324552453E+02 -0.14872059932E+03  0.35902891929E+03  0.40867838195E+03  0.12500000000E+03 0.  0.
</event>
<event>
 5    0  0.5474724E-005  0.2499830E+03  0.7546771E-02  0.1113316E+00
         21   -1    0    0  502  501  0.00000000000E+00  0.00000000000E+00  0.32498938902E+03  0.32498938902E+03  0.00000000000E+00 0.  1.
         21   -1    0    0  501  502 -0.00000000000E+00 -0.00000000000E+00 -0.19228788160E+03  0.19228788160E+03  0.00000000000E+00 0.  1.
         25    1    1    2    0    0  0.10721624177E+03 -0.90147108501E+02  0.72237133808E+01  0.18788029621E+03  0.12500000000E+03 0.  0.
         25    1    1    2    0    0 -0.95138250299E+02  0.84232332032E+02  0.63403103231E+02  0.18918595595E+03  0.12500000000E+03 0.  0.
         25    1    1    2    0    0 -0.12077991470E+02  0.59147764683E+01  0.62074690811E+02  0.14021101846E+03  0.12500000000E+03 0.  0.
</event>
<event>
 5    0  0.5474724E-005  0.3287538E+03  0.7546771E-02  0.1071690E+00
         21   -1    0    0  502  501  0.00000000000E+00  0.00000000000E+00  0.14075947818E+03  0.14075947818E+03  0.00000000000E+00 0.  1.
         21   -1    0    0  501  502 -0.00000000000E+00 -0.00000000000E+00 -0.76782772775E+03  0.76782772775E+03  0.00000000000E+00 0.  1.
         25    1    1    2    0    0 -0.12140404235E+03  0.11069673715E+03 -0.81742294662E+02  0.22203493385E+03  0.12500000000E+03 0.  0.
         25    1    1    2    0    0  0.14957448214E+03 -0.14177962417E+03 -0.18802545471E+03  0.30570011311E+03  0.12500000000E+03 0.  0.
         25    1    1    2    0    0 -0.28170439790E+02  0.31082887017E+02 -0.35730050020E+03  0.38085215896E+03  0.12500000000E+03 0.  0.
</event>
<event>
 5    0  0.5474724E-005  0.2560461E+03  0.7546771E-02  0.1109542E+00
         21   -1    0    0  502  501  0.00000000000E+00  0.00000000000E+00  0.10835682357E+03  0.10835682357E+03  0.00000000000E+00 0.  1.
         21   -1    0    0  501  502 -0.00000000000E+00 -0.00000000000E+00 -0.60503458635E+03  0.60503458635E+03  0.00000000000E+00 0.  1.
         25    1    1    2    0    0 -0.13298158957E+03 -0.78218053042E+02 -0.11131090712E+03  0.22763410340E+03  0.12500000000E+03 0.  0.
         25    1    1    2    0    0  0.69984682728E+02  0.45555766266E+02 -0.17126504193E+03  0.22788132491E+03  0.12500000000E+03 0.  0.
         25    1    1    2    0    0  0.62996906840E+02  0.32662286775E+02 -0.21410181373E+03  0.25787598161E+03  0.12500000000E+03 0.  0.
</event>
<event>
 5    0  0.5474724E-005  0.2420600E+03  0.7546771E-02  0.1118428E+00
         21   -1    0    0  502  501  0.00000000000E+00  0.00000000000E+00  0.83957465365E+02  0.83957465365E+02  0.00000000000E+00 0. -1.
         21   -1    0    0  501  502 -0.00000000000E+00 -0.00000000000E+00 -0.69788940728E+03  0.69788940728E+03  0.00000000000E+00 0. -1.
         25    1    1    2    0    0  0.10217050045E+02  0.11917040692E+02 -0.97432249372E+02  0.15926219636E+03  0.12500000000E+03 0.  0.
         25    1    1    2    0    0 -0.19145350397E+02 -0.48784115682E+02 -0.46124958494E+03  0.48075213363E+03  0.12500000000E+03 0.  0.
         25    1    1    2    0    0  0.89283003521E+01  0.36867074990E+02 -0.55250107597E+02  0.14183254265E+03  0.12500000000E+03 0.  0.
</event>
<event>
 5    0  0.5474724E-005  0.5743872E+03  0.7546771E-02  0.9960017E-01
         21   -1    0    0  502  501  0.00000000000E+00  0.00000000000E+00  0.90684711361E+03  0.90684711361E+03  0.00000000000E+00 0.  1.
         21   -1    0    0  501  502 -0.00000000000E+00 -0.00000000000E+00 -0.36381068127E+03  0.36381068127E+03  0.00000000000E+00 0.  1.
         25    1    1    2    0    0  0.11109339558E+03 -0.13508607212E+03 -0.19476426057E+02  0.21585717638E+03  0.12500000000E+03 0.  0.
         25    1    1    2    0    0  0.36407894857E+03  0.10971858872E+03  0.24823849952E+03  0.47099787913E+03  0.12500000000E+03 0.  0.
         25    1    1    2    0    0 -0.47517234414E+03  0.25367483398E+02  0.31427435888E+03  0.58380273938E+03  0.12500000000E+03 0.  0.
</event>
<event>
 5    0  0.5474724E-005  0.2548523E+03  0.7546771E-02  0.1110276E+00
         21   -1    0    0  502  501  0.00000000000E+00  0.00000000000E+00  0.56755211083E+03  0.56755211083E+03  0.00000000000E+00 0. -1.
         21   -1    0    0  501  502 -0.00000000000E+00 -0.00000000000E+00 -0.11443828995E+03  0.11443828995E+03  0.00000000000E+00 0. -1.
         25    1    1    2    0    0  0.21333572604E+02 -0.12801583713E+02  0.15683709999E+03  0.20209373518E+03  0.12500000000E+03 0.  0.
         25    1    1    2    0    0 -0.75252479668E+02  0.72192278234E+02  0.28839088477E+03  0.33116304617E+03  0.12500000000E+03 0.  0.
         25    1    1    2    0    0  0.53918907064E+02 -0.59390694521E+02  0.78858361144E+01  0.14873361942E+03  0.12500000000E+03 0.  0.
</event>
<event>
 5    0  0.5474724E-005  0.2782863E+03  0.7546771E-02  0.1096629E+00
         21   -1    0    0  502  501  0.00000000000E+00  0.00000000000E+00  0.17219800412E+04  0.17219800412E+04  0.00000000000E+00 0. -1.
         21   -1    0    0  501  502 -0.00000000000E+00 -0.00000000000E+00 -0.44973382667E+02  0.44973382667E+02  0.00000000000E+00 0. -1.
         25    1    1    2    0    0  0.10526108804E+03  0.15720625320E+03  0.74958294343E+03  0.78313044366E+03  0.12500000000E+03 0.  0.
         25    1    1    2    0    0 -0.94818082420E+01 -0.40477786317E+02  0.34477375429E+03  0.36908304963E+03  0.12500000000E+03 0.  0.
         25    1    1    2    0    0 -0.95779279800E+02 -0.11672846688E+03  0.58264996079E+03  0.61473993056E+03  0.12500000000E+03 0.  0.
</event>
<event>
 5    0  0.5474724E-005  0.3814247E+03  0.7546771E-02  0.1050408E+00
         21   -1    0    0  502  501  0.00000000000E+00  0.00000000000E+00  0.34354528788E+03  0.34354528788E+03  0.00000000000E+00 0.  1.
         21   -1    0    0  501  502 -0.00000000000E+00 -0.00000000000E+00 -0.42348077147E+03  0.42348077147E+03  0.00000000000E+00 0.  1.
         25    1    1    2    0    0  0.12911438642E+03 -0.60573675117E+02 -0.22739581710E+03  0.29609720116E+03  0.12500000000E+03 0.  0.
         25    1    1    2    0    0 -0.21384141764E+03 -0.30436539842E+02  0.14277284417E+02  0.24996674920E+03  0.12500000000E+03 0.  0.
         25    1    1    2    0    0  0.84727031211E+02  0.91010214959E+02  0.13318304909E+03  0.22096210899E+03  0.12500000000E+03 0.  0.
</event>
<event>
 5    0  0.5474724E-005  0.2940651E+03  0.7546771E-02  0.1088246E+00
         21   -1    0    0  502  501  0.00000000000E+00  0.00000000000E+00  0.32517244158E+03  0.32517244158E+03  0.00000000000E+00 0.  1.
         21   -1    0    0  501  502 -0.00000000000E+00 -0.00000000000E+00 -0.26593360133E+03  0.26593360133E+03  0.00000000000E+00 0.  1.
         25    1    1    2    0    0  0.13242999857E+03 -0.16421931469E+03 -0.92488602323E+01  0.24538995345E+03  0.12500000000E+03 0.  0.
         25    1    1    2    0    0 -0.87246644179E+02  0.91746014464E+02 -0.37910004183E+01  0.17795696046E+03  0.12500000000E+03 0.  0.
         25    1    1    2    0    0 -0.45183354390E+02  0.72473300224E+02  0.72278700906E+02  0.16775912900E+03  0.12500000000E+03 0.  0.
</event>
<event>
 5    0  0.5474724E-005  0.3888447E+03  0.7546771E-02  0.1047712E+00
         21   -1    0    0  502  501  0.00000000000E+00  0.00000000000E+00  0.43374395044E+03  0.43374395044E+03  0.00000000000E+00 0. -1.
         21   -1    0    0  501  502 -0.00000000000E+00 -0.00000000000E+00 -0.34859322111E+03  0.34859322111E+03  0.00000000000E+00 0. -1.
         25    1    1    2    0    0  0.18777896873E+03 -0.12020690481E+03  0.16386437770E+03  0.30362341040E+03  0.12500000000E+03 0.  0.
         25    1    1    2    0    0 -0.26158885623E+03  0.43109588172E+02  0.73033541835E+01  0.29319874706E+03  0.12500000000E+03 0.  0.
         25    1    1    2    0    0  0.73809887503E+02  0.77097316635E+02 -0.86017002556E+02  0.18551501409E+03  0.12500000000E+03 0.  0.
</event>
<event>
 5    0  0.5474724E-005  0.2836456E+03  0.7546771E-02  0.1093714E+00
         21   -1    0    0  502  501  0.00000000000E+00  0.00000000000E+00  0.20427122455E+03  0.20427122455E+03  0.00000000000E+00 0.  1.
         21   -1    0    0  501  502 -0.00000000000E+00 -0.00000000000E+00 -0.39386280300E+03  0.39386280300E+03  0.00000000000E+00 0.  1.
         25    1    1    2    0    0 -0.61804940997E+02  0.15950439966E+03  0.15642198196E+02  0.21244100971E+03  0.12500000000E+03 0.  0.
         25    1    1    2    0    0  0.16933206116E+02 -0.29301837708E+02 -0.36437223293E+02  0.13452881626E+03  0.12500000000E+03 0.  0.
         25    1    1    2    0    0  0.44871734882E+02 -0.13020256195E+03 -0.16879655336E+03  0.25116420158E+03  0.12500000000E+03 0.  0.
</event>
<event>
 5    0  0.6107339E-005  0.2843424E+03  0.7546771E-02  0.1093341E+00
         21   -1    0    0  502  501  0.00000000000E+00  0.00000000000E+00  0.31753076364E+03  0.31753076364E+03  0.00000000000E+00 0. -1.
         21   -1    0    0  501  502 -0.00000000000E+00 -0.00000000000E+00 -0.25462297588E+03  0.25462297588E+03  0.00000000000E+00 0. -1.
         25    1    1    2    0    0  0.86299262995E+02  0.65448659134E+02  0.76189296861E+02  0.18210134193E+03  0.12500000000E+03 0.  0.
         25    1    1    2    0    0 -0.77595543433E+02 -0.13552945818E+03 -0.98630610033E+02  0.22302981780E+03  0.12500000000E+03 0.  0.
         25    1    1    2    0    0 -0.87037195621E+01  0.70080799043E+02  0.85349100928E+02  0.16702257978E+03  0.12500000000E+03 0.  0.
</event>
<event>
 5    0  0.5474724E-005  0.2621349E+03  0.7546771E-02  0.1105867E+00
         21   -1    0    0  502  501  0.00000000000E+00  0.00000000000E+00  0.15882660728E+04  0.15882660728E+04  0.00000000000E+00 0. -1.
         21   -1    0    0  501  502 -0.00000000000E+00 -0.00000000000E+00 -0.43263977942E+02  0.43263977942E+02  0.00000000000E+00 0. -1.
         25    1    1    2    0    0 -0.21377828515E+02  0.35692952905E+02  0.68746278848E+03  0.69997220229E+03  0.12500000000E+03 0.  0.
         25    1    1    2    0    0 -0.12403692129E+02 -0.12911604061E+03  0.28487798504E+03  0.33705380858E+03  0.12500000000E+03 0.  0.
         25    1    1    2    0    0  0.33781520644E+02  0.93423087708E+02  0.57266132131E+03  0.59450403984E+03  0.12500000000E+03 0.  0.
</event>
<event>
 5    0  0.5474724E-005  0.2753968E+03  0.7546771E-02  0.1098230E+00
         21   -1    0    0  502  501  0.00000000000E+00  0.00000000000E+00  0.18599313728E+03  0.18599313728E+03  0.00000000000E+00 0.  1.
         21   -1    0    0  501  502 -0.00000000000E+00 -0.00000000000E+00 -0.40777526076E+03  0.40777526076E+03  0.00000000000E+00 0.  1.
         25    1    1    2    0    0 -0.42996964497E+02 -0.36323427449E+02  0.28851507338E+02  0.14009118392E+03  0.12500000000E+03 0.  0.
         25    1    1    2    0    0 -0.87603464907E+02  0.58743852086E+02 -0.27867788910E+02  0.16591208781E+03  0.12500000000E+03 0.  0.
         25    1    1    2    0    0  0.13060042940E+03 -0.22420424637E+02 -0.22276584191E+03  0.28776512631E+03  0.12500000000E+03 0.  0.
</event>
<event>
 5    0  0.5474724E-005  0.2538071E+03  0.7546771E-02  0.1110922E+00
         21   -1    0    0  502  501  0.00000000000E+00  0.00000000000E+00  0.83661305452E+02  0.83661305452E+02  0.00000000000E+00 0. -1.
         21   -1    0    0  501  502 -0.00000000000E+00 -0.00000000000E+00 -0.76998597892E+03  0.76998597892E+03  0.00000000000E+00 0. -1.
         25    1    1    2    0    0 -0.85859118468E+02 -0.21111740112E+01 -0.26925790503E+03  0.30903246545E+03  0.12500000000E+03 0.  0.
         25    1    1    2    0    0  0.81365186111E+02  0.43957483881E+02 -0.64778021581E+02  0.16844508298E+03  0.12500000000E+03 0.  0.
         25    1    1    2    0    0  0.44939323571E+01 -0.41846309870E+02 -0.35228874685E+03  0.37616973594E+03  0.12500000000E+03 0.  0.
</event>
<event>
 5    0  0.5474724E-005  0.2195226E+03  0.7546771E-02  0.1134239E+00
         21   -1    0    0  502  501  0.00000000000E+00  0.00000000000E+00  0.22441702243E+04  0.22441702243E+04  0.00000000000E+00 0.  1.
         21   -1    0    0  501  502 -0.00000000000E+00 -0.00000000000E+00 -0.21473492255E+02  0.21473492255E+02  0.00000000000E+00 0.  1.
         25    1    1    2    0    0 -0.47802546717E+01 -0.51446202696E+02  0.10963478333E+04  0.11046597369E+04  0.12500000000E+03 0.  0.
         25    1    1    2    0    0  0.26612756019E+02  0.80476771662E+02  0.57979294710E+03  0.59914072727E+03  0.12500000000E+03 0.  0.
         25    1    1    2    0    0 -0.21832501347E+02 -0.29030568965E+02  0.54655595160E+03  0.56184325241E+03  0.12500000000E+03 0.  0.
</event>
<event>
 5    0  0.5474724E-005  0.3230497E+03  0.7546771E-02  0.1074254E+00
         21   -1    0    0  502  501  0.00000000000E+00  0.00000000000E+00  0.36910855699E+03  0.36910855699E+03  0.00000000000E+00 0. -1.
         21   -1    0    0  501  502 -0.00000000000E+00 -0.00000000000E+00 -0.28273826532E+03  0.28273826532E+03  0.00000000000E+00 0. -1.
         25    1    1    2    0    0  0.10093327681E+03  0.20260274771E+03 -0.28672229149E+02  0.26015859869E+03  0.12500000000E+03 0.  0.
         25    1    1    2    0    0 -0.98097884179E+02 -0.39565682649E+02  0.18867906908E+02  0.16483214503E+03  0.12500000000E+03 0.  0.
         25    1    1    2    0    0 -0.28353926319E+01 -0.16303706506E+03  0.96174613915E+02  0.22685607860E+03  0.12500000000E+03 0.  0.
</event>
<event>
 5    0  0.5474724E-005  0.2818978E+03  0.7546771E-02  0.1094657E+00
         21   -1    0    0  502  501  0.00000000000E+00  0.00000000000E+00  0.27534150151E+03  0.27534150151E+03  0.00000000000E+00 0.  1.
         21   -1    0    0  501  502 -0.00000000000E+00 -0.00000000000E+00 -0.28861023697E+03  0.28861023697E+03  0.00000000000E+00 0.  1.
         25    1    1    2    0    0  0.21155543724E+02  0.10950854597E+02 -0.51033485338E+02  0.13710176830E+03  0.12500000000E+03 0.  0.
         25    1    1    2    0    0 -0.13640854571E+03  0.63271321645E+02  0.11392575867E+03  0.22630649565E+03  0.12500000000E+03 0.  0.
         25    1    1    2    0    0  0.11525300199E+03 -0.74222176242E+02 -0.76161008798E+02  0.20054347452E+03  0.12500000000E+03 0.  0.
</event>
<event>
 5    0  0.5474724E-005  0.2141836E+03  0.7546771E-02  0.1138295E+00
         21   -1    0    0  502  501  0.00000000000E+00  0.00000000000E+00  0.12899860641E+04  0.12899860641E+04  0.00000000000E+00 0.  1.
         21   -1    0    0  501  502 -0.00000000000E+00 -0.00000000000E+00 -0.35562090787E+02  0.35562090787E+02  0.00000000000E+00 0.  1.
         25    1    1    2    0    0 -0.11994585252E+02 -0.13895303476E+02  0.41579200584E+03  0.43456293175E+03  0.12500000000E+03 0.  0.
         25    1    1    2    0    0  0.20131284548E+02  0.80539297188E+01  0.66389295747E+03  0.67590605367E+03  0.12500000000E+03 0.  0.
         25    1    1    2    0    0 -0.81366992956E+01  0.58413737572E+01  0.17473901001E+03  0.21507916947E+03  0.12500000000E+03 0.  0.
</event>
<event>
 5    0  0.5808096E-005  0.3538824E+03  0.7546771E-02  0.1061033E+00
         21   -1    0    0  502  501  0.00000000000E+00  0.00000000000E+00  0.55956888110E+03  0.55956888110E+03  0.00000000000E+00 0.  1.
         21   -1    0    0  501  502 -0.00000000000E+00 -0.00000000000E+00 -0.22380215510E+03  0.22380215510E+03  0.00000000000E+00 0.  1.
         25    1    1    2    0    0  0.10694841559E+03 -0.84102810023E+02  0.84981664785E+01  0.18495530564E+03  0.12500000000E+03 0.  0.
         25    1    1    2    0    0  0.57438760384E+02  0.15052158098E+03 -0.22195502042E+01  0.20392617276E+03  0.12500000000E+03 0.  0.
         25    1    1    2    0    0 -0.16438717598E+03 -0.66418770956E+02  0.32948810972E+03  0.39448955779E+03  0.12500000000E+03 0.  0.
</event>
<event>
 5    0  0.5474724E-005  0.3127188E+03  0.7546771E-02  0.1079050E+00
         21   -1    0    0  502  501  0.00000000000E+00  0.00000000000E+00  0.88779762308E+02  0.88779762308E+02  0.00000000000E+00 0.  1.
         21   -1    0    0  501  502 -0.00000000000E+00 -0.00000000000E+00 -0.11015241351E+04  0.11015241351E+04  0.00000000000E+00 0.  1.
         25    1    1    2    0    0  0.63666306532E+02 -0.56393140083E+02 -0.16956126671E+03  0.22717748129E+03  0.12500000000E+03 0.  0.
         25    1    1    2    0    0  0.12837592333E+03  0.13340813135E+03 -0.42324855032E+03  0.47858378843E+03  0.12500000000E+03 0.  0.
         25    1    1    2    0    0 -0.19204222986E+03 -0.77014991271E+02 -0.41993455581E+03  0.48454262774E+03  0.12500000000E+03 0.  0.
</event>
<event>
 5    0  0.5474724E-005  0.3677072E+03  0.7546771E-02  0.1055573E+00
         21   -1    0    0  502  501  0.00000000000E+00  0.00000000000E+00  0.44088351043E+03  0.44088351043E+03  0.00000000000E+00 0. -1.
         21   -1    0    0  501  502 -0.00000000000E+00 -0.00000000000E+00 -0.30667648672E+03  0.30667648672E+03  0.00000000000E+00 0. -1.
         25    1    1    2    0    0  0.10748715574E+02 -0.28432682437E+03 -0.81350384550E+01  0.31088334917E+03  0.12500000000E+03 0.  0.
         25    1    1    2    0    0  0.56233537133E+02  0.11536826124E+03  0.11850973899E+03  0.21480596974E+03  0.12500000000E+03 0.  0.
         25    1    1    2    0    0 -0.66982252706E+02  0.16895856313E+03  0.23832323177E+02  0.22187067823E+03  0.12500000000E+03 0.  0.
</event>
<event>
 5    0  0.5474724E-005  0.2897675E+03  0.7546771E-02  0.1090471E+00
         21   -1    0    0  502  501  0.00000000000E+00  0.00000000000E+00  0.46727374466E+03  0.46727374466E+03  0.00000000000E+00 0. -1.
         21   -1    0    0  501  502 -0.00000000000E+00 -0.00000000000E+00 -0.17969167424E+03  0.17969167424E+03  0.00000000000E+00 0. -1.
         25    1    1    2    0    0  0.41774815383E+02 -0.50927100570E+02  0.10759438927E+02  0.14170204762E+03  0.12500000000E+03 0.  0.
         25    1    1    2    0    0 -0.17558395253E+03  0.16940626680E+02  0.70697556387E+02  0.22746396132E+03  0.12500000000E+03 0.  0.
         25    1    1    2    0    0  0.13380913715E+03  0.33986473890E+02  0.20612507511E+03  0.27779940997E+03  0.12500000000E+03 0.  0.
</event>
<event>
 5    0  0.5474724E-005  0.5835147E+03  0.7546771E-02  0.9940211E-01
         21   -1    0    0  502  501  0.00000000000E+00  0.00000000000E+00  0.33132910678E+03  0.33132910678E+03  0.00000000000E+00 0. -1.
         21   -1    0    0  501  502 -0.00000000000E+00 -0.00000000000E+00 -0.10276472295E+04  0.10276472295E+04  0.00000000000E+00 0. -1.
         25    1    1    2    0    0  0.58385616646E+02 -0.24851226713E+03 -0.65617913798E+03  0.71509669854E+03  0.12500000000E+03 0.  0.
         25    1    1    2    0    0  0.71020998095E+02  0.52168669172E+01  0.20775915759E+03  0.25270549150E+03  0.12500000000E+03 0.  0.
         25    1    1    2    0    0 -0.12940661474E+03  0.24329540021E+03 -0.24789814228E+03  0.39117414619E+03  0.12500000000E+03 0.  0.
</event>
<event>
 5    0  0.5474724E-005  0.2272741E+03  0.7546771E-02  0.1128573E+00
         21   -1    0    0  502  501  0.00000000000E+00  0.00000000000E+00  0.38724454941E+03  0.38724454941E+03  0.00000000000E+00 0.  1.
         21   -1    0    0  501  502 -0.00000000000E+00 -0.00000000000E+00 -0.13338736158E+03  0.13338736158E+03  0.00000000000E+00 0.  1.
         25    1    1    2    0    0  0.97213030373E+01 -0.61625502430E+02  0.10650290138E+03  0.17567035688E+03  0.12500000000E+03 0.  0.
         25    1    1    2    0    0 -0.34148089822E+02 -0.69377517402E+01  0.15248129142E+03  0.20022429590E+03  0.12500000000E+03 0.  0.
         25    1    1    2    0    0  0.24426786785E+02  0.68563254170E+02 -0.51270049636E+01  0.14473725821E+03  0.12500000000E+03 0.  0.
</event>
<event>
 5    0  0.5474724E-005  0.3899019E+03  0.7546771E-02  0.1047333E+00
         21   -1    0    0  502  501  0.00000000000E+00  0.00000000000E+00  0.14319825163E+03  0.14319825163E+03  0.00000000000E+00 0.  1.
         21   -1    0    0  501  502 -0.00000000000E+00 -0.00000000000E+00 -0.10616297663E+04  0.10616297663E+04  0.00000000000E+00 0.  1.
         25    1    1    2    0    0  0.13780207069E+03  0.14271676536E+02 -0.98847510412E+02  0.21116089068E+03  0.12500000000E+03 0.  0.
         25    1    1    2    0    0  0.82682068352E+02  0.24624012190E+02 -0.68970659482E+03  0.70623144460E+03  0.12500000000E+03 0.  0.
         25    1    1    2    0    0 -0.22048413904E+03 -0.38895688726E+02 -0.12987740942E+03  0.28743568263E+03  0.12500000000E+03 0.  0.
</event>
<event>
 5    0  0.5474724E-005  0.2401156E+03  0.7546771E-02  0.1119716E+00
         21   -1    0    0  502  501  0.00000000000E+00  0.00000000000E+00  0.99319522378E+03  0.99319522378E+03  0.00000000000E+00 0.  1.
         21   -1    0    0  501  502 -0.00000000000E+00 -0.00000000000E+00 -0.58050514919E+02  0.58050514919E+02  0.00000000000E+00 0.  1.
         25    1    1    2    0    0  0.11467709943E+03 -0.14312531405E+02  0.46084744874E+03  0.49128510735E+03  0.12500000000E+03 0.  0.
         25    1    1    2    0    0 -0.76306853313E+02 -0.24915451736E+02  0.16584964823E+03  0.22265359062E+03  0.12500000000E+03 0.  0.
         25    1    1    2    0    0 -0.38370246114E+02  0.39227983141E+02  0.30844761188E+03  0.33730704073E+03  0.12500000000E+03 0.  0.
</event>
<event>
 5    0  0.5474724E-005  0.2674544E+03  0.7546771E-02  0.1102745E+00
         21   -1    0    0  502  501  0.00000000000E+00  0.00000000000E+00  0.45153746499E+03  0.45153746499E+03  0.00000000000E+00 0.  1.
         21   -1    0    0  501  502 -0.00000000000E+00 -0.00000000000E+00 -0.15841846778E+03  0.15841846778E+03  0.00000000000E+00 0.  1.
         25    1    1    2    0    0  0.10117546977E+03  0.61028405981E+02  0.99644263172E+02  0.19878360396E+03  0.12500000000E+03 0.  0.
         25    1    1    2    0    0  0.63542617684E+02  0.10465021045E+02  0.10353622256E+03  0.17461938698E+03  0.12500000000E+03 0.  0.
         25    1    1    2    0    0 -0.16471808745E+03 -0.71493427026E+02  0.89938511483E+02  0.23655294183E+03  0.12500000000E+03 0.  0.
</event>
<event>
 5    0  0.5474724E-005  0.2593222E+03  0.7546771E-02  0.1107551E+00
         21   -1    0    0  502  501  0.00000000000E+00  0.00000000000E+00  0.77910349390E+02  0.77910349390E+02  0.00000000000E+00 0.  1.
         21   -1    0    0  501  502 -0.00000000000E+00 -0.00000000000E+00 -0.86314571408E+03  0.86314571408E+03  0.00000000000E+00 0.  1.
         25    1    1    2    0    0  0.42299386997E+02  0.78962125808E+02 -0.85477724657E+02  0.17594231118E+03  0.12500000000E+03 0.  0.
         25    1    1    2    0    0 -0.55449227353E+02  0.32897181968E+02 -0.34060268952E+03  0.36849970625E+03  0.12500000000E+03 0.  0.
         25    1    1    2    0    0  0.13149840356E+02 -0.11185930778E+03 -0.35915495051E+03  0.39661404604E+03  0.12500000000E+03 0.  0.
</event>
<event>
 5    0  0.5474724E-005  0.3061531E+03  0.7546771E-02  0.1082205E+00
         21   -1    0    0  502  501  0.00000000000E+00  0.00000000000E+00  0.10412887723E+03  0.10412887723E+03  0.00000000000E+00 0.  1.
         21   -1    0    0  501  502 -0.00000000000E+00 -0.00000000000E+00 -0.90013158030E+03  0.90013158030E+03  0.00000000000E+00 0.  1.
         25    1    1    2    0    0 -0.16432445638E+03 -0.76615879394E+02 -0.20802623810E+03  0.30293965683E+03  0.12500000000E+03 0.  0.
         25    1    1    2    0    0  0.12562207911E+03  0.77201528095E+02 -0.15134366672E+03  0.24550129971E+03  0.12500000000E+03 0.  0.
         25    1    1    2    0    0  0.38702377267E+02 -0.58564870172E+00 -0.43663279825E+03  0.45581950100E+03  0.12500000000E+03 0.  0.
</event>
<event>
 5    0  0.5523444E-005  0.3125643E+03  0.7546771E-02  0.1079123E+00
         21   -1    0    0  502  501  0.00000000000E+00  0.00000000000E+00  0.22839404818E+03  0.22839404818E+03  0.00000000000E+00 0. -1.
         21   -1    0    0  501  502 -0.00000000000E+00 -0.00000000000E+00 -0.42775384038E+03  0.42775384038E+03  0.00000000000E+00 0. -1.
         25    1    1    2    0    0 -0.92285682809E+02  0.10036662270E+03 -0.14556906736E+03  0.23538364339E+03  0.12500000000E+03 0.  0.
         25    1    1    2    0    0  0.10453738826E+03 -0.24896074576E+02  0.11216005486E+03  0.19938093685E+03  0.12500000000E+03 0.  0.
         25    1    1    2    0    0 -0.12251705454E+02 -0.75470548124E+02 -0.16595077970E+03  0.22138330832E+03  0.12500000000E+03 0.  0.
</event>
<event>
 5    0  0.5474724E-005  0.3595740E+03  0.7546771E-02  0.1058753E+00
         21   -1    0    0  502  501  0.00000000000E+00  0.00000000000E+00  0.11798290201E+03  0.11798290201E+03  0.00000000000E+00 0. -1.
         21   -1    0    0  501  502 -0.00000000000E+00 -0.00000000000E+00 -0.10958659799E+04  0.10958659799E+04  0.00000000000E+00 0. -1.
         25    1    1    2    0    0  0.22167288964E+03  0.57444005480E+01 -0.11567738046E+03  0.27960351301E+03  0.12500000000E+03 0.  0.
         25    1    1    2    0    0 -0.13821477991E+03  0.49952888224E+02 -0.55768842809E+03  0.59011863151E+03  0.12500000000E+03 0.  0.
         25    1    1    2    0    0 -0.83458109731E+02 -0.55697288772E+02 -0.30451726933E+03  0.34412673737E+03  0.12500000000E+03 0.  0.
</event>
<event>
 5    0  0.5474724E-005  0.2060412E+03  0.7546771E-02  0.1144740E+00
         21   -1    0    0  502  501  0.00000000000E+00  0.00000000000E+00  0.48828197530E+03  0.48828197530E+03  0.00000000000E+00 0.  1.
         21   -1    0    0  501  502 -0.00000000000E+00 -0.00000000000E+00 -0.86943593785E+02  0.86943593785E+02  0.00000000000E+00 0.  1.
         25    1    1    2    0    0 -0.31171329826E+02 -0.44594323669E+01  0.95727089754E+02  0.16056218127E+03  0.12500000000E+03 0.  0.
         25    1    1    2    0    0 -0.32128848847E+01 -0.43331497839E+02  0.20395017845E+03  0.24312263700E+03  0.12500000000E+03 0.  0.
         25    1    1    2    0    0  0.34384214711E+02  0.47790930205E+02  0.10166111332E+03  0.17154075082E+03  0.12500000000E+03 0.  0.
</event>
<event>
 5    0  0.5474724E-005  0.2199074E+03  0.7546771E-02  0.1133952E+00
         21   -1    0    0  502  501  0.00000000000E+00  0.00000000000E+00  0.43263735498E+03  0.43263735498E+03  0.00000000000E+00 0. -1.
         21   -1    0    0  501  502 -0.00000000000E+00 -0.00000000000E+00 -0.11177781401E+03  0.11177781401E+03  0.00000000000E+00 0. -1.
         25    1    1    2    0    0 -0.97567594023E+01  0.57626444944E+02  0.58897091598E+02  0.15003289276E+03  0.12500000000E+03 0.  0.
         25    1    1    2    0    0 -0.51352409191E+02  0.99253346636E+01  0.87826075376E+02  0.16147446149E+03  0.12500000000E+03 0.  0.
         25    1    1    2    0    0  0.61109168593E+02 -0.67551779608E+02  0.17413637400E+03  0.23290781473E+03  0.12500000000E+03 0.  0.
</event>
<event>
 5    0  0.5474724E-005  0.5329439E+03  0.7546771E-02  0.1005521E+00
         21   -1    0    0  502  501  0.00000000000E+00  0.00000000000E+00  0.30848334255E+03  0.30848334255E+03  0.00000000000E+00 0.  1.
         21   -1    0    0  501  502 -0.00000000000E+00 -0.00000000000E+00 -0.92072799665E+03  0.92072799665E+03  0.00000000000E+00 0.  1.
         25    1    1    2    0    0  0.25706592604E+03 -0.28761675066E+03 -0.10174822793E+03  0.41807174920E+03  0.12500000000E+03 0.  0.
         25    1    1    2    0    0  0.18580687890E+01  0.31565786603E+03 -0.30750545359E+03  0.45806980341E+03  0.12500000000E+03 0.  0.
         25    1    1    2    0    0 -0.25892399483E+03 -0.28041115371E+02 -0.20299097259E+03  0.35306978659E+03  0.12500000000E+03 0.  0.
</event>
<event>
 5    0  0.5474724E-005  0.3211036E+03  0.7546771E-02  0.1075143E+00
         21   -1    0    0  502  501  0.00000000000E+00  0.00000000000E+00  0.63319702652E+02  0.63319702652E+02  0.00000000000E+00 0.  1.
         21   -1    0    0  501  502 -0.00000000000E+00 -0.00000000000E+00 -0.16283640447E+04  0.16283640447E+04  0.00000000000E+00 0.  1.
         25    1    1    2    0    0  0.13033970088E+03  0.55644657882E+02 -0.52717218598E+03  0.56001810618E+03  0.12500000000E+03 0.  0.
         25    1    1    2    0    0 -0.16409811595E+03 -0.17835371198E+03 -0.62319908225E+03  0.68025019981E+03  0.12500000000E+03 0.  0.
         25    1    1    2    0    0  0.33758415075E+02  0.12270905409E+03 -0.41467307382E+03  0.45141544136E+03  0.12500000000E+03 0.  0.
</event>
<event>
 5    0  0.5474724E-005  0.3234789E+03  0.7546771E-02  0.1074059E+00
         21   -1    0    0  502  501  0.00000000000E+00  0.00000000000E+00  0.17060948072E+04  0.17060948072E+04  0.00000000000E+00 0.  1.
         21   -1    0    0  501  502 -0.00000000000E+00 -0.00000000000E+00 -0.61332216101E+02  0.61332216101E+02  0.00000000000E+00 0.  1.
         25    1    1    2    0    0  0.71309826681E+02 -0.10851521146E+03  0.76682202371E+03  0.78771927649E+03  0.12500000000E+03 0.  0.
         25    1    1    2    0    0  0.12667427611E+03  0.31981089504E+01  0.35116271330E+03  0.39369639488E+03  0.12500000000E+03 0.  0.
         25    1    1    2    0    0 -0.19798410279E+03  0.10531710251E+03  0.52677785405E+03  0.58601135190E+03  0.12500000000E+03 0.  0.
</event>
<event>
 5    0  0.5474724E-005  0.3920060E+03  0.7546771E-02  0.1046583E+00
         21   -1    0    0  502  501  0.00000000000E+00  0.00000000000E+00  0.92923462508E+02  0.92923462508E+02  0.00000000000E+00 0.  1.
         21   -1    0    0  501  502 -0.00000000000E+00 -0.00000000000E+00 -0.16537123979E+04  0.16537123979E+04  0.00000000000E+00 0.  1.
         25    1    1    2    0    0  0.24841808891E+03  0.14499468990E+03 -0.70854720633E+03  0.77485427701E+03  0.12500000000E+03 0.  0.
         25    1    1    2    0    0 -0.26501695713E+03 -0.16806064134E+03 -0.58902922354E+03  0.67901310217E+03  0.12500000000E+03 0.  0.
         25    1    1    2    0    0  0.16598868219E+02  0.23065951437E+02 -0.26321250555E+03  0.29276848127E+03  0.12500000000E+03 0.  0.
</event>
<event>
 5    0  0.5474724E-005  0.3939889E+03  0.7546771E-02  0.1045881E+00
         21   -1    0    0  502  501  0.00000000000E+00  0.00000000000E+00  0.51967693954E+03  0.51967693954E+03  0.00000000000E+00 0. -1.
         21   -1    0    0  501  502 -0.00000000000E+00 -0.00000000000E+00 -0.29869946456E+03  0.29869946456E+03  0.00000000000E+00 0. -1.
         25    1    1    2    0    0 -0.67471528129E+02  0.73263355967E+02  0.76842925193E+02  0.17734080632E+03  0.12500000000E+03 0.  0.
         25    1    1    2    0    0  0.26477177461E+03 -0.15335207860E+03  0.20209168597E+03  0.38741063767E+03  0.12500000000E+03 0.  0.
         25    1    1    2    0    0 -0.19730024648E+03  0.80088722637E+02 -0.57957136177E+02  0.25362496011E+03  0.12500000000E+03 0.  0.
</event>
<event>
 5    0  0.5474724E-005  0.5509733E+03  0.7546771E-02  0.1001269E+00
         21   -1    0    0  502  501  0.00000000000E+00  0.00000000000E+00  0.11726304185E+04  0.11726304185E+04  0.00000000000E+00 0. -1.
         21   -1    0    0  501  502 -0.00000000000E+00 -0.00000000000E+00 -0.25888089419E+03  0.25888089419E+03  0.00000000000E+00 0. -1.
         25    1    1    2    0    0  0.12295339144E+03 -0.27413262134E+03  0.29170556080E+03  0.43701643533E+03  0.12500000000E+03 0.  0.
         25    1    1    2    0    0 -0.26319942747E+03 -0.13426353649E+03  0.20107698872E+03  0.37862592521E+03  0.12500000000E+03 0.  0.
         25    1    1    2    0    0  0.14024603603E+03  0.40839615783E+03  0.42096697478E+03  0.61586895214E+03  0.12500000000E+03 0.  0.
</event>
<event>
 5    0  0.5474724E-005  0.3016888E+03  0.7546771E-02  0.1084399E+00
         21   -1    0    0  502  501  0.00000000000E+00  0.00000000000E+00  0.41492851278E+03  0.41492851278E+03  0.00000000000E+00 0.  1.
         21   -1    0    0  501  502 -0.00000000000E+00 -0.00000000000E+00 -0.21935377922E+03  0.21935377922E+03  0.00000000000E+00 0. -1.
         25    1    1    2    0    0 -0.11273510398E+02 -0.68118424276E+02  0.72987926301E+02  0.16037284417E+03  0.12500000000E+03 0.  0.
         25    1    1    2    0    0  0.12060012436E+03  0.11287325086E+03  0.19759510546E+03  0.28627536824E+03  0.12500000000E+03 0.  0.
         25    1    1    2    0    0 -0.10932661396E+03 -0.44754826586E+02 -0.75008298213E+02  0.18763407959E+03  0.12500000000E+03 0.  0.
</event>
<event>
 5    0  0.5474724E-005  0.2690425E+03  0.7546771E-02  0.1101829E+00
         21   -1    0    0  502  501  0.00000000000E+00  0.00000000000E+00  0.33699695552E+03  0.33699695552E+03  0.00000000000E+00 0. -1.
         21   -1    0    0  501  502 -0.00000000000E+00 -0.00000000000E+00 -0.21479079990E+03  0.21479079990E+03  0.00000000000E+00 0. -1.
         25    1    1    2    0    0  0.10710046425E+03  0.60896795516E+02  0.70559506344E+02  0.18916282162E+03  0.12500000000E+03 0.  0.
         25    1    1    2    0    0 -0.47397717051E+02  0.18764631267E+02 -0.78829415287E+02  0.15632572304E+03  0.12500000000E+03 0.  0.
         25    1    1    2    0    0 -0.59702747199E+02 -0.79661426783E+02  0.13047606456E+03  0.20629921077E+03  0.12500000000E+03 0.  0.
</event>
<event>
 5    0  0.5474724E-005  0.2251802E+03  0.7546771E-02  0.1130079E+00
         21   -1    0    0  502  501  0.00000000000E+00  0.00000000000E+00  0.40920375626E+03  0.40920375626E+03  0.00000000000E+00 0. -1.
         21   -1    0    0  501  502 -0.00000000000E+00 -0.00000000000E+00 -0.12391406663E+03  0.12391406663E+03  0.00000000000E+00 0. -1.
         25    1    1    2    0    0 -0.73841995984E+02  0.29719649013E+02  0.66121135316E+02  0.16227415827E+03  0.12500000000E+03 0.  0.
         25    1    1    2    0    0  0.11066901681E+03 -0.15393832326E+02  0.11353287848E+03  0.20248287792E+03  0.12500000000E+03 0.  0.
         25    1    1    2    0    0 -0.36827020827E+02 -0.14325816687E+02  0.10563567584E+03  0.16836078669E+03  0.12500000000E+03 0.  0.
</event>
<event>
 5    0  0.5474724E-005  0.4268667E+03  0.7546771E-02  0.1034854E+00
         21   -1    0    0  502  501  0.00000000000E+00  0.00000000000E+00  0.68680798075E+03  0.68680798075E+03  0.00000000000E+00 0. -1.
         21   -1    0    0  501  502 -0.00000000000E+00 -0.00000000000E+00 -0.26530728123E+03  0.26530728123E+03  0.00000000000E+00 0. -1.
         25    1    1    2    0    0 -0.44901136683E+02 -0.47973879893E+02  0.48196949858E+03  0.50223221998E+03  0.12500000000E+03 0.  0.
         25    1    1    2    0    0 -0.12307189069E+03  0.58535350982E+02  0.75781026050E+02  0.19985204903E+03  0.12500000000E+03 0.  0.
         25    1    1    2    0    0  0.16797302738E+03 -0.10561471089E+02 -0.13624982511E+03  0.25003099296E+03  0.12500000000E+03 0.  0.
</event>
<event>
 5    0  0.5474724E-005  0.2662778E+03  0.7546771E-02  0.1103429E+00
         21   -1    0    0  502  501  0.00000000000E+00  0.00000000000E+00  0.34567213207E+03  0.34567213207E+03  0.00000000000E+00 0.  1.
         21   -1    0    0  501  502 -0.00000000000E+00 -0.00000000000E+00 -0.20511879878E+03  0.20511879878E+03  0.00000000000E+00 0.  1.
         25    1    1    2    0    0  0.78156706550E+02  0.10703315869E+03  0.60707335957E+02  0.19202850954E+03  0.12500000000E+03 0.  0.
         25    1    1    2    0    0  0.37466333083E+02 -0.25631605703E+02  0.10354958088E+03  0.16854738511E+03  0.12500000000E+03 0.  0.
         25    1    1    2    0    0 -0.11562303963E+03 -0.81401552988E+02 -0.23703583546E+02  0.19021503620E+03  0.12500000000E+03 0.  0.
</event>
<event>
 5    0  0.5474724E-005  0.2916804E+03  0.7546771E-02  0.1089475E+00
         21   -1    0    0  502  501  0.00000000000E+00  0.00000000000E+00  0.19073694246E+03  0.19073694246E+03  0.00000000000E+00 0.  1.
         21   -1    0    0  501  502 -0.00000000000E+00 -0.00000000000E+00 -0.44604608030E+03  0.44604608030E+03  0.00000000000E+00 0.  1.
         25    1    1    2    0    0  0.38631613836E+02  0.82031721370E+02 -0.88263031129E+01  0.15467549426E+03  0.12500000000E+03 0.  0.
         25    1    1    2    0    0  0.69794926742E+01 -0.12401125647E+03  0.23915949180E+02  0.17783272386E+03  0.12500000000E+03 0.  0.
         25    1    1    2    0    0 -0.45611106510E+02  0.41979535097E+02 -0.27039878391E+03  0.30427480465E+03  0.12500000000E+03 0.  0.
</event>
<event>
 5    0  0.5982850E-005  0.3493412E+03  0.7546771E-02  0.1062886E+00
         21   -1    0    0  502  501  0.00000000000E+00  0.00000000000E+00  0.19528712335E+03  0.19528712335E+03  0.00000000000E+00 0.  1.
         21   -1    0    0  501  502 -0.00000000000E+00 -0.00000000000E+00 -0.62492224640E+03  0.62492224640E+03  0.00000000000E+00 0.  1.
         25    1    1    2    0    0  0.79600380624E+02 -0.17526144041E+03 -0.22385464327E+03  0.32060675976E+03  0.12500000000E+03 0.  0.
         25    1    1    2    0    0  0.28399945639E+02  0.82479918156E+01  0.62636801107E+02  0.14290890502E+03  0.12500000000E+03 0.  0.
         25    1    1    2    0    0 -0.10800032626E+03  0.16701344860E+03 -0.26841728089E+03  0.35669370497E+03  0.12500000000E+03 0.  0.
</event>
<event>
 5    0  0.5474724E-005  0.4022868E+03  0.7546771E-02  0.1042991E+00
         21   -1    0    0  502  501  0.00000000000E+00  0.00000000000E+00  0.55117491103E+03  0.55117491103E+03  0.00000000000E+00 0.  1.
         21   -1    0    0  501  502 -0.00000000000E+00 -0.00000000000E+00 -0.29361763335E+03  0.29361763335E+03  0.00000000000E+00 0.  1.
         25    1    1    2    0    0  0.13541870685E+03 -0.27865779828E+03  0.87963669238E+02  0.34547214333E+03  0.12500000000E+03 0.  0.
         25    1    1    2    0    0  0.24501926692E+02  0.13808391175E+03  0.16858668961E+03  0.25241628911E+03  0.12500000000E+03 0.  0.
         25    1    1    2    0    0 -0.15992063354E+03  0.14057388653E+03  0.10069188361E+01  0.24690411194E+03  0.12500000000E+03 0.  0.
</event>
<event>
 5    0  0.5474724E-005  0.3013427E+03  0.7546771E-02  0.1084571E+00
         21   -1    0    0  502  501  0.00000000000E+00  0.00000000000E+00  0.89131942107E+02  0.89131942107E+02  0.00000000000E+00 0. -1.
         21   -1    0    0  501  502 -0.00000000000E+00 -0.00000000000E+00 -0.10187980359E+04  0.10187980359E+04  0.00000000000E+00 0. -1.
         25    1    1    2    0    0  0.83057211396E+02  0.21079610591E+02 -0.77895767609E+03  0.79356342625E+03  0.12500000000E+03 0.  0.
         25    1    1    2    0    0 -0.18938382900E+02  0.13175876844E+02 -0.43467357383E+02  0.13433792181E+03  0.12500000000E+03 0.  0.
         25    1    1    2    0    0 -0.64118828496E+02 -0.34255487436E+02 -0.10724106036E+03  0.18002862998E+03  0.12500000000E+03 0.  0.
</event>
<event>
 5    0  0.5474724E-005  0.2374055E+03  0.7546771E-02  0.1121533E+00
         21   -1    0    0  502  501  0.00000000000E+00  0.00000000000E+00  0.70483668739E+03  0.70483668739E+03  0.00000000000E+00 0. -1.
         21   -1    0    0  501  502 -0.00000000000E+00 -0.00000000000E+00 -0.79963717049E+02  0.79963717049E+02  0.00000000000E+00 0. -1.
         25    1    1    2    0    0  0.17984119576E+02 -0.49721218541E+02  0.22041683746E+03  0.25885171502E+03  0.12500000000E+03 0.  0.
         25    1    1    2    0    0 -0.10211706356E+03  0.14655405722E+02  0.11831342110E+03  0.20066325324E+03  0.12500000000E+03 0.  0.
         25    1    1    2    0    0  0.84132943983E+02  0.35065812819E+02  0.28614271178E+03  0.32528543619E+03  0.12500000000E+03 0.  0.
</event>
<event>
 5    0  0.5474724E-005  0.3502318E+03  0.7546771E-02  0.1062520E+00
         21   -1    0    0  502  501  0.00000000000E+00  0.00000000000E+00  0.95505612070E+02  0.95505612070E+02  0.00000000000E+00 0.  1.
         21   -1    0    0  501  502 -0.00000000000E+00 -0.00000000000E+00 -0.12843467570E+04  0.12843467570E+04  0.00000000000E+00 0.  1.
         25    1    1    2    0    0 -0.67743437364E+02  0.70984373409E+02 -0.88074811175E+03  0.89496937988E+03  0.12500000000E+03 0.  0.
         25    1    1    2    0    0 -0.44965828875E+02  0.67224996917E+02 -0.17452585223E+03  0.22940226475E+03  0.12500000000E+03 0.  0.
         25    1    1    2    0    0  0.11270926624E+03 -0.13820937033E+03 -0.13356718099E+03  0.25548072448E+03  0.12500000000E+03 0.  0.
</event>
<event>
 5    0  0.5474724E-005  0.2975930E+03  0.7546771E-02  0.1086450E+00
         21   -1    0    0  502  501  0.00000000000E+00  0.00000000000E+00  0.16995404632E+04  0.16995404632E+04  0.00000000000E+00 0. -1.
         21   -1    0    0  501  502 -0.00000000000E+00 -0.00000000000E+00 -0.52109140010E+02  0.52109140010E+02  0.00000000000E+00 0. -1.
         25    1    1    2    0    0 -0.11654898746E+03 -0.36671041572E+02  0.42779689499E+03  0.46212943547E+03  0.12500000000E+03 0.  0.
         25    1    1    2    0    0  0.12522568713E+03  0.16316837186E+03  0.69553302282E+03  0.73600039139E+03  0.12500000000E+03 0.  0.
         25    1    1    2    0    0 -0.86766996767E+01 -0.12649733028E+03  0.52410140538E+03  0.55351977634E+03  0.12500000000E+03 0.  0.
</event>
<event>
 5    0  0.5474724E-005  0.3657112E+03  0.7546771E-02  0.1056345E+00
         21   -1    0    0  502  501  0.00000000000E+00  0.00000000000E+00  0.11258239869E+04  0.11258239869E+04  0.00000000000E+00 0. -1.
         21   -1    0    0  501  502 -0.00000000000E+00 -0.00000000000E+00 -0.11879714799E+03  0.11879714799E+03  0.00000000000E+00 0. -1.
         25    1    1    2    0    0  0.69382416527E+02 -0.45248436173E+02  0.74423706100E+03  0.75919374580E+03  0.12500000000E+03 0.  0.
         25    1    1    2    0    0 -0.18252129827E+03  0.45533781756E+02  0.87501277763E+02  0.24221648006E+03  0.12500000000E+03 0.  0.
         25    1    1    2    0    0  0.11313888174E+03 -0.28534558305E+00  0.17528850013E+03  0.24321090901E+03  0.12500000000E+03 0.  0.
</event>
<event>
 5    0  0.5966913E-005  0.3454676E+03  0.7546771E-02  0.1064491E+00
         21   -1    0    0  502  501  0.00000000000E+00  0.00000000000E+00  0.52030794883E+03  0.52030794883E+03  0.00000000000E+00 0. -1.
         21   -1    0    0  501  502 -0.00000000000E+00 -0.00000000000E+00 -0.22937923238E+03  0.22937923238E+03  0.00000000000E+00 0. -1.
         25    1    1    2    0    0 -0.23343066459E+03 -0.30054568323E+02  0.54109894421E+02  0.27193019862E+03  0.12500000000E+03 0.  0.
         25    1    1    2    0    0  0.12778444719E+03  0.12201642948E+03  0.72441937790E+02  0.22823169885E+03  0.12500000000E+03 0.  0.
         25    1    1    2    0    0  0.10564621740E+03 -0.91961861159E+02  0.16437688423E+03  0.24952528375E+03  0.12500000000E+03 0.  0.
</event>
<event>
 5    0  0.5864557E-005  0.4579924E+03  0.7546771E-02  0.1025365E+00
         21   -1    0    0  502  501  0.00000000000E+00  0.00000000000E+00  0.67922461742E+03  0.67922461742E+03  0.00000000000E+00 0. -1.
         21   -1    0    0  501  502 -0.00000000000E+00 -0.00000000000E+00 -0.30881838672E+03  0.30881838672E+03  0.00000000000E+00 0. -1.
         25    1    1    2    0    0  0.17483066777E+03 -0.13191195181E+03  0.39608197386E+03  0.46954494506E+03  0.12500000000E+03 0.  0.
         25    1    1    2    0    0 -0.22086273895E+03 -0.77949697432E+02  0.18122073624E+02  0.26610132345E+03  0.12500000000E+03 0.  0.
         25    1    1    2    0    0  0.46032071186E+02  0.20986164925E+03 -0.43797816771E+02  0.25239673563E+03  0.12500000000E+03 0.  0.
</event>
<event>
 5    0  0.5474724E-005  0.4880802E+03  0.7546771E-02  0.1016938E+00
         21   -1    0    0  502  501  0.00000000000E+00  0.00000000000E+00  0.70042421521E+03  0.70042421521E+03  0.00000000000E+00 0.  1.
         21   -1    0    0  501  502 -0.00000000000E+00 -0.00000000000E+00 -0.34011147833E+03  0.34011147833E+03  0.00000000000E+00 0.  1.
         25    1    1    2    0    0  0.14378834210E+03  0.19282134676E+02 -0.42542355158E+02  0.19616763246E+03  0.12500000000E+03 0.  0.
         25    1    1    2    0    0  0.23542302587E+03 -0.14335136318E+03  0.27019230118E+03  0.40571232918E+03  0.12500000000E+03 0.  0.
         25    1    1    2    0    0 -0.37921136796E+03  0.12406922851E+03  0.13266279085E+03  0.43865573190E+03  0.12500000000E+03 0.  0.
</event>
<event>
 5    0  0.5474724E-005  0.3157919E+03  0.7546771E-02  0.1077602E+00
         21   -1    0    0  502  501  0.00000000000E+00  0.00000000000E+00  0.40329120657E+03  0.40329120657E+03  0.00000000000E+00 0.  1.
         21   -1    0    0  501  502 -0.00000000000E+00 -0.00000000000E+00 -0.24727675104E+03  0.24727675104E+03  0.00000000000E+00 0.  1.
         25    1    1    2    0    0  0.20681001770E+02  0.70268705778E+01  0.27854514205E+03  0.30608736809E+03  0.12500000000E+03 0.  0.
         25    1    1    2    0    0  0.59930992242E+02  0.64146043704E+02 -0.87071077966E+02  0.17582039521E+03  0.12500000000E+03 0.  0.
         25    1    1    2    0    0 -0.80611994013E+02 -0.71172914282E+02 -0.35459608558E+02  0.16866019431E+03  0.12500000000E+03 0.  0.
</event>
<event>
 5    0  0.5474724E-005  0.2933331E+03  0.7546771E-02  0.1088622E+00
         21   -1    0    0  502  501  0.00000000000E+00  0.00000000000E+00  0.45892607048E+03  0.45892607048E+03  0.00000000000E+00 0.  1.
         21   -1    0    0  501  502 -0.00000000000E+00 -0.00000000000E+00 -0.18749058761E+03  0.18749058761E+03  0.00000000000E+00 0.  1.
         25    1    1    2    0    0 -0.19693047537E+03 -0.18164062897E+02  0.13688998961E+03  0.27106348807E+03  0.12500000000E+03 0.  0.
         25    1    1    2    0    0  0.17169608904E+03  0.40389171287E+02  0.11363580263E+03  0.24423129977E+03  0.12500000000E+03 0.  0.
         25    1    1    2    0    0  0.25234386334E+02 -0.22225108390E+02  0.20909690640E+02  0.13112187026E+03  0.12500000000E+03 0.  0.
</event>
<event>
 5    0  0.5474724E-005  0.3252078E+03  0.7546771E-02  0.1073277E+00
         21   -1    0    0  502  501  0.00000000000E+00  0.00000000000E+00  0.15438641616E+04  0.15438641616E+04  0.00000000000E+00 0.  1.
         21   -1    0    0  501  502 -0.00000000000E+00 -0.00000000000E+00 -0.68503501178E+02  0.68503501178E+02  0.00000000000E+00 0.  1.
         25    1    1    2    0    0  0.68632337578E+02 -0.67800514801E+02  0.99995207988E+03  0.10123420714E+04  0.12500000000E+03 0.  0.
         25    1    1    2    0    0 -0.61059938838E+02  0.12328185786E+03  0.12554499456E+03  0.22430621540E+03  0.12500000000E+03 0.  0.
         25    1    1    2    0    0 -0.75723987401E+01 -0.55481343063E+02  0.34986358600E+03  0.37571937595E+03  0.12500000000E+03 0.  0.
</event>
<event>
 5    0  0.5474724E-005  0.5997448E+03  0.7546771E-02  0.9905936E-01
         21   -1    0    0  502  501  0.00000000000E+00  0.00000000000E+00  0.24814304250E+03  0.24814304250E+03  0.00000000000E+00 0.  1.
         21   -1    0    0  501  502 -0.00000000000E+00 -0.00000000000E+00 -0.14495424369E+04  0.14495424369E+04  0.00000000000E+00 0.  1.
         25    1    1    2    0    0 -0.34067787624E+03 -0.32300606533E+03 -0.94250465138E+03  0.10603463356E+04  0.12500000000E+03 0.  0.
         25    1    1    2    0    0  0.16431360066E+03  0.18477198961E+02 -0.69620994807E+02  0.21866057981E+03  0.12500000000E+03 0.  0.
         25    1    1    2    0    0  0.17636427557E+03  0.30452886637E+03 -0.18927374817E+03  0.41867856394E+03  0.12500000000E+03 0.  0.
</event>
<event>
 5    0  0.5474724E-005  0.3601757E+03  0.7546771E-02  0.1058514E+00
         21   -1    0    0  502  501  0.00000000000E+00  0.00000000000E+00  0.92836257299E+03  0.92836257299E+03  0.00000000000E+00 0.  1.
         21   -1    0    0  501  502 -0.00000000000E+00 -0.00000000000E+00 -0.13973696720E+03  0.13973696720E+03  0.00000000000E+00 0.  1.
         25    1    1    2    0    0  0.16658222296E+02  0.89203425034E+02  0.36376161364E+03  0.39519901185E+03  0.12500000000E+03 0.  0.
         25    1    1    2    0    0  0.29023991717E+02 -0.24412628761E+03  0.36989117308E+03  0.46139410087E+03  0.12500000000E+03 0.  0.
         25    1    1    2    0    0 -0.45682214012E+02  0.15492286258E+03  0.54972819069E+02  0.21150642747E+03  0.12500000000E+03 0.  0.
</event>
<event>
 5    0  0.5570138E-005  0.3233026E+03  0.7546771E-02  0.1074139E+00
         21   -1    0    0  502  501  0.00000000000E+00  0.00000000000E+00  0.69026988631E+03  0.69026988631E+03  0.00000000000E+00 0.  1.
         21   -1    0    0  501  502 -0.00000000000E+00 -0.00000000000E+00 -0.15142566813E+03  0.15142566813E+03  0.00000000000E+00 0.  1.
         25    1    1    2    0    0 -0.47620846350E+02 -0.11022459968E+03  0.20104102930E+03  0.26544246617E+03  0.12500000000E+03 0.  0.
         25    1    1    2    0    0  0.85116067315E+02  0.15888036689E+03  0.94127847213E+01  0.21954798203E+03  0.12500000000E+03 0.  0.
         25    1    1    2    0    0 -0.37495220965E+02 -0.48655767210E+02  0.32839040415E+03  0.35670510624E+03  0.12500000000E+03 0.  0.
</event>
<event>
 5    0  0.5474724E-005  0.2715173E+03  0.7546771E-02  0.1100414E+00
         21   -1    0    0  502  501  0.00000000000E+00  0.00000000000E+00  0.23379456513E+03  0.23379456513E+03  0.00000000000E+00 0.  1.
         21   -1    0    0  501  502 -0.00000000000E+00 -0.00000000000E+00 -0.31532667218E+03  0.31532667218E+03  0.00000000000E+00 0.  1.
         25    1    1    2    0    0  0.91167186227E+02 -0.66879968550E+02  0.18187179572E+02  0.16952922916E+03  0.12500000000E+03 0.  0.
         25    1    1    2    0    0 -0.14325991919E+02  0.14194320790E+03 -0.10074515379E+03  0.21477358852E+03  0.12500000000E+03 0.  0.
         25    1    1    2    0    0 -0.76841194307E+02 -0.75063239353E+02  0.10258671673E+01  0.16481841963E+03  0.12500000000E+03 0.  0.
</event>
<event>
 5    0  0.5474724E-005  0.3541768E+03  0.7546771E-02  0.1060914E+00
         21   -1    0    0  502  501  0.00000000000E+00  0.00000000000E+00  0.11321948361E+03  0.11321948361E+03  0.00000000000E+00 0.  1.
         21   -1    0    0  501  502 -0.00000000000E+00 -0.00000000000E+00 -0.11079473591E+04  0.11079473591E+04  0.00000000000E+00 0.  1.
         25    1    1    2    0    0  0.94243874757E+02 -0.17764937875E+02 -0.44244929230E+03  0.46966357875E+03  0.12500000000E+03 0.  0.
         25    1    1    2    0    0 -0.19566946201E+03 -0.74019821993E+02 -0.50429081112E+03  0.56008900596E+03  0.12500000000E+03 0.  0.
         25    1    1    2    0    0  0.10142558726E+03  0.91784759867E+02 -0.47987772042E+02  0.19141425798E+03  0.12500000000E+03 0.  0.
</event>
<event>
 5    0  0.5474724E-005  0.3475524E+03  0.7546771E-02  0.1063624E+00
         21   -1    0    0  502  501  0.00000000000E+00  0.00000000000E+00  0.27547196158E+03  0.27547196158E+03  0.00000000000E+00 0. -1.
         21   -1    0    0  501  502 -0.00000000000E+00 -0.00000000000E+00 -0.43849344498E+03  0.43849344498E+03  0.00000000000E+00 0. -1.
         25    1    1    2    0    0 -0.91275648816E+02 -0.42995883241E+02 -0.25466617270E+02  0.16264513100E+03  0.12500000000E+03 0.  0.
         25    1    1    2    0    0  0.54741153522E+02  0.20206049470E+03  0.75510895163E+02  0.25524876629E+03  0.12500000000E+03 0.  0.
         25    1    1    2    0    0  0.36534495294E+02 -0.15906461146E+03 -0.21306576129E+03  0.29607150927E+03  0.12500000000E+03 0.  0.
</event>
<event>
 5    0  0.5474724E-005  0.2881538E+03  0.7546771E-02  0.1091317E+00
         21   -1    0    0  502  501  0.00000000000E+00  0.00000000000E+00  0.28645638719E+03  0.28645638719E+03  0.00000000000E+00 0.  1.
         21   -1    0    0  501  502 -0.00000000000E+00 -0.00000000000E+00 -0.28986124829E+03  0.28986124829E+03  0.00000000000E+00 0.  1.
         25    1    1    2    0    0 -0.10752552747E+03  0.57134692943E+02  0.13723692968E+03  0.22200244833E+03  0.12500000000E+03 0.  0.
         25    1    1    2    0    0  0.43770043469E+02 -0.93702857156E+02 -0.13182108548E+03  0.20904028492E+03  0.12500000000E+03 0.  0.
         25    1    1    2    0    0  0.63755484002E+02  0.36568164213E+02 -0.88207053025E+01  0.14527490222E+03  0.12500000000E+03 0.  0.
</event>
<event>
 5    0  0.5474724E-005  0.4765108E+03  0.7546771E-02  0.1020099E+00
         21   -1    0    0  502  501  0.00000000000E+00  0.00000000000E+00  0.55464516818E+03  0.55464516818E+03  0.00000000000E+00 0. -1.
         21   -1    0    0  501  502 -0.00000000000E+00 -0.00000000000E+00 -0.40938338757E+03  0.40938338757E+03  0.00000000000E+00 0. -1.
         25    1    1    2    0    0  0.13541949571E+03 -0.18184784651E+03 -0.81486542506E+02  0.27142611464E+03  0.12500000000E+03 0.  0.
         25    1    1    2    0    0 -0.24416792940E+03  0.25121707286E+03  0.31959782349E+03  0.49040367476E+03  0.12500000000E+03 0.  0.
         25    1    1    2    0    0  0.10874843369E+03 -0.69369226359E+02 -0.92849500375E+02  0.20219876635E+03  0.12500000000E+03 0.  0.
</event>
<event>
 5    0  0.5474724E-005  0.3860297E+03  0.7546771E-02  0.1048727E+00
         21   -1    0    0  502  501  0.00000000000E+00  0.00000000000E+00  0.39368256695E+03  0.39368256695E+03  0.00000000000E+00 0.  1.
         21   -1    0    0  501  502 -0.00000000000E+00 -0.00000000000E+00 -0.37852568399E+03  0.37852568399E+03  0.00000000000E+00 0.  1.
         25    1    1    2    0    0 -0.65025788963E+02 -0.26941156087E+02  0.11112838828E+03  0.18146266229E+03  0.12500000000E+03 0.  0.
         25    1    1    2    0    0  0.22981008435E+03  0.49493900566E+02  0.11895493311E+03  0.29161206624E+03  0.12500000000E+03 0.  0.
         25    1    1    2    0    0 -0.16478429539E+03 -0.22552744479E+02 -0.21492643844E+03  0.29913352241E+03  0.12500000000E+03 0.  0.
</event>
<event>
 5    0  0.5474724E-005  0.4481033E+03  0.7546771E-02  0.1028289E+00
         21   -1    0    0  502  501  0.00000000000E+00  0.00000000000E+00  0.16718932916E+03  0.16718932916E+03  0.00000000000E+00 0. -1.
         21   -1    0    0  501  502 -0.00000000000E+00 -0.00000000000E+00 -0.12010129324E+04  0.12010129324E+04  0.00000000000E+00 0. -1.
         25    1    1    2    0    0  0.28817220502E+03  0.85154530582E+02 -0.24753972277E+03  0.40889537559E+03  0.12500000000E+03 0.  0.
         25    1    1    2    0    0  0.47952450590E+02  0.12417412858E+02 -0.68240300880E+02  0.15078251995E+03  0.12500000000E+03 0.  0.
         25    1    1    2    0    0 -0.33612465561E+03 -0.97571943440E+02 -0.71804357962E+03  0.80852436605E+03  0.12500000000E+03 0.  0.
</event>
<event>
 5    0  0.5474724E-005  0.3191216E+03  0.7546771E-02  0.1076054E+00
         21   -1    0    0  502  501  0.00000000000E+00  0.00000000000E+00  0.45861612420E+03  0.45861612420E+03  0.00000000000E+00 0. -1.
         21   -1    0    0  501  502 -0.00000000000E+00 -0.00000000000E+00 -0.22205629609E+03  0.22205629609E+03  0.00000000000E+00 0. -1.
         25    1    1    2    0    0  0.78220751360E+02  0.14702540300E+00  0.37525340755E+02  0.15215669147E+03  0.12500000000E+03 0.  0.
         25    1    1    2    0    0  0.72157310068E+00 -0.23839684616E+02 -0.12074266136E+03  0.17542132568E+03  0.12500000000E+03 0.  0.
         25    1    1    2    0    0 -0.78942324461E+02  0.23692659213E+02  0.31977714872E+03  0.35309440315E+03  0.12500000000E+03 0.  0.
</event>
<event>
 5    0  0.5474724E-005  0.3190653E+03  0.7546771E-02  0.1076080E+00
         21   -1    0    0  502  501  0.00000000000E+00  0.00000000000E+00  0.21214039421E+03  0.21214039421E+03  0.00000000000E+00 0. -1.
         21   -1    0    0  501  502 -0.00000000000E+00 -0.00000000000E+00 -0.47988359341E+03  0.47988359341E+03  0.00000000000E+00 0. -1.
         25    1    1    2    0    0  0.19323738030E+03  0.88324439904E+02 -0.12884428068E+03  0.27815057162E+03  0.12500000000E+03 0.  0.
         25    1    1    2    0    0 -0.20511246378E+03 -0.71408563953E+01 -0.88552962967E+02  0.25610299076E+03  0.12500000000E+03 0.  0.
         25    1    1    2    0    0  0.11875083481E+02 -0.81183583509E+02 -0.50345955559E+02  0.15777042524E+03  0.12500000000E+03 0.  0.
</event>
<event>
 5    0  0.5724229E-005  0.3538077E+03  0.7546771E-02  0.1061063E+00
         21   -1    0    0  502  501  0.00000000000E+00  0.00000000000E+00  0.26731182092E+03  0.26731182092E+03  0.00000000000E+00 0.  1.
         21   -1    0    0  501  502 -0.00000000000E+00 -0.00000000000E+00 -0.46829170224E+03  0.46829170224E+03  0.00000000000E+00 0.  1.
         25    1    1    2    0    0  0.75800434199E+02  0.15415209975E+03 -0.99929776453E+02  0.23477550108E+03  0.12500000000E+03 0.  0.
         25    1    1    2    0    0  0.36280305431E+02 -0.21276850898E+03 -0.17865352491E+03  0.30680414101E+03  0.12500000000E+03 0.  0.
         25    1    1    2    0    0 -0.11208073963E+03  0.58616409227E+02  0.77603420040E+02  0.19402388108E+03  0.12500000000E+03 0.  0.
</event>
<event>
 5    0  0.5474724E-005  0.5772552E+03  0.7546771E-02  0.9953751E-01
         21   -1    0    0  502  501  0.00000000000E+00  0.00000000000E+00  0.81282532110E+03  0.81282532110E+03  0.00000000000E+00 0.  1.
         21   -1    0    0  501  502 -0.00000000000E+00 -0.00000000000E+00 -0.40995713852E+03  0.40995713852E+03  0.00000000000E+00 0.  1.
         25    1    1    2    0    0  0.23932000229E+03 -0.11883762637E+03 -0.26195195789E+03  0.39451270345E+03  0.12500000000E+03 0.  0.
         25    1    1    2    0    0 -0.15274597601E+03  0.13376060602E+03  0.12899179597E+03  0.27108507214E+03  0.12500000000E+03 0.  0.
         25    1    1    2    0    0 -0.86574026285E+02 -0.14922979659E+02  0.53582834450E+03  0.55718468403E+03  0.12500000000E+03 0.  0.
</event>
<event>
 5    0  0.5474724E-005  0.2507907E+03  0.7546771E-02  0.1112806E+00
         21   -1    0    0  502  501  0.00000000000E+00  0.00000000000E+00  0.28664172433E+02  0.28664172433E+02  0.00000000000E+00 0. -1.
         21   -1    0    0  501  502 -0.00000000000E+00 -0.00000000000E+00 -0.21942357313E+04  0.21942357313E+04  0.00000000000E+00 0. -1.
         25    1    1    2    0    0 -0.99794250001E+02 -0.55231772240E+02 -0.42945487949E+03  0.46159065688E+03  0.12500000000E+03 0.  0.
         25    1    1    2    0    0  0.80045267590E+02  0.57624729587E+02 -0.11964242308E+04  0.12069729883E+04  0.12500000000E+03 0.  0.
         25    1    1    2    0    0  0.19748982411E+02 -0.23929573465E+01 -0.53969244852E+03  0.55433625855E+03  0.12500000000E+03 0.  0.
</event>
<event>
 5    0  0.5474724E-005  0.3156134E+03  0.7546771E-02  0.1077686E+00
         21   -1    0    0  502  501  0.00000000000E+00  0.00000000000E+00  0.11704138470E+04  0.11704138470E+04  0.00000000000E+00 0. -1.
         21   -1    0    0  501  502 -0.00000000000E+00 -0.00000000000E+00 -0.85108181940E+02  0.85108181940E+02  0.00000000000E+00 0. -1.
         25    1    1    2    0    0  0.18945847073E+02  0.75369412276E+02  0.34073159489E+03  0.37116372827E+03  0.12500000000E+03 0.  0.
         25    1    1    2    0    0  0.10747293487E+03  0.12669988772E+03  0.33434866788E+03  0.39372239584E+03  0.12500000000E+03 0.  0.
         25    1    1    2    0    0 -0.12641878194E+03 -0.20206929999E+03  0.41022540234E+03  0.49063590487E+03  0.12500000000E+03 0.  0.
</event>
<event>
 5    0  0.5474724E-005  0.2616734E+03  0.7546771E-02  0.1106142E+00
         21   -1    0    0  502  501  0.00000000000E+00  0.00000000000E+00  0.12263803874E+03  0.12263803874E+03  0.00000000000E+00 0. -1.
         21   -1    0    0  501  502 -0.00000000000E+00 -0.00000000000E+00 -0.55833363659E+03  0.55833363659E+03  0.00000000000E+00 0. -1.
         25    1    1    2    0    0  0.75169935097E+02  0.61245021974E+02 -0.39029466125E+02  0.16294100492E+03  0.12500000000E+03 0.  0.
         25    1    1    2    0    0 -0.49754965550E+02  0.68479802122E+02 -0.19063519742E+03  0.24317034850E+03  0.12500000000E+03 0.  0.
         25    1    1    2    0    0 -0.25414969547E+02 -0.12972482410E+03 -0.20603093431E+03  0.27486032190E+03  0.12500000000E+03 0.  0.
</event>
<event>
 5    0  0.5474724E-005  0.2630060E+03  0.7546771E-02  0.1105350E+00
         21   -1    0    0  502  501  0.00000000000E+00  0.00000000000E+00  0.53987955164E+03  0.53987955164E+03  0.00000000000E+00 0.  1.
         21   -1    0    0  501  502 -0.00000000000E+00 -0.00000000000E+00 -0.12812521253E+03  0.12812521253E+03  0.00000000000E+00 0.  1.
         25    1    1    2    0    0  0.14268633850E+03  0.23570525065E+01  0.23596176931E+03  0.30276707792E+03  0.12500000000E+03 0.  0.
         25    1    1    2    0    0 -0.96697412413E+01 -0.27750706722E+02  0.11147661851E+03  0.17004599993E+03  0.12500000000E+03 0.  0.
         25    1    1    2    0    0 -0.13301659726E+03  0.25393654215E+02  0.64315951286E+02  0.19519168633E+03  0.12500000000E+03 0.  0.
</event>
<event>
 5    0  0.5474724E-005  0.5836214E+03  0.7546771E-02  0.9939981E-01
         21   -1    0    0  502  501  0.00000000000E+00  0.00000000000E+00  0.64447496733E+03  0.64447496733E+03  0.00000000000E+00 0. -1.
         21   -1    0    0  501  502 -0.00000000000E+00 -0.00000000000E+00 -0.52851376601E+03  0.52851376601E+03  0.00000000000E+00 0. -1.
         25    1    1    2    0    0 -0.98390640309E+02 -0.11056317605E+03  0.17705173812E+03  0.26244475985E+03  0.12500000000E+03 0.  0.
         25    1    1    2    0    0 -0.13895762761E+03 -0.26925676250E+03  0.19328521548E+03  0.38051622954E+03  0.12500000000E+03 0.  0.
         25    1    1    2    0    0  0.23734826792E+03  0.37981993855E+03 -0.25437575228E+03  0.53002774395E+03  0.12500000000E+03 0.  0.
</event>
<event>
 5    0  0.5474724E-005  0.4163871E+03  0.7546771E-02  0.1038249E+00
         21   -1    0    0  502  501  0.00000000000E+00  0.00000000000E+00  0.23366634680E+03  0.23366634680E+03  0.00000000000E+00 0.  1.
         21   -1    0    0  501  502 -0.00000000000E+00 -0.00000000000E+00 -0.74199065503E+03  0.74199065503E+03  0.00000000000E+00 0.  1.
         25    1    1    2    0    0 -0.13291370355E+03  0.25587590161E+03  0.20267298798E+02  0.31491950244E+03  0.12500000000E+03 0.  0.
         25    1    1    2    0    0  0.99265087133E+02 -0.19199390258E+03 -0.29905197334E+03  0.38957964386E+03  0.12500000000E+03 0.  0.
         25    1    1    2    0    0  0.33648616418E+02 -0.63881999026E+02 -0.22953963368E+03  0.27115785553E+03  0.12500000000E+03 0.  0.
</event>
<event>
 5    0  0.5474724E-005  0.4991065E+03  0.7546771E-02  0.1014012E+00
         21   -1    0    0  502  501  0.00000000000E+00  0.00000000000E+00  0.54788092781E+03  0.54788092781E+03  0.00000000000E+00 0. -1.
         21   -1    0    0  501  502 -0.00000000000E+00 -0.00000000000E+00 -0.45467413191E+03  0.45467413191E+03  0.00000000000E+00 0. -1.
         25    1    1    2    0    0 -0.27417836120E+02 -0.18103773557E+01 -0.32696746744E+02  0.13209501297E+03  0.12500000000E+03 0.  0.
         25    1    1    2    0    0 -0.34177986899E+03  0.13742657949E+03 -0.97685088844E+02  0.40108218631E+03  0.12500000000E+03 0.  0.
         25    1    1    2    0    0  0.36919770510E+03 -0.13561620214E+03  0.22358863149E+03  0.46937786044E+03  0.12500000000E+03 0.  0.
</event>
<event>
 5    0  0.5474724E-005  0.3785146E+03  0.7546771E-02  0.1051484E+00
         21   -1    0    0  502  501  0.00000000000E+00  0.00000000000E+00  0.68733093375E+02  0.68733093375E+02  0.00000000000E+00 0.  1.
         21   -1    0    0  501  502 -0.00000000000E+00 -0.00000000000E+00 -0.20844878971E+04  0.20844878971E+04  0.00000000000E+00 0.  1.
         25    1    1    2    0    0  0.36583377265E+02 -0.17937842368E+02 -0.46902965342E+03  0.48710771444E+03  0.12500000000E+03 0.  0.
         25    1    1    2    0    0  0.23211339222E+03  0.10292441740E+03 -0.99078787368E+03  0.10304152916E+04  0.12500000000E+03 0.  0.
         25    1    1    2    0    0 -0.26869676948E+03 -0.84986575032E+02 -0.55593727663E+03  0.63569798444E+03  0.12500000000E+03 0.  0.
</event>
<event>
 5    0  0.5474724E-005  0.2710248E+03  0.7546771E-02  0.1100695E+00
         21   -1    0    0  502  501  0.00000000000E+00  0.00000000000E+00  0.12929331748E+03  0.12929331748E+03  0.00000000000E+00 0.  1.
         21   -1    0    0  501  502 -0.00000000000E+00 -0.00000000000E+00 -0.56812249643E+03  0.56812249643E+03  0.00000000000E+00 0.  1.
         25    1    1    2    0    0  0.72779063893E+01  0.77318268911E+02 -0.82970689557E+02  0.16893850347E+03  0.12500000000E+03 0.  0.
         25    1    1    2    0    0 -0.57465962205E+02 -0.17244211386E+03 -0.24552004845E+03  0.33006622614E+03  0.12500000000E+03 0.  0.
         25    1    1    2    0    0  0.50188055816E+02  0.95123844949E+02 -0.11033844094E+03  0.19841108430E+03  0.12500000000E+03 0.  0.
</event>
<event>
 5    0  0.5474724E-005  0.4263804E+03  0.7546771E-02  0.1035010E+00
         21   -1    0    0  502  501  0.00000000000E+00  0.00000000000E+00  0.46657907693E+03  0.46657907693E+03  0.00000000000E+00 0. -1.
         21   -1    0    0  501  502 -0.00000000000E+00 -0.00000000000E+00 -0.38964512791E+03  0.38964512791E+03  0.00000000000E+00 0. -1.
         25    1    1    2    0    0  0.28890401754E+03 -0.28063208164E+02 -0.10485814130E+03  0.33297643280E+03  0.12500000000E+03 0.  0.
         25    1    1    2    0    0 -0.25675448912E+03  0.10298293268E+03  0.21292679313E+03  0.37079801960E+03  0.12500000000E+03 0.  0.
         25    1    1    2    0    0 -0.32149528414E+02 -0.74919724518E+02 -0.31134702810E+02  0.15244975244E+03  0.12500000000E+03 0.  0.
</event>
<event>
 5    0  0.5474724E-005  0.3857486E+03  0.7546771E-02  0.1048829E+00
         21   -1    0    0  502  501  0.00000000000E+00  0.00000000000E+00  0.49609342222E+03  0.49609342222E+03  0.00000000000E+00 0.  1.
         21   -1    0    0  501  502 -0.00000000000E+00 -0.00000000000E+00 -0.29994744903E+03  0.29994744903E+03  0.00000000000E+00 0.  1.
         25    1    1    2    0    0  0.12621184432E+03  0.82594338268E+02  0.23184154128E+03  0.30352389465E+03  0.12500000000E+03 0.  0.
         25    1    1    2    0    0 -0.14613024538E+03  0.35241293598E+02  0.14423752472E+03  0.24295156086E+03  0.12500000000E+03 0.  0.
         25    1    1    2    0    0  0.19918401057E+02 -0.11783563187E+03 -0.17993309281E+03  0.24956541573E+03  0.12500000000E+03 0.  0.
</event>
<event>
 5    0  0.5474724E-005  0.3598355E+03  0.7546771E-02  0.1058649E+00
         21   -1    0    0  502  501  0.00000000000E+00  0.00000000000E+00  0.14445925534E+03  0.14445925534E+03  0.00000000000E+00 0. -1.
         21   -1    0    0  501  502 -0.00000000000E+00 -0.00000000000E+00 -0.89631894224E+03  0.89631894224E+03  0.00000000000E+00 0. -1.
         25    1    1    2    0    0 -0.80427882644E+02  0.23592980310E+03 -0.19826415794E+03  0.34214791044E+03  0.12500000000E+03 0.  0.
         25    1    1    2    0    0  0.91945379443E+02 -0.13572782504E+03 -0.47911026665E+03  0.52158186596E+03  0.12500000000E+03 0.  0.
         25    1    1    2    0    0 -0.11517496799E+02 -0.10020197806E+03 -0.74485262312E+02  0.17704842118E+03  0.12500000000E+03 0.  0.
</event>
<event>
 5    0  0.5474724E-005  0.2782686E+03  0.7546771E-02  0.1096638E+00
         21   -1    0    0  502  501  0.00000000000E+00  0.00000000000E+00  0.18320347888E+04  0.18320347888E+04  0.00000000000E+00 0.  1.
         21   -1    0    0  501  502 -0.00000000000E+00 -0.00000000000E+00 -0.42266343277E+02  0.42266343277E+02  0.00000000000E+00 0.  1.
         25    1    1    2    0    0  0.93306458455E+02  0.41364530245E+02  0.28171676220E+03  0.32466360076E+03  0.12500000000E+03 0.  0.
         25    1    1    2    0    0  0.10928052355E+02  0.55307617497E+02  0.96154695744E+03  0.97127540185E+03  0.12500000000E+03 0.  0.
         25    1    1    2    0    0 -0.10423451081E+03 -0.96672147742E+02  0.54650472592E+03  0.57836212950E+03  0.12500000000E+03 0.  0.
</event>
<event>
 5    0  0.5474724E-005  0.4178071E+03  0.7546771E-02  0.1037782E+00
         21   -1    0    0  502  501  0.00000000000E+00  0.00000000000E+00  0.13049777974E+03  0.13049777974E+03  0.00000000000E+00 0.  1.
         21   -1    0    0  501  502 -0.00000000000E+00 -0.00000000000E+00 -0.13376682193E+04  0.13376682193E+04  0.00000000000E+00 0.  1.
         25    1    1    2    0    0 -0.84580474073E+02  0.72384941152E+02 -0.14031052743E+03  0.21841584285E+03  0.12500000000E+03 0.  0.
         25    1    1    2    0    0 -0.16374284171E+03 -0.24661948104E+03 -0.48582999965E+03  0.58248491413E+03  0.12500000000E+03 0.  0.
         25    1    1    2    0    0  0.24832331578E+03  0.17423453988E+03 -0.58102991249E+03  0.66726524205E+03  0.12500000000E+03 0.  0.
</event>
<event>
 5    0  0.5474724E-005  0.4064231E+03  0.7546771E-02  0.1041578E+00
         21   -1    0    0  502  501  0.00000000000E+00  0.00000000000E+00  0.55863870541E+03  0.55863870541E+03  0.00000000000E+00 0. -1.
         21   -1    0    0  501  502 -0.00000000000E+00 -0.00000000000E+00 -0.29568253540E+03  0.29568253540E+03  0.00000000000E+00 0. -1.
         25    1    1    2    0    0 -0.29991568866E+03  0.13402678356E+03  0.19342933491E+03  0.40118886652E+03  0.12500000000E+03 0.  0.
         25    1    1    2    0    0  0.83012496305E+02 -0.36489585973E+02  0.98088159655E+02  0.18294494115E+03  0.12500000000E+03 0.  0.
         25    1    1    2    0    0  0.21690319236E+03 -0.97537197586E+02 -0.28561324554E+02  0.27018743314E+03  0.12500000000E+03 0.  0.
</event>
<event>
 5    0  0.5474724E-005  0.3817952E+03  0.7546771E-02  0.1050272E+00
         21   -1    0    0  502  501  0.00000000000E+00  0.00000000000E+00  0.11421046625E+03  0.11421046625E+03  0.00000000000E+00 0.  1.
         21   -1    0    0  501  502 -0.00000000000E+00 -0.00000000000E+00 -0.12763068759E+04  0.12763068759E+04  0.00000000000E+00 0.  1.
         25    1    1    2    0    0  0.92888429730E+02  0.16787611840E+03 -0.51950774092E+03  0.56773580509E+03  0.12500000000E+03 0.  0.
         25    1    1    2    0    0  0.10551806854E+02  0.11780285777E+03 -0.31434469006E+03  0.35836634621E+03  0.12500000000E+03 0.  0.
         25    1    1    2    0    0 -0.10344023658E+03 -0.28567897616E+03 -0.32824397868E+03  0.46441519087E+03  0.12500000000E+03 0.  0.
</event>
<event>
 5    0  0.5875151E-005  0.3299342E+03  0.7546771E-02  0.1071166E+00
         21   -1    0    0  502  501  0.00000000000E+00  0.00000000000E+00  0.17956214271E+03  0.17956214271E+03  0.00000000000E+00 0.  1.
         21   -1    0    0  501  502 -0.00000000000E+00 -0.00000000000E+00 -0.60623359346E+03  0.60623359346E+03  0.00000000000E+00 0.  1.
         25    1    1    2    0    0 -0.40608111595E+02 -0.12403203842E+03 -0.18769094204E+02  0.18168721524E+03  0.12500000000E+03 0.  0.
         25    1    1    2    0    0  0.80142006171E+02  0.42252791854E+02  0.13793737581E+02  0.15499453787E+03  0.12500000000E+03 0.  0.
         25    1    1    2    0    0 -0.39533894576E+02  0.81779246569E+02 -0.42169609412E+03  0.44911398307E+03  0.12500000000E+03 0.  0.
</event>
<event>
 5    0  0.5474724E-005  0.3210686E+03  0.7546771E-02  0.1075159E+00
         21   -1    0    0  502  501  0.00000000000E+00  0.00000000000E+00  0.89729860565E+03  0.89729860565E+03  0.00000000000E+00 0.  1.
         21   -1    0    0  501  502 -0.00000000000E+00 -0.00000000000E+00 -0.11488376956E+03  0.11488376956E+03  0.00000000000E+00 0.  1.
         25    1    1    2    0    0 -0.15136713251E+03 -0.72778829585E+02  0.19957071462E+03  0.28924425141E+03  0.12500000000E+03 0.  0.
         25    1    1    2    0    0  0.22740607522E+02  0.11447289297E+02  0.20117316430E+02  0.12914287469E+03  0.12500000000E+03 0.  0.
         25    1    1    2    0    0  0.12862652499E+03  0.61331540288E+02  0.56272680503E+03  0.59379524911E+03  0.12500000000E+03 0.  0.
</event>
<event>
 5    0  0.5474724E-005  0.3185316E+03  0.7546771E-02  0.1076327E+00
         21   -1    0    0  502  501  0.00000000000E+00  0.00000000000E+00  0.96704913308E+03  0.96704913308E+03  0.00000000000E+00 0.  1.
         21   -1    0    0  501  502 -0.00000000000E+00 -0.00000000000E+00 -0.10491957981E+03  0.10491957981E+03  0.00000000000E+00 0.  1.
         25    1    1    2    0    0 -0.17901912727E+03 -0.20716333621E+02  0.38124558014E+03  0.43982974750E+03  0.12500000000E+03 0.  0.
         25    1    1    2    0    0  0.18347875558E+03 -0.48971690890E+02  0.41784957065E+03  0.47569522170E+03  0.12500000000E+03 0.  0.
         25    1    1    2    0    0 -0.44596283131E+01  0.69688024511E+02  0.63034402479E+02  0.15644374369E+03  0.12500000000E+03 0.  0.
</event>
<event>
 5    0  0.5474724E-005  0.2998159E+03  0.7546771E-02  0.1085333E+00
         21   -1    0    0  502  501  0.00000000000E+00  0.00000000000E+00  0.22450319623E+04  0.22450319623E+04  0.00000000000E+00 0.  1.
         21   -1    0    0  501  502 -0.00000000000E+00 -0.00000000000E+00 -0.40039331396E+02  0.40039331396E+02  0.00000000000E+00 0.  1.
         25    1    1    2    0    0  0.57582179442E+01  0.71838104944E+00  0.23614843164E+03  0.26725410177E+03  0.12500000000E+03 0.  0.
         25    1    1    2    0    0 -0.11927600227E+03 -0.86503004885E+02  0.48719372996E+03  0.52411092822E+03  0.12500000000E+03 0.  0.
         25    1    1    2    0    0  0.11351778433E+03  0.85784623835E+02  0.14816504693E+04  0.14937062637E+04  0.12500000000E+03 0.  0.
</event>
<event>
 5    0  0.5474724E-005  0.2695891E+03  0.7546771E-02  0.1101515E+00
         21   -1    0    0  502  501  0.00000000000E+00  0.00000000000E+00  0.26079533154E+04  0.26079533154E+04  0.00000000000E+00 0. -1.
         21   -1    0    0  501  502 -0.00000000000E+00 -0.00000000000E+00 -0.27867930403E+02  0.27867930403E+02  0.00000000000E+00 0. -1.
         25    1    1    2    0    0  0.82579476462E+02  0.52309752144E+02  0.81472001127E+03  0.83002974457E+03  0.12500000000E+03 0.  0.
         25    1    1    2    0    0  0.69240842496E+02 -0.24130587559E+02  0.11513920117E+04  0.11604762575E+04  0.12500000000E+03 0.  0.
         25    1    1    2    0    0 -0.15182031896E+03 -0.28179164586E+02  0.61397336196E+03  0.64531524371E+03  0.12500000000E+03 0.  0.
</event>
<event>
 5    0  0.5474724E-005  0.2675143E+03  0.7546771E-02  0.1102711E+00
         21   -1    0    0  502  501  0.00000000000E+00  0.00000000000E+00  0.10753239088E+04  0.10753239088E+04  0.00000000000E+00 0.  1.
         21   -1    0    0  501  502 -0.00000000000E+00 -0.00000000000E+00 -0.66551020708E+02  0.66551020708E+02  0.00000000000E+00 0.  1.
         25    1    1    2    0    0 -0.84534525530E+02  0.70404391411E+02  0.15065967319E+03  0.22455779092E+03  0.12500000000E+03 0.  0.
         25    1    1    2    0    0  0.21908208614E+02  0.22456963734E+02  0.56536684835E+03  0.57986977679E+03  0.12500000000E+03 0.  0.
         25    1    1    2    0    0  0.62626316916E+02 -0.92861355145E+02  0.29274636652E+03  0.33744736176E+03  0.12500000000E+03 0.  0.
</event>
<event>
 5    0  0.8855432E-005  0.2798889E+03  0.7546771E-02  0.1095750E+00
         21   -1    0    0  502  501  0.00000000000E+00  0.00000000000E+00  0.56486002341E+03  0.56486002341E+03  0.00000000000E+00 0.  1.
         21   -1    0    0  501  502 -0.00000000000E+00 -0.00000000000E+00 -0.13868533589E+03  0.13868533589E+03  0.00000000000E+00 0.  1.
         25    1    1    2    0    0 -0.13097092030E+02 -0.74028424537E+02  0.26607105979E+03  0.30343129423E+03  0.12500000000E+03 0.  0.
         25    1    1    2    0    0  0.28794985093E+02  0.16237106770E+03  0.56113273613E+02  0.21439966014E+03  0.12500000000E+03 0.  0.
         25    1    1    2    0    0 -0.15697893063E+02 -0.88342643166E+02  0.10399035411E+03  0.18571440492E+03  0.12500000000E+03 0.  0.
</event>
<event>
 5    0  0.5474724E-005  0.3962770E+03  0.7546771E-02  0.1045077E+00
         21   -1    0    0  502  501  0.00000000000E+00  0.00000000000E+00  0.17146263085E+03  0.17146263085E+03  0.00000000000E+00 0.  1.
         21   -1    0    0  501  502 -0.00000000000E+00 -0.00000000000E+00 -0.91585800052E+03  0.91585800052E+03  0.00000000000E+00 0.  1.
         25    1    1    2    0    0  0.11023362339E+03  0.21616050460E+03 -0.15040181933E+03  0.31164486637E+03  0.12500000000E+03 0.  0.
         25    1    1    2    0    0 -0.13025883472E+03 -0.11202245922E+03 -0.65482446952E+02  0.22232711542E+03  0.12500000000E+03 0.  0.
         25    1    1    2    0    0  0.20025211325E+02 -0.10413804538E+03 -0.52851110339E+03  0.55334864958E+03  0.12500000000E+03 0.  0.
</event>
<event>
 5    0  0.5474724E-005  0.2363461E+03  0.7546771E-02  0.1122251E+00
         21   -1    0    0  502  501  0.00000000000E+00  0.00000000000E+00  0.19332333517E+03  0.19332333517E+03  0.00000000000E+00 0.  1.
         21   -1    0    0  501  502 -0.00000000000E+00 -0.00000000000E+00 -0.28894323653E+03  0.28894323653E+03  0.00000000000E+00 0.  1.
         25    1    1    2    0    0  0.97877503343E+01  0.29197640853E+02  0.37751870232E+02  0.13415851070E+03  0.12500000000E+03 0.  0.
         25    1    1    2    0    0  0.53745300561E+02 -0.93747644217E+02 -0.49809510880E+02  0.17257799832E+03  0.12500000000E+03 0.  0.
         25    1    1    2    0    0 -0.63533050895E+02  0.64550003363E+02 -0.83562260714E+02  0.17553006268E+03  0.12500000000E+03 0.  0.
</event>
<event>
 5    0  0.5474724E-005  0.5325623E+03  0.7546771E-02  0.1005613E+00
         21   -1    0    0  502  501  0.00000000000E+00  0.00000000000E+00  0.19227844551E+03  0.19227844551E+03  0.00000000000E+00 0.  1.
         21   -1    0    0  501  502 -0.00000000000E+00 -0.00000000000E+00 -0.14750620669E+04  0.14750620669E+04  0.00000000000E+00 0.  1.
         25    1    1    2    0    0 -0.15627660043E+03  0.32139571265E+03 -0.13839458935E+03  0.40310748233E+03  0.12500000000E+03 0.  0.
         25    1    1    2    0    0 -0.32244189032E+02 -0.27778860550E+03 -0.62370573544E+03  0.69486692358E+03  0.12500000000E+03 0.  0.
         25    1    1    2    0    0  0.18852078946E+03 -0.43607107142E+02 -0.52068329658E+03  0.56936610647E+03  0.12500000000E+03 0.  0.
</event>
<event>
 5    0  0.5474724E-005  0.3133909E+03  0.7546771E-02  0.1078732E+00
         21   -1    0    0  502  501  0.00000000000E+00  0.00000000000E+00  0.85903082487E+03  0.85903082487E+03  0.00000000000E+00 0.  1.
         21   -1    0    0  501  502 -0.00000000000E+00 -0.00000000000E+00 -0.11433097512E+03  0.11433097512E+03  0.00000000000E+00 0.  1.
         25    1    1    2    0    0 -0.18509091477E+03  0.31828000179E+02  0.50788869826E+03  0.55574058530E+03  0.12500000000E+03 0.  0.
         25    1    1    2    0    0  0.28459096488E+02 -0.60030803132E+02  0.93646858606E+02  0.16973023191E+03  0.12500000000E+03 0.  0.
         25    1    1    2    0    0  0.15663181828E+03  0.28202802952E+02  0.14316429288E+03  0.24789098279E+03  0.12500000000E+03 0.  0.
</event>
<event>
 5    0  0.5474724E-005  0.2600014E+03  0.7546771E-02  0.1107142E+00
         21   -1    0    0  502  501  0.00000000000E+00  0.00000000000E+00  0.92374965966E+02  0.92374965966E+02  0.00000000000E+00 0.  1.
         21   -1    0    0  501  502 -0.00000000000E+00 -0.00000000000E+00 -0.73180804429E+03  0.73180804429E+03  0.00000000000E+00 0. -1.
         25    1    1    2    0    0  0.20193387525E+02 -0.10243851116E+03 -0.22308759313E+03  0.27621458266E+03  0.12500000000E+03 0.  0.
         25    1    1    2    0    0  0.47433718747E+02 -0.30747488485E+02 -0.27497535628E+03  0.30729759563E+03  0.12500000000E+03 0.  0.
         25    1    1    2    0    0 -0.67627106272E+02  0.13318599965E+03 -0.14137012892E+03  0.24067083196E+03  0.12500000000E+03 0.  0.
</event>
<event>
 5    0  0.5474724E-005  0.2886954E+03  0.7546771E-02  0.1091032E+00
         21   -1    0    0  502  501  0.00000000000E+00  0.00000000000E+00  0.32184391256E+03  0.32184391256E+03  0.00000000000E+00 0.  1.
         21   -1    0    0  501  502 -0.00000000000E+00 -0.00000000000E+00 -0.25896110010E+03  0.25896110010E+03  0.00000000000E+00 0.  1.
         25    1    1    2    0    0  0.12745995820E+03  0.75103737049E+02  0.15807462738E+03  0.24999840016E+03  0.12500000000E+03 0.  0.
         25    1    1    2    0    0 -0.59369160925E+01 -0.71858046573E+01 -0.11595815091E+02  0.12588226916E+03  0.12500000000E+03 0.  0.
         25    1    1    2    0    0 -0.12152304210E+03 -0.67917932391E+02 -0.83595999828E+02  0.20492434333E+03  0.12500000000E+03 0.  0.
</event>
<event>
 5    0  0.5474724E-005  0.2787809E+03  0.7546771E-02  0.1096357E+00
         21   -1    0    0  502  501  0.00000000000E+00  0.00000000000E+00  0.36679186366E+03  0.36679186366E+03  0.00000000000E+00 0.  1.
         21   -1    0    0  501  502 -0.00000000000E+00 -0.00000000000E+00 -0.21188802298E+03  0.21188802298E+03  0.00000000000E+00 0.  1.
         25    1    1    2    0    0  0.18201169283E+02 -0.77970265820E+02  0.38646912041E+01  0.14849437953E+03  0.12500000000E+03 0.  0.
         25    1    1    2    0    0  0.71047393257E+02 -0.32087293851E+02 -0.48772354555E+02  0.15518076261E+03  0.12500000000E+03 0.  0.
         25    1    1    2    0    0 -0.89248562540E+02  0.11005755967E+03  0.19981150403E+03  0.27500474450E+03  0.12500000000E+03 0.  0.
</event>
<event>
 5    0  0.5474724E-005  0.4611276E+03  0.7546771E-02  0.1024455E+00
         21   -1    0    0  502  501  0.00000000000E+00  0.00000000000E+00  0.24942008311E+04  0.24942008311E+04  0.00000000000E+00 0.  1.
         21   -1    0    0  501  502 -0.00000000000E+00 -0.00000000000E+00 -0.85253222116E+02  0.85253222116E+02  0.00000000000E+00 0.  1.
         25    1    1    2    0    0  0.81776433316E+02 -0.11632233905E+03  0.20377229234E+04  0.20464989578E+04  0.12500000000E+03 0.  0.
         25    1    1    2    0    0 -0.15958192860E+02  0.17148180632E+03  0.29353331539E+03  0.36255686597E+03  0.12500000000E+03 0.  0.
         25    1    1    2    0    0 -0.65818240456E+02 -0.55159467274E+02  0.77691370200E+02  0.17039822948E+03  0.12500000000E+03 0.  0.
</event>
<event>
 5    0  0.5474724E-005  0.3398999E+03  0.7546771E-02  0.1066839E+00
         21   -1    0    0  502  501  0.00000000000E+00  0.00000000000E+00  0.17085805700E+03  0.17085805700E+03  0.00000000000E+00 0.  1.
         21   -1    0    0  501  502 -0.00000000000E+00 -0.00000000000E+00 -0.67618673302E+03  0.67618673302E+03  0.00000000000E+00 0.  1.
         25    1    1    2    0    0 -0.19173963144E+03 -0.10114480671E+03 -0.10844658993E+03  0.27272700830E+03  0.12500000000E+03 0.  0.
         25    1    1    2    0    0  0.34475069596E+02  0.15932585395E+03 -0.18185124183E+03  0.27435038239E+03  0.12500000000E+03 0.  0.
         25    1    1    2    0    0  0.15726456185E+03 -0.58181047244E+02 -0.21503084426E+03  0.29996739932E+03  0.12500000000E+03 0.  0.
</event>
<event>
 5    0  0.5474724E-005  0.3036395E+03  0.7546771E-02  0.1083435E+00
         21   -1    0    0  502  501  0.00000000000E+00  0.00000000000E+00  0.15078488412E+04  0.15078488412E+04  0.00000000000E+00 0.  1.
         21   -1    0    0  501  502 -0.00000000000E+00 -0.00000000000E+00 -0.61144668274E+02  0.61144668274E+02  0.00000000000E+00 0.  1.
         25    1    1    2    0    0 -0.16848733718E+02 -0.18198104243E+03  0.43462418948E+03  0.48777470795E+03  0.12500000000E+03 0.  0.
         25    1    1    2    0    0  0.99313640378E+02  0.47544323079E+02  0.32400202833E+03  0.36431576439E+03  0.12500000000E+03 0.  0.
         25    1    1    2    0    0 -0.82464906660E+02  0.13443671935E+03  0.68807795513E+03  0.71690303715E+03  0.12500000000E+03 0.  0.
</event>
<event>
 5    0  0.5474724E-005  0.3328860E+03  0.7546771E-02  0.1069867E+00
         21   -1    0    0  502  501  0.00000000000E+00  0.00000000000E+00  0.35094492009E+03  0.35094492009E+03  0.00000000000E+00 0.  1.
         21   -1    0    0  501  502 -0.00000000000E+00 -0.00000000000E+00 -0.31575640642E+03  0.31575640642E+03  0.00000000000E+00 0.  1.
         25    1    1    2    0    0  0.20860008444E+03  0.10038327237E+03  0.19625296811E+02  0.26381991751E+03  0.12500000000E+03 0.  0.
         25    1    1    2    0    0 -0.47117205542E+02 -0.77533447474E+02 -0.82598850124E+02  0.17515432218E+03  0.12500000000E+03 0.  0.
         25    1    1    2    0    0 -0.16148287890E+03 -0.22849824899E+02  0.98162066986E+02  0.22772708682E+03  0.12500000000E+03 0.  0.
</event>
<event>
 5    0  0.5474724E-005  0.3262480E+03  0.7546771E-02  0.1072809E+00
         21   -1    0    0  502  501  0.00000000000E+00  0.00000000000E+00  0.99980848909E+02  0.99980848909E+02  0.00000000000E+00 0.  1.
         21   -1    0    0  501  502 -0.00000000000E+00 -0.00000000000E+00 -0.10645812980E+04  0.10645812980E+04  0.00000000000E+00 0.  1.
         25    1    1    2    0    0  0.81914881534E+02  0.54554357059E+02 -0.40731528481E+03  0.43728362299E+03  0.12500000000E+03 0.  0.
         25    1    1    2    0    0  0.14256246388E+03  0.27237882474E+02 -0.17489863145E+03  0.25938482923E+03  0.12500000000E+03 0.  0.
         25    1    1    2    0    0 -0.22447734542E+03 -0.81792239534E+02 -0.38238653287E+03  0.46789369473E+03  0.12500000000E+03 0.  0.
</event>
<event>
 5    0  0.5474724E-005  0.2763490E+03  0.7546771E-02  0.1097700E+00
         21   -1    0    0  502  501  0.00000000000E+00  0.00000000000E+00  0.57047145853E+02  0.57047145853E+02  0.00000000000E+00 0. -1.
         21   -1    0    0  501  502 -0.00000000000E+00 -0.00000000000E+00 -0.13386958996E+04  0.13386958996E+04  0.00000000000E+00 0. -1.
         25    1    1    2    0    0 -0.13006132481E+02 -0.27116451589E+01 -0.51126717368E+03  0.52649371827E+03  0.12500000000E+03 0.  0.
         25    1    1    2    0    0 -0.94110601907E+02 -0.11506915129E+03 -0.45213270574E+03  0.49208403609E+03  0.12500000000E+03 0.  0.
         25    1    1    2    0    0  0.10711673439E+03  0.11778079645E+03 -0.31824887437E+03  0.37716529113E+03  0.12500000000E+03 0.  0.
</event>
<event>
 5    0  0.5903329E-005  0.3007626E+03  0.7546771E-02  0.1084860E+00
         21   -1    0    0  502  501  0.00000000000E+00  0.00000000000E+00  0.31441469039E+03  0.31441469039E+03  0.00000000000E+00 0. -1.
         21   -1    0    0  501  502 -0.00000000000E+00 -0.00000000000E+00 -0.28770331044E+03  0.28770331044E+03  0.00000000000E+00 0. -1.
         25    1    1    2    0    0 -0.22767897593E+02 -0.91179188365E+02  0.51122096624E+02  0.16453112263E+03  0.12500000000E+03 0.  0.
         25    1    1    2    0    0 -0.99161731636E+02  0.15074986720E+03 -0.96133666087E+02  0.23963566771E+03  0.12500000000E+03 0.  0.
         25    1    1    2    0    0  0.12192962923E+03 -0.59570678838E+02  0.71722949411E+02  0.19795121049E+03  0.12500000000E+03 0.  0.
</event>
<event>
 5    0  0.5474724E-005  0.2523715E+03  0.7546771E-02  0.1111815E+00
         21   -1    0    0  502  501  0.00000000000E+00  0.00000000000E+00  0.79858031165E+02  0.79858031165E+02  0.00000000000E+00 0.  1.
         21   -1    0    0  501  502 -0.00000000000E+00 -0.00000000000E+00 -0.79755727369E+03  0.79755727369E+03  0.00000000000E+00 0.  1.
         25    1    1    2    0    0  0.12270800588E+02 -0.30784525878E+02 -0.51111662094E+03  0.52722240068E+03  0.12500000000E+03 0.  0.
         25    1    1    2    0    0 -0.26294069255E+02 -0.32508116664E+01 -0.17399363802E+03  0.21587202673E+03  0.12500000000E+03 0.  0.
         25    1    1    2    0    0  0.14023268667E+02  0.34035337544E+02 -0.32588983562E+02  0.13432087744E+03  0.12500000000E+03 0.  0.
</event>
<event>
 5    0  0.5474724E-005  0.3142336E+03  0.7546771E-02  0.1078334E+00
         21   -1    0    0  502  501  0.00000000000E+00  0.00000000000E+00  0.35885042745E+03  0.35885042745E+03  0.00000000000E+00 0.  1.
         21   -1    0    0  501  502 -0.00000000000E+00 -0.00000000000E+00 -0.27516407791E+03  0.27516407791E+03  0.00000000000E+00 0.  1.
         25    1    1    2    0    0  0.15641762588E+03 -0.79217854056E+02  0.85178697757E+00  0.21533152958E+03  0.12500000000E+03 0.  0.
         25    1    1    2    0    0  0.10720010450E+02  0.99536053294E+02 -0.53169174253E+02  0.16874331282E+03  0.12500000000E+03 0.  0.
         25    1    1    2    0    0 -0.16713763633E+03 -0.20318199238E+02  0.13600373682E+03  0.24993966297E+03  0.12500000000E+03 0.  0.
</event>
<event>
 5    0  0.5474724E-005  0.4903792E+03  0.7546771E-02  0.1016321E+00
         21   -1    0    0  502  501  0.00000000000E+00  0.00000000000E+00  0.16082345165E+04  0.16082345165E+04  0.00000000000E+00 0. -1.
         21   -1    0    0  501  502 -0.00000000000E+00 -0.00000000000E+00 -0.14952530302E+03  0.14952530302E+03  0.00000000000E+00 0. -1.
         25    1    1    2    0    0  0.30094543895E+03 -0.11363327904E+02  0.96344219972E+02  0.34000660459E+03  0.12500000000E+03 0.  0.
         25    1    1    2    0    0 -0.16868722457E+03 -0.25447271149E+00  0.71273125554E+03  0.74301163323E+03  0.12500000000E+03 0.  0.
         25    1    1    2    0    0 -0.13225821438E+03  0.11617800616E+02  0.64963373800E+03  0.67474158172E+03  0.12500000000E+03 0.  0.
</event>
<event>
 5    0  0.5474724E-005  0.3765400E+03  0.7546771E-02  0.1052220E+00
         21   -1    0    0  502  501  0.00000000000E+00  0.00000000000E+00  0.28244156768E+04  0.28244156768E+04  0.00000000000E+00 0.  1.
         21   -1    0    0  501  502 -0.00000000000E+00 -0.00000000000E+00 -0.50198834832E+02  0.50198834832E+02  0.00000000000E+00 0.  1.
         25    1    1    2    0    0 -0.58475717501E+02  0.11865121250E+03  0.19421330027E+03  0.26616033845E+03  0.12500000000E+03 0.  0.
         25    1    1    2    0    0 -0.85201353474E+01 -0.10110339054E+03  0.21351508937E+04  0.21412119995E+04  0.12500000000E+03 0.  0.
         25    1    1    2    0    0  0.66995852849E+02 -0.17547821957E+02  0.44485264799E+03  0.46724217359E+03  0.12500000000E+03 0.  0.
</event>
<event>
 5    0  0.5474724E-005  0.3501239E+03  0.7546771E-02  0.1062564E+00
         21   -1    0    0  502  501  0.00000000000E+00  0.00000000000E+00  0.40156141561E+03  0.40156141561E+03  0.00000000000E+00 0.  1.
         21   -1    0    0  501  502 -0.00000000000E+00 -0.00000000000E+00 -0.30527521411E+03  0.30527521411E+03  0.00000000000E+00 0.  1.
         25    1    1    2    0    0  0.21508875384E+03 -0.14108701620E+03  0.16708899483E+03  0.33122869798E+03  0.12500000000E+03 0.  0.
         25    1    1    2    0    0 -0.10545353238E+03  0.75577942015E+02  0.79112624956E+01  0.18033319407E+03  0.12500000000E+03 0.  0.
         25    1    1    2    0    0 -0.10963522146E+03  0.65509074190E+02 -0.78714055820E+02  0.19527473767E+03  0.12500000000E+03 0.  0.
</event>
<event>
 5    0  0.5474724E-005  0.2951204E+03  0.7546771E-02  0.1087706E+00
         21   -1    0    0  502  501  0.00000000000E+00  0.00000000000E+00  0.78120463191E+03  0.78120463191E+03  0.00000000000E+00 0.  1.
         21   -1    0    0  501  502 -0.00000000000E+00 -0.00000000000E+00 -0.11148942746E+03  0.11148942746E+03  0.00000000000E+00 0.  1.
         25    1    1    2    0    0  0.28840236364E+02  0.18181210448E+02  0.19441876828E+02  0.13101641966E+03  0.12500000000E+03 0.  0.
         25    1    1    2    0    0 -0.15093490395E+03 -0.64950432880E+02  0.42727398787E+03  0.47453973982E+03  0.12500000000E+03 0.  0.
         25    1    1    2    0    0  0.12209466758E+03  0.46769222433E+02  0.22299933975E+03  0.28713789988E+03  0.12500000000E+03 0.  0.
</event>
<event>
 5    0  0.5474724E-005  0.3243090E+03  0.7546771E-02  0.1073683E+00
         21   -1    0    0  502  501  0.00000000000E+00  0.00000000000E+00  0.14835176584E+03  0.14835176584E+03  0.00000000000E+00 0.  1.
         21   -1    0    0  501  502 -0.00000000000E+00 -0.00000000000E+00 -0.70896558710E+03  0.70896558710E+03  0.00000000000E+00 0.  1.
         25    1    1    2    0    0 -0.82751122910E+02 -0.27346033201E+02 -0.11502419480E+03  0.19092176215E+03  0.12500000000E+03 0.  0.
         25    1    1    2    0    0  0.61898513600E+02 -0.54596523619E+02 -0.48731895407E+03  0.50982052663E+03  0.12500000000E+03 0.  0.
         25    1    1    2    0    0  0.20852609310E+02  0.81942556820E+02  0.41729327608E+02  0.15657506416E+03  0.12500000000E+03 0.  0.
</event>
<event>
 5    0  0.5474724E-005  0.5280256E+03  0.7546771E-02  0.1006712E+00
         21   -1    0    0  502  501  0.00000000000E+00  0.00000000000E+00  0.11268287232E+04  0.11268287232E+04  0.00000000000E+00 0.  1.
         21   -1    0    0  501  502 -0.00000000000E+00 -0.00000000000E+00 -0.24742984913E+03  0.24742984913E+03  0.00000000000E+00 0.  1.
         25    1    1    2    0    0  0.22056129861E+03 -0.92826778562E+01 -0.61384315865E+02  0.26101051470E+03  0.12500000000E+03 0.  0.
         25    1    1    2    0    0 -0.38227463578E+02 -0.12029216518E+03  0.80279376812E+03  0.82221309775E+03  0.12500000000E+03 0.  0.
         25    1    1    2    0    0 -0.18233383503E+03  0.12957484303E+03  0.13798942181E+03  0.29103495988E+03  0.12500000000E+03 0.  0.
</event>
<event>
 5    0  0.5474724E-005  0.3133031E+03  0.7546771E-02  0.1078773E+00
         21   -1    0    0  502  501  0.00000000000E+00  0.00000000000E+00  0.80452106546E+02  0.80452106546E+02  0.00000000000E+00 0. -1.
         21   -1    0    0  501  502 -0.00000000000E+00 -0.00000000000E+00 -0.12200899823E+04  0.12200899823E+04  0.00000000000E+00 0. -1.
         25    1    1    2    0    0  0.33357826683E+02  0.54276028419E+02 -0.61969741010E+02  0.15337496752E+03  0.12500000000E+03 0.  0.
         25    1    1    2    0    0 -0.11480973820E+03  0.84224353766E+02 -0.50233461694E+03  0.53687995411E+03  0.12500000000E+03 0.  0.
         25    1    1    2    0    0  0.81451911516E+02 -0.13850038218E+03 -0.57533351784E+03  0.61028716725E+03  0.12500000000E+03 0.  0.
</event>
<event>
 5    0  0.5474724E-005  0.2731890E+03  0.7546771E-02  0.1099468E+00
         21   -1    0    0  502  501  0.00000000000E+00  0.00000000000E+00  0.74527800264E+02  0.74527800264E+02  0.00000000000E+00 0. -1.
         21   -1    0    0  501  502 -0.00000000000E+00 -0.00000000000E+00 -0.10014011244E+04  0.10014011244E+04  0.00000000000E+00 0. -1.
         25    1    1    2    0    0  0.28000321410E+02  0.50429819617E+02 -0.14857041264E+03  0.20254716048E+03  0.12500000000E+03 0.  0.
         25    1    1    2    0    0 -0.87175700912E+02  0.98996460729E+02 -0.26646736802E+03  0.32253644799E+03  0.12500000000E+03 0.  0.
         25    1    1    2    0    0  0.59175379502E+02 -0.14942628035E+03 -0.51183554344E+03  0.55084531615E+03  0.12500000000E+03 0.  0.
</event>
<event>
 5    0  0.5474724E-005  0.2435349E+03  0.7546771E-02  0.1117460E+00
         21   -1    0    0  502  501  0.00000000000E+00  0.00000000000E+00  0.32055378255E+03  0.32055378255E+03  0.00000000000E+00 0. -1.
         21   -1    0    0  501  502 -0.00000000000E+00 -0.00000000000E+00 -0.18502121984E+03  0.18502121984E+03  0.00000000000E+00 0. -1.
         25    1    1    2    0    0 -0.45321507700E+02 -0.51176643245E+02  0.42279549528E+02  0.14861240925E+03  0.12500000000E+03 0.  0.
         25    1    1    2    0    0  0.13519803229E+03  0.75627698008E+01  0.56913393662E+02  0.19287259474E+03  0.12500000000E+03 0.  0.
         25    1    1    2    0    0 -0.89876524593E+02  0.43613873445E+02  0.36339619524E+02  0.16408999841E+03  0.12500000000E+03 0.  0.
</event>
<event>
 5    0  0.5474724E-005  0.2181269E+03  0.7546771E-02  0.1135287E+00
         21   -1    0    0  502  501  0.00000000000E+00  0.00000000000E+00  0.83324955427E+02  0.83324955427E+02  0.00000000000E+00 0. -1.
         21   -1    0    0  501  502 -0.00000000000E+00 -0.00000000000E+00 -0.57100977621E+03  0.57100977621E+03  0.00000000000E+00 0. -1.
         25    1    1    2    0    0  0.64641717747E+00  0.59968200207E+02 -0.11413996021E+03  0.17958155086E+03  0.12500000000E+03 0.  0.
         25    1    1    2    0    0  0.10637863987E+02  0.19854488541E+02 -0.25377404482E+03  0.28378447929E+03  0.12500000000E+03 0.  0.
         25    1    1    2    0    0 -0.11284281165E+02 -0.79822688747E+02 -0.11977081576E+03  0.19096870149E+03  0.12500000000E+03 0.  0.
</event>
<event>
 5    0  0.5474724E-005  0.2625801E+03  0.7546771E-02  0.1105603E+00
         21   -1    0    0  502  501  0.00000000000E+00  0.00000000000E+00  0.74501509575E+03  0.74501509575E+03  0.00000000000E+00 0. -1.
         21   -1    0    0  501  502 -0.00000000000E+00 -0.00000000000E+00 -0.92546163508E+02  0.92546163508E+02  0.00000000000E+00 0. -1.
         25    1    1    2    0    0  0.11117720277E+03 -0.69880213286E+02  0.16583296990E+03  0.24570142151E+03  0.12500000000E+03 0.  0.
         25    1    1    2    0    0 -0.54674242428E+02  0.10664354601E+02  0.79712972297E+02  0.15837348009E+03  0.12500000000E+03 0.  0.
         25    1    1    2    0    0 -0.56502960345E+02  0.59215858685E+02  0.40692299004E+03  0.43348635766E+03  0.12500000000E+03 0.  0.
</event>
<event>
 5    0  0.5474724E-005  0.2721940E+03  0.7546771E-02  0.1100030E+00
         21   -1    0    0  502  501  0.00000000000E+00  0.00000000000E+00  0.13648493024E+03  0.13648493024E+03  0.00000000000E+00 0. -1.
         21   -1    0    0  501  502 -0.00000000000E+00 -0.00000000000E+00 -0.54284079704E+03  0.54284079704E+03  0.00000000000E+00 0. -1.
         25    1    1    2    0    0 -0.88494465965E+02  0.22828734908E+02 -0.12265153265E+03  0.19753688290E+03  0.12500000000E+03 0.  0.
         25    1    1    2    0    0  0.53786594887E+02 -0.14517581915E+03 -0.20863703549E+03  0.28831134011E+03  0.12500000000E+03 0.  0.
         25    1    1    2    0    0  0.34707871078E+02  0.12234708424E+03 -0.75067298656E+02  0.19347750428E+03  0.12500000000E+03 0.  0.
</event>
<event>
 5    0  0.5474724E-005  0.2408134E+03  0.7546771E-02  0.1119252E+00
         21   -1    0    0  502  501  0.00000000000E+00  0.00000000000E+00  0.77605557238E+02  0.77605557238E+02  0.00000000000E+00 0.  1.
         21   -1    0    0  501  502 -0.00000000000E+00 -0.00000000000E+00 -0.74725455550E+03  0.74725455550E+03  0.00000000000E+00 0.  1.
         25    1    1    2    0    0  0.55856360479E+02 -0.96025309745E+02 -0.13507469427E+03  0.21496736066E+03  0.12500000000E+03 0.  0.
         25    1    1    2    0    0 -0.46489033838E+02  0.50553741156E+02 -0.17120374227E+03  0.22282870636E+03  0.12500000000E+03 0.  0.
         25    1    1    2    0    0 -0.93673266412E+01  0.45471568589E+02 -0.36337056172E+03  0.38706404571E+03  0.12500000000E+03 0.  0.
</event>
<event>
 5    0  0.5474724E-005  0.3339935E+03  0.7546771E-02  0.1069383E+00
         21   -1    0    0  502  501  0.00000000000E+00  0.00000000000E+00  0.13944514318E+03  0.13944514318E+03  0.00000000000E+00 0. -1.
         21   -1    0    0  501  502 -0.00000000000E+00 -0.00000000000E+00 -0.79996799517E+03  0.79996799517E+03  0.00000000000E+00 0. -1.
         25    1    1    2    0    0  0.52319961912E+02 -0.23786963180E+03 -0.29092211636E+03  0.39947467746E+03  0.12500000000E+03 0.  0.
         25    1    1    2    0    0 -0.93705272901E+02  0.20470301046E+03 -0.25223447207E+03  0.36045974749E+03  0.12500000000E+03 0.  0.
         25    1    1    2    0    0  0.41385310990E+02  0.33166621343E+02 -0.11736626356E+03  0.17947871339E+03  0.12500000000E+03 0.  0.
</event>
<event>
 5    0  0.5474724E-005  0.3333737E+03  0.7546771E-02  0.1069654E+00
         21   -1    0    0  502  501  0.00000000000E+00  0.00000000000E+00  0.21979574608E+03  0.21979574608E+03  0.00000000000E+00 0.  1.
         21   -1    0    0  501  502 -0.00000000000E+00 -0.00000000000E+00 -0.50564228357E+03  0.50564228357E+03  0.00000000000E+00 0.  1.
         25    1    1    2    0    0  0.16931997951E+03  0.16213097682E+03 -0.66639435090E+02  0.27390057213E+03  0.12500000000E+03 0.  0.
         25    1    1    2    0    0 -0.14260395190E+03 -0.17636095815E+03 -0.10468270183E+03  0.27932515590E+03  0.12500000000E+03 0.  0.
         25    1    1    2    0    0 -0.26716027618E+02  0.14229981333E+02 -0.11452440057E+03  0.17221230161E+03  0.12500000000E+03 0.  0.
</event>
<event>
 5    0  0.5474724E-005  0.2165225E+03  0.7546771E-02  0.1136503E+00
         21   -1    0    0  502  501  0.00000000000E+00  0.00000000000E+00  0.13690062258E+03  0.13690062258E+03  0.00000000000E+00 0.  1.
         21   -1    0    0  501  502 -0.00000000000E+00 -0.00000000000E+00 -0.34245261740E+03  0.34245261740E+03  0.00000000000E+00 0.  1.
         25    1    1    2    0    0 -0.44577237654E+01 -0.31628547953E+02 -0.15794886414E+02  0.12997967066E+03  0.12500000000E+03 0.  0.
         25    1    1    2    0    0 -0.69527954967E+02 -0.53391162343E+01 -0.84418099942E+02  0.16617478233E+03  0.12500000000E+03 0.  0.
         25    1    1    2    0    0  0.73985678732E+02  0.36967664188E+02 -0.10533900846E+03  0.18319878699E+03  0.12500000000E+03 0.  0.
</event>
<event>
 5    0  0.5474724E-005  0.4997911E+03  0.7546771E-02  0.1013833E+00
         21   -1    0    0  502  501  0.00000000000E+00  0.00000000000E+00  0.13031626734E+04  0.13031626734E+04  0.00000000000E+00 0.  1.
         21   -1    0    0  501  502 -0.00000000000E+00 -0.00000000000E+00 -0.19168072026E+03  0.19168072026E+03  0.00000000000E+00 0.  1.
         25    1    1    2    0    0  0.14851234965E+03  0.10058799244E+03  0.14359987075E+03  0.26157175899E+03  0.12500000000E+03 0.  0.
         25    1    1    2    0    0  0.23619917815E+03  0.16592423591E+02  0.65805385377E+03  0.71044016971E+03  0.12500000000E+03 0.  0.
         25    1    1    2    0    0 -0.38471152779E+03 -0.11718041603E+03  0.30982822864E+03  0.52283146499E+03  0.12500000000E+03 0.  0.
</event>
<event>
 5    0  0.5474724E-005  0.2393186E+03  0.7546771E-02  0.1120248E+00
         21   -1    0    0  502  501  0.00000000000E+00  0.00000000000E+00  0.21466039196E+03  0.21466039196E+03  0.00000000000E+00 0. -1.
         21   -1    0    0  501  502 -0.00000000000E+00 -0.00000000000E+00 -0.26680941767E+03  0.26680941767E+03  0.00000000000E+00 0. -1.
         25    1    1    2    0    0 -0.94541059140E+02  0.35690871861E+00  0.45785309488E+02  0.16327716868E+03  0.12500000000E+03 0.  0.
         25    1    1    2    0    0 -0.94760535949E+01  0.45394429071E+02 -0.34225842974E+02  0.13764758665E+03  0.12500000000E+03 0.  0.
         25    1    1    2    0    0  0.10401711273E+03 -0.45751337790E+02 -0.63708492227E+02  0.18054505430E+03  0.12500000000E+03 0.  0.
</event>
<event>
 5    0  0.5474724E-005  0.2992374E+03  0.7546771E-02  0.1085622E+00
         21   -1    0    0  502  501  0.00000000000E+00  0.00000000000E+00  0.48349638485E+03  0.48349638485E+03  0.00000000000E+00 0. -1.
         21   -1    0    0  501  502 -0.00000000000E+00 -0.00000000000E+00 -0.18519898475E+03  0.18519898475E+03  0.00000000000E+00 0. -1.
         25    1    1    2    0    0 -0.13649143786E+02 -0.23003886913E+00  0.66616721743E+02  0.14229947175E+03  0.12500000000E+03 0.  0.
         25    1    1    2    0    0 -0.10552538579E+03 -0.11722549964E+02 -0.70199696021E+02  0.17839849368E+03  0.12500000000E+03 0.  0.
         25    1    1    2    0    0  0.11917452958E+03  0.11952588833E+02  0.30188037438E+03  0.34799740418E+03  0.12500000000E+03 0.  0.
</event>
<event>
 5    0  0.5474724E-005  0.3294412E+03  0.7546771E-02  0.1071384E+00
         21   -1    0    0  502  501  0.00000000000E+00  0.00000000000E+00  0.79331493186E+02  0.79331493186E+02  0.00000000000E+00 0.  1.
         21   -1    0    0  501  502 -0.00000000000E+00 -0.00000000000E+00 -0.13680760407E+04  0.13680760407E+04  0.00000000000E+00 0.  1.
         25    1    1    2    0    0 -0.11096350753E+03  0.20806503769E+03 -0.49336146497E+03  0.56092289580E+03  0.12500000000E+03 0.  0.
         25    1    1    2    0    0  0.12351346300E+03 -0.14007900706E+03 -0.32679491039E+03  0.39660763636E+03  0.12500000000E+03 0.  0.
         25    1    1    2    0    0 -0.12549955466E+02 -0.67986030637E+02 -0.46858817220E+03  0.48987700177E+03  0.12500000000E+03 0.  0.
</event>
<event>
 5    0  0.5474724E-005  0.3309332E+03  0.7546771E-02  0.1070725E+00
         21   -1    0    0  502  501  0.00000000000E+00  0.00000000000E+00  0.10547622011E+03  0.10547622011E+03  0.00000000000E+00 0.  1.
         21   -1    0    0  501  502 -0.00000000000E+00 -0.00000000000E+00 -0.10383076555E+04  0.10383076555E+04  0.00000000000E+00 0.  1.
         25    1    1    2    0    0 -0.27271124858E+02 -0.10452083913E+03 -0.29383251468E+03  0.33709177793E+03  0.12500000000E+03 0.  0.
         25    1    1    2    0    0  0.15673070439E+03  0.10024904929E+03 -0.57246549990E+03  0.61478137102E+03  0.12500000000E+03 0.  0.
         25    1    1    2    0    0 -0.12945957953E+03  0.42717898433E+01 -0.66533420818E+02  0.19191072666E+03  0.12500000000E+03 0.  0.
</event>
<event>
 5    0  0.5474724E-005  0.4972018E+03  0.7546771E-02  0.1014512E+00
         21   -1    0    0  502  501  0.00000000000E+00  0.00000000000E+00  0.81438571107E+03  0.81438571107E+03  0.00000000000E+00 0.  1.
         21   -1    0    0  501  502 -0.00000000000E+00 -0.00000000000E+00 -0.30355351637E+03  0.30355351637E+03  0.00000000000E+00 0.  1.
         25    1    1    2    0    0  0.35060465802E+02 -0.80616304628E+02  0.47301608006E+03  0.49708896269E+03  0.12500000000E+03 0.  0.
         25    1    1    2    0    0 -0.15839943745E+03  0.69542181413E+02 -0.22142248219E+03  0.30753766013E+03  0.12500000000E+03 0.  0.
         25    1    1    2    0    0  0.12333897165E+03  0.11074123215E+02  0.25923859682E+03  0.31331260462E+03  0.12500000000E+03 0.  0.
</event>
<event>
 5    0  0.5474724E-005  0.2604709E+03  0.7546771E-02  0.1106861E+00
         21   -1    0    0  502  501  0.00000000000E+00  0.00000000000E+00  0.23771385963E+03  0.23771385963E+03  0.00000000000E+00 0.  1.
         21   -1    0    0  501  502 -0.00000000000E+00 -0.00000000000E+00 -0.28540654893E+03  0.28540654893E+03  0.00000000000E+00 0.  1.
         25    1    1    2    0    0 -0.41429055287E+02  0.11655574550E+03 -0.48687282007E+02  0.18247481980E+03  0.12500000000E+03 0.  0.
         25    1    1    2    0    0  0.40245305165E+02 -0.16084456223E+03 -0.72556585558E+01  0.20776983026E+03  0.12500000000E+03 0.  0.
         25    1    1    2    0    0  0.11837501224E+01  0.44288816729E+02  0.82502512573E+01  0.13287575850E+03  0.12500000000E+03 0.  0.
</event>
<event>
 5    0  0.5474724E-005  0.3447392E+03  0.7546771E-02  0.1064795E+00
         21   -1    0    0  502  501  0.00000000000E+00  0.00000000000E+00  0.15537336484E+03  0.15537336484E+03  0.00000000000E+00 0. -1.
         21   -1    0    0  501  502 -0.00000000000E+00 -0.00000000000E+00 -0.76489999086E+03  0.76489999086E+03  0.00000000000E+00 0. -1.
         25    1    1    2    0    0 -0.13747517015E+03 -0.21494096651E+03 -0.40509623772E+03  0.49479996292E+03  0.12500000000E+03 0.  0.
         25    1    1    2    0    0  0.94077954697E+02  0.17217771817E+03 -0.14586758433E+03  0.27458729095E+03  0.12500000000E+03 0.  0.
         25    1    1    2    0    0  0.43397215455E+02  0.42763248343E+02 -0.58562803974E+02  0.15088610184E+03  0.12500000000E+03 0.  0.
</event>
<event>
 5    0  0.5474724E-005  0.2888158E+03  0.7546771E-02  0.1090969E+00
         21   -1    0    0  502  501  0.00000000000E+00  0.00000000000E+00  0.34545332084E+03  0.34545332084E+03  0.00000000000E+00 0.  1.
         21   -1    0    0  501  502 -0.00000000000E+00 -0.00000000000E+00 -0.24146406687E+03  0.24146406687E+03  0.00000000000E+00 0.  1.
         25    1    1    2    0    0  0.34461571837E+01 -0.86910610732E+01  0.58270094839E+02  0.13823101857E+03  0.12500000000E+03 0.  0.
         25    1    1    2    0    0 -0.10517908980E+03 -0.15730465066E+02  0.17553262546E+03  0.24030562012E+03  0.12500000000E+03 0.  0.
         25    1    1    2    0    0  0.10173293261E+03  0.24421526139E+02 -0.12981346633E+03  0.20838074901E+03  0.12500000000E+03 0.  0.
</event>
<event>
 5    0  0.5474724E-005  0.3984741E+03  0.7546771E-02  0.1044309E+00
         21   -1    0    0  502  501  0.00000000000E+00  0.00000000000E+00  0.15409499876E+03  0.15409499876E+03  0.00000000000E+00 0.  1.
         21   -1    0    0  501  502 -0.00000000000E+00 -0.00000000000E+00 -0.10304135338E+04  0.10304135338E+04  0.00000000000E+00 0.  1.
         25    1    1    2    0    0  0.10792463341E+03 -0.50062975025E+02 -0.86747947923E+02  0.19314304138E+03  0.12500000000E+03 0.  0.
         25    1    1    2    0    0  0.18659434854E+03  0.13768529379E+03 -0.40914469641E+03  0.48662005059E+03  0.12500000000E+03 0.  0.
         25    1    1    2    0    0 -0.29451898195E+03 -0.87622318760E+02 -0.38042589067E+03  0.50474544056E+03  0.12500000000E+03 0.  0.
</event>
<event>
 5    0  0.5474724E-005  0.2520103E+03  0.7546771E-02  0.1112041E+00
         21   -1    0    0  502  501  0.00000000000E+00  0.00000000000E+00  0.51514995297E+03  0.51514995297E+03  0.00000000000E+00 0.  1.
         21   -1    0    0  501  502 -0.00000000000E+00 -0.00000000000E+00 -0.12328294696E+03  0.12328294696E+03  0.00000000000E+00 0.  1.
         25    1    1    2    0    0 -0.99891414220E+01  0.12358142900E+02  0.29214619160E+03  0.31816175745E+03  0.12500000000E+03 0.  0.
         25    1    1    2    0    0 -0.16325906599E+01 -0.67558025184E+02  0.11429518788E+03  0.18235992458E+03  0.12500000000E+03 0.  0.
         25    1    1    2    0    0  0.11621732082E+02  0.55199882284E+02 -0.14574373461E+02  0.13791121790E+03  0.12500000000E+03 0.  0.
</event>
<event>
 5    0  0.5474724E-005  0.2811376E+03  0.7546771E-02  0.1095069E+00
         21   -1    0    0  502  501  0.00000000000E+00  0.00000000000E+00  0.55777860644E+03  0.55777860644E+03  0.00000000000E+00 0. -1.
         21   -1    0    0  501  502 -0.00000000000E+00 -0.00000000000E+00 -0.14170196052E+03  0.14170196052E+03  0.00000000000E+00 0. -1.
         25    1    1    2    0    0  0.88195647785E+02 -0.56533393291E+02  0.14785539335E+03  0.22013794355E+03  0.12500000000E+03 0.  0.
         25    1    1    2    0    0 -0.18914268662E+03  0.60850263190E+02  0.18140277623E+03  0.29666425073E+03  0.12500000000E+03 0.  0.
         25    1    1    2    0    0  0.10094703884E+03 -0.43168698989E+01  0.86818476330E+02  0.18267837269E+03  0.12500000000E+03 0.  0.
</event>
<event>
 5    0  0.5474724E-005  0.3477273E+03  0.7546771E-02  0.1063552E+00
         21   -1    0    0  502  501  0.00000000000E+00  0.00000000000E+00  0.55247048145E+03  0.55247048145E+03  0.00000000000E+00 0. -1.
         21   -1    0    0  501  502 -0.00000000000E+00 -0.00000000000E+00 -0.21886110437E+03  0.21886110437E+03  0.00000000000E+00 0. -1.
         25    1    1    2    0    0 -0.53569591830E+01  0.52795754463E+02  0.69522001664E+02  0.15255948812E+03  0.12500000000E+03 0.  0.
         25    1    1    2    0    0 -0.26293064578E+02  0.22034677167E+03  0.89889105779E+02  0.27009086687E+03  0.12500000000E+03 0.  0.
         25    1    1    2    0    0  0.31650023761E+02 -0.27314252613E+03  0.17419826964E+03  0.34868123083E+03  0.12500000000E+03 0.  0.
</event>
<event>
 5    0  0.5474724E-005  0.3107048E+03  0.7546771E-02  0.1080009E+00
         21   -1    0    0  502  501  0.00000000000E+00  0.00000000000E+00  0.15404988860E+04  0.15404988860E+04  0.00000000000E+00 0. -1.
         21   -1    0    0  501  502 -0.00000000000E+00 -0.00000000000E+00 -0.62666369394E+02  0.62666369394E+02  0.00000000000E+00 0. -1.
         25    1    1    2    0    0  0.12654247291E+03  0.29882273424E+02  0.47800233191E+03  0.51089840186E+03  0.12500000000E+03 0.  0.
         25    1    1    2    0    0 -0.14702693968E+03 -0.12830629975E+03  0.32835823434E+03  0.40189993482E+03  0.12500000000E+03 0.  0.
         25    1    1    2    0    0  0.20484466778E+02  0.98424026331E+02  0.67147195040E+03  0.69036691876E+03  0.12500000000E+03 0.  0.
</event>
<event>
 5    0  0.5474724E-005  0.2934856E+03  0.7546771E-02  0.1088543E+00
         21   -1    0    0  502  501  0.00000000000E+00  0.00000000000E+00  0.72729567821E+03  0.72729567821E+03  0.00000000000E+00 0.  1.
         21   -1    0    0  501  502 -0.00000000000E+00 -0.00000000000E+00 -0.11843022216E+03  0.11843022216E+03  0.00000000000E+00 0.  1.
         25    1    1    2    0    0 -0.24848973667E+02  0.76542126913E+02  0.88045228879E+02  0.17278058633E+03  0.12500000000E+03 0.  0.
         25    1    1    2    0    0  0.10812080888E+03  0.10945651750E+02  0.45980350260E+03  0.48872709932E+03  0.12500000000E+03 0.  0.
         25    1    1    2    0    0 -0.83271835215E+02 -0.87487778663E+02  0.61016724572E+02  0.18421821472E+03  0.12500000000E+03 0.  0.
</event>
<event>
 5    0  0.5474724E-005  0.2392774E+03  0.7546771E-02  0.1120275E+00
         21   -1    0    0  502  501  0.00000000000E+00  0.00000000000E+00  0.29859238804E+03  0.29859238804E+03  0.00000000000E+00 0.  1.
         21   -1    0    0  501  502 -0.00000000000E+00 -0.00000000000E+00 -0.19174530370E+03  0.19174530370E+03  0.00000000000E+00 0.  1.
         25    1    1    2    0    0  0.81981903212E+02  0.85690979880E+02  0.36014385215E+02  0.17602844210E+03  0.12500000000E+03 0.  0.
         25    1    1    2    0    0 -0.48754147213E+02 -0.53089458313E+02  0.10277322625E+03  0.17715189383E+03  0.12500000000E+03 0.  0.
         25    1    1    2    0    0 -0.33227756000E+02 -0.32601521568E+02 -0.31940527124E+02  0.13715735580E+03  0.12500000000E+03 0.  0.
</event>
<event>
 5    0  0.5474724E-005  0.2980804E+03  0.7546771E-02  0.1086204E+00
         21   -1    0    0  502  501  0.00000000000E+00  0.00000000000E+00  0.27490756346E+03  0.27490756346E+03  0.00000000000E+00 0.  1.
         21   -1    0    0  501  502 -0.00000000000E+00 -0.00000000000E+00 -0.32320662134E+03  0.32320662134E+03  0.00000000000E+00 0.  1.
         25    1    1    2    0    0 -0.83091108118E+02 -0.45021651708E+02  0.68090501202E+02  0.17085782898E+03  0.12500000000E+03 0.  0.
         25    1    1    2    0    0 -0.27960886560E+02  0.12629196214E+03  0.40049948443E+02  0.18428366517E+03  0.12500000000E+03 0.  0.
         25    1    1    2    0    0  0.11105199468E+03 -0.81270310436E+02 -0.15643950752E+03  0.24297269064E+03  0.12500000000E+03 0.  0.
</event>
<event>
 5    0  0.5474724E-005  0.3326780E+03  0.7546771E-02  0.1069958E+00
         21   -1    0    0  502  501  0.00000000000E+00  0.00000000000E+00  0.56913529922E+03  0.56913529922E+03  0.00000000000E+00 0.  1.
         21   -1    0    0  501  502 -0.00000000000E+00 -0.00000000000E+00 -0.19446103318E+03  0.19446103318E+03  0.00000000000E+00 0.  1.
         25    1    1    2    0    0  0.13644316774E+02 -0.10586913652E+03  0.29662300931E+03  0.33912335676E+03  0.12500000000E+03 0.  0.
         25    1    1    2    0    0  0.73168506443E+02 -0.64935015021E+02  0.11051225915E+03  0.19341185572E+03  0.12500000000E+03 0.  0.
         25    1    1    2    0    0 -0.86812823217E+02  0.17080415154E+03 -0.32461002426E+02  0.23106111992E+03  0.12500000000E+03 0.  0.
</event>
<event>
 5    0  0.5474724E-005  0.4975348E+03  0.7546771E-02  0.1014424E+00
         21   -1    0    0  502  501  0.00000000000E+00  0.00000000000E+00  0.23771652426E+03  0.23771652426E+03  0.00000000000E+00 0.  1.
         21   -1    0    0  501  502 -0.00000000000E+00 -0.00000000000E+00 -0.10413282178E+04  0.10413282178E+04  0.00000000000E+00 0.  1.
         25    1    1    2    0    0 -0.27690049411E+02  0.44830329730E+02 -0.72384571384E+03  0.73644695311E+03  0.12500000000E+03 0.  0.
         25    1    1    2    0    0 -0.11450448309E+03 -0.12371653130E+03 -0.21220537039E+03  0.29845129584E+03  0.12500000000E+03 0.  0.
         25    1    1    2    0    0  0.14219453250E+03  0.78886201575E+02  0.13243939072E+03  0.24414649308E+03  0.12500000000E+03 0.  0.
</event>
<event>
 5    0  0.5474724E-005  0.3108500E+03  0.7546771E-02  0.1079939E+00
         21   -1    0    0  502  501  0.00000000000E+00  0.00000000000E+00  0.21810831337E+03  0.21810831337E+03  0.00000000000E+00 0. -1.
         21   -1    0    0  501  502 -0.00000000000E+00 -0.00000000000E+00 -0.44302623235E+03  0.44302623235E+03  0.00000000000E+00 0. -1.
         25    1    1    2    0    0 -0.11518533938E+03 -0.16600974086E+03 -0.65264815873E+02  0.24639681950E+03  0.12500000000E+03 0.  0.
         25    1    1    2    0    0  0.42105513587E+02 -0.23985752896E+01  0.14204670153E+02  0.13268534242E+03  0.12500000000E+03 0.  0.
         25    1    1    2    0    0  0.73079825797E+02  0.16840831615E+03 -0.17385777326E+03  0.28205238381E+03  0.12500000000E+03 0.  0.
</event>
<event>
 5    0  0.5474724E-005  0.3874026E+03  0.7546771E-02  0.1048231E+00
         21   -1    0    0  502  501  0.00000000000E+00  0.00000000000E+00  0.11868511234E+04  0.11868511234E+04  0.00000000000E+00 0. -1.
         21   -1    0    0  501  502 -0.00000000000E+00 -0.00000000000E+00 -0.12645288522E+03  0.12645288522E+03  0.00000000000E+00 0. -1.
         25    1    1    2    0    0  0.15593044746E+03  0.32783619186E+02  0.63217668700E+03  0.66382334527E+03  0.12500000000E+03 0.  0.
         25    1    1    2    0    0  0.23621370871E+02  0.92455365676E+02  0.55696045303E+01  0.15735941122E+03  0.12500000000E+03 0.  0.
         25    1    1    2    0    0 -0.17955181833E+03 -0.12523898486E+03  0.42265194660E+03  0.49212125209E+03  0.12500000000E+03 0.  0.
</event>
<event>
 5    0  0.5474724E-005  0.3566803E+03  0.7546771E-02  0.1059906E+00
         21   -1    0    0  502  501  0.00000000000E+00  0.00000000000E+00  0.17555610663E+03  0.17555610663E+03  0.00000000000E+00 0. -1.
         21   -1    0    0  501  502 -0.00000000000E+00 -0.00000000000E+00 -0.72467335766E+03  0.72467335766E+03  0.00000000000E+00 0. -1.
         25    1    1    2    0    0  0.84401540676E+02 -0.79753395369E+02 -0.10044610399E+03  0.19798647416E+03  0.12500000000E+03 0.  0.
         25    1    1    2    0    0 -0.36052271432E+02  0.17227797865E+03 -0.48894010950E+03  0.53447815566E+03  0.12500000000E+03 0.  0.
         25    1    1    2    0    0 -0.48349269244E+02 -0.92524583278E+02  0.40268962457E+02  0.16776483447E+03  0.12500000000E+03 0.  0.
</event>
<event>
 5    0  0.5474724E-005  0.3215020E+03  0.7546771E-02  0.1074960E+00
         21   -1    0    0  502  501  0.00000000000E+00  0.00000000000E+00  0.48828020519E+03  0.48828020519E+03  0.00000000000E+00 0.  1.
         21   -1    0    0  501  502 -0.00000000000E+00 -0.00000000000E+00 -0.21168890976E+03  0.21168890976E+03  0.00000000000E+00 0.  1.
         25    1    1    2    0    0 -0.18383962600E+03  0.62665078104E+02  0.10339689495E+03  0.25306093730E+03  0.12500000000E+03 0.  0.
         25    1    1    2    0    0  0.92094387280E+02  0.88127551348E+02  0.14255246654E+03  0.22846016543E+03  0.12500000000E+03 0.  0.
         25    1    1    2    0    0  0.91745238719E+02 -0.15079262945E+03  0.30641933949E+02  0.21844801222E+03  0.12500000000E+03 0.  0.
</event>
<event>
 5    0  0.5474724E-005  0.3084445E+03  0.7546771E-02  0.1081094E+00
         21   -1    0    0  502  501  0.00000000000E+00  0.00000000000E+00  0.10773893853E+04  0.10773893853E+04  0.00000000000E+00 0. -1.
         21   -1    0    0  501  502 -0.00000000000E+00 -0.00000000000E+00 -0.88304174972E+02  0.88304174972E+02  0.00000000000E+00 0. -1.
         25    1    1    2    0    0 -0.17604691013E+03 -0.76452628126E+02  0.44315878250E+03  0.49885090500E+03  0.12500000000E+03 0.  0.
         25    1    1    2    0    0  0.19921170455E+03  0.87745279516E+02  0.40706824487E+03  0.47824062280E+03  0.12500000000E+03 0.  0.
         25    1    1    2    0    0 -0.23164794422E+02 -0.11292651389E+02  0.13885818291E+03  0.18860203243E+03  0.12500000000E+03 0.  0.
</event>
<event>
 5    0  0.5474724E-005  0.2766801E+03  0.7546771E-02  0.1097516E+00
         21   -1    0    0  502  501  0.00000000000E+00  0.00000000000E+00  0.13584567430E+03  0.13584567430E+03  0.00000000000E+00 0. -1.
         21   -1    0    0  501  502 -0.00000000000E+00 -0.00000000000E+00 -0.56352104621E+03  0.56352104621E+03  0.00000000000E+00 0. -1.
         25    1    1    2    0    0 -0.10124035433E+03 -0.91421794681E+02 -0.26972257590E+03  0.32708228603E+03  0.12500000000E+03 0.  0.
         25    1    1    2    0    0  0.18911398452E+02  0.10216110491E+01 -0.15148043964E+03  0.19730688856E+03  0.12500000000E+03 0.  0.
         25    1    1    2    0    0  0.82328955874E+02  0.90400183632E+02 -0.64723563662E+01  0.17497754591E+03  0.12500000000E+03 0.  0.
</event>
<event>
 5    0  0.5474724E-005  0.3937095E+03  0.7546771E-02  0.1045980E+00
         21   -1    0    0  502  501  0.00000000000E+00  0.00000000000E+00  0.11889205889E+03  0.11889205889E+03  0.00000000000E+00 0.  1.
         21   -1    0    0  501  502 -0.00000000000E+00 -0.00000000000E+00 -0.13037640734E+04  0.13037640734E+04  0.00000000000E+00 0.  1.
         25    1    1    2    0    0 -0.29446590186E+03  0.15166870912E+02 -0.78517751568E+03  0.84797932313E+03  0.12500000000E+03 0.  0.
         25    1    1    2    0    0  0.21818395778E+03 -0.27225230743E+02 -0.31880832653E+03  0.40695110478E+03  0.12500000000E+03 0.  0.
         25    1    1    2    0    0  0.76281944079E+02  0.12058359831E+02 -0.80886172260E+02  0.16772570434E+03  0.12500000000E+03 0.  0.
</event>
<event>
 5    0  0.5474724E-005  0.2105511E+03  0.7546771E-02  0.1141130E+00
         21   -1    0    0  502  501  0.00000000000E+00  0.00000000000E+00  0.13506232359E+03  0.13506232359E+03  0.00000000000E+00 0.  1.
         21   -1    0    0  501  502 -0.00000000000E+00 -0.00000000000E+00 -0.32823179514E+03  0.32823179514E+03  0.00000000000E+00 0.  1.
         25    1    1    2    0    0  0.39587775083E+02 -0.58083946552E+02 -0.12181494120E+03  0.18816167697E+03  0.12500000000E+03 0.  0.
         25    1    1    2    0    0 -0.68523148294E+01  0.42927636478E+02 -0.14446314218E+02  0.13312938138E+03  0.12500000000E+03 0.  0.
         25    1    1    2    0    0 -0.32735460254E+02  0.15156310074E+02 -0.56908216137E+02  0.14200306038E+03  0.12500000000E+03 0.  0.
</event>
<event>
 5    0  0.5474724E-005  0.2232227E+03  0.7546771E-02  0.1131503E+00
         21   -1    0    0  502  501  0.00000000000E+00  0.00000000000E+00  0.49156122990E+02  0.49156122990E+02  0.00000000000E+00 0. -1.
         21   -1    0    0  501  502 -0.00000000000E+00 -0.00000000000E+00 -0.10136757256E+04  0.10136757256E+04  0.00000000000E+00 0. -1.
         25    1    1    2    0    0 -0.84485252485E+02 -0.59148351143E+02 -0.43772591360E+03  0.46676038903E+03  0.12500000000E+03 0.  0.
         25    1    1    2    0    0  0.22226000744E+02  0.46482257630E+02 -0.21175224850E+03  0.25123417388E+03  0.12500000000E+03 0.  0.
         25    1    1    2    0    0  0.62259251741E+02  0.12666093514E+02 -0.31504144052E+03  0.34483728568E+03  0.12500000000E+03 0.  0.
</event>
<event>
 5    0  0.5474724E-005  0.4303277E+03  0.7546771E-02  0.1033756E+00
         21   -1    0    0  502  501  0.00000000000E+00  0.00000000000E+00  0.60447368919E+03  0.60447368919E+03  0.00000000000E+00 0.  1.
         21   -1    0    0  501  502 -0.00000000000E+00 -0.00000000000E+00 -0.30635232698E+03  0.30635232698E+03  0.00000000000E+00 0.  1.
         25    1    1    2    0    0 -0.25786899499E+03  0.17324782442E+03  0.69671608466E+02  0.34203853624E+03  0.12500000000E+03 0.  0.
         25    1    1    2    0    0  0.31631611064E+03 -0.12225360724E+03  0.21623628285E+03  0.42117093484E+03  0.12500000000E+03 0.  0.
         25    1    1    2    0    0 -0.58447115651E+02 -0.50994217177E+02  0.12213470889E+02  0.14761654509E+03  0.12500000000E+03 0.  0.
</event>
<event>
 5    0  0.5474724E-005  0.3121013E+03  0.7546771E-02  0.1079343E+00
         21   -1    0    0  502  501  0.00000000000E+00  0.00000000000E+00  0.46482555766E+03  0.46482555766E+03  0.00000000000E+00 0. -1.
         21   -1    0    0  501  502 -0.00000000000E+00 -0.00000000000E+00 -0.20955655860E+03  0.20955655860E+03  0.00000000000E+00 0. -1.
         25    1    1    2    0    0  0.17567576460E+02 -0.69367969505E+02  0.77538405876E+02  0.16357793042E+03  0.12500000000E+03 0.  0.
         25    1    1    2    0    0 -0.20990390540E+03  0.30403184756E+02  0.94006925767E+02  0.26352666893E+03  0.12500000000E+03 0.  0.
         25    1    1    2    0    0  0.19233632894E+03  0.38964784748E+02  0.83723667419E+02  0.24727751691E+03  0.12500000000E+03 0.  0.
</event>
<event>
 5    0  0.5474724E-005  0.2850329E+03  0.7546771E-02  0.1092971E+00
         21   -1    0    0  502  501  0.00000000000E+00  0.00000000000E+00  0.74852333176E+02  0.74852333176E+02  0.00000000000E+00 0.  1.
         21   -1    0    0  501  502 -0.00000000000E+00 -0.00000000000E+00 -0.10853866946E+04  0.10853866946E+04  0.00000000000E+00 0.  1.
         25    1    1    2    0    0  0.40229596897E+02  0.36503578734E+02 -0.34669072784E+03  0.37251898274E+03  0.12500000000E+03 0.  0.
         25    1    1    2    0    0 -0.11839770928E+03 -0.15737020249E+03 -0.35490393527E+03  0.42469424468E+03  0.12500000000E+03 0.  0.
         25    1    1    2    0    0  0.78168112380E+02  0.12086662375E+03 -0.30893969826E+03  0.36302580031E+03  0.12500000000E+03 0.  0.
</event>
<event>
 5    0  0.5474724E-005  0.3404601E+03  0.7546771E-02  0.1066600E+00
         21   -1    0    0  502  501  0.00000000000E+00  0.00000000000E+00  0.11945847505E+03  0.11945847505E+03  0.00000000000E+00 0. -1.
         21   -1    0    0  501  502 -0.00000000000E+00 -0.00000000000E+00 -0.97032119732E+03  0.97032119732E+03  0.00000000000E+00 0. -1.
         25    1    1    2    0    0  0.11601608623E+03 -0.44359688287E+02 -0.48828179762E+03  0.51910656719E+03  0.12500000000E+03 0.  0.
         25    1    1    2    0    0 -0.21757408093E+03  0.82941540746E+02 -0.28205789576E+03  0.38652223278E+03  0.12500000000E+03 0.  0.
         25    1    1    2    0    0  0.10155799470E+03 -0.38581852459E+02 -0.80523028879E+02  0.18415087240E+03  0.12500000000E+03 0.  0.
</event>
<event>
 5    0  0.5474724E-005  0.6086649E+03  0.7546771E-02  0.9887590E-01
         21   -1    0    0  502  501  0.00000000000E+00  0.00000000000E+00  0.12361973580E+04  0.12361973580E+04  0.00000000000E+00 0. -1.
         21   -1    0    0  501  502 -0.00000000000E+00 -0.00000000000E+00 -0.29968753700E+03  0.29968753700E+03  0.00000000000E+00 0. -1.
         25    1    1    2    0    0  0.27949306009E+03  0.97456384369E+02  0.12979366471E+03  0.34653356676E+03  0.12500000000E+03 0.  0.
         25    1    1    2    0    0  0.48357538677E+02 -0.31517515228E+03  0.77210148433E+02  0.35108437046E+03  0.12500000000E+03 0.  0.
         25    1    1    2    0    0 -0.32785059877E+03  0.21771876791E+03  0.72950600787E+03  0.83826695779E+03  0.12500000000E+03 0.  0.
</event>
<event>
 5    0  0.5474724E-005  0.3351800E+03  0.7546771E-02  0.1068868E+00
         21   -1    0    0  502  501  0.00000000000E+00  0.00000000000E+00  0.22061973859E+04  0.22061973859E+04  0.00000000000E+00 0. -1.
         21   -1    0    0  501  502 -0.00000000000E+00 -0.00000000000E+00 -0.50922737394E+02  0.50922737394E+02  0.00000000000E+00 0. -1.
         25    1    1    2    0    0 -0.24941155886E+03 -0.24719902175E+02  0.12114121188E+04  0.12433670097E+04  0.12500000000E+03 0.  0.
         25    1    1    2    0    0  0.70600677925E+02  0.36947079164E+02  0.44773094795E+03  0.47163284887E+03  0.12500000000E+03 0.  0.
         25    1    1    2    0    0  0.17881088094E+03 -0.12227176988E+02  0.49613158177E+03  0.54212026472E+03  0.12500000000E+03 0.  0.
</event>
<event>
 5    0  0.5908552E-005  0.3150345E+03  0.7546771E-02  0.1077958E+00
         21   -1    0    0  502  501  0.00000000000E+00  0.00000000000E+00  0.95581869188E+02  0.95581869188E+02  0.00000000000E+00 0.  1.
         21   -1    0    0  501  502 -0.00000000000E+00 -0.00000000000E+00 -0.10383430046E+04  0.10383430046E+04  0.00000000000E+00 0.  1.
         25    1    1    2    0    0 -0.13939918290E+03 -0.90297127287E+02 -0.34020100427E+03  0.39868211234E+03  0.12500000000E+03 0.  0.
         25    1    1    2    0    0  0.16576812678E+03  0.64890182682E+02 -0.55580337629E+03  0.59685190856E+03  0.12500000000E+03 0.  0.
         25    1    1    2    0    0 -0.26368943874E+02  0.25406944606E+02 -0.46756754837E+02  0.13839085287E+03  0.12500000000E+03 0.  0.
</event>
<event>
 5    0  0.5474724E-005  0.4861656E+03  0.7546771E-02  0.1017454E+00
         21   -1    0    0  502  501  0.00000000000E+00  0.00000000000E+00  0.69519558061E+02  0.69519558061E+02  0.00000000000E+00 0.  1.
         21   -1    0    0  501  502 -0.00000000000E+00 -0.00000000000E+00 -0.33998638863E+04  0.33998638863E+04  0.00000000000E+00 0.  1.
         25    1    1    2    0    0  0.25521657618E+03  0.18003581198E+03 -0.13937309756E+04  0.14337571017E+04  0.12500000000E+03 0.  0.
         25    1    1    2    0    0 -0.33333713033E+03 -0.34736734093E+02 -0.16076841743E+04  0.16469953514E+04  0.12500000000E+03 0.  0.
         25    1    1    2    0    0  0.78120554153E+02 -0.14529907789E+03 -0.32892917829E+03  0.38863099123E+03  0.12500000000E+03 0.  0.
</event>
<event>
 5    0  0.5474724E-005  0.6670034E+03  0.7546771E-02  0.9775386E-01
         21   -1    0    0  502  501  0.00000000000E+00  0.00000000000E+00  0.30373300089E+04  0.30373300089E+04  0.00000000000E+00 0.  1.
         21   -1    0    0  501  502 -0.00000000000E+00 -0.00000000000E+00 -0.14647519276E+03  0.14647519276E+03  0.00000000000E+00 0.  1.
         25    1    1    2    0    0  0.28373782436E+03 -0.23201763321E+03  0.12510444414E+04  0.13096093041E+04  0.12500000000E+03 0.  0.
         25    1    1    2    0    0 -0.39390038850E+03 -0.44297932954E+02  0.34611613777E+03  0.54087078285E+03  0.12500000000E+03 0.  0.
         25    1    1    2    0    0  0.11016256413E+03  0.27631556617E+03  0.12936942370E+04  0.13333251147E+04  0.12500000000E+03 0.  0.
</event>
<event>
 5    0  0.5474724E-005  0.3570543E+03  0.7546771E-02  0.1059756E+00
         21   -1    0    0  502  501  0.00000000000E+00  0.00000000000E+00  0.44411699316E+04  0.44411699316E+04  0.00000000000E+00 0. -1.
         21   -1    0    0  501  502 -0.00000000000E+00 -0.00000000000E+00 -0.28705900266E+02  0.28705900266E+02  0.00000000000E+00 0. -1.
         25    1    1    2    0    0  0.11304683118E+03  0.48289123876E+02  0.13959992486E+04  0.14069649347E+04  0.12500000000E+03 0.  0.
         25    1    1    2    0    0 -0.18952994170E+03 -0.72358636860E+01  0.27218469845E+04  0.27313092032E+04  0.12500000000E+03 0.  0.
         25    1    1    2    0    0  0.76483110523E+02 -0.41053260190E+02  0.29461779829E+03  0.33160169396E+03  0.12500000000E+03 0.  0.
</event>
<event>
 5    0  0.5474724E-005  0.2874278E+03  0.7546771E-02  0.1091700E+00
         21   -1    0    0  502  501  0.00000000000E+00  0.00000000000E+00  0.31635433478E+03  0.31635433478E+03  0.00000000000E+00 0. -1.
         21   -1    0    0  501  502 -0.00000000000E+00 -0.00000000000E+00 -0.26114630989E+03  0.26114630989E+03  0.00000000000E+00 0. -1.
         25    1    1    2    0    0  0.25840691375E+02 -0.48703826163E+00  0.75407102902E+02  0.14825386911E+03  0.12500000000E+03 0.  0.
         25    1    1    2    0    0  0.52247258326E+02  0.11024506325E+03 -0.12767953756E+03  0.21635806961E+03  0.12500000000E+03 0.  0.
         25    1    1    2    0    0 -0.78087949701E+02 -0.10975802499E+03  0.10748045955E+03  0.21288870596E+03  0.12500000000E+03 0.  0.
</event>
<event>
 5    0  0.5474724E-005  0.4219720E+03  0.7546771E-02  0.1036426E+00
         21   -1    0    0  502  501  0.00000000000E+00  0.00000000000E+00  0.79013678889E+03  0.79013678889E+03  0.00000000000E+00 0.  1.
         21   -1    0    0  501  502 -0.00000000000E+00 -0.00000000000E+00 -0.22535382256E+03  0.22535382256E+03  0.00000000000E+00 0.  1.
         25    1    1    2    0    0 -0.16174650049E+03 -0.48950309333E+02 -0.11141015978E+02  0.21049272064E+03  0.12500000000E+03 0.  0.
         25    1    1    2    0    0 -0.79908400405E+02  0.20060609955E+03  0.22764054201E+03  0.33774750332E+03  0.12500000000E+03 0.  0.
         25    1    1    2    0    0  0.24165490089E+03 -0.15165579022E+03  0.34828344029E+03  0.46725038749E+03  0.12500000000E+03 0.  0.
</event>
<event>
 5    0  0.5474724E-005  0.2850693E+03  0.7546771E-02  0.1092952E+00
         21   -1    0    0  502  501  0.00000000000E+00  0.00000000000E+00  0.38244502514E+03  0.38244502514E+03  0.00000000000E+00 0.  1.
         21   -1    0    0  501  502 -0.00000000000E+00 -0.00000000000E+00 -0.21248680532E+03  0.21248680532E+03  0.00000000000E+00 0.  1.
         25    1    1    2    0    0 -0.78068555542E+01 -0.62613321590E+02  0.25708348364E+03  0.29274270716E+03  0.12500000000E+03 0.  0.
         25    1    1    2    0    0  0.46794695627E+02  0.39023288083E+02  0.69644818333E+01  0.13923384847E+03  0.12500000000E+03 0.  0.
         25    1    1    2    0    0 -0.38987840073E+02  0.23590033507E+02 -0.94089745662E+02  0.16295527482E+03  0.12500000000E+03 0.  0.
</event>
<event>
 5    0  0.5474724E-005  0.3033268E+03  0.7546771E-02  0.1083589E+00
         21   -1    0    0  502  501  0.00000000000E+00  0.00000000000E+00  0.48597573889E+03  0.48597573889E+03  0.00000000000E+00 0.  1.
         21   -1    0    0  501  502 -0.00000000000E+00 -0.00000000000E+00 -0.18932457778E+03  0.18932457778E+03  0.00000000000E+00 0.  1.
         25    1    1    2    0    0  0.11127789543E+03  0.93365040771E+02  0.23809609647E+03  0.30563794268E+03  0.12500000000E+03 0.  0.
         25    1    1    2    0    0 -0.64874151314E+02 -0.12988006304E+03  0.11145613649E+03  0.22164150478E+03  0.12500000000E+03 0.  0.
         25    1    1    2    0    0 -0.46403744121E+02  0.36515022265E+02 -0.52901071836E+02  0.14802086921E+03  0.12500000000E+03 0.  0.
</event>
<event>
 5    0  0.5474724E-005  0.3951027E+03  0.7546771E-02  0.1045489E+00
         21   -1    0    0  502  501  0.00000000000E+00  0.00000000000E+00  0.39801815834E+03  0.39801815834E+03  0.00000000000E+00 0. -1.
         21   -1    0    0  501  502 -0.00000000000E+00 -0.00000000000E+00 -0.39220853225E+03  0.39220853225E+03  0.00000000000E+00 0. -1.
         25    1    1    2    0    0 -0.21719220437E+03  0.18768417827E+02 -0.19555313088E+03  0.31841911712E+03  0.12500000000E+03 0.  0.
         25    1    1    2    0    0  0.16611390232E+03 -0.27837689875E+02  0.25149750889E+03  0.32748246136E+03  0.12500000000E+03 0.  0.
         25    1    1    2    0    0  0.51078302054E+02  0.90692720479E+01 -0.50134751925E+02  0.14432511211E+03  0.12500000000E+03 0.  0.
</event>
<event>
 5    0  0.5474724E-005  0.2407850E+03  0.7546771E-02  0.1119271E+00
         21   -1    0    0  502  501  0.00000000000E+00  0.00000000000E+00  0.19326206029E+03  0.19326206029E+03  0.00000000000E+00 0. -1.
         21   -1    0    0  501  502 -0.00000000000E+00 -0.00000000000E+00 -0.29999375812E+03  0.29999375812E+03  0.00000000000E+00 0. -1.
         25    1    1    2    0    0  0.82790803337E+02 -0.29126753003E+02 -0.62585897993E+02  0.16505962403E+03  0.12500000000E+03 0.  0.
         25    1    1    2    0    0 -0.16802989373E+02 -0.75007520452E+02  0.16641112465E+01  0.14675230098E+03  0.12500000000E+03 0.  0.
         25    1    1    2    0    0 -0.65987813964E+02  0.10413427346E+03 -0.45809911086E+02  0.18144389340E+03  0.12500000000E+03 0.  0.
</event>
<event>
 5    0  0.5474724E-005  0.4596064E+03  0.7546771E-02  0.1024895E+00
         21   -1    0    0  502  501  0.00000000000E+00  0.00000000000E+00  0.29719086421E+03  0.29719086421E+03  0.00000000000E+00 0.  1.
         21   -1    0    0  501  502 -0.00000000000E+00 -0.00000000000E+00 -0.71078250430E+03  0.71078250430E+03  0.00000000000E+00 0.  1.
         25    1    1    2    0    0  0.32052264435E+02  0.50454703523E+02 -0.64400743427E+02  0.15279227898E+03  0.12500000000E+03 0.  0.
         25    1    1    2    0    0  0.26237855578E+03 -0.26523836825E+03 -0.20610148969E+03  0.44418095702E+03  0.12500000000E+03 0.  0.
         25    1    1    2    0    0 -0.29443082022E+03  0.21478366473E+03 -0.14308940697E+03  0.41100013250E+03  0.12500000000E+03 0.  0.
</event>
<event>
 5    0  0.5474724E-005  0.4886366E+03  0.7546771E-02  0.1016788E+00
         21   -1    0    0  502  501  0.00000000000E+00  0.00000000000E+00  0.10172349164E+04  0.10172349164E+04  0.00000000000E+00 0. -1.
         21   -1    0    0  501  502 -0.00000000000E+00 -0.00000000000E+00 -0.23472037935E+03  0.23472037935E+03  0.00000000000E+00 0. -1.
         25    1    1    2    0    0 -0.99193060017E+02 -0.22778694809E+03 -0.50561952340E+02  0.28267944372E+03  0.12500000000E+03 0.  0.
         25    1    1    2    0    0 -0.41090670966E+02  0.21613838365E+03  0.24661071197E+03  0.35333565824E+03  0.12500000000E+03 0.  0.
         25    1    1    2    0    0  0.14028373098E+03  0.11648564441E+02  0.58646577739E+03  0.61594019375E+03  0.12500000000E+03 0.  0.
</event>
<event>
 5    0  0.5474724E-005  0.3548266E+03  0.7546771E-02  0.1060651E+00
         21   -1    0    0  502  501  0.00000000000E+00  0.00000000000E+00  0.14719358879E+04  0.14719358879E+04  0.00000000000E+00 0. -1.
         21   -1    0    0  501  502 -0.00000000000E+00 -0.00000000000E+00 -0.85534937442E+02  0.85534937442E+02  0.00000000000E+00 0. -1.
         25    1    1    2    0    0  0.94570793973E+02  0.12498382698E+03  0.21598613293E+03  0.29468559805E+03  0.12500000000E+03 0.  0.
         25    1    1    2    0    0  0.48596229778E+02 -0.14392644666E+03  0.95429381368E+03  0.97436035348E+03  0.12500000000E+03 0.  0.
         25    1    1    2    0    0 -0.14316702375E+03  0.18942619678E+02  0.21612100382E+03  0.28842487379E+03  0.12500000000E+03 0.  0.
</event>
<event>
 5    0  0.5474724E-005  0.3934266E+03  0.7546771E-02  0.1046080E+00
         21   -1    0    0  502  501  0.00000000000E+00  0.00000000000E+00  0.75311099154E+03  0.75311099154E+03  0.00000000000E+00 0.  1.
         21   -1    0    0  501  502 -0.00000000000E+00 -0.00000000000E+00 -0.20552675894E+03  0.20552675894E+03  0.00000000000E+00 0.  1.
         25    1    1    2    0    0  0.14960732932E+03  0.40559663031E+02  0.41864530330E+03  0.46359069148E+03  0.12500000000E+03 0.  0.
         25    1    1    2    0    0 -0.14518533919E+03  0.13094475508E+03 -0.24182663742E+02  0.23331333614E+03  0.12500000000E+03 0.  0.
         25    1    1    2    0    0 -0.44219901317E+01 -0.17150441811E+03  0.15312159304E+03  0.26173372286E+03  0.12500000000E+03 0.  0.
</event>
<event>
 5    0  0.5474724E-005  0.3183833E+03  0.7546771E-02  0.1076396E+00
         21   -1    0    0  502  501  0.00000000000E+00  0.00000000000E+00  0.10476910769E+04  0.10476910769E+04  0.00000000000E+00 0.  1.
         21   -1    0    0  501  502 -0.00000000000E+00 -0.00000000000E+00 -0.96753653671E+02  0.96753653671E+02  0.00000000000E+00 0.  1.
         25    1    1    2    0    0  0.14311212451E+03  0.52166732565E+02  0.94769655113E+02  0.21865208826E+03  0.12500000000E+03 0.  0.
         25    1    1    2    0    0 -0.15159468838E+03 -0.66439229106E+02  0.66654397795E+03  0.69806947738E+03  0.12500000000E+03 0.  0.
         25    1    1    2    0    0  0.84825638695E+01  0.14272496541E+02  0.18962379013E+03  0.22772316489E+03  0.12500000000E+03 0.  0.
</event>
<event>
 5    0  0.5474724E-005  0.2988894E+03  0.7546771E-02  0.1085797E+00
         21   -1    0    0  502  501  0.00000000000E+00  0.00000000000E+00  0.14492138389E+03  0.14492138389E+03  0.00000000000E+00 0.  1.
         21   -1    0    0  501  502 -0.00000000000E+00 -0.00000000000E+00 -0.61643696221E+03  0.61643696221E+03  0.00000000000E+00 0.  1.
         25    1    1    2    0    0 -0.56337461902E+02  0.13050162158E+03 -0.16825204076E+02  0.19003334008E+03  0.12500000000E+03 0.  0.
         25    1    1    2    0    0 -0.32736077196E+02 -0.19090222868E+01 -0.97674238888E+02  0.16198935786E+03  0.12500000000E+03 0.  0.
         25    1    1    2    0    0  0.89073539098E+02 -0.12859259929E+03 -0.35701613536E+03  0.40933564817E+03  0.12500000000E+03 0.  0.
</event>
<event>
 5    0  0.5474724E-005  0.3368457E+03  0.7546771E-02  0.1068147E+00
         21   -1    0    0  502  501  0.00000000000E+00  0.00000000000E+00  0.95184248451E+03  0.95184248451E+03  0.00000000000E+00 0.  1.
         21   -1    0    0  501  502 -0.00000000000E+00 -0.00000000000E+00 -0.11920569076E+03  0.11920569076E+03  0.00000000000E+00 0.  1.
         25    1    1    2    0    0 -0.88273896865E+02  0.19220261836E+02  0.40108817583E+03  0.42971900601E+03  0.12500000000E+03 0.  0.
         25    1    1    2    0    0  0.11319148886E+03  0.33653728872E+02 -0.16275060640E+02  0.17272742752E+03  0.12500000000E+03 0.  0.
         25    1    1    2    0    0 -0.24917591996E+02 -0.52873990708E+02  0.44782367857E+03  0.46860174175E+03  0.12500000000E+03 0.  0.
</event>
<event>
 5    0  0.5474724E-005  0.3335347E+03  0.7546771E-02  0.1069583E+00
         21   -1    0    0  502  501  0.00000000000E+00  0.00000000000E+00  0.17857784007E+03  0.17857784007E+03  0.00000000000E+00 0. -1.
         21   -1    0    0  501  502 -0.00000000000E+00 -0.00000000000E+00 -0.62295190992E+03  0.62295190992E+03  0.00000000000E+00 0. -1.
         25    1    1    2    0    0 -0.11494060005E+03  0.48411092553E+02 -0.31290446703E+03  0.35928982857E+03  0.12500000000E+03 0.  0.
         25    1    1    2    0    0  0.68495740166E+02 -0.16528096147E+03 -0.14869168824E+03  0.26409028910E+03  0.12500000000E+03 0.  0.
         25    1    1    2    0    0  0.46444859880E+02  0.11686986892E+03  0.17222085420E+02  0.17814963232E+03  0.12500000000E+03 0.  0.
</event>
<event>
 5    0  0.5474724E-005  0.4894921E+03  0.7546771E-02  0.1016559E+00
         21   -1    0    0  502  501  0.00000000000E+00  0.00000000000E+00  0.96230804933E+03  0.96230804933E+03  0.00000000000E+00 0.  1.
         21   -1    0    0  501  502 -0.00000000000E+00 -0.00000000000E+00 -0.24898730756E+03  0.24898730756E+03  0.00000000000E+00 0.  1.
         25    1    1    2    0    0  0.16081755502E+03 -0.28010244452E+03  0.59211987322E+02  0.35135555335E+03  0.12500000000E+03 0.  0.
         25    1    1    2    0    0 -0.92321539344E+02  0.11459495942E+03  0.25861574825E+02  0.19480526790E+03  0.12500000000E+03 0.  0.
         25    1    1    2    0    0 -0.68496015673E+02  0.16550748511E+03  0.62824717963E+03  0.66513453564E+03  0.12500000000E+03 0.  0.
</event>
<event>
 5    0  0.5474724E-005  0.4254620E+03  0.7546771E-02  0.1035303E+00
         21   -1    0    0  502  501  0.00000000000E+00  0.00000000000E+00  0.99067932174E+02  0.99067932174E+02  0.00000000000E+00 0.  1.
         21   -1    0    0  501  502 -0.00000000000E+00 -0.00000000000E+00 -0.18272096875E+04  0.18272096875E+04  0.00000000000E+00 0.  1.
         25    1    1    2    0    0  0.13080157202E+02  0.22127212330E+03 -0.66882999896E+03  0.71560534555E+03  0.12500000000E+03 0.  0.
         25    1    1    2    0    0 -0.19606333694E+03  0.70345465341E+01 -0.25215855697E+03  0.34307324989E+03  0.12500000000E+03 0.  0.
         25    1    1    2    0    0  0.18298317974E+03 -0.22830666984E+03 -0.80715319936E+03  0.86759902420E+03  0.12500000000E+03 0.  0.
</event>
<event>
 5    0  0.5474724E-005  0.2091534E+03  0.7546771E-02  0.1142238E+00
         21   -1    0    0  502  501  0.00000000000E+00  0.00000000000E+00  0.18235055947E+03  0.18235055947E+03  0.00000000000E+00 0.  1.
         21   -1    0    0  501  502 -0.00000000000E+00 -0.00000000000E+00 -0.23989592224E+03  0.23989592224E+03  0.00000000000E+00 0.  1.
         25    1    1    2    0    0 -0.27796050525E+02 -0.10263911457E+02 -0.13993024196E+02  0.12922373245E+03  0.12500000000E+03 0.  0.
         25    1    1    2    0    0 -0.19667622201E+02 -0.58131200388E+02 -0.13961952882E+02  0.13994994802E+03  0.12500000000E+03 0.  0.
         25    1    1    2    0    0  0.47463672726E+02  0.68395111845E+02 -0.29590385694E+02  0.15307280124E+03  0.12500000000E+03 0.  0.
</event>
<event>
 5    0  0.5474724E-005  0.4739543E+03  0.7546771E-02  0.1020810E+00
         21   -1    0    0  502  501  0.00000000000E+00  0.00000000000E+00  0.30550266302E+03  0.30550266302E+03  0.00000000000E+00 0. -1.
         21   -1    0    0  501  502 -0.00000000000E+00 -0.00000000000E+00 -0.73528890178E+03  0.73528890178E+03  0.00000000000E+00 0. -1.
         25    1    1    2    0    0 -0.24655274463E+03  0.14268041926E+03  0.78316195372E+02  0.32078713251E+03  0.12500000000E+03 0.  0.
         25    1    1    2    0    0 -0.33753085040E+01 -0.63220238865E+02 -0.37523216911E+03  0.40054010042E+03  0.12500000000E+03 0.  0.
         25    1    1    2    0    0  0.24992805314E+03 -0.79460180393E+02 -0.13287026503E+03  0.31946433188E+03  0.12500000000E+03 0.  0.
</event>
<event>
 5    0  0.5474724E-005  0.2800387E+03  0.7546771E-02  0.1095668E+00
         21   -1    0    0  502  501  0.00000000000E+00  0.00000000000E+00  0.71682528643E+03  0.71682528643E+03  0.00000000000E+00 0.  1.
         21   -1    0    0  501  502 -0.00000000000E+00 -0.00000000000E+00 -0.10940135367E+03  0.10940135367E+03  0.00000000000E+00 0.  1.
         25    1    1    2    0    0  0.50795299554E+02  0.13986648993E+02 -0.13065907429E+02  0.13627731559E+03  0.12500000000E+03 0.  0.
         25    1    1    2    0    0 -0.68603892138E+01 -0.71473862875E+02  0.20936939352E+03  0.25419701210E+03  0.12500000000E+03 0.  0.
         25    1    1    2    0    0 -0.43934910340E+02  0.57487213882E+02  0.41112044666E+03  0.43575231241E+03  0.12500000000E+03 0.  0.
</event>
<event>
 5    0  0.5474724E-005  0.2768521E+03  0.7546771E-02  0.1097421E+00
         21   -1    0    0  502  501  0.00000000000E+00  0.00000000000E+00  0.25110805108E+03  0.25110805108E+03  0.00000000000E+00 0.  1.
         21   -1    0    0  501  502 -0.00000000000E+00 -0.00000000000E+00 -0.30523556427E+03  0.30523556427E+03  0.00000000000E+00 0.  1.
         25    1    1    2    0    0  0.32504035144E+02  0.14315004792E+02  0.92430123940E+02  0.15946711095E+03  0.12500000000E+03 0.  0.
         25    1    1    2    0    0  0.95741656628E+02  0.54598050725E+02 -0.11483400919E+03  0.20238394606E+03  0.12500000000E+03 0.  0.
         25    1    1    2    0    0 -0.12824569177E+03 -0.68913055517E+02 -0.31723627940E+02  0.19449255834E+03  0.12500000000E+03 0.  0.
</event>
<event>
 5    0  0.5474724E-005  0.2419284E+03  0.7546771E-02  0.1118515E+00
         21   -1    0    0  502  501  0.00000000000E+00  0.00000000000E+00  0.15755209101E+03  0.15755209101E+03  0.00000000000E+00 0.  1.
         21   -1    0    0  501  502 -0.00000000000E+00 -0.00000000000E+00 -0.37149195717E+03  0.37149195717E+03  0.00000000000E+00 0.  1.
         25    1    1    2    0    0  0.17603141156E+02 -0.18415630771E+02 -0.12972342898E+03  0.18194002875E+03  0.12500000000E+03 0.  0.
         25    1    1    2    0    0  0.92297236758E+02 -0.18773826528E+02 -0.81667333955E+02  0.17653835252E+03  0.12500000000E+03 0.  0.
         25    1    1    2    0    0 -0.10990037791E+03  0.37189457299E+02 -0.25491032246E+01  0.17056566691E+03  0.12500000000E+03 0.  0.
</event>
<event>
 5    0  0.5474724E-005  0.2102922E+03  0.7546771E-02  0.1141335E+00
         21   -1    0    0  502  501  0.00000000000E+00  0.00000000000E+00  0.12325014875E+03  0.12325014875E+03  0.00000000000E+00 0. -1.
         21   -1    0    0  501  502 -0.00000000000E+00 -0.00000000000E+00 -0.35880545998E+03  0.35880545998E+03  0.00000000000E+00 0. -1.
         25    1    1    2    0    0  0.54298705668E+01 -0.10918495544E+02 -0.65712645193E+02  0.14174571873E+03  0.12500000000E+03 0.  0.
         25    1    1    2    0    0 -0.13165998793E+02  0.67351875209E+02 -0.32903825150E+02  0.14634643941E+03  0.12500000000E+03 0.  0.
         25    1    1    2    0    0  0.77361282259E+01 -0.56433379665E+02 -0.13693884089E+03  0.19396345059E+03  0.12500000000E+03 0.  0.
</event>
<event>
 5    0  0.5474724E-005  0.2725860E+03  0.7546771E-02  0.1099809E+00
         21   -1    0    0  502  501  0.00000000000E+00  0.00000000000E+00  0.28942568155E+03  0.28942568155E+03  0.00000000000E+00 0.  1.
         21   -1    0    0  501  502 -0.00000000000E+00 -0.00000000000E+00 -0.25672610737E+03  0.25672610737E+03  0.00000000000E+00 0.  1.
         25    1    1    2    0    0 -0.34836638994E+02  0.51810548584E+02  0.11067382155E+03  0.17824595125E+03  0.12500000000E+03 0.  0.
         25    1    1    2    0    0 -0.83593136355E+02 -0.95433485832E+02 -0.12319802611E+02  0.17852770149E+03  0.12500000000E+03 0.  0.
         25    1    1    2    0    0  0.11842977535E+03  0.43622937248E+02 -0.65654444767E+02  0.18937813618E+03  0.12500000000E+03 0.  0.
</event>
<event>
 5    0  0.5474724E-005  0.2131768E+03  0.7546771E-02  0.1139075E+00
         21   -1    0    0  502  501  0.00000000000E+00  0.00000000000E+00  0.12312690961E+03  0.12312690961E+03  0.00000000000E+00 0. -1.
         21   -1    0    0  501  502 -0.00000000000E+00 -0.00000000000E+00 -0.36908555757E+03  0.36908555757E+03  0.00000000000E+00 0. -1.
         25    1    1    2    0    0  0.78179010795E+02 -0.33262088116E+02 -0.11253837386E+03  0.18843622217E+03  0.12500000000E+03 0.  0.
         25    1    1    2    0    0 -0.57282999695E+02 -0.54571088635E+01 -0.46311093366E+02  0.14519242219E+03  0.12500000000E+03 0.  0.
         25    1    1    2    0    0 -0.20896011101E+02  0.38719196979E+02 -0.87109180735E+02  0.15858382283E+03  0.12500000000E+03 0.  0.
</event>
<event>
 5    0  0.7141049E-005  0.7849549E+03  0.7546771E-02  0.9582053E-01
         21   -1    0    0  502  501  0.00000000000E+00  0.00000000000E+00  0.18127064170E+04  0.18127064170E+04  0.00000000000E+00 0.  1.
         21   -1    0    0  501  502 -0.00000000000E+00 -0.00000000000E+00 -0.33990845002E+03  0.33990845002E+03  0.00000000000E+00 0.  1.
         25    1    1    2    0    0  0.84186083290E+02  0.51020406790E+03  0.27619733366E+03  0.59942093277E+03  0.12500000000E+03 0.  0.
         25    1    1    2    0    0  0.33891119971E+03 -0.22065600686E+03  0.32248198271E+03  0.53213673414E+03  0.12500000000E+03 0.  0.
         25    1    1    2    0    0 -0.42309728300E+03 -0.28954806104E+03  0.87411865060E+03  0.10210572001E+04  0.12500000000E+03 0.  0.
</event>
<event>
 5    0  0.5474724E-005  0.2955570E+03  0.7546771E-02  0.1087483E+00
         21   -1    0    0  502  501  0.00000000000E+00  0.00000000000E+00  0.35149074998E+03  0.35149074998E+03  0.00000000000E+00 0.  1.
         21   -1    0    0  501  502 -0.00000000000E+00 -0.00000000000E+00 -0.24852418229E+03  0.24852418229E+03  0.00000000000E+00 0.  1.
         25    1    1    2    0    0  0.15681072644E+03  0.42099172281E+02 -0.23856554105E+02  0.20629124898E+03  0.12500000000E+03 0.  0.
         25    1    1    2    0    0 -0.71479666127E+02  0.91691715335E+02  0.60288896993E+02  0.18104271438E+03  0.12500000000E+03 0.  0.
         25    1    1    2    0    0 -0.85331060314E+02 -0.13379088762E+03  0.66534224808E+02  0.21268096890E+03  0.12500000000E+03 0.  0.
</event>
<event>
 5    0  0.5474724E-005  0.3723338E+03  0.7546771E-02  0.1053804E+00
         21   -1    0    0  502  501  0.00000000000E+00  0.00000000000E+00  0.52096483712E+03  0.52096483712E+03  0.00000000000E+00 0. -1.
         21   -1    0    0  501  502 -0.00000000000E+00 -0.00000000000E+00 -0.26610714838E+03  0.26610714838E+03  0.00000000000E+00 0. -1.
         25    1    1    2    0    0 -0.20964616196E+03 -0.12496146759E+03  0.23231661277E+03  0.35939239026E+03  0.12500000000E+03 0.  0.
         25    1    1    2    0    0  0.12110413913E+03  0.34609721987E+02 -0.10740139967E+03  0.20742253017E+03  0.12500000000E+03 0.  0.
         25    1    1    2    0    0  0.88542022826E+02  0.90351745605E+02  0.12994247563E+03  0.22025706507E+03  0.12500000000E+03 0.  0.
</event>
<event>
 5    0  0.5474724E-005  0.3964747E+03  0.7546771E-02  0.1045007E+00
         21   -1    0    0  502  501  0.00000000000E+00  0.00000000000E+00  0.27695985115E+03  0.27695985115E+03  0.00000000000E+00 0.  1.
         21   -1    0    0  501  502 -0.00000000000E+00 -0.00000000000E+00 -0.56756305544E+03  0.56756305544E+03  0.00000000000E+00 0.  1.
         25    1    1    2    0    0 -0.12645528364E+03 -0.10986405780E+03  0.12105114746E+03  0.24153556727E+03  0.12500000000E+03 0.  0.
         25    1    1    2    0    0  0.17699112782E+03  0.78568823912E+02 -0.40306010276E+03  0.46430740448E+03  0.12500000000E+03 0.  0.
         25    1    1    2    0    0 -0.50535844180E+02  0.31295233885E+02 -0.85942489903E+01  0.13867993484E+03  0.12500000000E+03 0.  0.
</event>
<event>
 5    0  0.5474724E-005  0.3551906E+03  0.7546771E-02  0.1060505E+00
         21   -1    0    0  502  501  0.00000000000E+00  0.00000000000E+00  0.12060122945E+03  0.12060122945E+03  0.00000000000E+00 0. -1.
         21   -1    0    0  501  502 -0.00000000000E+00 -0.00000000000E+00 -0.10460953714E+04  0.10460953714E+04  0.00000000000E+00 0. -1.
         25    1    1    2    0    0 -0.72269280748E+02 -0.20081705814E+03 -0.39865895550E+03  0.46915274973E+03  0.12500000000E+03 0.  0.
         25    1    1    2    0    0 -0.12018693609E+03  0.50482790912E+02 -0.24333395989E+03  0.30303436739E+03  0.12500000000E+03 0.  0.
         25    1    1    2    0    0  0.19245621683E+03  0.15033426722E+03 -0.28350122661E+03  0.39450948378E+03  0.12500000000E+03 0.  0.
</event>
<event>
 5    0  0.5474724E-005  0.3596455E+03  0.7546771E-02  0.1058724E+00
         21   -1    0    0  502  501  0.00000000000E+00  0.00000000000E+00  0.41875035236E+03  0.41875035236E+03  0.00000000000E+00 0. -1.
         21   -1    0    0  501  502 -0.00000000000E+00 -0.00000000000E+00 -0.30888308999E+03  0.30888308999E+03  0.00000000000E+00 0. -1.
         25    1    1    2    0    0  0.21129996829E+03 -0.13068490085E+03 -0.74863682191E+01  0.27822161242E+03  0.12500000000E+03 0.  0.
         25    1    1    2    0    0  0.31693546881E+02  0.73618374082E+01  0.50344464763E+01  0.12926338699E+03  0.12500000000E+03 0.  0.
         25    1    1    2    0    0 -0.24299351517E+03  0.12332306344E+03  0.11231918411E+03  0.32014844293E+03  0.12500000000E+03 0.  0.
</event>
<event>
 5    0  0.5474724E-005  0.2258489E+03  0.7546771E-02  0.1129596E+00
         21   -1    0    0  502  501  0.00000000000E+00  0.00000000000E+00  0.12461692054E+04  0.12461692054E+04  0.00000000000E+00 0. -1.
         21   -1    0    0  501  502 -0.00000000000E+00 -0.00000000000E+00 -0.40931627206E+02  0.40931627206E+02  0.00000000000E+00 0. -1.
         25    1    1    2    0    0  0.71419992752E+02 -0.36062503810E+02  0.50484533058E+03  0.52620825474E+03  0.12500000000E+03 0.  0.
         25    1    1    2    0    0  0.30259427049E+02 -0.10873291503E+02  0.32504771961E+03  0.34973544490E+03  0.12500000000E+03 0.  0.
         25    1    1    2    0    0 -0.10167941980E+03  0.46935795312E+02  0.37534452802E+03  0.41115713299E+03  0.12500000000E+03 0.  0.
</event>
<event>
 5    0  0.5886818E-005  0.2715792E+03  0.7546771E-02  0.1100379E+00
         21   -1    0    0  502  501  0.00000000000E+00  0.00000000000E+00  0.14236113166E+03  0.14236113166E+03  0.00000000000E+00 0.  1.
         21   -1    0    0  501  502 -0.00000000000E+00 -0.00000000000E+00 -0.51808552244E+03  0.51808552244E+03  0.00000000000E+00 0.  1.
         25    1    1    2    0    0 -0.50673456810E+02  0.23540406923E+02  0.80782805165E+01  0.13715760496E+03  0.12500000000E+03 0.  0.
         25    1    1    2    0    0  0.10734869814E+03 -0.10270387969E+03 -0.24533463803E+03  0.31286724743E+03  0.12500000000E+03 0.  0.
         25    1    1    2    0    0 -0.56675241331E+02  0.79163472763E+02 -0.13846803326E+03  0.21042180171E+03  0.12500000000E+03 0.  0.
</event>
<event>
 5    0  0.5474724E-005  0.2811564E+03  0.7546771E-02  0.1095059E+00
         21   -1    0    0  502  501  0.00000000000E+00  0.00000000000E+00  0.14562783394E+03  0.14562783394E+03  0.00000000000E+00 0. -1.
         21   -1    0    0  501  502 -0.00000000000E+00 -0.00000000000E+00 -0.54281473346E+03  0.54281473346E+03  0.00000000000E+00 0. -1.
         25    1    1    2    0    0  0.12422347037E+03 -0.11010863062E+03 -0.30059519653E+03  0.36542831487E+03  0.12500000000E+03 0.  0.
         25    1    1    2    0    0 -0.82108717084E+02  0.26046139517E+02 -0.46030714444E+02  0.15863186779E+03  0.12500000000E+03 0.  0.
         25    1    1    2    0    0 -0.42114753288E+02  0.84062491101E+02 -0.50560988544E+02  0.16438238475E+03  0.12500000000E+03 0.  0.
</event>
<event>
 5    0  0.5474724E-005  0.3394705E+03  0.7546771E-02  0.1067022E+00
         21   -1    0    0  502  501  0.00000000000E+00  0.00000000000E+00  0.40879495777E+03  0.40879495777E+03  0.00000000000E+00 0. -1.
         21   -1    0    0  501  502 -0.00000000000E+00 -0.00000000000E+00 -0.28190228079E+03  0.28190228079E+03  0.00000000000E+00 0. -1.
         25    1    1    2    0    0 -0.17865618611E+03 -0.13554061610E+02 -0.24649999406E+02  0.21985078552E+03  0.12500000000E+03 0.  0.
         25    1    1    2    0    0  0.16043238379E+02 -0.12409941209E+03 -0.75513494131E+01  0.17703127536E+03  0.12500000000E+03 0.  0.
         25    1    1    2    0    0  0.16261294774E+03  0.13765347370E+03  0.15909402580E+03  0.29381517768E+03  0.12500000000E+03 0.  0.
</event>
<event>
 5    0  0.5474724E-005  0.3379398E+03  0.7546771E-02  0.1067677E+00
         21   -1    0    0  502  501  0.00000000000E+00  0.00000000000E+00  0.18090289210E+03  0.18090289210E+03  0.00000000000E+00 0.  1.
         21   -1    0    0  501  502 -0.00000000000E+00 -0.00000000000E+00 -0.63129609836E+03  0.63129609836E+03  0.00000000000E+00 0.  1.
         25    1    1    2    0    0 -0.73384642068E+02 -0.66672022464E+02 -0.45270279061E+03  0.47999508424E+03  0.12500000000E+03 0.  0.
         25    1    1    2    0    0  0.10821620248E+03 -0.32084700165E+02 -0.96668310210E+01  0.16869683484E+03  0.12500000000E+03 0.  0.
         25    1    1    2    0    0 -0.34831560414E+02  0.98756722629E+02  0.11976415370E+02  0.16350707138E+03  0.12500000000E+03 0.  0.
</event>
<event>
 5    0  0.5474724E-005  0.2622767E+03  0.7546771E-02  0.1105783E+00
         21   -1    0    0  502  501  0.00000000000E+00  0.00000000000E+00  0.24703808963E+03  0.24703808963E+03  0.00000000000E+00 0. -1.
         21   -1    0    0  501  502 -0.00000000000E+00 -0.00000000000E+00 -0.27845525654E+03  0.27845525654E+03  0.00000000000E+00 0. -1.
         25    1    1    2    0    0 -0.97684352270E+01 -0.16579771011E+02  0.37505705388E+02  0.13191659892E+03  0.12500000000E+03 0.  0.
         25    1    1    2    0    0  0.62372380363E+02  0.69437845127E+02 -0.15872027497E+03  0.22255123872E+03  0.12500000000E+03 0.  0.
         25    1    1    2    0    0 -0.52603945136E+02 -0.52858074116E+02  0.89797402674E+02  0.17102550854E+03  0.12500000000E+03 0.  0.
</event>
<event>
 5    0  0.5474724E-005  0.5015161E+03  0.7546771E-02  0.1013384E+00
         21   -1    0    0  502  501  0.00000000000E+00  0.00000000000E+00  0.65396604791E+03  0.65396604791E+03  0.00000000000E+00 0. -1.
         21   -1    0    0  501  502 -0.00000000000E+00 -0.00000000000E+00 -0.38460465686E+03  0.38460465686E+03  0.00000000000E+00 0. -1.
         25    1    1    2    0    0 -0.71511172980E+01  0.70379454132E+01 -0.20341336368E+03  0.23896164479E+03  0.12500000000E+03 0.  0.
         25    1    1    2    0    0  0.13432604751E+03 -0.18744123486E+03  0.47872801986E+03  0.54587839357E+03  0.12500000000E+03 0.  0.
         25    1    1    2    0    0 -0.12717493021E+03  0.18040328944E+03 -0.59532651204E+01  0.25373066642E+03  0.12500000000E+03 0.  0.
</event>
<event>
 5    0  0.5474724E-005  0.2522267E+03  0.7546771E-02  0.1111906E+00
         21   -1    0    0  502  501  0.00000000000E+00  0.00000000000E+00  0.94031187721E+03  0.94031187721E+03  0.00000000000E+00 0.  1.
         21   -1    0    0  501  502 -0.00000000000E+00 -0.00000000000E+00 -0.67656603503E+02  0.67656603503E+02  0.00000000000E+00 0.  1.
         25    1    1    2    0    0  0.94194646538E-01 -0.41207873103E+02  0.10950239842E+03  0.17121294618E+03  0.12500000000E+03 0.  0.
         25    1    1    2    0    0 -0.82792757535E+02  0.70526598741E+02  0.23907426911E+03  0.29087823566E+03  0.12500000000E+03 0.  0.
         25    1    1    2    0    0  0.82698562889E+02 -0.29318725638E+02  0.52407860618E+03  0.54587729888E+03  0.12500000000E+03 0.  0.
</event>
<event>
 5    0  0.5474724E-005  0.2924669E+03  0.7546771E-02  0.1089068E+00
         21   -1    0    0  502  501  0.00000000000E+00  0.00000000000E+00  0.49253347805E+02  0.49253347805E+02  0.00000000000E+00 0. -1.
         21   -1    0    0  501  502 -0.00000000000E+00 -0.00000000000E+00 -0.17366713088E+04  0.17366713088E+04  0.00000000000E+00 0. -1.
         25    1    1    2    0    0 -0.19127107207E+02 -0.15423465608E+03 -0.10935058131E+04  0.11115458329E+04  0.12500000000E+03 0.  0.
         25    1    1    2    0    0 -0.47888591299E+01  0.74904677145E+02 -0.16595752375E+03  0.22090845054E+03  0.12500000000E+03 0.  0.
         25    1    1    2    0    0  0.23915966336E+02  0.79329978936E+02 -0.42795462408E+03  0.45347037309E+03  0.12500000000E+03 0.  0.
</event>
<event>
 5    0  0.5474724E-005  0.4459412E+03  0.7546771E-02  0.1028939E+00
         21   -1    0    0  502  501  0.00000000000E+00  0.00000000000E+00  0.71258697242E+03  0.71258697242E+03  0.00000000000E+00 0.  1.
         21   -1    0    0  501  502 -0.00000000000E+00 -0.00000000000E+00 -0.27907265828E+03  0.27907265828E+03  0.00000000000E+00 0.  1.
         25    1    1    2    0    0  0.20453734086E+03  0.87639535324E+02  0.29364230447E+03  0.38905914066E+03  0.12500000000E+03 0.  0.
         25    1    1    2    0    0  0.25471811616E+02  0.17130348580E+03  0.16304153955E+02  0.21420672929E+03  0.12500000000E+03 0.  0.
         25    1    1    2    0    0 -0.23000915248E+03 -0.25894302113E+03  0.12356785572E+03  0.38839376074E+03  0.12500000000E+03 0.  0.
</event>
<event>
 5    0  0.5474724E-005  0.3278010E+03  0.7546771E-02  0.1072114E+00
         21   -1    0    0  502  501  0.00000000000E+00  0.00000000000E+00  0.19245419981E+03  0.19245419981E+03  0.00000000000E+00 0.  1.
         21   -1    0    0  501  502 -0.00000000000E+00 -0.00000000000E+00 -0.55833295789E+03  0.55833295789E+03  0.00000000000E+00 0.  1.
         25    1    1    2    0    0 -0.69940253413E+02 -0.21072107579E+02 -0.41124311105E+03  0.43598345055E+03  0.12500000000E+03 0.  0.
         25    1    1    2    0    0  0.35010583278E+02 -0.60407775891E+02  0.70362963878E+02  0.15953302798E+03  0.12500000000E+03 0.  0.
         25    1    1    2    0    0  0.34929670135E+02  0.81479883470E+02 -0.24998610903E+02  0.15527067918E+03  0.12500000000E+03 0.  0.
</event>
<event>
 5    0  0.5554223E-005  0.2936350E+03  0.7546771E-02  0.1088466E+00
         21   -1    0    0  502  501  0.00000000000E+00  0.00000000000E+00  0.15481582270E+03  0.15481582270E+03  0.00000000000E+00 0. -1.
         21   -1    0    0  501  502 -0.00000000000E+00 -0.00000000000E+00 -0.55692954120E+03  0.55692954120E+03  0.00000000000E+00 0. -1.
         25    1    1    2    0    0 -0.40896940757E+02  0.10704528827E+03 -0.24943155804E+03  0.30161623904E+03  0.12500000000E+03 0.  0.
         25    1    1    2    0    0  0.81430384733E+02 -0.11969025410E+03 -0.19337565371E+03  0.27198494064E+03  0.12500000000E+03 0.  0.
         25    1    1    2    0    0 -0.40533443977E+02  0.12644965833E+02  0.40693493261E+02  0.13814418423E+03  0.12500000000E+03 0.  0.
</event>
<event>
 5    0  0.5474724E-005  0.2492142E+03  0.7546771E-02  0.1113802E+00
         21   -1    0    0  502  501  0.00000000000E+00  0.00000000000E+00  0.92960623825E+02  0.92960623825E+02  0.00000000000E+00 0. -1.
         21   -1    0    0  501  502 -0.00000000000E+00 -0.00000000000E+00 -0.66810756932E+03  0.66810756932E+03  0.00000000000E+00 0. -1.
         25    1    1    2    0    0 -0.73733119336E+02 -0.12175520208E+03 -0.19164310361E+03  0.26946795965E+03  0.12500000000E+03 0.  0.
         25    1    1    2    0    0 -0.11018524475E+02  0.63619918089E+02 -0.22303505414E+03  0.26370160643E+03  0.12500000000E+03 0.  0.
         25    1    1    2    0    0  0.84751643811E+02  0.58135283990E+02 -0.16046878775E+03  0.22789862706E+03  0.12500000000E+03 0.  0.
</event>
<event>
 5    0  0.5474724E-005  0.2317532E+03  0.7546771E-02  0.1125412E+00
         21   -1    0    0  502  501  0.00000000000E+00  0.00000000000E+00  0.64461854125E+03  0.64461854125E+03  0.00000000000E+00 0.  1.
         21   -1    0    0  501  502 -0.00000000000E+00 -0.00000000000E+00 -0.83319878540E+02  0.83319878540E+02  0.00000000000E+00 0.  1.
         25    1    1    2    0    0  0.73232580141E+02 -0.10195336538E+01  0.21905671388E+03  0.26263071819E+03  0.12500000000E+03 0.  0.
         25    1    1    2    0    0 -0.10537829366E+03  0.36067914929E+02  0.25695730464E+03  0.30668801031E+03  0.12500000000E+03 0.  0.
         25    1    1    2    0    0  0.32145713521E+02 -0.35048381275E+02  0.85284644189E+02  0.15861969128E+03  0.12500000000E+03 0.  0.
</event>
<event>
 5    0  0.5474724E-005  0.2651910E+03  0.7546771E-02  0.1104064E+00
         21   -1    0    0  502  501  0.00000000000E+00  0.00000000000E+00  0.42464252865E+03  0.42464252865E+03  0.00000000000E+00 0. -1.
         21   -1    0    0  501  502 -0.00000000000E+00 -0.00000000000E+00 -0.16561283129E+03  0.16561283129E+03  0.00000000000E+00 0. -1.
         25    1    1    2    0    0 -0.50664431776E+02  0.99274519622E+02  0.57544445379E+02  0.17708381656E+03  0.12500000000E+03 0.  0.
         25    1    1    2    0    0  0.76577418441E+01 -0.16932231585E+03  0.10696449228E+03  0.23620984371E+03  0.12500000000E+03 0.  0.
         25    1    1    2    0    0  0.43006689932E+02  0.70047796228E+02  0.94520759701E+02  0.17696169967E+03  0.12500000000E+03 0.  0.
</event>
<event>
 5    0  0.5474724E-005  0.2717716E+03  0.7546771E-02  0.1100270E+00
         21   -1    0    0  502  501  0.00000000000E+00  0.00000000000E+00  0.57880079538E+03  0.57880079538E+03  0.00000000000E+00 0. -1.
         21   -1    0    0  501  502 -0.00000000000E+00 -0.00000000000E+00 -0.12760831559E+03  0.12760831559E+03  0.00000000000E+00 0. -1.
         25    1    1    2    0    0  0.29533765027E+02 -0.16948589185E+03  0.16799477574E+03  0.27100729785E+03  0.12500000000E+03 0.  0.
         25    1    1    2    0    0 -0.13211550281E+02  0.11723839688E+03  0.23399826994E+03  0.29034389454E+03  0.12500000000E+03 0.  0.
         25    1    1    2    0    0 -0.16322214745E+02  0.52247494971E+02  0.49199434118E+02  0.14505791858E+03  0.12500000000E+03 0.  0.
</event>
<event>
 5    0  0.5474724E-005  0.2414016E+03  0.7546771E-02  0.1118863E+00
         21   -1    0    0  502  501  0.00000000000E+00  0.00000000000E+00  0.13270390199E+03  0.13270390199E+03  0.00000000000E+00 0.  1.
         21   -1    0    0  501  502 -0.00000000000E+00 -0.00000000000E+00 -0.43913347305E+03  0.43913347305E+03  0.00000000000E+00 0.  1.
         25    1    1    2    0    0 -0.61245048100E+02  0.56203559327E+02 -0.56014124791E+02  0.16022602215E+03  0.12500000000E+03 0.  0.
         25    1    1    2    0    0 -0.66454155456E+02 -0.15373625825E+02 -0.12533588942E+03  0.18970131345E+03  0.12500000000E+03 0.  0.
         25    1    1    2    0    0  0.12769920356E+03 -0.40829933502E+02 -0.12507955685E+03  0.22191003943E+03  0.12500000000E+03 0.  0.
</event>
<event>
 5    0  0.5474724E-005  0.4041722E+03  0.7546771E-02  0.1042344E+00
         21   -1    0    0  502  501  0.00000000000E+00  0.00000000000E+00  0.88702454600E+02  0.88702454600E+02  0.00000000000E+00 0.  1.
         21   -1    0    0  501  502 -0.00000000000E+00 -0.00000000000E+00 -0.18416085668E+04  0.18416085668E+04  0.00000000000E+00 0.  1.
         25    1    1    2    0    0  0.13280393381E+02 -0.11503737710E+03 -0.47354185345E+03  0.50326618598E+03  0.12500000000E+03 0.  0.
         25    1    1    2    0    0 -0.94392342987E+02  0.32050389322E+03 -0.92295722152E+03  0.98949870781E+03  0.12500000000E+03 0.  0.
         25    1    1    2    0    0  0.81111949606E+02 -0.20546651612E+03 -0.35640703726E+03  0.43754612765E+03  0.12500000000E+03 0.  0.
</event>
<event>
 5    0  0.5474724E-005  0.3147174E+03  0.7546771E-02  0.1078107E+00
         21   -1    0    0  502  501  0.00000000000E+00  0.00000000000E+00  0.73141752413E+02  0.73141752413E+02  0.00000000000E+00 0.  1.
         21   -1    0    0  501  502 -0.00000000000E+00 -0.00000000000E+00 -0.13541791968E+04  0.13541791968E+04  0.00000000000E+00 0.  1.
         25    1    1    2    0    0 -0.14731078247E+03  0.72496879834E+02 -0.95639090297E+03  0.97839911259E+03  0.12500000000E+03 0.  0.
         25    1    1    2    0    0  0.64960010681E+02 -0.60573710241E+02 -0.11805557654E+03  0.19352285785E+03  0.12500000000E+03 0.  0.
         25    1    1    2    0    0  0.82350771793E+02 -0.11923169594E+02 -0.20659096485E+03  0.25539897875E+03  0.12500000000E+03 0.  0.
</event>
<event>
 5    0  0.5474724E-005  0.2875127E+03  0.7546771E-02  0.1091655E+00
         21   -1    0    0  502  501  0.00000000000E+00  0.00000000000E+00  0.22953774973E+03  0.22953774973E+03  0.00000000000E+00 0. -1.
         21   -1    0    0  501  502 -0.00000000000E+00 -0.00000000000E+00 -0.36013061315E+03  0.36013061315E+03  0.00000000000E+00 0. -1.
         25    1    1    2    0    0  0.90557426199E+02  0.10789205991E+03  0.20319026817E+02  0.18941807433E+03  0.12500000000E+03 0.  0.
         25    1    1    2    0    0  0.13863069317E+02  0.27222308212E+02  0.17407188089E+02  0.12985087197E+03  0.12500000000E+03 0.  0.
         25    1    1    2    0    0 -0.10442049552E+03 -0.13511436812E+03 -0.16831907832E+03  0.27039941658E+03  0.12500000000E+03 0.  0.
</event>
<event>
 5    0  0.5474724E-005  0.2895570E+03  0.7546771E-02  0.1090581E+00
         21   -1    0    0  502  501  0.00000000000E+00  0.00000000000E+00  0.11729620434E+03  0.11729620434E+03  0.00000000000E+00 0. -1.
         21   -1    0    0  501  502 -0.00000000000E+00 -0.00000000000E+00 -0.71479963390E+03  0.71479963390E+03  0.00000000000E+00 0. -1.
         25    1    1    2    0    0  0.51411003452E+02  0.11989511406E+02 -0.60689585118E+02  0.14864408970E+03  0.12500000000E+03 0.  0.
         25    1    1    2    0    0 -0.15873447906E+02  0.28237421189E+02  0.55583735136E+00  0.12913027243E+03  0.12500000000E+03 0.  0.
         25    1    1    2    0    0 -0.35537555546E+02 -0.40226932595E+02 -0.53736968179E+03  0.55432147610E+03  0.12500000000E+03 0.  0.
</event>
<event>
 5    0  0.5474724E-005  0.2697376E+03  0.7546771E-02  0.1101430E+00
         21   -1    0    0  502  501  0.00000000000E+00  0.00000000000E+00  0.12236184447E+03  0.12236184447E+03  0.00000000000E+00 0.  1.
         21   -1    0    0  501  502 -0.00000000000E+00 -0.00000000000E+00 -0.59461655573E+03  0.59461655573E+03  0.00000000000E+00 0.  1.
         25    1    1    2    0    0  0.21050197528E+01 -0.18688224437E+02 -0.40156148188E+03  0.42098729739E+03  0.12500000000E+03 0.  0.
         25    1    1    2    0    0 -0.69101879939E+02 -0.82175423289E+01 -0.34076622092E+02  0.14706737907E+03  0.12500000000E+03 0.  0.
         25    1    1    2    0    0  0.66996860187E+02  0.26905766766E+02 -0.36616607295E+02  0.14892372373E+03  0.12500000000E+03 0.  0.
</event>
<event>
 5    0  0.5474724E-005  0.2339152E+03  0.7546771E-02  0.1123914E+00
         21   -1    0    0  502  501  0.00000000000E+00  0.00000000000E+00  0.30522421262E+03  0.30522421262E+03  0.00000000000E+00 0. -1.
         21   -1    0    0  501  502 -0.00000000000E+00 -0.00000000000E+00 -0.17926606134E+03  0.17926606134E+03  0.00000000000E+00 0. -1.
         25    1    1    2    0    0 -0.95515632203E+01  0.12405934227E+02  0.15677463855E+03  0.20111794265E+03  0.12500000000E+03 0.  0.
         25    1    1    2    0    0  0.48641578357E+02  0.40419611179E+02 -0.22719318349E+02  0.14191869341E+03  0.12500000000E+03 0.  0.
         25    1    1    2    0    0 -0.39090015137E+02 -0.52825545406E+02 -0.80971689238E+01  0.14145363790E+03  0.12500000000E+03 0.  0.
</event>
<event>
 5    0  0.5474724E-005  0.3167420E+03  0.7546771E-02  0.1077159E+00
         21   -1    0    0  502  501  0.00000000000E+00  0.00000000000E+00  0.29694076573E+03  0.29694076573E+03  0.00000000000E+00 0. -1.
         21   -1    0    0  501  502 -0.00000000000E+00 -0.00000000000E+00 -0.33786358717E+03  0.33786358717E+03  0.00000000000E+00 0. -1.
         25    1    1    2    0    0 -0.82027112827E+01  0.64273368598E+02 -0.14740890523E+03  0.20384488153E+03  0.12500000000E+03 0.  0.
         25    1    1    2    0    0 -0.38730193231E+02 -0.99668324897E+02  0.20386455634E+03  0.26195335499E+03  0.12500000000E+03 0.  0.
         25    1    1    2    0    0  0.46932904513E+02  0.35394956299E+02 -0.97378472546E+02  0.16900611638E+03  0.12500000000E+03 0.  0.
</event>
<event>
 5    0  0.5474724E-005  0.4789704E+03  0.7546771E-02  0.1019419E+00
         21   -1    0    0  502  501  0.00000000000E+00  0.00000000000E+00  0.78791382464E+03  0.78791382464E+03  0.00000000000E+00 0. -1.
         21   -1    0    0  501  502 -0.00000000000E+00 -0.00000000000E+00 -0.29116458219E+03  0.29116458219E+03  0.00000000000E+00 0. -1.
         25    1    1    2    0    0 -0.11176955691E+03 -0.36050719563E+03  0.34243492697E+03  0.52473283789E+03  0.12500000000E+03 0.  0.
         25    1    1    2    0    0  0.14203204494E+03  0.34110533504E+03  0.62268578069E+02  0.39500421162E+03  0.12500000000E+03 0.  0.
         25    1    1    2    0    0 -0.30262488026E+02  0.19401860593E+02  0.92045737415E+02  0.15934135732E+03  0.12500000000E+03 0.  0.
</event>
<event>
 5    0  0.5474724E-005  0.2180056E+03  0.7546771E-02  0.1135379E+00
         21   -1    0    0  502  501  0.00000000000E+00  0.00000000000E+00  0.40121721915E+03  0.40121721915E+03  0.00000000000E+00 0. -1.
         21   -1    0    0  501  502 -0.00000000000E+00 -0.00000000000E+00 -0.11845559260E+03  0.11845559260E+03  0.00000000000E+00 0. -1.
         25    1    1    2    0    0  0.80359223654E+02  0.34424422141E+02  0.83701107879E+02  0.17399287665E+03  0.12500000000E+03 0.  0.
         25    1    1    2    0    0 -0.17912391287E+02 -0.28838062874E+01  0.42007132999E+02  0.13311186770E+03  0.12500000000E+03 0.  0.
         25    1    1    2    0    0 -0.62446832367E+02 -0.31540615854E+02  0.15705338568E+03  0.21256806739E+03  0.12500000000E+03 0.  0.
</event>
<event>
 5    0  0.5474724E-005  0.4052296E+03  0.7546771E-02  0.1041984E+00
         21   -1    0    0  502  501  0.00000000000E+00  0.00000000000E+00  0.17617988234E+04  0.17617988234E+04  0.00000000000E+00 0.  1.
         21   -1    0    0  501  502 -0.00000000000E+00 -0.00000000000E+00 -0.93206448878E+02  0.93206448878E+02  0.00000000000E+00 0.  1.
         25    1    1    2    0    0  0.12862071098E+02 -0.34662821825E+03  0.88869000674E+03  0.96213901420E+03  0.12500000000E+03 0.  0.
         25    1    1    2    0    0  0.26203016545E+02  0.15253054106E+03  0.32021620850E+03  0.37698220677E+03  0.12500000000E+03 0.  0.
         25    1    1    2    0    0 -0.39065087643E+02  0.19409767719E+03  0.45968615924E+03  0.51588405127E+03  0.12500000000E+03 0.  0.
</event>
<event>
 5    0  0.5474724E-005  0.2386704E+03  0.7546771E-02  0.1120682E+00
         21   -1    0    0  502  501  0.00000000000E+00  0.00000000000E+00  0.58905328761E+02  0.58905328761E+02  0.00000000000E+00 0.  1.
         21   -1    0    0  501  502 -0.00000000000E+00 -0.00000000000E+00 -0.96703561461E+03  0.96703561461E+03  0.00000000000E+00 0.  1.
         25    1    1    2    0    0 -0.46108308965E+02 -0.20542151032E+01 -0.19076552430E+03  0.23269439447E+03  0.12500000000E+03 0.  0.
         25    1    1    2    0    0 -0.62694251596E+02 -0.71072181064E+02 -0.31016350103E+03  0.34757477106E+03  0.12500000000E+03 0.  0.
         25    1    1    2    0    0  0.10880256056E+03  0.73126396167E+02 -0.40720126052E+03  0.44567177785E+03  0.12500000000E+03 0.  0.
</event>
<event>
 5    0  0.5474724E-005  0.3232250E+03  0.7546771E-02  0.1074175E+00
         21   -1    0    0  502  501  0.00000000000E+00  0.00000000000E+00  0.65463021876E+03  0.65463021876E+03  0.00000000000E+00 0.  1.
         21   -1    0    0  501  502 -0.00000000000E+00 -0.00000000000E+00 -0.15959303263E+03  0.15959303263E+03  0.00000000000E+00 0.  1.
         25    1    1    2    0    0 -0.90265495142E+01 -0.63316045037E+02 -0.31366021752E+02  0.14387226097E+03  0.12500000000E+03 0.  0.
         25    1    1    2    0    0  0.13301523953E+03 -0.28472912581E+02  0.38363261518E+03  0.42579659947E+03  0.12500000000E+03 0.  0.
         25    1    1    2    0    0 -0.12398869002E+03  0.91788957618E+02  0.14277059270E+03  0.24455439095E+03  0.12500000000E+03 0.  0.
</event>
<event>
 5    0  0.5474724E-005  0.3796504E+03  0.7546771E-02  0.1051063E+00
         21   -1    0    0  502  501  0.00000000000E+00  0.00000000000E+00  0.55402822804E+03  0.55402822804E+03  0.00000000000E+00 0.  1.
         21   -1    0    0  501  502 -0.00000000000E+00 -0.00000000000E+00 -0.26015713611E+03  0.26015713611E+03  0.00000000000E+00 0.  1.
         25    1    1    2    0    0 -0.30109736594E+03  0.99077444168E+02  0.10696459419E+03  0.35713077175E+03  0.12500000000E+03 0.  0.
         25    1    1    2    0    0  0.18945727219E+03 -0.80980331653E+02  0.66818245390E+02  0.25008308623E+03  0.12500000000E+03 0.  0.
         25    1    1    2    0    0  0.11164009375E+03 -0.18097112515E+02  0.12008825236E+03  0.20697150618E+03  0.12500000000E+03 0.  0.
</event>
<event>
 5    0  0.5474724E-005  0.2577788E+03  0.7546771E-02  0.1108485E+00
         21   -1    0    0  502  501  0.00000000000E+00  0.00000000000E+00  0.49125863361E+02  0.49125863361E+02  0.00000000000E+00 0. -1.
         21   -1    0    0  501  502 -0.00000000000E+00 -0.00000000000E+00 -0.13526463850E+04  0.13526463850E+04  0.00000000000E+00 0. -1.
         25    1    1    2    0    0 -0.13174249182E+02  0.83999971363E+02 -0.23117202746E+03  0.27621560838E+03  0.12500000000E+03 0.  0.
         25    1    1    2    0    0 -0.28724831053E+01  0.69159527685E+02 -0.48604270895E+03  0.50661011276E+03  0.12500000000E+03 0.  0.
         25    1    1    2    0    0  0.16046732287E+02 -0.15315949905E+03 -0.58630578519E+03  0.61894652718E+03  0.12500000000E+03 0.  0.
</event>
<event>
 5    0  0.5474724E-005  0.3036366E+03  0.7546771E-02  0.1083437E+00
         21   -1    0    0  502  501  0.00000000000E+00  0.00000000000E+00  0.54384716549E+02  0.54384716549E+02  0.00000000000E+00 0. -1.
         21   -1    0    0  501  502 -0.00000000000E+00 -0.00000000000E+00 -0.16952405563E+04  0.16952405563E+04  0.00000000000E+00 0. -1.
         25    1    1    2    0    0 -0.69099022314E+02 -0.19963819167E+02 -0.75753042187E+03  0.77113589530E+03  0.12500000000E+03 0.  0.
         25    1    1    2    0    0  0.12415282285E+03  0.11596613777E+03 -0.26870705555E+03  0.34159998571E+03  0.12500000000E+03 0.  0.
         25    1    1    2    0    0 -0.55053800535E+02 -0.96002318606E+02 -0.61461836235E+03  0.63688939187E+03  0.12500000000E+03 0.  0.
</event>
<event>
 5    0  0.5474724E-005  0.4212954E+03  0.7546771E-02  0.1036646E+00
         21   -1    0    0  502  501  0.00000000000E+00  0.00000000000E+00  0.26458424718E+03  0.26458424718E+03  0.00000000000E+00 0. -1.
         21   -1    0    0  501  502 -0.00000000000E+00 -0.00000000000E+00 -0.67082526722E+03  0.67082526722E+03  0.00000000000E+00 0. -1.
         25    1    1    2    0    0  0.14813530343E+03  0.62143671673E+02 -0.48751330641E+03  0.52829927880E+03  0.12500000000E+03 0.  0.
         25    1    1    2    0    0 -0.13759864170E+03  0.67159917329E+02 -0.22941626826E+02  0.19898532341E+03  0.12500000000E+03 0.  0.
         25    1    1    2    0    0 -0.10536661736E+02 -0.12930358900E+03  0.10421391320E+03  0.20812491219E+03  0.12500000000E+03 0.  0.
</event>
<event>
 5    0  0.5474724E-005  0.2432030E+03  0.7546771E-02  0.1117677E+00
         21   -1    0    0  502  501  0.00000000000E+00  0.00000000000E+00  0.23779245971E+04  0.23779245971E+04  0.00000000000E+00 0. -1.
         21   -1    0    0  501  502 -0.00000000000E+00 -0.00000000000E+00 -0.24873661639E+02  0.24873661639E+02  0.00000000000E+00 0. -1.
         25    1    1    2    0    0 -0.37934551470E+02 -0.50221518349E+00  0.15948711056E+04  0.16002119003E+04  0.12500000000E+03 0.  0.
         25    1    1    2    0    0  0.52967326807E+02 -0.11727621260E+02  0.41799690394E+03  0.43964700217E+03  0.12500000000E+03 0.  0.
         25    1    1    2    0    0 -0.15032775337E+02  0.12229836444E+02  0.34018292586E+03  0.36293935620E+03  0.12500000000E+03 0.  0.
</event>
<event>
 5    0  0.5474724E-005  0.4537486E+03  0.7546771E-02  0.1026610E+00
         21   -1    0    0  502  501  0.00000000000E+00  0.00000000000E+00  0.50691381547E+03  0.50691381547E+03  0.00000000000E+00 0.  1.
         21   -1    0    0  501  502 -0.00000000000E+00 -0.00000000000E+00 -0.40615931215E+03  0.40615931215E+03  0.00000000000E+00 0.  1.
         25    1    1    2    0    0  0.19785611280E+03  0.18423147324E+03  0.26877126226E+03  0.40118732348E+03  0.12500000000E+03 0.  0.
         25    1    1    2    0    0  0.86472639503E+01 -0.17140352454E+03 -0.16704603138E+03  0.27015425224E+03  0.12500000000E+03 0.  0.
         25    1    1    2    0    0 -0.20650337675E+03 -0.12827948690E+02 -0.97072755086E+00  0.24173155191E+03  0.12500000000E+03 0.  0.
</event>
<event>
 5    0  0.5474724E-005  0.2819924E+03  0.7546771E-02  0.1094606E+00
         21   -1    0    0  502  501  0.00000000000E+00  0.00000000000E+00  0.69778052934E+03  0.69778052934E+03  0.00000000000E+00 0.  1.
         21   -1    0    0  501  502 -0.00000000000E+00 -0.00000000000E+00 -0.11396090370E+03  0.11396090370E+03  0.00000000000E+00 0.  1.
         25    1    1    2    0    0 -0.85159699550E+02 -0.31872882233E+02  0.23097981531E+01  0.15459104184E+03  0.12500000000E+03 0.  0.
         25    1    1    2    0    0  0.29905296318E+02  0.66315593325E+01  0.44149416421E+03  0.45986998310E+03  0.12500000000E+03 0.  0.
         25    1    1    2    0    0  0.55254403232E+02  0.25241322900E+02  0.14001566328E+03  0.19728040810E+03  0.12500000000E+03 0.  0.
</event>
<event>
 5    0  0.5474724E-005  0.2574615E+03  0.7546771E-02  0.1108678E+00
         21   -1    0    0  502  501  0.00000000000E+00  0.00000000000E+00  0.30092485403E+04  0.30092485403E+04  0.00000000000E+00 0. -1.
         21   -1    0    0  501  502 -0.00000000000E+00 -0.00000000000E+00 -0.22027561047E+02  0.22027561047E+02  0.00000000000E+00 0. -1.
         25    1    1    2    0    0 -0.91111368171E+02 -0.65708574705E+02  0.11783233053E+04  0.11902477515E+04  0.12500000000E+03 0.  0.
         25    1    1    2    0    0  0.50545051324E+02  0.92636226472E+02  0.51893602394E+03  0.54411016312E+03  0.12500000000E+03 0.  0.
         25    1    1    2    0    0  0.40566316847E+02 -0.26927651766E+02  0.12899616500E+04  0.12969181866E+04  0.12500000000E+03 0.  0.
</event>
<event>
 5    0  0.5474724E-005  0.2165612E+03  0.7546771E-02  0.1136473E+00
         21   -1    0    0  502  501  0.00000000000E+00  0.00000000000E+00  0.22705224749E+03  0.22705224749E+03  0.00000000000E+00 0. -1.
         21   -1    0    0  501  502 -0.00000000000E+00 -0.00000000000E+00 -0.20655480979E+03  0.20655480979E+03  0.00000000000E+00 0. -1.
         25    1    1    2    0    0 -0.18468447689E+02  0.96702022572E+01 -0.24973744244E+02  0.12916378855E+03  0.12500000000E+03 0.  0.
         25    1    1    2    0    0  0.80287087154E+02 -0.44114580995E+02  0.43670332159E+01  0.15503607193E+03  0.12500000000E+03 0.  0.
         25    1    1    2    0    0 -0.61818639465E+02  0.34444378738E+02  0.41104148730E+02  0.14940719680E+03  0.12500000000E+03 0.  0.
</event>
<event>
 5    0  0.5474724E-005  0.2641164E+03  0.7546771E-02  0.1104695E+00
         21   -1    0    0  502  501  0.00000000000E+00  0.00000000000E+00  0.43014087924E+03  0.43014087924E+03  0.00000000000E+00 0. -1.
         21   -1    0    0  501  502 -0.00000000000E+00 -0.00000000000E+00 -0.16217348886E+03  0.16217348886E+03  0.00000000000E+00 0. -1.
         25    1    1    2    0    0 -0.12106481301E+00  0.10145640162E+02  0.10432573561E+03  0.16313125936E+03  0.12500000000E+03 0.  0.
         25    1    1    2    0    0 -0.25738965513E+02 -0.41877074233E+02  0.24149685256E+03  0.27633659455E+03  0.12500000000E+03 0.  0.
         25    1    1    2    0    0  0.25860030326E+02  0.31731434072E+02 -0.77855197787E+02  0.15284651419E+03  0.12500000000E+03 0.  0.
</event>
<event>
 5    0  0.5474724E-005  0.3253161E+03  0.7546771E-02  0.1073228E+00
         21   -1    0    0  502  501  0.00000000000E+00  0.00000000000E+00  0.68727430928E+02  0.68727430928E+02  0.00000000000E+00 0. -1.
         21   -1    0    0  501  502 -0.00000000000E+00 -0.00000000000E+00 -0.15398595321E+04  0.15398595321E+04  0.00000000000E+00 0. -1.
         25    1    1    2    0    0  0.82759700691E+02 -0.18699315003E+02 -0.77220288309E+03  0.78684250336E+03  0.12500000000E+03 0.  0.
         25    1    1    2    0    0  0.12986577119E+03 -0.19572242189E+02 -0.26354750831E+03  0.31989135707E+03  0.12500000000E+03 0.  0.
         25    1    1    2    0    0 -0.21262547188E+03  0.38271557192E+02 -0.43538170977E+03  0.50185310260E+03  0.12500000000E+03 0.  0.
</event>
<event>
 5    0  0.5474724E-005  0.4442298E+03  0.7546771E-02  0.1029457E+00
         21   -1    0    0  502  501  0.00000000000E+00  0.00000000000E+00  0.15229663827E+04  0.15229663827E+04  0.00000000000E+00 0.  1.
         21   -1    0    0  501  502 -0.00000000000E+00 -0.00000000000E+00 -0.12957613433E+03  0.12957613433E+03  0.00000000000E+00 0.  1.
         25    1    1    2    0    0 -0.53524490518E+02  0.13312827328E+03  0.42747591397E+03  0.46791950724E+03  0.12500000000E+03 0.  0.
         25    1    1    2    0    0 -0.25396389684E+03 -0.13318347108E+03  0.67211153113E+03  0.74134634830E+03  0.12500000000E+03 0.  0.
         25    1    1    2    0    0  0.30748838736E+03  0.55197801277E-01  0.29380280328E+03  0.44327666149E+03  0.12500000000E+03 0.  0.
</event>
<event>
 5    0  0.5474724E-005  0.2814442E+03  0.7546771E-02  0.1094903E+00
         21   -1    0    0  502  501  0.00000000000E+00  0.00000000000E+00  0.17321467940E+03  0.17321467940E+03  0.00000000000E+00 0. -1.
         21   -1    0    0  501  502 -0.00000000000E+00 -0.00000000000E+00 -0.45729874957E+03  0.45729874957E+03  0.00000000000E+00 0. -1.
         25    1    1    2    0    0  0.11066015249E+03 -0.37383543649E+01 -0.18110307534E+03  0.24633913319E+03  0.12500000000E+03 0.  0.
         25    1    1    2    0    0 -0.17952420885E+03  0.35001207681E+02 -0.83643263987E+02  0.23680207286E+03  0.12500000000E+03 0.  0.
         25    1    1    2    0    0  0.68864056356E+02 -0.31262853316E+02 -0.19337730847E+02  0.14737222292E+03  0.12500000000E+03 0.  0.
</event>
<event>
 5    0  0.5474724E-005  0.4734820E+03  0.7546771E-02  0.1020942E+00
         21   -1    0    0  502  501  0.00000000000E+00  0.00000000000E+00  0.12324130587E+03  0.12324130587E+03  0.00000000000E+00 0.  1.
         21   -1    0    0  501  502 -0.00000000000E+00 -0.00000000000E+00 -0.18190755275E+04  0.18190755275E+04  0.00000000000E+00 0.  1.
         25    1    1    2    0    0  0.26322328885E+03 -0.69791662971E+02 -0.28646065162E+03  0.41453839502E+03  0.12500000000E+03 0.  0.
         25    1    1    2    0    0 -0.18912825957E+03  0.26259689796E+03 -0.77915848384E+03  0.85290068140E+03  0.12500000000E+03 0.  0.
         25    1    1    2    0    0 -0.74095029286E+02 -0.19280523498E+03 -0.63021508614E+03  0.67487775694E+03  0.12500000000E+03 0.  0.
</event>
<event>
 5    0  0.5474724E-005  0.2130447E+03  0.7546771E-02  0.1139177E+00
         21   -1    0    0  502  501  0.00000000000E+00  0.00000000000E+00  0.86759943868E+02  0.86759943868E+02  0.00000000000E+00 0. -1.
         21   -1    0    0  501  502 -0.00000000000E+00 -0.00000000000E+00 -0.52314498528E+03  0.52314498528E+03  0.00000000000E+00 0. -1.
         25    1    1    2    0    0 -0.19825219447E+02  0.73216317752E+02 -0.76991244148E+02  0.16524624107E+03  0.12500000000E+03 0.  0.
         25    1    1    2    0    0  0.12911009331E+02 -0.34417220839E+02 -0.19257218071E+03  0.23250867518E+03  0.12500000000E+03 0.  0.
         25    1    1    2    0    0  0.69142101161E+01 -0.38799096913E+02 -0.16682161656E+03  0.21215001290E+03  0.12500000000E+03 0.  0.
</event>
<event>
 5    0  0.5474724E-005  0.3681839E+03  0.7546771E-02  0.1055390E+00
         21   -1    0    0  502  501  0.00000000000E+00  0.00000000000E+00  0.10850543466E+04  0.10850543466E+04  0.00000000000E+00 0.  1.
         21   -1    0    0  501  502 -0.00000000000E+00 -0.00000000000E+00 -0.12493327057E+03  0.12493327057E+03  0.00000000000E+00 0.  1.
         25    1    1    2    0    0 -0.14999468473E+03 -0.25662955679E+02  0.36916993407E+02  0.20036181558E+03  0.12500000000E+03 0.  0.
         25    1    1    2    0    0 -0.17024783357E+02 -0.25934701687E+02  0.11277838136E+03  0.17119116596E+03  0.12500000000E+03 0.  0.
         25    1    1    2    0    0  0.16701946809E+03  0.51597657366E+02  0.81042570121E+03  0.83843463559E+03  0.12500000000E+03 0.  0.
</event>
<event>
 5    0  0.5474724E-005  0.2161224E+03  0.7546771E-02  0.1136807E+00
         21   -1    0    0  502  501  0.00000000000E+00  0.00000000000E+00  0.53437261412E+02  0.53437261412E+02  0.00000000000E+00 0.  1.
         21   -1    0    0  501  502 -0.00000000000E+00 -0.00000000000E+00 -0.87408868593E+03  0.87408868593E+03  0.00000000000E+00 0.  1.
         25    1    1    2    0    0 -0.63496398097E+02 -0.37286186079E+02 -0.22896184755E+03  0.27105456992E+03  0.12500000000E+03 0.  0.
         25    1    1    2    0    0  0.28040744841E+02  0.18799810468E+02 -0.16314344475E+03  0.20827985934E+03  0.12500000000E+03 0.  0.
         25    1    1    2    0    0  0.35455653257E+02  0.18486375611E+02 -0.42854613222E+03  0.44819151808E+03  0.12500000000E+03 0.  0.
</event>
<event>
 5    0  0.5474724E-005  0.3240356E+03  0.7546771E-02  0.1073807E+00
         21   -1    0    0  502  501  0.00000000000E+00  0.00000000000E+00  0.88798424609E+02  0.88798424609E+02  0.00000000000E+00 0.  1.
         21   -1    0    0  501  502 -0.00000000000E+00 -0.00000000000E+00 -0.11824429245E+04  0.11824429245E+04  0.00000000000E+00 0.  1.
         25    1    1    2    0    0 -0.85067589381E+00  0.13449111091E+03 -0.41990682775E+03  0.45829611230E+03  0.12500000000E+03 0.  0.
         25    1    1    2    0    0 -0.98123841389E+02 -0.12753716760E+03 -0.60641945327E+03  0.63973711059E+03  0.12500000000E+03 0.  0.
         25    1    1    2    0    0  0.98974517282E+02 -0.69539433017E+01 -0.67318218899E+02  0.17320812624E+03  0.12500000000E+03 0.  0.
</event>
<event>
 5    0  0.5474724E-005  0.2597032E+03  0.7546771E-02  0.1107322E+00
         21   -1    0    0  502  501  0.00000000000E+00  0.00000000000E+00  0.18897652787E+03  0.18897652787E+03  0.00000000000E+00 0. -1.
         21   -1    0    0  501  502 -0.00000000000E+00 -0.00000000000E+00 -0.35690007227E+03  0.35690007227E+03  0.00000000000E+00 0. -1.
         25    1    1    2    0    0  0.77495245554E+02 -0.56035762200E+02 -0.72738237610E+02  0.17338215289E+03  0.12500000000E+03 0.  0.
         25    1    1    2    0    0 -0.14544110624E+03  0.91289232211E+02 -0.70925237644E+02  0.22392460480E+03  0.12500000000E+03 0.  0.
         25    1    1    2    0    0  0.67945860682E+02 -0.35253470011E+02 -0.24260069151E+02  0.14856984245E+03  0.12500000000E+03 0.  0.
</event>
<event>
 5    0  0.6417740E-005  0.2898428E+03  0.7546771E-02  0.1090431E+00
         21   -1    0    0  502  501  0.00000000000E+00  0.00000000000E+00  0.10056550804E+03  0.10056550804E+03  0.00000000000E+00 0.  1.
         21   -1    0    0  501  502 -0.00000000000E+00 -0.00000000000E+00 -0.83536448119E+03  0.83536448119E+03  0.00000000000E+00 0.  1.
         25    1    1    2    0    0  0.78033284040E+02 -0.88212461756E+02 -0.59461402241E+03  0.61891959694E+03  0.12500000000E+03 0.  0.
         25    1    1    2    0    0 -0.49247835763E+01  0.39650896472E+02 -0.56796992010E+02  0.14299421452E+03  0.12500000000E+03 0.  0.
         25    1    1    2    0    0 -0.73108500464E+02  0.48561565284E+02 -0.83387958733E+02  0.17401617777E+03  0.12500000000E+03 0.  0.
</event>
<event>
 5    0  0.5474724E-005  0.3340938E+03  0.7546771E-02  0.1069340E+00
         21   -1    0    0  502  501  0.00000000000E+00  0.00000000000E+00  0.22406734067E+03  0.22406734067E+03  0.00000000000E+00 0.  1.
         21   -1    0    0  501  502 -0.00000000000E+00 -0.00000000000E+00 -0.49814789088E+03  0.49814789088E+03  0.00000000000E+00 0.  1.
         25    1    1    2    0    0  0.36614907699E+02  0.83634926936E+02 -0.26217272038E+02  0.15699617136E+03  0.12500000000E+03 0.  0.
         25    1    1    2    0    0  0.12527511362E+03  0.76014524293E+02 -0.23718141678E+03  0.30553573680E+03  0.12500000000E+03 0.  0.
         25    1    1    2    0    0 -0.16189002132E+03 -0.15964945123E+03 -0.10681861393E+02  0.25968332339E+03  0.12500000000E+03 0.  0.
</event>
<event>
 5    0  0.5474724E-005  0.3992711E+03  0.7546771E-02  0.1044032E+00
         21   -1    0    0  502  501  0.00000000000E+00  0.00000000000E+00  0.28473663940E+03  0.28473663940E+03  0.00000000000E+00 0. -1.
         21   -1    0    0  501  502 -0.00000000000E+00 -0.00000000000E+00 -0.55987679418E+03  0.55987679418E+03  0.00000000000E+00 0. -1.
         25    1    1    2    0    0 -0.26061432973E+03 -0.54838445933E+02 -0.16044452468E+03  0.33510375933E+03  0.12500000000E+03 0.  0.
         25    1    1    2    0    0  0.62913659080E+02  0.67643965606E+02 -0.20602746206E+03  0.25808167255E+03  0.12500000000E+03 0.  0.
         25    1    1    2    0    0  0.19770067065E+03 -0.12805519672E+02  0.91331831968E+02  0.25142800171E+03  0.12500000000E+03 0.  0.
</event>
<event>
 5    0  0.5474724E-005  0.3487156E+03  0.7546771E-02  0.1063143E+00
         21   -1    0    0  502  501  0.00000000000E+00  0.00000000000E+00  0.76367667680E+03  0.76367667680E+03  0.00000000000E+00 0.  1.
         21   -1    0    0  501  502 -0.00000000000E+00 -0.00000000000E+00 -0.15923306884E+03  0.15923306884E+03  0.00000000000E+00 0.  1.
         25    1    1    2    0    0  0.13773331547E+03  0.88016704694E+02  0.18830633242E+03  0.27892952752E+03  0.12500000000E+03 0.  0.
         25    1    1    2    0    0 -0.10335887966E+03 -0.20556688457E+03  0.38595431216E+03  0.46639739827E+03  0.12500000000E+03 0.  0.
         25    1    1    2    0    0 -0.34374435809E+02  0.11755017988E+03  0.30182963381E+02  0.17758281985E+03  0.12500000000E+03 0.  0.
</event>
<event>
 5    0  0.5474724E-005  0.3857334E+03  0.7546771E-02  0.1048835E+00
         21   -1    0    0  502  501  0.00000000000E+00  0.00000000000E+00  0.18617787939E+03  0.18617787939E+03  0.00000000000E+00 0.  1.
         21   -1    0    0  501  502 -0.00000000000E+00 -0.00000000000E+00 -0.79918344928E+03  0.79918344928E+03  0.00000000000E+00 0.  1.
         25    1    1    2    0    0 -0.13302250236E+03  0.15632220317E+03 -0.34083191006E+03  0.41704077529E+03  0.12500000000E+03 0.  0.
         25    1    1    2    0    0  0.32403159311E+02 -0.16215091041E+03  0.45635054020E+02  0.21225089078E+03  0.12500000000E+03 0.  0.
         25    1    1    2    0    0  0.10061934305E+03  0.58287072342E+01 -0.31780871386E+03  0.35606966261E+03  0.12500000000E+03 0.  0.
</event>
<event>
 5    0  0.5474724E-005  0.2823549E+03  0.7546771E-02  0.1094410E+00
         21   -1    0    0  502  501  0.00000000000E+00  0.00000000000E+00  0.89931871005E+02  0.89931871005E+02  0.00000000000E+00 0. -1.
         21   -1    0    0  501  502 -0.00000000000E+00 -0.00000000000E+00 -0.88649638492E+03  0.88649638492E+03  0.00000000000E+00 0. -1.
         25    1    1    2    0    0 -0.11856728415E+03 -0.62668217403E+02 -0.20037343522E+03  0.27158795976E+03  0.12500000000E+03 0.  0.
         25    1    1    2    0    0  0.72953239077E+02  0.34455222916E+02 -0.75813113427E+02  0.16697893773E+03  0.12500000000E+03 0.  0.
         25    1    1    2    0    0  0.45614045070E+02  0.28212994487E+02 -0.52037796527E+03  0.53786135844E+03  0.12500000000E+03 0.  0.
</event>
<event>
 5    0  0.5474724E-005  0.2648546E+03  0.7546771E-02  0.1104261E+00
         21   -1    0    0  502  501  0.00000000000E+00  0.00000000000E+00  0.28690191542E+03  0.28690191542E+03  0.00000000000E+00 0.  1.
         21   -1    0    0  501  502 -0.00000000000E+00 -0.00000000000E+00 -0.24450158968E+03  0.24450158968E+03  0.00000000000E+00 0.  1.
         25    1    1    2    0    0 -0.64503913774E+01 -0.11682315181E+03  0.62804293450E+02  0.18236950300E+03  0.12500000000E+03 0.  0.
         25    1    1    2    0    0  0.13556167986E+02  0.10765273289E+03 -0.10648642374E+03  0.19681778129E+03  0.12500000000E+03 0.  0.
         25    1    1    2    0    0 -0.71057766084E+01  0.91704189198E+01  0.86082456029E+02  0.15221622082E+03  0.12500000000E+03 0.  0.
</event>
<event>
 5    0  0.5474724E-005  0.3114353E+03  0.7546771E-02  0.1079660E+00
         21   -1    0    0  502  501  0.00000000000E+00  0.00000000000E+00  0.24073531866E+03  0.24073531866E+03  0.00000000000E+00 0.  1.
         21   -1    0    0  501  502 -0.00000000000E+00 -0.00000000000E+00 -0.40289878229E+03  0.40289878229E+03  0.00000000000E+00 0.  1.
         25    1    1    2    0    0 -0.17628240630E+01 -0.30533212656E+02 -0.45907246140E+02  0.13663037683E+03  0.12500000000E+03 0.  0.
         25    1    1    2    0    0  0.83991712809E+02 -0.18019006490E+03 -0.47800174501E+02  0.23965167220E+03  0.12500000000E+03 0.  0.
         25    1    1    2    0    0 -0.82228888746E+02  0.21072327755E+03 -0.68456042991E+02  0.26735205193E+03  0.12500000000E+03 0.  0.
</event>
<event>
 5    0  0.5474724E-005  0.3065700E+03  0.7546771E-02  0.1082002E+00
         21   -1    0    0  502  501  0.00000000000E+00  0.00000000000E+00  0.36422357308E+03  0.36422357308E+03  0.00000000000E+00 0. -1.
         21   -1    0    0  501  502 -0.00000000000E+00 -0.00000000000E+00 -0.25804245936E+03  0.25804245936E+03  0.00000000000E+00 0. -1.
         25    1    1    2    0    0 -0.84101466896E+01  0.36718581797E+02  0.78005859964E+02  0.15208188257E+03  0.12500000000E+03 0.  0.
         25    1    1    2    0    0 -0.12655126227E+02 -0.21048674173E+03  0.60987004286E+02  0.25260489970E+03  0.12500000000E+03 0.  0.
         25    1    1    2    0    0  0.21065272916E+02  0.17376815993E+03 -0.32811750533E+02  0.21757925016E+03  0.12500000000E+03 0.  0.
</event>
<event>
 5    0  0.5474724E-005  0.2484091E+03  0.7546771E-02  0.1114314E+00
         21   -1    0    0  502  501  0.00000000000E+00  0.00000000000E+00  0.34213388951E+03  0.34213388951E+03  0.00000000000E+00 0. -1.
         21   -1    0    0  501  502 -0.00000000000E+00 -0.00000000000E+00 -0.18035945559E+03  0.18035945559E+03  0.00000000000E+00 0. -1.
         25    1    1    2    0    0 -0.83138509703E+02 -0.95749509018E+02  0.11072143345E+03  0.20967645576E+03  0.12500000000E+03 0.  0.
         25    1    1    2    0    0  0.37792084679E+02  0.10715187385E+03 -0.26886474617E+01  0.16894376153E+03  0.12500000000E+03 0.  0.
         25    1    1    2    0    0  0.45346425024E+02 -0.11402364833E+02  0.53741647924E+02  0.14387312782E+03  0.12500000000E+03 0.  0.
</event>
<event>
 5    0  0.5474724E-005  0.2106382E+03  0.7546771E-02  0.1141062E+00
         21   -1    0    0  502  501  0.00000000000E+00  0.00000000000E+00  0.38225634992E+03  0.38225634992E+03  0.00000000000E+00 0. -1.
         21   -1    0    0  501  502 -0.00000000000E+00 -0.00000000000E+00 -0.11606992563E+03  0.11606992563E+03  0.00000000000E+00 0. -1.
         25    1    1    2    0    0 -0.11827792965E+02  0.10644685748E+02  0.15184694460E+03  0.19732131311E+03  0.12500000000E+03 0.  0.
         25    1    1    2    0    0 -0.18770132098E+02  0.37909195249E+02  0.18250033528E+02  0.13321970075E+03  0.12500000000E+03 0.  0.
         25    1    1    2    0    0  0.30597925062E+02 -0.48553880996E+02  0.96089446159E+02  0.16778526169E+03  0.12500000000E+03 0.  0.
</event>
<event>
 5    0  0.5474724E-005  0.2529460E+03  0.7546771E-02  0.1111457E+00
         21   -1    0    0  502  501  0.00000000000E+00  0.00000000000E+00  0.83033331278E+03  0.83033331278E+03  0.00000000000E+00 0. -1.
         21   -1    0    0  501  502 -0.00000000000E+00 -0.00000000000E+00 -0.77055422243E+02  0.77055422243E+02  0.00000000000E+00 0. -1.
         25    1    1    2    0    0  0.79144335525E+02 -0.53200568154E+02  0.40105067804E+03  0.43076765507E+03  0.12500000000E+03 0.  0.
         25    1    1    2    0    0 -0.24634929688E+02 -0.37839579169E+02  0.69977120996E+02  0.15020156782E+03  0.12500000000E+03 0.  0.
         25    1    1    2    0    0 -0.54509405838E+02  0.91040147324E+02  0.28225009150E+03  0.32641951213E+03  0.12500000000E+03 0.  0.
</event>
<event>
 5    0  0.5474724E-005  0.3409610E+03  0.7546771E-02  0.1066387E+00
         21   -1    0    0  502  501  0.00000000000E+00  0.00000000000E+00  0.58071245984E+02  0.58071245984E+02  0.00000000000E+00 0.  1.
         21   -1    0    0  501  502 -0.00000000000E+00 -0.00000000000E+00 -0.20019271261E+04  0.20019271261E+04  0.00000000000E+00 0.  1.
         25    1    1    2    0    0 -0.23600478162E+03 -0.11959754050E+03 -0.97676856190E+03  0.10196585959E+04  0.12500000000E+03 0.  0.
         25    1    1    2    0    0  0.15939308292E+03  0.41520249825E+02 -0.41267650019E+03  0.46158095697E+03  0.12500000000E+03 0.  0.
         25    1    1    2    0    0  0.76611698700E+02  0.78077290674E+02 -0.55441081802E+03  0.57875881923E+03  0.12500000000E+03 0.  0.
</event>
<event>
 5    0  0.5474724E-005  0.3109817E+03  0.7546771E-02  0.1079876E+00
         21   -1    0    0  502  501  0.00000000000E+00  0.00000000000E+00  0.91629718866E+02  0.91629718866E+02  0.00000000000E+00 0. -1.
         21   -1    0    0  501  502 -0.00000000000E+00 -0.00000000000E+00 -0.10554390974E+04  0.10554390974E+04  0.00000000000E+00 0. -1.
         25    1    1    2    0    0  0.11958176432E+03  0.71249143768E+02 -0.54018548668E+03  0.57166563555E+03  0.12500000000E+03 0.  0.
         25    1    1    2    0    0 -0.53697159863E+02  0.62103242393E+02 -0.32446712638E+03  0.35727316412E+03  0.12500000000E+03 0.  0.
         25    1    1    2    0    0 -0.65884604457E+02 -0.13335238616E+03 -0.99156765443E+02  0.21813001658E+03  0.12500000000E+03 0.  0.
</event>
<event>
 5    0  0.5474724E-005  0.3093510E+03  0.7546771E-02  0.1080657E+00
         21   -1    0    0  502  501  0.00000000000E+00  0.00000000000E+00  0.97157546507E+03  0.97157546507E+03  0.00000000000E+00 0. -1.
         21   -1    0    0  501  502 -0.00000000000E+00 -0.00000000000E+00 -0.98497770924E+02  0.98497770924E+02  0.00000000000E+00 0. -1.
         25    1    1    2    0    0 -0.10821451804E+03  0.32204861720E+02  0.36541068059E+03  0.40236488481E+03  0.12500000000E+03 0.  0.
         25    1    1    2    0    0  0.16304509412E+03  0.11265073306E+02  0.47940682182E+03  0.52169579775E+03  0.12500000000E+03 0.  0.
         25    1    1    2    0    0 -0.54830576072E+02 -0.43469935026E+02  0.28260191739E+02  0.14601255344E+03  0.12500000000E+03 0.  0.
</event>
<event>
 5    0  0.5474724E-005  0.3327046E+03  0.7546771E-02  0.1069946E+00
         21   -1    0    0  502  501  0.00000000000E+00  0.00000000000E+00  0.83858416753E+02  0.83858416753E+02  0.00000000000E+00 0.  1.
         21   -1    0    0  501  502 -0.00000000000E+00 -0.00000000000E+00 -0.13199905551E+04  0.13199905551E+04  0.00000000000E+00 0.  1.
         25    1    1    2    0    0  0.81756627271E+02 -0.13311178657E+03 -0.21458615100E+03  0.29338559955E+03  0.12500000000E+03 0.  0.
         25    1    1    2    0    0 -0.14625426809E+03 -0.51479039360E+02 -0.54890769977E+03  0.58392213975E+03  0.12500000000E+03 0.  0.
         25    1    1    2    0    0  0.64497640814E+02  0.18459082593E+03 -0.47263828759E+03  0.52654123256E+03  0.12500000000E+03 0.  0.
</event>
<event>
 5    0  0.6260966E-005  0.3076523E+03  0.7546771E-02  0.1081477E+00
         21   -1    0    0  502  501  0.00000000000E+00  0.00000000000E+00  0.62197219554E+03  0.62197219554E+03  0.00000000000E+00 0.  1.
         21   -1    0    0  501  502 -0.00000000000E+00 -0.00000000000E+00 -0.15217715776E+03  0.15217715776E+03  0.00000000000E+00 0.  1.
         25    1    1    2    0    0  0.96473223548E+02  0.39628643700E+01  0.33146529750E+03  0.36717438718E+03  0.12500000000E+03 0.  0.
         25    1    1    2    0    0 -0.16173525692E+03  0.49533655857E+02  0.14588602830E+03  0.25596798559E+03  0.12500000000E+03 0.  0.
         25    1    1    2    0    0  0.65262033376E+02 -0.53496520227E+02 -0.75562880252E+01  0.15100698052E+03  0.12500000000E+03 0.  0.
</event>
<event>
 5    0  0.5474724E-005  0.2670328E+03  0.7546771E-02  0.1102990E+00
         21   -1    0    0  502  501  0.00000000000E+00  0.00000000000E+00  0.95611697119E+03  0.95611697119E+03  0.00000000000E+00 0.  1.
         21   -1    0    0  501  502 -0.00000000000E+00 -0.00000000000E+00 -0.74579257608E+02  0.74579257608E+02  0.00000000000E+00 0.  1.
         25    1    1    2    0    0 -0.73551203462E+02  0.25570373010E+02  0.18292072400E+03  0.23483742200E+03  0.12500000000E+03 0.  0.
         25    1    1    2    0    0 -0.52489185707E+02  0.92837766986E+02  0.35827096559E+03  0.39415358730E+03  0.12500000000E+03 0.  0.
         25    1    1    2    0    0  0.12604038917E+03 -0.11840814000E+03  0.34034602400E+03  0.40170521949E+03  0.12500000000E+03 0.  0.
</event>
<event>
 5    0  0.5474724E-005  0.3101105E+03  0.7546771E-02  0.1080293E+00
         21   -1    0    0  502  501  0.00000000000E+00  0.00000000000E+00  0.17848522398E+03  0.17848522398E+03  0.00000000000E+00 0.  1.
         21   -1    0    0  501  502 -0.00000000000E+00 -0.00000000000E+00 -0.53880385922E+03  0.53880385922E+03  0.00000000000E+00 0.  1.
         25    1    1    2    0    0 -0.41314872710E+02  0.14131083704E+03 -0.28400434489E+03  0.34345180053E+03  0.12500000000E+03 0.  0.
         25    1    1    2    0    0  0.95794436797E+01  0.27603735303E+02  0.36193999179E+02  0.13337442604E+03  0.12500000000E+03 0.  0.
         25    1    1    2    0    0  0.31735429030E+02 -0.16891457234E+03 -0.11250828953E+03  0.24046285663E+03  0.12500000000E+03 0.  0.
</event>
<event>
 5    0  0.5474724E-005  0.2475484E+03  0.7546771E-02  0.1114864E+00
         21   -1    0    0  502  501  0.00000000000E+00  0.00000000000E+00  0.20811965873E+03  0.20811965873E+03  0.00000000000E+00 0. -1.
         21   -1    0    0  501  502 -0.00000000000E+00 -0.00000000000E+00 -0.29444707449E+03  0.29444707449E+03  0.00000000000E+00 0. -1.
         25    1    1    2    0    0  0.55006007781E+02  0.37016120630E+02 -0.33341677257E+02  0.14537029105E+03  0.12500000000E+03 0.  0.
         25    1    1    2    0    0  0.34401484760E+02 -0.10548688871E+03 -0.82480590282E+02  0.18638399507E+03  0.12500000000E+03 0.  0.
         25    1    1    2    0    0 -0.89407492541E+02  0.68470768081E+02  0.29494851773E+02  0.17081244710E+03  0.12500000000E+03 0.  0.
</event>
<event>
 5    0  0.5474724E-005  0.3747983E+03  0.7546771E-02  0.1052873E+00
         21   -1    0    0  502  501  0.00000000000E+00  0.00000000000E+00  0.21707171707E+03  0.21707171707E+03  0.00000000000E+00 0. -1.
         21   -1    0    0  501  502 -0.00000000000E+00 -0.00000000000E+00 -0.64713067556E+03  0.64713067556E+03  0.00000000000E+00 0. -1.
         25    1    1    2    0    0 -0.22755653696E+02 -0.34677876090E+02 -0.18737267406E+03  0.22902815078E+03  0.12500000000E+03 0.  0.
         25    1    1    2    0    0  0.17713114411E+03 -0.12883397521E+03  0.37299286325E+02  0.25493111254E+03  0.12500000000E+03 0.  0.
         25    1    1    2    0    0 -0.15437549041E+03  0.16351185130E+03 -0.27998557075E+03  0.38024312931E+03  0.12500000000E+03 0.  0.
</event>
<event>
 5    0  0.6071962E-005  0.3397233E+03  0.7546771E-02  0.1066914E+00
         21   -1    0    0  502  501  0.00000000000E+00  0.00000000000E+00  0.11613916341E+03  0.11613916341E+03  0.00000000000E+00 0.  1.
         21   -1    0    0  501  502 -0.00000000000E+00 -0.00000000000E+00 -0.99373795448E+03  0.99373795448E+03  0.00000000000E+00 0.  1.
         25    1    1    2    0    0 -0.18541215905E+03 -0.78590777768E+02 -0.45657433051E+03  0.51443104334E+03  0.12500000000E+03 0.  0.
         25    1    1    2    0    0  0.16160496442E+03 -0.51847520800E+02 -0.33045054974E+03  0.39195267031E+03  0.12500000000E+03 0.  0.
         25    1    1    2    0    0  0.23807194626E+02  0.13043829857E+03 -0.90573910819E+02  0.20349340424E+03  0.12500000000E+03 0.  0.
</event>
<event>
 5    0  0.5474724E-005  0.3395382E+03  0.7546771E-02  0.1066993E+00
         21   -1    0    0  502  501  0.00000000000E+00  0.00000000000E+00  0.11217263240E+03  0.11217263240E+03  0.00000000000E+00 0. -1.
         21   -1    0    0  501  502 -0.00000000000E+00 -0.00000000000E+00 -0.10277567467E+04  0.10277567467E+04  0.00000000000E+00 0. -1.
         25    1    1    2    0    0 -0.12791342543E+03 -0.13094212474E+03 -0.20772073818E+03  0.30377720373E+03  0.12500000000E+03 0.  0.
         25    1    1    2    0    0  0.70434648619E+00  0.67153857570E+02 -0.48241642767E+02  0.14987459020E+03  0.12500000000E+03 0.  0.
         25    1    1    2    0    0  0.12720907894E+03  0.63788267168E+02 -0.65962173331E+03  0.68627758513E+03  0.12500000000E+03 0.  0.
</event>
<event>
 5    0  0.5474724E-005  0.2822122E+03  0.7546771E-02  0.1094487E+00
         21   -1    0    0  502  501  0.00000000000E+00  0.00000000000E+00  0.11138535852E+03  0.11138535852E+03  0.00000000000E+00 0.  1.
         21   -1    0    0  501  502 -0.00000000000E+00 -0.00000000000E+00 -0.71502846959E+03  0.71502846959E+03  0.00000000000E+00 0.  1.
         25    1    1    2    0    0  0.24921257273E+02  0.88599611515E+02 -0.41795937194E+03  0.44585423271E+03  0.12500000000E+03 0.  0.
         25    1    1    2    0    0 -0.77764798258E+02 -0.12338051750E+03 -0.10863107238E+03  0.22067130722E+03  0.12500000000E+03 0.  0.
         25    1    1    2    0    0  0.52843540984E+02  0.34780905984E+02 -0.77052666747E+02  0.15988828818E+03  0.12500000000E+03 0.  0.
</event>
<event>
 5    0  0.5539753E-005  0.2965882E+03  0.7546771E-02  0.1086959E+00
         21   -1    0    0  502  501  0.00000000000E+00  0.00000000000E+00  0.48952988374E+03  0.48952988374E+03  0.00000000000E+00 0.  1.
         21   -1    0    0  501  502 -0.00000000000E+00 -0.00000000000E+00 -0.17969188131E+03  0.17969188131E+03  0.00000000000E+00 0.  1.
         25    1    1    2    0    0 -0.28309083760E+02 -0.59224146637E+02 -0.29801579685E+02  0.14429843353E+03  0.12500000000E+03 0.  0.
         25    1    1    2    0    0  0.78705896691E+01  0.96863208401E+01 -0.31617458952E+02  0.12953931721E+03  0.12500000000E+03 0.  0.
         25    1    1    2    0    0  0.20438494091E+02  0.49537825797E+02  0.37125704107E+03  0.39538401431E+03  0.12500000000E+03 0.  0.
</event>
<event>
 5    0  0.5474724E-005  0.3304772E+03  0.7546771E-02  0.1070926E+00
         21   -1    0    0  502  501  0.00000000000E+00  0.00000000000E+00  0.19888305484E+03  0.19888305484E+03  0.00000000000E+00 0.  1.
         21   -1    0    0  501  502 -0.00000000000E+00 -0.00000000000E+00 -0.54914258254E+03  0.54914258254E+03  0.00000000000E+00 0.  1.
         25    1    1    2    0    0 -0.18878778291E+03  0.45413550021E+02 -0.21678438132E+03  0.31673914423E+03  0.12500000000E+03 0.  0.
         25    1    1    2    0    0  0.18633367783E+03  0.69518553245E+02 -0.42789515913E+02  0.23876559930E+03  0.12500000000E+03 0.  0.
         25    1    1    2    0    0  0.24541050809E+01 -0.11493210327E+03 -0.90685630467E+02  0.19252089384E+03  0.12500000000E+03 0.  0.
</event>
<event>
 5    0  0.7234651E-005  0.2977181E+03  0.7546771E-02  0.1086387E+00
         21   -1    0    0  502  501  0.00000000000E+00  0.00000000000E+00  0.66546567576E+03  0.66546567576E+03  0.00000000000E+00 0. -1.
         21   -1    0    0  501  502 -0.00000000000E+00 -0.00000000000E+00 -0.13319406932E+03  0.13319406932E+03  0.00000000000E+00 0. -1.
         25    1    1    2    0    0 -0.28587741014E+02 -0.86197103567E+02  0.32824957894E+03  0.36279468804E+03  0.12500000000E+03 0.  0.
         25    1    1    2    0    0  0.11419389909E+03 -0.39139032412E+02  0.15584798661E+03  0.23342173288E+03  0.12500000000E+03 0.  0.
         25    1    1    2    0    0 -0.85606158081E+02  0.12533613598E+03  0.48174040889E+02  0.20244332417E+03  0.12500000000E+03 0.  0.
</event>
<event>
 5    0  0.5474724E-005  0.2721548E+03  0.7546771E-02  0.1100053E+00
         21   -1    0    0  502  501  0.00000000000E+00  0.00000000000E+00  0.19375170690E+03  0.19375170690E+03  0.00000000000E+00 0. -1.
         21   -1    0    0  501  502 -0.00000000000E+00 -0.00000000000E+00 -0.38228418356E+03  0.38228418356E+03  0.00000000000E+00 0. -1.
         25    1    1    2    0    0 -0.11088483033E+03 -0.39678041247E+02 -0.12831630320E+03  0.21438252313E+03  0.12500000000E+03 0.  0.
         25    1    1    2    0    0  0.64168347621E+02  0.40922891992E+01  0.82552718720E+02  0.16301618029E+03  0.12500000000E+03 0.  0.
         25    1    1    2    0    0  0.46716482704E+02  0.35585752048E+02 -0.14276889218E+03  0.19863718705E+03  0.12500000000E+03 0.  0.
</event>
<event>
 5    0  0.5474724E-005  0.3636373E+03  0.7546771E-02  0.1057153E+00
         21   -1    0    0  502  501  0.00000000000E+00  0.00000000000E+00  0.56261698560E+03  0.56261698560E+03  0.00000000000E+00 0. -1.
         21   -1    0    0  501  502 -0.00000000000E+00 -0.00000000000E+00 -0.23503035585E+03  0.23503035585E+03  0.00000000000E+00 0. -1.
         25    1    1    2    0    0 -0.55304880976E+02 -0.13076390518E+02 -0.15685751169E+01  0.13732109189E+03  0.12500000000E+03 0.  0.
         25    1    1    2    0    0  0.13386844271E+03  0.94779105146E+02  0.42057493062E+03  0.46841446497E+03  0.12500000000E+03 0.  0.
         25    1    1    2    0    0 -0.78563561730E+02 -0.81702714629E+02 -0.91419725759E+02  0.19191178460E+03  0.12500000000E+03 0.  0.
</event>
<event>
 5    0  0.6373088E-005  0.3079397E+03  0.7546771E-02  0.1081338E+00
         21   -1    0    0  502  501  0.00000000000E+00  0.00000000000E+00  0.29138899216E+03  0.29138899216E+03  0.00000000000E+00 0.  1.
         21   -1    0    0  501  502 -0.00000000000E+00 -0.00000000000E+00 -0.32543055472E+03  0.32543055472E+03  0.00000000000E+00 0.  1.
         25    1    1    2    0    0  0.17800369771E+03 -0.61454288371E+02 -0.10362125502E+03  0.24864494857E+03  0.12500000000E+03 0.  0.
         25    1    1    2    0    0 -0.92300457980E+02 -0.50347181041E+02  0.75065200042E+02  0.17976094526E+03  0.12500000000E+03 0.  0.
         25    1    1    2    0    0 -0.85703239734E+02  0.11180146941E+03 -0.54855075838E+01  0.18841365305E+03  0.12500000000E+03 0.  0.
</event>
<event>
 5    0  0.5474724E-005  0.2661199E+03  0.7546771E-02  0.1103521E+00
         21   -1    0    0  502  501  0.00000000000E+00  0.00000000000E+00  0.14878990472E+03  0.14878990472E+03  0.00000000000E+00 0. -1.
         21   -1    0    0  501  502 -0.00000000000E+00 -0.00000000000E+00 -0.47597191814E+03  0.47597191814E+03  0.00000000000E+00 0. -1.
         25    1    1    2    0    0  0.60184671188E+02  0.17715937472E+02 -0.12451751340E+03  0.18725827146E+03  0.12500000000E+03 0.  0.
         25    1    1    2    0    0 -0.15936664793E+03 -0.76573065595E+02 -0.12995662497E+03  0.25253690269E+03  0.12500000000E+03 0.  0.
         25    1    1    2    0    0  0.99181976742E+02  0.58857128123E+02 -0.72707875040E+02  0.18496664871E+03  0.12500000000E+03 0.  0.
</event>
<event>
 5    0  0.5474724E-005  0.4162878E+03  0.7546771E-02  0.1038281E+00
         21   -1    0    0  502  501  0.00000000000E+00  0.00000000000E+00  0.17909629304E+03  0.17909629304E+03  0.00000000000E+00 0.  1.
         21   -1    0    0  501  502 -0.00000000000E+00 -0.00000000000E+00 -0.96761090101E+03  0.96761090101E+03  0.00000000000E+00 0.  1.
         25    1    1    2    0    0  0.62161147452E+02  0.14026246393E+03 -0.58345183928E+03  0.61609951777E+03  0.12500000000E+03 0.  0.
         25    1    1    2    0    0 -0.21242266035E+03 -0.15750983276E+03 -0.13619999979E+03  0.32265798300E+03  0.12500000000E+03 0.  0.
         25    1    1    2    0    0  0.15026151290E+03  0.17247368830E+02 -0.68862768899E+02  0.20794969327E+03  0.12500000000E+03 0.  0.
</event>
<event>
 5    0  0.5474724E-005  0.4844439E+03  0.7546771E-02  0.1017921E+00
         21   -1    0    0  502  501  0.00000000000E+00  0.00000000000E+00  0.17251149765E+03  0.17251149765E+03  0.00000000000E+00 0. -1.
         21   -1    0    0  501  502 -0.00000000000E+00 -0.00000000000E+00 -0.13604072195E+04  0.13604072195E+04  0.00000000000E+00 0. -1.
         25    1    1    2    0    0  0.15891648978E+03  0.17255487685E+03 -0.21685901997E+02  0.26669254694E+03  0.12500000000E+03 0.  0.
         25    1    1    2    0    0 -0.88740970447E+02  0.65543569623E+02 -0.19762307946E+03  0.25855521826E+03  0.12500000000E+03 0.  0.
         25    1    1    2    0    0 -0.70175519331E+02 -0.23809844648E+03 -0.96858674043E+03  0.10076709520E+04  0.12500000000E+03 0.  0.
</event>
<event>
 5    0  0.5474724E-005  0.2620618E+03  0.7546771E-02  0.1105911E+00
         21   -1    0    0  502  501  0.00000000000E+00  0.00000000000E+00  0.12108398305E+04  0.12108398305E+04  0.00000000000E+00 0. -1.
         21   -1    0    0  501  502 -0.00000000000E+00 -0.00000000000E+00 -0.56717963906E+02  0.56717963906E+02  0.00000000000E+00 0. -1.
         25    1    1    2    0    0  0.65303988204E+02 -0.62238488231E+02  0.49120373108E+03  0.51482457762E+03  0.12500000000E+03 0.  0.
         25    1    1    2    0    0 -0.52033753960E+02  0.92780043748E+02  0.14534483748E+03  0.21923907009E+03  0.12500000000E+03 0.  0.
         25    1    1    2    0    0 -0.13270234245E+02 -0.30541555516E+02  0.51757329800E+03  0.53349414667E+03  0.12500000000E+03 0.  0.
</event>
<event>
 5    0  0.5474724E-005  0.2874267E+03  0.7546771E-02  0.1091700E+00
         21   -1    0    0  502  501  0.00000000000E+00  0.00000000000E+00  0.19582916472E+04  0.19582916472E+04  0.00000000000E+00 0. -1.
         21   -1    0    0  501  502 -0.00000000000E+00 -0.00000000000E+00 -0.42186810853E+02  0.42186810853E+02  0.00000000000E+00 0. -1.
         25    1    1    2    0    0  0.13288168792E+03 -0.77729172019E+02  0.73595550507E+03  0.76220395735E+03  0.12500000000E+03 0.  0.
         25    1    1    2    0    0 -0.53364119106E+02  0.68296423131E+02  0.96479943928E+03  0.97671648325E+03  0.12500000000E+03 0.  0.
         25    1    1    2    0    0 -0.79517568819E+02  0.94327488874E+01  0.21534989196E+03  0.26155801741E+03  0.12500000000E+03 0.  0.
</event>
<event>
 5    0  0.5474724E-005  0.2748771E+03  0.7546771E-02  0.1098520E+00
         21   -1    0    0  502  501  0.00000000000E+00  0.00000000000E+00  0.20771653740E+03  0.20771653740E+03  0.00000000000E+00 0.  1.
         21   -1    0    0  501  502 -0.00000000000E+00 -0.00000000000E+00 -0.36375243290E+03  0.36375243290E+03  0.00000000000E+00 0.  1.
         25    1    1    2    0    0  0.11291872152E+03 -0.49250441795E+02 -0.14799527197E+03  0.22957317833E+03  0.12500000000E+03 0.  0.
         25    1    1    2    0    0 -0.52343347512E+02 -0.62612470547E+02 -0.52230740688E+02  0.15815561251E+03  0.12500000000E+03 0.  0.
         25    1    1    2    0    0 -0.60575374005E+02  0.11186291234E+03  0.44190117157E+02  0.18374017946E+03  0.12500000000E+03 0.  0.
</event>
<event>
 5    0  0.5474724E-005  0.4045719E+03  0.7546771E-02  0.1042208E+00
         21   -1    0    0  502  501  0.00000000000E+00  0.00000000000E+00  0.36584475790E+03  0.36584475790E+03  0.00000000000E+00 0.  1.
         21   -1    0    0  501  502 -0.00000000000E+00 -0.00000000000E+00 -0.44739852959E+03  0.44739852959E+03  0.00000000000E+00 0.  1.
         25    1    1    2    0    0 -0.99832545043E+02  0.22885735162E+03 -0.23778978188E+03  0.36675769223E+03  0.12500000000E+03 0.  0.
         25    1    1    2    0    0  0.19433139112E+02 -0.22100638213E+03  0.40281024633E+02  0.25781588156E+03  0.12500000000E+03 0.  0.
         25    1    1    2    0    0  0.80399405931E+02 -0.78509694935E+01  0.11595498556E+03  0.18866971371E+03  0.12500000000E+03 0.  0.
</event>
<event>
 5    0  0.5474724E-005  0.4659434E+03  0.7546771E-02  0.1023071E+00
         21   -1    0    0  502  501  0.00000000000E+00  0.00000000000E+00  0.27627065690E+03  0.27627065690E+03  0.00000000000E+00 0.  1.
         21   -1    0    0  501  502 -0.00000000000E+00 -0.00000000000E+00 -0.78583533642E+03  0.78583533642E+03  0.00000000000E+00 0.  1.
         25    1    1    2    0    0  0.26418018549E+03 -0.10541889077E+03  0.43278353860E+01  0.31072180982E+03  0.12500000000E+03 0.  0.
         25    1    1    2    0    0  0.70215000588E+02 -0.56858522784E+02 -0.17313551237E+03  0.23187053190E+03  0.12500000000E+03 0.  0.
         25    1    1    2    0    0 -0.33439518608E+03  0.16227741356E+03 -0.34075700253E+03  0.51951365160E+03  0.12500000000E+03 0.  0.
</event>
<event>
 5    0  0.5474724E-005  0.2943135E+03  0.7546771E-02  0.1088118E+00
         21   -1    0    0  502  501  0.00000000000E+00  0.00000000000E+00  0.17352460336E+04  0.17352460336E+04  0.00000000000E+00 0.  1.
         21   -1    0    0  501  502 -0.00000000000E+00 -0.00000000000E+00 -0.49918239016E+02  0.49918239016E+02  0.00000000000E+00 0.  1.
         25    1    1    2    0    0  0.86714480814E+02 -0.59339747906E+02  0.80426108229E+03  0.82067136867E+03  0.12500000000E+03 0.  0.
         25    1    1    2    0    0 -0.28392485144E+02 -0.99148077922E+02  0.23768147418E+03  0.28766987631E+03  0.12500000000E+03 0.  0.
         25    1    1    2    0    0 -0.58321995670E+02  0.15848782583E+03  0.64338523808E+03  0.67682302761E+03  0.12500000000E+03 0.  0.
</event>
<event>
 5    0  0.5474724E-005  0.3983527E+03  0.7546771E-02  0.1044352E+00
         21   -1    0    0  502  501  0.00000000000E+00  0.00000000000E+00  0.13699081994E+03  0.13699081994E+03  0.00000000000E+00 0. -1.
         21   -1    0    0  501  502 -0.00000000000E+00 -0.00000000000E+00 -0.11583612142E+04  0.11583612142E+04  0.00000000000E+00 0. -1.
         25    1    1    2    0    0  0.12229207819E+03 -0.28169989078E+03 -0.32161059447E+03  0.46191834271E+03  0.12500000000E+03 0.  0.
         25    1    1    2    0    0 -0.16217764564E+03  0.18504045814E+03 -0.33583722812E+03  0.43468747818E+03  0.12500000000E+03 0.  0.
         25    1    1    2    0    0  0.39885567441E+02  0.96659432642E+02 -0.36392257169E+03  0.39874621326E+03  0.12500000000E+03 0.  0.
</event>
<event>
 5    0  0.5474724E-005  0.2619081E+03  0.7546771E-02  0.1106002E+00
         21   -1    0    0  502  501  0.00000000000E+00  0.00000000000E+00  0.56658634192E+03  0.56658634192E+03  0.00000000000E+00 0. -1.
         21   -1    0    0  501  502 -0.00000000000E+00 -0.00000000000E+00 -0.12106870246E+03  0.12106870246E+03  0.00000000000E+00 0. -1.
         25    1    1    2    0    0 -0.15480930978E+02 -0.10413647819E+02  0.49103482905E+01  0.12648009648E+03  0.12500000000E+03 0.  0.
         25    1    1    2    0    0 -0.70708063332E+02 -0.46527529910E+02  0.92230438382E+02  0.17690645840E+03  0.12500000000E+03 0.  0.
         25    1    1    2    0    0  0.86188994310E+02  0.56941177729E+02  0.34837685280E+03  0.38426848950E+03  0.12500000000E+03 0.  0.
</event>
<event>
 5    0  0.5474724E-005  0.3322721E+03  0.7546771E-02  0.1070136E+00
         21   -1    0    0  502  501  0.00000000000E+00  0.00000000000E+00  0.14501348774E+04  0.14501348774E+04  0.00000000000E+00 0.  1.
         21   -1    0    0  501  502 -0.00000000000E+00 -0.00000000000E+00 -0.76134106358E+02  0.76134106358E+02  0.00000000000E+00 0.  1.
         25    1    1    2    0    0  0.16777840690E+02  0.25230447578E+03  0.44990846475E+03  0.53101946394E+03  0.12500000000E+03 0.  0.
         25    1    1    2    0    0  0.33764609040E+01 -0.18576107355E+03  0.61993611569E+03  0.65913910859E+03  0.12500000000E+03 0.  0.
         25    1    1    2    0    0 -0.20154301594E+02 -0.66543402224E+02  0.30415619063E+03  0.33611041125E+03  0.12500000000E+03 0.  0.
</event>
<event>
 5    0  0.5474724E-005  0.3246645E+03  0.7546771E-02  0.1073522E+00
         21   -1    0    0  502  501  0.00000000000E+00  0.00000000000E+00  0.11099639932E+03  0.11099639932E+03  0.00000000000E+00 0.  1.
         21   -1    0    0  501  502 -0.00000000000E+00 -0.00000000000E+00 -0.94964395715E+03  0.94964395715E+03  0.00000000000E+00 0.  1.
         25    1    1    2    0    0 -0.43402205481E+02  0.14511948234E+03 -0.24996469389E+03  0.31788482787E+03  0.12500000000E+03 0.  0.
         25    1    1    2    0    0 -0.10169189803E+03 -0.76825433605E+02 -0.48018015110E+03  0.51229031504E+03  0.12500000000E+03 0.  0.
         25    1    1    2    0    0  0.14509410351E+03 -0.68294048738E+02 -0.10850271284E+03  0.23046521356E+03  0.12500000000E+03 0.  0.
</event>
<event>
 5    0  0.5738108E-005  0.5627652E+03  0.7546771E-02  0.9985817E-01
         21   -1    0    0  502  501  0.00000000000E+00  0.00000000000E+00  0.28946917393E+03  0.28946917393E+03  0.00000000000E+00 0.  1.
         21   -1    0    0  501  502 -0.00000000000E+00 -0.00000000000E+00 -0.10940876654E+04  0.10940876654E+04  0.00000000000E+00 0.  1.
         25    1    1    2    0    0 -0.20815344064E+03  0.24419652005E+03 -0.55948711194E+02  0.34887684581E+03  0.12500000000E+03 0.  0.
         25    1    1    2    0    0 -0.39067746734E+02 -0.71129525609E+02 -0.68609849925E+03  0.70209817613E+03  0.12500000000E+03 0.  0.
         25    1    1    2    0    0  0.24722118738E+03 -0.17306699444E+03 -0.62571281041E+02  0.33258181740E+03  0.12500000000E+03 0.  0.
</event>
<event>
 5    0  0.5474724E-005  0.2042431E+03  0.7546771E-02  0.1146208E+00
         21   -1    0    0  502  501  0.00000000000E+00  0.00000000000E+00  0.33093329769E+02  0.33093329769E+02  0.00000000000E+00 0. -1.
         21   -1    0    0  501  502 -0.00000000000E+00 -0.00000000000E+00 -0.12605330813E+04  0.12605330813E+04  0.00000000000E+00 0. -1.
         25    1    1    2    0    0  0.39016146983E+01  0.23108327217E+02 -0.34332580641E+03  0.36612405920E+03  0.12500000000E+03 0.  0.
         25    1    1    2    0    0 -0.45034901065E+02 -0.40265804832E+02 -0.33601628690E+03  0.36356763115E+03  0.12500000000E+03 0.  0.
         25    1    1    2    0    0  0.41133286367E+02  0.17157477615E+02 -0.54809765827E+03  0.56393472076E+03  0.12500000000E+03 0.  0.
</event>
<event>
 5    0  0.5474724E-005  0.3210461E+03  0.7546771E-02  0.1075169E+00
         21   -1    0    0  502  501  0.00000000000E+00  0.00000000000E+00  0.27362593944E+04  0.27362593944E+04  0.00000000000E+00 0. -1.
         21   -1    0    0  501  502 -0.00000000000E+00 -0.00000000000E+00 -0.37668442760E+02  0.37668442760E+02  0.00000000000E+00 0. -1.
         25    1    1    2    0    0  0.94350216548E+02  0.74799750742E+02  0.36433307196E+03  0.40355985107E+03  0.12500000000E+03 0.  0.
         25    1    1    2    0    0  0.42863889782E+01 -0.80176052814E+02  0.19320671181E+04  0.19377706059E+04  0.12500000000E+03 0.  0.
         25    1    1    2    0    0 -0.98636605526E+02  0.53763020721E+01  0.40219076161E+03  0.43259738014E+03  0.12500000000E+03 0.  0.
</event>
<event>
 5    0  0.5474724E-005  0.2863669E+03  0.7546771E-02  0.1092261E+00
         21   -1    0    0  502  501  0.00000000000E+00  0.00000000000E+00  0.58670883345E+02  0.58670883345E+02  0.00000000000E+00 0. -1.
         21   -1    0    0  501  502 -0.00000000000E+00 -0.00000000000E+00 -0.13977287303E+04  0.13977287303E+04  0.00000000000E+00 0. -1.
         25    1    1    2    0    0  0.51102320302E+02 -0.19754377897E+01 -0.67944954562E+02  0.15118487472E+03  0.12500000000E+03 0.  0.
         25    1    1    2    0    0 -0.55740179745E+02  0.69228410978E+02 -0.60600266019E+03  0.62511100189E+03  0.12500000000E+03 0.  0.
         25    1    1    2    0    0  0.46378594432E+01 -0.67252973188E+02 -0.66511023216E+03  0.68010373699E+03  0.12500000000E+03 0.  0.
</event>
<event>
 5    0  0.5474724E-005  0.2292322E+03  0.7546771E-02  0.1127181E+00
         21   -1    0    0  502  501  0.00000000000E+00  0.00000000000E+00  0.21018780853E+03  0.21018780853E+03  0.00000000000E+00 0.  1.
         21   -1    0    0  501  502 -0.00000000000E+00 -0.00000000000E+00 -0.25000207870E+03  0.25000207870E+03  0.00000000000E+00 0.  1.
         25    1    1    2    0    0  0.88330889349E+02 -0.56425531692E+02  0.81778610828E+01  0.16333420968E+03  0.12500000000E+03 0.  0.
         25    1    1    2    0    0 -0.78392907430E+02  0.46614021774E+02  0.16311359619E+02  0.15559362266E+03  0.12500000000E+03 0.  0.
         25    1    1    2    0    0 -0.99379819194E+01  0.98115099186E+01 -0.64303490879E+02  0.14126205489E+03  0.12500000000E+03 0.  0.
</event>
<event>
 5    0  0.5474724E-005  0.3686041E+03  0.7546771E-02  0.1055228E+00
         21   -1    0    0  502  501  0.00000000000E+00  0.00000000000E+00  0.38494122314E+03  0.38494122314E+03  0.00000000000E+00 0.  1.
         21   -1    0    0  501  502 -0.00000000000E+00 -0.00000000000E+00 -0.35296024834E+03  0.35296024834E+03  0.00000000000E+00 0.  1.
         25    1    1    2    0    0  0.22718191254E+02 -0.67778717311E+02 -0.22954874998E+03  0.27097545895E+03  0.12500000000E+03 0.  0.
         25    1    1    2    0    0 -0.10550113812E+03 -0.42853970844E+02  0.33373297023E+02  0.17235350277E+03  0.12500000000E+03 0.  0.
         25    1    1    2    0    0  0.82782946871E+02  0.11063268816E+03  0.22815642776E+03  0.29457250976E+03  0.12500000000E+03 0.  0.
</event>
<event>
 5    0  0.5474724E-005  0.3009735E+03  0.7546771E-02  0.1084755E+00
         21   -1    0    0  502  501  0.00000000000E+00  0.00000000000E+00  0.44665636306E+03  0.44665636306E+03  0.00000000000E+00 0. -1.
         21   -1    0    0  501  502 -0.00000000000E+00 -0.00000000000E+00 -0.20280707086E+03  0.20280707086E+03  0.00000000000E+00 0. -1.
         25    1    1    2    0    0  0.12933208176E+03  0.11495032032E+03  0.15671151699E+02  0.21403492357E+03  0.12500000000E+03 0.  0.
         25    1    1    2    0    0 -0.97732741359E+02 -0.15330481905E+03  0.78488186518E+02  0.23417824771E+03  0.12500000000E+03 0.  0.
         25    1    1    2    0    0 -0.31599340398E+02  0.38354498736E+02  0.14968995399E+03  0.20125026264E+03  0.12500000000E+03 0.  0.
</event>
<event>
 5    0  0.5474724E-005  0.2674084E+03  0.7546771E-02  0.1102772E+00
         21   -1    0    0  502  501  0.00000000000E+00  0.00000000000E+00  0.88947390040E+03  0.88947390040E+03  0.00000000000E+00 0.  1.
         21   -1    0    0  501  502 -0.00000000000E+00 -0.00000000000E+00 -0.80392771759E+02  0.80392771759E+02  0.00000000000E+00 0.  1.
         25    1    1    2    0    0 -0.34038716073E+02  0.44682300175E+02  0.24381816630E+03  0.27969168804E+03  0.12500000000E+03 0.  0.
         25    1    1    2    0    0 -0.98378183751E+02  0.59554748000E+02  0.35286039082E+03  0.39161267913E+03  0.12500000000E+03 0.  0.
         25    1    1    2    0    0  0.13241689982E+03 -0.10423704818E+03  0.21240257153E+03  0.29856230500E+03  0.12500000000E+03 0.  0.
</event>
<event>
 5    0  0.5474724E-005  0.5343306E+03  0.7546771E-02  0.1005187E+00
         21   -1    0    0  502  501  0.00000000000E+00  0.00000000000E+00  0.58095622679E+03  0.58095622679E+03  0.00000000000E+00 0. -1.
         21   -1    0    0  501  502 -0.00000000000E+00 -0.00000000000E+00 -0.49144695052E+03  0.49144695052E+03  0.00000000000E+00 0. -1.
         25    1    1    2    0    0 -0.14816030972E+03  0.16900384794E+03  0.13517506457E+03  0.29053584302E+03  0.12500000000E+03 0.  0.
         25    1    1    2    0    0  0.16481988132E+02  0.24497223140E+03 -0.15592224283E+03  0.31657510310E+03  0.12500000000E+03 0.  0.
         25    1    1    2    0    0  0.13167832159E+03 -0.41397607934E+03  0.11025645453E+03  0.46529223119E+03  0.12500000000E+03 0.  0.
</event>
<event>
 5    0  0.5474724E-005  0.3240078E+03  0.7546771E-02  0.1073819E+00
         21   -1    0    0  502  501  0.00000000000E+00  0.00000000000E+00  0.21150891714E+03  0.21150891714E+03  0.00000000000E+00 0. -1.
         21   -1    0    0  501  502 -0.00000000000E+00 -0.00000000000E+00 -0.49634341488E+03  0.49634341488E+03  0.00000000000E+00 0. -1.
         25    1    1    2    0    0 -0.17424479326E+03 -0.12568877794E+03 -0.48711685089E+02  0.25329181815E+03  0.12500000000E+03 0.  0.
         25    1    1    2    0    0  0.40315172785E+02  0.15258404139E+03 -0.10032881010E+03  0.22494015422E+03  0.12500000000E+03 0.  0.
         25    1    1    2    0    0  0.13392962047E+03 -0.26895263452E+02 -0.13579400255E+03  0.22962035965E+03  0.12500000000E+03 0.  0.
</event>
<event>
 5    0  0.5537809E-005  0.4647321E+03  0.7546771E-02  0.1023418E+00
         21   -1    0    0  502  501  0.00000000000E+00  0.00000000000E+00  0.10066766003E+04  0.10066766003E+04  0.00000000000E+00 0.  1.
         21   -1    0    0  501  502 -0.00000000000E+00 -0.00000000000E+00 -0.21454354347E+03  0.21454354347E+03  0.00000000000E+00 0.  1.
         25    1    1    2    0    0 -0.27084814001E+03  0.15486315955E+03  0.51199275937E+03  0.61245644643E+03  0.12500000000E+03 0.  0.
         25    1    1    2    0    0  0.29794262187E+02 -0.21054894300E+03  0.57611360310E+02  0.25330342337E+03  0.12500000000E+03 0.  0.
         25    1    1    2    0    0  0.24105387782E+03  0.55685783450E+02  0.22252893716E+03  0.35546027397E+03  0.12500000000E+03 0.  0.
</event>
<event>
 5    0  0.5474724E-005  0.2843624E+03  0.7546771E-02  0.1093330E+00
         21   -1    0    0  502  501  0.00000000000E+00  0.00000000000E+00  0.11655178351E+04  0.11655178351E+04  0.00000000000E+00 0.  1.
         21   -1    0    0  501  502 -0.00000000000E+00 -0.00000000000E+00 -0.69378579923E+02  0.69378579923E+02  0.00000000000E+00 0.  1.
         25    1    1    2    0    0 -0.39816370990E+02 -0.18755426268E+03  0.46939479595E+03  0.52222449130E+03  0.12500000000E+03 0.  0.
         25    1    1    2    0    0 -0.15476306259E+02  0.59252749825E+02  0.17523822744E+03  0.22379419290E+03  0.12500000000E+03 0.  0.
         25    1    1    2    0    0  0.55292677248E+02  0.12830151286E+03  0.45150623178E+03  0.48887773082E+03  0.12500000000E+03 0.  0.
</event>
<event>
 5    0  0.5474724E-005  0.3559017E+03  0.7546771E-02  0.1060218E+00
         21   -1    0    0  502  501  0.00000000000E+00  0.00000000000E+00  0.46095480341E+03  0.46095480341E+03  0.00000000000E+00 0. -1.
         21   -1    0    0  501  502 -0.00000000000E+00 -0.00000000000E+00 -0.27479050246E+03  0.27479050246E+03  0.00000000000E+00 0. -1.
         25    1    1    2    0    0  0.14901415641E+03 -0.81962595075E+02  0.20441228864E+03  0.29382387505E+03  0.12500000000E+03 0.  0.
         25    1    1    2    0    0 -0.67530030890E+02 -0.11347648589E+03 -0.62122328143E+02  0.19214942512E+03  0.12500000000E+03 0.  0.
         25    1    1    2    0    0 -0.81484125517E+02  0.19543908096E+03  0.43874340441E+02  0.24977200569E+03  0.12500000000E+03 0.  0.
</event>
<event>
 5    0  0.5474724E-005  0.5544423E+03  0.7546771E-02  0.1000471E+00
         21   -1    0    0  502  501  0.00000000000E+00  0.00000000000E+00  0.29583918459E+03  0.29583918459E+03  0.00000000000E+00 0.  1.
         21   -1    0    0  501  502 -0.00000000000E+00 -0.00000000000E+00 -0.10390992289E+04  0.10390992289E+04  0.00000000000E+00 0.  1.
         25    1    1    2    0    0 -0.27336460561E+03 -0.37297449349E+02  0.54206512666E+02  0.30770546524E+03  0.12500000000E+03 0.  0.
         25    1    1    2    0    0  0.40772251382E+03  0.28262768525E+02 -0.38309799096E+03  0.57395601142E+03  0.12500000000E+03 0.  0.
         25    1    1    2    0    0 -0.13435790822E+03  0.90346808240E+01 -0.41436856601E+03  0.45327693682E+03  0.12500000000E+03 0.  0.
</event>
<event>
 5    0  0.5474724E-005  0.3481333E+03  0.7546771E-02  0.1063384E+00
         21   -1    0    0  502  501  0.00000000000E+00  0.00000000000E+00  0.25656600942E+03  0.25656600942E+03  0.00000000000E+00 0. -1.
         21   -1    0    0  501  502 -0.00000000000E+00 -0.00000000000E+00 -0.47238045038E+03  0.47238045038E+03  0.00000000000E+00 0. -1.
         25    1    1    2    0    0  0.10667242110E+03 -0.26100740763E+02 -0.98897754194E+02  0.19356141112E+03  0.12500000000E+03 0.  0.
         25    1    1    2    0    0 -0.14179193457E+03  0.74579316023E+02  0.13771812824E+03  0.24547568094E+03  0.12500000000E+03 0.  0.
         25    1    1    2    0    0  0.35119513476E+02 -0.48478575260E+02 -0.25463481501E+03  0.28990936773E+03  0.12500000000E+03 0.  0.
</event>
<event>
 5    0  0.5474724E-005  0.2514245E+03  0.7546771E-02  0.1112408E+00
         21   -1    0    0  502  501  0.00000000000E+00  0.00000000000E+00  0.14730955701E+03  0.14730955701E+03  0.00000000000E+00 0. -1.
         21   -1    0    0  501  502 -0.00000000000E+00 -0.00000000000E+00 -0.42912528756E+03  0.42912528756E+03  0.00000000000E+00 0. -1.
         25    1    1    2    0    0 -0.19022156110E+02 -0.10669623834E+03 -0.17066183509E+03  0.23768969615E+03  0.12500000000E+03 0.  0.
         25    1    1    2    0    0  0.35627987645E+02 -0.96222684078E+01  0.68678635501E+01  0.13051478500E+03  0.12500000000E+03 0.  0.
         25    1    1    2    0    0 -0.16605831535E+02  0.11631850675E+03 -0.11802175901E+03  0.20823036343E+03  0.12500000000E+03 0.  0.
</event>
<event>
 5    0  0.5474724E-005  0.3903776E+03  0.7546771E-02  0.1047163E+00
         21   -1    0    0  502  501  0.00000000000E+00  0.00000000000E+00  0.78759667864E+03  0.78759667864E+03  0.00000000000E+00 0.  1.
         21   -1    0    0  501  502 -0.00000000000E+00 -0.00000000000E+00 -0.19349330195E+03  0.19349330195E+03  0.00000000000E+00 0.  1.
         25    1    1    2    0    0  0.39029250502E+02  0.18287437037E+03  0.59558662046E+03  0.63664333830E+03  0.12500000000E+03 0.  0.
         25    1    1    2    0    0  0.36112305106E+02 -0.46503317984E+02  0.32402887541E+02  0.14192111994E+03  0.12500000000E+03 0.  0.
         25    1    1    2    0    0 -0.75141555608E+02 -0.13637105238E+03 -0.33886131313E+02  0.20252552235E+03  0.12500000000E+03 0.  0.
</event>
<event>
 5    0  0.5474724E-005  0.5132242E+03  0.7546771E-02  0.1010384E+00
         21   -1    0    0  502  501  0.00000000000E+00  0.00000000000E+00  0.12490503890E+04  0.12490503890E+04  0.00000000000E+00 0.  1.
         21   -1    0    0  501  502 -0.00000000000E+00 -0.00000000000E+00 -0.21087947668E+03  0.21087947668E+03  0.00000000000E+00 0.  1.
         25    1    1    2    0    0 -0.23145014004E+03 -0.12174956713E+03  0.68176683092E+03  0.74082598238E+03  0.12500000000E+03 0.  0.
         25    1    1    2    0    0 -0.78364935429E+02 -0.13534636008E+03  0.14714547968E+03  0.24846829271E+03  0.12500000000E+03 0.  0.
         25    1    1    2    0    0  0.30981507546E+03  0.25709592721E+03  0.20925860176E+03  0.47063559065E+03  0.12500000000E+03 0.  0.
</event>
<event>
 5    0  0.5474724E-005  0.3409085E+03  0.7546771E-02  0.1066410E+00
         21   -1    0    0  502  501  0.00000000000E+00  0.00000000000E+00  0.80576107942E+03  0.80576107942E+03  0.00000000000E+00 0.  1.
         21   -1    0    0  501  502 -0.00000000000E+00 -0.00000000000E+00 -0.14423460028E+03  0.14423460028E+03  0.00000000000E+00 0.  1.
         25    1    1    2    0    0 -0.10634868544E+03 -0.79972131032E+02  0.19654575098E+02  0.18362158631E+03  0.12500000000E+03 0.  0.
         25    1    1    2    0    0  0.32555860164E+02 -0.71953387992E+02  0.83572962420E+02  0.16984291013E+03  0.12500000000E+03 0.  0.
         25    1    1    2    0    0  0.73792825276E+02  0.15192551902E+03  0.55829894162E+03  0.59653118326E+03  0.12500000000E+03 0.  0.
</event>
<event>
 5    0  0.5474724E-005  0.3155126E+03  0.7546771E-02  0.1077733E+00
         21   -1    0    0  502  501  0.00000000000E+00  0.00000000000E+00  0.13692941632E+03  0.13692941632E+03  0.00000000000E+00 0.  1.
         21   -1    0    0  501  502 -0.00000000000E+00 -0.00000000000E+00 -0.72700363041E+03  0.72700363041E+03  0.00000000000E+00 0.  1.
         25    1    1    2    0    0 -0.58965783101E+02 -0.64420729037E+02 -0.17670973184E+03  0.23340591945E+03  0.12500000000E+03 0.  0.
         25    1    1    2    0    0  0.91390626763E+02 -0.84931090017E+02 -0.39445206299E+03  0.43218395008E+03  0.12500000000E+03 0.  0.
         25    1    1    2    0    0 -0.32424843662E+02  0.14935181905E+03 -0.18912419256E+02  0.19834317720E+03  0.12500000000E+03 0.  0.
</event>
<event>
 5    0  0.5474724E-005  0.3965383E+03  0.7546771E-02  0.1044985E+00
         21   -1    0    0  502  501  0.00000000000E+00  0.00000000000E+00  0.85443312472E+03  0.85443312472E+03  0.00000000000E+00 0.  1.
         21   -1    0    0  501  502 -0.00000000000E+00 -0.00000000000E+00 -0.18403150494E+03  0.18403150494E+03  0.00000000000E+00 0.  1.
         25    1    1    2    0    0  0.37870424526E+02 -0.13343493215E+03  0.12351267402E+03  0.22387369389E+03  0.12500000000E+03 0.  0.
         25    1    1    2    0    0  0.21372066384E+02 -0.16939077643E+03  0.39617283815E+03  0.44914131189E+03  0.12500000000E+03 0.  0.
         25    1    1    2    0    0 -0.59242490909E+02  0.30282570858E+03  0.15071610761E+03  0.36544962388E+03  0.12500000000E+03 0.  0.
</event>
<event>
 5    0  0.5474724E-005  0.4412102E+03  0.7546771E-02  0.1030376E+00
         21   -1    0    0  502  501  0.00000000000E+00  0.00000000000E+00  0.29469813762E+04  0.29469813762E+04  0.00000000000E+00 0. -1.
         21   -1    0    0  501  502 -0.00000000000E+00 -0.00000000000E+00 -0.66056225540E+02  0.66056225540E+02  0.00000000000E+00 0. -1.
         25    1    1    2    0    0 -0.18364764799E+02 -0.21026832698E+03  0.38972548342E+03  0.46050079950E+03  0.12500000000E+03 0.  0.
         25    1    1    2    0    0 -0.21273163467E+03  0.94656230853E+02  0.13637445205E+04  0.13891143465E+04  0.12500000000E+03 0.  0.
         25    1    1    2    0    0  0.23109639947E+03  0.11561209613E+03  0.11274551467E+04  0.11634224557E+04  0.12500000000E+03 0.  0.
</event>
<event>
 5    0  0.5474724E-005  0.3030172E+03  0.7546771E-02  0.1083742E+00
         21   -1    0    0  502  501  0.00000000000E+00  0.00000000000E+00  0.21396792650E+04  0.21396792650E+04  0.00000000000E+00 0.  1.
         21   -1    0    0  501  502 -0.00000000000E+00 -0.00000000000E+00 -0.42912715106E+02  0.42912715106E+02  0.00000000000E+00 0.  1.
         25    1    1    2    0    0  0.73206797453E+02 -0.65411358886E+02  0.32488324490E+03  0.36167942143E+03  0.12500000000E+03 0.  0.
         25    1    1    2    0    0 -0.30212153540E+02  0.95972200623E+02  0.15669081581E+04  0.15751030485E+04  0.12500000000E+03 0.  0.
         25    1    1    2    0    0 -0.42994643912E+02 -0.30560841737E+02  0.20497514698E+03  0.24580951026E+03  0.12500000000E+03 0.  0.
</event>
<event>
 5    0  0.5474724E-005  0.3403248E+03  0.7546771E-02  0.1066658E+00
         21   -1    0    0  502  501  0.00000000000E+00  0.00000000000E+00  0.42921166196E+02  0.42921166196E+02  0.00000000000E+00 0.  1.
         21   -1    0    0  501  502 -0.00000000000E+00 -0.00000000000E+00 -0.26984577647E+04  0.26984577647E+04  0.00000000000E+00 0.  1.
         25    1    1    2    0    0  0.92555653828E+02  0.64615249812E+02 -0.74505529599E+03  0.76385474643E+03  0.12500000000E+03 0.  0.
         25    1    1    2    0    0  0.27580531320E+02 -0.86980167570E+02 -0.16856098824E+04  0.16926995926E+04  0.12500000000E+03 0.  0.
         25    1    1    2    0    0 -0.12013618515E+03  0.22364917759E+02 -0.22487142012E+03  0.28482459184E+03  0.12500000000E+03 0.  0.
</event>
<event>
 5    0  0.5474724E-005  0.2618821E+03  0.7546771E-02  0.1106018E+00
         21   -1    0    0  502  501  0.00000000000E+00  0.00000000000E+00  0.28828915399E+03  0.28828915399E+03  0.00000000000E+00 0.  1.
         21   -1    0    0  501  502 -0.00000000000E+00 -0.00000000000E+00 -0.23789394532E+03  0.23789394532E+03  0.00000000000E+00 0.  1.
         25    1    1    2    0    0  0.79280568081E+02 -0.63088363042E+01  0.40806810217E+02  0.15367304790E+03  0.12500000000E+03 0.  0.
         25    1    1    2    0    0 -0.10317979852E+03  0.33841616480E+02  0.11779873481E+03  0.20320646582E+03  0.12500000000E+03 0.  0.
         25    1    1    2    0    0  0.23899230440E+02 -0.27532780176E+02 -0.10821033635E+03  0.16930358559E+03  0.12500000000E+03 0.  0.
</event>
<event>
 5    0  0.5474724E-005  0.2901617E+03  0.7546771E-02  0.1090265E+00
         21   -1    0    0  502  501  0.00000000000E+00  0.00000000000E+00  0.33902136255E+04  0.33902136255E+04  0.00000000000E+00 0. -1.
         21   -1    0    0  501  502 -0.00000000000E+00 -0.00000000000E+00 -0.24834371035E+02  0.24834371035E+02  0.00000000000E+00 0. -1.
         25    1    1    2    0    0 -0.54073414586E+01  0.13406965047E+03  0.57902015021E+03  0.60736582457E+03  0.12500000000E+03 0.  0.
         25    1    1    2    0    0  0.78291917526E+01 -0.13951367953E+03  0.22076693848E+04  0.22156160488E+04  0.12500000000E+03 0.  0.
         25    1    1    2    0    0 -0.24218502940E+01  0.54440290637E+01  0.57868971946E+03  0.59206612318E+03  0.12500000000E+03 0.  0.
</event>
<event>
 5    0  0.5474724E-005  0.2173878E+03  0.7546771E-02  0.1135846E+00
         21   -1    0    0  502  501  0.00000000000E+00  0.00000000000E+00  0.35265850341E+03  0.35265850341E+03  0.00000000000E+00 0.  1.
         21   -1    0    0  501  502 -0.00000000000E+00 -0.00000000000E+00 -0.13400340143E+03  0.13400340143E+03  0.00000000000E+00 0.  1.
         25    1    1    2    0    0 -0.37215675986E+02  0.10176749038E+02  0.96151663914E+02  0.16235367330E+03  0.12500000000E+03 0.  0.
         25    1    1    2    0    0  0.38838896108E+00  0.71846871928E+02  0.40015452865E+02  0.14962740498E+03  0.12500000000E+03 0.  0.
         25    1    1    2    0    0  0.36827287025E+02 -0.82023620966E+02  0.82487985199E+02  0.17468082656E+03  0.12500000000E+03 0.  0.
</event>
<event>
 5    0  0.5474724E-005  0.1060474E+04  0.7546771E-02  0.9244596E-01
         21   -1    0    0  502  501  0.00000000000E+00  0.00000000000E+00  0.93875492868E+03  0.93875492868E+03  0.00000000000E+00 0. -1.
         21   -1    0    0  501  502 -0.00000000000E+00 -0.00000000000E+00 -0.11979759525E+04  0.11979759525E+04  0.00000000000E+00 0. -1.
         25    1    1    2    0    0 -0.55653917997E+03  0.93387202899E+02  0.75102592206E+03  0.94769296933E+03  0.12500000000E+03 0.  0.
         25    1    1    2    0    0  0.30141191481E+03 -0.92583922104E+02 -0.61412979478E+03  0.70157061645E+03  0.12500000000E+03 0.  0.
         25    1    1    2    0    0  0.25512726516E+03 -0.80328079476E+00 -0.39611715105E+03  0.48746729536E+03  0.12500000000E+03 0.  0.
</event>
<event>
 5    0  0.5474724E-005  0.5155722E+03  0.7546771E-02  0.1009792E+00
         21   -1    0    0  502  501  0.00000000000E+00  0.00000000000E+00  0.10093797122E+04  0.10093797122E+04  0.00000000000E+00 0. -1.
         21   -1    0    0  501  502 -0.00000000000E+00 -0.00000000000E+00 -0.26334455966E+03  0.26334455966E+03  0.00000000000E+00 0. -1.
         25    1    1    2    0    0  0.64193897175E+02 -0.20268212322E+03 -0.49869783480E+02  0.25162053734E+03  0.12500000000E+03 0.  0.
         25    1    1    2    0    0  0.55752784913E+02 -0.13088545750E+03  0.66799715327E+02  0.20081478526E+03  0.12500000000E+03 0.  0.
         25    1    1    2    0    0 -0.11994668209E+03  0.33356758072E+03  0.72910522074E+03  0.82028894931E+03  0.12500000000E+03 0.  0.
</event>
<event>
 5    0  0.5474724E-005  0.2887804E+03  0.7546771E-02  0.1090988E+00
         21   -1    0    0  502  501  0.00000000000E+00  0.00000000000E+00  0.10268559095E+04  0.10268559095E+04  0.00000000000E+00 0. -1.
         21   -1    0    0  501  502 -0.00000000000E+00 -0.00000000000E+00 -0.81213043020E+02  0.81213043020E+02  0.00000000000E+00 0. -1.
         25    1    1    2    0    0 -0.18868448913E+01  0.13538657425E+03  0.16701952621E+03  0.24870385362E+03  0.12500000000E+03 0.  0.
         25    1    1    2    0    0  0.38539758039E+01 -0.16313885609E+03  0.29831810098E+03  0.36228142220E+03  0.12500000000E+03 0.  0.
         25    1    1    2    0    0 -0.19671309126E+01  0.27752281843E+02  0.48030523925E+03  0.49708367666E+03  0.12500000000E+03 0.  0.
</event>
<event>
 5    0  0.5474724E-005  0.2979282E+03  0.7546771E-02  0.1086281E+00
         21   -1    0    0  502  501  0.00000000000E+00  0.00000000000E+00  0.40349359655E+02  0.40349359655E+02  0.00000000000E+00 0.  1.
         21   -1    0    0  501  502 -0.00000000000E+00 -0.00000000000E+00 -0.21998172886E+04  0.21998172886E+04  0.00000000000E+00 0.  1.
         25    1    1    2    0    0  0.34919702983E+02  0.35643424044E+02 -0.12610405841E+04  0.12682027417E+04  0.12500000000E+03 0.  0.
         25    1    1    2    0    0  0.67194499807E+02  0.15807361997E+02 -0.16043760768E+03  0.21477942046E+03  0.12500000000E+03 0.  0.
         25    1    1    2    0    0 -0.10211420279E+03 -0.51450786041E+02 -0.73798973716E+03  0.75718448607E+03  0.12500000000E+03 0.  0.
</event>
<event>
 5    0  0.5474724E-005  0.2792231E+03  0.7546771E-02  0.1096114E+00
         21   -1    0    0  502  501  0.00000000000E+00  0.00000000000E+00  0.45555176199E+02  0.45555176199E+02  0.00000000000E+00 0. -1.
         21   -1    0    0  501  502 -0.00000000000E+00 -0.00000000000E+00 -0.17114534842E+04  0.17114534842E+04  0.00000000000E+00 0. -1.
         25    1    1    2    0    0  0.10501592394E+03 -0.21999540693E+02 -0.38871531836E+03  0.42218114927E+03  0.12500000000E+03 0.  0.
         25    1    1    2    0    0  0.80483822635E+02 -0.39571962617E+02 -0.57989067409E+03  0.59995148123E+03  0.12500000000E+03 0.  0.
         25    1    1    2    0    0 -0.18549974657E+03  0.61571503310E+02 -0.69729231554E+03  0.73487602989E+03  0.12500000000E+03 0.  0.
</event>
<event>
 5    0  0.5474724E-005  0.2291243E+03  0.7546771E-02  0.1127258E+00
         21   -1    0    0  502  501  0.00000000000E+00  0.00000000000E+00  0.11353470379E+04  0.11353470379E+04  0.00000000000E+00 0. -1.
         21   -1    0    0  501  502 -0.00000000000E+00 -0.00000000000E+00 -0.46239568744E+02  0.46239568744E+02  0.00000000000E+00 0. -1.
         25    1    1    2    0    0 -0.53904044917E+02  0.42480784611E+01  0.29756758334E+03  0.32725396695E+03  0.12500000000E+03 0.  0.
         25    1    1    2    0    0  0.83457860648E+02  0.49772454652E+01  0.20750012302E+03  0.25626409919E+03  0.12500000000E+03 0.  0.
         25    1    1    2    0    0 -0.29553815731E+02 -0.92253239263E+01  0.58403976278E+03  0.59806854049E+03  0.12500000000E+03 0.  0.
</event>
<event>
 5    0  0.5474724E-005  0.4650792E+03  0.7546771E-02  0.1023318E+00
         21   -1    0    0  502  501  0.00000000000E+00  0.00000000000E+00  0.31987828214E+03  0.31987828214E+03  0.00000000000E+00 0.  1.
         21   -1    0    0  501  502 -0.00000000000E+00 -0.00000000000E+00 -0.67619047177E+03  0.67619047177E+03  0.00000000000E+00 0.  1.
         25    1    1    2    0    0 -0.23496449888E+03  0.30726448442E+03 -0.83620291551E+02  0.41501461695E+03  0.12500000000E+03 0.  0.
         25    1    1    2    0    0  0.12747132490E+03 -0.30272217542E+02 -0.15348001508E+03  0.23737409475E+03  0.12500000000E+03 0.  0.
         25    1    1    2    0    0  0.10749317398E+03 -0.27699226688E+03 -0.11921188300E+03  0.34368004221E+03  0.12500000000E+03 0.  0.
</event>
<event>
 5    0  0.5474724E-005  0.3290661E+03  0.7546771E-02  0.1071551E+00
         21   -1    0    0  502  501  0.00000000000E+00  0.00000000000E+00  0.13958722971E+03  0.13958722971E+03  0.00000000000E+00 0.  1.
         21   -1    0    0  501  502 -0.00000000000E+00 -0.00000000000E+00 -0.77574796373E+03  0.77574796373E+03  0.00000000000E+00 0.  1.
         25    1    1    2    0    0 -0.34029421789E+01  0.13224611115E+02 -0.19419662207E+03  0.23135210909E+03  0.12500000000E+03 0.  0.
         25    1    1    2    0    0 -0.19964404136E+03  0.92668279166E+02 -0.15810552563E+03  0.29844180412E+03  0.12500000000E+03 0.  0.
         25    1    1    2    0    0  0.20304698354E+03 -0.10589289028E+03 -0.28385858632E+03  0.38554128023E+03  0.12500000000E+03 0.  0.
</event>
<event>
 5    0  0.5474724E-005  0.2919375E+03  0.7546771E-02  0.1089342E+00
         21   -1    0    0  502  501  0.00000000000E+00  0.00000000000E+00  0.14460853539E+04  0.14460853539E+04  0.00000000000E+00 0.  1.
         21   -1    0    0  501  502 -0.00000000000E+00 -0.00000000000E+00 -0.58936709992E+02  0.58936709992E+02  0.00000000000E+00 0.  1.
         25    1    1    2    0    0  0.37530129146E+02  0.70847851297E+02  0.13044601321E+03  0.19765902709E+03  0.12500000000E+03 0.  0.
         25    1    1    2    0    0 -0.18941543653E+01  0.54295468264E+02  0.25114125641E+03  0.28574204515E+03  0.12500000000E+03 0.  0.
         25    1    1    2    0    0 -0.35635974781E+02 -0.12514331956E+03  0.10055613743E+04  0.10216209917E+04  0.12500000000E+03 0.  0.
</event>
<event>
 5    0  0.5474724E-005  0.2662994E+03  0.7546771E-02  0.1103416E+00
         21   -1    0    0  502  501  0.00000000000E+00  0.00000000000E+00  0.52530296611E+03  0.52530296611E+03  0.00000000000E+00 0. -1.
         21   -1    0    0  501  502 -0.00000000000E+00 -0.00000000000E+00 -0.13499902065E+03  0.13499902065E+03  0.00000000000E+00 0. -1.
         25    1    1    2    0    0 -0.38915790446E+02  0.14368640084E+03  0.14047798566E+03  0.23983178477E+03  0.12500000000E+03 0.  0.
         25    1    1    2    0    0  0.44208727564E+02 -0.15048090889E+02  0.18826436221E+03  0.23075815632E+03  0.12500000000E+03 0.  0.
         25    1    1    2    0    0 -0.52929371186E+01 -0.12863830995E+03  0.61561597589E+02  0.18971204566E+03  0.12500000000E+03 0.  0.
</event>
<event>
 5    0  0.5474724E-005  0.2738272E+03  0.7546771E-02  0.1099109E+00
         21   -1    0    0  502  501  0.00000000000E+00  0.00000000000E+00  0.93072128595E+02  0.93072128595E+02  0.00000000000E+00 0. -1.
         21   -1    0    0  501  502 -0.00000000000E+00 -0.00000000000E+00 -0.80562586543E+03  0.80562586543E+03  0.00000000000E+00 0. -1.
         25    1    1    2    0    0  0.15270192204E+03 -0.45615248610E+02 -0.26871414494E+03  0.33649802316E+03  0.12500000000E+03 0.  0.
         25    1    1    2    0    0 -0.14737694952E+03  0.85152095974E+02 -0.30698426155E+03  0.37260593331E+03  0.12500000000E+03 0.  0.
         25    1    1    2    0    0 -0.53249725165E+01 -0.39536847364E+02 -0.13685533035E+03  0.18959403755E+03  0.12500000000E+03 0.  0.
</event>
<event>
 5    0  0.5474724E-005  0.2579553E+03  0.7546771E-02  0.1108378E+00
         21   -1    0    0  502  501  0.00000000000E+00  0.00000000000E+00  0.19135844892E+02  0.19135844892E+02  0.00000000000E+00 0. -1.
         21   -1    0    0  501  502 -0.00000000000E+00 -0.00000000000E+00 -0.34772936329E+04  0.34772936329E+04  0.00000000000E+00 0. -1.
         25    1    1    2    0    0 -0.67770079527E+02 -0.10168205766E+03 -0.10790431932E+04  0.10931108074E+04  0.12500000000E+03 0.  0.
         25    1    1    2    0    0  0.43309568485E+01  0.14675875975E+03 -0.13129391546E+04  0.13270234039E+04  0.12500000000E+03 0.  0.
         25    1    1    2    0    0  0.63439122679E+02 -0.45076702093E+02 -0.10661754402E+04  0.10762952665E+04  0.12500000000E+03 0.  0.
</event>
<event>
 5    0  0.5474724E-005  0.3940007E+03  0.7546771E-02  0.1045877E+00
         21   -1    0    0  502  501  0.00000000000E+00  0.00000000000E+00  0.16768328288E+04  0.16768328288E+04  0.00000000000E+00 0. -1.
         21   -1    0    0  501  502 -0.00000000000E+00 -0.00000000000E+00 -0.92577258880E+02  0.92577258880E+02  0.00000000000E+00 0. -1.
         25    1    1    2    0    0 -0.94322907321E+01 -0.23166804367E+03  0.21017609558E+03  0.33698374103E+03  0.12500000000E+03 0.  0.
         25    1    1    2    0    0 -0.38525988573E+01  0.10133847980E+03  0.10404433895E+04  0.10528208664E+04  0.12500000000E+03 0.  0.
         25    1    1    2    0    0  0.13284889589E+02  0.13032956387E+03  0.33363608476E+03  0.37960548016E+03  0.12500000000E+03 0.  0.
</event>
<event>
 5    0  0.5474724E-005  0.4269875E+03  0.7546771E-02  0.1034816E+00
         21   -1    0    0  502  501  0.00000000000E+00  0.00000000000E+00  0.51245008435E+03  0.51245008435E+03  0.00000000000E+00 0.  1.
         21   -1    0    0  501  502 -0.00000000000E+00 -0.00000000000E+00 -0.35577768408E+03  0.35577768408E+03  0.00000000000E+00 0.  1.
         25    1    1    2    0    0 -0.68531298964E+02 -0.23463492000E+03  0.10704916165E+03  0.29467712438E+03  0.12500000000E+03 0.  0.
         25    1    1    2    0    0  0.53983696493E+02  0.34647831287E+03 -0.53530820178E+02  0.37610106286E+03  0.12500000000E+03 0.  0.
         25    1    1    2    0    0  0.14547602471E+02 -0.11184339287E+03  0.10315405880E+03  0.19744958119E+03  0.12500000000E+03 0.  0.
</event>
<event>
 5    0  0.5474724E-005  0.2744293E+03  0.7546771E-02  0.1098771E+00
         21   -1    0    0  502  501  0.00000000000E+00  0.00000000000E+00  0.67369710648E+03  0.67369710648E+03  0.00000000000E+00 0.  1.
         21   -1    0    0  501  502 -0.00000000000E+00 -0.00000000000E+00 -0.11178826570E+03  0.11178826570E+03  0.00000000000E+00 0.  1.
         25    1    1    2    0    0 -0.16594565357E+03 -0.39561062011E+02  0.20114870788E+03  0.29187127342E+03  0.12500000000E+03 0.  0.
         25    1    1    2    0    0  0.14726899664E+03  0.71229510306E+02  0.23661490854E+03  0.31364536575E+03  0.12500000000E+03 0.  0.
         25    1    1    2    0    0  0.18676656932E+02 -0.31668448295E+02  0.12414522436E+03  0.17996873301E+03  0.12500000000E+03 0.  0.
</event>
<event>
 5    0  0.5474724E-005  0.3070156E+03  0.7546771E-02  0.1081785E+00
         21   -1    0    0  502  501  0.00000000000E+00  0.00000000000E+00  0.27425288028E+03  0.27425288028E+03  0.00000000000E+00 0. -1.
         21   -1    0    0  501  502 -0.00000000000E+00 -0.00000000000E+00 -0.34369213820E+03  0.34369213820E+03  0.00000000000E+00 0. -1.
         25    1    1    2    0    0  0.34098522566E+02  0.10141397591E+03  0.50375469093E+02  0.17207612163E+03  0.12500000000E+03 0.  0.
         25    1    1    2    0    0 -0.12075621986E+03 -0.10916926876E+03 -0.18861807023E+03  0.27875037272E+03  0.12500000000E+03 0.  0.
         25    1    1    2    0    0  0.86657697292E+02  0.77552928497E+01  0.68803343219E+02  0.16711852412E+03  0.12500000000E+03 0.  0.
</event>
<event>
 5    0  0.5474724E-005  0.3499361E+03  0.7546771E-02  0.1062641E+00
         21   -1    0    0  502  501  0.00000000000E+00  0.00000000000E+00  0.53398290046E+03  0.53398290046E+03  0.00000000000E+00 0. -1.
         21   -1    0    0  501  502 -0.00000000000E+00 -0.00000000000E+00 -0.22932431784E+03  0.22932431784E+03  0.00000000000E+00 0. -1.
         25    1    1    2    0    0 -0.21005569259E+03  0.16220961573E+03  0.28306027690E+02  0.29472289465E+03  0.12500000000E+03 0.  0.
         25    1    1    2    0    0  0.91264009779E+02 -0.95507766849E+02  0.19480881527E+03  0.26650765001E+03  0.12500000000E+03 0.  0.
         25    1    1    2    0    0  0.11879168281E+03 -0.66701848884E+02  0.81543739661E+02  0.20207667363E+03  0.12500000000E+03 0.  0.
</event>
<event>
 5    0  0.5474724E-005  0.3664319E+03  0.7546771E-02  0.1056066E+00
         21   -1    0    0  502  501  0.00000000000E+00  0.00000000000E+00  0.10753138995E+04  0.10753138995E+04  0.00000000000E+00 0. -1.
         21   -1    0    0  501  502 -0.00000000000E+00 -0.00000000000E+00 -0.12486805590E+03  0.12486805590E+03  0.00000000000E+00 0. -1.
         25    1    1    2    0    0 -0.11638175826E+03 -0.82952623373E+02  0.58536004286E+03  0.61538380800E+03  0.12500000000E+03 0.  0.
         25    1    1    2    0    0  0.12803629571E+02  0.13229123049E+03  0.37269346082E+03  0.41495821276E+03  0.12500000000E+03 0.  0.
         25    1    1    2    0    0  0.10357812868E+03 -0.49338607115E+02 -0.76076601224E+01  0.16983993460E+03  0.12500000000E+03 0.  0.
</event>
<event>
 5    0  0.5474724E-005  0.2520213E+03  0.7546771E-02  0.1112034E+00
         21   -1    0    0  502  501  0.00000000000E+00  0.00000000000E+00  0.23312898281E+03  0.23312898281E+03  0.00000000000E+00 0.  1.
         21   -1    0    0  501  502 -0.00000000000E+00 -0.00000000000E+00 -0.27244470627E+03  0.27244470627E+03  0.00000000000E+00 0.  1.
         25    1    1    2    0    0 -0.26099703054E+02 -0.82587730771E+02 -0.95344873320E+02  0.17949254202E+03  0.12500000000E+03 0.  0.
         25    1    1    2    0    0  0.58328002966E+02  0.12307890180E+03  0.45496105343E+02  0.19038242461E+03  0.12500000000E+03 0.  0.
         25    1    1    2    0    0 -0.32228299912E+02 -0.40491171032E+02  0.10533044514E+02  0.13569872245E+03  0.12500000000E+03 0.  0.
</event>
<event>
 5    0  0.5474724E-005  0.3980479E+03  0.7546771E-02  0.1044458E+00
         21   -1    0    0  502  501  0.00000000000E+00  0.00000000000E+00  0.42423188494E+03  0.42423188494E+03  0.00000000000E+00 0.  1.
         21   -1    0    0  501  502 -0.00000000000E+00 -0.00000000000E+00 -0.37348002712E+03  0.37348002712E+03  0.00000000000E+00 0.  1.
         25    1    1    2    0    0  0.23978919763E+03 -0.23450393822E+03  0.39093151784E+02  0.36006142651E+03  0.12500000000E+03 0.  0.
         25    1    1    2    0    0 -0.17132475901E+03  0.16916652243E+03  0.50930398445E+02  0.27602244627E+03  0.12500000000E+03 0.  0.
         25    1    1    2    0    0 -0.68464438624E+02  0.65337415794E+02 -0.39271692413E+02  0.16162803929E+03  0.12500000000E+03 0.  0.
</event>
<event>
 5    0  0.5474724E-005  0.5820765E+03  0.7546771E-02  0.9943306E-01
         21   -1    0    0  502  501  0.00000000000E+00  0.00000000000E+00  0.40660656129E+03  0.40660656129E+03  0.00000000000E+00 0. -1.
         21   -1    0    0  501  502 -0.00000000000E+00 -0.00000000000E+00 -0.83326993884E+03  0.83326993884E+03  0.00000000000E+00 0. -1.
         25    1    1    2    0    0 -0.10878538602E+03  0.21883137031E+02  0.17075466855E+03  0.23894620468E+03  0.12500000000E+03 0.  0.
         25    1    1    2    0    0  0.29927380100E+03 -0.96583394675E+02 -0.66983144253E+03  0.75046140573E+03  0.12500000000E+03 0.  0.
         25    1    1    2    0    0 -0.19048841498E+03  0.74700257644E+02  0.72413396435E+02  0.25046888972E+03  0.12500000000E+03 0.  0.
</event>
<event>
 5    0  0.5474724E-005  0.5230976E+03  0.7546771E-02  0.1007920E+00
         21   -1    0    0  502  501  0.00000000000E+00  0.00000000000E+00  0.61925231667E+03  0.61925231667E+03  0.00000000000E+00 0. -1.
         21   -1    0    0  501  502 -0.00000000000E+00 -0.00000000000E+00 -0.44187335722E+03  0.44187335722E+03  0.00000000000E+00 0. -1.
         25    1    1    2    0    0 -0.21356194203E+03  0.34344096764E+03 -0.18126162593E+03  0.46047929201E+03  0.12500000000E+03 0.  0.
         25    1    1    2    0    0  0.14733313841E+03 -0.17225919231E+03  0.17468883075E+03  0.31228427850E+03  0.12500000000E+03 0.  0.
         25    1    1    2    0    0  0.66228803619E+02 -0.17118177533E+03  0.18395175463E+03  0.28836210338E+03  0.12500000000E+03 0.  0.
</event>
<event>
 5    0  0.5474724E-005  0.3453578E+03  0.7546771E-02  0.1064537E+00
         21   -1    0    0  502  501  0.00000000000E+00  0.00000000000E+00  0.48634480814E+02  0.48634480814E+02  0.00000000000E+00 0. -1.
         21   -1    0    0  501  502 -0.00000000000E+00 -0.00000000000E+00 -0.24524164513E+04  0.24524164513E+04  0.00000000000E+00 0. -1.
         25    1    1    2    0    0  0.54416814784E+02  0.96616955827E+02 -0.34360941211E+03  0.38208435453E+03  0.12500000000E+03 0.  0.
         25    1    1    2    0    0 -0.20611183496E+03 -0.15400544252E+03 -0.13435091815E+04  0.13736235604E+04  0.12500000000E+03 0.  0.
         25    1    1    2    0    0  0.15169502017E+03  0.57388486693E+02 -0.71666337684E+03  0.74534301718E+03  0.12500000000E+03 0.  0.
</event>
<event>
 5    0  0.5474724E-005  0.4741236E+03  0.7546771E-02  0.1020763E+00
         21   -1    0    0  502  501  0.00000000000E+00  0.00000000000E+00  0.23750331602E+03  0.23750331602E+03  0.00000000000E+00 0. -1.
         21   -1    0    0  501  502 -0.00000000000E+00 -0.00000000000E+00 -0.94648461390E+03  0.94648461390E+03  0.00000000000E+00 0. -1.
         25    1    1    2    0    0 -0.33547118455E+03 -0.20768968175E+03 -0.32724757810E+03  0.52762855963E+03  0.12500000000E+03 0.  0.
         25    1    1    2    0    0  0.18943387075E+03  0.24846838984E+03 -0.25928849590E+03  0.42482614826E+03  0.12500000000E+03 0.  0.
         25    1    1    2    0    0  0.14603731380E+03 -0.40778708085E+02 -0.12244522388E+03  0.23153322203E+03  0.12500000000E+03 0.  0.
</event>
<event>
 5    0  0.5474724E-005  0.2720470E+03  0.7546771E-02  0.1100114E+00
         21   -1    0    0  502  501  0.00000000000E+00  0.00000000000E+00  0.70659834662E+03  0.70659834662E+03  0.00000000000E+00 0.  1.
         21   -1    0    0  501  502 -0.00000000000E+00 -0.00000000000E+00 -0.10474067844E+03  0.10474067844E+03  0.00000000000E+00 0.  1.
         25    1    1    2    0    0  0.29275673576E+02  0.30507836761E+02  0.27571941140E+03  0.30566973516E+03  0.12500000000E+03 0.  0.
         25    1    1    2    0    0 -0.37219724026E+02 -0.81370196847E+02  0.11977747893E+01  0.15372980016E+03  0.12500000000E+03 0.  0.
         25    1    1    2    0    0  0.79440504500E+01  0.50862360087E+02  0.32494048199E+03  0.35193948975E+03  0.12500000000E+03 0.  0.
</event>
<event>
 5    0  0.5474724E-005  0.2601672E+03  0.7546771E-02  0.1107043E+00
         21   -1    0    0  502  501  0.00000000000E+00  0.00000000000E+00  0.11417238297E+03  0.11417238297E+03  0.00000000000E+00 0. -1.
         21   -1    0    0  501  502 -0.00000000000E+00 -0.00000000000E+00 -0.59284872495E+03  0.59284872495E+03  0.00000000000E+00 0. -1.
         25    1    1    2    0    0  0.70117273892E+02  0.40184246033E+02 -0.18593661121E+03  0.23817772590E+03  0.12500000000E+03 0.  0.
         25    1    1    2    0    0 -0.12998297779E+03 -0.10823237030E+03 -0.14768433888E+03  0.25699316031E+03  0.12500000000E+03 0.  0.
         25    1    1    2    0    0  0.59865703898E+02  0.68048124271E+02 -0.14505539188E+03  0.21185022170E+03  0.12500000000E+03 0.  0.
</event>
<event>
 5    0  0.5474724E-005  0.2570569E+03  0.7546771E-02  0.1108924E+00
         21   -1    0    0  502  501  0.00000000000E+00  0.00000000000E+00  0.59777922869E+03  0.59777922869E+03  0.00000000000E+00 0. -1.
         21   -1    0    0  501  502 -0.00000000000E+00 -0.00000000000E+00 -0.11053956664E+03  0.11053956664E+03  0.00000000000E+00 0. -1.
         25    1    1    2    0    0  0.87939290255E+01  0.10519626864E+03  0.16095458398E+03  0.22951027478E+03  0.12500000000E+03 0.  0.
         25    1    1    2    0    0 -0.85719529525E+02  0.69335197228E+01  0.81726015668E+02  0.17233703338E+03  0.12500000000E+03 0.  0.
         25    1    1    2    0    0  0.76925600500E+02 -0.11212978836E+03  0.24455906240E+03  0.30647148718E+03  0.12500000000E+03 0.  0.
</event>
<event>
 5    0  0.5474724E-005  0.2883922E+03  0.7546771E-02  0.1091192E+00
         21   -1    0    0  502  501  0.00000000000E+00  0.00000000000E+00  0.71085040346E+03  0.71085040346E+03  0.00000000000E+00 0.  1.
         21   -1    0    0  501  502 -0.00000000000E+00 -0.00000000000E+00 -0.11700082921E+03  0.11700082921E+03  0.00000000000E+00 0.  1.
         25    1    1    2    0    0  0.10865586450E+03  0.30484330292E+02  0.11093104014E+03  0.20165834213E+03  0.12500000000E+03 0.  0.
         25    1    1    2    0    0  0.10304146920E+02 -0.50237800795E+02  0.42043262518E+03  0.44160910813E+03  0.12500000000E+03 0.  0.
         25    1    1    2    0    0 -0.11896001142E+03  0.19753470504E+02  0.62485908934E+02  0.18458378241E+03  0.12500000000E+03 0.  0.
</event>
<event>
 5    0  0.5474724E-005  0.4091183E+03  0.7546771E-02  0.1040667E+00
         21   -1    0    0  502  501  0.00000000000E+00  0.00000000000E+00  0.13556884864E+03  0.13556884864E+03  0.00000000000E+00 0. -1.
         21   -1    0    0  501  502 -0.00000000000E+00 -0.00000000000E+00 -0.12346327960E+04  0.12346327960E+04  0.00000000000E+00 0. -1.
         25    1    1    2    0    0 -0.16682385474E+03 -0.11398102485E+03 -0.24716590221E+03  0.34283794386E+03  0.12500000000E+03 0.  0.
         25    1    1    2    0    0  0.23171344937E+03  0.22181537674E+03 -0.33291873361E+03  0.47890820328E+03  0.12500000000E+03 0.  0.
         25    1    1    2    0    0 -0.64889594631E+02 -0.10783435189E+03 -0.51897931154E+03  0.54845549750E+03  0.12500000000E+03 0.  0.
</event>
<event>
 5    0  0.5474724E-005  0.3822857E+03  0.7546771E-02  0.1050092E+00
         21   -1    0    0  502  501  0.00000000000E+00  0.00000000000E+00  0.14084732578E+03  0.14084732578E+03  0.00000000000E+00 0. -1.
         21   -1    0    0  501  502 -0.00000000000E+00 -0.00000000000E+00 -0.10375941600E+04  0.10375941600E+04  0.00000000000E+00 0. -1.
         25    1    1    2    0    0  0.74470045504E+02 -0.13254945810E+03 -0.18644672585E+03  0.27111349672E+03  0.12500000000E+03 0.  0.
         25    1    1    2    0    0 -0.99633025241E+02 -0.31390062624E+02 -0.67781382797E+03  0.69711452512E+03  0.12500000000E+03 0.  0.
         25    1    1    2    0    0  0.25162979737E+02  0.16393952073E+03 -0.32486280387E+02  0.21021346393E+03  0.12500000000E+03 0.  0.
</event>
<event>
 5    0  0.5474724E-005  0.8667671E+03  0.7546771E-02  0.9468105E-01
         21   -1    0    0  502  501  0.00000000000E+00  0.00000000000E+00  0.28628564593E+04  0.28628564593E+04  0.00000000000E+00 0. -1.
         21   -1    0    0  501  502 -0.00000000000E+00 -0.00000000000E+00 -0.26242502294E+03  0.26242502294E+03  0.00000000000E+00 0. -1.
         25    1    1    2    0    0  0.36806318088E+02  0.10431700025E+03  0.79734105694E+03  0.81462537567E+03  0.12500000000E+03 0.  0.
         25    1    1    2    0    0  0.66232162425E+03 -0.14798238211E+03  0.11694297688E+04  0.13578511346E+04  0.12500000000E+03 0.  0.
         25    1    1    2    0    0 -0.69912794233E+03  0.43665381865E+02  0.63366061060E+03  0.95280497204E+03  0.12500000000E+03 0.  0.
</event>
<event>
 5    0  0.5474724E-005  0.4396953E+03  0.7546771E-02  0.1030840E+00
         21   -1    0    0  502  501  0.00000000000E+00  0.00000000000E+00  0.51183571757E+03  0.51183571757E+03  0.00000000000E+00 0.  1.
         21   -1    0    0  501  502 -0.00000000000E+00 -0.00000000000E+00 -0.37772267189E+03  0.37772267189E+03  0.00000000000E+00 0.  1.
         25    1    1    2    0    0 -0.10629216044E+02 -0.21724312387E+03 -0.16262216183E+03  0.29896241004E+03  0.12500000000E+03 0.  0.
         25    1    1    2    0    0  0.14896832753E+03  0.20348200565E+03  0.28910028738E+03  0.40348539675E+03  0.12500000000E+03 0.  0.
         25    1    1    2    0    0 -0.13833911148E+03  0.13761118219E+02  0.76349201232E+01  0.18711058267E+03  0.12500000000E+03 0.  0.
</event>
<event>
 5    0  0.6450084E-005  0.4572636E+03  0.7546771E-02  0.1025578E+00
         21   -1    0    0  502  501  0.00000000000E+00  0.00000000000E+00  0.13760935682E+04  0.13760935682E+04  0.00000000000E+00 0.  1.
         21   -1    0    0  501  502 -0.00000000000E+00 -0.00000000000E+00 -0.15194463386E+03  0.15194463386E+03  0.00000000000E+00 0.  1.
         25    1    1    2    0    0  0.51936126110E+02 -0.71416563479E+02 -0.48900107704E+02  0.16066706964E+03  0.12500000000E+03 0.  0.
         25    1    1    2    0    0 -0.22903371722E+03 -0.27820935971E+01  0.54742927486E+03  0.60643878062E+03  0.12500000000E+03 0.  0.
         25    1    1    2    0    0  0.17709759111E+03  0.74198657076E+02  0.72561976722E+03  0.76093235184E+03  0.12500000000E+03 0.  0.
</event>
<event>
 5    0  0.5474724E-005  0.2592682E+03  0.7546771E-02  0.1107584E+00
         21   -1    0    0  502  501  0.00000000000E+00  0.00000000000E+00  0.63622994954E+03  0.63622994954E+03  0.00000000000E+00 0.  1.
         21   -1    0    0  501  502 -0.00000000000E+00 -0.00000000000E+00 -0.10565359594E+03  0.10565359594E+03  0.00000000000E+00 0.  1.
         25    1    1    2    0    0 -0.25016362326E+02  0.46459166890E+02  0.23768945823E+03  0.27368878516E+03  0.12500000000E+03 0.  0.
         25    1    1    2    0    0 -0.90723627841E+02 -0.92391975792E+02  0.96596155315E+02  0.20426177092E+03  0.12500000000E+03 0.  0.
         25    1    1    2    0    0  0.11573999017E+03  0.45932808903E+02  0.19629074006E+03  0.26393298939E+03  0.12500000000E+03 0.  0.
</event>
<event>
 5    0  0.5474724E-005  0.2906893E+03  0.7546771E-02  0.1089990E+00
         21   -1    0    0  502  501  0.00000000000E+00  0.00000000000E+00  0.19653178140E+03  0.19653178140E+03  0.00000000000E+00 0. -1.
         21   -1    0    0  501  502 -0.00000000000E+00 -0.00000000000E+00 -0.42995717188E+03  0.42995717188E+03  0.00000000000E+00 0. -1.
         25    1    1    2    0    0  0.39361123015E+02  0.17694033806E+03  0.21693341825E+02  0.22125275663E+03  0.12500000000E+03 0.  0.
         25    1    1    2    0    0 -0.19584588929E+01 -0.79584174341E+02 -0.15330614192E+03  0.21322581813E+03  0.12500000000E+03 0.  0.
         25    1    1    2    0    0 -0.37402664122E+02 -0.97356163716E+02 -0.10181259038E+03  0.19201037852E+03  0.12500000000E+03 0.  0.
</event>
<event>
 5    0  0.5474724E-005  0.3195389E+03  0.7546771E-02  0.1075862E+00
         21   -1    0    0  502  501  0.00000000000E+00  0.00000000000E+00  0.16826447011E+03  0.16826447011E+03  0.00000000000E+00 0. -1.
         21   -1    0    0  501  502 -0.00000000000E+00 -0.00000000000E+00 -0.60681310808E+03  0.60681310808E+03  0.00000000000E+00 0. -1.
         25    1    1    2    0    0  0.27273149953E+02 -0.21642404515E+03 -0.13382883368E+03  0.28481283109E+03  0.12500000000E+03 0.  0.
         25    1    1    2    0    0 -0.23272807419E+02 -0.42724316154E+01 -0.72908308827E+02  0.14663048364E+03  0.12500000000E+03 0.  0.
         25    1    1    2    0    0 -0.40003425342E+01  0.22069647677E+03 -0.23181149546E+03  0.34363426346E+03  0.12500000000E+03 0.  0.
</event>
<event>
 5    0  0.5474724E-005  0.5742249E+03  0.7546771E-02  0.9960373E-01
         21   -1    0    0  502  501  0.00000000000E+00  0.00000000000E+00  0.16964448750E+04  0.16964448750E+04  0.00000000000E+00 0. -1.
         21   -1    0    0  501  502 -0.00000000000E+00 -0.00000000000E+00 -0.19436778682E+03  0.19436778682E+03  0.00000000000E+00 0. -1.
         25    1    1    2    0    0 -0.98651194731E+02 -0.16672357878E+03  0.24183837473E+03  0.33412514038E+03  0.12500000000E+03 0.  0.
         25    1    1    2    0    0  0.23413626045E+03 -0.10414035481E+02 -0.52129652044E+01  0.26566974912E+03  0.12500000000E+03 0.  0.
         25    1    1    2    0    0 -0.13548506572E+03  0.17713761426E+03  0.12654516786E+04  0.12910177723E+04  0.12500000000E+03 0.  0.
</event>
<event>
 5    0  0.5474724E-005  0.2822406E+03  0.7546771E-02  0.1094471E+00
         21   -1    0    0  502  501  0.00000000000E+00  0.00000000000E+00  0.18578575284E+03  0.18578575284E+03  0.00000000000E+00 0.  1.
         21   -1    0    0  501  502 -0.00000000000E+00 -0.00000000000E+00 -0.42877227859E+03  0.42877227859E+03  0.00000000000E+00 0.  1.
         25    1    1    2    0    0 -0.67390743607E+02 -0.57067645109E+01  0.35996535565E+02  0.14661115257E+03  0.12500000000E+03 0.  0.
         25    1    1    2    0    0  0.84697374926E+01  0.53446725823E+02  0.17543553341E+02  0.13733559341E+03  0.12500000000E+03 0.  0.
         25    1    1    2    0    0  0.58921006115E+02 -0.47739961312E+02 -0.29652661466E+03  0.33061128545E+03  0.12500000000E+03 0.  0.
</event>
<event>
 5    0  0.5474724E-005  0.2469750E+03  0.7546771E-02  0.1115232E+00
         21   -1    0    0  502  501  0.00000000000E+00  0.00000000000E+00  0.14259150831E+03  0.14259150831E+03  0.00000000000E+00 0.  1.
         21   -1    0    0  501  502 -0.00000000000E+00 -0.00000000000E+00 -0.42777208218E+03  0.42777208218E+03  0.00000000000E+00 0.  1.
         25    1    1    2    0    0 -0.25626772459E+02  0.91303586933E+02 -0.97385271685E+02  0.18466718061E+03  0.12500000000E+03 0.  0.
         25    1    1    2    0    0  0.11152009125E+03 -0.73957352823E+02 -0.11799872107E+03  0.21784195868E+03  0.12500000000E+03 0.  0.
         25    1    1    2    0    0 -0.85893318791E+02 -0.17346234109E+02 -0.69796581113E+02  0.16785445119E+03  0.12500000000E+03 0.  0.
</event>
<event>
 5    0  0.5474724E-005  0.2428304E+03  0.7546771E-02  0.1117922E+00
         21   -1    0    0  502  501  0.00000000000E+00  0.00000000000E+00  0.10762874317E+03  0.10762874317E+03  0.00000000000E+00 0. -1.
         21   -1    0    0  501  502 -0.00000000000E+00 -0.00000000000E+00 -0.54787027516E+03  0.54787027516E+03  0.00000000000E+00 0. -1.
         25    1    1    2    0    0  0.62816401208E+01 -0.75961828425E+02 -0.52825847099E+02  0.15564455821E+03  0.12500000000E+03 0.  0.
         25    1    1    2    0    0  0.32503440640E+02 -0.45849622774E+02 -0.16656169525E+03  0.21569993020E+03  0.12500000000E+03 0.  0.
         25    1    1    2    0    0 -0.38785080761E+02  0.12181145120E+03 -0.22085398964E+03  0.28415452991E+03  0.12500000000E+03 0.  0.
</event>
<event>
 5    0  0.5474724E-005  0.4030565E+03  0.7546771E-02  0.1042726E+00
         21   -1    0    0  502  501  0.00000000000E+00  0.00000000000E+00  0.12658211896E+03  0.12658211896E+03  0.00000000000E+00 0.  1.
         21   -1    0    0  501  502 -0.00000000000E+00 -0.00000000000E+00 -0.12833926207E+04  0.12833926207E+04  0.00000000000E+00 0.  1.
         25    1    1    2    0    0  0.22095026062E+03 -0.13862144949E+03 -0.24449468742E+03  0.37873153566E+03  0.12500000000E+03 0.  0.
         25    1    1    2    0    0 -0.20125709535E+03 -0.57225767434E+02 -0.53138251546E+03  0.58461233705E+03  0.12500000000E+03 0.  0.
         25    1    1    2    0    0 -0.19693165266E+02  0.19584721692E+03 -0.38093329890E+03  0.44663086699E+03  0.12500000000E+03 0.  0.
</event>
<event>
 5    0  0.5474724E-005  0.3029560E+03  0.7546771E-02  0.1083772E+00
         21   -1    0    0  502  501  0.00000000000E+00  0.00000000000E+00  0.12677377537E+04  0.12677377537E+04  0.00000000000E+00 0.  1.
         21   -1    0    0  501  502 -0.00000000000E+00 -0.00000000000E+00 -0.72398507627E+02  0.72398507627E+02  0.00000000000E+00 0.  1.
         25    1    1    2    0    0  0.27188112154E+02  0.58852254244E+02  0.20157562109E+03  0.24588719424E+03  0.12500000000E+03 0.  0.
         25    1    1    2    0    0  0.11879449150E+03 -0.15284479269E+03  0.38159060540E+03  0.44576905679E+03  0.12500000000E+03 0.  0.
         25    1    1    2    0    0 -0.14598260365E+03  0.93992538441E+02  0.61217301953E+03  0.64848001025E+03  0.12500000000E+03 0.  0.
</event>
<event>
 5    0  0.5474724E-005  0.2793995E+03  0.7546771E-02  0.1096017E+00
         21   -1    0    0  502  501  0.00000000000E+00  0.00000000000E+00  0.56669630951E+03  0.56669630951E+03  0.00000000000E+00 0.  1.
         21   -1    0    0  501  502 -0.00000000000E+00 -0.00000000000E+00 -0.13775297737E+03  0.13775297737E+03  0.00000000000E+00 0.  1.
         25    1    1    2    0    0  0.52727163508E+02 -0.11919745300E+03  0.33645213046E+03  0.38185497596E+03  0.12500000000E+03 0.  0.
         25    1    1    2    0    0 -0.25440581020E+02  0.11601078683E+03  0.15227289201E+02  0.17309707150E+03  0.12500000000E+03 0.  0.
         25    1    1    2    0    0 -0.27286582488E+02  0.31866661653E+01  0.77263912480E+02  0.14949723943E+03  0.12500000000E+03 0.  0.
</event>
<event>
 5    0  0.5474724E-005  0.4181349E+03  0.7546771E-02  0.1037675E+00
         21   -1    0    0  502  501  0.00000000000E+00  0.00000000000E+00  0.16863455372E+03  0.16863455372E+03  0.00000000000E+00 0. -1.
         21   -1    0    0  501  502 -0.00000000000E+00 -0.00000000000E+00 -0.10367792223E+04  0.10367792223E+04  0.00000000000E+00 0. -1.
         25    1    1    2    0    0 -0.18514658598E+03 -0.20817120405E+03 -0.22598215795E+03  0.37987819654E+03  0.12500000000E+03 0.  0.
         25    1    1    2    0    0  0.15664621472E+02  0.27080675487E+03 -0.35392067921E+03  0.46310530770E+03  0.12500000000E+03 0.  0.
         25    1    1    2    0    0  0.16948196451E+03 -0.62635550819E+02 -0.28824183139E+03  0.36243027175E+03  0.12500000000E+03 0.  0.
</event>
<event>
 5    0  0.5474724E-005  0.3208592E+03  0.7546771E-02  0.1075255E+00
         21   -1    0    0  502  501  0.00000000000E+00  0.00000000000E+00  0.10672575279E+04  0.10672575279E+04  0.00000000000E+00 0.  1.
         21   -1    0    0  501  502 -0.00000000000E+00 -0.00000000000E+00 -0.96462807723E+02  0.96462807723E+02  0.00000000000E+00 0.  1.
         25    1    1    2    0    0  0.14354855120E+03 -0.78555863018E+02  0.43978368031E+03  0.48560467011E+03  0.12500000000E+03 0.  0.
         25    1    1    2    0    0 -0.13520932327E+03 -0.73616750035E+02  0.14829140932E+03  0.24762134210E+03  0.12500000000E+03 0.  0.
         25    1    1    2    0    0 -0.83392279235E+01  0.15217261305E+03  0.38271963055E+03  0.43049432342E+03  0.12500000000E+03 0.  0.
</event>
<event>
 5    0  0.5474724E-005  0.4129800E+03  0.7546771E-02  0.1039376E+00
         21   -1    0    0  502  501  0.00000000000E+00  0.00000000000E+00  0.38969419403E+03  0.38969419403E+03  0.00000000000E+00 0.  1.
         21   -1    0    0  501  502 -0.00000000000E+00 -0.00000000000E+00 -0.43765715035E+03  0.43765715035E+03  0.00000000000E+00 0.  1.
         25    1    1    2    0    0 -0.14690933069E+03 -0.21501047541E+03 -0.11714110685E+03  0.31170321604E+03  0.12500000000E+03 0.  0.
         25    1    1    2    0    0  0.17392454646E+03  0.29078872456E+03  0.64870230638E+02  0.36693456776E+03  0.12500000000E+03 0.  0.
         25    1    1    2    0    0 -0.27015215771E+02 -0.75778249158E+02  0.43079198934E+01  0.14871356059E+03  0.12500000000E+03 0.  0.
</event>
<event>
 5    0  0.5474724E-005  0.5800725E+03  0.7546771E-02  0.9947634E-01
         21   -1    0    0  502  501  0.00000000000E+00  0.00000000000E+00  0.77085441442E+03  0.77085441442E+03  0.00000000000E+00 0.  1.
         21   -1    0    0  501  502 -0.00000000000E+00 -0.00000000000E+00 -0.43650794852E+03  0.43650794852E+03  0.00000000000E+00 0.  1.
         25    1    1    2    0    0 -0.17812385550E+03 -0.25241833609E+03  0.42280584292E+03  0.53836131464E+03  0.12500000000E+03 0.  0.
         25    1    1    2    0    0  0.31008225706E+03  0.14784939071E+03  0.10848677563E+03  0.38131985126E+03  0.12500000000E+03 0.  0.
         25    1    1    2    0    0 -0.13195840156E+03  0.10456894537E+03 -0.19694615266E+03  0.28768119703E+03  0.12500000000E+03 0.  0.
</event>
<event>
 5    0  0.5474724E-005  0.3971701E+03  0.7546771E-02  0.1044764E+00
         21   -1    0    0  502  501  0.00000000000E+00  0.00000000000E+00  0.70648221237E+03  0.70648221237E+03  0.00000000000E+00 0. -1.
         21   -1    0    0  501  502 -0.00000000000E+00 -0.00000000000E+00 -0.22328109192E+03  0.22328109192E+03  0.00000000000E+00 0. -1.
         25    1    1    2    0    0  0.97860042835E+02 -0.18424122450E+03  0.17646107167E+03  0.30047450241E+03  0.12500000000E+03 0.  0.
         25    1    1    2    0    0 -0.71946090073E+02  0.29645614155E+03  0.68639966099E+02  0.33674757413E+03  0.12500000000E+03 0.  0.
         25    1    1    2    0    0 -0.25913952761E+02 -0.11221491705E+03  0.23810008268E+03  0.29254122774E+03  0.12500000000E+03 0.  0.
</event>
<event>
 5    0  0.5474724E-005  0.3346342E+03  0.7546771E-02  0.1069105E+00
         21   -1    0    0  502  501  0.00000000000E+00  0.00000000000E+00  0.35501331375E+03  0.35501331375E+03  0.00000000000E+00 0. -1.
         21   -1    0    0  501  502 -0.00000000000E+00 -0.00000000000E+00 -0.31542495125E+03  0.31542495125E+03  0.00000000000E+00 0. -1.
         25    1    1    2    0    0 -0.96453836176E+02 -0.14413082923E+03  0.14588815017E+03  0.25881536046E+03  0.12500000000E+03 0.  0.
         25    1    1    2    0    0  0.59875766455E+01  0.11924313501E+03  0.60405068320E+02  0.18310802440E+03  0.12500000000E+03 0.  0.
         25    1    1    2    0    0  0.90466259530E+02  0.24887694220E+02 -0.16670485599E+03  0.22851488015E+03  0.12500000000E+03 0.  0.
</event>
<event>
 5    0  0.5474724E-005  0.3554312E+03  0.7546771E-02  0.1060408E+00
         21   -1    0    0  502  501  0.00000000000E+00  0.00000000000E+00  0.17823295832E+03  0.17823295832E+03  0.00000000000E+00 0.  1.
         21   -1    0    0  501  502 -0.00000000000E+00 -0.00000000000E+00 -0.70879899424E+03  0.70879899424E+03  0.00000000000E+00 0.  1.
         25    1    1    2    0    0 -0.43598897739E+02  0.10338376396E+03 -0.45126470168E+03  0.48151209488E+03  0.12500000000E+03 0.  0.
         25    1    1    2    0    0 -0.37002029167E+02 -0.12064673835E+03 -0.15679162830E+03  0.23692488333E+03  0.12500000000E+03 0.  0.
         25    1    1    2    0    0  0.80600926906E+02  0.17262974386E+02  0.77490294064E+02  0.16859497435E+03  0.12500000000E+03 0.  0.
</event>
<event>
 5    0  0.5474724E-005  0.2821125E+03  0.7546771E-02  0.1094541E+00
         21   -1    0    0  502  501  0.00000000000E+00  0.00000000000E+00  0.30261208982E+03  0.30261208982E+03  0.00000000000E+00 0. -1.
         21   -1    0    0  501  502 -0.00000000000E+00 -0.00000000000E+00 -0.26300162232E+03  0.26300162232E+03  0.00000000000E+00 0. -1.
         25    1    1    2    0    0 -0.23379653462E+02 -0.11566158059E+02  0.73504271453E+02  0.14733723945E+03  0.12500000000E+03 0.  0.
         25    1    1    2    0    0  0.51111917433E+01 -0.52656102843E+02 -0.17286846945E+03  0.21978921078E+03  0.12500000000E+03 0.  0.
         25    1    1    2    0    0  0.18268461719E+02  0.64222260901E+02  0.13897466549E+03  0.19848726190E+03  0.12500000000E+03 0.  0.
</event>
<event>
 5    0  0.5474724E-005  0.2567232E+03  0.7546771E-02  0.1109128E+00
         21   -1    0    0  502  501  0.00000000000E+00  0.00000000000E+00  0.11240545118E+04  0.11240545118E+04  0.00000000000E+00 0. -1.
         21   -1    0    0  501  502 -0.00000000000E+00 -0.00000000000E+00 -0.58633113383E+02  0.58633113383E+02  0.00000000000E+00 0. -1.
         25    1    1    2    0    0 -0.15311332113E+03  0.38260975187E+02  0.34772548122E+03  0.40180293879E+03  0.12500000000E+03 0.  0.
         25    1    1    2    0    0  0.12506347055E+03 -0.29703119955E+02  0.41283301205E+03  0.45008803898E+03  0.12500000000E+03 0.  0.
         25    1    1    2    0    0  0.28049850582E+02 -0.85578552320E+01  0.30486290519E+03  0.33079664745E+03  0.12500000000E+03 0.  0.
</event>
<event>
 5    0  0.5474724E-005  0.3305527E+03  0.7546771E-02  0.1070893E+00
         21   -1    0    0  502  501  0.00000000000E+00  0.00000000000E+00  0.10807131362E+03  0.10807131362E+03  0.00000000000E+00 0.  1.
         21   -1    0    0  501  502 -0.00000000000E+00 -0.00000000000E+00 -0.10110459553E+04  0.10110459553E+04  0.00000000000E+00 0.  1.
         25    1    1    2    0    0 -0.18714966117E+03 -0.12471497636E+02 -0.21209897579E+03  0.30950203466E+03  0.12500000000E+03 0.  0.
         25    1    1    2    0    0  0.11638172968E+03  0.13046286374E+02 -0.93366928158E+02  0.19508279233E+03  0.12500000000E+03 0.  0.
         25    1    1    2    0    0  0.70767931497E+02 -0.57478873807E+00 -0.59750873774E+03  0.61453244193E+03  0.12500000000E+03 0.  0.
</event>
<event>
 5    0  0.5474724E-005  0.3989377E+03  0.7546771E-02  0.1044148E+00
         21   -1    0    0  502  501  0.00000000000E+00  0.00000000000E+00  0.25823587029E+03  0.25823587029E+03  0.00000000000E+00 0. -1.
         21   -1    0    0  501  502 -0.00000000000E+00 -0.00000000000E+00 -0.61630192646E+03  0.61630192646E+03  0.00000000000E+00 0. -1.
         25    1    1    2    0    0 -0.48210267129E+02 -0.31304790002E+03 -0.20356765981E+03  0.39672157704E+03  0.12500000000E+03 0.  0.
         25    1    1    2    0    0  0.32071083610E+02  0.44109505470E+02  0.12720683112E+02  0.13697086791E+03  0.12500000000E+03 0.  0.
         25    1    1    2    0    0  0.16139183519E+02  0.26893839455E+03 -0.16721907948E+03  0.34084535181E+03  0.12500000000E+03 0.  0.
</event>
<event>
 5    0  0.5474724E-005  0.2472006E+03  0.7546771E-02  0.1115087E+00
         21   -1    0    0  502  501  0.00000000000E+00  0.00000000000E+00  0.55016032442E+03  0.55016032442E+03  0.00000000000E+00 0. -1.
         21   -1    0    0  501  502 -0.00000000000E+00 -0.00000000000E+00 -0.11107329908E+03  0.11107329908E+03  0.00000000000E+00 0. -1.
         25    1    1    2    0    0  0.44991016876E+02 -0.40543116886E+02  0.15249509031E+02  0.13973361604E+03  0.12500000000E+03 0.  0.
         25    1    1    2    0    0  0.64668873475E+01  0.63554324739E+02  0.10778884937E+03  0.17698703024E+03  0.12500000000E+03 0.  0.
         25    1    1    2    0    0 -0.51457904223E+02 -0.23011207853E+02  0.31604866694E+03  0.34451297722E+03  0.12500000000E+03 0.  0.
</event>
<event>
 5    0  0.5474724E-005  0.2938307E+03  0.7546771E-02  0.1088366E+00
         21   -1    0    0  502  501  0.00000000000E+00  0.00000000000E+00  0.15935040884E+03  0.15935040884E+03  0.00000000000E+00 0.  1.
         21   -1    0    0  501  502 -0.00000000000E+00 -0.00000000000E+00 -0.54180280584E+03  0.54180280584E+03  0.00000000000E+00 0.  1.
         25    1    1    2    0    0 -0.11008275515E+03 -0.23934979955E+02 -0.22730846100E+03  0.28281660611E+03  0.12500000000E+03 0.  0.
         25    1    1    2    0    0 -0.16649827190E+02  0.36753216210E+02 -0.19534393755E+03  0.23539810871E+03  0.12500000000E+03 0.  0.
         25    1    1    2    0    0  0.12673258234E+03 -0.12818236254E+02  0.40200001554E+02  0.18293849987E+03  0.12500000000E+03 0.  0.
</event>
<event>
 5    0  0.5474724E-005  0.3376889E+03  0.7546771E-02  0.1067785E+00
         21   -1    0    0  502  501  0.00000000000E+00  0.00000000000E+00  0.10307582369E+03  0.10307582369E+03  0.00000000000E+00 0. -1.
         21   -1    0    0  501  502 -0.00000000000E+00 -0.00000000000E+00 -0.11063097786E+04  0.11063097786E+04  0.00000000000E+00 0. -1.
         25    1    1    2    0    0 -0.82356906696E+01 -0.92580373058E+02 -0.11107397005E+02  0.15616442087E+03  0.12500000000E+03 0.  0.
         25    1    1    2    0    0  0.49523943851E+02  0.10190438183E+03 -0.26450048755E+03  0.31372381479E+03  0.12500000000E+03 0.  0.
         25    1    1    2    0    0 -0.41288253182E+02 -0.93240087689E+01 -0.72762607039E+03  0.73949736667E+03  0.12500000000E+03 0.  0.
</event>
<event>
 5    0  0.5474724E-005  0.2546383E+03  0.7546771E-02  0.1110408E+00
         21   -1    0    0  502  501  0.00000000000E+00  0.00000000000E+00  0.61660482226E+03  0.61660482226E+03  0.00000000000E+00 0. -1.
         21   -1    0    0  501  502 -0.00000000000E+00 -0.00000000000E+00 -0.10515758172E+03  0.10515758172E+03  0.00000000000E+00 0. -1.
         25    1    1    2    0    0 -0.71250806711E+02 -0.12092873753E+03  0.12158733010E+03  0.22385020853E+03  0.12500000000E+03 0.  0.
         25    1    1    2    0    0  0.21457181355E+02  0.28349445648E+02  0.95489025013E+02  0.16126765205E+03  0.12500000000E+03 0.  0.
         25    1    1    2    0    0  0.49793625356E+02  0.92579291885E+02  0.29437088543E+03  0.33664454340E+03  0.12500000000E+03 0.  0.
</event>
<event>
 5    0  0.5474724E-005  0.2984676E+03  0.7546771E-02  0.1086009E+00
         21   -1    0    0  502  501  0.00000000000E+00  0.00000000000E+00  0.11422677339E+04  0.11422677339E+04  0.00000000000E+00 0.  1.
         21   -1    0    0  501  502 -0.00000000000E+00 -0.00000000000E+00 -0.77987754247E+02  0.77987754247E+02  0.00000000000E+00 0.  1.
         25    1    1    2    0    0  0.54375736705E+02 -0.69472615986E+02  0.68255420193E+03  0.69949153224E+03  0.12500000000E+03 0.  0.
         25    1    1    2    0    0 -0.13683907283E+03  0.78196384021E+02  0.18433929911E+03  0.27284717980E+03  0.12500000000E+03 0.  0.
         25    1    1    2    0    0  0.82463336125E+02 -0.87237680348E+01  0.19738647861E+03  0.24791677610E+03  0.12500000000E+03 0.  0.
</event>
<event>
 5    0  0.5474724E-005  0.4555606E+03  0.7546771E-02  0.1026077E+00
         21   -1    0    0  502  501  0.00000000000E+00  0.00000000000E+00  0.92643616735E+02  0.92643616735E+02  0.00000000000E+00 0.  1.
         21   -1    0    0  501  502 -0.00000000000E+00 -0.00000000000E+00 -0.22401483796E+04  0.22401483796E+04  0.00000000000E+00 0.  1.
         25    1    1    2    0    0 -0.63672796144E+02  0.49069503791E+02 -0.12899710175E+04  0.12985038572E+04  0.12500000000E+03 0.  0.
         25    1    1    2    0    0  0.20390654127E+03 -0.14153227307E+02 -0.11166485290E+03  0.26433355971E+03  0.12500000000E+03 0.  0.
         25    1    1    2    0    0 -0.14023374513E+03 -0.34916276484E+02 -0.74586889247E+03  0.76995457944E+03  0.12500000000E+03 0.  0.
</event>
<event>
 5    0  0.5474724E-005  0.2073553E+03  0.7546771E-02  0.1143678E+00
         21   -1    0    0  502  501  0.00000000000E+00  0.00000000000E+00  0.59866965121E+03  0.59866965121E+03  0.00000000000E+00 0.  1.
         21   -1    0    0  501  502 -0.00000000000E+00 -0.00000000000E+00 -0.71819585089E+02  0.71819585089E+02  0.00000000000E+00 0.  1.
         25    1    1    2    0    0 -0.85332584001E+01 -0.25988549052E+02  0.17546427794E+03  0.21716568332E+03  0.12500000000E+03 0.  0.
         25    1    1    2    0    0 -0.61200774953E+02  0.18886492597E+02  0.20468046208E+03  0.24823643168E+03  0.12500000000E+03 0.  0.
         25    1    1    2    0    0  0.69734033353E+02  0.71020564551E+01  0.14670532611E+03  0.20508712130E+03  0.12500000000E+03 0.  0.
</event>
<event>
 5    0  0.5474724E-005  0.3234928E+03  0.7546771E-02  0.1074053E+00
         21   -1    0    0  502  501  0.00000000000E+00  0.00000000000E+00  0.29516567773E+03  0.29516567773E+03  0.00000000000E+00 0. -1.
         21   -1    0    0  501  502 -0.00000000000E+00 -0.00000000000E+00 -0.35453854212E+03  0.35453854212E+03  0.00000000000E+00 0. -1.
         25    1    1    2    0    0  0.59333309783E+02  0.76562274592E+02 -0.92004196300E+01  0.15840413903E+03  0.12500000000E+03 0.  0.
         25    1    1    2    0    0 -0.19569616404E+03 -0.14815127338E+03 -0.88421291623E+02  0.28929070714E+03  0.12500000000E+03 0.  0.
         25    1    1    2    0    0  0.13636285426E+03  0.71588998787E+02  0.38248846867E+02  0.20200937368E+03  0.12500000000E+03 0.  0.
</event>
<event>
 5    0  0.5474724E-005  0.3741364E+03  0.7546771E-02  0.1053122E+00
         21   -1    0    0  502  501  0.00000000000E+00  0.00000000000E+00  0.19025296733E+03  0.19025296733E+03  0.00000000000E+00 0. -1.
         21   -1    0    0  501  502 -0.00000000000E+00 -0.00000000000E+00 -0.73574715931E+03  0.73574715931E+03  0.00000000000E+00 0. -1.
         25    1    1    2    0    0  0.41566480941E+02  0.18477413751E+03 -0.26961400938E+02  0.22851952077E+03  0.12500000000E+03 0.  0.
         25    1    1    2    0    0 -0.63280072995E+02 -0.91010147375E+02 -0.51311389843E+03  0.53962773031E+03  0.12500000000E+03 0.  0.
         25    1    1    2    0    0  0.21713592054E+02 -0.93763990137E+02 -0.54188926197E+01  0.15785287556E+03  0.12500000000E+03 0.  0.
</event>
<event>
 5    0  0.5474724E-005  0.2696030E+03  0.7546771E-02  0.1101507E+00
         21   -1    0    0  502  501  0.00000000000E+00  0.00000000000E+00  0.11237962688E+03  0.11237962688E+03  0.00000000000E+00 0.  1.
         21   -1    0    0  501  502 -0.00000000000E+00 -0.00000000000E+00 -0.64678807566E+03  0.64678807566E+03  0.00000000000E+00 0.  1.
         25    1    1    2    0    0  0.50784720765E+01  0.79326457184E+02  0.16212408783E+01  0.14814218208E+03  0.12500000000E+03 0.  0.
         25    1    1    2    0    0 -0.58833284467E+02 -0.85675159324E+01 -0.28538161075E+03  0.31717884772E+03  0.12500000000E+03 0.  0.
         25    1    1    2    0    0  0.53754812390E+02 -0.70758941252E+02 -0.25064807891E+03  0.29384667274E+03  0.12500000000E+03 0.  0.
</event>
<event>
 5    0  0.5474724E-005  0.2396399E+03  0.7546771E-02  0.1120033E+00
         21   -1    0    0  502  501  0.00000000000E+00  0.00000000000E+00  0.21169457445E+03  0.21169457445E+03  0.00000000000E+00 0. -1.
         21   -1    0    0  501  502 -0.00000000000E+00 -0.00000000000E+00 -0.27127413572E+03  0.27127413572E+03  0.00000000000E+00 0. -1.
         25    1    1    2    0    0 -0.25669123977E+02  0.96153999044E+01  0.34116448768E+02  0.13243976713E+03  0.12500000000E+03 0.  0.
         25    1    1    2    0    0 -0.99040564527E+02 -0.74291926113E+01 -0.27836177758E+02  0.16206196073E+03  0.12500000000E+03 0.  0.
         25    1    1    2    0    0  0.12470968850E+03 -0.21862072931E+01 -0.65859832282E+02  0.18846698230E+03  0.12500000000E+03 0.  0.
</event>
<event>
 5    0  0.5610984E-005  0.3953624E+03  0.7546771E-02  0.1045397E+00
         21   -1    0    0  502  501  0.00000000000E+00  0.00000000000E+00  0.20984878944E+03  0.20984878944E+03  0.00000000000E+00 0.  1.
         21   -1    0    0  501  502 -0.00000000000E+00 -0.00000000000E+00 -0.74487651989E+03  0.74487651989E+03  0.00000000000E+00 0.  1.
         25    1    1    2    0    0 -0.12683726934E+03  0.64729811721E+02 -0.45395467087E+03  0.49191207001E+03  0.12500000000E+03 0.  0.
         25    1    1    2    0    0  0.18099196160E+03  0.12037684971E+02 -0.17417333275E+03  0.28082796489E+03  0.12500000000E+03 0.  0.
         25    1    1    2    0    0 -0.54154692261E+02 -0.76767496692E+02  0.93100273169E+02  0.18198527442E+03  0.12500000000E+03 0.  0.
</event>
<event>
 5    0  0.5474724E-005  0.3949570E+03  0.7546771E-02  0.1045540E+00
         21   -1    0    0  502  501  0.00000000000E+00  0.00000000000E+00  0.11708727821E+03  0.11708727821E+03  0.00000000000E+00 0.  1.
         21   -1    0    0  501  502 -0.00000000000E+00 -0.00000000000E+00 -0.13322627444E+04  0.13322627444E+04  0.00000000000E+00 0.  1.
         25    1    1    2    0    0  0.11509024209E+03 -0.25820070028E+03 -0.26296666205E+03  0.40581994875E+03  0.12500000000E+03 0.  0.
         25    1    1    2    0    0 -0.15452581739E+03  0.14683437158E+03 -0.46057708250E+03  0.52268040890E+03  0.12500000000E+03 0.  0.
         25    1    1    2    0    0  0.39435575299E+02  0.11136632870E+03 -0.49163172164E+03  0.52084966496E+03  0.12500000000E+03 0.  0.
</event>
<event>
 5    0  0.5474724E-005  0.5430208E+03  0.7546771E-02  0.1003122E+00
         21   -1    0    0  502  501  0.00000000000E+00  0.00000000000E+00  0.27246939919E+03  0.27246939919E+03  0.00000000000E+00 0.  1.
         21   -1    0    0  501  502 -0.00000000000E+00 -0.00000000000E+00 -0.10822191748E+04  0.10822191748E+04  0.00000000000E+00 0.  1.
         25    1    1    2    0    0 -0.26047374584E+03  0.32032915442E+02  0.99696544455E+02  0.30730616805E+03  0.12500000000E+03 0.  0.
         25    1    1    2    0    0  0.17164138412E+03 -0.57751389993E+01 -0.12250151518E+03  0.24520550197E+03  0.12500000000E+03 0.  0.
         25    1    1    2    0    0  0.88832361723E+02 -0.26257776442E+02 -0.78694480490E+03  0.80217690397E+03  0.12500000000E+03 0.  0.
</event>
<event>
 5    0  0.5474724E-005  0.3503835E+03  0.7546771E-02  0.1062458E+00
         21   -1    0    0  502  501  0.00000000000E+00  0.00000000000E+00  0.21264918410E+03  0.21264918410E+03  0.00000000000E+00 0. -1.
         21   -1    0    0  501  502 -0.00000000000E+00 -0.00000000000E+00 -0.57732942016E+03  0.57732942016E+03  0.00000000000E+00 0. -1.
         25    1    1    2    0    0 -0.25640918271E+02 -0.77057048916E+02 -0.21452026654E+02  0.15060024875E+03  0.12500000000E+03 0.  0.
         25    1    1    2    0    0  0.21978238935E+03  0.14414019164E+02 -0.45292224315E+02  0.25727115695E+03  0.12500000000E+03 0.  0.
         25    1    1    2    0    0 -0.19414147108E+03  0.62643029753E+02 -0.29793598509E+03  0.38210719855E+03  0.12500000000E+03 0.  0.
</event>
<event>
 5    0  0.5474724E-005  0.2986469E+03  0.7546771E-02  0.1085919E+00
         21   -1    0    0  502  501  0.00000000000E+00  0.00000000000E+00  0.14367840378E+03  0.14367840378E+03  0.00000000000E+00 0.  1.
         21   -1    0    0  501  502 -0.00000000000E+00 -0.00000000000E+00 -0.62076129498E+03  0.62076129498E+03  0.00000000000E+00 0.  1.
         25    1    1    2    0    0  0.13987131751E+02 -0.46950124726E+02 -0.33964757101E+03  0.36521969629E+03  0.12500000000E+03 0.  0.
         25    1    1    2    0    0  0.37419238784E+02 -0.89124048001E+02 -0.13434340019E+03  0.20740406104E+03  0.12500000000E+03 0.  0.
         25    1    1    2    0    0 -0.51406370535E+02  0.13607417273E+03 -0.30919199992E+01  0.19181594142E+03  0.12500000000E+03 0.  0.
</event>
<event>
 5    0  0.5474724E-005  0.3939111E+03  0.7546771E-02  0.1045909E+00
         21   -1    0    0  502  501  0.00000000000E+00  0.00000000000E+00  0.11829420647E+03  0.11829420647E+03  0.00000000000E+00 0.  1.
         21   -1    0    0  501  502 -0.00000000000E+00 -0.00000000000E+00 -0.13116953478E+04  0.13116953478E+04  0.00000000000E+00 0.  1.
         25    1    1    2    0    0  0.30116807704E+03 -0.11550646014E+02 -0.58019098757E+03  0.66564420685E+03  0.12500000000E+03 0.  0.
         25    1    1    2    0    0 -0.17592179771E+03  0.92093695637E+02 -0.46155766679E+03  0.51777428235E+03  0.12500000000E+03 0.  0.
         25    1    1    2    0    0 -0.12524627933E+03 -0.80543049623E+02 -0.15165248699E+03  0.24657106509E+03  0.12500000000E+03 0.  0.
</event>
<event>
 5    0  0.5474724E-005  0.6724275E+03  0.7546771E-02  0.9765582E-01
         21   -1    0    0  502  501  0.00000000000E+00  0.00000000000E+00  0.10757577076E+04  0.10757577076E+04  0.00000000000E+00 0. -1.
         21   -1    0    0  501  502 -0.00000000000E+00 -0.00000000000E+00 -0.42031656132E+03  0.42031656132E+03  0.00000000000E+00 0. -1.
         25    1    1    2    0    0 -0.16199343067E+03  0.36013926934E+03  0.74064168974E+03  0.84859724102E+03  0.12500000000E+03 0.  0.
         25    1    1    2    0    0 -0.28144856075E+01 -0.25691299064E+03 -0.23674260350E+03  0.37105830593E+03  0.12500000000E+03 0.  0.
         25    1    1    2    0    0  0.16480791628E+03 -0.10322627869E+03  0.15154206000E+03  0.27641872192E+03  0.12500000000E+03 0.  0.
</event>
<event>
 5    0  0.5474724E-005  0.3421012E+03  0.7546771E-02  0.1065904E+00
         21   -1    0    0  502  501  0.00000000000E+00  0.00000000000E+00  0.70412416920E+03  0.70412416920E+03  0.00000000000E+00 0. -1.
         21   -1    0    0  501  502 -0.00000000000E+00 -0.00000000000E+00 -0.16621110937E+03  0.16621110937E+03  0.00000000000E+00 0. -1.
         25    1    1    2    0    0  0.13869651292E+03  0.18676597399E+03  0.19536703592E+03  0.32849890481E+03  0.12500000000E+03 0.  0.
         25    1    1    2    0    0 -0.21236460361E+02 -0.13198072902E+03  0.36307934972E+02  0.18658286690E+03  0.12500000000E+03 0.  0.
         25    1    1    2    0    0 -0.11746005256E+03 -0.54785244979E+02  0.30623808894E+03  0.35525350686E+03  0.12500000000E+03 0.  0.
</event>
<event>
 5    0  0.5474724E-005  0.2846740E+03  0.7546771E-02  0.1093163E+00
         21   -1    0    0  502  501  0.00000000000E+00  0.00000000000E+00  0.66205178084E+03  0.66205178084E+03  0.00000000000E+00 0. -1.
         21   -1    0    0  501  502 -0.00000000000E+00 -0.00000000000E+00 -0.12240630207E+03  0.12240630207E+03  0.00000000000E+00 0. -1.
         25    1    1    2    0    0 -0.70141937505E+02  0.87921411997E+02  0.20500956865E+03  0.26514899457E+03  0.12500000000E+03 0.  0.
         25    1    1    2    0    0 -0.82103905658E+02  0.48304703569E+01  0.43623023318E+02  0.15586004277E+03  0.12500000000E+03 0.  0.
         25    1    1    2    0    0  0.15224584316E+03 -0.92751882354E+02  0.29101288680E+03  0.36344904557E+03  0.12500000000E+03 0.  0.
</event>
<event>
 5    0  0.5474724E-005  0.2334220E+03  0.7546771E-02  0.1124254E+00
         21   -1    0    0  502  501  0.00000000000E+00  0.00000000000E+00  0.32551417411E+03  0.32551417411E+03  0.00000000000E+00 0.  1.
         21   -1    0    0  501  502 -0.00000000000E+00 -0.00000000000E+00 -0.16738385864E+03  0.16738385864E+03  0.00000000000E+00 0.  1.
         25    1    1    2    0    0  0.21074843024E+02 -0.52252230704E+02 -0.78602513723E+01  0.13733618669E+03  0.12500000000E+03 0.  0.
         25    1    1    2    0    0  0.21494897987E+01 -0.23093304314E+02 -0.78688923575E+01  0.12737676585E+03  0.12500000000E+03 0.  0.
         25    1    1    2    0    0 -0.23224332822E+02  0.75345535018E+02  0.17385945920E+03  0.22818508022E+03  0.12500000000E+03 0.  0.
</event>
<event>
 5    0  0.5474724E-005  0.2665975E+03  0.7546771E-02  0.1103243E+00
         21   -1    0    0  502  501  0.00000000000E+00  0.00000000000E+00  0.11184332160E+03  0.11184332160E+03  0.00000000000E+00 0. -1.
         21   -1    0    0  501  502 -0.00000000000E+00 -0.00000000000E+00 -0.63548036223E+03  0.63548036223E+03  0.00000000000E+00 0. -1.
         25    1    1    2    0    0  0.59696506716E+02 -0.54093886555E+02 -0.95702988937E+02  0.17684423533E+03  0.12500000000E+03 0.  0.
         25    1    1    2    0    0  0.96724835867E+01  0.44837476962E+02 -0.15711994414E+02  0.13407394619E+03  0.12500000000E+03 0.  0.
         25    1    1    2    0    0 -0.69368990303E+02  0.92564095928E+01 -0.41222205728E+03  0.43640550231E+03  0.12500000000E+03 0.  0.
</event>
<event>
 5    0  0.5474724E-005  0.3026005E+03  0.7546771E-02  0.1083948E+00
         21   -1    0    0  502  501  0.00000000000E+00  0.00000000000E+00  0.15841866843E+04  0.15841866843E+04  0.00000000000E+00 0.  1.
         21   -1    0    0  501  502 -0.00000000000E+00 -0.00000000000E+00 -0.57800658615E+02  0.57800658615E+02  0.00000000000E+00 0.  1.
         25    1    1    2    0    0  0.13908467036E+03  0.92363613021E+02  0.47913630040E+03  0.52256308413E+03  0.12500000000E+03 0.  0.
         25    1    1    2    0    0 -0.93382619665E+02  0.60625953259E+02  0.28366689619E+03  0.32937475292E+03  0.12500000000E+03 0.  0.
         25    1    1    2    0    0 -0.45702050690E+02 -0.15298956628E+03  0.76358282905E+03  0.79004950582E+03  0.12500000000E+03 0.  0.
</event>
<event>
 5    0  0.5474724E-005  0.2491472E+03  0.7546771E-02  0.1113845E+00
         21   -1    0    0  502  501  0.00000000000E+00  0.00000000000E+00  0.82072310579E+02  0.82072310579E+02  0.00000000000E+00 0. -1.
         21   -1    0    0  501  502 -0.00000000000E+00 -0.00000000000E+00 -0.75633701193E+03  0.75633701193E+03  0.00000000000E+00 0. -1.
         25    1    1    2    0    0  0.12253177877E+02  0.42114727461E+02 -0.98229640536E+02  0.16491771559E+03  0.12500000000E+03 0.  0.
         25    1    1    2    0    0  0.85755338794E+02 -0.23870636942E+01 -0.13484448448E+03  0.20289827796E+03  0.12500000000E+03 0.  0.
         25    1    1    2    0    0 -0.98008516671E+02 -0.39727663766E+02 -0.44119057634E+03  0.47059332896E+03  0.12500000000E+03 0.  0.
</event>
<event>
 5    0  0.5474724E-005  0.3145416E+03  0.7546771E-02  0.1078189E+00
         21   -1    0    0  502  501  0.00000000000E+00  0.00000000000E+00  0.18880860928E+04  0.18880860928E+04  0.00000000000E+00 0. -1.
         21   -1    0    0  501  502 -0.00000000000E+00 -0.00000000000E+00 -0.52400381955E+02  0.52400381955E+02  0.00000000000E+00 0. -1.
         25    1    1    2    0    0 -0.85525018828E+02  0.16886172819E+02  0.33536641339E+03  0.36836843364E+03  0.12500000000E+03 0.  0.
         25    1    1    2    0    0  0.20142913253E+02  0.18363276912E+03  0.65312138905E+03  0.69015888003E+03  0.12500000000E+03 0.  0.
         25    1    1    2    0    0  0.65382105575E+02 -0.20051894194E+03  0.84719790843E+03  0.88195916110E+03  0.12500000000E+03 0.  0.
</event>
<event>
 5    0  0.5474724E-005  0.2546356E+03  0.7546771E-02  0.1110410E+00
         21   -1    0    0  502  501  0.00000000000E+00  0.00000000000E+00  0.36220562229E+03  0.36220562229E+03  0.00000000000E+00 0. -1.
         21   -1    0    0  501  502 -0.00000000000E+00 -0.00000000000E+00 -0.17901238508E+03  0.17901238508E+03  0.00000000000E+00 0. -1.
         25    1    1    2    0    0  0.20435641506E+02  0.10865568348E+03  0.16834991220E+03  0.23704507153E+03  0.12500000000E+03 0.  0.
         25    1    1    2    0    0 -0.52331000088E+02 -0.52115395401E+02 -0.43726049066E+02  0.15162953332E+03  0.12500000000E+03 0.  0.
         25    1    1    2    0    0  0.31895358582E+02 -0.56540288076E+02  0.58569374067E+02  0.15254340252E+03  0.12500000000E+03 0.  0.
</event>
<event>
 5    0  0.5474724E-005  0.2145388E+03  0.7546771E-02  0.1138021E+00
         21   -1    0    0  502  501  0.00000000000E+00  0.00000000000E+00  0.40555730278E+02  0.40555730278E+02  0.00000000000E+00 0.  1.
         21   -1    0    0  501  502 -0.00000000000E+00 -0.00000000000E+00 -0.11349052259E+04  0.11349052259E+04  0.00000000000E+00 0.  1.
         25    1    1    2    0    0  0.11356472575E+01 -0.66545105025E+01 -0.30009706581E+03  0.32515968556E+03  0.12500000000E+03 0.  0.
         25    1    1    2    0    0 -0.12838172571E+02 -0.41039827158E+02 -0.19101470639E+03  0.23229443417E+03  0.12500000000E+03 0.  0.
         25    1    1    2    0    0  0.11702525314E+02  0.47694337661E+02 -0.60323772345E+03  0.61800683648E+03  0.12500000000E+03 0.  0.
</event>
<event>
 5    0  0.5474724E-005  0.5002637E+03  0.7546771E-02  0.1013710E+00
         21   -1    0    0  502  501  0.00000000000E+00  0.00000000000E+00  0.46589685982E+04  0.46589685982E+04  0.00000000000E+00 0.  1.
         21   -1    0    0  501  502 -0.00000000000E+00 -0.00000000000E+00 -0.53716566095E+02  0.53716566095E+02  0.00000000000E+00 0.  1.
         25    1    1    2    0    0  0.14672107168E+03 -0.29552904640E+03  0.22276419208E+04  0.22554108312E+04  0.12500000000E+03 0.  0.
         25    1    1    2    0    0 -0.21291770926E+03 -0.34674646103E+02  0.74502572329E+03  0.78563643650E+03  0.12500000000E+03 0.  0.
         25    1    1    2    0    0  0.66196637575E+02  0.33020369250E+03  0.16325843881E+04  0.16716378967E+04  0.12500000000E+03 0.  0.
</event>
<event>
 5    0  0.5474724E-005  0.4033602E+03  0.7546771E-02  0.1042622E+00
         21   -1    0    0  502  501  0.00000000000E+00  0.00000000000E+00  0.98583621624E+03  0.98583621624E+03  0.00000000000E+00 0.  1.
         21   -1    0    0  501  502 -0.00000000000E+00 -0.00000000000E+00 -0.16503700946E+03  0.16503700946E+03  0.00000000000E+00 0.  1.
         25    1    1    2    0    0 -0.96568883517E+02  0.18271807105E+03  0.38060382168E+03  0.45077235034E+03  0.12500000000E+03 0.  0.
         25    1    1    2    0    0 -0.13150363549E+03  0.85741894010E+01  0.29424092487E+03  0.34578815009E+03  0.12500000000E+03 0.  0.
         25    1    1    2    0    0  0.22807251901E+03 -0.19129226045E+03  0.14595446023E+03  0.35431272528E+03  0.12500000000E+03 0.  0.
</event>
