<event>
 4    0  0.2193754E-002  0.2664708E+03  0.7546771E-02  0.1103317E+00
         21   -1    0    0  502  501  0.00000000000E+00  0.00000000000E+00  0.19618791865E+04  0.19618791865E+04  0.00000000000E+00 0. -1.
         21   -1    0    0  501  502 -0.00000000000E+00 -0.00000000000E+00 -0.36193195805E+02  0.36193195805E+02  0.00000000000E+00 0. -1.
         25    1    1    2    0    0  0.12499137628E+03  0.39414772707E+02  0.16956565336E+04  0.17053012779E+04  0.12500000000E+03 0.  0.
         25    1    1    2    0    0 -0.12499137628E+03 -0.39414772707E+02  0.23002945714E+03  0.29277110445E+03  0.12500000000E+03 0.  0.
</event>
<event>
 4    0  0.2193754E-002  0.1934179E+03  0.7546771E-02  0.1155414E+00
         21   -1    0    0  502  501  0.00000000000E+00  0.00000000000E+00  0.11268560354E+04  0.11268560354E+04  0.00000000000E+00 0.  1.
         21   -1    0    0  501  502 -0.00000000000E+00 -0.00000000000E+00 -0.33198998422E+02  0.33198998422E+02  0.00000000000E+00 0.  1.
         25    1    1    2    0    0 -0.11614444381E+03  0.66123266385E+02  0.73467294878E+03  0.75712030739E+03  0.12500000000E+03 0.  0.
         25    1    1    2    0    0  0.11614444381E+03 -0.66123266385E+02  0.35898408816E+03  0.40293472639E+03  0.12500000000E+03 0.  0.
</event>
<event>
 4    0  0.2193754E-002  0.2029085E+03  0.7546771E-02  0.1147308E+00
         21   -1    0    0  502  501  0.00000000000E+00  0.00000000000E+00  0.13578878844E+03  0.13578878844E+03  0.00000000000E+00 0. -1.
         21   -1    0    0  501  502 -0.00000000000E+00 -0.00000000000E+00 -0.30320508035E+03  0.30320508035E+03  0.00000000000E+00 0. -1.
         25    1    1    2    0    0 -0.14314972233E+03  0.15625363721E+02 -0.86773726831E+01  0.19088292692E+03  0.12500000000E+03 0.  0.
         25    1    1    2    0    0  0.14314972233E+03 -0.15625363721E+02 -0.15873891923E+03  0.24811094187E+03  0.12500000000E+03 0.  0.
</event>
<event>
 4    0  0.2193754E-002  0.2071528E+03  0.7546771E-02  0.1143841E+00
         21   -1    0    0  502  501  0.00000000000E+00  0.00000000000E+00  0.24245769217E+03  0.24245769217E+03  0.00000000000E+00 0. -1.
         21   -1    0    0  501  502 -0.00000000000E+00 -0.00000000000E+00 -0.17698880630E+03  0.17698880630E+03  0.00000000000E+00 0. -1.
         25    1    1    2    0    0 -0.58136117029E+02 -0.15410722675E+03  0.45478410632E+02  0.21171237865E+03  0.12500000000E+03 0.  0.
         25    1    1    2    0    0  0.58136117029E+02  0.15410722675E+03  0.19990475242E+02  0.20773411982E+03  0.12500000000E+03 0.  0.
</event>
<event>
 4    0  0.2193754E-002  0.2198390E+03  0.7546771E-02  0.1134003E+00
         21   -1    0    0  502  501  0.00000000000E+00  0.00000000000E+00  0.73656686237E+03  0.73656686237E+03  0.00000000000E+00 0.  1.
         21   -1    0    0  501  502 -0.00000000000E+00 -0.00000000000E+00 -0.65614126972E+02  0.65614126972E+02  0.00000000000E+00 0.  1.
         25    1    1    2    0    0  0.37286549166E+01  0.14008260041E+02  0.65947680817E+01  0.12601041696E+03  0.12500000000E+03 0.  0.
         25    1    1    2    0    0 -0.37286549166E+01 -0.14008260041E+02  0.66435796731E+03  0.67617057238E+03  0.12500000000E+03 0.  0.
</event>
<event>
 4    0  0.2193754E-002  0.2021745E+03  0.7546771E-02  0.1147917E+00
         21   -1    0    0  502  501  0.00000000000E+00  0.00000000000E+00  0.19107706091E+04  0.19107706091E+04  0.00000000000E+00 0.  1.
         21   -1    0    0  501  502 -0.00000000000E+00 -0.00000000000E+00 -0.21391652716E+02  0.21391652716E+02  0.00000000000E+00 0.  1.
         25    1    1    2    0    0  0.10910342460E+03 -0.11060784465E+03  0.11040269120E+04  0.11218904024E+04  0.12500000000E+03 0.  0.
         25    1    1    2    0    0 -0.10910342460E+03  0.11060784465E+03  0.78535204436E+03  0.81027185940E+03  0.12500000000E+03 0.  0.
</event>
<event>
 4    0  0.2193754E-002  0.2318489E+03  0.7546771E-02  0.1125345E+00
         21   -1    0    0  502  501  0.00000000000E+00  0.00000000000E+00  0.15386672682E+03  0.15386672682E+03  0.00000000000E+00 0.  1.
         21   -1    0    0  501  502 -0.00000000000E+00 -0.00000000000E+00 -0.34935376155E+03  0.34935376155E+03  0.00000000000E+00 0.  1.
         25    1    1    2    0    0 -0.19223592590E+02  0.13144250478E+03  0.57570977294E+02  0.19127492256E+03  0.12500000000E+03 0.  0.
         25    1    1    2    0    0  0.19223592590E+02 -0.13144250478E+03 -0.25305801202E+03  0.31194556580E+03  0.12500000000E+03 0.  0.
</event>
<event>
 4    0  0.2193754E-002  0.1661917E+03  0.7546771E-02  0.1181878E+00
         21   -1    0    0  502  501  0.00000000000E+00  0.00000000000E+00  0.12670413558E+03  0.12670413558E+03  0.00000000000E+00 0. -1.
         21   -1    0    0  501  502 -0.00000000000E+00 -0.00000000000E+00 -0.21798570720E+03  0.21798570720E+03  0.00000000000E+00 0. -1.
         25    1    1    2    0    0  0.95272511465E+02 -0.89476632312E+01 -0.10088392270E+03  0.18697453831E+03  0.12500000000E+03 0.  0.
         25    1    1    2    0    0 -0.95272511465E+02  0.89476632312E+01  0.96023510755E+01  0.15771530447E+03  0.12500000000E+03 0.  0.
</event>
<event>
 4    0  0.2193754E-002  0.3246733E+03  0.7546771E-02  0.1073518E+00
         21   -1    0    0  502  501  0.00000000000E+00  0.00000000000E+00  0.44861572997E+03  0.44861572997E+03  0.00000000000E+00 0. -1.
         21   -1    0    0  501  502 -0.00000000000E+00 -0.00000000000E+00 -0.23497334722E+03  0.23497334722E+03  0.00000000000E+00 0. -1.
         25    1    1    2    0    0  0.22036952837E+02  0.51926282582E+02 -0.20298635428E+03  0.24497025562E+03  0.12500000000E+03 0.  0.
         25    1    1    2    0    0 -0.22036952837E+02 -0.51926282582E+02  0.41662873704E+03  0.43861882157E+03  0.12500000000E+03 0.  0.
</event>
<event>
 4    0  0.2193754E-002  0.1895884E+03  0.7546771E-02  0.1158833E+00
         21   -1    0    0  502  501  0.00000000000E+00  0.00000000000E+00  0.20664836084E+03  0.20664836084E+03  0.00000000000E+00 0. -1.
         21   -1    0    0  501  502 -0.00000000000E+00 -0.00000000000E+00 -0.17393680786E+03  0.17393680786E+03  0.00000000000E+00 0. -1.
         25    1    1    2    0    0 -0.43246560477E+02 -0.13580395927E+03  0.18768010436E+02  0.19049991749E+03  0.12500000000E+03 0.  0.
         25    1    1    2    0    0  0.43246560477E+02  0.13580395927E+03  0.13943542541E+02  0.19008525121E+03  0.12500000000E+03 0.  0.
</event>
<event>
 4    0  0.2193754E-002  0.2328472E+03  0.7546771E-02  0.1124652E+00
         21   -1    0    0  502  501  0.00000000000E+00  0.00000000000E+00  0.50783716019E+03  0.50783716019E+03  0.00000000000E+00 0.  1.
         21   -1    0    0  501  502 -0.00000000000E+00 -0.00000000000E+00 -0.10676219248E+03  0.10676219248E+03  0.00000000000E+00 0.  1.
         25    1    1    2    0    0  0.58853323306E+02 -0.94335313424E+02  0.41427945057E+03  0.44678331235E+03  0.12500000000E+03 0.  0.
         25    1    1    2    0    0 -0.58853323306E+02  0.94335313424E+02 -0.13204482869E+02  0.16781604033E+03  0.12500000000E+03 0.  0.
</event>
<event>
 4    0  0.2193754E-002  0.2305315E+03  0.7546771E-02  0.1126266E+00
         21   -1    0    0  502  501  0.00000000000E+00  0.00000000000E+00  0.62700513509E+03  0.62700513509E+03  0.00000000000E+00 0. -1.
         21   -1    0    0  501  502 -0.00000000000E+00 -0.00000000000E+00 -0.84759738468E+02  0.84759738468E+02  0.00000000000E+00 0. -1.
         25    1    1    2    0    0  0.14344862274E+03 -0.75901146945E+02  0.10788429100E+03  0.23152216248E+03  0.12500000000E+03 0.  0.
         25    1    1    2    0    0 -0.14344862274E+03  0.75901146945E+02  0.43436110562E+03  0.48024271108E+03  0.12500000000E+03 0.  0.
</event>
<event>
 4    0  0.2193754E-002  0.2237067E+03  0.7546771E-02  0.1131149E+00
         21   -1    0    0  502  501  0.00000000000E+00  0.00000000000E+00  0.22663906323E+03  0.22663906323E+03  0.00000000000E+00 0. -1.
         21   -1    0    0  501  502 -0.00000000000E+00 -0.00000000000E+00 -0.22081228735E+03  0.22081228735E+03  0.00000000000E+00 0. -1.
         25    1    1    2    0    0  0.44771329187E+00 -0.18545592271E+03  0.79724964302E+01  0.22379155573E+03  0.12500000000E+03 0.  0.
         25    1    1    2    0    0 -0.44771329187E+00  0.18545592271E+03 -0.21457205454E+01  0.22365979485E+03  0.12500000000E+03 0.  0.
</event>
<event>
 4    0  0.2193754E-002  0.2129059E+03  0.7546771E-02  0.1139285E+00
         21   -1    0    0  502  501  0.00000000000E+00  0.00000000000E+00  0.12818805194E+03  0.12818805194E+03  0.00000000000E+00 0.  1.
         21   -1    0    0  501  502 -0.00000000000E+00 -0.00000000000E+00 -0.35361279452E+03  0.35361279452E+03  0.00000000000E+00 0.  1.
         25    1    1    2    0    0 -0.50492814353E+02 -0.50631625578E+02  0.64721516909E+02  0.15788274308E+03  0.12500000000E+03 0.  0.
         25    1    1    2    0    0  0.50492814353E+02  0.50631625578E+02 -0.29014625948E+03  0.32391810339E+03  0.12500000000E+03 0.  0.
</event>
<event>
 4    0  0.2193754E-002  0.1881808E+03  0.7546771E-02  0.1160112E+00
         21   -1    0    0  502  501  0.00000000000E+00  0.00000000000E+00  0.26401704146E+02  0.26401704146E+02  0.00000000000E+00 0. -1.
         21   -1    0    0  501  502 -0.00000000000E+00 -0.00000000000E+00 -0.13412781391E+04  0.13412781391E+04  0.00000000000E+00 0. -1.
         25    1    1    2    0    0 -0.82349507298E+02 -0.63916366357E+01 -0.10712099872E+04  0.10816367833E+04  0.12500000000E+03 0.  0.
         25    1    1    2    0    0  0.82349507298E+02  0.63916366357E+01 -0.24366644782E+03  0.28604305998E+03  0.12500000000E+03 0.  0.
</event>
<event>
 4    0  0.2193754E-002  0.3164323E+03  0.7546771E-02  0.1077303E+00
         21   -1    0    0  502  501  0.00000000000E+00  0.00000000000E+00  0.11061291181E+03  0.11061291181E+03  0.00000000000E+00 0.  1.
         21   -1    0    0  501  502 -0.00000000000E+00 -0.00000000000E+00 -0.90522355442E+03  0.90522355442E+03  0.00000000000E+00 0.  1.
         25    1    1    2    0    0  0.24713801317E+03  0.15303684825E+03 -0.40153349161E+03  0.51122560515E+03  0.12500000000E+03 0.  0.
         25    1    1    2    0    0 -0.24713801317E+03 -0.15303684825E+03 -0.39307715100E+03  0.50461086107E+03  0.12500000000E+03 0.  0.
</event>
<event>
 4    0  0.2193754E-002  0.1871777E+03  0.7546771E-02  0.1161032E+00
         21   -1    0    0  502  501  0.00000000000E+00  0.00000000000E+00  0.17993088446E+04  0.17993088446E+04  0.00000000000E+00 0.  1.
         21   -1    0    0  501  502 -0.00000000000E+00 -0.00000000000E+00 -0.19471628561E+02  0.19471628561E+02  0.00000000000E+00 0.  1.
         25    1    1    2    0    0  0.48239113889E+02  0.13007714036E+03  0.82781441744E+03  0.84861580487E+03  0.12500000000E+03 0.  0.
         25    1    1    2    0    0 -0.48239113889E+02 -0.13007714036E+03  0.95202279865E+03  0.97016466834E+03  0.12500000000E+03 0.  0.
</event>
<event>
 4    0  0.2193754E-002  0.2496499E+03  0.7546771E-02  0.1113526E+00
         21   -1    0    0  502  501  0.00000000000E+00  0.00000000000E+00  0.16189499975E+03  0.16189499975E+03  0.00000000000E+00 0. -1.
         21   -1    0    0  501  502 -0.00000000000E+00 -0.00000000000E+00 -0.38497223528E+03  0.38497223528E+03  0.00000000000E+00 0. -1.
         25    1    1    2    0    0  0.21176878276E+03  0.40251600156E+02 -0.12828839057E+03  0.28026615890E+03  0.12500000000E+03 0.  0.
         25    1    1    2    0    0 -0.21176878276E+03 -0.40251600156E+02 -0.94788844955E+02  0.26660107613E+03  0.12500000000E+03 0.  0.
</event>
<event>
 4    0  0.2193754E-002  0.1914003E+03  0.7546771E-02  0.1157204E+00
         21   -1    0    0  502  501  0.00000000000E+00  0.00000000000E+00  0.24602354588E+02  0.24602354588E+02  0.00000000000E+00 0. -1.
         21   -1    0    0  501  502 -0.00000000000E+00 -0.00000000000E+00 -0.14890471501E+04  0.14890471501E+04  0.00000000000E+00 0. -1.
         25    1    1    2    0    0 -0.13505124086E+03  0.41898104780E+02 -0.60626081637E+03  0.63495784609E+03  0.12500000000E+03 0.  0.
         25    1    1    2    0    0  0.13505124086E+03 -0.41898104780E+02 -0.85818397912E+03  0.87869165858E+03  0.12500000000E+03 0.  0.
</event>
<event>
 4    0  0.2193754E-002  0.2793280E+03  0.7546771E-02  0.1096057E+00
         21   -1    0    0  502  501  0.00000000000E+00  0.00000000000E+00  0.11097327496E+03  0.11097327496E+03  0.00000000000E+00 0. -1.
         21   -1    0    0  501  502 -0.00000000000E+00 -0.00000000000E+00 -0.70308962003E+03  0.70308962003E+03  0.00000000000E+00 0. -1.
         25    1    1    2    0    0  0.18758234957E+03 -0.13329553482E+02 -0.56466715577E+02  0.23276233551E+03  0.12500000000E+03 0.  0.
         25    1    1    2    0    0 -0.18758234957E+03  0.13329553482E+02 -0.53564962950E+03  0.58130055948E+03  0.12500000000E+03 0.  0.
</event>
<event>
 4    0  0.2193754E-002  0.2900679E+03  0.7546771E-02  0.1090314E+00
         21   -1    0    0  502  501  0.00000000000E+00  0.00000000000E+00  0.15043542247E+03  0.15043542247E+03  0.00000000000E+00 0. -1.
         21   -1    0    0  501  502 -0.00000000000E+00 -0.00000000000E+00 -0.55930570790E+03  0.55930570790E+03  0.00000000000E+00 0. -1.
         25    1    1    2    0    0 -0.18091889759E+03 -0.90402530508E+02 -0.40771974633E+03  0.47197950864E+03  0.12500000000E+03 0.  0.
         25    1    1    2    0    0  0.18091889759E+03  0.90402530508E+02 -0.11505390943E+01  0.23776162173E+03  0.12500000000E+03 0.  0.
</event>
<event>
 4    0  0.2193754E-002  0.1879956E+03  0.7546771E-02  0.1160282E+00
         21   -1    0    0  502  501  0.00000000000E+00  0.00000000000E+00  0.69112394615E+02  0.69112394615E+02  0.00000000000E+00 0.  1.
         21   -1    0    0  501  502 -0.00000000000E+00 -0.00000000000E+00 -0.51137467579E+03  0.51137467579E+03  0.00000000000E+00 0.  1.
         25    1    1    2    0    0 -0.12824595066E+03 -0.36046748935E+01 -0.30924507206E+03  0.35737589753E+03  0.12500000000E+03 0.  0.
         25    1    1    2    0    0  0.12824595066E+03  0.36046748935E+01 -0.13301720911E+03  0.22311117287E+03  0.12500000000E+03 0.  0.
</event>
<event>
 4    0  0.2193754E-002  0.2184389E+03  0.7546771E-02  0.1135052E+00
         21   -1    0    0  502  501  0.00000000000E+00  0.00000000000E+00  0.21769147409E+03  0.21769147409E+03  0.00000000000E+00 0. -1.
         21   -1    0    0  501  502 -0.00000000000E+00 -0.00000000000E+00 -0.21918881052E+03  0.21918881052E+03  0.00000000000E+00 0. -1.
         25    1    1    2    0    0 -0.12889794997E+03 -0.89272609275E+02  0.85890486719E+02  0.21814320063E+03  0.12500000000E+03 0.  0.
         25    1    1    2    0    0  0.12889794997E+03  0.89272609275E+02 -0.87387823150E+02  0.21873708398E+03  0.12500000000E+03 0.  0.
</event>
<event>
 4    0  0.2193754E-002  0.1880726E+03  0.7546771E-02  0.1160211E+00
         21   -1    0    0  502  501  0.00000000000E+00  0.00000000000E+00  0.10357590796E+04  0.10357590796E+04  0.00000000000E+00 0. -1.
         21   -1    0    0  501  502 -0.00000000000E+00 -0.00000000000E+00 -0.34150137552E+02  0.34150137552E+02  0.00000000000E+00 0. -1.
         25    1    1    2    0    0 -0.58605792938E+02 -0.11079080575E+02  0.86271432102E+03  0.87376105697E+03  0.12500000000E+03 0.  0.
         25    1    1    2    0    0  0.58605792938E+02  0.11079080575E+02  0.13889462104E+03  0.19614816019E+03  0.12500000000E+03 0.  0.
</event>
<event>
 4    0  0.2193754E-002  0.1854032E+03  0.7546771E-02  0.1162674E+00
         21   -1    0    0  502  501  0.00000000000E+00  0.00000000000E+00  0.12343106746E+04  0.12343106746E+04  0.00000000000E+00 0. -1.
         21   -1    0    0  501  502 -0.00000000000E+00 -0.00000000000E+00 -0.27849010596E+02  0.27849010596E+02  0.00000000000E+00 0. -1.
         25    1    1    2    0    0 -0.59846714266E+01  0.13679729256E+03  0.60280689874E+03  0.63067461714E+03  0.12500000000E+03 0.  0.
         25    1    1    2    0    0  0.59846714266E+01 -0.13679729256E+03  0.60365476527E+03  0.63148506806E+03  0.12500000000E+03 0.  0.
</event>
<event>
 4    0  0.2193754E-002  0.2152065E+03  0.7546771E-02  0.1137508E+00
         21   -1    0    0  502  501  0.00000000000E+00  0.00000000000E+00  0.12611378866E+03  0.12611378866E+03  0.00000000000E+00 0. -1.
         21   -1    0    0  501  502 -0.00000000000E+00 -0.00000000000E+00 -0.36723835702E+03  0.36723835702E+03  0.00000000000E+00 0. -1.
         25    1    1    2    0    0 -0.30629718877E+02 -0.16547691945E+03 -0.64783978124E+02  0.21941457192E+03  0.12500000000E+03 0.  0.
         25    1    1    2    0    0  0.30629718877E+02  0.16547691945E+03 -0.17634059024E+03  0.27393757376E+03  0.12500000000E+03 0.  0.
</event>
<event>
 4    0  0.2193754E-002  0.2347588E+03  0.7546771E-02  0.1123334E+00
         21   -1    0    0  502  501  0.00000000000E+00  0.00000000000E+00  0.47311526286E+02  0.47311526286E+02  0.00000000000E+00 0.  1.
         21   -1    0    0  501  502 -0.00000000000E+00 -0.00000000000E+00 -0.11648687041E+04  0.11648687041E+04  0.00000000000E+00 0.  1.
         25    1    1    2    0    0  0.17708511832E+03  0.34207333897E+02 -0.34343109250E+03  0.40755269122E+03  0.12500000000E+03 0.  0.
         25    1    1    2    0    0 -0.17708511832E+03 -0.34207333897E+02 -0.77412608531E+03  0.80462753916E+03  0.12500000000E+03 0.  0.
</event>
<event>
 4    0  0.2193754E-002  0.1824758E+03  0.7546771E-02  0.1165428E+00
         21   -1    0    0  502  501  0.00000000000E+00  0.00000000000E+00  0.24039548614E+03  0.24039548614E+03  0.00000000000E+00 0.  1.
         21   -1    0    0  501  502 -0.00000000000E+00 -0.00000000000E+00 -0.13851092408E+03  0.13851092408E+03  0.00000000000E+00 0.  1.
         25    1    1    2    0    0 -0.70407618988E+01 -0.60376710368E+02 -0.71804822111E+02  0.15644760133E+03  0.12500000000E+03 0.  0.
         25    1    1    2    0    0  0.70407618988E+01  0.60376710368E+02  0.17368938417E+03  0.22245880890E+03  0.12500000000E+03 0.  0.
</event>
<event>
 4    0  0.2193754E-002  0.2228385E+03  0.7546771E-02  0.1131784E+00
         21   -1    0    0  502  501  0.00000000000E+00  0.00000000000E+00  0.26536480336E+03  0.26536480336E+03  0.00000000000E+00 0. -1.
         21   -1    0    0  501  502 -0.00000000000E+00 -0.00000000000E+00 -0.18712729237E+03  0.18712729237E+03  0.00000000000E+00 0. -1.
         25    1    1    2    0    0 -0.11648673347E+03  0.14301113423E+03  0.42432645024E+02  0.22681903128E+03  0.12500000000E+03 0.  0.
         25    1    1    2    0    0  0.11648673347E+03 -0.14301113423E+03  0.35804865974E+02  0.22567306445E+03  0.12500000000E+03 0.  0.
</event>
<event>
 4    0  0.2193754E-002  0.1837392E+03  0.7546771E-02  0.1164233E+00
         21   -1    0    0  502  501  0.00000000000E+00  0.00000000000E+00  0.33925804422E+03  0.33925804422E+03  0.00000000000E+00 0.  1.
         21   -1    0    0  501  502 -0.00000000000E+00 -0.00000000000E+00 -0.99511499083E+02  0.99511499083E+02  0.00000000000E+00 0.  1.
         25    1    1    2    0    0 -0.34594012187E+02  0.77916553309E+02  0.24434377028E+03  0.28739626482E+03  0.12500000000E+03 0.  0.
         25    1    1    2    0    0  0.34594012187E+02 -0.77916553309E+02 -0.45972251440E+01  0.15137327848E+03  0.12500000000E+03 0.  0.
</event>
<event>
 4    0  0.2193754E-002  0.3761618E+03  0.7546771E-02  0.1052362E+00
         21   -1    0    0  502  501  0.00000000000E+00  0.00000000000E+00  0.15619680966E+04  0.15619680966E+04  0.00000000000E+00 0.  1.
         21   -1    0    0  501  502 -0.00000000000E+00 -0.00000000000E+00 -0.90589373334E+02  0.90589373334E+02  0.00000000000E+00 0.  1.
         25    1    1    2    0    0  0.21611274550E+03 -0.27958470667E+03  0.80516543261E+03  0.88813777132E+03  0.12500000000E+03 0.  0.
         25    1    1    2    0    0 -0.21611274550E+03  0.27958470667E+03  0.66621329060E+03  0.76441969856E+03  0.12500000000E+03 0.  0.
</event>
<event>
 4    0  0.2193754E-002  0.2413513E+03  0.7546771E-02  0.1118896E+00
         21   -1    0    0  502  501  0.00000000000E+00  0.00000000000E+00  0.13766120830E+03  0.13766120830E+03  0.00000000000E+00 0. -1.
         21   -1    0    0  501  502 -0.00000000000E+00 -0.00000000000E+00 -0.42314352347E+03  0.42314352347E+03  0.00000000000E+00 0. -1.
         25    1    1    2    0    0 -0.66654639576E+02  0.14150351072E+03 -0.29930171375E+03  0.36010081974E+03  0.12500000000E+03 0.  0.
         25    1    1    2    0    0  0.66654639576E+02 -0.14150351072E+03  0.13819398587E+02  0.20070391202E+03  0.12500000000E+03 0.  0.
</event>
<event>
 4    0  0.2193754E-002  0.1870272E+03  0.7546771E-02  0.1161170E+00
         21   -1    0    0  502  501  0.00000000000E+00  0.00000000000E+00  0.25216030101E+04  0.25216030101E+04  0.00000000000E+00 0. -1.
         21   -1    0    0  501  502 -0.00000000000E+00 -0.00000000000E+00 -0.13871795857E+02  0.13871795857E+02  0.00000000000E+00 0. -1.
         25    1    1    2    0    0  0.57056329627E+02 -0.54608439176E+02  0.20301773641E+04  0.20355546262E+04  0.12500000000E+03 0.  0.
         25    1    1    2    0    0 -0.57056329627E+02  0.54608439176E+02  0.47755385011E+03  0.49992017977E+03  0.12500000000E+03 0.  0.
</event>
<event>
 4    0  0.2193754E-002  0.2628626E+03  0.7546771E-02  0.1105435E+00
         21   -1    0    0  502  501  0.00000000000E+00  0.00000000000E+00  0.13884749400E+04  0.13884749400E+04  0.00000000000E+00 0.  1.
         21   -1    0    0  501  502 -0.00000000000E+00 -0.00000000000E+00 -0.49764489074E+02  0.49764489074E+02  0.00000000000E+00 0.  1.
         25    1    1    2    0    0  0.10766001944E+03 -0.16039580333E+03  0.10170641441E+04  0.10427664968E+04  0.12500000000E+03 0.  0.
         25    1    1    2    0    0 -0.10766001944E+03  0.16039580333E+03  0.32164630682E+03  0.39547293232E+03  0.12500000000E+03 0.  0.
</event>
<event>
 4    0  0.2193754E-002  0.4903102E+03  0.7546771E-02  0.1016339E+00
         21   -1    0    0  502  501  0.00000000000E+00  0.00000000000E+00  0.43225113218E+03  0.43225113218E+03  0.00000000000E+00 0. -1.
         21   -1    0    0  501  502 -0.00000000000E+00 -0.00000000000E+00 -0.55616766686E+03  0.55616766686E+03  0.00000000000E+00 0. -1.
         25    1    1    2    0    0 -0.49731083206E+02 -0.89749601854E+02 -0.52851173605E+03  0.55270048563E+03  0.12500000000E+03 0.  0.
         25    1    1    2    0    0  0.49731083206E+02  0.89749601854E+02  0.40459520137E+03  0.43571831341E+03  0.12500000000E+03 0.  0.
</event>
<event>
 4    0  0.2193754E-002  0.2815218E+03  0.7546771E-02  0.1094861E+00
         21   -1    0    0  502  501  0.00000000000E+00  0.00000000000E+00  0.13151223613E+04  0.13151223613E+04  0.00000000000E+00 0. -1.
         21   -1    0    0  501  502 -0.00000000000E+00 -0.00000000000E+00 -0.60264006621E+02  0.60264006621E+02  0.00000000000E+00 0. -1.
         25    1    1    2    0    0 -0.19105286526E+03 -0.15843764901E+03  0.73737709364E+03  0.78800613206E+03  0.12500000000E+03 0.  0.
         25    1    1    2    0    0  0.19105286526E+03  0.15843764901E+03  0.51748126104E+03  0.58738023586E+03  0.12500000000E+03 0.  0.
</event>
<event>
 4    0  0.2193754E-002  0.2004556E+03  0.7546771E-02  0.1149355E+00
         21   -1    0    0  502  501  0.00000000000E+00  0.00000000000E+00  0.82356547322E+02  0.82356547322E+02  0.00000000000E+00 0. -1.
         21   -1    0    0  501  502 -0.00000000000E+00 -0.00000000000E+00 -0.48790840014E+03  0.48790840014E+03  0.00000000000E+00 0. -1.
         25    1    1    2    0    0 -0.54348642489E+02  0.12337942667E+03 -0.31640237204E+03  0.36593950169E+03  0.12500000000E+03 0.  0.
         25    1    1    2    0    0  0.54348642489E+02 -0.12337942667E+03 -0.89149480779E+02  0.20432544577E+03  0.12500000000E+03 0.  0.
</event>
<event>
 4    0  0.2193754E-002  0.8499165E+03  0.7546771E-02  0.9490449E-01
         21   -1    0    0  502  501  0.00000000000E+00  0.00000000000E+00  0.11691678453E+04  0.11691678453E+04  0.00000000000E+00 0. -1.
         21   -1    0    0  501  502 -0.00000000000E+00 -0.00000000000E+00 -0.61783954039E+03  0.61783954039E+03  0.00000000000E+00 0. -1.
         25    1    1    2    0    0  0.22773663763E+03 -0.51970172400E+03 -0.37645341822E+03  0.69231209302E+03  0.12500000000E+03 0.  0.
         25    1    1    2    0    0 -0.22773663763E+03  0.51970172400E+03  0.92778172315E+03  0.10946952927E+04  0.12500000000E+03 0.  0.
</event>
<event>
 4    0  0.2193754E-002  0.2614796E+03  0.7546771E-02  0.1106257E+00
         21   -1    0    0  502  501  0.00000000000E+00  0.00000000000E+00  0.22051298577E+03  0.22051298577E+03  0.00000000000E+00 0. -1.
         21   -1    0    0  501  502 -0.00000000000E+00 -0.00000000000E+00 -0.31005704044E+03  0.31005704044E+03  0.00000000000E+00 0. -1.
         25    1    1    2    0    0 -0.56174332133E+02 -0.21065100541E+03  0.28509356446E+02  0.25291734831E+03  0.12500000000E+03 0.  0.
         25    1    1    2    0    0  0.56174332133E+02  0.21065100541E+03 -0.11805341112E+03  0.27765267790E+03  0.12500000000E+03 0.  0.
</event>
<event>
 4    0  0.2193754E-002  0.2004297E+03  0.7546771E-02  0.1149377E+00
         21   -1    0    0  502  501  0.00000000000E+00  0.00000000000E+00  0.20321039629E+03  0.20321039629E+03  0.00000000000E+00 0.  1.
         21   -1    0    0  501  502 -0.00000000000E+00 -0.00000000000E+00 -0.19768712419E+03  0.19768712419E+03  0.00000000000E+00 0.  1.
         25    1    1    2    0    0 -0.35581819003E+02 -0.77336834031E+02  0.13430368827E+03  0.20226105019E+03  0.12500000000E+03 0.  0.
         25    1    1    2    0    0  0.35581819003E+02  0.77336834031E+02 -0.12878041617E+03  0.19863647029E+03  0.12500000000E+03 0.  0.
</event>
<event>
 4    0  0.2193754E-002  0.1772985E+03  0.7546771E-02  0.1170444E+00
         21   -1    0    0  502  501  0.00000000000E+00  0.00000000000E+00  0.86846305506E+03  0.86846305506E+03  0.00000000000E+00 0. -1.
         21   -1    0    0  501  502 -0.00000000000E+00 -0.00000000000E+00 -0.36195833565E+02  0.36195833565E+02  0.00000000000E+00 0. -1.
         25    1    1    2    0    0  0.12102950329E+03  0.11896676690E+02  0.33465090568E+03  0.37736706303E+03  0.12500000000E+03 0.  0.
         25    1    1    2    0    0 -0.12102950329E+03 -0.11896676690E+02  0.49761631582E+03  0.52729182560E+03  0.12500000000E+03 0.  0.
</event>
<event>
 4    0  0.2193754E-002  0.2099646E+03  0.7546771E-02  0.1141594E+00
         21   -1    0    0  502  501  0.00000000000E+00  0.00000000000E+00  0.19318950957E+03  0.19318950957E+03  0.00000000000E+00 0. -1.
         21   -1    0    0  501  502 -0.00000000000E+00 -0.00000000000E+00 -0.22819632471E+03  0.22819632471E+03  0.00000000000E+00 0. -1.
         25    1    1    2    0    0  0.13821136227E+03 -0.94056257521E+02 -0.40191030344E+02  0.21257770147E+03  0.12500000000E+03 0.  0.
         25    1    1    2    0    0 -0.13821136227E+03  0.94056257521E+02  0.51842152080E+01  0.20880813281E+03  0.12500000000E+03 0.  0.
</event>
<event>
 4    0  0.2193754E-002  0.2436844E+03  0.7546771E-02  0.1117362E+00
         21   -1    0    0  502  501  0.00000000000E+00  0.00000000000E+00  0.86383039285E+03  0.86383039285E+03  0.00000000000E+00 0.  1.
         21   -1    0    0  501  502 -0.00000000000E+00 -0.00000000000E+00 -0.68742763562E+02  0.68742763562E+02  0.00000000000E+00 0.  1.
         25    1    1    2    0    0  0.50674913629E+02  0.17584024348E+03  0.20363539526E+03  0.30096530083E+03  0.12500000000E+03 0.  0.
         25    1    1    2    0    0 -0.50674913629E+02 -0.17584024348E+03  0.59145223402E+03  0.63160785558E+03  0.12500000000E+03 0.  0.
</event>
<event>
 4    0  0.2193754E-002  0.1699915E+03  0.7546771E-02  0.1177857E+00
         21   -1    0    0  502  501  0.00000000000E+00  0.00000000000E+00  0.11833734955E+04  0.11833734955E+04  0.00000000000E+00 0.  1.
         21   -1    0    0  501  502 -0.00000000000E+00 -0.00000000000E+00 -0.24419269942E+02  0.24419269942E+02  0.00000000000E+00 0.  1.
         25    1    1    2    0    0 -0.89511119254E+02  0.51781541465E+02  0.75987141183E+03  0.77699622330E+03  0.12500000000E+03 0.  0.
         25    1    1    2    0    0  0.89511119254E+02 -0.51781541465E+02  0.39908281370E+03  0.43079654211E+03  0.12500000000E+03 0.  0.
</event>
<event>
 4    0  0.2193754E-002  0.3310813E+03  0.7546771E-02  0.1070659E+00
         21   -1    0    0  502  501  0.00000000000E+00  0.00000000000E+00  0.28398736625E+03  0.28398736625E+03  0.00000000000E+00 0.  1.
         21   -1    0    0  501  502 -0.00000000000E+00 -0.00000000000E+00 -0.38598485113E+03  0.38598485113E+03  0.00000000000E+00 0.  1.
         25    1    1    2    0    0  0.20919511672E+03 -0.15979656735E+03 -0.20998982540E+03  0.35919112818E+03  0.12500000000E+03 0.  0.
         25    1    1    2    0    0 -0.20919511672E+03  0.15979656735E+03  0.10799234051E+03  0.31078108920E+03  0.12500000000E+03 0.  0.
</event>
<event>
 4    0  0.2193754E-002  0.1782898E+03  0.7546771E-02  0.1169469E+00
         21   -1    0    0  502  501  0.00000000000E+00  0.00000000000E+00  0.30951062113E+03  0.30951062113E+03  0.00000000000E+00 0.  1.
         21   -1    0    0  501  502 -0.00000000000E+00 -0.00000000000E+00 -0.10270159756E+03  0.10270159756E+03  0.00000000000E+00 0.  1.
         25    1    1    2    0    0 -0.63576379461E+02  0.58093671093E+02  0.21151166734E+03  0.26034403405E+03  0.12500000000E+03 0.  0.
         25    1    1    2    0    0  0.63576379461E+02 -0.58093671093E+02 -0.47026437610E+01  0.15186818464E+03  0.12500000000E+03 0.  0.
</event>
<event>
 4    0  0.2193754E-002  0.2609895E+03  0.7546771E-02  0.1106550E+00
         21   -1    0    0  502  501  0.00000000000E+00  0.00000000000E+00  0.63296215692E+02  0.63296215692E+02  0.00000000000E+00 0.  1.
         21   -1    0    0  501  502 -0.00000000000E+00 -0.00000000000E+00 -0.10761392398E+04  0.10761392398E+04  0.00000000000E+00 0.  1.
         25    1    1    2    0    0  0.64395394432E+02 -0.15566165756E+03 -0.16744917469E+03  0.26840555986E+03  0.12500000000E+03 0.  0.
         25    1    1    2    0    0 -0.64395394432E+02  0.15566165756E+03 -0.84539384945E+03  0.87102989567E+03  0.12500000000E+03 0.  0.
</event>
<event>
 4    0  0.2193754E-002  0.2184135E+03  0.7546771E-02  0.1135071E+00
         21   -1    0    0  502  501  0.00000000000E+00  0.00000000000E+00  0.54884437723E+02  0.54884437723E+02  0.00000000000E+00 0.  1.
         21   -1    0    0  501  502 -0.00000000000E+00 -0.00000000000E+00 -0.86918004225E+03  0.86918004225E+03  0.00000000000E+00 0.  1.
         25    1    1    2    0    0  0.74858552292E+02  0.85999498710E+02 -0.69934701345E+03  0.71952134217E+03  0.12500000000E+03 0.  0.
         25    1    1    2    0    0 -0.74858552292E+02 -0.85999498710E+02 -0.11494859108E+03  0.20454313780E+03  0.12500000000E+03 0.  0.
</event>
<event>
 4    0  0.2193754E-002  0.2075480E+03  0.7546771E-02  0.1143523E+00
         21   -1    0    0  502  501  0.00000000000E+00  0.00000000000E+00  0.76867328001E+02  0.76867328001E+02  0.00000000000E+00 0. -1.
         21   -1    0    0  501  502 -0.00000000000E+00 -0.00000000000E+00 -0.56039639721E+03  0.56039639721E+03  0.00000000000E+00 0. -1.
         25    1    1    2    0    0  0.15221333176E+03  0.39057972758E+02 -0.32237090019E+03  0.37979260247E+03  0.12500000000E+03 0.  0.
         25    1    1    2    0    0 -0.15221333176E+03 -0.39057972758E+02 -0.16115816902E+03  0.25747112274E+03  0.12500000000E+03 0.  0.
</event>
<event>
 4    0  0.2193754E-002  0.1987616E+03  0.7546771E-02  0.1150788E+00
         21   -1    0    0  502  501  0.00000000000E+00  0.00000000000E+00  0.32203715378E+03  0.32203715378E+03  0.00000000000E+00 0. -1.
         21   -1    0    0  501  502 -0.00000000000E+00 -0.00000000000E+00 -0.12267580357E+03  0.12267580357E+03  0.00000000000E+00 0. -1.
         25    1    1    2    0    0 -0.15079480438E+03 -0.24753461289E+02  0.73941608195E+02  0.21081785573E+03  0.12500000000E+03 0.  0.
         25    1    1    2    0    0  0.15079480438E+03  0.24753461289E+02  0.12541974202E+03  0.23389510162E+03  0.12500000000E+03 0.  0.
</event>
<event>
 4    0  0.2193754E-002  0.2031823E+03  0.7546771E-02  0.1147082E+00
         21   -1    0    0  502  501  0.00000000000E+00  0.00000000000E+00  0.15156321762E+04  0.15156321762E+04  0.00000000000E+00 0. -1.
         21   -1    0    0  501  502 -0.00000000000E+00 -0.00000000000E+00 -0.27238161802E+02  0.27238161802E+02  0.00000000000E+00 0. -1.
         25    1    1    2    0    0 -0.64704549896E+02  0.14551650735E+03  0.80955229672E+03  0.83448286610E+03  0.12500000000E+03 0.  0.
         25    1    1    2    0    0  0.64704549896E+02 -0.14551650735E+03  0.67884171767E+03  0.70838747190E+03  0.12500000000E+03 0.  0.
</event>
<event>
 4    0  0.2193754E-002  0.2078870E+03  0.7546771E-02  0.1143250E+00
         21   -1    0    0  502  501  0.00000000000E+00  0.00000000000E+00  0.89253774671E+03  0.89253774671E+03  0.00000000000E+00 0.  1.
         21   -1    0    0  501  502 -0.00000000000E+00 -0.00000000000E+00 -0.48420388863E+02  0.48420388863E+02  0.00000000000E+00 0.  1.
         25    1    1    2    0    0 -0.16483596687E+03 -0.17039374468E+02  0.39617668823E+03  0.44726077913E+03  0.12500000000E+03 0.  0.
         25    1    1    2    0    0  0.16483596687E+03  0.17039374468E+02  0.44794066962E+03  0.49369735644E+03  0.12500000000E+03 0.  0.
</event>
<event>
 4    0  0.2193754E-002  0.1911970E+03  0.7546771E-02  0.1157386E+00
         21   -1    0    0  502  501  0.00000000000E+00  0.00000000000E+00  0.42639640598E+03  0.42639640598E+03  0.00000000000E+00 0. -1.
         21   -1    0    0  501  502 -0.00000000000E+00 -0.00000000000E+00 -0.85733113190E+02  0.85733113190E+02  0.00000000000E+00 0. -1.
         25    1    1    2    0    0 -0.11835313654E+03 -0.83089828859E+02  0.17630707286E+03  0.26003955186E+03  0.12500000000E+03 0.  0.
         25    1    1    2    0    0  0.11835313654E+03  0.83089828859E+02  0.16435621993E+03  0.25208996731E+03  0.12500000000E+03 0.  0.
</event>
<event>
 4    0  0.2193754E-002  0.1900990E+03  0.7546771E-02  0.1158372E+00
         21   -1    0    0  502  501  0.00000000000E+00  0.00000000000E+00  0.13978375993E+03  0.13978375993E+03  0.00000000000E+00 0. -1.
         21   -1    0    0  501  502 -0.00000000000E+00 -0.00000000000E+00 -0.25852511470E+03  0.25852511470E+03  0.00000000000E+00 0. -1.
         25    1    1    2    0    0  0.11492681867E+03 -0.51311401135E+02 -0.13097547290E+03  0.22050081187E+03  0.12500000000E+03 0.  0.
         25    1    1    2    0    0 -0.11492681867E+03  0.51311401135E+02  0.12234118127E+02  0.17780806276E+03  0.12500000000E+03 0.  0.
</event>
<event>
 4    0  0.2193754E-002  0.2659547E+03  0.7546771E-02  0.1103617E+00
         21   -1    0    0  502  501  0.00000000000E+00  0.00000000000E+00  0.15641636540E+02  0.15641636540E+02  0.00000000000E+00 0.  1.
         21   -1    0    0  501  502 -0.00000000000E+00 -0.00000000000E+00 -0.45220285453E+04  0.45220285453E+04  0.00000000000E+00 0.  1.
         25    1    1    2    0    0 -0.10096341802E+01 -0.16766019858E+03 -0.36548597066E+04  0.36608380785E+04  0.12500000000E+03 0.  0.
         25    1    1    2    0    0  0.10096341802E+01  0.16766019858E+03 -0.85152720209E+03  0.87683210334E+03  0.12500000000E+03 0.  0.
</event>
<event>
 4    0  0.2193754E-002  0.2178887E+03  0.7546771E-02  0.1135467E+00
         21   -1    0    0  502  501  0.00000000000E+00  0.00000000000E+00  0.13267696546E+04  0.13267696546E+04  0.00000000000E+00 0.  1.
         21   -1    0    0  501  502 -0.00000000000E+00 -0.00000000000E+00 -0.35782771245E+02  0.35782771245E+02  0.00000000000E+00 0.  1.
         25    1    1    2    0    0  0.29463188923E+02  0.73575432757E+02  0.11454657502E+04  0.11549884020E+04  0.12500000000E+03 0.  0.
         25    1    1    2    0    0 -0.29463188923E+02 -0.73575432757E+02  0.14552113311E+03  0.20756402383E+03  0.12500000000E+03 0.  0.
</event>
<event>
 4    0  0.2193754E-002  0.2991154E+03  0.7546771E-02  0.1085684E+00
         21   -1    0    0  502  501  0.00000000000E+00  0.00000000000E+00  0.62489585061E+02  0.62489585061E+02  0.00000000000E+00 0.  1.
         21   -1    0    0  501  502 -0.00000000000E+00 -0.00000000000E+00 -0.14317585278E+04  0.14317585278E+04  0.00000000000E+00 0.  1.
         25    1    1    2    0    0 -0.21127130877E+02  0.11321956894E+03 -0.69856160871E+02  0.18376590996E+03  0.12500000000E+03 0.  0.
         25    1    1    2    0    0  0.21127130877E+02 -0.11321956894E+03 -0.12994127818E+04  0.13104822029E+04  0.12500000000E+03 0.  0.
</event>
<event>
 4    0  0.2193754E-002  0.2090149E+03  0.7546771E-02  0.1142348E+00
         21   -1    0    0  502  501  0.00000000000E+00  0.00000000000E+00  0.19402797436E+02  0.19402797436E+02  0.00000000000E+00 0. -1.
         21   -1    0    0  501  502 -0.00000000000E+00 -0.00000000000E+00 -0.22515936624E+04  0.22515936624E+04  0.00000000000E+00 0. -1.
         25    1    1    2    0    0  0.80616290853E+02 -0.10534548738E+03 -0.56033136332E+03  0.58923076531E+03  0.12500000000E+03 0.  0.
         25    1    1    2    0    0 -0.80616290853E+02  0.10534548738E+03 -0.16718595017E+04  0.16817656946E+04  0.12500000000E+03 0.  0.
</event>
<event>
 4    0  0.2193754E-002  0.3020206E+03  0.7546771E-02  0.1084235E+00
         21   -1    0    0  502  501  0.00000000000E+00  0.00000000000E+00  0.22356229445E+03  0.22356229445E+03  0.00000000000E+00 0. -1.
         21   -1    0    0  501  502 -0.00000000000E+00 -0.00000000000E+00 -0.40801350252E+03  0.40801350252E+03  0.00000000000E+00 0.  1.
         25    1    1    2    0    0  0.24107220477E+03  0.79172365540E+02  0.18464976087E+02  0.28346080279E+03  0.12500000000E+03 0.  0.
         25    1    1    2    0    0 -0.24107220477E+03 -0.79172365540E+02 -0.20291618416E+03  0.34811499418E+03  0.12500000000E+03 0.  0.
</event>
<event>
 4    0  0.2193754E-002  0.1824739E+03  0.7546771E-02  0.1165430E+00
         21   -1    0    0  502  501  0.00000000000E+00  0.00000000000E+00  0.17837203195E+03  0.17837203195E+03  0.00000000000E+00 0.  1.
         21   -1    0    0  501  502 -0.00000000000E+00 -0.00000000000E+00 -0.18667014349E+03  0.18667014349E+03  0.00000000000E+00 0.  1.
         25    1    1    2    0    0  0.58317583159E+02  0.10707036294E+03  0.48843215115E+02  0.18131647136E+03  0.12500000000E+03 0.  0.
         25    1    1    2    0    0 -0.58317583159E+02 -0.10707036294E+03 -0.57141326651E+02  0.18372570407E+03  0.12500000000E+03 0.  0.
</event>
<event>
 4    0  0.2193754E-002  0.2117882E+03  0.7546771E-02  0.1140158E+00
         21   -1    0    0  502  501  0.00000000000E+00  0.00000000000E+00  0.10096560065E+03  0.10096560065E+03  0.00000000000E+00 0.  1.
         21   -1    0    0  501  502 -0.00000000000E+00 -0.00000000000E+00 -0.44425279501E+03  0.44425279501E+03  0.00000000000E+00 0.  1.
         25    1    1    2    0    0  0.92987237897E+02  0.13525437790E+03 -0.11006214243E+03  0.23383551558E+03  0.12500000000E+03 0.  0.
         25    1    1    2    0    0 -0.92987237897E+02 -0.13525437790E+03 -0.23322505193E+03  0.31138288007E+03  0.12500000000E+03 0.  0.
</event>
<event>
 4    0  0.2193754E-002  0.1765017E+03  0.7546771E-02  0.1171232E+00
         21   -1    0    0  502  501  0.00000000000E+00  0.00000000000E+00  0.20566278363E+03  0.20566278363E+03  0.00000000000E+00 0.  1.
         21   -1    0    0  501  502 -0.00000000000E+00 -0.00000000000E+00 -0.15147542650E+03  0.15147542650E+03  0.00000000000E+00 0.  1.
         25    1    1    2    0    0  0.59272029761E+02  0.85839015638E+02 -0.41868858528E+02  0.16810565556E+03  0.12500000000E+03 0.  0.
         25    1    1    2    0    0 -0.59272029761E+02 -0.85839015638E+02  0.96056215662E+02  0.18903255456E+03  0.12500000000E+03 0.  0.
</event>
<event>
 4    0  0.2193754E-002  0.1829332E+03  0.7546771E-02  0.1164994E+00
         21   -1    0    0  502  501  0.00000000000E+00  0.00000000000E+00  0.58836116661E+03  0.58836116661E+03  0.00000000000E+00 0. -1.
         21   -1    0    0  501  502 -0.00000000000E+00 -0.00000000000E+00 -0.56877584358E+02  0.56877584358E+02  0.00000000000E+00 0. -1.
         25    1    1    2    0    0 -0.41000454568E+02 -0.11144962758E+03  0.15792441146E+03  0.23381012916E+03  0.12500000000E+03 0.  0.
         25    1    1    2    0    0  0.41000454568E+02  0.11144962758E+03  0.37355917079E+03  0.41142862181E+03  0.12500000000E+03 0.  0.
</event>
<event>
 4    0  0.2193754E-002  0.1948898E+03  0.7546771E-02  0.1154123E+00
         21   -1    0    0  502  501  0.00000000000E+00  0.00000000000E+00  0.78839314001E+02  0.78839314001E+02  0.00000000000E+00 0. -1.
         21   -1    0    0  501  502 -0.00000000000E+00 -0.00000000000E+00 -0.48176536156E+03  0.48176536156E+03  0.00000000000E+00 0. -1.
         25    1    1    2    0    0  0.44212955129E+02  0.13359086904E+03 -0.27417337948E+03  0.33256179532E+03  0.12500000000E+03 0.  0.
         25    1    1    2    0    0 -0.44212955129E+02 -0.13359086904E+03 -0.12875266808E+03  0.22804288024E+03  0.12500000000E+03 0.  0.
</event>
<event>
 4    0  0.2193754E-002  0.1919302E+03  0.7546771E-02  0.1156732E+00
         21   -1    0    0  502  501  0.00000000000E+00  0.00000000000E+00  0.16877075252E+03  0.16877075252E+03  0.00000000000E+00 0. -1.
         21   -1    0    0  501  502 -0.00000000000E+00 -0.00000000000E+00 -0.21826760861E+03  0.21826760861E+03  0.00000000000E+00 0. -1.
         25    1    1    2    0    0 -0.45347863530E+02  0.13836723861E+03 -0.21517666561E+02  0.19310601083E+03  0.12500000000E+03 0.  0.
         25    1    1    2    0    0  0.45347863530E+02 -0.13836723861E+03 -0.27979189526E+02  0.19393235030E+03  0.12500000000E+03 0.  0.
</event>
<event>
 4    0  0.2193754E-002  0.1845338E+03  0.7546771E-02  0.1163486E+00
         21   -1    0    0  502  501  0.00000000000E+00  0.00000000000E+00  0.52187089162E+02  0.52187089162E+02  0.00000000000E+00 0.  1.
         21   -1    0    0  501  502 -0.00000000000E+00 -0.00000000000E+00 -0.65251227752E+03  0.65251227752E+03  0.00000000000E+00 0.  1.
         25    1    1    2    0    0  0.29531066496E+02  0.12933712712E+03 -0.24523475440E+03  0.30555729595E+03  0.12500000000E+03 0.  0.
         25    1    1    2    0    0 -0.29531066496E+02 -0.12933712712E+03 -0.35509043396E+03  0.39914207073E+03  0.12500000000E+03 0.  0.
</event>
<event>
 4    0  0.2193754E-002  0.2679882E+03  0.7546771E-02  0.1102437E+00
         21   -1    0    0  502  501  0.00000000000E+00  0.00000000000E+00  0.29879468421E+03  0.29879468421E+03  0.00000000000E+00 0.  1.
         21   -1    0    0  501  502 -0.00000000000E+00 -0.00000000000E+00 -0.24035788358E+03  0.24035788358E+03  0.00000000000E+00 0.  1.
         25    1    1    2    0    0  0.54863663015E+02 -0.11971972615E+02 -0.20244903402E+03  0.24446668694E+03  0.12500000000E+03 0.  0.
         25    1    1    2    0    0 -0.54863663015E+02  0.11971972615E+02  0.26088583465E+03  0.29468588084E+03  0.12500000000E+03 0.  0.
</event>
<event>
 4    0  0.2193754E-002  0.2505299E+03  0.7546771E-02  0.1112970E+00
         21   -1    0    0  502  501  0.00000000000E+00  0.00000000000E+00  0.13732432741E+03  0.13732432741E+03  0.00000000000E+00 0.  1.
         21   -1    0    0  501  502 -0.00000000000E+00 -0.00000000000E+00 -0.45705829875E+03  0.45705829875E+03  0.00000000000E+00 0.  1.
         25    1    1    2    0    0 -0.66376959099E+02 -0.20358439301E+03 -0.20243534400E+03  0.32008994717E+03  0.12500000000E+03 0.  0.
         25    1    1    2    0    0  0.66376959099E+02  0.20358439301E+03 -0.11729862734E+03  0.27429267900E+03  0.12500000000E+03 0.  0.
</event>
<event>
 4    0  0.2193754E-002  0.3082906E+03  0.7546771E-02  0.1081168E+00
         21   -1    0    0  502  501  0.00000000000E+00  0.00000000000E+00  0.55562758624E+03  0.55562758624E+03  0.00000000000E+00 0.  1.
         21   -1    0    0  501  502 -0.00000000000E+00 -0.00000000000E+00 -0.17105539453E+03  0.17105539453E+03  0.00000000000E+00 0.  1.
         25    1    1    2    0    0  0.23784155022E+03  0.12723992526E+02  0.14765430497E+02  0.26939473071E+03  0.12500000000E+03 0.  0.
         25    1    1    2    0    0 -0.23784155022E+03 -0.12723992526E+02  0.36980676122E+03  0.45728825006E+03  0.12500000000E+03 0.  0.
</event>
<event>
 4    0  0.2193754E-002  0.2804116E+03  0.7546771E-02  0.1095464E+00
         21   -1    0    0  502  501  0.00000000000E+00  0.00000000000E+00  0.11737588828E+04  0.11737588828E+04  0.00000000000E+00 0.  1.
         21   -1    0    0  501  502 -0.00000000000E+00 -0.00000000000E+00 -0.66990484493E+02  0.66990484493E+02  0.00000000000E+00 0.  1.
         25    1    1    2    0    0  0.59135013641E+02 -0.23619368566E+03  0.41842465309E+03  0.49998859716E+03  0.12500000000E+03 0.  0.
         25    1    1    2    0    0 -0.59135013641E+02  0.23619368566E+03  0.68834374523E+03  0.74076077014E+03  0.12500000000E+03 0.  0.
</event>
<event>
 4    0  0.2193754E-002  0.2421860E+03  0.7546771E-02  0.1118345E+00
         21   -1    0    0  502  501  0.00000000000E+00  0.00000000000E+00  0.66360891457E+03  0.66360891457E+03  0.00000000000E+00 0. -1.
         21   -1    0    0  501  502 -0.00000000000E+00 -0.00000000000E+00 -0.88386495891E+02  0.88386495891E+02  0.00000000000E+00 0. -1.
         25    1    1    2    0    0  0.19329040996E+03  0.74043284551E+02  0.30875486256E+03  0.39217107966E+03  0.12500000000E+03 0.  0.
         25    1    1    2    0    0 -0.19329040996E+03 -0.74043284551E+02  0.26646755612E+03  0.35982433080E+03  0.12500000000E+03 0.  0.
</event>
<event>
 4    0  0.2193754E-002  0.1970794E+03  0.7546771E-02  0.1152227E+00
         21   -1    0    0  502  501  0.00000000000E+00  0.00000000000E+00  0.75189818031E+02  0.75189818031E+02  0.00000000000E+00 0.  1.
         21   -1    0    0  501  502 -0.00000000000E+00 -0.00000000000E+00 -0.51656312235E+03  0.51656312235E+03  0.00000000000E+00 0.  1.
         25    1    1    2    0    0  0.13866588017E+03 -0.12801421398E+02 -0.12785804401E+03  0.22663799799E+03  0.12500000000E+03 0.  0.
         25    1    1    2    0    0 -0.13866588017E+03  0.12801421398E+02 -0.31351526031E+03  0.36511494239E+03  0.12500000000E+03 0.  0.
</event>
<event>
 4    0  0.2193754E-002  0.1703804E+03  0.7546771E-02  0.1177452E+00
         21   -1    0    0  502  501  0.00000000000E+00  0.00000000000E+00  0.24295139323E+02  0.24295139323E+02  0.00000000000E+00 0. -1.
         21   -1    0    0  501  502 -0.00000000000E+00 -0.00000000000E+00 -0.11948673538E+04  0.11948673538E+04  0.00000000000E+00 0. -1.
         25    1    1    2    0    0 -0.71084008809E+02  0.50513753105E+02 -0.31281399785E+03  0.34796863768E+03  0.12500000000E+03 0.  0.
         25    1    1    2    0    0  0.71084008809E+02 -0.50513753105E+02 -0.85775821662E+03  0.87119385543E+03  0.12500000000E+03 0.  0.
</event>
<event>
 4    0  0.2193754E-002  0.1901044E+03  0.7546771E-02  0.1158367E+00
         21   -1    0    0  502  501  0.00000000000E+00  0.00000000000E+00  0.12849516523E+03  0.12849516523E+03  0.00000000000E+00 0.  1.
         21   -1    0    0  501  502 -0.00000000000E+00 -0.00000000000E+00 -0.28125330710E+03  0.28125330710E+03  0.00000000000E+00 0.  1.
         25    1    1    2    0    0 -0.66409992426E+02 -0.58239258602E+02  0.45130975394E+02  0.15957413098E+03  0.12500000000E+03 0.  0.
         25    1    1    2    0    0  0.66409992426E+02  0.58239258602E+02 -0.19788911726E+03  0.25017434135E+03  0.12500000000E+03 0.  0.
</event>
<event>
 4    0  0.2193754E-002  0.2684495E+03  0.7546771E-02  0.1102170E+00
         21   -1    0    0  502  501  0.00000000000E+00  0.00000000000E+00  0.10480638691E+03  0.10480638691E+03  0.00000000000E+00 0.  1.
         21   -1    0    0  501  502 -0.00000000000E+00 -0.00000000000E+00 -0.68760258934E+03  0.68760258934E+03  0.00000000000E+00 0.  1.
         25    1    1    2    0    0 -0.33588344729E+01 -0.21025712433E+03 -0.12824075436E+03  0.27620650097E+03  0.12500000000E+03 0.  0.
         25    1    1    2    0    0  0.33588344729E+01  0.21025712433E+03 -0.45455544808E+03  0.51620247527E+03  0.12500000000E+03 0.  0.
</event>
<event>
 4    0  0.2193754E-002  0.3531166E+03  0.7546771E-02  0.1061343E+00
         21   -1    0    0  502  501  0.00000000000E+00  0.00000000000E+00  0.12396343880E+03  0.12396343880E+03  0.00000000000E+00 0.  1.
         21   -1    0    0  501  502 -0.00000000000E+00 -0.00000000000E+00 -0.10058716124E+04  0.10058716124E+04  0.00000000000E+00 0.  1.
         25    1    1    2    0    0 -0.86917881839E+02 -0.11820191035E+03  0.32382389692E+02  0.19544827693E+03  0.12500000000E+03 0.  0.
         25    1    1    2    0    0  0.86917881839E+02  0.11820191035E+03 -0.91429056331E+03  0.93438677428E+03  0.12500000000E+03 0.  0.
</event>
<event>
 4    0  0.2193754E-002  0.3291616E+03  0.7546771E-02  0.1071508E+00
         21   -1    0    0  502  501  0.00000000000E+00  0.00000000000E+00  0.76209344307E+03  0.76209344307E+03  0.00000000000E+00 0. -1.
         21   -1    0    0  501  502 -0.00000000000E+00 -0.00000000000E+00 -0.14217073324E+03  0.14217073324E+03  0.00000000000E+00 0. -1.
         25    1    1    2    0    0 -0.50290904894E+02 -0.25605010815E+03  0.94384569146E+02  0.30434237282E+03  0.12500000000E+03 0.  0.
         25    1    1    2    0    0  0.50290904894E+02  0.25605010815E+03  0.52553814068E+03  0.59992180349E+03  0.12500000000E+03 0.  0.
</event>
<event>
 4    0  0.2193754E-002  0.1942276E+03  0.7546771E-02  0.1154703E+00
         21   -1    0    0  502  501  0.00000000000E+00  0.00000000000E+00  0.28294136225E+03  0.28294136225E+03  0.00000000000E+00 0.  1.
         21   -1    0    0  501  502 -0.00000000000E+00 -0.00000000000E+00 -0.13332932024E+03  0.13332932024E+03  0.00000000000E+00 0.  1.
         25    1    1    2    0    0  0.12589709788E+03  0.55712775345E+02  0.13490565318E+03  0.22973577835E+03  0.12500000000E+03 0.  0.
         25    1    1    2    0    0 -0.12589709788E+03 -0.55712775345E+02  0.14706388831E+02  0.18653490415E+03  0.12500000000E+03 0.  0.
</event>
<event>
 4    0  0.2193754E-002  0.2202014E+03  0.7546771E-02  0.1133733E+00
         21   -1    0    0  502  501  0.00000000000E+00  0.00000000000E+00  0.10426203358E+04  0.10426203358E+04  0.00000000000E+00 0.  1.
         21   -1    0    0  501  502 -0.00000000000E+00 -0.00000000000E+00 -0.46506517097E+02  0.46506517097E+02  0.00000000000E+00 0.  1.
         25    1    1    2    0    0  0.11345507571E+02 -0.98562387215E+02  0.87327577882E+03  0.88773805291E+03  0.12500000000E+03 0.  0.
         25    1    1    2    0    0 -0.11345507571E+02  0.98562387215E+02  0.12283803988E+03  0.20138879998E+03  0.12500000000E+03 0.  0.
</event>
<event>
 4    0  0.2193754E-002  0.1450330E+03  0.7546771E-02  0.1206713E+00
         21   -1    0    0  502  501  0.00000000000E+00  0.00000000000E+00  0.11769502491E+04  0.11769502491E+04  0.00000000000E+00 0.  1.
         21   -1    0    0  501  502 -0.00000000000E+00 -0.00000000000E+00 -0.17872108698E+02  0.17872108698E+02  0.00000000000E+00 0.  1.
         25    1    1    2    0    0 -0.28064382558E+02 -0.68695657798E+01  0.85814580405E+03  0.86768313428E+03  0.12500000000E+03 0.  0.
         25    1    1    2    0    0  0.28064382558E+02  0.68695657798E+01  0.30093233634E+03  0.32713922351E+03  0.12500000000E+03 0.  0.
</event>
<event>
 4    0  0.2193754E-002  0.1745714E+03  0.7546771E-02  0.1173163E+00
         21   -1    0    0  502  501  0.00000000000E+00  0.00000000000E+00  0.52712305932E+02  0.52712305932E+02  0.00000000000E+00 0.  1.
         21   -1    0    0  501  502 -0.00000000000E+00 -0.00000000000E+00 -0.57814132433E+03  0.57814132433E+03  0.00000000000E+00 0.  1.
         25    1    1    2    0    0  0.10393522841E+03 -0.15301618462E+01 -0.14779324691E+03  0.21971052986E+03  0.12500000000E+03 0.  0.
         25    1    1    2    0    0 -0.10393522841E+03  0.15301618462E+01 -0.37763577148E+03  0.41114310040E+03  0.12500000000E+03 0.  0.
</event>
<event>
 4    0  0.2193754E-002  0.3576953E+03  0.7546771E-02  0.1059500E+00
         21   -1    0    0  502  501  0.00000000000E+00  0.00000000000E+00  0.11680718574E+03  0.11680718574E+03  0.00000000000E+00 0.  1.
         21   -1    0    0  501  502 -0.00000000000E+00 -0.00000000000E+00 -0.10953598379E+04  0.10953598379E+04  0.00000000000E+00 0.  1.
         25    1    1    2    0    0 -0.20879730232E+03  0.13382043643E+03 -0.87124031078E+03  0.91443365084E+03  0.12500000000E+03 0.  0.
         25    1    1    2    0    0  0.20879730232E+03 -0.13382043643E+03 -0.10731234136E+03  0.29773337278E+03  0.12500000000E+03 0.  0.
</event>
<event>
 4    0  0.2193754E-002  0.1873601E+03  0.7546771E-02  0.1160864E+00
         21   -1    0    0  502  501  0.00000000000E+00  0.00000000000E+00  0.11076808382E+03  0.11076808382E+03  0.00000000000E+00 0.  1.
         21   -1    0    0  501  502 -0.00000000000E+00 -0.00000000000E+00 -0.31691268820E+03  0.31691268820E+03  0.00000000000E+00 0.  1.
         25    1    1    2    0    0 -0.12352836403E+03  0.20443022556E+02 -0.17344398485E+03  0.24775994384E+03  0.12500000000E+03 0.  0.
         25    1    1    2    0    0  0.12352836403E+03 -0.20443022556E+02 -0.32700619532E+02  0.17992082817E+03  0.12500000000E+03 0.  0.
</event>
<event>
 4    0  0.2193754E-002  0.1622771E+03  0.7546771E-02  0.1186150E+00
         21   -1    0    0  502  501  0.00000000000E+00  0.00000000000E+00  0.77395221686E+03  0.77395221686E+03  0.00000000000E+00 0. -1.
         21   -1    0    0  501  502 -0.00000000000E+00 -0.00000000000E+00 -0.34025159323E+02  0.34025159323E+02  0.00000000000E+00 0. -1.
         25    1    1    2    0    0  0.49494373694E+02 -0.86505492909E+02  0.30061614544E+03  0.34048195287E+03  0.12500000000E+03 0.  0.
         25    1    1    2    0    0 -0.49494373694E+02  0.86505492909E+02  0.43931091209E+03  0.46749542331E+03  0.12500000000E+03 0.  0.
</event>
<event>
 4    0  0.2193754E-002  0.2192831E+03  0.7546771E-02  0.1134419E+00
         21   -1    0    0  502  501  0.00000000000E+00  0.00000000000E+00  0.34858437824E+03  0.34858437824E+03  0.00000000000E+00 0. -1.
         21   -1    0    0  501  502 -0.00000000000E+00 -0.00000000000E+00 -0.13794385003E+03  0.13794385003E+03  0.00000000000E+00 0. -1.
         25    1    1    2    0    0  0.98591471459E+02  0.14923544072E+03  0.81306346257E+02  0.23286738061E+03  0.12500000000E+03 0.  0.
         25    1    1    2    0    0 -0.98591471459E+02 -0.14923544072E+03  0.12933418195E+03  0.25366084765E+03  0.12500000000E+03 0.  0.
</event>
<event>
 4    0  0.2193754E-002  0.2848962E+03  0.7546771E-02  0.1093044E+00
         21   -1    0    0  502  501  0.00000000000E+00  0.00000000000E+00  0.12434887850E+04  0.12434887850E+04  0.00000000000E+00 0.  1.
         21   -1    0    0  501  502 -0.00000000000E+00 -0.00000000000E+00 -0.65272681183E+02  0.65272681183E+02  0.00000000000E+00 0.  1.
         25    1    1    2    0    0 -0.12189424667E+03 -0.57009046534E+02  0.10893525775E+04  0.11047272410E+04  0.12500000000E+03 0.  0.
         25    1    1    2    0    0  0.12189424667E+03  0.57009046534E+02  0.88863526293E+02  0.20403422523E+03  0.12500000000E+03 0.  0.
</event>
<event>
 4    0  0.2193754E-002  0.2228408E+03  0.7546771E-02  0.1131783E+00
         21   -1    0    0  502  501  0.00000000000E+00  0.00000000000E+00  0.12060698782E+03  0.12060698782E+03  0.00000000000E+00 0. -1.
         21   -1    0    0  501  502 -0.00000000000E+00 -0.00000000000E+00 -0.41173424805E+03  0.41173424805E+03  0.00000000000E+00 0. -1.
         25    1    1    2    0    0 -0.18255718091E+03 -0.14640062208E+02 -0.11908113962E+03  0.25168784940E+03  0.12500000000E+03 0.  0.
         25    1    1    2    0    0  0.18255718091E+03  0.14640062208E+02 -0.17204612061E+03  0.28065338647E+03  0.12500000000E+03 0.  0.
</event>
<event>
 4    0  0.2193754E-002  0.2549012E+03  0.7546771E-02  0.1110246E+00
         21   -1    0    0  502  501  0.00000000000E+00  0.00000000000E+00  0.57274784918E+02  0.57274784918E+02  0.00000000000E+00 0.  1.
         21   -1    0    0  501  502 -0.00000000000E+00 -0.00000000000E+00 -0.11344364380E+04  0.11344364380E+04  0.00000000000E+00 0.  1.
         25    1    1    2    0    0 -0.20904965230E+03 -0.64367596373E+02 -0.62925595373E+03  0.67781487140E+03  0.12500000000E+03 0.  0.
         25    1    1    2    0    0  0.20904965230E+03  0.64367596373E+02 -0.44790569936E+03  0.51389635152E+03  0.12500000000E+03 0.  0.
</event>
<event>
 4    0  0.2193754E-002  0.2042353E+03  0.7546771E-02  0.1146214E+00
         21   -1    0    0  502  501  0.00000000000E+00  0.00000000000E+00  0.39982699684E+02  0.39982699684E+02  0.00000000000E+00 0. -1.
         21   -1    0    0  501  502 -0.00000000000E+00 -0.00000000000E+00 -0.10432527644E+04  0.10432527644E+04  0.00000000000E+00 0. -1.
         25    1    1    2    0    0  0.39729323993E+02 -0.97006601583E+02 -0.82749196286E+03  0.84341961593E+03  0.12500000000E+03 0.  0.
         25    1    1    2    0    0 -0.39729323993E+02  0.97006601583E+02 -0.17577810187E+03  0.23981584817E+03  0.12500000000E+03 0.  0.
</event>
<event>
 4    0  0.2193754E-002  0.2470366E+03  0.7546771E-02  0.1115192E+00
         21   -1    0    0  502  501  0.00000000000E+00  0.00000000000E+00  0.14300172557E+03  0.14300172557E+03  0.00000000000E+00 0. -1.
         21   -1    0    0  501  502 -0.00000000000E+00 -0.00000000000E+00 -0.42675779815E+03  0.42675779815E+03  0.00000000000E+00 0. -1.
         25    1    1    2    0    0  0.36234667961E+02  0.30851912180E+01  0.10023557506E+03  0.16430045671E+03  0.12500000000E+03 0.  0.
         25    1    1    2    0    0 -0.36234667961E+02 -0.30851912180E+01 -0.38399164764E+03  0.40545906701E+03  0.12500000000E+03 0.  0.
</event>
<event>
 4    0  0.2193754E-002  0.4849741E+03  0.7546771E-02  0.1017777E+00
         21   -1    0    0  502  501  0.00000000000E+00  0.00000000000E+00  0.27927578299E+04  0.27927578299E+04  0.00000000000E+00 0.  1.
         21   -1    0    0  501  502 -0.00000000000E+00 -0.00000000000E+00 -0.84217801866E+02  0.84217801866E+02  0.00000000000E+00 0.  1.
         25    1    1    2    0    0  0.15685466357E+02 -0.23300072479E+03  0.25592549520E+04  0.25729256268E+04  0.12500000000E+03 0.  0.
         25    1    1    2    0    0 -0.15685466357E+02  0.23300072479E+03  0.14928507605E+03  0.30405000500E+03  0.12500000000E+03 0.  0.
</event>
<event>
 4    0  0.2193754E-002  0.2576449E+03  0.7546771E-02  0.1108567E+00
         21   -1    0    0  502  501  0.00000000000E+00  0.00000000000E+00  0.38057641818E+03  0.38057641818E+03  0.00000000000E+00 0.  1.
         21   -1    0    0  501  502 -0.00000000000E+00 -0.00000000000E+00 -0.17442194395E+03  0.17442194395E+03  0.00000000000E+00 0.  1.
         25    1    1    2    0    0 -0.34358583201E+02 -0.75077519193E+02 -0.12269158646E+03  0.19363721625E+03  0.12500000000E+03 0.  0.
         25    1    1    2    0    0  0.34358583201E+02  0.75077519193E+02  0.32884606069E+03  0.36136114589E+03  0.12500000000E+03 0.  0.
</event>
<event>
 4    0  0.2193754E-002  0.3321833E+03  0.7546771E-02  0.1070175E+00
         21   -1    0    0  502  501  0.00000000000E+00  0.00000000000E+00  0.12450244106E+04  0.12450244106E+04  0.00000000000E+00 0. -1.
         21   -1    0    0  501  502 -0.00000000000E+00 -0.00000000000E+00 -0.88629389557E+02  0.88629389557E+02  0.00000000000E+00 0. -1.
         25    1    1    2    0    0 -0.11976125857E+03  0.25469520246E+03  0.32821013813E+03  0.45006588404E+03  0.12500000000E+03 0.  0.
         25    1    1    2    0    0  0.11976125857E+03 -0.25469520246E+03  0.82818488294E+03  0.88358791614E+03  0.12500000000E+03 0.  0.
</event>
<event>
 4    0  0.2193754E-002  0.3465738E+03  0.7546771E-02  0.1064030E+00
         21   -1    0    0  502  501  0.00000000000E+00  0.00000000000E+00  0.89851372742E+03  0.89851372742E+03  0.00000000000E+00 0.  1.
         21   -1    0    0  501  502 -0.00000000000E+00 -0.00000000000E+00 -0.13368011107E+03  0.13368011107E+03  0.00000000000E+00 0.  1.
         25    1    1    2    0    0  0.10203151051E+03  0.11284115735E+02 -0.74024997080E+02  0.17788327802E+03  0.12500000000E+03 0.  0.
         25    1    1    2    0    0 -0.10203151051E+03 -0.11284115735E+02  0.83885861343E+03  0.85431056047E+03  0.12500000000E+03 0.  0.
</event>
<event>
 4    0  0.2193754E-002  0.1557160E+03  0.7546771E-02  0.1193620E+00
         21   -1    0    0  502  501  0.00000000000E+00  0.00000000000E+00  0.18675120932E+03  0.18675120932E+03  0.00000000000E+00 0. -1.
         21   -1    0    0  501  502 -0.00000000000E+00 -0.00000000000E+00 -0.12983843569E+03  0.12983843569E+03  0.00000000000E+00 0. -1.
         25    1    1    2    0    0 -0.89474031344E+02 -0.51335987659E+01  0.53159625145E+02  0.16273568099E+03  0.12500000000E+03 0.  0.
         25    1    1    2    0    0  0.89474031344E+02  0.51335987659E+01  0.37531484771E+01  0.15385396402E+03  0.12500000000E+03 0.  0.
</event>
<event>
 4    0  0.2193754E-002  0.2965806E+03  0.7546771E-02  0.1086963E+00
         21   -1    0    0  502  501  0.00000000000E+00  0.00000000000E+00  0.11579090898E+04  0.11579090898E+04  0.00000000000E+00 0. -1.
         21   -1    0    0  501  502 -0.00000000000E+00 -0.00000000000E+00 -0.75964558387E+02  0.75964558387E+02  0.00000000000E+00 0. -1.
         25    1    1    2    0    0 -0.38671541693E+02 -0.26603585695E+03  0.55767683078E+03  0.63158452555E+03  0.12500000000E+03 0.  0.
         25    1    1    2    0    0  0.38671541693E+02  0.26603585695E+03  0.52426770063E+03  0.60228912263E+03  0.12500000000E+03 0.  0.
</event>
<event>
 4    0  0.2199429E-002  0.2033221E+03  0.7546771E-02  0.1146966E+00
         21   -1    0    0  502  501  0.00000000000E+00  0.00000000000E+00  0.16632310293E+03  0.16632310293E+03  0.00000000000E+00 0.  1.
         21   -1    0    0  501  502 -0.00000000000E+00 -0.00000000000E+00 -0.24855173998E+03  0.24855173998E+03  0.00000000000E+00 0.  1.
         25    1    1    2    0    0  0.28680321021E+02 -0.61667246570E+01  0.11972908122E+03  0.17555808781E+03  0.12500000000E+03 0.  0.
         25    1    1    2    0    0 -0.28680321021E+02  0.61667246570E+01 -0.20195771827E+03  0.23931675510E+03  0.12500000000E+03 0.  0.
</event>
<event>
 4    0  0.2193754E-002  0.3372009E+03  0.7546771E-02  0.1067994E+00
         21   -1    0    0  502  501  0.00000000000E+00  0.00000000000E+00  0.24683533841E+04  0.24683533841E+04  0.00000000000E+00 0. -1.
         21   -1    0    0  501  502 -0.00000000000E+00 -0.00000000000E+00 -0.46064906526E+02  0.46064906526E+02  0.00000000000E+00 0.  1.
         25    1    1    2    0    0 -0.70444483683E+02 -0.30514591693E+03  0.12046736038E+04  0.12509755983E+04  0.12500000000E+03 0.  0.
         25    1    1    2    0    0  0.70444483683E+02  0.30514591693E+03  0.12176148738E+04  0.12634426923E+04  0.12500000000E+03 0.  0.
</event>
<event>
 4    0  0.2193754E-002  0.2063846E+03  0.7546771E-02  0.1144461E+00
         21   -1    0    0  502  501  0.00000000000E+00  0.00000000000E+00  0.58716510677E+03  0.58716510677E+03  0.00000000000E+00 0. -1.
         21   -1    0    0  501  502 -0.00000000000E+00 -0.00000000000E+00 -0.72542821561E+02  0.72542821561E+02  0.00000000000E+00 0. -1.
         25    1    1    2    0    0  0.84261868323E+02 -0.51923521037E+02  0.47864326882E+02  0.16646954159E+03  0.12500000000E+03 0.  0.
         25    1    1    2    0    0 -0.84261868323E+02  0.51923521037E+02  0.46675795833E+03  0.49323838674E+03  0.12500000000E+03 0.  0.
</event>
<event>
 4    0  0.2193754E-002  0.1897749E+03  0.7546771E-02  0.1158665E+00
         21   -1    0    0  502  501  0.00000000000E+00  0.00000000000E+00  0.17854835822E+03  0.17854835822E+03  0.00000000000E+00 0. -1.
         21   -1    0    0  501  502 -0.00000000000E+00 -0.00000000000E+00 -0.20170726094E+03  0.20170726094E+03  0.00000000000E+00 0. -1.
         25    1    1    2    0    0  0.90061045140E+02 -0.96965003955E+02 -0.65310308663E+02  0.19340020750E+03  0.12500000000E+03 0.  0.
         25    1    1    2    0    0 -0.90061045140E+02  0.96965003955E+02  0.42151405947E+02  0.18685541166E+03  0.12500000000E+03 0.  0.
</event>
<event>
 4    0  0.2193754E-002  0.2731856E+03  0.7546771E-02  0.1099470E+00
         21   -1    0    0  502  501  0.00000000000E+00  0.00000000000E+00  0.34485962019E+03  0.34485962019E+03  0.00000000000E+00 0. -1.
         21   -1    0    0  501  502 -0.00000000000E+00 -0.00000000000E+00 -0.21640795119E+03  0.21640795119E+03  0.00000000000E+00 0. -1.
         25    1    1    2    0    0  0.16939434294E+02  0.23157518549E+03 -0.90732879040E+01  0.26385855211E+03  0.12500000000E+03 0.  0.
         25    1    1    2    0    0 -0.16939434294E+02 -0.23157518549E+03  0.13752495690E+03  0.29740901927E+03  0.12500000000E+03 0.  0.
</event>
<event>
 4    0  0.2193754E-002  0.2236918E+03  0.7546771E-02  0.1131160E+00
         21   -1    0    0  502  501  0.00000000000E+00  0.00000000000E+00  0.57707804874E+03  0.57707804874E+03  0.00000000000E+00 0.  1.
         21   -1    0    0  501  502 -0.00000000000E+00 -0.00000000000E+00 -0.86709278618E+02  0.86709278618E+02  0.00000000000E+00 0.  1.
         25    1    1    2    0    0 -0.69488179234E+02 -0.14973528285E+03  0.11960469965E+03  0.23912245014E+03  0.12500000000E+03 0.  0.
         25    1    1    2    0    0  0.69488179234E+02  0.14973528285E+03  0.37076407048E+03  0.42466487722E+03  0.12500000000E+03 0.  0.
</event>
<event>
 4    0  0.2193754E-002  0.2860938E+03  0.7546771E-02  0.1092406E+00
         21   -1    0    0  502  501  0.00000000000E+00  0.00000000000E+00  0.38616071292E+03  0.38616071292E+03  0.00000000000E+00 0.  1.
         21   -1    0    0  501  502 -0.00000000000E+00 -0.00000000000E+00 -0.21195758125E+03  0.21195758125E+03  0.00000000000E+00 0.  1.
         25    1    1    2    0    0 -0.17195993878E+03 -0.68764444931E+02  0.27387722946E+03  0.35345792713E+03  0.12500000000E+03 0.  0.
         25    1    1    2    0    0  0.17195993878E+03  0.68764444931E+02 -0.99674097791E+02  0.24466036705E+03  0.12500000000E+03 0.  0.
</event>
<event>
 4    0  0.2193754E-002  0.2891053E+03  0.7546771E-02  0.1090817E+00
         21   -1    0    0  502  501  0.00000000000E+00  0.00000000000E+00  0.75307752537E+03  0.75307752537E+03  0.00000000000E+00 0.  1.
         21   -1    0    0  501  502 -0.00000000000E+00 -0.00000000000E+00 -0.11098706531E+03  0.11098706531E+03  0.00000000000E+00 0.  1.
         25    1    1    2    0    0 -0.24727686073E+03 -0.63041607827E+02  0.24145265078E+03  0.37288667547E+03  0.12500000000E+03 0.  0.
         25    1    1    2    0    0  0.24727686073E+03  0.63041607827E+02  0.40063780927E+03  0.49117791521E+03  0.12500000000E+03 0.  0.
</event>
<event>
 4    0  0.2193754E-002  0.1702647E+03  0.7546771E-02  0.1177572E+00
         21   -1    0    0  502  501  0.00000000000E+00  0.00000000000E+00  0.54958142940E+02  0.54958142940E+02  0.00000000000E+00 0. -1.
         21   -1    0    0  501  502 -0.00000000000E+00 -0.00000000000E+00 -0.52749330281E+03  0.52749330281E+03  0.00000000000E+00 0. -1.
         25    1    1    2    0    0  0.97679489506E+02  0.14676854439E+02 -0.33901244797E+03  0.37458127637E+03  0.12500000000E+03 0.  0.
         25    1    1    2    0    0 -0.97679489506E+02 -0.14676854439E+02 -0.13352271190E+03  0.20787016939E+03  0.12500000000E+03 0.  0.
</event>
<event>
 4    0  0.2193754E-002  0.1855053E+03  0.7546771E-02  0.1162579E+00
         21   -1    0    0  502  501  0.00000000000E+00  0.00000000000E+00  0.13006870432E+03  0.13006870432E+03  0.00000000000E+00 0.  1.
         21   -1    0    0  501  502 -0.00000000000E+00 -0.00000000000E+00 -0.26456966234E+03  0.26456966234E+03  0.00000000000E+00 0.  1.
         25    1    1    2    0    0  0.31361088703E+02  0.81364904873E+02  0.45236206924E+02  0.15898138270E+03  0.12500000000E+03 0.  0.
         25    1    1    2    0    0 -0.31361088703E+02 -0.81364904873E+02 -0.17973716494E+03  0.23565698396E+03  0.12500000000E+03 0.  0.
</event>
<event>
 4    0  0.2193754E-002  0.2301779E+03  0.7546771E-02  0.1126515E+00
         21   -1    0    0  502  501  0.00000000000E+00  0.00000000000E+00  0.34579022421E+03  0.34579022421E+03  0.00000000000E+00 0.  1.
         21   -1    0    0  501  502 -0.00000000000E+00 -0.00000000000E+00 -0.15321966028E+03  0.15321966028E+03  0.00000000000E+00 0.  1.
         25    1    1    2    0    0 -0.13570111512E+03 -0.13729436792E+03  0.85869923825E+02  0.24548560024E+03  0.12500000000E+03 0.  0.
         25    1    1    2    0    0  0.13570111512E+03  0.13729436792E+03  0.10670064010E+03  0.25352428425E+03  0.12500000000E+03 0.  0.
</event>
<event>
 4    0  0.2193754E-002  0.2639490E+03  0.7546771E-02  0.1104794E+00
         21   -1    0    0  502  501  0.00000000000E+00  0.00000000000E+00  0.59863005310E+03  0.59863005310E+03  0.00000000000E+00 0. -1.
         21   -1    0    0  501  502 -0.00000000000E+00 -0.00000000000E+00 -0.11638084370E+03  0.11638084370E+03  0.00000000000E+00 0. -1.
         25    1    1    2    0    0 -0.80945772317E+01  0.22568103704E+03  0.16636419769E+03  0.30708223480E+03  0.12500000000E+03 0.  0.
         25    1    1    2    0    0  0.80945772317E+01 -0.22568103704E+03  0.31588501171E+03  0.40792866200E+03  0.12500000000E+03 0.  0.
</event>
<event>
 4    0  0.2193754E-002  0.1681228E+03  0.7546771E-02  0.1179820E+00
         21   -1    0    0  502  501  0.00000000000E+00  0.00000000000E+00  0.76754900570E+02  0.76754900570E+02  0.00000000000E+00 0.  1.
         21   -1    0    0  501  502 -0.00000000000E+00 -0.00000000000E+00 -0.36825385530E+03  0.36825385530E+03  0.00000000000E+00 0.  1.
         25    1    1    2    0    0 -0.99439938080E+02 -0.47443450693E+02 -0.17537571795E+03  0.24191077848E+03  0.12500000000E+03 0.  0.
         25    1    1    2    0    0  0.99439938080E+02  0.47443450693E+02 -0.11612323678E+03  0.20309797739E+03  0.12500000000E+03 0.  0.
</event>
<event>
 4    0  0.2193754E-002  0.3197126E+03  0.7546771E-02  0.1075782E+00
         21   -1    0    0  502  501  0.00000000000E+00  0.00000000000E+00  0.13548740651E+03  0.13548740651E+03  0.00000000000E+00 0. -1.
         21   -1    0    0  501  502 -0.00000000000E+00 -0.00000000000E+00 -0.75443270116E+03  0.75443270116E+03  0.00000000000E+00 0. -1.
         25    1    1    2    0    0  0.11812370984E+03 -0.22322204290E+03 -0.99277630933E+02  0.29876803589E+03  0.12500000000E+03 0.  0.
         25    1    1    2    0    0 -0.11812370984E+03  0.22322204290E+03 -0.51966766371E+03  0.59115207178E+03  0.12500000000E+03 0.  0.
</event>
<event>
 4    0  0.2193754E-002  0.2048300E+03  0.7546771E-02  0.1145727E+00
         21   -1    0    0  502  501  0.00000000000E+00  0.00000000000E+00  0.10830989996E+04  0.10830989996E+04  0.00000000000E+00 0. -1.
         21   -1    0    0  501  502 -0.00000000000E+00 -0.00000000000E+00 -0.38736384145E+02  0.38736384145E+02  0.00000000000E+00 0. -1.
         25    1    1    2    0    0 -0.14925232605E+03 -0.30872446458E+02  0.36968666273E+03  0.41895416620E+03  0.12500000000E+03 0.  0.
         25    1    1    2    0    0  0.14925232605E+03  0.30872446458E+02  0.67467595274E+03  0.70288121756E+03  0.12500000000E+03 0.  0.
</event>
<event>
 4    0  0.2193754E-002  0.1864979E+03  0.7546771E-02  0.1161658E+00
         21   -1    0    0  502  501  0.00000000000E+00  0.00000000000E+00  0.11579858937E+03  0.11579858937E+03  0.00000000000E+00 0.  1.
         21   -1    0    0  501  502 -0.00000000000E+00 -0.00000000000E+00 -0.30036162741E+03  0.30036162741E+03  0.00000000000E+00 0.  1.
         25    1    1    2    0    0 -0.12122273225E+03 -0.66508580171E+02 -0.85393724356E+02  0.20502543796E+03  0.12500000000E+03 0.  0.
         25    1    1    2    0    0  0.12122273225E+03  0.66508580171E+02 -0.99169313681E+02  0.21113477882E+03  0.12500000000E+03 0.  0.
</event>
<event>
 4    0  0.2193754E-002  0.1433012E+03  0.7546771E-02  0.1208955E+00
         21   -1    0    0  502  501  0.00000000000E+00  0.00000000000E+00  0.85657270366E+02  0.85657270366E+02  0.00000000000E+00 0. -1.
         21   -1    0    0  501  502 -0.00000000000E+00 -0.00000000000E+00 -0.23973733021E+03  0.23973733021E+03  0.00000000000E+00 0. -1.
         25    1    1    2    0    0 -0.69989393462E+02 -0.24098790949E+01 -0.74276994401E+02  0.16138895443E+03  0.12500000000E+03 0.  0.
         25    1    1    2    0    0  0.69989393462E+02  0.24098790949E+01 -0.79803065446E+02  0.16400564615E+03  0.12500000000E+03 0.  0.
</event>
<event>
 4    0  0.2193754E-002  0.2407490E+03  0.7546771E-02  0.1119295E+00
         21   -1    0    0  502  501  0.00000000000E+00  0.00000000000E+00  0.21430731634E+03  0.21430731634E+03  0.00000000000E+00 0.  1.
         21   -1    0    0  501  502 -0.00000000000E+00 -0.00000000000E+00 -0.27045313640E+03  0.27045313640E+03  0.00000000000E+00 0.  1.
         25    1    1    2    0    0 -0.44297902161E+01  0.18378647159E+03  0.64954438308E+02  0.23160563300E+03  0.12500000000E+03 0.  0.
         25    1    1    2    0    0  0.44297902161E+01 -0.18378647159E+03 -0.12110025837E+03  0.25315481974E+03  0.12500000000E+03 0.  0.
</event>
<event>
 4    0  0.2193754E-002  0.2220065E+03  0.7546771E-02  0.1132396E+00
         21   -1    0    0  502  501  0.00000000000E+00  0.00000000000E+00  0.94944948711E+03  0.94944948711E+03  0.00000000000E+00 0. -1.
         21   -1    0    0  501  502 -0.00000000000E+00 -0.00000000000E+00 -0.51911036501E+02  0.51911036501E+02  0.00000000000E+00 0. -1.
         25    1    1    2    0    0  0.58102548883E+02  0.12669086731E+03  0.17969016268E+03  0.25949958885E+03  0.12500000000E+03 0.  0.
         25    1    1    2    0    0 -0.58102548883E+02 -0.12669086731E+03  0.71784828793E+03  0.74186093476E+03  0.12500000000E+03 0.  0.
</event>
<event>
 4    0  0.2193754E-002  0.2237258E+03  0.7546771E-02  0.1131135E+00
         21   -1    0    0  502  501  0.00000000000E+00  0.00000000000E+00  0.11830110838E+03  0.11830110838E+03  0.00000000000E+00 0.  1.
         21   -1    0    0  501  502 -0.00000000000E+00 -0.00000000000E+00 -0.42310044410E+03  0.42310044410E+03  0.00000000000E+00 0.  1.
         25    1    1    2    0    0 -0.17567890147E+03  0.12990189121E+02 -0.22291518441E+03  0.31039974368E+03  0.12500000000E+03 0.  0.
         25    1    1    2    0    0  0.17567890147E+03 -0.12990189121E+02 -0.81884151303E+02  0.23100180880E+03  0.12500000000E+03 0.  0.
</event>
<event>
 4    0  0.2193754E-002  0.4387714E+03  0.7546771E-02  0.1031124E+00
         21   -1    0    0  502  501  0.00000000000E+00  0.00000000000E+00  0.70082937531E+03  0.70082937531E+03  0.00000000000E+00 0.  1.
         21   -1    0    0  501  502 -0.00000000000E+00 -0.00000000000E+00 -0.27470356355E+03  0.27470356355E+03  0.00000000000E+00 0.  1.
         25    1    1    2    0    0  0.20676676860E+03 -0.32031225301E+03  0.15627792511E+02  0.40152417602E+03  0.12500000000E+03 0.  0.
         25    1    1    2    0    0 -0.20676676860E+03  0.32031225301E+03  0.41049801925E+03  0.57400876285E+03  0.12500000000E+03 0.  0.
</event>
<event>
 4    0  0.2193754E-002  0.1467324E+03  0.7546771E-02  0.1204547E+00
         21   -1    0    0  502  501  0.00000000000E+00  0.00000000000E+00  0.62741615572E+02  0.62741615572E+02  0.00000000000E+00 0.  1.
         21   -1    0    0  501  502 -0.00000000000E+00 -0.00000000000E+00 -0.34315982804E+03  0.34315982804E+03  0.00000000000E+00 0.  1.
         25    1    1    2    0    0  0.49310632959E+02  0.16266388150E+02 -0.21856425341E+03  0.25708260691E+03  0.12500000000E+03 0.  0.
         25    1    1    2    0    0 -0.49310632959E+02 -0.16266388150E+02 -0.61853959054E+02  0.14881883670E+03  0.12500000000E+03 0.  0.
</event>
<event>
 4    0  0.2193754E-002  0.2103454E+03  0.7546771E-02  0.1141293E+00
         21   -1    0    0  502  501  0.00000000000E+00  0.00000000000E+00  0.11705998220E+03  0.11705998220E+03  0.00000000000E+00 0. -1.
         21   -1    0    0  501  502 -0.00000000000E+00 -0.00000000000E+00 -0.37797029708E+03  0.37797029708E+03  0.00000000000E+00 0. -1.
         25    1    1    2    0    0  0.14560344945E+02 -0.85812922844E+02 -0.30115625264E+03  0.33748474022E+03  0.12500000000E+03 0.  0.
         25    1    1    2    0    0 -0.14560344945E+02  0.85812922844E+02  0.40245937763E+02  0.15754553906E+03  0.12500000000E+03 0.  0.
</event>
<event>
 4    0  0.2193754E-002  0.2763697E+03  0.7546771E-02  0.1097688E+00
         21   -1    0    0  502  501  0.00000000000E+00  0.00000000000E+00  0.11719217003E+03  0.11719217003E+03  0.00000000000E+00 0. -1.
         21   -1    0    0  501  502 -0.00000000000E+00 -0.00000000000E+00 -0.65175168510E+03  0.65175168510E+03  0.00000000000E+00 0. -1.
         25    1    1    2    0    0 -0.61340638527E+02 -0.23231985925E+03 -0.19082967325E+03  0.33132484835E+03  0.12500000000E+03 0.  0.
         25    1    1    2    0    0  0.61340638527E+02  0.23231985925E+03 -0.34372984182E+03  0.43761900678E+03  0.12500000000E+03 0.  0.
</event>
<event>
 4    0  0.2193754E-002  0.1661630E+03  0.7546771E-02  0.1181909E+00
         21   -1    0    0  502  501  0.00000000000E+00  0.00000000000E+00  0.16751365838E+04  0.16751365838E+04  0.00000000000E+00 0.  1.
         21   -1    0    0  501  502 -0.00000000000E+00 -0.00000000000E+00 -0.16482317236E+02  0.16482317236E+02  0.00000000000E+00 0.  1.
         25    1    1    2    0    0 -0.70313274162E+02  0.22176570514E+02  0.12412711905E+04  0.12497259401E+04  0.12500000000E+03 0.  0.
         25    1    1    2    0    0  0.70313274162E+02 -0.22176570514E+02  0.41738307598E+03  0.44189296093E+03  0.12500000000E+03 0.  0.
</event>
<event>
 4    0  0.2193754E-002  0.2425492E+03  0.7546771E-02  0.1118106E+00
         21   -1    0    0  502  501  0.00000000000E+00  0.00000000000E+00  0.23744726045E+03  0.23744726045E+03  0.00000000000E+00 0. -1.
         21   -1    0    0  501  502 -0.00000000000E+00 -0.00000000000E+00 -0.24776076270E+03  0.24776076270E+03  0.00000000000E+00 0. -1.
         25    1    1    2    0    0 -0.12468070099E+03  0.14657765188E+03 -0.83754589743E+02  0.24427467436E+03  0.12500000000E+03 0.  0.
         25    1    1    2    0    0  0.12468070099E+03 -0.14657765188E+03  0.73441087486E+02  0.24093334879E+03  0.12500000000E+03 0.  0.
</event>
<event>
 4    0  0.2193754E-002  0.1867550E+03  0.7546771E-02  0.1161421E+00
         21   -1    0    0  502  501  0.00000000000E+00  0.00000000000E+00  0.29344632075E+03  0.29344632075E+03  0.00000000000E+00 0.  1.
         21   -1    0    0  501  502 -0.00000000000E+00 -0.00000000000E+00 -0.11885452120E+03  0.11885452120E+03  0.00000000000E+00 0.  1.
         25    1    1    2    0    0  0.55119237505E+02  0.12731968843E+03  0.85091352670E+02  0.20521688942E+03  0.12500000000E+03 0.  0.
         25    1    1    2    0    0 -0.55119237505E+02 -0.12731968843E+03  0.89500446876E+02  0.20708395253E+03  0.12500000000E+03 0.  0.
</event>
<event>
 4    0  0.2193754E-002  0.2195389E+03  0.7546771E-02  0.1134227E+00
         21   -1    0    0  502  501  0.00000000000E+00  0.00000000000E+00  0.35572676956E+03  0.35572676956E+03  0.00000000000E+00 0. -1.
         21   -1    0    0  501  502 -0.00000000000E+00 -0.00000000000E+00 -0.13548971923E+03  0.13548971923E+03  0.00000000000E+00 0. -1.
         25    1    1    2    0    0  0.14923862483E+03 -0.87349295434E+02  0.52307889092E+02  0.21968882952E+03  0.12500000000E+03 0.  0.
         25    1    1    2    0    0 -0.14923862483E+03  0.87349295434E+02  0.16792916124E+03  0.27152765927E+03  0.12500000000E+03 0.  0.
</event>
<event>
 4    0  0.2193754E-002  0.2124363E+03  0.7546771E-02  0.1139651E+00
         21   -1    0    0  502  501  0.00000000000E+00  0.00000000000E+00  0.82677533394E+03  0.82677533394E+03  0.00000000000E+00 0.  1.
         21   -1    0    0  501  502 -0.00000000000E+00 -0.00000000000E+00 -0.54584589463E+02  0.54584589463E+02  0.00000000000E+00 0.  1.
         25    1    1    2    0    0  0.14097121242E+03  0.97872869618E+02  0.40108444858E+03  0.45381242406E+03  0.12500000000E+03 0.  0.
         25    1    1    2    0    0 -0.14097121242E+03 -0.97872869618E+02  0.37110629590E+03  0.42754749935E+03  0.12500000000E+03 0.  0.
</event>
<event>
 4    0  0.2193754E-002  0.2046925E+03  0.7546771E-02  0.1145839E+00
         21   -1    0    0  502  501  0.00000000000E+00  0.00000000000E+00  0.42029273205E+03  0.42029273205E+03  0.00000000000E+00 0.  1.
         21   -1    0    0  501  502 -0.00000000000E+00 -0.00000000000E+00 -0.99690106132E+02  0.99690106132E+02  0.00000000000E+00 0.  1.
         25    1    1    2    0    0 -0.51035717325E+02 -0.14288324897E+03  0.23275321460E+03  0.30466264324E+03  0.12500000000E+03 0.  0.
         25    1    1    2    0    0  0.51035717325E+02  0.14288324897E+03  0.87849411312E+02  0.21532019494E+03  0.12500000000E+03 0.  0.
</event>
<event>
 4    0  0.2193754E-002  0.2648395E+03  0.7546771E-02  0.1104270E+00
         21   -1    0    0  502  501  0.00000000000E+00  0.00000000000E+00  0.45010820312E+03  0.45010820312E+03  0.00000000000E+00 0.  1.
         21   -1    0    0  501  502 -0.00000000000E+00 -0.00000000000E+00 -0.15582913035E+03  0.15582913035E+03  0.00000000000E+00 0.  1.
         25    1    1    2    0    0 -0.20301118979E+03  0.87096750210E+02  0.60653660583E+02  0.26096600089E+03  0.12500000000E+03 0.  0.
         25    1    1    2    0    0  0.20301118979E+03 -0.87096750210E+02  0.23362541219E+03  0.34497133258E+03  0.12500000000E+03 0.  0.
</event>
<event>
 4    0  0.2193754E-002  0.2691005E+03  0.7546771E-02  0.1101795E+00
         21   -1    0    0  502  501  0.00000000000E+00  0.00000000000E+00  0.12939436813E+03  0.12939436813E+03  0.00000000000E+00 0. -1.
         21   -1    0    0  501  502 -0.00000000000E+00 -0.00000000000E+00 -0.55964645721E+03  0.55964645721E+03  0.00000000000E+00 0. -1.
         25    1    1    2    0    0 -0.23868326731E+02  0.18906460104E+03 -0.31931672224E+02  0.23012985916E+03  0.12500000000E+03 0.  0.
         25    1    1    2    0    0  0.23868326731E+02 -0.18906460104E+03 -0.39832041686E+03  0.45891096617E+03  0.12500000000E+03 0.  0.
</event>
<event>
 4    0  0.2193754E-002  0.1777230E+03  0.7546771E-02  0.1170025E+00
         21   -1    0    0  502  501  0.00000000000E+00  0.00000000000E+00  0.10734495112E+04  0.10734495112E+04  0.00000000000E+00 0.  1.
         21   -1    0    0  501  502 -0.00000000000E+00 -0.00000000000E+00 -0.29424250795E+02  0.29424250795E+02  0.00000000000E+00 0.  1.
         25    1    1    2    0    0  0.11615270822E+03  0.70592948527E+01  0.36940199519E+03  0.40696943291E+03  0.12500000000E+03 0.  0.
         25    1    1    2    0    0 -0.11615270822E+03 -0.70592948527E+01  0.67462326518E+03  0.69590432905E+03  0.12500000000E+03 0.  0.
</event>
<event>
 4    0  0.2193754E-002  0.1772366E+03  0.7546771E-02  0.1170505E+00
         21   -1    0    0  502  501  0.00000000000E+00  0.00000000000E+00  0.39041338519E+03  0.39041338519E+03  0.00000000000E+00 0.  1.
         21   -1    0    0  501  502 -0.00000000000E+00 -0.00000000000E+00 -0.80460403457E+02  0.80460403457E+02  0.00000000000E+00 0.  1.
         25    1    1    2    0    0  0.92030101420E+01 -0.12514082056E+03  0.16367691062E+03  0.24116395136E+03  0.12500000000E+03 0.  0.
         25    1    1    2    0    0 -0.92030101420E+01  0.12514082056E+03  0.14627607111E+03  0.22970983729E+03  0.12500000000E+03 0.  0.
</event>
<event>
 4    0  0.2193754E-002  0.1445238E+03  0.7546771E-02  0.1207368E+00
         21   -1    0    0  502  501  0.00000000000E+00  0.00000000000E+00  0.15917583523E+02  0.15917583523E+02  0.00000000000E+00 0.  1.
         21   -1    0    0  501  502 -0.00000000000E+00 -0.00000000000E+00 -0.13122044859E+04  0.13122044859E+04  0.00000000000E+00 0.  1.
         25    1    1    2    0    0  0.59254625848E+01 -0.52295459521E+02 -0.87752578581E+03  0.88794506078E+03  0.12500000000E+03 0.  0.
         25    1    1    2    0    0 -0.59254625848E+01  0.52295459521E+02 -0.41876111654E+03  0.44017700862E+03  0.12500000000E+03 0.  0.
</event>
<event>
 4    0  0.2193754E-002  0.2381714E+03  0.7546771E-02  0.1121017E+00
         21   -1    0    0  502  501  0.00000000000E+00  0.00000000000E+00  0.87249440425E+02  0.87249440425E+02  0.00000000000E+00 0.  1.
         21   -1    0    0  501  502 -0.00000000000E+00 -0.00000000000E+00 -0.65015476675E+03  0.65015476675E+03  0.00000000000E+00 0.  1.
         25    1    1    2    0    0 -0.20839589803E+02  0.18146064933E+03 -0.41763194778E+03  0.47265600553E+03  0.12500000000E+03 0.  0.
         25    1    1    2    0    0  0.20839589803E+02 -0.18146064933E+03 -0.14527337855E+03  0.26474820165E+03  0.12500000000E+03 0.  0.
</event>
<event>
 4    0  0.2193754E-002  0.2880691E+03  0.7546771E-02  0.1091362E+00
         21   -1    0    0  502  501  0.00000000000E+00  0.00000000000E+00  0.12897185461E+03  0.12897185461E+03  0.00000000000E+00 0. -1.
         21   -1    0    0  501  502 -0.00000000000E+00 -0.00000000000E+00 -0.64342582926E+03  0.64342582926E+03  0.00000000000E+00 0. -1.
         25    1    1    2    0    0  0.20258023411E+03 -0.60395464878E+02 -0.55360808368E+02  0.25174626617E+03  0.12500000000E+03 0.  0.
         25    1    1    2    0    0 -0.20258023411E+03  0.60395464878E+02 -0.45909316628E+03  0.52065141770E+03  0.12500000000E+03 0.  0.
</event>
<event>
 4    0  0.2193754E-002  0.2554037E+03  0.7546771E-02  0.1109937E+00
         21   -1    0    0  502  501  0.00000000000E+00  0.00000000000E+00  0.57742836087E+03  0.57742836087E+03  0.00000000000E+00 0. -1.
         21   -1    0    0  501  502 -0.00000000000E+00 -0.00000000000E+00 -0.11296825105E+03  0.11296825105E+03  0.00000000000E+00 0. -1.
         25    1    1    2    0    0  0.42079201527E+02 -0.45503167990E+02  0.52136962825E+03  0.53971519041E+03  0.12500000000E+03 0.  0.
         25    1    1    2    0    0 -0.42079201527E+02  0.45503167990E+02 -0.56909518437E+02  0.15068142151E+03  0.12500000000E+03 0.  0.
</event>
<event>
 4    0  0.2193754E-002  0.2100444E+03  0.7546771E-02  0.1141531E+00
         21   -1    0    0  502  501  0.00000000000E+00  0.00000000000E+00  0.71201461866E+03  0.71201461866E+03  0.00000000000E+00 0. -1.
         21   -1    0    0  501  502 -0.00000000000E+00 -0.00000000000E+00 -0.61963134541E+02  0.61963134541E+02  0.00000000000E+00 0. -1.
         25    1    1    2    0    0  0.55446684904E+02  0.15237080740E+03  0.23856054572E+03  0.31436814690E+03  0.12500000000E+03 0.  0.
         25    1    1    2    0    0 -0.55446684904E+02 -0.15237080740E+03  0.41149093840E+03  0.45960960630E+03  0.12500000000E+03 0.  0.
</event>
<event>
 4    0  0.2193754E-002  0.2313152E+03  0.7546771E-02  0.1125717E+00
         21   -1    0    0  502  501  0.00000000000E+00  0.00000000000E+00  0.12644147999E+03  0.12644147999E+03  0.00000000000E+00 0. -1.
         21   -1    0    0  501  502 -0.00000000000E+00 -0.00000000000E+00 -0.42317376513E+03  0.42317376513E+03  0.00000000000E+00 0. -1.
         25    1    1    2    0    0 -0.17543315210E+03  0.22219949645E+02 -0.24496339508E+03  0.32695960293E+03  0.12500000000E+03 0.  0.
         25    1    1    2    0    0  0.17543315210E+03 -0.22219949645E+02 -0.51768890060E+02  0.22265564219E+03  0.12500000000E+03 0.  0.
</event>
<event>
 4    0  0.2193754E-002  0.1783712E+03  0.7546771E-02  0.1169389E+00
         21   -1    0    0  502  501  0.00000000000E+00  0.00000000000E+00  0.12097264966E+03  0.12097264966E+03  0.00000000000E+00 0. -1.
         21   -1    0    0  501  502 -0.00000000000E+00 -0.00000000000E+00 -0.26300386030E+03  0.26300386030E+03  0.00000000000E+00 0. -1.
         25    1    1    2    0    0  0.55284826705E+02  0.26174562859E+01  0.52308923367E+02  0.14637105795E+03  0.12500000000E+03 0.  0.
         25    1    1    2    0    0 -0.55284826705E+02 -0.26174562859E+01 -0.19434013400E+03  0.23760545201E+03  0.12500000000E+03 0.  0.
</event>
<event>
 4    0  0.2193754E-002  0.2459993E+03  0.7546771E-02  0.1115860E+00
         21   -1    0    0  502  501  0.00000000000E+00  0.00000000000E+00  0.11418702048E+03  0.11418702048E+03  0.00000000000E+00 0.  1.
         21   -1    0    0  501  502 -0.00000000000E+00 -0.00000000000E+00 -0.52996944298E+03  0.52996944298E+03  0.00000000000E+00 0.  1.
         25    1    1    2    0    0 -0.17054254580E+03  0.12782705846E+02 -0.44141587502E+02  0.21638307984E+03  0.12500000000E+03 0.  0.
         25    1    1    2    0    0  0.17054254580E+03 -0.12782705846E+02 -0.37164083499E+03  0.42777338362E+03  0.12500000000E+03 0.  0.
</event>
<event>
 4    0  0.2193754E-002  0.2770852E+03  0.7546771E-02  0.1097292E+00
         21   -1    0    0  502  501  0.00000000000E+00  0.00000000000E+00  0.20521540182E+03  0.20521540182E+03  0.00000000000E+00 0.  1.
         21   -1    0    0  501  502 -0.00000000000E+00 -0.00000000000E+00 -0.37412492739E+03  0.37412492739E+03  0.00000000000E+00 0.  1.
         25    1    1    2    0    0  0.33269052845E+02  0.12527994800E+03 -0.30461245390E+03  0.35385822348E+03  0.12500000000E+03 0.  0.
         25    1    1    2    0    0 -0.33269052845E+02 -0.12527994800E+03  0.13570292834E+03  0.22548210574E+03  0.12500000000E+03 0.  0.
</event>
<event>
 4    0  0.2193754E-002  0.2961596E+03  0.7546771E-02  0.1087176E+00
         21   -1    0    0  502  501  0.00000000000E+00  0.00000000000E+00  0.12799846898E+03  0.12799846898E+03  0.00000000000E+00 0. -1.
         21   -1    0    0  501  502 -0.00000000000E+00 -0.00000000000E+00 -0.68524643662E+03  0.68524643662E+03  0.00000000000E+00 0. -1.
         25    1    1    2    0    0 -0.19003120710E+03 -0.35083314881E+02 -0.53454029030E+03  0.58198025792E+03  0.12500000000E+03 0.  0.
         25    1    1    2    0    0  0.19003120710E+03  0.35083314881E+02 -0.22707677341E+02  0.23126464768E+03  0.12500000000E+03 0.  0.
</event>
<event>
 4    0  0.2193754E-002  0.2033797E+03  0.7546771E-02  0.1146918E+00
         21   -1    0    0  502  501  0.00000000000E+00  0.00000000000E+00  0.15239838247E+04  0.15239838247E+04  0.00000000000E+00 0.  1.
         21   -1    0    0  501  502 -0.00000000000E+00 -0.00000000000E+00 -0.27141565025E+02  0.27141565025E+02  0.00000000000E+00 0.  1.
         25    1    1    2    0    0 -0.14195314158E+02 -0.30576997581E+02  0.15029449784E+03  0.19836808162E+03  0.12500000000E+03 0.  0.
         25    1    1    2    0    0  0.14195314158E+02  0.30576997581E+02  0.13465477618E+04  0.13527573081E+04  0.12500000000E+03 0.  0.
</event>
<event>
 4    0  0.2193754E-002  0.1516969E+03  0.7546771E-02  0.1198403E+00
         21   -1    0    0  502  501  0.00000000000E+00  0.00000000000E+00  0.11085120183E+03  0.11085120183E+03  0.00000000000E+00 0.  1.
         21   -1    0    0  501  502 -0.00000000000E+00 -0.00000000000E+00 -0.20759311156E+03  0.20759311156E+03  0.00000000000E+00 0.  1.
         25    1    1    2    0    0  0.25306964196E+02  0.66617331754E+01 -0.13429863456E+03  0.18532658841E+03  0.12500000000E+03 0.  0.
         25    1    1    2    0    0 -0.25306964196E+02 -0.66617331754E+01  0.37556724826E+02  0.13311772499E+03  0.12500000000E+03 0.  0.
</event>
<event>
 4    0  0.2193754E-002  0.2137244E+03  0.7546771E-02  0.1138650E+00
         21   -1    0    0  502  501  0.00000000000E+00  0.00000000000E+00  0.21323764886E+03  0.21323764886E+03  0.00000000000E+00 0.  1.
         21   -1    0    0  501  502 -0.00000000000E+00 -0.00000000000E+00 -0.21421228027E+03  0.21421228027E+03  0.00000000000E+00 0.  1.
         25    1    1    2    0    0  0.11400976969E+03  0.12105783077E+03 -0.49476186933E+02  0.21383666442E+03  0.12500000000E+03 0.  0.
         25    1    1    2    0    0 -0.11400976969E+03 -0.12105783077E+03  0.48501555529E+02  0.21361326472E+03  0.12500000000E+03 0.  0.
</event>
<event>
 4    0  0.2193754E-002  0.1812533E+03  0.7546771E-02  0.1166596E+00
         21   -1    0    0  502  501  0.00000000000E+00  0.00000000000E+00  0.26506927696E+03  0.26506927696E+03  0.00000000000E+00 0. -1.
         21   -1    0    0  501  502 -0.00000000000E+00 -0.00000000000E+00 -0.12394026235E+03  0.12394026235E+03  0.00000000000E+00 0. -1.
         25    1    1    2    0    0 -0.12606139998E+03 -0.32991041240E+02  0.87459447265E+02  0.20063409552E+03  0.12500000000E+03 0.  0.
         25    1    1    2    0    0  0.12606139998E+03  0.32991041240E+02  0.53669567341E+02  0.18837544380E+03  0.12500000000E+03 0.  0.
</event>
<event>
 4    0  0.2193754E-002  0.2364020E+03  0.7546771E-02  0.1122213E+00
         21   -1    0    0  502  501  0.00000000000E+00  0.00000000000E+00  0.50193049647E+03  0.50193049647E+03  0.00000000000E+00 0. -1.
         21   -1    0    0  501  502 -0.00000000000E+00 -0.00000000000E+00 -0.11134193710E+03  0.11134193710E+03  0.00000000000E+00 0. -1.
         25    1    1    2    0    0 -0.19998651618E+03  0.15422278624E+02  0.18837448788E+03  0.30222905389E+03  0.12500000000E+03 0.  0.
         25    1    1    2    0    0  0.19998651618E+03 -0.15422278624E+02  0.20221407149E+03  0.31104337968E+03  0.12500000000E+03 0.  0.
</event>
<event>
 4    0  0.2193754E-002  0.3516582E+03  0.7546771E-02  0.1061937E+00
         21   -1    0    0  502  501  0.00000000000E+00  0.00000000000E+00  0.94369635478E+02  0.94369635478E+02  0.00000000000E+00 0.  1.
         21   -1    0    0  501  502 -0.00000000000E+00 -0.00000000000E+00 -0.13104160320E+04  0.13104160320E+04  0.00000000000E+00 0.  1.
         25    1    1    2    0    0 -0.20413706050E+03  0.95063233520E+02 -0.12978032414E+03  0.28840404015E+03  0.12500000000E+03 0.  0.
         25    1    1    2    0    0  0.20413706050E+03 -0.95063233520E+02 -0.10862660724E+04  0.11163816274E+04  0.12500000000E+03 0.  0.
</event>
<event>
 4    0  0.2193754E-002  0.1437824E+03  0.7546771E-02  0.1208328E+00
         21   -1    0    0  502  501  0.00000000000E+00  0.00000000000E+00  0.10108436799E+02  0.10108436799E+02  0.00000000000E+00 0.  1.
         21   -1    0    0  501  502 -0.00000000000E+00 -0.00000000000E+00 -0.20451615670E+04  0.20451615670E+04  0.00000000000E+00 0.  1.
         25    1    1    2    0    0 -0.69173265611E+02 -0.12918200915E+02 -0.10877601552E+04  0.10971777321E+04  0.12500000000E+03 0.  0.
         25    1    1    2    0    0  0.69173265611E+02  0.12918200915E+02 -0.94729297500E+03  0.95809227169E+03  0.12500000000E+03 0.  0.
</event>
<event>
 4    0  0.2193754E-002  0.3287043E+03  0.7546771E-02  0.1071712E+00
         21   -1    0    0  502  501  0.00000000000E+00  0.00000000000E+00  0.19051143512E+03  0.19051143512E+03  0.00000000000E+00 0.  1.
         21   -1    0    0  501  502 -0.00000000000E+00 -0.00000000000E+00 -0.56713922892E+03  0.56713922892E+03  0.00000000000E+00 0.  1.
         25    1    1    2    0    0 -0.27813136329E+03 -0.45802575261E+02 -0.57079910825E+02  0.31358897839E+03  0.12500000000E+03 0.  0.
         25    1    1    2    0    0  0.27813136329E+03  0.45802575261E+02 -0.31954788298E+03  0.44406168565E+03  0.12500000000E+03 0.  0.
</event>
<event>
 4    0  0.2193754E-002  0.2126004E+03  0.7546771E-02  0.1139523E+00
         21   -1    0    0  502  501  0.00000000000E+00  0.00000000000E+00  0.14063123593E+04  0.14063123593E+04  0.00000000000E+00 0. -1.
         21   -1    0    0  501  502 -0.00000000000E+00 -0.00000000000E+00 -0.32140029867E+02  0.32140029867E+02  0.00000000000E+00 0. -1.
         25    1    1    2    0    0 -0.13414274269E+03  0.10705887672E+03  0.65033077047E+03  0.68411328705E+03  0.12500000000E+03 0.  0.
         25    1    1    2    0    0  0.13414274269E+03 -0.10705887672E+03  0.72384155900E+03  0.75433910215E+03  0.12500000000E+03 0.  0.
</event>
<event>
 4    0  0.2193754E-002  0.1993722E+03  0.7546771E-02  0.1150270E+00
         21   -1    0    0  502  501  0.00000000000E+00  0.00000000000E+00  0.50297356047E+03  0.50297356047E+03  0.00000000000E+00 0. -1.
         21   -1    0    0  501  502 -0.00000000000E+00 -0.00000000000E+00 -0.79028595424E+02  0.79028595424E+02  0.00000000000E+00 0. -1.
         25    1    1    2    0    0 -0.43024481822E+02 -0.25334876519E+02  0.42664256323E+03  0.44737214795E+03  0.12500000000E+03 0.  0.
         25    1    1    2    0    0  0.43024481822E+02  0.25334876519E+02 -0.26975981756E+01  0.13463000795E+03  0.12500000000E+03 0.  0.
</event>
<event>
 4    0  0.2193754E-002  0.2307672E+03  0.7546771E-02  0.1126101E+00
         21   -1    0    0  502  501  0.00000000000E+00  0.00000000000E+00  0.40231900250E+03  0.40231900250E+03  0.00000000000E+00 0.  1.
         21   -1    0    0  501  502 -0.00000000000E+00 -0.00000000000E+00 -0.13236632739E+03  0.13236632739E+03  0.00000000000E+00 0.  1.
         25    1    1    2    0    0  0.30342618165E+02  0.97672202143E+02 -0.55975005360E+02  0.17093488460E+03  0.12500000000E+03 0.  0.
         25    1    1    2    0    0 -0.30342618165E+02 -0.97672202143E+02  0.32592768047E+03  0.36375044529E+03  0.12500000000E+03 0.  0.
</event>
<event>
 4    0  0.2193754E-002  0.2176860E+03  0.7546771E-02  0.1135620E+00
         21   -1    0    0  502  501  0.00000000000E+00  0.00000000000E+00  0.57776956248E+02  0.57776956248E+02  0.00000000000E+00 0. -1.
         21   -1    0    0  501  502 -0.00000000000E+00 -0.00000000000E+00 -0.82017435749E+03  0.82017435749E+03  0.00000000000E+00 0. -1.
         25    1    1    2    0    0  0.16011400406E+03 -0.55939844881E+02 -0.27081341863E+03  0.34311902928E+03  0.12500000000E+03 0.  0.
         25    1    1    2    0    0 -0.16011400406E+03  0.55939844881E+02 -0.49158398261E+03  0.53483228445E+03  0.12500000000E+03 0.  0.
</event>
<event>
 4    0  0.2193754E-002  0.2165919E+03  0.7546771E-02  0.1136450E+00
         21   -1    0    0  502  501  0.00000000000E+00  0.00000000000E+00  0.95116879373E+02  0.95116879373E+02  0.00000000000E+00 0.  1.
         21   -1    0    0  501  502 -0.00000000000E+00 -0.00000000000E+00 -0.49320404972E+03  0.49320404972E+03  0.00000000000E+00 0.  1.
         25    1    1    2    0    0 -0.88708769412E+02 -0.15103830803E+03 -0.23245513445E+03  0.31676837879E+03  0.12500000000E+03 0.  0.
         25    1    1    2    0    0  0.88708769412E+02  0.15103830803E+03 -0.16563203589E+03  0.27155255031E+03  0.12500000000E+03 0.  0.
</event>
<event>
 4    0  0.2193754E-002  0.3985704E+03  0.7546771E-02  0.1044276E+00
         21   -1    0    0  502  501  0.00000000000E+00  0.00000000000E+00  0.10886659164E+03  0.10886659164E+03  0.00000000000E+00 0.  1.
         21   -1    0    0  501  502 -0.00000000000E+00 -0.00000000000E+00 -0.14592017847E+04  0.14592017847E+04  0.00000000000E+00 0.  1.
         25    1    1    2    0    0 -0.21152490423E+03  0.10278497795E+03 -0.91872741053E+02  0.28173238605E+03  0.12500000000E+03 0.  0.
         25    1    1    2    0    0  0.21152490423E+03 -0.10278497795E+03 -0.12584624520E+04  0.12863359902E+04  0.12500000000E+03 0.  0.
</event>
<event>
 4    0  0.2193754E-002  0.1957957E+03  0.7546771E-02  0.1153335E+00
         21   -1    0    0  502  501  0.00000000000E+00  0.00000000000E+00  0.60593723267E+02  0.60593723267E+02  0.00000000000E+00 0.  1.
         21   -1    0    0  501  502 -0.00000000000E+00 -0.00000000000E+00 -0.63267191949E+03  0.63267191949E+03  0.00000000000E+00 0.  1.
         25    1    1    2    0    0  0.44208979569E+02 -0.53019689449E+02 -0.52320020435E+03  0.54233658845E+03  0.12500000000E+03 0.  0.
         25    1    1    2    0    0 -0.44208979569E+02  0.53019689449E+02 -0.48877991877E+02  0.15092905431E+03  0.12500000000E+03 0.  0.
</event>
<event>
 4    0  0.2193754E-002  0.2001199E+03  0.7546771E-02  0.1149638E+00
         21   -1    0    0  502  501  0.00000000000E+00  0.00000000000E+00  0.24735910103E+02  0.24735910103E+02  0.00000000000E+00 0.  1.
         21   -1    0    0  501  502 -0.00000000000E+00 -0.00000000000E+00 -0.16190220734E+04  0.16190220734E+04  0.00000000000E+00 0.  1.
         25    1    1    2    0    0  0.44250134428E+02 -0.86851696776E+02 -0.29546330383E+03  0.33529815917E+03  0.12500000000E+03 0.  0.
         25    1    1    2    0    0 -0.44250134428E+02  0.86851696776E+02 -0.12988228595E+04  0.13084598244E+04  0.12500000000E+03 0.  0.
</event>
<event>
 4    0  0.2193754E-002  0.1682041E+03  0.7546771E-02  0.1179734E+00
         21   -1    0    0  502  501  0.00000000000E+00  0.00000000000E+00  0.15827845340E+02  0.15827845340E+02  0.00000000000E+00 0. -1.
         21   -1    0    0  501  502 -0.00000000000E+00 -0.00000000000E+00 -0.17875212553E+04  0.17875212553E+04  0.00000000000E+00 0. -1.
         25    1    1    2    0    0 -0.62660339697E+02 -0.71108043797E+02 -0.56043857979E+03  0.58197858533E+03  0.12500000000E+03 0.  0.
         25    1    1    2    0    0  0.62660339697E+02  0.71108043797E+02 -0.12112548301E+04  0.12213705153E+04  0.12500000000E+03 0.  0.
</event>
<event>
 4    0  0.2193754E-002  0.1825066E+03  0.7546771E-02  0.1165399E+00
         21   -1    0    0  502  501  0.00000000000E+00  0.00000000000E+00  0.12330132039E+03  0.12330132039E+03  0.00000000000E+00 0. -1.
         21   -1    0    0  501  502 -0.00000000000E+00 -0.00000000000E+00 -0.27014039512E+03  0.27014039512E+03  0.00000000000E+00 0. -1.
         25    1    1    2    0    0 -0.10804403073E+03 -0.10193377886E+02  0.94180971516E+01  0.16580445737E+03  0.12500000000E+03 0.  0.
         25    1    1    2    0    0  0.10804403073E+03  0.10193377886E+02 -0.15625717188E+03  0.22763725814E+03  0.12500000000E+03 0.  0.
</event>
<event>
 4    0  0.2193754E-002  0.2232865E+03  0.7546771E-02  0.1131456E+00
         21   -1    0    0  502  501  0.00000000000E+00  0.00000000000E+00  0.11282730803E+04  0.11282730803E+04  0.00000000000E+00 0. -1.
         21   -1    0    0  501  502 -0.00000000000E+00 -0.00000000000E+00 -0.44188662112E+02  0.44188662112E+02  0.00000000000E+00 0. -1.
         25    1    1    2    0    0 -0.16719921739E+03  0.74819169832E+02  0.47365949608E+03  0.52300268134E+03  0.12500000000E+03 0.  0.
         25    1    1    2    0    0  0.16719921739E+03 -0.74819169832E+02  0.61042492213E+03  0.64945906109E+03  0.12500000000E+03 0.  0.
</event>
<event>
 4    0  0.2193754E-002  0.2323582E+03  0.7546771E-02  0.1124991E+00
         21   -1    0    0  502  501  0.00000000000E+00  0.00000000000E+00  0.27731252368E+03  0.27731252368E+03  0.00000000000E+00 0.  1.
         21   -1    0    0  501  502 -0.00000000000E+00 -0.00000000000E+00 -0.19469131710E+03  0.19469131710E+03  0.00000000000E+00 0.  1.
         25    1    1    2    0    0 -0.50267701841E+02 -0.17626823484E+03  0.11144418075E+03  0.24827834759E+03  0.12500000000E+03 0.  0.
         25    1    1    2    0    0  0.50267701841E+02  0.17626823484E+03 -0.28822974175E+02  0.22372549319E+03  0.12500000000E+03 0.  0.
</event>
<event>
 4    0  0.2193754E-002  0.1746230E+03  0.7546771E-02  0.1173111E+00
         21   -1    0    0  502  501  0.00000000000E+00  0.00000000000E+00  0.80297204112E+02  0.80297204112E+02  0.00000000000E+00 0.  1.
         21   -1    0    0  501  502 -0.00000000000E+00 -0.00000000000E+00 -0.37975402896E+03  0.37975402896E+03  0.00000000000E+00 0.  1.
         25    1    1    2    0    0  0.12316818514E+02 -0.12081048319E+03 -0.13521989833E+03  0.22058172583E+03  0.12500000000E+03 0.  0.
         25    1    1    2    0    0 -0.12316818514E+02  0.12081048319E+03 -0.16423692652E+03  0.23946950724E+03  0.12500000000E+03 0.  0.
</event>
<event>
 4    0  0.2193754E-002  0.4152397E+03  0.7546771E-02  0.1038627E+00
         21   -1    0    0  502  501  0.00000000000E+00  0.00000000000E+00  0.43192171273E+03  0.43192171273E+03  0.00000000000E+00 0.  1.
         21   -1    0    0  501  502 -0.00000000000E+00 -0.00000000000E+00 -0.39920191157E+03  0.39920191157E+03  0.00000000000E+00 0.  1.
         25    1    1    2    0    0 -0.28994078514E+03 -0.14952188730E+03 -0.20826137405E+03  0.40671888767E+03  0.12500000000E+03 0.  0.
         25    1    1    2    0    0  0.28994078514E+03  0.14952188730E+03  0.24098117521E+03  0.42440473663E+03  0.12500000000E+03 0.  0.
</event>
<event>
 4    0  0.2193754E-002  0.2415437E+03  0.7546771E-02  0.1118769E+00
         21   -1    0    0  502  501  0.00000000000E+00  0.00000000000E+00  0.42295202110E+03  0.42295202110E+03  0.00000000000E+00 0.  1.
         21   -1    0    0  501  502 -0.00000000000E+00 -0.00000000000E+00 -0.13794325587E+03  0.13794325587E+03  0.00000000000E+00 0.  1.
         25    1    1    2    0    0 -0.77646848965E+02  0.15836930971E+03  0.26760060384E+03  0.34401301514E+03  0.12500000000E+03 0.  0.
         25    1    1    2    0    0  0.77646848965E+02 -0.15836930971E+03  0.17408161393E+02  0.21688226183E+03  0.12500000000E+03 0.  0.
</event>
<event>
 4    0  0.2193754E-002  0.2011797E+03  0.7546771E-02  0.1148747E+00
         21   -1    0    0  502  501  0.00000000000E+00  0.00000000000E+00  0.41704837758E+03  0.41704837758E+03  0.00000000000E+00 0. -1.
         21   -1    0    0  501  502 -0.00000000000E+00 -0.00000000000E+00 -0.97046954911E+02  0.97046954911E+02  0.00000000000E+00 0. -1.
         25    1    1    2    0    0  0.11648693438E+03 -0.14439085905E+02  0.29443644374E+03  0.34072791563E+03  0.12500000000E+03 0.  0.
         25    1    1    2    0    0 -0.11648693438E+03  0.14439085905E+02  0.25564978929E+02  0.17336741687E+03  0.12500000000E+03 0.  0.
</event>
<event>
 4    0  0.2193754E-002  0.1746453E+03  0.7546771E-02  0.1173088E+00
         21   -1    0    0  502  501  0.00000000000E+00  0.00000000000E+00  0.13373403050E+02  0.13373403050E+02  0.00000000000E+00 0. -1.
         21   -1    0    0  501  502 -0.00000000000E+00 -0.00000000000E+00 -0.22807187815E+04  0.22807187815E+04  0.00000000000E+00 0. -1.
         25    1    1    2    0    0 -0.50275748374E+02 -0.75964609493E+02 -0.60099927359E+03  0.62058311259E+03  0.12500000000E+03 0.  0.
         25    1    1    2    0    0  0.50275748374E+02  0.75964609493E+02 -0.16663461048E+04  0.16735090719E+04  0.12500000000E+03 0.  0.
</event>
<event>
 4    0  0.2193754E-002  0.1589405E+03  0.7546771E-02  0.1189898E+00
         21   -1    0    0  502  501  0.00000000000E+00  0.00000000000E+00  0.61885754032E+03  0.61885754032E+03  0.00000000000E+00 0.  1.
         21   -1    0    0  501  502 -0.00000000000E+00 -0.00000000000E+00 -0.40820515665E+02  0.40820515665E+02  0.00000000000E+00 0.  1.
         25    1    1    2    0    0  0.78558652838E+02  0.37323510574E+02  0.38349480637E+03  0.41262303970E+03  0.12500000000E+03 0.  0.
         25    1    1    2    0    0 -0.78558652838E+02 -0.37323510574E+02  0.19454221828E+03  0.24705501629E+03  0.12500000000E+03 0.  0.
</event>
<event>
 4    0  0.2193754E-002  0.3915557E+03  0.7546771E-02  0.1046744E+00
         21   -1    0    0  502  501  0.00000000000E+00  0.00000000000E+00  0.45538366587E+03  0.45538366587E+03  0.00000000000E+00 0.  1.
         21   -1    0    0  501  502 -0.00000000000E+00 -0.00000000000E+00 -0.33667398086E+03  0.33667398086E+03  0.00000000000E+00 0.  1.
         25    1    1    2    0    0  0.32446075593E+03 -0.13066933748E+03  0.18463094962E+03  0.41480458707E+03  0.12500000000E+03 0.  0.
         25    1    1    2    0    0 -0.32446075593E+03  0.13066933748E+03 -0.65921264605E+02  0.37725305966E+03  0.12500000000E+03 0.  0.
</event>
<event>
 4    0  0.2193754E-002  0.2960100E+03  0.7546771E-02  0.1087252E+00
         21   -1    0    0  502  501  0.00000000000E+00  0.00000000000E+00  0.56489383928E+03  0.56489383928E+03  0.00000000000E+00 0.  1.
         21   -1    0    0  501  502 -0.00000000000E+00 -0.00000000000E+00 -0.15511222452E+03  0.15511222452E+03  0.00000000000E+00 0.  1.
         25    1    1    2    0    0  0.11153725174E+03  0.17472654917E+03  0.41209613185E+03  0.47793111156E+03  0.12500000000E+03 0.  0.
         25    1    1    2    0    0 -0.11153725174E+03 -0.17472654917E+03 -0.23145170873E+01  0.24207495224E+03  0.12500000000E+03 0.  0.
</event>
<event>
 4    0  0.2193754E-002  0.3155178E+03  0.7546771E-02  0.1077731E+00
         21   -1    0    0  502  501  0.00000000000E+00  0.00000000000E+00  0.16214972003E+03  0.16214972003E+03  0.00000000000E+00 0.  1.
         21   -1    0    0  501  502 -0.00000000000E+00 -0.00000000000E+00 -0.61394793623E+03  0.61394793623E+03  0.00000000000E+00 0.  1.
         25    1    1    2    0    0  0.14346391541E+03  0.19054978419E+03 -0.23676984315E+02  0.27032705167E+03  0.12500000000E+03 0.  0.
         25    1    1    2    0    0 -0.14346391541E+03 -0.19054978419E+03 -0.42812123188E+03  0.50577060459E+03  0.12500000000E+03 0.  0.
</event>
<event>
 4    0  0.2193754E-002  0.1693351E+03  0.7546771E-02  0.1178543E+00
         21   -1    0    0  502  501  0.00000000000E+00  0.00000000000E+00  0.23354280238E+02  0.23354280238E+02  0.00000000000E+00 0. -1.
         21   -1    0    0  501  502 -0.00000000000E+00 -0.00000000000E+00 -0.12278002464E+04  0.12278002464E+04  0.00000000000E+00 0. -1.
         25    1    1    2    0    0  0.11021444570E+03  0.31906973574E+01 -0.49188806421E+03  0.51936140817E+03  0.12500000000E+03 0.  0.
         25    1    1    2    0    0 -0.11021444570E+03 -0.31906973574E+01 -0.71255790194E+03  0.73179311845E+03  0.12500000000E+03 0.  0.
</event>
<event>
 4    0  0.2193754E-002  0.1734844E+03  0.7546771E-02  0.1174262E+00
         21   -1    0    0  502  501  0.00000000000E+00  0.00000000000E+00  0.61915996149E+02  0.61915996149E+02  0.00000000000E+00 0.  1.
         21   -1    0    0  501  502 -0.00000000000E+00 -0.00000000000E+00 -0.48609147626E+03  0.48609147626E+03  0.00000000000E+00 0.  1.
         25    1    1    2    0    0  0.90288153768E+02  0.11890067729E+00 -0.33764742850E+03  0.37119098968E+03  0.12500000000E+03 0.  0.
         25    1    1    2    0    0 -0.90288153768E+02 -0.11890067729E+00 -0.86528051609E+02  0.17681648273E+03  0.12500000000E+03 0.  0.
</event>
<event>
 4    0  0.2193754E-002  0.2653936E+03  0.7546771E-02  0.1103945E+00
         21   -1    0    0  502  501  0.00000000000E+00  0.00000000000E+00  0.15596925084E+03  0.15596925084E+03  0.00000000000E+00 0.  1.
         21   -1    0    0  501  502 -0.00000000000E+00 -0.00000000000E+00 -0.45158741342E+03  0.45158741342E+03  0.00000000000E+00 0.  1.
         25    1    1    2    0    0  0.14432107993E+03  0.16738335673E+03 -0.23619811086E+03  0.34678568280E+03  0.12500000000E+03 0.  0.
         25    1    1    2    0    0 -0.14432107993E+03 -0.16738335673E+03 -0.59420051725E+02  0.26077098146E+03  0.12500000000E+03 0.  0.
</event>
<event>
 4    0  0.2193754E-002  0.1992609E+03  0.7546771E-02  0.1150364E+00
         21   -1    0    0  502  501  0.00000000000E+00  0.00000000000E+00  0.20077770062E+04  0.20077770062E+04  0.00000000000E+00 0.  1.
         21   -1    0    0  501  502 -0.00000000000E+00 -0.00000000000E+00 -0.19775558516E+02  0.19775558516E+02  0.00000000000E+00 0.  1.
         25    1    1    2    0    0  0.83506903097E+02  0.52823382124E+02  0.38525787225E+03  0.41690807223E+03  0.12500000000E+03 0.  0.
         25    1    1    2    0    0 -0.83506903097E+02 -0.52823382124E+02  0.16027435755E+04  0.16106444925E+04  0.12500000000E+03 0.  0.
</event>
<event>
 4    0  0.2193754E-002  0.2734897E+03  0.7546771E-02  0.1099299E+00
         21   -1    0    0  502  501  0.00000000000E+00  0.00000000000E+00  0.12542357326E+04  0.12542357326E+04  0.00000000000E+00 0.  1.
         21   -1    0    0  501  502 -0.00000000000E+00 -0.00000000000E+00 -0.59635205917E+02  0.59635205917E+02  0.00000000000E+00 0.  1.
         25    1    1    2    0    0 -0.20084327475E+03 -0.80229123554E+02  0.32985319667E+03  0.41376667898E+03  0.12500000000E+03 0.  0.
         25    1    1    2    0    0  0.20084327475E+03  0.80229123554E+02  0.86474733003E+03  0.90010425956E+03  0.12500000000E+03 0.  0.
</event>
<event>
 4    0  0.2193754E-002  0.2360471E+03  0.7546771E-02  0.1122455E+00
         21   -1    0    0  502  501  0.00000000000E+00  0.00000000000E+00  0.39055676385E+03  0.39055676385E+03  0.00000000000E+00 0. -1.
         21   -1    0    0  501  502 -0.00000000000E+00 -0.00000000000E+00 -0.14266355253E+03  0.14266355253E+03  0.00000000000E+00 0. -1.
         25    1    1    2    0    0 -0.19646125256E+03 -0.34765068042E+02  0.10479263998E+03  0.25770551237E+03  0.12500000000E+03 0.  0.
         25    1    1    2    0    0  0.19646125256E+03  0.34765068042E+02  0.14310057134E+03  0.27551480402E+03  0.12500000000E+03 0.  0.
</event>
<event>
 4    0  0.2193754E-002  0.2078612E+03  0.7546771E-02  0.1143271E+00
         21   -1    0    0  502  501  0.00000000000E+00  0.00000000000E+00  0.50002970172E+03  0.50002970172E+03  0.00000000000E+00 0. -1.
         21   -1    0    0  501  502 -0.00000000000E+00 -0.00000000000E+00 -0.86407430837E+02  0.86407430837E+02  0.00000000000E+00 0. -1.
         25    1    1    2    0    0  0.86000692238E+01 -0.84639618309E+02  0.40801225004E+03  0.43512851247E+03  0.12500000000E+03 0.  0.
         25    1    1    2    0    0 -0.86000692238E+01  0.84639618309E+02  0.56100208352E+01  0.15130862008E+03  0.12500000000E+03 0.  0.
</event>
<event>
 4    0  0.2193754E-002  0.2253885E+03  0.7546771E-02  0.1129928E+00
         21   -1    0    0  502  501  0.00000000000E+00  0.00000000000E+00  0.81241806762E+03  0.81241806762E+03  0.00000000000E+00 0.  1.
         21   -1    0    0  501  502 -0.00000000000E+00 -0.00000000000E+00 -0.62529342258E+02  0.62529342258E+02  0.00000000000E+00 0.  1.
         25    1    1    2    0    0  0.66618325269E+02 -0.16544022197E+03  0.48756279787E+03  0.53399527168E+03  0.12500000000E+03 0.  0.
         25    1    1    2    0    0 -0.66618325269E+02  0.16544022197E+03  0.26232592749E+03  0.34095213820E+03  0.12500000000E+03 0.  0.
</event>
<event>
 4    0  0.2193754E-002  0.1663126E+03  0.7546771E-02  0.1181749E+00
         21   -1    0    0  502  501  0.00000000000E+00  0.00000000000E+00  0.33064900809E+02  0.33064900809E+02  0.00000000000E+00 0. -1.
         21   -1    0    0  501  502 -0.00000000000E+00 -0.00000000000E+00 -0.83653315957E+03  0.83653315957E+03  0.00000000000E+00 0. -1.
         25    1    1    2    0    0 -0.89762322577E+01 -0.10930104020E+03 -0.39452885613E+03  0.42814169203E+03  0.12500000000E+03 0.  0.
         25    1    1    2    0    0  0.89762322577E+01  0.10930104020E+03 -0.40893940263E+03  0.44145636835E+03  0.12500000000E+03 0.  0.
</event>
<event>
 4    0  0.2193754E-002  0.1842974E+03  0.7546771E-02  0.1163708E+00
         21   -1    0    0  502  501  0.00000000000E+00  0.00000000000E+00  0.77259776805E+03  0.77259776805E+03  0.00000000000E+00 0.  1.
         21   -1    0    0  501  502 -0.00000000000E+00 -0.00000000000E+00 -0.43962747967E+02  0.43962747967E+02  0.00000000000E+00 0.  1.
         25    1    1    2    0    0  0.77567722902E+02 -0.10909744033E+03  0.31883470745E+03  0.36769494666E+03  0.12500000000E+03 0.  0.
         25    1    1    2    0    0 -0.77567722902E+02  0.10909744033E+03  0.40980031263E+03  0.44886556935E+03  0.12500000000E+03 0.  0.
</event>
<event>
 4    0  0.2193754E-002  0.2666336E+03  0.7546771E-02  0.1103222E+00
         21   -1    0    0  502  501  0.00000000000E+00  0.00000000000E+00  0.12921177696E+04  0.12921177696E+04  0.00000000000E+00 0. -1.
         21   -1    0    0  501  502 -0.00000000000E+00 -0.00000000000E+00 -0.55020885417E+02  0.55020885417E+02  0.00000000000E+00 0. -1.
         25    1    1    2    0    0  0.99989914303E+02  0.17256630455E+03  0.30210387900E+03  0.38297371468E+03  0.12500000000E+03 0.  0.
         25    1    1    2    0    0 -0.99989914303E+02 -0.17256630455E+03  0.93499300515E+03  0.96416494031E+03  0.12500000000E+03 0.  0.
</event>
<event>
 4    0  0.2193754E-002  0.2183796E+03  0.7546771E-02  0.1135097E+00
         21   -1    0    0  502  501  0.00000000000E+00  0.00000000000E+00  0.87432107056E+03  0.87432107056E+03  0.00000000000E+00 0. -1.
         21   -1    0    0  501  502 -0.00000000000E+00 -0.00000000000E+00 -0.54544776767E+02  0.54544776767E+02  0.00000000000E+00 0. -1.
         25    1    1    2    0    0 -0.12669404770E+03  0.12545858399E+03  0.37472256406E+03  0.43339732121E+03  0.12500000000E+03 0.  0.
         25    1    1    2    0    0  0.12669404770E+03 -0.12545858399E+03  0.44505372973E+03  0.49546852611E+03  0.12500000000E+03 0.  0.
</event>
<event>
 4    0  0.2193754E-002  0.2005936E+03  0.7546771E-02  0.1149239E+00
         21   -1    0    0  502  501  0.00000000000E+00  0.00000000000E+00  0.10794767557E+04  0.10794767557E+04  0.00000000000E+00 0.  1.
         21   -1    0    0  501  502 -0.00000000000E+00 -0.00000000000E+00 -0.37275261584E+02  0.37275261584E+02  0.00000000000E+00 0.  1.
         25    1    1    2    0    0 -0.11220532442E+03 -0.76843502150E+02  0.30337585065E+03  0.35518567737E+03  0.12500000000E+03 0.  0.
         25    1    1    2    0    0  0.11220532442E+03  0.76843502150E+02  0.73882564348E+03  0.76156633993E+03  0.12500000000E+03 0.  0.
</event>
<event>
 4    0  0.2193754E-002  0.6706509E+03  0.7546771E-02  0.9768783E-01
         21   -1    0    0  502  501  0.00000000000E+00  0.00000000000E+00  0.74148337771E+03  0.74148337771E+03  0.00000000000E+00 0.  1.
         21   -1    0    0  501  502 -0.00000000000E+00 -0.00000000000E+00 -0.60658487655E+03  0.60658487655E+03  0.00000000000E+00 0.  1.
         25    1    1    2    0    0  0.22339942380E+03  0.55574695316E+02  0.68793862416E+03  0.73612526103E+03  0.12500000000E+03 0.  0.
         25    1    1    2    0    0 -0.22339942380E+03 -0.55574695316E+02 -0.55304012300E+03  0.61194299323E+03  0.12500000000E+03 0.  0.
</event>
<event>
 4    0  0.2193754E-002  0.3991995E+03  0.7546771E-02  0.1044057E+00
         21   -1    0    0  502  501  0.00000000000E+00  0.00000000000E+00  0.32238088788E+03  0.32238088788E+03  0.00000000000E+00 0.  1.
         21   -1    0    0  501  502 -0.00000000000E+00 -0.00000000000E+00 -0.49432275345E+03  0.49432275345E+03  0.00000000000E+00 0.  1.
         25    1    1    2    0    0 -0.18790891293E+03  0.11147972327E+03  0.23096757662E+03  0.34162627198E+03  0.12500000000E+03 0.  0.
         25    1    1    2    0    0  0.18790891293E+03 -0.11147972327E+03 -0.40290944219E+03  0.47507736935E+03  0.12500000000E+03 0.  0.
</event>
<event>
 4    0  0.2193754E-002  0.2089913E+03  0.7546771E-02  0.1142367E+00
         21   -1    0    0  502  501  0.00000000000E+00  0.00000000000E+00  0.16036539652E+04  0.16036539652E+04  0.00000000000E+00 0. -1.
         21   -1    0    0  501  502 -0.00000000000E+00 -0.00000000000E+00 -0.27236140934E+02  0.27236140934E+02  0.00000000000E+00 0. -1.
         25    1    1    2    0    0  0.25408552575E+02 -0.42447409295E+02  0.16385806389E+03  0.21194773460E+03  0.12500000000E+03 0.  0.
         25    1    1    2    0    0 -0.25408552575E+02  0.42447409295E+02  0.14125597604E+04  0.14189423715E+04  0.12500000000E+03 0.  0.
</event>
<event>
 4    0  0.2193754E-002  0.2534039E+03  0.7546771E-02  0.1111172E+00
         21   -1    0    0  502  501  0.00000000000E+00  0.00000000000E+00  0.53000135652E+03  0.53000135652E+03  0.00000000000E+00 0.  1.
         21   -1    0    0  501  502 -0.00000000000E+00 -0.00000000000E+00 -0.12115732228E+03  0.12115732228E+03  0.00000000000E+00 0.  1.
         25    1    1    2    0    0 -0.85412401435E+02  0.16637302172E+03  0.54513960502E+02  0.23145632972E+03  0.12500000000E+03 0.  0.
         25    1    1    2    0    0  0.85412401435E+02 -0.16637302172E+03  0.35433007374E+03  0.41970234909E+03  0.12500000000E+03 0.  0.
</event>
<event>
 4    0  0.2193754E-002  0.1983845E+03  0.7546771E-02  0.1151109E+00
         21   -1    0    0  502  501  0.00000000000E+00  0.00000000000E+00  0.12858969358E+04  0.12858969358E+04  0.00000000000E+00 0. -1.
         21   -1    0    0  501  502 -0.00000000000E+00 -0.00000000000E+00 -0.30606177693E+02  0.30606177693E+02  0.00000000000E+00 0. -1.
         25    1    1    2    0    0  0.47755642976E+02  0.81778658851E+02  0.10308004802E+04  0.10426614889E+04  0.12500000000E+03 0.  0.
         25    1    1    2    0    0 -0.47755642976E+02 -0.81778658851E+02  0.22449027791E+03  0.27384162459E+03  0.12500000000E+03 0.  0.
</event>
<event>
 4    0  0.2193754E-002  0.3840598E+03  0.7546771E-02  0.1049443E+00
         21   -1    0    0  502  501  0.00000000000E+00  0.00000000000E+00  0.84048369789E+03  0.84048369789E+03  0.00000000000E+00 0. -1.
         21   -1    0    0  501  502 -0.00000000000E+00 -0.00000000000E+00 -0.17549651149E+03  0.17549651149E+03  0.00000000000E+00 0. -1.
         25    1    1    2    0    0 -0.11124976142E+03 -0.17968711024E+03  0.72310682381E+03  0.76365728285E+03  0.12500000000E+03 0.  0.
         25    1    1    2    0    0  0.11124976142E+03  0.17968711024E+03 -0.58119637415E+02  0.25232292654E+03  0.12500000000E+03 0.  0.
</event>
<event>
 4    0  0.2193754E-002  0.1978285E+03  0.7546771E-02  0.1151584E+00
         21   -1    0    0  502  501  0.00000000000E+00  0.00000000000E+00  0.16154956360E+03  0.16154956360E+03  0.00000000000E+00 0. -1.
         21   -1    0    0  501  502 -0.00000000000E+00 -0.00000000000E+00 -0.24225459821E+03  0.24225459821E+03  0.00000000000E+00 0. -1.
         25    1    1    2    0    0  0.62612886011E+02  0.50749154670E+01 -0.18310766299E+03  0.23043338410E+03  0.12500000000E+03 0.  0.
         25    1    1    2    0    0 -0.62612886011E+02 -0.50749154670E+01  0.10240262838E+03  0.17337077770E+03  0.12500000000E+03 0.  0.
</event>
<event>
 4    0  0.2193754E-002  0.2083319E+03  0.7546771E-02  0.1142894E+00
         21   -1    0    0  502  501  0.00000000000E+00  0.00000000000E+00  0.81019432316E+02  0.81019432316E+02  0.00000000000E+00 0.  1.
         21   -1    0    0  501  502 -0.00000000000E+00 -0.00000000000E+00 -0.53570096401E+03  0.53570096401E+03  0.00000000000E+00 0.  1.
         25    1    1    2    0    0 -0.10155012285E+03  0.11757677590E+03 -0.31664679385E+03  0.37420170729E+03  0.12500000000E+03 0.  0.
         25    1    1    2    0    0  0.10155012285E+03 -0.11757677590E+03 -0.13803473785E+03  0.24251868904E+03  0.12500000000E+03 0.  0.
</event>
<event>
 4    0  0.2193754E-002  0.2326016E+03  0.7546771E-02  0.1124822E+00
         21   -1    0    0  502  501  0.00000000000E+00  0.00000000000E+00  0.15740539547E+03  0.15740539547E+03  0.00000000000E+00 0.  1.
         21   -1    0    0  501  502 -0.00000000000E+00 -0.00000000000E+00 -0.34372069810E+03  0.34372069810E+03  0.00000000000E+00 0.  1.
         25    1    1    2    0    0 -0.39771964923E+02  0.73125352471E+02 -0.28449497271E+03  0.32170097274E+03  0.12500000000E+03 0.  0.
         25    1    1    2    0    0  0.39771964923E+02 -0.73125352471E+02  0.98179670082E+02  0.17942512083E+03  0.12500000000E+03 0.  0.
</event>
<event>
 4    0  0.2193754E-002  0.1848652E+03  0.7546771E-02  0.1163176E+00
         21   -1    0    0  502  501  0.00000000000E+00  0.00000000000E+00  0.17794135466E+02  0.17794135466E+02  0.00000000000E+00 0. -1.
         21   -1    0    0  501  502 -0.00000000000E+00 -0.00000000000E+00 -0.19205853273E+04  0.19205853273E+04  0.00000000000E+00 0. -1.
         25    1    1    2    0    0 -0.91323484093E+02 -0.92992610594E+02 -0.11586342061E+04  0.11726234809E+04  0.12500000000E+03 0.  0.
         25    1    1    2    0    0  0.91323484093E+02  0.92992610594E+02 -0.74415698571E+03  0.76575598185E+03  0.12500000000E+03 0.  0.
</event>
<event>
 4    0  0.2193754E-002  0.1848161E+03  0.7546771E-02  0.1163222E+00
         21   -1    0    0  502  501  0.00000000000E+00  0.00000000000E+00  0.15106466746E+03  0.15106466746E+03  0.00000000000E+00 0. -1.
         21   -1    0    0  501  502 -0.00000000000E+00 -0.00000000000E+00 -0.22610832514E+03  0.22610832514E+03  0.00000000000E+00 0. -1.
         25    1    1    2    0    0  0.61341442229E+02 -0.12147273497E+03 -0.41282262024E+02  0.18933468524E+03  0.12500000000E+03 0.  0.
         25    1    1    2    0    0 -0.61341442229E+02  0.12147273497E+03 -0.33761395658E+02  0.18783830736E+03  0.12500000000E+03 0.  0.
</event>
<event>
 4    0  0.2193754E-002  0.2057796E+03  0.7546771E-02  0.1144952E+00
         21   -1    0    0  502  501  0.00000000000E+00  0.00000000000E+00  0.18392735307E+03  0.18392735307E+03  0.00000000000E+00 0. -1.
         21   -1    0    0  501  502 -0.00000000000E+00 -0.00000000000E+00 -0.23022799887E+03  0.23022799887E+03  0.00000000000E+00 0. -1.
         25    1    1    2    0    0 -0.11476763485E+03 -0.44338852334E+02 -0.13145211180E+03  0.21918531322E+03  0.12500000000E+03 0.  0.
         25    1    1    2    0    0  0.11476763485E+03  0.44338852334E+02  0.85151465994E+02  0.19497003872E+03  0.12500000000E+03 0.  0.
</event>
<event>
 4    0  0.2281967E-002  0.2264832E+03  0.7546771E-02  0.1129140E+00
         21   -1    0    0  502  501  0.00000000000E+00  0.00000000000E+00  0.19971220477E+03  0.19971220477E+03  0.00000000000E+00 0. -1.
         21   -1    0    0  501  502 -0.00000000000E+00 -0.00000000000E+00 -0.25684271441E+03  0.25684271441E+03  0.00000000000E+00 0. -1.
         25    1    1    2    0    0  0.28409780301E+02 -0.22344066922E+00  0.15962889198E+03  0.20472798708E+03  0.12500000000E+03 0.  0.
         25    1    1    2    0    0 -0.28409780301E+02  0.22344066922E+00 -0.21675940162E+03  0.25182693210E+03  0.12500000000E+03 0.  0.
</event>
<event>
 4    0  0.2193754E-002  0.2791596E+03  0.7546771E-02  0.1096149E+00
         21   -1    0    0  502  501  0.00000000000E+00  0.00000000000E+00  0.58884986835E+02  0.58884986835E+02  0.00000000000E+00 0. -1.
         21   -1    0    0  501  502 -0.00000000000E+00 -0.00000000000E+00 -0.13234284041E+04  0.13234284041E+04  0.00000000000E+00 0. -1.
         25    1    1    2    0    0  0.94222634761E+02  0.10846863627E+03 -0.11376220580E+04  0.11534523383E+04  0.12500000000E+03 0.  0.
         25    1    1    2    0    0 -0.94222634761E+02 -0.10846863627E+03 -0.12692135924E+03  0.22886105258E+03  0.12500000000E+03 0.  0.
</event>
<event>
 4    0  0.2193754E-002  0.2677465E+03  0.7546771E-02  0.1102576E+00
         21   -1    0    0  502  501  0.00000000000E+00  0.00000000000E+00  0.10091079817E+04  0.10091079817E+04  0.00000000000E+00 0.  1.
         21   -1    0    0  501  502 -0.00000000000E+00 -0.00000000000E+00 -0.71041163997E+02  0.71041163997E+02  0.00000000000E+00 0.  1.
         25    1    1    2    0    0  0.20900594790E+03 -0.10095824047E+03  0.56336767225E+03  0.62200015009E+03  0.12500000000E+03 0.  0.
         25    1    1    2    0    0 -0.20900594790E+03  0.10095824047E+03  0.37469914547E+03  0.45814899562E+03  0.12500000000E+03 0.  0.
</event>
<event>
 4    0  0.2193754E-002  0.2297239E+03  0.7546771E-02  0.1126834E+00
         21   -1    0    0  502  501  0.00000000000E+00  0.00000000000E+00  0.15132781095E+03  0.15132781095E+03  0.00000000000E+00 0.  1.
         21   -1    0    0  501  502 -0.00000000000E+00 -0.00000000000E+00 -0.34873354074E+03  0.34873354074E+03  0.00000000000E+00 0.  1.
         25    1    1    2    0    0  0.17190817659E+03  0.21506303887E+02 -0.67791714424E+01  0.21374260093E+03  0.12500000000E+03 0.  0.
         25    1    1    2    0    0 -0.17190817659E+03 -0.21506303887E+02 -0.19062655835E+03  0.28631875075E+03  0.12500000000E+03 0.  0.
</event>
<event>
 4    0  0.2193754E-002  0.3686014E+03  0.7546771E-02  0.1055229E+00
         21   -1    0    0  502  501  0.00000000000E+00  0.00000000000E+00  0.12695812683E+04  0.12695812683E+04  0.00000000000E+00 0.  1.
         21   -1    0    0  501  502 -0.00000000000E+00 -0.00000000000E+00 -0.10701719498E+03  0.10701719498E+03  0.00000000000E+00 0.  1.
         25    1    1    2    0    0 -0.89325000431E+02 -0.21316770467E+02 -0.43110901163E+02  0.16098729827E+03  0.12500000000E+03 0.  0.
         25    1    1    2    0    0  0.89325000431E+02  0.21316770467E+02  0.12056749744E+04  0.12156111650E+04  0.12500000000E+03 0.  0.
</event>
<event>
 4    0  0.2193754E-002  0.1715806E+03  0.7546771E-02  0.1176210E+00
         21   -1    0    0  502  501  0.00000000000E+00  0.00000000000E+00  0.29614260739E+03  0.29614260739E+03  0.00000000000E+00 0.  1.
         21   -1    0    0  501  502 -0.00000000000E+00 -0.00000000000E+00 -0.99411228308E+02  0.99411228308E+02  0.00000000000E+00 0.  1.
         25    1    1    2    0    0 -0.16147015372E+02 -0.90965611062E+02  0.18211881656E+03  0.23943210279E+03  0.12500000000E+03 0.  0.
         25    1    1    2    0    0  0.16147015372E+02  0.90965611062E+02  0.14612562516E+02  0.15612173290E+03  0.12500000000E+03 0.  0.
</event>
<event>
 4    0  0.2193754E-002  0.1973275E+03  0.7546771E-02  0.1152014E+00
         21   -1    0    0  502  501  0.00000000000E+00  0.00000000000E+00  0.78758757725E+03  0.78758757725E+03  0.00000000000E+00 0.  1.
         21   -1    0    0  501  502 -0.00000000000E+00 -0.00000000000E+00 -0.49439755161E+02  0.49439755161E+02  0.00000000000E+00 0.  1.
         25    1    1    2    0    0 -0.50370875931E+02 -0.10363507552E+03  0.15660493428E+03  0.23114402320E+03  0.12500000000E+03 0.  0.
         25    1    1    2    0    0  0.50370875931E+02  0.10363507552E+03  0.58154288781E+03  0.60588330921E+03  0.12500000000E+03 0.  0.
</event>
<event>
 4    0  0.2193754E-002  0.1976422E+03  0.7546771E-02  0.1151744E+00
         21   -1    0    0  502  501  0.00000000000E+00  0.00000000000E+00  0.44427901637E+02  0.44427901637E+02  0.00000000000E+00 0. -1.
         21   -1    0    0  501  502 -0.00000000000E+00 -0.00000000000E+00 -0.87923186532E+03  0.87923186532E+03  0.00000000000E+00 0. -1.
         25    1    1    2    0    0  0.53531644765E+02 -0.13865378840E+02 -0.83822276312E+02  0.16034044944E+03  0.12500000000E+03 0.  0.
         25    1    1    2    0    0 -0.53531644765E+02  0.13865378840E+02 -0.75098168738E+03  0.76331931752E+03  0.12500000000E+03 0.  0.
</event>
<event>
 4    0  0.2193754E-002  0.2793137E+03  0.7546771E-02  0.1096064E+00
         21   -1    0    0  502  501  0.00000000000E+00  0.00000000000E+00  0.19886963953E+03  0.19886963953E+03  0.00000000000E+00 0. -1.
         21   -1    0    0  501  502 -0.00000000000E+00 -0.00000000000E+00 -0.39229787968E+03  0.39229787968E+03  0.00000000000E+00 0. -1.
         25    1    1    2    0    0  0.23845250695E+03  0.24747052184E+02 -0.22492197872E+02  0.27129856916E+03  0.12500000000E+03 0.  0.
         25    1    1    2    0    0 -0.23845250695E+03 -0.24747052184E+02 -0.17093604227E+03  0.31986895005E+03  0.12500000000E+03 0.  0.
</event>
<event>
 4    0  0.2193754E-002  0.1650868E+03  0.7546771E-02  0.1183071E+00
         21   -1    0    0  502  501  0.00000000000E+00  0.00000000000E+00  0.21159700911E+03  0.21159700911E+03  0.00000000000E+00 0.  1.
         21   -1    0    0  501  502 -0.00000000000E+00 -0.00000000000E+00 -0.12879978086E+03  0.12879978086E+03  0.00000000000E+00 0.  1.
         25    1    1    2    0    0 -0.63933490325E+02 -0.79312957313E+01 -0.47755867043E+02  0.14851269129E+03  0.12500000000E+03 0.  0.
         25    1    1    2    0    0  0.63933490325E+02  0.79312957313E+01  0.13055309530E+03  0.19188409869E+03  0.12500000000E+03 0.  0.
</event>
<event>
 4    0  0.2193754E-002  0.1791970E+03  0.7546771E-02  0.1168582E+00
         21   -1    0    0  502  501  0.00000000000E+00  0.00000000000E+00  0.16819463609E+03  0.16819463609E+03  0.00000000000E+00 0. -1.
         21   -1    0    0  501  502 -0.00000000000E+00 -0.00000000000E+00 -0.19091907984E+03  0.19091907984E+03  0.00000000000E+00 0. -1.
         25    1    1    2    0    0 -0.44162058223E+02 -0.12041430059E+03 -0.17430287940E+02  0.17994084059E+03  0.12500000000E+03 0.  0.
         25    1    1    2    0    0  0.44162058223E+02  0.12041430059E+03 -0.52941558028E+01  0.17917287534E+03  0.12500000000E+03 0.  0.
</event>
<event>
 4    0  0.2193754E-002  0.2746288E+03  0.7546771E-02  0.1098659E+00
         21   -1    0    0  502  501  0.00000000000E+00  0.00000000000E+00  0.93137834197E+02  0.93137834197E+02  0.00000000000E+00 0. -1.
         21   -1    0    0  501  502 -0.00000000000E+00 -0.00000000000E+00 -0.80977820987E+03  0.80977820987E+03  0.00000000000E+00 0. -1.
         25    1    1    2    0    0  0.75519736640E+02  0.46251770680E+02 -0.73301596777E+03  0.74885236590E+03  0.12500000000E+03 0.  0.
         25    1    1    2    0    0 -0.75519736640E+02 -0.46251770680E+02  0.16375592096E+02  0.15406367816E+03  0.12500000000E+03 0.  0.
</event>
<event>
 4    0  0.2193754E-002  0.2031394E+03  0.7546771E-02  0.1147117E+00
         21   -1    0    0  502  501  0.00000000000E+00  0.00000000000E+00  0.48503048414E+03  0.48503048414E+03  0.00000000000E+00 0. -1.
         21   -1    0    0  501  502 -0.00000000000E+00 -0.00000000000E+00 -0.85078377561E+02  0.85078377561E+02  0.00000000000E+00 0. -1.
         25    1    1    2    0    0  0.11513940295E+03  0.17592032956E+02  0.35416742521E+03  0.39322528761E+03  0.12500000000E+03 0.  0.
         25    1    1    2    0    0 -0.11513940295E+03 -0.17592032956E+02  0.45784681361E+02  0.17688357409E+03  0.12500000000E+03 0.  0.
</event>
<event>
 4    0  0.2193754E-002  0.2538127E+03  0.7546771E-02  0.1110919E+00
         21   -1    0    0  502  501  0.00000000000E+00  0.00000000000E+00  0.28032226876E+04  0.28032226876E+04  0.00000000000E+00 0. -1.
         21   -1    0    0  501  502 -0.00000000000E+00 -0.00000000000E+00 -0.22981004540E+02  0.22981004540E+02  0.00000000000E+00 0. -1.
         25    1    1    2    0    0 -0.84172943047E+02 -0.73824937365E+02  0.24502970589E+04  0.24560366207E+04  0.12500000000E+03 0.  0.
         25    1    1    2    0    0  0.84172943047E+02  0.73824937365E+02  0.32994462421E+03  0.37016707142E+03  0.12500000000E+03 0.  0.
</event>
<event>
 4    0  0.2193754E-002  0.1537986E+03  0.7546771E-02  0.1195882E+00
         21   -1    0    0  502  501  0.00000000000E+00  0.00000000000E+00  0.41256433079E+02  0.41256433079E+02  0.00000000000E+00 0.  1.
         21   -1    0    0  501  502 -0.00000000000E+00 -0.00000000000E+00 -0.57334097944E+03  0.57334097944E+03  0.00000000000E+00 0.  1.
         25    1    1    2    0    0 -0.80162234883E+02  0.37932880873E+02 -0.29163899731E+03  0.32945893842E+03  0.12500000000E+03 0.  0.
         25    1    1    2    0    0  0.80162234883E+02 -0.37932880873E+02 -0.24044554905E+03  0.28513847410E+03  0.12500000000E+03 0.  0.
</event>
<event>
 4    0  0.2193754E-002  0.5973285E+03  0.7546771E-02  0.9910964E-01
         21   -1    0    0  502  501  0.00000000000E+00  0.00000000000E+00  0.10720581836E+04  0.10720581836E+04  0.00000000000E+00 0. -1.
         21   -1    0    0  501  502 -0.00000000000E+00 -0.00000000000E+00 -0.33281898288E+03  0.33281898288E+03  0.00000000000E+00 0.  1.
         25    1    1    2    0    0 -0.25120216528E+03  0.40123727123E+03 -0.32764688446E+02  0.49070602246E+03  0.12500000000E+03 0.  0.
         25    1    1    2    0    0  0.25120216528E+03 -0.40123727123E+03  0.77200388921E+03  0.91417114406E+03  0.12500000000E+03 0.  0.
</event>
<event>
 4    0  0.2193754E-002  0.2748803E+03  0.7546771E-02  0.1098519E+00
         21   -1    0    0  502  501  0.00000000000E+00  0.00000000000E+00  0.12079014565E+03  0.12079014565E+03  0.00000000000E+00 0.  1.
         21   -1    0    0  501  502 -0.00000000000E+00 -0.00000000000E+00 -0.62554081045E+03  0.62554081045E+03  0.00000000000E+00 0.  1.
         25    1    1    2    0    0  0.20635221946E+03 -0.13017149319E+03 -0.22494363888E+03  0.35461316499E+03  0.12500000000E+03 0.  0.
         25    1    1    2    0    0 -0.20635221946E+03  0.13017149319E+03 -0.27980702592E+03  0.39171779111E+03  0.12500000000E+03 0.  0.
</event>
<event>
 4    0  0.2193754E-002  0.2072717E+03  0.7546771E-02  0.1143745E+00
         21   -1    0    0  502  501  0.00000000000E+00  0.00000000000E+00  0.12055029923E+03  0.12055029923E+03  0.00000000000E+00 0. -1.
         21   -1    0    0  501  502 -0.00000000000E+00 -0.00000000000E+00 -0.35637865448E+03  0.35637865448E+03  0.00000000000E+00 0. -1.
         25    1    1    2    0    0  0.43897785902E+02 -0.15813691432E+03 -0.94839588454E+02  0.22705472207E+03  0.12500000000E+03 0.  0.
         25    1    1    2    0    0 -0.43897785902E+02  0.15813691432E+03 -0.14098876679E+03  0.24987423164E+03  0.12500000000E+03 0.  0.
</event>
<event>
 4    0  0.2193754E-002  0.3545158E+03  0.7546771E-02  0.1060777E+00
         21   -1    0    0  502  501  0.00000000000E+00  0.00000000000E+00  0.78912716565E+02  0.78912716565E+02  0.00000000000E+00 0. -1.
         21   -1    0    0  501  502 -0.00000000000E+00 -0.00000000000E+00 -0.15926639176E+04  0.15926639176E+04  0.00000000000E+00 0. -1.
         25    1    1    2    0    0 -0.22127045571E+02  0.32411307994E+03 -0.91533273846E+03  0.97928439017E+03  0.12500000000E+03 0.  0.
         25    1    1    2    0    0  0.22127045571E+02 -0.32411307994E+03 -0.59841846254E+03  0.69229224396E+03  0.12500000000E+03 0.  0.
</event>
<event>
 4    0  0.2193754E-002  0.1466754E+03  0.7546771E-02  0.1204619E+00
         21   -1    0    0  502  501  0.00000000000E+00  0.00000000000E+00  0.85665501514E+02  0.85665501514E+02  0.00000000000E+00 0. -1.
         21   -1    0    0  501  502 -0.00000000000E+00 -0.00000000000E+00 -0.25113562436E+03  0.25113562436E+03  0.00000000000E+00 0. -1.
         25    1    1    2    0    0  0.62524257320E+01 -0.10294691345E+01  0.50678441399E+01  0.12526306590E+03  0.12500000000E+03 0.  0.
         25    1    1    2    0    0 -0.62524257320E+01  0.10294691345E+01 -0.17053796699E+03  0.21153805998E+03  0.12500000000E+03 0.  0.
</event>
<event>
 4    0  0.2193754E-002  0.2150521E+03  0.7546771E-02  0.1137627E+00
         21   -1    0    0  502  501  0.00000000000E+00  0.00000000000E+00  0.21785732960E+02  0.21785732960E+02  0.00000000000E+00 0. -1.
         21   -1    0    0  501  502 -0.00000000000E+00 -0.00000000000E+00 -0.21228307651E+04  0.21228307651E+04  0.00000000000E+00 0. -1.
         25    1    1    2    0    0 -0.67322673657E+02 -0.12409599644E+03 -0.15660717158E+04  0.15773832057E+04  0.12500000000E+03 0.  0.
         25    1    1    2    0    0  0.67322673657E+02  0.12409599644E+03 -0.53497331638E+03  0.56723329236E+03  0.12500000000E+03 0.  0.
</event>
<event>
 4    0  0.2193754E-002  0.1764070E+03  0.7546771E-02  0.1171326E+00
         21   -1    0    0  502  501  0.00000000000E+00  0.00000000000E+00  0.44753840815E+03  0.44753840815E+03  0.00000000000E+00 0. -1.
         21   -1    0    0  501  502 -0.00000000000E+00 -0.00000000000E+00 -0.69534654888E+02  0.69534654888E+02  0.00000000000E+00 0. -1.
         25    1    1    2    0    0  0.80525285146E+02  0.94920956919E+02  0.18950776189E+03  0.25890635648E+03  0.12500000000E+03 0.  0.
         25    1    1    2    0    0 -0.80525285146E+02 -0.94920956919E+02  0.18849599137E+03  0.25816670656E+03  0.12500000000E+03 0.  0.
</event>
<event>
 4    0  0.2193754E-002  0.1503547E+03  0.7546771E-02  0.1200038E+00
         21   -1    0    0  502  501  0.00000000000E+00  0.00000000000E+00  0.21396658870E+03  0.21396658870E+03  0.00000000000E+00 0.  1.
         21   -1    0    0  501  502 -0.00000000000E+00 -0.00000000000E+00 -0.10565454182E+03  0.10565454182E+03  0.00000000000E+00 0.  1.
         25    1    1    2    0    0 -0.74522271572E+02 -0.12530229700E+02  0.92048713227E+02  0.17265150223E+03  0.12500000000E+03 0.  0.
         25    1    1    2    0    0  0.74522271572E+02  0.12530229700E+02  0.16263333659E+02  0.14696962829E+03  0.12500000000E+03 0.  0.
</event>
<event>
 4    0  0.2193754E-002  0.2055122E+03  0.7546771E-02  0.1145170E+00
         21   -1    0    0  502  501  0.00000000000E+00  0.00000000000E+00  0.71790417053E+02  0.71790417053E+02  0.00000000000E+00 0.  1.
         21   -1    0    0  501  502 -0.00000000000E+00 -0.00000000000E+00 -0.58831364182E+03  0.58831364182E+03  0.00000000000E+00 0.  1.
         25    1    1    2    0    0  0.15963681079E+02  0.37215174703E+01 -0.51891641223E+03  0.53401117187E+03  0.12500000000E+03 0.  0.
         25    1    1    2    0    0 -0.15963681079E+02 -0.37215174703E+01  0.23931874598E+01  0.12609288700E+03  0.12500000000E+03 0.  0.
</event>
<event>
 4    0  0.2193754E-002  0.5001822E+03  0.7546771E-02  0.1013731E+00
         21   -1    0    0  502  501  0.00000000000E+00  0.00000000000E+00  0.54780440201E+03  0.54780440201E+03  0.00000000000E+00 0. -1.
         21   -1    0    0  501  502 -0.00000000000E+00 -0.00000000000E+00 -0.45669999516E+03  0.45669999516E+03  0.00000000000E+00 0. -1.
         25    1    1    2    0    0  0.82279015794E+02  0.25418341830E+01 -0.43368696236E+03  0.45878718234E+03  0.12500000000E+03 0.  0.
         25    1    1    2    0    0 -0.82279015794E+02 -0.25418341830E+01  0.52479136921E+03  0.54571721483E+03  0.12500000000E+03 0.  0.
</event>
<event>
 4    0  0.2193754E-002  0.1932032E+03  0.7546771E-02  0.1155604E+00
         21   -1    0    0  502  501  0.00000000000E+00  0.00000000000E+00  0.20483497404E+03  0.20483497404E+03  0.00000000000E+00 0. -1.
         21   -1    0    0  501  502 -0.00000000000E+00 -0.00000000000E+00 -0.18223201403E+03  0.18223201403E+03  0.00000000000E+00 0. -1.
         25    1    1    2    0    0 -0.32340951917E+02 -0.90473292078E+02  0.12316661573E+03  0.20006591159E+03  0.12500000000E+03 0.  0.
         25    1    1    2    0    0  0.32340951917E+02  0.90473292078E+02 -0.10056365572E+03  0.18700107647E+03  0.12500000000E+03 0.  0.
</event>
<event>
 4    0  0.2193754E-002  0.2290383E+03  0.7546771E-02  0.1127318E+00
         21   -1    0    0  502  501  0.00000000000E+00  0.00000000000E+00  0.91321331952E+02  0.91321331952E+02  0.00000000000E+00 0. -1.
         21   -1    0    0  501  502 -0.00000000000E+00 -0.00000000000E+00 -0.57443909237E+03  0.57443909237E+03  0.00000000000E+00 0. -1.
         25    1    1    2    0    0 -0.42871485459E+02 -0.16945852065E+03 -0.35672866248E+03  0.41645467115E+03  0.12500000000E+03 0.  0.
         25    1    1    2    0    0  0.42871485459E+02  0.16945852065E+03 -0.12638909794E+03  0.24930575317E+03  0.12500000000E+03 0.  0.
</event>
<event>
 4    0  0.2193754E-002  0.1893985E+03  0.7546771E-02  0.1159005E+00
         21   -1    0    0  502  501  0.00000000000E+00  0.00000000000E+00  0.36933751018E+03  0.36933751018E+03  0.00000000000E+00 0.  1.
         21   -1    0    0  501  502 -0.00000000000E+00 -0.00000000000E+00 -0.97124741623E+02  0.97124741623E+02  0.00000000000E+00 0.  1.
         25    1    1    2    0    0 -0.29719484167E+02  0.13487231319E+03  0.93930628425E+02  0.20861867501E+03  0.12500000000E+03 0.  0.
         25    1    1    2    0    0  0.29719484167E+02 -0.13487231319E+03  0.17828214014E+03  0.25784357680E+03  0.12500000000E+03 0.  0.
</event>
<event>
 4    0  0.2193754E-002  0.1813400E+03  0.7546771E-02  0.1166512E+00
         21   -1    0    0  502  501  0.00000000000E+00  0.00000000000E+00  0.84523240377E+02  0.84523240377E+02  0.00000000000E+00 0.  1.
         21   -1    0    0  501  502 -0.00000000000E+00 -0.00000000000E+00 -0.38905518401E+03  0.38905518401E+03  0.00000000000E+00 0.  1.
         25    1    1    2    0    0 -0.88515621555E+02 -0.85201097750E+02 -0.91509376142E+02  0.19772002488E+03  0.12500000000E+03 0.  0.
         25    1    1    2    0    0  0.88515621555E+02  0.85201097750E+02 -0.21302256749E+03  0.27585839950E+03  0.12500000000E+03 0.  0.
</event>
<event>
 4    0  0.2193754E-002  0.2379787E+03  0.7546771E-02  0.1121147E+00
         21   -1    0    0  502  501  0.00000000000E+00  0.00000000000E+00  0.28305210021E+03  0.28305210021E+03  0.00000000000E+00 0.  1.
         21   -1    0    0  501  502 -0.00000000000E+00 -0.00000000000E+00 -0.20008278305E+03  0.20008278305E+03  0.00000000000E+00 0.  1.
         25    1    1    2    0    0 -0.76833343196E+02 -0.18550354441E+03  0.14744965980E+02  0.23697540302E+03  0.12500000000E+03 0.  0.
         25    1    1    2    0    0  0.76833343196E+02  0.18550354441E+03  0.68224351181E+02  0.24615948023E+03  0.12500000000E+03 0.  0.
</event>
<event>
 4    0  0.2193754E-002  0.1910739E+03  0.7546771E-02  0.1157496E+00
         21   -1    0    0  502  501  0.00000000000E+00  0.00000000000E+00  0.91920649473E+03  0.91920649473E+03  0.00000000000E+00 0. -1.
         21   -1    0    0  501  502 -0.00000000000E+00 -0.00000000000E+00 -0.39718213394E+02  0.39718213394E+02  0.00000000000E+00 0. -1.
         25    1    1    2    0    0  0.21961935767E+02  0.19029128766E+02  0.79496615135E+03  0.80525810530E+03  0.12500000000E+03 0.  0.
         25    1    1    2    0    0 -0.21961935767E+02 -0.19029128766E+02  0.84522129980E+02  0.15366660281E+03  0.12500000000E+03 0.  0.
</event>
<event>
 4    0  0.2193754E-002  0.2383161E+03  0.7546771E-02  0.1120920E+00
         21   -1    0    0  502  501  0.00000000000E+00  0.00000000000E+00  0.62878716138E+02  0.62878716138E+02  0.00000000000E+00 0. -1.
         21   -1    0    0  501  502 -0.00000000000E+00 -0.00000000000E+00 -0.90323995427E+03  0.90323995427E+03  0.00000000000E+00 0. -1.
         25    1    1    2    0    0 -0.18838953359E+01 -0.19241159890E+03 -0.28969992077E+03  0.36956300755E+03  0.12500000000E+03 0.  0.
         25    1    1    2    0    0  0.18838953359E+01  0.19241159890E+03 -0.55066131736E+03  0.59655566286E+03  0.12500000000E+03 0.  0.
</event>
<event>
 4    0  0.2193754E-002  0.1932176E+03  0.7546771E-02  0.1155591E+00
         21   -1    0    0  502  501  0.00000000000E+00  0.00000000000E+00  0.22464674998E+02  0.22464674998E+02  0.00000000000E+00 0.  1.
         21   -1    0    0  501  502 -0.00000000000E+00 -0.00000000000E+00 -0.16618552387E+04  0.16618552387E+04  0.00000000000E+00 0.  1.
         25    1    1    2    0    0 -0.50672805310E+02 -0.11011896046E+03 -0.45466029381E+03  0.48686230231E+03  0.12500000000E+03 0.  0.
         25    1    1    2    0    0  0.50672805310E+02  0.11011896046E+03 -0.11847302699E+04  0.11974576114E+04  0.12500000000E+03 0.  0.
</event>
<event>
 4    0  0.2193754E-002  0.2756899E+03  0.7546771E-02  0.1098067E+00
         21   -1    0    0  502  501  0.00000000000E+00  0.00000000000E+00  0.25145262571E+03  0.25145262571E+03  0.00000000000E+00 0.  1.
         21   -1    0    0  501  502 -0.00000000000E+00 -0.00000000000E+00 -0.30226338825E+03  0.30226338825E+03  0.00000000000E+00 0.  1.
         25    1    1    2    0    0  0.57472929195E+02  0.21166437435E+03 -0.13666730970E+03  0.28706775942E+03  0.12500000000E+03 0.  0.
         25    1    1    2    0    0 -0.57472929195E+02 -0.21166437435E+03  0.85856547157E+02  0.26664825454E+03  0.12500000000E+03 0.  0.
</event>
<event>
 4    0  0.2193754E-002  0.2635838E+03  0.7546771E-02  0.1105009E+00
         21   -1    0    0  502  501  0.00000000000E+00  0.00000000000E+00  0.12112796045E+03  0.12112796045E+03  0.00000000000E+00 0. -1.
         21   -1    0    0  501  502 -0.00000000000E+00 -0.00000000000E+00 -0.57357868395E+03  0.57357868395E+03  0.00000000000E+00 0. -1.
         25    1    1    2    0    0 -0.47499767583E+02 -0.18694074861E+03 -0.56190378445E+02  0.23661240467E+03  0.12500000000E+03 0.  0.
         25    1    1    2    0    0  0.47499767583E+02  0.18694074861E+03 -0.39626034505E+03  0.45809423973E+03  0.12500000000E+03 0.  0.
</event>
<event>
 4    0  0.2193754E-002  0.1891587E+03  0.7546771E-02  0.1159222E+00
         21   -1    0    0  502  501  0.00000000000E+00  0.00000000000E+00  0.12684148778E+03  0.12684148778E+03  0.00000000000E+00 0. -1.
         21   -1    0    0  501  502 -0.00000000000E+00 -0.00000000000E+00 -0.28209243249E+03  0.28209243249E+03  0.00000000000E+00 0. -1.
         25    1    1    2    0    0 -0.10147469445E+03 -0.88435099101E+02 -0.28826111530E+02  0.18594038043E+03  0.12500000000E+03 0.  0.
         25    1    1    2    0    0  0.10147469445E+03  0.88435099101E+02 -0.12642483318E+03  0.22299353984E+03  0.12500000000E+03 0.  0.
</event>
<event>
 4    0  0.2193754E-002  0.2177449E+03  0.7546771E-02  0.1135576E+00
         21   -1    0    0  502  501  0.00000000000E+00  0.00000000000E+00  0.83019864579E+02  0.83019864579E+02  0.00000000000E+00 0.  1.
         21   -1    0    0  501  502 -0.00000000000E+00 -0.00000000000E+00 -0.57110249303E+03  0.57110249303E+03  0.00000000000E+00 0.  1.
         25    1    1    2    0    0 -0.12093251139E+03 -0.10125113628E+03 -0.11916974869E+03  0.23388649793E+03  0.12500000000E+03 0.  0.
         25    1    1    2    0    0  0.12093251139E+03  0.10125113628E+03 -0.36891287975E+03  0.42023585968E+03  0.12500000000E+03 0.  0.
</event>
<event>
 4    0  0.2193754E-002  0.2622070E+03  0.7546771E-02  0.1105824E+00
         21   -1    0    0  502  501  0.00000000000E+00  0.00000000000E+00  0.52028073923E+03  0.52028073923E+03  0.00000000000E+00 0. -1.
         21   -1    0    0  501  502 -0.00000000000E+00 -0.00000000000E+00 -0.13214501224E+03  0.13214501224E+03  0.00000000000E+00 0. -1.
         25    1    1    2    0    0 -0.96798297632E+02 -0.13727426806E+03 -0.23012013215E+01  0.20939061732E+03  0.12500000000E+03 0.  0.
         25    1    1    2    0    0  0.96798297632E+02  0.13727426806E+03  0.39043692831E+03  0.44303513414E+03  0.12500000000E+03 0.  0.
</event>
<event>
 4    0  0.2193754E-002  0.2841466E+03  0.7546771E-02  0.1093445E+00
         21   -1    0    0  502  501  0.00000000000E+00  0.00000000000E+00  0.22489563515E+03  0.22489563515E+03  0.00000000000E+00 0.  1.
         21   -1    0    0  501  502 -0.00000000000E+00 -0.00000000000E+00 -0.35900772345E+03  0.35900772345E+03  0.00000000000E+00 0.  1.
         25    1    1    2    0    0  0.22908471417E+03  0.19111041770E+02  0.46753125404E+02  0.26581176219E+03  0.12500000000E+03 0.  0.
         25    1    1    2    0    0 -0.22908471417E+03 -0.19111041770E+02 -0.18086521371E+03  0.31809159642E+03  0.12500000000E+03 0.  0.
</event>
<event>
 4    0  0.2193754E-002  0.1978933E+03  0.7546771E-02  0.1151529E+00
         21   -1    0    0  502  501  0.00000000000E+00  0.00000000000E+00  0.26507439902E+03  0.26507439902E+03  0.00000000000E+00 0.  1.
         21   -1    0    0  501  502 -0.00000000000E+00 -0.00000000000E+00 -0.14773875138E+03  0.14773875138E+03  0.00000000000E+00 0.  1.
         25    1    1    2    0    0  0.25099811590E+01 -0.12108316517E+03 -0.39560736095E+02  0.17848665142E+03  0.12500000000E+03 0.  0.
         25    1    1    2    0    0 -0.25099811590E+01  0.12108316517E+03  0.15689638374E+03  0.23432649898E+03  0.12500000000E+03 0.  0.
</event>
<event>
 4    0  0.2193754E-002  0.2233723E+03  0.7546771E-02  0.1131394E+00
         21   -1    0    0  502  501  0.00000000000E+00  0.00000000000E+00  0.89068667929E+03  0.89068667929E+03  0.00000000000E+00 0. -1.
         21   -1    0    0  501  502 -0.00000000000E+00 -0.00000000000E+00 -0.56018805538E+02  0.56018805538E+02  0.00000000000E+00 0. -1.
         25    1    1    2    0    0 -0.12336386836E+03 -0.13215140552E+03  0.33289915696E+03  0.39891037427E+03  0.12500000000E+03 0.  0.
         25    1    1    2    0    0  0.12336386836E+03  0.13215140552E+03  0.50176871679E+03  0.54779511055E+03  0.12500000000E+03 0.  0.
</event>
<event>
 4    0  0.2193754E-002  0.1564540E+03  0.7546771E-02  0.1192759E+00
         21   -1    0    0  502  501  0.00000000000E+00  0.00000000000E+00  0.19364751195E+03  0.19364751195E+03  0.00000000000E+00 0. -1.
         21   -1    0    0  501  502 -0.00000000000E+00 -0.00000000000E+00 -0.12640415184E+03  0.12640415184E+03  0.00000000000E+00 0. -1.
         25    1    1    2    0    0  0.68987248369E+02 -0.35057423012E+01 -0.31722020399E+02  0.14629701721E+03  0.12500000000E+03 0.  0.
         25    1    1    2    0    0 -0.68987248369E+02  0.35057423012E+01  0.98965380509E+02  0.17375464657E+03  0.12500000000E+03 0.  0.
</event>
<event>
 4    0  0.2193754E-002  0.2188823E+03  0.7546771E-02  0.1134719E+00
         21   -1    0    0  502  501  0.00000000000E+00  0.00000000000E+00  0.90926586918E+02  0.90926586918E+02  0.00000000000E+00 0.  1.
         21   -1    0    0  501  502 -0.00000000000E+00 -0.00000000000E+00 -0.52690260434E+03  0.52690260434E+03  0.00000000000E+00 0.  1.
         25    1    1    2    0    0 -0.17403669970E+03 -0.18730947108E+02 -0.16074942509E+03  0.26852373990E+03  0.12500000000E+03 0.  0.
         25    1    1    2    0    0  0.17403669970E+03  0.18730947108E+02 -0.27522659234E+03  0.34930545136E+03  0.12500000000E+03 0.  0.
</event>
<event>
 4    0  0.2193754E-002  0.1846133E+03  0.7546771E-02  0.1163412E+00
         21   -1    0    0  502  501  0.00000000000E+00  0.00000000000E+00  0.21825834589E+03  0.21825834589E+03  0.00000000000E+00 0.  1.
         21   -1    0    0  501  502 -0.00000000000E+00 -0.00000000000E+00 -0.15615470734E+03  0.15615470734E+03  0.00000000000E+00 0.  1.
         25    1    1    2    0    0  0.10116841772E+03  0.90646513299E+02  0.33370642811E+02  0.18759114830E+03  0.12500000000E+03 0.  0.
         25    1    1    2    0    0 -0.10116841772E+03 -0.90646513299E+02  0.28732995733E+02  0.18682190493E+03  0.12500000000E+03 0.  0.
</event>
<event>
 4    0  0.2193754E-002  0.1643925E+03  0.7546771E-02  0.1183825E+00
         21   -1    0    0  502  501  0.00000000000E+00  0.00000000000E+00  0.41256746443E+02  0.41256746443E+02  0.00000000000E+00 0. -1.
         21   -1    0    0  501  502 -0.00000000000E+00 -0.00000000000E+00 -0.65504147046E+03  0.65504147046E+03  0.00000000000E+00 0.  1.
         25    1    1    2    0    0  0.42215681363E+02 -0.40285877798E+02 -0.49625148333E+03  0.51506858806E+03  0.12500000000E+03 0.  0.
         25    1    1    2    0    0 -0.42215681363E+02  0.40285877798E+02 -0.11753324069E+03  0.18122962884E+03  0.12500000000E+03 0.  0.
</event>
<event>
 4    0  0.2193754E-002  0.1996221E+03  0.7546771E-02  0.1150058E+00
         21   -1    0    0  502  501  0.00000000000E+00  0.00000000000E+00  0.15911884847E+03  0.15911884847E+03  0.00000000000E+00 0.  1.
         21   -1    0    0  501  502 -0.00000000000E+00 -0.00000000000E+00 -0.25043544478E+03  0.25043544478E+03  0.00000000000E+00 0.  1.
         25    1    1    2    0    0 -0.11104279174E+03  0.10816636078E+03 -0.31387308542E+02  0.20159520416E+03  0.12500000000E+03 0.  0.
         25    1    1    2    0    0  0.11104279174E+03 -0.10816636078E+03 -0.59929287766E+02  0.20795908909E+03  0.12500000000E+03 0.  0.
</event>
<event>
 4    0  0.2193754E-002  0.1943313E+03  0.7546771E-02  0.1154612E+00
         21   -1    0    0  502  501  0.00000000000E+00  0.00000000000E+00  0.85313577127E+02  0.85313577127E+02  0.00000000000E+00 0.  1.
         21   -1    0    0  501  502 -0.00000000000E+00 -0.00000000000E+00 -0.44265707198E+03  0.44265707198E+03  0.00000000000E+00 0.  1.
         25    1    1    2    0    0  0.83622366370E+01 -0.10105044054E+03 -0.30742989391E+02  0.16386351006E+03  0.12500000000E+03 0.  0.
         25    1    1    2    0    0 -0.83622366370E+01  0.10105044054E+03 -0.32660050547E+03  0.36410713905E+03  0.12500000000E+03 0.  0.
</event>
<event>
 4    0  0.2193754E-002  0.3018279E+03  0.7546771E-02  0.1084330E+00
         21   -1    0    0  502  501  0.00000000000E+00  0.00000000000E+00  0.26375213415E+04  0.26375213415E+04  0.00000000000E+00 0.  1.
         21   -1    0    0  501  502 -0.00000000000E+00 -0.00000000000E+00 -0.34540042925E+02  0.34540042925E+02  0.00000000000E+00 0.  1.
         25    1    1    2    0    0 -0.20587178792E+03  0.13029226169E+03  0.73955912338E+03  0.78862663123E+03  0.12500000000E+03 0.  0.
         25    1    1    2    0    0  0.20587178792E+03 -0.13029226169E+03  0.18634221752E+04  0.18834347532E+04  0.12500000000E+03 0.  0.
</event>
<event>
 4    0  0.2193754E-002  0.1951045E+03  0.7546771E-02  0.1153936E+00
         21   -1    0    0  502  501  0.00000000000E+00  0.00000000000E+00  0.31803498253E+03  0.31803498253E+03  0.00000000000E+00 0.  1.
         21   -1    0    0  501  502 -0.00000000000E+00 -0.00000000000E+00 -0.11969048258E+03  0.11969048258E+03  0.00000000000E+00 0.  1.
         25    1    1    2    0    0 -0.53519175573E+02 -0.97299841164E+02  0.21196026168E+03  0.26996983864E+03  0.12500000000E+03 0.  0.
         25    1    1    2    0    0  0.53519175573E+02  0.97299841164E+02 -0.13615761734E+02  0.16775562647E+03  0.12500000000E+03 0.  0.
</event>
<event>
 4    0  0.2193754E-002  0.2959541E+03  0.7546771E-02  0.1087281E+00
         21   -1    0    0  502  501  0.00000000000E+00  0.00000000000E+00  0.75962663958E+02  0.75962663958E+02  0.00000000000E+00 0.  1.
         21   -1    0    0  501  502 -0.00000000000E+00 -0.00000000000E+00 -0.11530513576E+04  0.11530513576E+04  0.00000000000E+00 0.  1.
         25    1    1    2    0    0  0.12369422997E+03 -0.21837385948E+03 -0.34182155595E+03  0.44210222929E+03  0.12500000000E+03 0.  0.
         25    1    1    2    0    0 -0.12369422997E+03  0.21837385948E+03 -0.73526713767E+03  0.78691179225E+03  0.12500000000E+03 0.  0.
</event>
<event>
 4    0  0.2193754E-002  0.2350452E+03  0.7546771E-02  0.1123138E+00
         21   -1    0    0  502  501  0.00000000000E+00  0.00000000000E+00  0.47629907566E+03  0.47629907566E+03  0.00000000000E+00 0. -1.
         21   -1    0    0  501  502 -0.00000000000E+00 -0.00000000000E+00 -0.11599071153E+03  0.11599071153E+03  0.00000000000E+00 0. -1.
         25    1    1    2    0    0  0.13788220161E+03 -0.11473323365E+03  0.28887577655E+03  0.36228363295E+03  0.12500000000E+03 0.  0.
         25    1    1    2    0    0 -0.13788220161E+03  0.11473323365E+03  0.71432587586E+02  0.23000615425E+03  0.12500000000E+03 0.  0.
</event>
<event>
 4    0  0.2193754E-002  0.1708730E+03  0.7546771E-02  0.1176941E+00
         21   -1    0    0  502  501  0.00000000000E+00  0.00000000000E+00  0.46988736751E+02  0.46988736751E+02  0.00000000000E+00 0. -1.
         21   -1    0    0  501  502 -0.00000000000E+00 -0.00000000000E+00 -0.62137398204E+03  0.62137398204E+03  0.00000000000E+00 0. -1.
         25    1    1    2    0    0  0.72158056346E+02 -0.19615986351E+02 -0.46191061678E+03  0.48433251998E+03  0.12500000000E+03 0.  0.
         25    1    1    2    0    0 -0.72158056346E+02  0.19615986351E+02 -0.11247462851E+03  0.18403019881E+03  0.12500000000E+03 0.  0.
</event>
<event>
 4    0  0.2193754E-002  0.1742181E+03  0.7546771E-02  0.1173519E+00
         21   -1    0    0  502  501  0.00000000000E+00  0.00000000000E+00  0.37116389156E+03  0.37116389156E+03  0.00000000000E+00 0. -1.
         21   -1    0    0  501  502 -0.00000000000E+00 -0.00000000000E+00 -0.81775021336E+02  0.81775021336E+02  0.00000000000E+00 0. -1.
         25    1    1    2    0    0  0.11458623930E+03 -0.35284186910E+02  0.16908152938E+03  0.24205070473E+03  0.12500000000E+03 0.  0.
         25    1    1    2    0    0 -0.11458623930E+03  0.35284186910E+02  0.12030734085E+03  0.21088820817E+03  0.12500000000E+03 0.  0.
</event>
<event>
 4    0  0.2193754E-002  0.2009738E+03  0.7546771E-02  0.1148920E+00
         21   -1    0    0  502  501  0.00000000000E+00  0.00000000000E+00  0.25056069105E+03  0.25056069105E+03  0.00000000000E+00 0. -1.
         21   -1    0    0  501  502 -0.00000000000E+00 -0.00000000000E+00 -0.16120036190E+03  0.16120036190E+03  0.00000000000E+00 0. -1.
         25    1    1    2    0    0 -0.95015280192E+01 -0.15201645373E+03  0.41387954638E+01  0.19708224392E+03  0.12500000000E+03 0.  0.
         25    1    1    2    0    0  0.95015280192E+01  0.15201645373E+03  0.85221533687E+02  0.21467880902E+03  0.12500000000E+03 0.  0.
</event>
<event>
 4    0  0.2193754E-002  0.1905619E+03  0.7546771E-02  0.1157955E+00
         21   -1    0    0  502  501  0.00000000000E+00  0.00000000000E+00  0.45945245585E+02  0.45945245585E+02  0.00000000000E+00 0. -1.
         21   -1    0    0  501  502 -0.00000000000E+00 -0.00000000000E+00 -0.79037219715E+03  0.79037219715E+03  0.00000000000E+00 0. -1.
         25    1    1    2    0    0  0.31369768134E+02 -0.28566175767E+02 -0.67379638120E+03  0.68660516461E+03  0.12500000000E+03 0.  0.
         25    1    1    2    0    0 -0.31369768134E+02  0.28566175767E+02 -0.70630570363E+02  0.14971227812E+03  0.12500000000E+03 0.  0.
</event>
<event>
 4    0  0.2193754E-002  0.4160504E+03  0.7546771E-02  0.1038359E+00
         21   -1    0    0  502  501  0.00000000000E+00  0.00000000000E+00  0.24369983112E+04  0.24369983112E+04  0.00000000000E+00 0.  1.
         21   -1    0    0  501  502 -0.00000000000E+00 -0.00000000000E+00 -0.71029170317E+02  0.71029170317E+02  0.00000000000E+00 0.  1.
         25    1    1    2    0    0 -0.10136843497E+03 -0.27678871124E+03  0.38220348738E+03  0.49859006814E+03  0.12500000000E+03 0.  0.
         25    1    1    2    0    0  0.10136843497E+03  0.27678871124E+03  0.19837656535E+04  0.20094374134E+04  0.12500000000E+03 0.  0.
</event>
<event>
 4    0  0.2193754E-002  0.2408548E+03  0.7546771E-02  0.1119225E+00
         21   -1    0    0  502  501  0.00000000000E+00  0.00000000000E+00  0.27919088786E+03  0.27919088786E+03  0.00000000000E+00 0.  1.
         21   -1    0    0  501  502 -0.00000000000E+00 -0.00000000000E+00 -0.20778264400E+03  0.20778264400E+03  0.00000000000E+00 0.  1.
         25    1    1    2    0    0 -0.18227014204E+02 -0.20390208222E+03  0.57800182659E+02  0.24672686173E+03  0.12500000000E+03 0.  0.
         25    1    1    2    0    0  0.18227014204E+02  0.20390208222E+03  0.13608061203E+02  0.24024667014E+03  0.12500000000E+03 0.  0.
</event>
<event>
 4    0  0.2193754E-002  0.1651912E+03  0.7546771E-02  0.1182957E+00
         21   -1    0    0  502  501  0.00000000000E+00  0.00000000000E+00  0.19461054752E+03  0.19461054752E+03  0.00000000000E+00 0.  1.
         21   -1    0    0  501  502 -0.00000000000E+00 -0.00000000000E+00 -0.14021920487E+03  0.14021920487E+03  0.00000000000E+00 0.  1.
         25    1    1    2    0    0 -0.25676291230E+02  0.13695174952E+02 -0.78205782459E+02  0.15029296111E+03  0.12500000000E+03 0.  0.
         25    1    1    2    0    0  0.25676291230E+02 -0.13695174952E+02  0.13259712512E+03  0.18453679128E+03  0.12500000000E+03 0.  0.
</event>
<event>
 4    0  0.2193754E-002  0.3327006E+03  0.7546771E-02  0.1069948E+00
         21   -1    0    0  502  501  0.00000000000E+00  0.00000000000E+00  0.53216829371E+03  0.53216829371E+03  0.00000000000E+00 0.  1.
         21   -1    0    0  501  502 -0.00000000000E+00 -0.00000000000E+00 -0.20799750670E+03  0.20799750670E+03  0.00000000000E+00 0.  1.
         25    1    1    2    0    0  0.20284654243E+03  0.22233524789E+03  0.23658028408E+03  0.40270946481E+03  0.12500000000E+03 0.  0.
         25    1    1    2    0    0 -0.20284654243E+03 -0.22233524789E+03  0.87590502936E+02  0.33745633560E+03  0.12500000000E+03 0.  0.
</event>
<event>
 4    0  0.2193754E-002  0.1765352E+03  0.7546771E-02  0.1171199E+00
         21   -1    0    0  502  501  0.00000000000E+00  0.00000000000E+00  0.21402283237E+03  0.21402283237E+03  0.00000000000E+00 0. -1.
         21   -1    0    0  501  502 -0.00000000000E+00 -0.00000000000E+00 -0.14561384054E+03  0.14561384054E+03  0.00000000000E+00 0. -1.
         25    1    1    2    0    0 -0.37595123653E+02 -0.51680174002E+01  0.15515446358E+03  0.20282507068E+03  0.12500000000E+03 0.  0.
         25    1    1    2    0    0  0.37595123653E+02  0.51680174002E+01 -0.86745471753E+02  0.15681160224E+03  0.12500000000E+03 0.  0.
</event>
<event>
 4    0  0.2193754E-002  0.1380579E+03  0.7546771E-02  0.1215966E+00
         21   -1    0    0  502  501  0.00000000000E+00  0.00000000000E+00  0.15259674079E+03  0.15259674079E+03  0.00000000000E+00 0. -1.
         21   -1    0    0  501  502 -0.00000000000E+00 -0.00000000000E+00 -0.12490434117E+03  0.12490434117E+03  0.00000000000E+00 0. -1.
         25    1    1    2    0    0  0.21025653609E+01  0.19170904462E+02 -0.41776287374E+02  0.13319985941E+03  0.12500000000E+03 0.  0.
         25    1    1    2    0    0 -0.21025653609E+01 -0.19170904462E+02  0.69468686996E+02  0.14430122256E+03  0.12500000000E+03 0.  0.
</event>
<event>
 4    0  0.2193754E-002  0.2180190E+03  0.7546771E-02  0.1135369E+00
         21   -1    0    0  502  501  0.00000000000E+00  0.00000000000E+00  0.79321290795E+03  0.79321290795E+03  0.00000000000E+00 0. -1.
         21   -1    0    0  501  502 -0.00000000000E+00 -0.00000000000E+00 -0.59923734344E+02  0.59923734344E+02  0.00000000000E+00 0. -1.
         25    1    1    2    0    0 -0.65864572168E+02  0.15439623852E+03  0.24713482897E+03  0.32384713064E+03  0.12500000000E+03 0.  0.
         25    1    1    2    0    0  0.65864572168E+02 -0.15439623852E+03  0.48615434464E+03  0.52928951166E+03  0.12500000000E+03 0.  0.
</event>
<event>
 4    0  0.2193754E-002  0.1999495E+03  0.7546771E-02  0.1149782E+00
         21   -1    0    0  502  501  0.00000000000E+00  0.00000000000E+00  0.78014545723E+03  0.78014545723E+03  0.00000000000E+00 0. -1.
         21   -1    0    0  501  502 -0.00000000000E+00 -0.00000000000E+00 -0.51246601973E+02  0.51246601973E+02  0.00000000000E+00 0. -1.
         25    1    1    2    0    0  0.21397480666E+02 -0.13310279729E+02  0.44257079379E+02  0.13497668243E+03  0.12500000000E+03 0.  0.
         25    1    1    2    0    0 -0.21397480666E+02  0.13310279729E+02  0.68464177588E+03  0.69641537677E+03  0.12500000000E+03 0.  0.
</event>
<event>
 4    0  0.2193754E-002  0.2184176E+03  0.7546771E-02  0.1135068E+00
         21   -1    0    0  502  501  0.00000000000E+00  0.00000000000E+00  0.37527628681E+03  0.37527628681E+03  0.00000000000E+00 0.  1.
         21   -1    0    0  501  502 -0.00000000000E+00 -0.00000000000E+00 -0.12712299546E+03  0.12712299546E+03  0.00000000000E+00 0.  1.
         25    1    1    2    0    0  0.11499936637E+03  0.43121130159E+02 -0.25863184646E+02  0.17713890158E+03  0.12500000000E+03 0.  0.
         25    1    1    2    0    0 -0.11499936637E+03 -0.43121130159E+02  0.27401647600E+03  0.32526038070E+03  0.12500000000E+03 0.  0.
</event>
<event>
 4    0  0.2193754E-002  0.1662489E+03  0.7546771E-02  0.1181817E+00
         21   -1    0    0  502  501  0.00000000000E+00  0.00000000000E+00  0.29772385746E+03  0.29772385746E+03  0.00000000000E+00 0.  1.
         21   -1    0    0  501  502 -0.00000000000E+00 -0.00000000000E+00 -0.92833374200E+02  0.92833374200E+02  0.00000000000E+00 0.  1.
         25    1    1    2    0    0  0.63827311889E+02  0.30248856277E+02  0.20089451432E+03  0.24692615279E+03  0.12500000000E+03 0.  0.
         25    1    1    2    0    0 -0.63827311889E+02 -0.30248856277E+02  0.39959689398E+01  0.14363107887E+03  0.12500000000E+03 0.  0.
</event>
<event>
 4    0  0.2193754E-002  0.2436065E+03  0.7546771E-02  0.1117413E+00
         21   -1    0    0  502  501  0.00000000000E+00  0.00000000000E+00  0.10121631914E+04  0.10121631914E+04  0.00000000000E+00 0. -1.
         21   -1    0    0  501  502 -0.00000000000E+00 -0.00000000000E+00 -0.58630991484E+02  0.58630991484E+02  0.00000000000E+00 0. -1.
         25    1    1    2    0    0  0.15950600110E+03 -0.41227021380E+02  0.19379374174E+03  0.28341285436E+03  0.12500000000E+03 0.  0.
         25    1    1    2    0    0 -0.15950600110E+03  0.41227021380E+02  0.75973845819E+03  0.78738132853E+03  0.12500000000E+03 0.  0.
</event>
<event>
 4    0  0.2193754E-002  0.2776291E+03  0.7546771E-02  0.1096991E+00
         21   -1    0    0  502  501  0.00000000000E+00  0.00000000000E+00  0.48085134253E+02  0.48085134253E+02  0.00000000000E+00 0. -1.
         21   -1    0    0  501  502 -0.00000000000E+00 -0.00000000000E+00 -0.16029471824E+04  0.16029471824E+04  0.00000000000E+00 0. -1.
         25    1    1    2    0    0  0.15356964915E+03  0.85905073095E+02 -0.12966331987E+04  0.13144755496E+04  0.12500000000E+03 0.  0.
         25    1    1    2    0    0 -0.15356964915E+03 -0.85905073095E+02 -0.25822884953E+03  0.33655676706E+03  0.12500000000E+03 0.  0.
</event>
<event>
 4    0  0.2193754E-002  0.1927211E+03  0.7546771E-02  0.1156030E+00
         21   -1    0    0  502  501  0.00000000000E+00  0.00000000000E+00  0.58673554424E+03  0.58673554424E+03  0.00000000000E+00 0. -1.
         21   -1    0    0  501  502 -0.00000000000E+00 -0.00000000000E+00 -0.63301840992E+02  0.63301840992E+02  0.00000000000E+00 0. -1.
         25    1    1    2    0    0  0.82853407071E+02 -0.81146352977E+02  0.41318998264E+03  0.44699035718E+03  0.12500000000E+03 0.  0.
         25    1    1    2    0    0 -0.82853407071E+02  0.81146352977E+02  0.11024372061E+03  0.20304702805E+03  0.12500000000E+03 0.  0.
</event>
<event>
 4    0  0.2193754E-002  0.3643401E+03  0.7546771E-02  0.1056878E+00
         21   -1    0    0  502  501  0.00000000000E+00  0.00000000000E+00  0.35324739301E+03  0.35324739301E+03  0.00000000000E+00 0. -1.
         21   -1    0    0  501  502 -0.00000000000E+00 -0.00000000000E+00 -0.37578108131E+03  0.37578108131E+03  0.00000000000E+00 0. -1.
         25    1    1    2    0    0 -0.33400498722E+03  0.73756033881E+02 -0.33443935427E+00  0.36417632525E+03  0.12500000000E+03 0.  0.
         25    1    1    2    0    0  0.33400498722E+03 -0.73756033881E+02 -0.22199248946E+02  0.36485214906E+03  0.12500000000E+03 0.  0.
</event>
<event>
 4    0  0.2193754E-002  0.2064315E+03  0.7546771E-02  0.1144423E+00
         21   -1    0    0  502  501  0.00000000000E+00  0.00000000000E+00  0.55892198544E+03  0.55892198544E+03  0.00000000000E+00 0. -1.
         21   -1    0    0  501  502 -0.00000000000E+00 -0.00000000000E+00 -0.76243152859E+02  0.76243152859E+02  0.00000000000E+00 0. -1.
         25    1    1    2    0    0 -0.25515238943E+02 -0.89762912703E+02  0.44934522448E+03  0.47565169891E+03  0.12500000000E+03 0.  0.
         25    1    1    2    0    0  0.25515238943E+02  0.89762912703E+02  0.33333608099E+02  0.15951343938E+03  0.12500000000E+03 0.  0.
</event>
<event>
 4    0  0.2193754E-002  0.1970273E+03  0.7546771E-02  0.1152272E+00
         21   -1    0    0  502  501  0.00000000000E+00  0.00000000000E+00  0.48576257110E+03  0.48576257110E+03  0.00000000000E+00 0. -1.
         21   -1    0    0  501  502 -0.00000000000E+00 -0.00000000000E+00 -0.79915088903E+02  0.79915088903E+02  0.00000000000E+00 0. -1.
         25    1    1    2    0    0 -0.10731526202E+03  0.99156144150E+02  0.26460570355E+03  0.32709277695E+03  0.12500000000E+03 0.  0.
         25    1    1    2    0    0  0.10731526202E+03 -0.99156144150E+02  0.14124177865E+03  0.23858488305E+03  0.12500000000E+03 0.  0.
</event>
<event>
 4    0  0.2193754E-002  0.2100134E+03  0.7546771E-02  0.1141555E+00
         21   -1    0    0  502  501  0.00000000000E+00  0.00000000000E+00  0.12899563206E+03  0.12899563206E+03  0.00000000000E+00 0.  1.
         21   -1    0    0  501  502 -0.00000000000E+00 -0.00000000000E+00 -0.34191574643E+03  0.34191574643E+03  0.00000000000E+00 0.  1.
         25    1    1    2    0    0  0.96331008967E+02 -0.76782588887E+02 -0.23578319776E+03  0.29392847020E+03  0.12500000000E+03 0.  0.
         25    1    1    2    0    0 -0.96331008967E+02  0.76782588887E+02  0.22863083400E+02  0.17698290829E+03  0.12500000000E+03 0.  0.
</event>
<event>
 4    0  0.2193754E-002  0.2437041E+03  0.7546771E-02  0.1117350E+00
         21   -1    0    0  502  501  0.00000000000E+00  0.00000000000E+00  0.14460138533E+04  0.14460138533E+04  0.00000000000E+00 0.  1.
         21   -1    0    0  501  502 -0.00000000000E+00 -0.00000000000E+00 -0.41072690268E+02  0.41072690268E+02  0.00000000000E+00 0.  1.
         25    1    1    2    0    0  0.10414333481E+03 -0.12610540535E+03  0.11004871695E+04  0.11195737661E+04  0.12500000000E+03 0.  0.
         25    1    1    2    0    0 -0.10414333481E+03  0.12610540535E+03  0.30445399350E+03  0.36751277747E+03  0.12500000000E+03 0.  0.
</event>
<event>
 4    0  0.2193754E-002  0.3640771E+03  0.7546771E-02  0.1056981E+00
         21   -1    0    0  502  501  0.00000000000E+00  0.00000000000E+00  0.22150849224E+03  0.22150849224E+03  0.00000000000E+00 0. -1.
         21   -1    0    0  501  502 -0.00000000000E+00 -0.00000000000E+00 -0.59840668933E+03  0.59840668933E+03  0.00000000000E+00 0. -1.
         25    1    1    2    0    0  0.21616064523E+03 -0.17700021308E+03  0.33558414330E+02  0.30790528925E+03  0.12500000000E+03 0.  0.
         25    1    1    2    0    0 -0.21616064523E+03  0.17700021308E+03 -0.41045661141E+03  0.51200989232E+03  0.12500000000E+03 0.  0.
</event>
<event>
 4    0  0.2193754E-002  0.3007844E+03  0.7546771E-02  0.1084849E+00
         21   -1    0    0  502  501  0.00000000000E+00  0.00000000000E+00  0.63099034547E+03  0.63099034547E+03  0.00000000000E+00 0.  1.
         21   -1    0    0  501  502 -0.00000000000E+00 -0.00000000000E+00 -0.14337980196E+03  0.14337980196E+03  0.00000000000E+00 0.  1.
         25    1    1    2    0    0  0.26316257959E+03 -0.21844066600E+02  0.33586455303E+03  0.44515357409E+03  0.12500000000E+03 0.  0.
         25    1    1    2    0    0 -0.26316257959E+03  0.21844066600E+02  0.15174599048E+03  0.32921657335E+03  0.12500000000E+03 0.  0.
</event>
<event>
 4    0  0.2193754E-002  0.2643978E+03  0.7546771E-02  0.1104529E+00
         21   -1    0    0  502  501  0.00000000000E+00  0.00000000000E+00  0.21946407190E+03  0.21946407190E+03  0.00000000000E+00 0.  1.
         21   -1    0    0  501  502 -0.00000000000E+00 -0.00000000000E+00 -0.31853150523E+03  0.31853150523E+03  0.00000000000E+00 0.  1.
         25    1    1    2    0    0 -0.59376347149E+02  0.12294209449E+03  0.14253878831E+03  0.23362922628E+03  0.12500000000E+03 0.  0.
         25    1    1    2    0    0  0.59376347149E+02 -0.12294209449E+03 -0.24160622164E+03  0.30436635086E+03  0.12500000000E+03 0.  0.
</event>
<event>
 4    0  0.2193754E-002  0.1476843E+03  0.7546771E-02  0.1203348E+00
         21   -1    0    0  502  501  0.00000000000E+00  0.00000000000E+00  0.55494985510E+03  0.55494985510E+03  0.00000000000E+00 0.  1.
         21   -1    0    0  501  502 -0.00000000000E+00 -0.00000000000E+00 -0.39302027187E+02  0.39302027187E+02  0.00000000000E+00 0.  1.
         25    1    1    2    0    0 -0.65604311267E+02 -0.40009186873E+02  0.22409872134E+03  0.26786171357E+03  0.12500000000E+03 0.  0.
         25    1    1    2    0    0  0.65604311267E+02  0.40009186873E+02  0.29154910657E+03  0.32639016872E+03  0.12500000000E+03 0.  0.
</event>
<event>
 4    0  0.2193754E-002  0.1479499E+03  0.7546771E-02  0.1203015E+00
         21   -1    0    0  502  501  0.00000000000E+00  0.00000000000E+00  0.42273093103E+03  0.42273093103E+03  0.00000000000E+00 0.  1.
         21   -1    0    0  501  502 -0.00000000000E+00 -0.00000000000E+00 -0.51780404226E+02  0.51780404226E+02  0.00000000000E+00 0.  1.
         25    1    1    2    0    0 -0.64268333611E+02 -0.46164437840E+02  0.18806324276E+03  0.23927882753E+03  0.12500000000E+03 0.  0.
         25    1    1    2    0    0  0.64268333611E+02  0.46164437840E+02  0.18288728405E+03  0.23523250773E+03  0.12500000000E+03 0.  0.
</event>
<event>
 4    0  0.2193754E-002  0.3594759E+03  0.7546771E-02  0.1058792E+00
         21   -1    0    0  502  501  0.00000000000E+00  0.00000000000E+00  0.16892952570E+03  0.16892952570E+03  0.00000000000E+00 0. -1.
         21   -1    0    0  501  502 -0.00000000000E+00 -0.00000000000E+00 -0.76495166452E+03  0.76495166452E+03  0.00000000000E+00 0. -1.
         25    1    1    2    0    0  0.84926007102E+02  0.30282582402E+03 -0.14061833042E+03  0.36648931939E+03  0.12500000000E+03 0.  0.
         25    1    1    2    0    0 -0.84926007102E+02 -0.30282582402E+03 -0.45540380840E+03  0.56739187083E+03  0.12500000000E+03 0.  0.
</event>
<event>
 4    0  0.2193754E-002  0.1598037E+03  0.7546771E-02  0.1188919E+00
         21   -1    0    0  502  501  0.00000000000E+00  0.00000000000E+00  0.18141290898E+02  0.18141290898E+02  0.00000000000E+00 0. -1.
         21   -1    0    0  501  502 -0.00000000000E+00 -0.00000000000E+00 -0.14076851819E+04  0.14076851819E+04  0.00000000000E+00 0. -1.
         25    1    1    2    0    0 -0.18524121429E+02 -0.97814677433E+02 -0.68954611186E+03  0.70782038299E+03  0.12500000000E+03 0.  0.
         25    1    1    2    0    0  0.18524121429E+02  0.97814677433E+02 -0.69999777915E+03  0.71800608981E+03  0.12500000000E+03 0.  0.
</event>
<event>
 4    0  0.2193754E-002  0.1940001E+03  0.7546771E-02  0.1154902E+00
         21   -1    0    0  502  501  0.00000000000E+00  0.00000000000E+00  0.34656169832E+03  0.34656169832E+03  0.00000000000E+00 0. -1.
         21   -1    0    0  501  502 -0.00000000000E+00 -0.00000000000E+00 -0.10859836669E+03  0.10859836669E+03  0.00000000000E+00 0. -1.
         25    1    1    2    0    0 -0.12224028381E+03  0.17348600233E+01  0.21758660921E+03  0.27913192084E+03  0.12500000000E+03 0.  0.
         25    1    1    2    0    0  0.12224028381E+03 -0.17348600233E+01  0.20376722425E+02  0.17602814417E+03  0.12500000000E+03 0.  0.
</event>
<event>
 4    0  0.2193754E-002  0.2347442E+03  0.7546771E-02  0.1123344E+00
         21   -1    0    0  502  501  0.00000000000E+00  0.00000000000E+00  0.43984351449E+02  0.43984351449E+02  0.00000000000E+00 0.  1.
         21   -1    0    0  501  502 -0.00000000000E+00 -0.00000000000E+00 -0.12528283588E+04  0.12528283588E+04  0.00000000000E+00 0.  1.
         25    1    1    2    0    0 -0.16530401268E+03  0.32267640587E+02 -0.31323469388E+03  0.37697160461E+03  0.12500000000E+03 0.  0.
         25    1    1    2    0    0  0.16530401268E+03 -0.32267640587E+02 -0.89560931346E+03  0.91984110563E+03  0.12500000000E+03 0.  0.
</event>
<event>
 4    0  0.2193754E-002  0.5628602E+03  0.7546771E-02  0.9985604E-01
         21   -1    0    0  502  501  0.00000000000E+00  0.00000000000E+00  0.99422138162E+03  0.99422138162E+03  0.00000000000E+00 0.  1.
         21   -1    0    0  501  502 -0.00000000000E+00 -0.00000000000E+00 -0.31865303371E+03  0.31865303371E+03  0.00000000000E+00 0. -1.
         25    1    1    2    0    0 -0.38151720075E+03 -0.12045301201E+03 -0.10033324627E+03  0.43099427244E+03  0.12500000000E+03 0.  0.
         25    1    1    2    0    0  0.38151720075E+03  0.12045301201E+03  0.77590159418E+03  0.88188014289E+03  0.12500000000E+03 0.  0.
</event>
<event>
 4    0  0.2193754E-002  0.2494581E+03  0.7546771E-02  0.1113648E+00
         21   -1    0    0  502  501  0.00000000000E+00  0.00000000000E+00  0.13008248141E+04  0.13008248141E+04  0.00000000000E+00 0.  1.
         21   -1    0    0  501  502 -0.00000000000E+00 -0.00000000000E+00 -0.47838371271E+02  0.47838371271E+02  0.00000000000E+00 0.  1.
         25    1    1    2    0    0  0.23921101389E+02 -0.13103105104E+03  0.16724600798E+03  0.24766425381E+03  0.12500000000E+03 0.  0.
         25    1    1    2    0    0 -0.23921101389E+02  0.13103105104E+03  0.10857404349E+04  0.11009989316E+04  0.12500000000E+03 0.  0.
</event>
<event>
 4    0  0.2193754E-002  0.1999320E+03  0.7546771E-02  0.1149796E+00
         21   -1    0    0  502  501  0.00000000000E+00  0.00000000000E+00  0.13323953138E+03  0.13323953138E+03  0.00000000000E+00 0.  1.
         21   -1    0    0  501  502 -0.00000000000E+00 -0.00000000000E+00 -0.30000718335E+03  0.30000718335E+03  0.00000000000E+00 0.  1.
         25    1    1    2    0    0 -0.39658467379E+02 -0.97694358953E+02 -0.20801208536E+03  0.26459593622E+03  0.12500000000E+03 0.  0.
         25    1    1    2    0    0  0.39658467379E+02  0.97694358953E+02  0.41244433399E+02  0.16865077851E+03  0.12500000000E+03 0.  0.
</event>
<event>
 4    0  0.2193754E-002  0.2167623E+03  0.7546771E-02  0.1136320E+00
         21   -1    0    0  502  501  0.00000000000E+00  0.00000000000E+00  0.10094433347E+03  0.10094433347E+03  0.00000000000E+00 0. -1.
         21   -1    0    0  501  502 -0.00000000000E+00 -0.00000000000E+00 -0.46546328073E+03  0.46546328073E+03  0.00000000000E+00 0. -1.
         25    1    1    2    0    0  0.10219876762E+03 -0.88578832208E+02 -0.33162644483E+03  0.37933085365E+03  0.12500000000E+03 0.  0.
         25    1    1    2    0    0 -0.10219876762E+03  0.88578832208E+02 -0.32892502429E+02  0.18707676054E+03  0.12500000000E+03 0.  0.
</event>
<event>
 4    0  0.2193754E-002  0.2050851E+03  0.7546771E-02  0.1145518E+00
         21   -1    0    0  502  501  0.00000000000E+00  0.00000000000E+00  0.10390076220E+03  0.10390076220E+03  0.00000000000E+00 0. -1.
         21   -1    0    0  501  502 -0.00000000000E+00 -0.00000000000E+00 -0.40480847314E+03  0.40480847314E+03  0.00000000000E+00 0. -1.
         25    1    1    2    0    0  0.24833616919E+02  0.13569464223E+03 -0.43727220593E+02  0.19122451276E+03  0.12500000000E+03 0.  0.
         25    1    1    2    0    0 -0.24833616919E+02 -0.13569464223E+03 -0.25718049035E+03  0.31748472258E+03  0.12500000000E+03 0.  0.
</event>
<event>
 4    0  0.2193754E-002  0.2752249E+03  0.7546771E-02  0.1098326E+00
         21   -1    0    0  502  501  0.00000000000E+00  0.00000000000E+00  0.71066675056E+03  0.71066675056E+03  0.00000000000E+00 0.  1.
         21   -1    0    0  501  502 -0.00000000000E+00 -0.00000000000E+00 -0.10658824066E+03  0.10658824066E+03  0.00000000000E+00 0.  1.
         25    1    1    2    0    0  0.20362996506E+03 -0.12541920773E+03  0.22169249635E+03  0.34923874824E+03  0.12500000000E+03 0.  0.
         25    1    1    2    0    0 -0.20362996506E+03  0.12541920773E+03  0.38238601354E+03  0.46801624298E+03  0.12500000000E+03 0.  0.
</event>
<event>
 4    0  0.2193754E-002  0.2238865E+03  0.7546771E-02  0.1131018E+00
         21   -1    0    0  502  501  0.00000000000E+00  0.00000000000E+00  0.30534988122E+03  0.30534988122E+03  0.00000000000E+00 0.  1.
         21   -1    0    0  501  502 -0.00000000000E+00 -0.00000000000E+00 -0.16415650513E+03  0.16415650513E+03  0.00000000000E+00 0.  1.
         25    1    1    2    0    0  0.54273490592E+02 -0.15915527774E+03  0.15331921377E+03  0.25963011290E+03  0.12500000000E+03 0.  0.
         25    1    1    2    0    0 -0.54273490592E+02  0.15915527774E+03 -0.12125837681E+02  0.20987627344E+03  0.12500000000E+03 0.  0.
</event>
<event>
 4    0  0.2193754E-002  0.1805568E+03  0.7546771E-02  0.1167265E+00
         21   -1    0    0  502  501  0.00000000000E+00  0.00000000000E+00  0.81069167191E+02  0.81069167191E+02  0.00000000000E+00 0. -1.
         21   -1    0    0  501  502 -0.00000000000E+00 -0.00000000000E+00 -0.40213532107E+03  0.40213532107E+03  0.00000000000E+00 0. -1.
         25    1    1    2    0    0 -0.72412996983E+02  0.56814616542E+02 -0.28393006742E+03  0.32359361237E+03  0.12500000000E+03 0.  0.
         25    1    1    2    0    0  0.72412996983E+02 -0.56814616542E+02 -0.37136086465E+02  0.15961087589E+03  0.12500000000E+03 0.  0.
</event>
<event>
 4    0  0.2193754E-002  0.3414469E+03  0.7546771E-02  0.1066181E+00
         21   -1    0    0  502  501  0.00000000000E+00  0.00000000000E+00  0.12648744031E+04  0.12648744031E+04  0.00000000000E+00 0.  1.
         21   -1    0    0  501  502 -0.00000000000E+00 -0.00000000000E+00 -0.92171971742E+02  0.92171971742E+02  0.00000000000E+00 0.  1.
         25    1    1    2    0    0  0.25784205019E+03  0.14481376054E+03  0.81730641790E+03  0.87810496458E+03  0.12500000000E+03 0.  0.
         25    1    1    2    0    0 -0.25784205019E+03 -0.14481376054E+03  0.35539601349E+03  0.47894141029E+03  0.12500000000E+03 0.  0.
</event>
<event>
 4    0  0.2193754E-002  0.3066406E+03  0.7546771E-02  0.1081967E+00
         21   -1    0    0  502  501  0.00000000000E+00  0.00000000000E+00  0.40008727757E+03  0.40008727757E+03  0.00000000000E+00 0.  1.
         21   -1    0    0  501  502 -0.00000000000E+00 -0.00000000000E+00 -0.23501991743E+03  0.23501991743E+03  0.00000000000E+00 0.  1.
         25    1    1    2    0    0  0.16611745671E+03  0.22540041417E+03  0.84363716940E+02  0.31802923273E+03  0.12500000000E+03 0.  0.
         25    1    1    2    0    0 -0.16611745671E+03 -0.22540041417E+03  0.80703643197E+02  0.31707796227E+03  0.12500000000E+03 0.  0.
</event>
<event>
 4    0  0.2193754E-002  0.1875912E+03  0.7546771E-02  0.1160652E+00
         21   -1    0    0  502  501  0.00000000000E+00  0.00000000000E+00  0.74994184334E+02  0.74994184334E+02  0.00000000000E+00 0.  1.
         21   -1    0    0  501  502 -0.00000000000E+00 -0.00000000000E+00 -0.46924226411E+03  0.46924226411E+03  0.00000000000E+00 0.  1.
         25    1    1    2    0    0 -0.62997457439E+02 -0.91199409865E+02 -0.32088792305E+03  0.36177350810E+03  0.12500000000E+03 0.  0.
         25    1    1    2    0    0  0.62997457439E+02  0.91199409865E+02 -0.73360156723E+02  0.18246294034E+03  0.12500000000E+03 0.  0.
</event>
<event>
 4    0  0.2193754E-002  0.4078144E+03  0.7546771E-02  0.1041107E+00
         21   -1    0    0  502  501  0.00000000000E+00  0.00000000000E+00  0.24853283617E+04  0.24853283617E+04  0.00000000000E+00 0.  1.
         21   -1    0    0  501  502 -0.00000000000E+00 -0.00000000000E+00 -0.66917760372E+02  0.66917760372E+02  0.00000000000E+00 0. -1.
         25    1    1    2    0    0  0.31919697771E+03  0.32698704779E+01  0.19003934641E+04  0.19310664725E+04  0.12500000000E+03 0.  0.
         25    1    1    2    0    0 -0.31919697771E+03 -0.32698704779E+01  0.51801713717E+03  0.62117964956E+03  0.12500000000E+03 0.  0.
</event>
<event>
 4    0  0.2193754E-002  0.1969442E+03  0.7546771E-02  0.1152343E+00
         21   -1    0    0  502  501  0.00000000000E+00  0.00000000000E+00  0.13868518573E+04  0.13868518573E+04  0.00000000000E+00 0.  1.
         21   -1    0    0  501  502 -0.00000000000E+00 -0.00000000000E+00 -0.27967670525E+02  0.27967670525E+02  0.00000000000E+00 0.  1.
         25    1    1    2    0    0 -0.13828110818E+02  0.83788454681E+02  0.22580118358E+03  0.27170369208E+03  0.12500000000E+03 0.  0.
         25    1    1    2    0    0  0.13828110818E+02 -0.83788454681E+02  0.11330830032E+04  0.11431158357E+04  0.12500000000E+03 0.  0.
</event>
<event>
 4    0  0.2193754E-002  0.5002001E+03  0.7546771E-02  0.1013727E+00
         21   -1    0    0  502  501  0.00000000000E+00  0.00000000000E+00  0.21364730104E+03  0.21364730104E+03  0.00000000000E+00 0. -1.
         21   -1    0    0  501  502 -0.00000000000E+00 -0.00000000000E+00 -0.11710894646E+04  0.11710894646E+04  0.00000000000E+00 0. -1.
         25    1    1    2    0    0  0.14249453587E+03 -0.10167575467E+03 -0.11038025954E+04  0.11245656145E+04  0.12500000000E+03 0.  0.
         25    1    1    2    0    0 -0.14249453587E+03  0.10167575467E+03  0.14636043185E+03  0.26017115107E+03  0.12500000000E+03 0.  0.
</event>
<event>
 4    0  0.2193754E-002  0.2921887E+03  0.7546771E-02  0.1089212E+00
         21   -1    0    0  502  501  0.00000000000E+00  0.00000000000E+00  0.89989781056E+02  0.89989781056E+02  0.00000000000E+00 0. -1.
         21   -1    0    0  501  502 -0.00000000000E+00 -0.00000000000E+00 -0.94871051661E+03  0.94871051661E+03  0.00000000000E+00 0. -1.
         25    1    1    2    0    0  0.15262269947E+03  0.19738903758E+03 -0.27549939581E+03  0.39214925429E+03  0.12500000000E+03 0.  0.
         25    1    1    2    0    0 -0.15262269947E+03 -0.19738903758E+03 -0.58322133975E+03  0.64655104338E+03  0.12500000000E+03 0.  0.
</event>
<event>
 4    0  0.2193754E-002  0.2009998E+03  0.7546771E-02  0.1148898E+00
         21   -1    0    0  502  501  0.00000000000E+00  0.00000000000E+00  0.13060386869E+03  0.13060386869E+03  0.00000000000E+00 0.  1.
         21   -1    0    0  501  502 -0.00000000000E+00 -0.00000000000E+00 -0.30933924032E+03  0.30933924032E+03  0.00000000000E+00 0.  1.
         25    1    1    2    0    0 -0.91715903837E+02 -0.52103639044E+02 -0.21722520389E+03  0.27191613675E+03  0.12500000000E+03 0.  0.
         25    1    1    2    0    0  0.91715903837E+02  0.52103639044E+02  0.38489832266E+02  0.16802697226E+03  0.12500000000E+03 0.  0.
</event>
<event>
 4    0  0.2193754E-002  0.3690503E+03  0.7546771E-02  0.1055057E+00
         21   -1    0    0  502  501  0.00000000000E+00  0.00000000000E+00  0.15770856313E+03  0.15770856313E+03  0.00000000000E+00 0. -1.
         21   -1    0    0  501  502 -0.00000000000E+00 -0.00000000000E+00 -0.86360651313E+03  0.86360651313E+03  0.00000000000E+00 0. -1.
         25    1    1    2    0    0  0.25461166792E+02  0.34619749278E+03 -0.34119420024E+03  0.50253304100E+03  0.12500000000E+03 0.  0.
         25    1    1    2    0    0 -0.25461166792E+02 -0.34619749278E+03 -0.36470374975E+03  0.51878203526E+03  0.12500000000E+03 0.  0.
</event>
<event>
 4    0  0.2193754E-002  0.1828264E+03  0.7546771E-02  0.1165095E+00
         21   -1    0    0  502  501  0.00000000000E+00  0.00000000000E+00  0.20269359755E+02  0.20269359755E+02  0.00000000000E+00 0.  1.
         21   -1    0    0  501  502 -0.00000000000E+00 -0.00000000000E+00 -0.16490647409E+04  0.16490647409E+04  0.00000000000E+00 0.  1.
         25    1    1    2    0    0 -0.97045064161E+01  0.11170467991E+03 -0.11445069489E+04  0.11567598147E+04  0.12500000000E+03 0.  0.
         25    1    1    2    0    0  0.97045064161E+01 -0.11170467991E+03 -0.48428843226E+03  0.51257428591E+03  0.12500000000E+03 0.  0.
</event>
<event>
 4    0  0.2193754E-002  0.2046299E+03  0.7546771E-02  0.1145891E+00
         21   -1    0    0  502  501  0.00000000000E+00  0.00000000000E+00  0.38567016433E+02  0.38567016433E+02  0.00000000000E+00 0.  1.
         21   -1    0    0  501  502 -0.00000000000E+00 -0.00000000000E+00 -0.10857305721E+04  0.10857305721E+04  0.00000000000E+00 0.  1.
         25    1    1    2    0    0 -0.67657052454E+02  0.34638816081E+02 -0.13052757738E+03  0.19606063547E+03  0.12500000000E+03 0.  0.
         25    1    1    2    0    0  0.67657052454E+02 -0.34638816081E+02 -0.91663597824E+03  0.92823695301E+03  0.12500000000E+03 0.  0.
</event>
<event>
 4    0  0.2193754E-002  0.2168759E+03  0.7546771E-02  0.1136234E+00
         21   -1    0    0  502  501  0.00000000000E+00  0.00000000000E+00  0.48568490494E+02  0.48568490494E+02  0.00000000000E+00 0.  1.
         21   -1    0    0  501  502 -0.00000000000E+00 -0.00000000000E+00 -0.96842938665E+03  0.96842938665E+03  0.00000000000E+00 0.  1.
         25    1    1    2    0    0 -0.17393287981E+03 -0.52325264093E+01 -0.38110935024E+03  0.43720631611E+03  0.12500000000E+03 0.  0.
         25    1    1    2    0    0  0.17393287981E+03  0.52325264093E+01 -0.53875154592E+03  0.57979156103E+03  0.12500000000E+03 0.  0.
</event>
<event>
 4    0  0.2193754E-002  0.1923096E+03  0.7546771E-02  0.1156395E+00
         21   -1    0    0  502  501  0.00000000000E+00  0.00000000000E+00  0.10461169065E+04  0.10461169065E+04  0.00000000000E+00 0.  1.
         21   -1    0    0  501  502 -0.00000000000E+00 -0.00000000000E+00 -0.35352614095E+02  0.35352614095E+02  0.00000000000E+00 0.  1.
         25    1    1    2    0    0 -0.40633529999E+02  0.14036577050E+03  0.51123581535E+03  0.54620572331E+03  0.12500000000E+03 0.  0.
         25    1    1    2    0    0  0.40633529999E+02 -0.14036577050E+03  0.49952847706E+03  0.53526379728E+03  0.12500000000E+03 0.  0.
</event>
<event>
 4    0  0.2193754E-002  0.3382310E+03  0.7546771E-02  0.1067552E+00
         21   -1    0    0  502  501  0.00000000000E+00  0.00000000000E+00  0.35751857005E+02  0.35751857005E+02  0.00000000000E+00 0. -1.
         21   -1    0    0  501  502 -0.00000000000E+00 -0.00000000000E+00 -0.31998404426E+04  0.31998404426E+04  0.00000000000E+00 0. -1.
         25    1    1    2    0    0  0.29163212978E+03  0.11611775740E+03 -0.15075435809E+04  0.15449418375E+04  0.12500000000E+03 0.  0.
         25    1    1    2    0    0 -0.29163212978E+03 -0.11611775740E+03 -0.16565450047E+04  0.16906504621E+04  0.12500000000E+03 0.  0.
</event>
<event>
 4    0  0.2193754E-002  0.3848606E+03  0.7546771E-02  0.1049152E+00
         21   -1    0    0  502  501  0.00000000000E+00  0.00000000000E+00  0.10445754435E+03  0.10445754435E+03  0.00000000000E+00 0. -1.
         21   -1    0    0  501  502 -0.00000000000E+00 -0.00000000000E+00 -0.14179703029E+04  0.14179703029E+04  0.00000000000E+00 0. -1.
         25    1    1    2    0    0  0.16346504481E+03 -0.20705779290E+02 -0.14798710662E+02  0.20734886546E+03  0.12500000000E+03 0.  0.
         25    1    1    2    0    0 -0.16346504481E+03  0.20705779290E+02 -0.12987140479E+04  0.13150789818E+04  0.12500000000E+03 0.  0.
</event>
<event>
 4    0  0.2193754E-002  0.2048931E+03  0.7546771E-02  0.1145675E+00
         21   -1    0    0  502  501  0.00000000000E+00  0.00000000000E+00  0.74745079203E+03  0.74745079203E+03  0.00000000000E+00 0. -1.
         21   -1    0    0  501  502 -0.00000000000E+00 -0.00000000000E+00 -0.56165805046E+02  0.56165805046E+02  0.00000000000E+00 0. -1.
         25    1    1    2    0    0  0.80929435763E+02  0.33785069133E+02  0.77720977963E+02  0.17133754663E+03  0.12500000000E+03 0.  0.
         25    1    1    2    0    0 -0.80929435763E+02 -0.33785069133E+02  0.61356400902E+03  0.63227905044E+03  0.12500000000E+03 0.  0.
</event>
<event>
 4    0  0.2193754E-002  0.2192569E+03  0.7546771E-02  0.1134438E+00
         21   -1    0    0  502  501  0.00000000000E+00  0.00000000000E+00  0.20092786313E+03  0.20092786313E+03  0.00000000000E+00 0.  1.
         21   -1    0    0  501  502 -0.00000000000E+00 -0.00000000000E+00 -0.23925787767E+03  0.23925787767E+03  0.00000000000E+00 0.  1.
         25    1    1    2    0    0  0.71159959637E+02 -0.14521035949E+03  0.60502492243E+02  0.21315567064E+03  0.12500000000E+03 0.  0.
         25    1    1    2    0    0 -0.71159959637E+02  0.14521035949E+03 -0.98832506776E+02  0.22703007016E+03  0.12500000000E+03 0.  0.
</event>
<event>
 4    0  0.2193754E-002  0.1531378E+03  0.7546771E-02  0.1196670E+00
         21   -1    0    0  502  501  0.00000000000E+00  0.00000000000E+00  0.25016007620E+03  0.25016007620E+03  0.00000000000E+00 0.  1.
         21   -1    0    0  501  502 -0.00000000000E+00 -0.00000000000E+00 -0.93744675821E+02  0.93744675821E+02  0.00000000000E+00 0.  1.
         25    1    1    2    0    0 -0.18806643396E+02  0.63288044922E+02  0.14432416270E+03  0.20202358874E+03  0.12500000000E+03 0.  0.
         25    1    1    2    0    0  0.18806643396E+02 -0.63288044922E+02  0.12091237674E+02  0.14188116328E+03  0.12500000000E+03 0.  0.
</event>
<event>
 4    0  0.2193754E-002  0.1874901E+03  0.7546771E-02  0.1160745E+00
         21   -1    0    0  502  501  0.00000000000E+00  0.00000000000E+00  0.14562910357E+04  0.14562910357E+04  0.00000000000E+00 0. -1.
         21   -1    0    0  501  502 -0.00000000000E+00 -0.00000000000E+00 -0.24138404853E+02  0.24138404853E+02  0.00000000000E+00 0. -1.
         25    1    1    2    0    0 -0.62694866485E+02 -0.85975357030E+02  0.35845599099E+03  0.39425639598E+03  0.12500000000E+03 0.  0.
         25    1    1    2    0    0  0.62694866485E+02  0.85975357030E+02  0.10736966398E+04  0.10861730445E+04  0.12500000000E+03 0.  0.
</event>
<event>
 4    0  0.2193754E-002  0.2278055E+03  0.7546771E-02  0.1128194E+00
         21   -1    0    0  502  501  0.00000000000E+00  0.00000000000E+00  0.83583709738E+03  0.83583709738E+03  0.00000000000E+00 0.  1.
         21   -1    0    0  501  502 -0.00000000000E+00 -0.00000000000E+00 -0.62087855025E+02  0.62087855025E+02  0.00000000000E+00 0.  1.
         25    1    1    2    0    0  0.14347088390E+03 -0.12169249329E+03  0.32849805547E+03  0.39865891423E+03  0.12500000000E+03 0.  0.
         25    1    1    2    0    0 -0.14347088390E+03  0.12169249329E+03  0.44525118688E+03  0.49926603817E+03  0.12500000000E+03 0.  0.
</event>
<event>
 4    0  0.2193754E-002  0.1960063E+03  0.7546771E-02  0.1153153E+00
         21   -1    0    0  502  501  0.00000000000E+00  0.00000000000E+00  0.88571596528E+02  0.88571596528E+02  0.00000000000E+00 0.  1.
         21   -1    0    0  501  502 -0.00000000000E+00 -0.00000000000E+00 -0.43375607824E+03  0.43375607824E+03  0.00000000000E+00 0.  1.
         25    1    1    2    0    0 -0.63938158152E+02 -0.48962371557E+02 -0.34274706018E+03  0.37361203027E+03  0.12500000000E+03 0.  0.
         25    1    1    2    0    0  0.63938158152E+02  0.48962371557E+02 -0.24374215320E+01  0.14871564450E+03  0.12500000000E+03 0.  0.
</event>
<event>
 4    0  0.2193754E-002  0.1895557E+03  0.7546771E-02  0.1158863E+00
         21   -1    0    0  502  501  0.00000000000E+00  0.00000000000E+00  0.53993094301E+03  0.53993094301E+03  0.00000000000E+00 0.  1.
         21   -1    0    0  501  502 -0.00000000000E+00 -0.00000000000E+00 -0.66548068232E+02  0.66548068232E+02  0.00000000000E+00 0.  1.
         25    1    1    2    0    0 -0.47521194227E+02  0.48986791118E+02  0.43680835185E+03  0.45943933859E+03  0.12500000000E+03 0.  0.
         25    1    1    2    0    0  0.47521194227E+02 -0.48986791118E+02  0.36574522931E+02  0.14703967265E+03  0.12500000000E+03 0.  0.
</event>
<event>
 4    0  0.2193754E-002  0.4510070E+03  0.7546771E-02  0.1027422E+00
         21   -1    0    0  502  501  0.00000000000E+00  0.00000000000E+00  0.55308280581E+03  0.55308280581E+03  0.00000000000E+00 0.  1.
         21   -1    0    0  501  502 -0.00000000000E+00 -0.00000000000E+00 -0.36777006744E+03  0.36777006744E+03  0.00000000000E+00 0.  1.
         25    1    1    2    0    0  0.24567964587E+03  0.35134510668E+03  0.15706467749E+03  0.47338798601E+03  0.12500000000E+03 0.  0.
         25    1    1    2    0    0 -0.24567964587E+03 -0.35134510668E+03  0.28248060876E+02  0.44746488725E+03  0.12500000000E+03 0.  0.
</event>
<event>
 4    0  0.2193754E-002  0.1719440E+03  0.7546771E-02  0.1175836E+00
         21   -1    0    0  502  501  0.00000000000E+00  0.00000000000E+00  0.15713953013E+03  0.15713953013E+03  0.00000000000E+00 0.  1.
         21   -1    0    0  501  502 -0.00000000000E+00 -0.00000000000E+00 -0.18814320559E+03  0.18814320559E+03  0.00000000000E+00 0.  1.
         25    1    1    2    0    0 -0.90865328885E+02 -0.62616893531E+02 -0.57652475398E+02  0.17642616379E+03  0.12500000000E+03 0.  0.
         25    1    1    2    0    0  0.90865328885E+02  0.62616893531E+02  0.26648799938E+02  0.16885657194E+03  0.12500000000E+03 0.  0.
</event>
<event>
 4    0  0.2333544E-002  0.2019781E+03  0.7546771E-02  0.1148081E+00
         21   -1    0    0  502  501  0.00000000000E+00  0.00000000000E+00  0.12496873254E+03  0.12496873254E+03  0.00000000000E+00 0. -1.
         21   -1    0    0  501  502 -0.00000000000E+00 -0.00000000000E+00 -0.32644283921E+03  0.32644283921E+03  0.00000000000E+00 0. -1.
         25    1    1    2    0    0 -0.12982950633E+02 -0.73347678011E+01  0.75766923083E+02  0.14692849437E+03  0.12500000000E+03 0.  0.
         25    1    1    2    0    0  0.12982950633E+02  0.73347678011E+01 -0.27724102976E+03  0.30448307737E+03  0.12500000000E+03 0.  0.
</event>
<event>
 4    0  0.2193754E-002  0.2748156E+03  0.7546771E-02  0.1098555E+00
         21   -1    0    0  502  501  0.00000000000E+00  0.00000000000E+00  0.92696751220E+03  0.92696751220E+03  0.00000000000E+00 0. -1.
         21   -1    0    0  501  502 -0.00000000000E+00 -0.00000000000E+00 -0.81473842589E+02  0.81473842589E+02  0.00000000000E+00 0. -1.
         25    1    1    2    0    0 -0.12817889702E+03  0.19311815798E+03  0.27857913335E+03  0.38334812654E+03  0.12500000000E+03 0.  0.
         25    1    1    2    0    0  0.12817889702E+03 -0.19311815798E+03  0.56691453626E+03  0.62509322825E+03  0.12500000000E+03 0.  0.
</event>
<event>
 4    0  0.2193754E-002  0.4472668E+03  0.7546771E-02  0.1028540E+00
         21   -1    0    0  502  501  0.00000000000E+00  0.00000000000E+00  0.98874286575E+03  0.98874286575E+03  0.00000000000E+00 0. -1.
         21   -1    0    0  501  502 -0.00000000000E+00 -0.00000000000E+00 -0.20232516175E+03  0.20232516175E+03  0.00000000000E+00 0. -1.
         25    1    1    2    0    0  0.21346151409E+03  0.15819403631E+03 -0.56023432224E+02  0.29892272593E+03  0.12500000000E+03 0.  0.
         25    1    1    2    0    0 -0.21346151409E+03 -0.15819403631E+03  0.84244113621E+03  0.89214530157E+03  0.12500000000E+03 0.  0.
</event>
<event>
 4    0  0.2193754E-002  0.2162124E+03  0.7546771E-02  0.1136739E+00
         21   -1    0    0  502  501  0.00000000000E+00  0.00000000000E+00  0.28659548886E+03  0.28659548886E+03  0.00000000000E+00 0.  1.
         21   -1    0    0  501  502 -0.00000000000E+00 -0.00000000000E+00 -0.16311428106E+03  0.16311428106E+03  0.00000000000E+00 0.  1.
         25    1    1    2    0    0  0.51513209191E+02 -0.97827086156E+02  0.20470959360E+03  0.26411127810E+03  0.12500000000E+03 0.  0.
         25    1    1    2    0    0 -0.51513209191E+02  0.97827086156E+02 -0.81228385807E+02  0.18559849182E+03  0.12500000000E+03 0.  0.
</event>
<event>
 4    0  0.2193754E-002  0.3907580E+03  0.7546771E-02  0.1047028E+00
         21   -1    0    0  502  501  0.00000000000E+00  0.00000000000E+00  0.14474918249E+04  0.14474918249E+04  0.00000000000E+00 0. -1.
         21   -1    0    0  501  502 -0.00000000000E+00 -0.00000000000E+00 -0.10548717086E+03  0.10548717086E+03  0.00000000000E+00 0. -1.
         25    1    1    2    0    0 -0.65865990475E+02  0.11073978909E+03 -0.18694908332E+02  0.18048858464E+03  0.12500000000E+03 0.  0.
         25    1    1    2    0    0  0.65865990475E+02 -0.11073978909E+03  0.13606995624E+04  0.13724904111E+04  0.12500000000E+03 0.  0.
</event>
<event>
 4    0  0.2193754E-002  0.2941113E+03  0.7546771E-02  0.1088222E+00
         21   -1    0    0  502  501  0.00000000000E+00  0.00000000000E+00  0.16462209288E+03  0.16462209288E+03  0.00000000000E+00 0. -1.
         21   -1    0    0  501  502 -0.00000000000E+00 -0.00000000000E+00 -0.52545469479E+03  0.52545469479E+03  0.00000000000E+00 0. -1.
         25    1    1    2    0    0  0.25783596908E+03  0.63445617677E+02 -0.20303474093E+03  0.35686529585E+03  0.12500000000E+03 0.  0.
         25    1    1    2    0    0 -0.25783596908E+03 -0.63445617677E+02 -0.15779786097E+03  0.33321149182E+03  0.12500000000E+03 0.  0.
</event>
<event>
 4    0  0.2193754E-002  0.1579826E+03  0.7546771E-02  0.1190993E+00
         21   -1    0    0  502  501  0.00000000000E+00  0.00000000000E+00  0.30263540950E+04  0.30263540950E+04  0.00000000000E+00 0. -1.
         21   -1    0    0  501  502 -0.00000000000E+00 -0.00000000000E+00 -0.82470512878E+01  0.82470512878E+01  0.00000000000E+00 0. -1.
         25    1    1    2    0    0 -0.38062059082E+02  0.77656941151E+02  0.10954940709E+04  0.11059889602E+04  0.12500000000E+03 0.  0.
         25    1    1    2    0    0  0.38062059082E+02 -0.77656941151E+02  0.19226129729E+04  0.19286121861E+04  0.12500000000E+03 0.  0.
</event>
<event>
 4    0  0.2193754E-002  0.2836767E+03  0.7546771E-02  0.1093698E+00
         21   -1    0    0  502  501  0.00000000000E+00  0.00000000000E+00  0.16647376609E+04  0.16647376609E+04  0.00000000000E+00 0.  1.
         21   -1    0    0  501  502 -0.00000000000E+00 -0.00000000000E+00 -0.48339425178E+02  0.48339425178E+02  0.00000000000E+00 0.  1.
         25    1    1    2    0    0 -0.23021869743E+03 -0.49398088412E+02  0.51535225844E+03  0.58021872606E+03  0.12500000000E+03 0.  0.
         25    1    1    2    0    0  0.23021869743E+03  0.49398088412E+02  0.11010459773E+04  0.11328583600E+04  0.12500000000E+03 0.  0.
</event>
<event>
 4    0  0.2193754E-002  0.1968137E+03  0.7546771E-02  0.1152455E+00
         21   -1    0    0  502  501  0.00000000000E+00  0.00000000000E+00  0.13795690849E+04  0.13795690849E+04  0.00000000000E+00 0. -1.
         21   -1    0    0  501  502 -0.00000000000E+00 -0.00000000000E+00 -0.28078062673E+02  0.28078062673E+02  0.00000000000E+00 0. -1.
         25    1    1    2    0    0 -0.39459898708E+02 -0.55837630453E+01  0.15111504043E+03  0.20012250613E+03  0.12500000000E+03 0.  0.
         25    1    1    2    0    0  0.39459898708E+02  0.55837630453E+01  0.12003759818E+04  0.12075246415E+04  0.12500000000E+03 0.  0.
</event>
<event>
 4    0  0.2193754E-002  0.2187583E+03  0.7546771E-02  0.1134812E+00
         21   -1    0    0  502  501  0.00000000000E+00  0.00000000000E+00  0.62935755694E+03  0.62935755694E+03  0.00000000000E+00 0. -1.
         21   -1    0    0  501  502 -0.00000000000E+00 -0.00000000000E+00 -0.76038195529E+02  0.76038195529E+02  0.00000000000E+00 0. -1.
         25    1    1    2    0    0  0.76992382311E+02  0.11946920486E+03  0.99827249380E+02  0.21398877906E+03  0.12500000000E+03 0.  0.
         25    1    1    2    0    0 -0.76992382311E+02 -0.11946920486E+03  0.45349211203E+03  0.49140697341E+03  0.12500000000E+03 0.  0.
</event>
<event>
 4    0  0.2193754E-002  0.2002812E+03  0.7546771E-02  0.1149502E+00
         21   -1    0    0  502  501  0.00000000000E+00  0.00000000000E+00  0.92054336328E+03  0.92054336328E+03  0.00000000000E+00 0.  1.
         21   -1    0    0  501  502 -0.00000000000E+00 -0.00000000000E+00 -0.43574858293E+02  0.43574858293E+02  0.00000000000E+00 0.  1.
         25    1    1    2    0    0  0.13385617162E+03 -0.18348440156E+02  0.62851457642E+03  0.65491198852E+03  0.12500000000E+03 0.  0.
         25    1    1    2    0    0 -0.13385617162E+03  0.18348440156E+02  0.24845392857E+03  0.30920623305E+03  0.12500000000E+03 0.  0.
</event>
<event>
 4    0  0.2193754E-002  0.2743086E+03  0.7546771E-02  0.1098839E+00
         21   -1    0    0  502  501  0.00000000000E+00  0.00000000000E+00  0.41305128801E+02  0.41305128801E+02  0.00000000000E+00 0. -1.
         21   -1    0    0  501  502 -0.00000000000E+00 -0.00000000000E+00 -0.18216913745E+04  0.18216913745E+04  0.00000000000E+00 0. -1.
         25    1    1    2    0    0 -0.17464221408E+03 -0.13832299751E+03 -0.55083277453E+03  0.60718605063E+03  0.12500000000E+03 0.  0.
         25    1    1    2    0    0  0.17464221408E+03  0.13832299751E+03 -0.12295534712E+04  0.12558104527E+04  0.12500000000E+03 0.  0.
</event>
<event>
 4    0  0.2193754E-002  0.2742483E+03  0.7546771E-02  0.1098873E+00
         21   -1    0    0  502  501  0.00000000000E+00  0.00000000000E+00  0.48087972190E+03  0.48087972190E+03  0.00000000000E+00 0.  1.
         21   -1    0    0  501  502 -0.00000000000E+00 -0.00000000000E+00 -0.15640523164E+03  0.15640523164E+03  0.00000000000E+00 0.  1.
         25    1    1    2    0    0 -0.27251388364E+02  0.19801811190E+03 -0.56349639269E+00  0.23575226051E+03  0.12500000000E+03 0.  0.
         25    1    1    2    0    0  0.27251388364E+02 -0.19801811190E+03  0.32503798665E+03  0.40153269303E+03  0.12500000000E+03 0.  0.
</event>
<event>
 4    0  0.2193754E-002  0.2017313E+03  0.7546771E-02  0.1148286E+00
         21   -1    0    0  502  501  0.00000000000E+00  0.00000000000E+00  0.10416421696E+03  0.10416421696E+03  0.00000000000E+00 0.  1.
         21   -1    0    0  501  502 -0.00000000000E+00 -0.00000000000E+00 -0.39068628335E+03  0.39068628335E+03  0.00000000000E+00 0.  1.
         25    1    1    2    0    0  0.10115392402E+03 -0.39730707239E+02 -0.20266154975E+01  0.16564948721E+03  0.12500000000E+03 0.  0.
         25    1    1    2    0    0 -0.10115392402E+03  0.39730707239E+02 -0.28449545090E+03  0.32920101310E+03  0.12500000000E+03 0.  0.
</event>
<event>
 4    0  0.2193754E-002  0.2566013E+03  0.7546771E-02  0.1109203E+00
         21   -1    0    0  502  501  0.00000000000E+00  0.00000000000E+00  0.10565727397E+03  0.10565727397E+03  0.00000000000E+00 0. -1.
         21   -1    0    0  501  502 -0.00000000000E+00 -0.00000000000E+00 -0.62318665971E+03  0.62318665971E+03  0.00000000000E+00 0. -1.
         25    1    1    2    0    0 -0.18392085082E+02  0.14456334621E+03 -0.50054044868E+03  0.53609940368E+03  0.12500000000E+03 0.  0.
         25    1    1    2    0    0  0.18392085082E+02 -0.14456334621E+03 -0.16988937062E+02  0.19274453000E+03  0.12500000000E+03 0.  0.
</event>
<event>
 4    0  0.2193754E-002  0.2928153E+03  0.7546771E-02  0.1088888E+00
         21   -1    0    0  502  501  0.00000000000E+00  0.00000000000E+00  0.11743176842E+03  0.11743176842E+03  0.00000000000E+00 0. -1.
         21   -1    0    0  501  502 -0.00000000000E+00 -0.00000000000E+00 -0.73013271674E+03  0.73013271674E+03  0.00000000000E+00 0. -1.
         25    1    1    2    0    0  0.14009026741E+03  0.22219011004E+03 -0.25787134784E+03  0.38873687767E+03  0.12500000000E+03 0.  0.
         25    1    1    2    0    0 -0.14009026741E+03 -0.22219011004E+03 -0.35482960048E+03  0.45882760749E+03  0.12500000000E+03 0.  0.
</event>
<event>
 4    0  0.2193754E-002  0.2197104E+03  0.7546771E-02  0.1134099E+00
         21   -1    0    0  502  501  0.00000000000E+00  0.00000000000E+00  0.32157100384E+02  0.32157100384E+02  0.00000000000E+00 0.  1.
         21   -1    0    0  501  502 -0.00000000000E+00 -0.00000000000E+00 -0.15011508715E+04  0.15011508715E+04  0.00000000000E+00 0.  1.
         25    1    1    2    0    0  0.71066611517E+02  0.13225361181E+03 -0.10852828925E+04  0.11027263659E+04  0.12500000000E+03 0.  0.
         25    1    1    2    0    0 -0.71066611517E+02 -0.13225361181E+03 -0.38371087854E+03  0.43058160599E+03  0.12500000000E+03 0.  0.
</event>
<event>
 4    0  0.2193754E-002  0.3741535E+03  0.7546771E-02  0.1053116E+00
         21   -1    0    0  502  501  0.00000000000E+00  0.00000000000E+00  0.59007852356E+03  0.59007852356E+03  0.00000000000E+00 0. -1.
         21   -1    0    0  501  502 -0.00000000000E+00 -0.00000000000E+00 -0.23724108229E+03  0.23724108229E+03  0.00000000000E+00 0. -1.
         25    1    1    2    0    0 -0.21808392389E+03  0.26764806119E+03  0.96925569796E+02  0.37975735490E+03  0.12500000000E+03 0.  0.
         25    1    1    2    0    0  0.21808392389E+03 -0.26764806119E+03  0.25591187147E+03  0.44756225095E+03  0.12500000000E+03 0.  0.
</event>
<event>
 4    0  0.2193754E-002  0.2884946E+03  0.7546771E-02  0.1091138E+00
         21   -1    0    0  502  501  0.00000000000E+00  0.00000000000E+00  0.12271877659E+03  0.12271877659E+03  0.00000000000E+00 0.  1.
         21   -1    0    0  501  502 -0.00000000000E+00 -0.00000000000E+00 -0.67821005318E+03  0.67821005318E+03  0.00000000000E+00 0.  1.
         25    1    1    2    0    0  0.15053257412E+03  0.20205326270E+03 -0.36682918284E+03  0.46224909543E+03  0.12500000000E+03 0.  0.
         25    1    1    2    0    0 -0.15053257412E+03 -0.20205326270E+03 -0.18866209374E+03  0.33867973434E+03  0.12500000000E+03 0.  0.
</event>
<event>
 4    0  0.2193754E-002  0.2133512E+03  0.7546771E-02  0.1138939E+00
         21   -1    0    0  502  501  0.00000000000E+00  0.00000000000E+00  0.13530014917E+03  0.13530014917E+03  0.00000000000E+00 0. -1.
         21   -1    0    0  501  502 -0.00000000000E+00 -0.00000000000E+00 -0.33642777975E+03  0.33642777975E+03  0.00000000000E+00 0. -1.
         25    1    1    2    0    0 -0.10159389858E+03 -0.81343457383E+02 -0.22639727673E+03  0.28951477544E+03  0.12500000000E+03 0.  0.
         25    1    1    2    0    0  0.10159389858E+03  0.81343457383E+02  0.25269646147E+02  0.18221315349E+03  0.12500000000E+03 0.  0.
</event>
<event>
 4    0  0.2193754E-002  0.2154138E+03  0.7546771E-02  0.1137349E+00
         21   -1    0    0  502  501  0.00000000000E+00  0.00000000000E+00  0.65973433258E+03  0.65973433258E+03  0.00000000000E+00 0.  1.
         21   -1    0    0  501  502 -0.00000000000E+00 -0.00000000000E+00 -0.70336059071E+02  0.70336059071E+02  0.00000000000E+00 0.  1.
         25    1    1    2    0    0 -0.12937857992E+03 -0.62186075976E+02  0.12378878384E+03  0.22705635422E+03  0.12500000000E+03 0.  0.
         25    1    1    2    0    0  0.12937857992E+03  0.62186075976E+02  0.46560948966E+03  0.50301403743E+03  0.12500000000E+03 0.  0.
</event>
<event>
 4    0  0.2193754E-002  0.2818632E+03  0.7546771E-02  0.1094676E+00
         21   -1    0    0  502  501  0.00000000000E+00  0.00000000000E+00  0.20803717818E+03  0.20803717818E+03  0.00000000000E+00 0.  1.
         21   -1    0    0  501  502 -0.00000000000E+00 -0.00000000000E+00 -0.38188780030E+03  0.38188780030E+03  0.00000000000E+00 0.  1.
         25    1    1    2    0    0  0.94770117615E+02 -0.87546809159E+02 -0.31421993721E+03  0.36194611191E+03  0.12500000000E+03 0.  0.
         25    1    1    2    0    0 -0.94770117615E+02  0.87546809159E+02  0.14036931509E+03  0.22797886658E+03  0.12500000000E+03 0.  0.
</event>
<event>
 4    0  0.2193754E-002  0.1963984E+03  0.7546771E-02  0.1152814E+00
         21   -1    0    0  502  501  0.00000000000E+00  0.00000000000E+00  0.31379047713E+03  0.31379047713E+03  0.00000000000E+00 0.  1.
         21   -1    0    0  501  502 -0.00000000000E+00 -0.00000000000E+00 -0.12292386454E+03  0.12292386454E+03  0.00000000000E+00 0.  1.
         25    1    1    2    0    0 -0.11772918761E+03 -0.40585037546E+02  0.19133291941E+03  0.26027023060E+03  0.12500000000E+03 0.  0.
         25    1    1    2    0    0  0.11772918761E+03  0.40585037546E+02 -0.46630681948E+00  0.17644411107E+03  0.12500000000E+03 0.  0.
</event>
<event>
 4    0  0.2193754E-002  0.1739221E+03  0.7546771E-02  0.1173818E+00
         21   -1    0    0  502  501  0.00000000000E+00  0.00000000000E+00  0.24587559371E+03  0.24587559371E+03  0.00000000000E+00 0.  1.
         21   -1    0    0  501  502 -0.00000000000E+00 -0.00000000000E+00 -0.12302516021E+03  0.12302516021E+03  0.00000000000E+00 0.  1.
         25    1    1    2    0    0  0.90091087475E+02  0.29515451610E+02 -0.18194866128E+02  0.15793549025E+03  0.12500000000E+03 0.  0.
         25    1    1    2    0    0 -0.90091087475E+02 -0.29515451610E+02  0.14104529963E+03  0.21096526367E+03  0.12500000000E+03 0.  0.
</event>
<event>
 4    0  0.2193754E-002  0.2630768E+03  0.7546771E-02  0.1105309E+00
         21   -1    0    0  502  501  0.00000000000E+00  0.00000000000E+00  0.80402154140E+03  0.80402154140E+03  0.00000000000E+00 0.  1.
         21   -1    0    0  501  502 -0.00000000000E+00 -0.00000000000E+00 -0.86079036876E+02  0.86079036876E+02  0.00000000000E+00 0.  1.
         25    1    1    2    0    0 -0.20747729938E+03 -0.43971324752E+02  0.20205096756E+03  0.31848061268E+03  0.12500000000E+03 0.  0.
         25    1    1    2    0    0  0.20747729938E+03  0.43971324752E+02  0.51589153696E+03  0.57161996560E+03  0.12500000000E+03 0.  0.
</event>
<event>
 4    0  0.2193754E-002  0.3075454E+03  0.7546771E-02  0.1081528E+00
         21   -1    0    0  502  501  0.00000000000E+00  0.00000000000E+00  0.28907693206E+03  0.28907693206E+03  0.00000000000E+00 0.  1.
         21   -1    0    0  501  502 -0.00000000000E+00 -0.00000000000E+00 -0.32719373467E+03  0.32719373467E+03  0.00000000000E+00 0.  1.
         25    1    1    2    0    0  0.18369699282E+03  0.77419545255E+02  0.17936389018E+03  0.29586276592E+03  0.12500000000E+03 0.  0.
         25    1    1    2    0    0 -0.18369699282E+03 -0.77419545255E+02 -0.21748069279E+03  0.32040790080E+03  0.12500000000E+03 0.  0.
</event>
<event>
 4    0  0.2193754E-002  0.1955585E+03  0.7546771E-02  0.1153541E+00
         21   -1    0    0  502  501  0.00000000000E+00  0.00000000000E+00  0.76391748875E+02  0.76391748875E+02  0.00000000000E+00 0.  1.
         21   -1    0    0  501  502 -0.00000000000E+00 -0.00000000000E+00 -0.50061839588E+03  0.50061839588E+03  0.00000000000E+00 0.  1.
         25    1    1    2    0    0  0.83875438312E+02  0.12028261941E+03 -0.26137816183E+03  0.32472533188E+03  0.12500000000E+03 0.  0.
         25    1    1    2    0    0 -0.83875438312E+02 -0.12028261941E+03 -0.16284848517E+03  0.25228481287E+03  0.12500000000E+03 0.  0.
</event>
<event>
 4    0  0.2193754E-002  0.1825643E+03  0.7546771E-02  0.1165344E+00
         21   -1    0    0  502  501  0.00000000000E+00  0.00000000000E+00  0.91392449430E+02  0.91392449430E+02  0.00000000000E+00 0.  1.
         21   -1    0    0  501  502 -0.00000000000E+00 -0.00000000000E+00 -0.36468779574E+03  0.36468779574E+03  0.00000000000E+00 0.  1.
         25    1    1    2    0    0 -0.94168260523E+02 -0.49955052644E+02 -0.23611786167E+03  0.28764529055E+03  0.12500000000E+03 0.  0.
         25    1    1    2    0    0  0.94168260523E+02  0.49955052644E+02 -0.37177484641E+02  0.16843495462E+03  0.12500000000E+03 0.  0.
</event>
<event>
 4    0  0.2193754E-002  0.2294117E+03  0.7546771E-02  0.1127055E+00
         21   -1    0    0  502  501  0.00000000000E+00  0.00000000000E+00  0.21671784794E+03  0.21671784794E+03  0.00000000000E+00 0.  1.
         21   -1    0    0  501  502 -0.00000000000E+00 -0.00000000000E+00 -0.24284900551E+03  0.24284900551E+03  0.00000000000E+00 0.  1.
         25    1    1    2    0    0 -0.15166987987E+03  0.11831325821E+03 -0.14781340425E+02  0.22988098562E+03  0.12500000000E+03 0.  0.
         25    1    1    2    0    0  0.15166987987E+03 -0.11831325821E+03 -0.11349817144E+02  0.22968586782E+03  0.12500000000E+03 0.  0.
</event>
<event>
 4    0  0.2193754E-002  0.2150010E+03  0.7546771E-02  0.1137666E+00
         21   -1    0    0  502  501  0.00000000000E+00  0.00000000000E+00  0.19045335089E+03  0.19045335089E+03  0.00000000000E+00 0.  1.
         21   -1    0    0  501  502 -0.00000000000E+00 -0.00000000000E+00 -0.24271259477E+03  0.24271259477E+03  0.00000000000E+00 0.  1.
         25    1    1    2    0    0 -0.75836725902E+02 -0.11822796194E+03  0.78903415101E+02  0.20391127702E+03  0.12500000000E+03 0.  0.
         25    1    1    2    0    0  0.75836725902E+02  0.11822796194E+03 -0.13116265898E+03  0.22925466864E+03  0.12500000000E+03 0.  0.
</event>
<event>
 4    0  0.2193754E-002  0.3188275E+03  0.7546771E-02  0.1076190E+00
         21   -1    0    0  502  501  0.00000000000E+00  0.00000000000E+00  0.40369876237E+03  0.40369876237E+03  0.00000000000E+00 0. -1.
         21   -1    0    0  501  502 -0.00000000000E+00 -0.00000000000E+00 -0.25179913727E+03  0.25179913727E+03  0.00000000000E+00 0. -1.
         25    1    1    2    0    0 -0.20611530470E+03  0.11230441000E+03 -0.10484120548E+03  0.28585394470E+03  0.12500000000E+03 0.  0.
         25    1    1    2    0    0  0.20611530470E+03 -0.11230441000E+03  0.25674083057E+03  0.36964395494E+03  0.12500000000E+03 0.  0.
</event>
<event>
 4    0  0.2193754E-002  0.2106704E+03  0.7546771E-02  0.1141036E+00
         21   -1    0    0  502  501  0.00000000000E+00  0.00000000000E+00  0.16322570472E+04  0.16322570472E+04  0.00000000000E+00 0. -1.
         21   -1    0    0  501  502 -0.00000000000E+00 -0.00000000000E+00 -0.27190571692E+02  0.27190571692E+02  0.00000000000E+00 0. -1.
         25    1    1    2    0    0 -0.25580077045E+02 -0.50371265037E+02  0.17280033894E+03  0.22062765425E+03  0.12500000000E+03 0.  0.
         25    1    1    2    0    0  0.25580077045E+02  0.50371265037E+02  0.14322661366E+04  0.14388199647E+04  0.12500000000E+03 0.  0.
</event>
<event>
 4    0  0.2193754E-002  0.2590472E+03  0.7546771E-02  0.1107717E+00
         21   -1    0    0  502  501  0.00000000000E+00  0.00000000000E+00  0.30487491047E+02  0.30487491047E+02  0.00000000000E+00 0.  1.
         21   -1    0    0  501  502 -0.00000000000E+00 -0.00000000000E+00 -0.22010806298E+04  0.22010806298E+04  0.00000000000E+00 0.  1.
         25    1    1    2    0    0  0.21972455665E+02 -0.17139776390E+03 -0.17186317829E+04  0.17318141319E+04  0.12500000000E+03 0.  0.
         25    1    1    2    0    0 -0.21972455665E+02  0.17139776390E+03 -0.45196135588E+03  0.49975398897E+03  0.12500000000E+03 0.  0.
</event>
<event>
 4    0  0.2193754E-002  0.2376347E+03  0.7546771E-02  0.1121379E+00
         21   -1    0    0  502  501  0.00000000000E+00  0.00000000000E+00  0.14727093530E+03  0.14727093530E+03  0.00000000000E+00 0. -1.
         21   -1    0    0  501  502 -0.00000000000E+00 -0.00000000000E+00 -0.38344453819E+03  0.38344453819E+03  0.00000000000E+00 0. -1.
         25    1    1    2    0    0 -0.13282149996E+03  0.63210055670E+02 -0.27284903612E+03  0.33422845256E+03  0.12500000000E+03 0.  0.
         25    1    1    2    0    0  0.13282149996E+03 -0.63210055670E+02  0.36675433233E+02  0.19648702092E+03  0.12500000000E+03 0.  0.
</event>
<event>
 4    0  0.2193754E-002  0.2409342E+03  0.7546771E-02  0.1119172E+00
         21   -1    0    0  502  501  0.00000000000E+00  0.00000000000E+00  0.71280401768E+02  0.71280401768E+02  0.00000000000E+00 0.  1.
         21   -1    0    0  501  502 -0.00000000000E+00 -0.00000000000E+00 -0.81437932244E+03  0.81437932244E+03  0.00000000000E+00 0.  1.
         25    1    1    2    0    0 -0.19685511229E+03  0.59877635213E+02 -0.38869476312E+03  0.45721535988E+03  0.12500000000E+03 0.  0.
         25    1    1    2    0    0  0.19685511229E+03 -0.59877635213E+02 -0.35440415756E+03  0.42844436433E+03  0.12500000000E+03 0.  0.
</event>
<event>
 4    0  0.2193754E-002  0.2913195E+03  0.7546771E-02  0.1089662E+00
         21   -1    0    0  502  501  0.00000000000E+00  0.00000000000E+00  0.48268814072E+03  0.48268814072E+03  0.00000000000E+00 0. -1.
         21   -1    0    0  501  502 -0.00000000000E+00 -0.00000000000E+00 -0.17582170421E+03  0.17582170421E+03  0.00000000000E+00 0. -1.
         25    1    1    2    0    0 -0.22282508652E+03  0.13320820428E+03  0.10486525235E+03  0.30662218775E+03  0.12500000000E+03 0.  0.
         25    1    1    2    0    0  0.22282508652E+03 -0.13320820428E+03  0.20200118415E+03  0.35188765717E+03  0.12500000000E+03 0.  0.
</event>
<event>
 4    0  0.2193754E-002  0.1999024E+03  0.7546771E-02  0.1149821E+00
         21   -1    0    0  502  501  0.00000000000E+00  0.00000000000E+00  0.24619455916E+03  0.24619455916E+03  0.00000000000E+00 0.  1.
         21   -1    0    0  501  502 -0.00000000000E+00 -0.00000000000E+00 -0.16231464543E+03  0.16231464543E+03  0.00000000000E+00 0.  1.
         25    1    1    2    0    0  0.47979839674E+02 -0.11104135194E+03 -0.58712238474E+02  0.18358750993E+03  0.12500000000E+03 0.  0.
         25    1    1    2    0    0 -0.47979839674E+02  0.11104135194E+03  0.14259215221E+03  0.22492169466E+03  0.12500000000E+03 0.  0.
</event>
<event>
 4    0  0.2193754E-002  0.3118764E+03  0.7546771E-02  0.1079450E+00
         21   -1    0    0  502  501  0.00000000000E+00  0.00000000000E+00  0.19314598588E+03  0.19314598588E+03  0.00000000000E+00 0. -1.
         21   -1    0    0  501  502 -0.00000000000E+00 -0.00000000000E+00 -0.50359247019E+03  0.50359247019E+03  0.00000000000E+00 0. -1.
         25    1    1    2    0    0  0.20432205738E+03 -0.15537381756E+03 -0.29542182446E+03  0.41083765734E+03  0.12500000000E+03 0.  0.
         25    1    1    2    0    0 -0.20432205738E+03  0.15537381756E+03 -0.15024659842E+02  0.28590079874E+03  0.12500000000E+03 0.  0.
</event>
<event>
 4    0  0.2193754E-002  0.1966348E+03  0.7546771E-02  0.1152610E+00
         21   -1    0    0  502  501  0.00000000000E+00  0.00000000000E+00  0.14244458877E+03  0.14244458877E+03  0.00000000000E+00 0. -1.
         21   -1    0    0  501  502 -0.00000000000E+00 -0.00000000000E+00 -0.27144072515E+03  0.27144072515E+03  0.00000000000E+00 0. -1.
         25    1    1    2    0    0  0.10684479574E+03 -0.10781675238E+03 -0.64498447656E+02  0.20694277523E+03  0.12500000000E+03 0.  0.
         25    1    1    2    0    0 -0.10684479574E+03  0.10781675238E+03 -0.64497688724E+02  0.20694253869E+03  0.12500000000E+03 0.  0.
</event>
<event>
 4    0  0.2193754E-002  0.1897298E+03  0.7546771E-02  0.1158705E+00
         21   -1    0    0  502  501  0.00000000000E+00  0.00000000000E+00  0.70430118522E+03  0.70430118522E+03  0.00000000000E+00 0.  1.
         21   -1    0    0  501  502 -0.00000000000E+00 -0.00000000000E+00 -0.51110823619E+02  0.51110823619E+02  0.00000000000E+00 0.  1.
         25    1    1    2    0    0 -0.16801249161E+02 -0.12072412600E+03  0.47444580664E+03  0.50554962171E+03  0.12500000000E+03 0.  0.
         25    1    1    2    0    0  0.16801249161E+02  0.12072412600E+03  0.17874455496E+03  0.24986238713E+03  0.12500000000E+03 0.  0.
</event>
<event>
 4    0  0.2193754E-002  0.2439623E+03  0.7546771E-02  0.1117181E+00
         21   -1    0    0  502  501  0.00000000000E+00  0.00000000000E+00  0.28199120572E+03  0.28199120572E+03  0.00000000000E+00 0.  1.
         21   -1    0    0  501  502 -0.00000000000E+00 -0.00000000000E+00 -0.21106189416E+03  0.21106189416E+03  0.00000000000E+00 0.  1.
         25    1    1    2    0    0  0.38633688442E+01  0.16132299495E+03 -0.99553227674E+02  0.22710323524E+03  0.12500000000E+03 0.  0.
         25    1    1    2    0    0 -0.38633688442E+01 -0.16132299495E+03  0.17048253924E+03  0.26594986464E+03  0.12500000000E+03 0.  0.
</event>
<event>
 4    0  0.2193754E-002  0.2008407E+03  0.7546771E-02  0.1149032E+00
         21   -1    0    0  502  501  0.00000000000E+00  0.00000000000E+00  0.59888402407E+02  0.59888402407E+02  0.00000000000E+00 0.  1.
         21   -1    0    0  501  502 -0.00000000000E+00 -0.00000000000E+00 -0.67353585053E+03  0.67353585053E+03  0.00000000000E+00 0.  1.
         25    1    1    2    0    0  0.80378905949E+02 -0.55782595427E+01 -0.55328513688E+03  0.57292349244E+03  0.12500000000E+03 0.  0.
         25    1    1    2    0    0 -0.80378905949E+02  0.55782595427E+01 -0.60362311248E+02  0.16050076050E+03  0.12500000000E+03 0.  0.
</event>
<event>
 4    0  0.2193754E-002  0.2492510E+03  0.7546771E-02  0.1113779E+00
         21   -1    0    0  502  501  0.00000000000E+00  0.00000000000E+00  0.39794586287E+03  0.39794586287E+03  0.00000000000E+00 0. -1.
         21   -1    0    0  501  502 -0.00000000000E+00 -0.00000000000E+00 -0.15611692730E+03  0.15611692730E+03  0.00000000000E+00 0. -1.
         25    1    1    2    0    0  0.75802950461E+02 -0.18613479816E+03  0.20778474163E+03  0.31494721659E+03  0.12500000000E+03 0.  0.
         25    1    1    2    0    0 -0.75802950461E+02  0.18613479816E+03  0.34044193942E+02  0.23911557358E+03  0.12500000000E+03 0.  0.
</event>
<event>
 4    0  0.2193754E-002  0.4716386E+03  0.7546771E-02  0.1021459E+00
         21   -1    0    0  502  501  0.00000000000E+00  0.00000000000E+00  0.38975077478E+03  0.38975077478E+03  0.00000000000E+00 0. -1.
         21   -1    0    0  501  502 -0.00000000000E+00 -0.00000000000E+00 -0.57073127759E+03  0.57073127759E+03  0.00000000000E+00 0.  1.
         25    1    1    2    0    0  0.23340800630E+03 -0.38675681951E+03 -0.14396307361E+03  0.49031673580E+03  0.12500000000E+03 0.  0.
         25    1    1    2    0    0 -0.23340800630E+03  0.38675681951E+03 -0.37017429203E+02  0.47016531657E+03  0.12500000000E+03 0.  0.
</event>
<event>
 4    0  0.2193754E-002  0.2321392E+03  0.7546771E-02  0.1125143E+00
         21   -1    0    0  502  501  0.00000000000E+00  0.00000000000E+00  0.82186143841E+03  0.82186143841E+03  0.00000000000E+00 0.  1.
         21   -1    0    0  501  502 -0.00000000000E+00 -0.00000000000E+00 -0.65568951398E+02  0.65568951398E+02  0.00000000000E+00 0.  1.
         25    1    1    2    0    0 -0.82617837407E+02 -0.15875799683E+03  0.52906101776E+03  0.57232889943E+03  0.12500000000E+03 0.  0.
         25    1    1    2    0    0  0.82617837407E+02  0.15875799683E+03  0.22723146925E+03  0.31510149037E+03  0.12500000000E+03 0.  0.
</event>
<event>
 4    0  0.2193754E-002  0.2027918E+03  0.7546771E-02  0.1147405E+00
         21   -1    0    0  502  501  0.00000000000E+00  0.00000000000E+00  0.34791556529E+03  0.34791556529E+03  0.00000000000E+00 0.  1.
         21   -1    0    0  501  502 -0.00000000000E+00 -0.00000000000E+00 -0.11820252793E+03  0.11820252793E+03  0.00000000000E+00 0.  1.
         25    1    1    2    0    0 -0.37374676197E+02 -0.14154693431E+03  0.18814875747E+03  0.26917904073E+03  0.12500000000E+03 0.  0.
         25    1    1    2    0    0  0.37374676197E+02  0.14154693431E+03  0.41564279891E+02  0.19693905249E+03  0.12500000000E+03 0.  0.
</event>
<event>
 4    0  0.2193754E-002  0.2264081E+03  0.7546771E-02  0.1129194E+00
         21   -1    0    0  502  501  0.00000000000E+00  0.00000000000E+00  0.47481944802E+03  0.47481944802E+03  0.00000000000E+00 0.  1.
         21   -1    0    0  501  502 -0.00000000000E+00 -0.00000000000E+00 -0.10795811924E+03  0.10795811924E+03  0.00000000000E+00 0.  1.
         25    1    1    2    0    0 -0.53976623319E+01  0.18088198460E+02 -0.58305088031E+02  0.13921494522E+03  0.12500000000E+03 0.  0.
         25    1    1    2    0    0  0.53976623319E+01 -0.18088198460E+02  0.42516641682E+03  0.44356262204E+03  0.12500000000E+03 0.  0.
</event>
<event>
 4    0  0.2193754E-002  0.3058580E+03  0.7546771E-02  0.1082348E+00
         21   -1    0    0  502  501  0.00000000000E+00  0.00000000000E+00  0.13262993812E+03  0.13262993812E+03  0.00000000000E+00 0.  1.
         21   -1    0    0  501  502 -0.00000000000E+00 -0.00000000000E+00 -0.70533939710E+03  0.70533939710E+03  0.00000000000E+00 0.  1.
         25    1    1    2    0    0 -0.98219889942E+02  0.69059982964E+02 -0.63157114819E+03  0.65492254753E+03  0.12500000000E+03 0.  0.
         25    1    1    2    0    0  0.98219889942E+02 -0.69059982964E+02  0.58861689217E+02  0.18304678769E+03  0.12500000000E+03 0.  0.
</event>
<event>
 4    0  0.2193754E-002  0.1808331E+03  0.7546771E-02  0.1166999E+00
         21   -1    0    0  502  501  0.00000000000E+00  0.00000000000E+00  0.90107129752E+03  0.90107129752E+03  0.00000000000E+00 0.  1.
         21   -1    0    0  501  502 -0.00000000000E+00 -0.00000000000E+00 -0.36290823088E+02  0.36290823088E+02  0.00000000000E+00 0.  1.
         25    1    1    2    0    0 -0.25316296314E+02  0.37634371885E+02  0.11476818577E+03  0.17565305939E+03  0.12500000000E+03 0.  0.
         25    1    1    2    0    0  0.25316296314E+02 -0.37634371885E+02  0.75001228866E+03  0.76170906122E+03  0.12500000000E+03 0.  0.
</event>
<event>
 4    0  0.2193754E-002  0.2102442E+03  0.7546771E-02  0.1141373E+00
         21   -1    0    0  502  501  0.00000000000E+00  0.00000000000E+00  0.17964053432E+03  0.17964053432E+03  0.00000000000E+00 0. -1.
         21   -1    0    0  501  502 -0.00000000000E+00 -0.00000000000E+00 -0.24606152671E+03  0.24606152671E+03  0.00000000000E+00 0. -1.
         25    1    1    2    0    0 -0.74131118066E+02  0.13794986225E+03  0.31234385471E+02  0.20279589246E+03  0.12500000000E+03 0.  0.
         25    1    1    2    0    0  0.74131118066E+02 -0.13794986225E+03 -0.97655377868E+02  0.22290616857E+03  0.12500000000E+03 0.  0.
</event>
<event>
 4    0  0.2193754E-002  0.2007777E+03  0.7546771E-02  0.1149084E+00
         21   -1    0    0  502  501  0.00000000000E+00  0.00000000000E+00  0.11218928462E+04  0.11218928462E+04  0.00000000000E+00 0. -1.
         21   -1    0    0  501  502 -0.00000000000E+00 -0.00000000000E+00 -0.35931857815E+02  0.35931857815E+02  0.00000000000E+00 0. -1.
         25    1    1    2    0    0 -0.11155952909E+03  0.94657817228E+02  0.70814038900E+03  0.73382112359E+03  0.12500000000E+03 0.  0.
         25    1    1    2    0    0  0.11155952909E+03 -0.94657817228E+02  0.37782059937E+03  0.42400358041E+03  0.12500000000E+03 0.  0.
</event>
<event>
 4    0  0.2193754E-002  0.1733017E+03  0.7546771E-02  0.1174448E+00
         21   -1    0    0  502  501  0.00000000000E+00  0.00000000000E+00  0.11115042455E+03  0.11115042455E+03  0.00000000000E+00 0. -1.
         21   -1    0    0  501  502 -0.00000000000E+00 -0.00000000000E+00 -0.27020582433E+03  0.27020582433E+03  0.00000000000E+00 0. -1.
         25    1    1    2    0    0  0.11525824899E+03 -0.17768904969E+02 -0.11080884710E+03  0.20372481081E+03  0.12500000000E+03 0.  0.
         25    1    1    2    0    0 -0.11525824899E+03  0.17768904969E+02 -0.48246552674E+02  0.17763143807E+03  0.12500000000E+03 0.  0.
</event>
<event>
 4    0  0.2193754E-002  0.2631668E+03  0.7546771E-02  0.1105255E+00
         21   -1    0    0  502  501  0.00000000000E+00  0.00000000000E+00  0.53014505648E+03  0.53014505648E+03  0.00000000000E+00 0.  1.
         21   -1    0    0  501  502 -0.00000000000E+00 -0.00000000000E+00 -0.13063738697E+03  0.13063738697E+03  0.00000000000E+00 0.  1.
         25    1    1    2    0    0 -0.21475540556E+02  0.48446013987E+02  0.48278215701E+03  0.50150954751E+03  0.12500000000E+03 0.  0.
         25    1    1    2    0    0  0.21475540556E+02 -0.48446013987E+02 -0.83274487506E+02  0.15927289595E+03  0.12500000000E+03 0.  0.
</event>
<event>
 4    0  0.2193754E-002  0.2057878E+03  0.7546771E-02  0.1144946E+00
         21   -1    0    0  502  501  0.00000000000E+00  0.00000000000E+00  0.32254158443E+03  0.32254158443E+03  0.00000000000E+00 0.  1.
         21   -1    0    0  501  502 -0.00000000000E+00 -0.00000000000E+00 -0.13129656551E+03  0.13129656551E+03  0.00000000000E+00 0.  1.
         25    1    1    2    0    0  0.32824778921E+02  0.33134261610E+02  0.26838990787E+03  0.29972235161E+03  0.12500000000E+03 0.  0.
         25    1    1    2    0    0 -0.32824778921E+02 -0.33134261610E+02 -0.77144888960E+02  0.15411579833E+03  0.12500000000E+03 0.  0.
</event>
<event>
 4    0  0.2193754E-002  0.2328516E+03  0.7546771E-02  0.1124649E+00
         21   -1    0    0  502  501  0.00000000000E+00  0.00000000000E+00  0.23886873295E+03  0.23886873295E+03  0.00000000000E+00 0.  1.
         21   -1    0    0  501  502 -0.00000000000E+00 -0.00000000000E+00 -0.22698603298E+03  0.22698603298E+03  0.00000000000E+00 0.  1.
         25    1    1    2    0    0 -0.96990806581E+02 -0.16053697009E+03  0.64402913755E+02  0.23441857995E+03  0.12500000000E+03 0.  0.
         25    1    1    2    0    0  0.96990806581E+02  0.16053697009E+03 -0.52520213786E+02  0.23143618598E+03  0.12500000000E+03 0.  0.
</event>
<event>
 4    0  0.2193754E-002  0.2116282E+03  0.7546771E-02  0.1140283E+00
         21   -1    0    0  502  501  0.00000000000E+00  0.00000000000E+00  0.74934776637E+03  0.74934776637E+03  0.00000000000E+00 0. -1.
         21   -1    0    0  501  502 -0.00000000000E+00 -0.00000000000E+00 -0.59767312682E+02  0.59767312682E+02  0.00000000000E+00 0. -1.
         25    1    1    2    0    0  0.10657500099E+03  0.96855260114E+02  0.52022789787E+03  0.55407692424E+03  0.12500000000E+03 0.  0.
         25    1    1    2    0    0 -0.10657500099E+03 -0.96855260114E+02  0.16935255581E+03  0.25503815481E+03  0.12500000000E+03 0.  0.
</event>
<event>
 4    0  0.2193754E-002  0.2207945E+03  0.7546771E-02  0.1133292E+00
         21   -1    0    0  502  501  0.00000000000E+00  0.00000000000E+00  0.12952971798E+04  0.12952971798E+04  0.00000000000E+00 0. -1.
         21   -1    0    0  501  502 -0.00000000000E+00 -0.00000000000E+00 -0.37636306139E+02  0.37636306139E+02  0.00000000000E+00 0. -1.
         25    1    1    2    0    0  0.50158145787E+02 -0.65144126606E+02  0.13870285603E+03  0.20401734998E+03  0.12500000000E+03 0.  0.
         25    1    1    2    0    0 -0.50158145787E+02  0.65144126606E+02  0.11189580177E+04  0.11289161360E+04  0.12500000000E+03 0.  0.
</event>
<event>
 4    0  0.2193754E-002  0.1444965E+03  0.7546771E-02  0.1207403E+00
         21   -1    0    0  502  501  0.00000000000E+00  0.00000000000E+00  0.45037953184E+03  0.45037953184E+03  0.00000000000E+00 0. -1.
         21   -1    0    0  501  502 -0.00000000000E+00 -0.00000000000E+00 -0.46359217515E+02  0.46359217515E+02  0.00000000000E+00 0. -1.
         25    1    1    2    0    0  0.30360751888E+02 -0.65618060777E+02  0.19312221377E+03  0.24114040434E+03  0.12500000000E+03 0.  0.
         25    1    1    2    0    0 -0.30360751888E+02  0.65618060777E+02  0.21089810056E+03  0.25559834502E+03  0.12500000000E+03 0.  0.
</event>
<event>
 4    0  0.2193754E-002  0.1786258E+03  0.7546771E-02  0.1169140E+00
         21   -1    0    0  502  501  0.00000000000E+00  0.00000000000E+00  0.13416020462E+04  0.13416020462E+04  0.00000000000E+00 0. -1.
         21   -1    0    0  501  502 -0.00000000000E+00 -0.00000000000E+00 -0.23782888008E+02  0.23782888008E+02  0.00000000000E+00 0. -1.
         25    1    1    2    0    0 -0.23577066691E+02 -0.99831723314E+02  0.94897047989E+03  0.96264854581E+03  0.12500000000E+03 0.  0.
         25    1    1    2    0    0  0.23577066691E+02  0.99831723314E+02  0.36884867831E+03  0.40273638841E+03  0.12500000000E+03 0.  0.
</event>
<event>
 4    0  0.2193754E-002  0.2597077E+03  0.7546771E-02  0.1107319E+00
         21   -1    0    0  502  501  0.00000000000E+00  0.00000000000E+00  0.92814292907E+02  0.92814292907E+02  0.00000000000E+00 0. -1.
         21   -1    0    0  501  502 -0.00000000000E+00 -0.00000000000E+00 -0.72669951790E+03  0.72669951790E+03  0.00000000000E+00 0. -1.
         25    1    1    2    0    0 -0.17754634979E+03 -0.12172721656E+03 -0.43377030492E+03  0.50012188415E+03  0.12500000000E+03 0.  0.
         25    1    1    2    0    0  0.17754634979E+03  0.12172721656E+03 -0.20011492008E+03  0.31939192666E+03  0.12500000000E+03 0.  0.
</event>
<event>
 4    0  0.2193754E-002  0.1674942E+03  0.7546771E-02  0.1180486E+00
         21   -1    0    0  502  501  0.00000000000E+00  0.00000000000E+00  0.56882272011E+02  0.56882272011E+02  0.00000000000E+00 0. -1.
         21   -1    0    0  501  502 -0.00000000000E+00 -0.00000000000E+00 -0.49319957137E+03  0.49319957137E+03  0.00000000000E+00 0. -1.
         25    1    1    2    0    0 -0.12534750092E+02  0.10743568547E+03 -0.26251841359E+03  0.31022647203E+03  0.12500000000E+03 0.  0.
         25    1    1    2    0    0  0.12534750092E+02 -0.10743568547E+03 -0.17379888577E+03  0.23985537136E+03  0.12500000000E+03 0.  0.
</event>
<event>
 4    0  0.2193754E-002  0.1344537E+03  0.7546771E-02  0.1220993E+00
         21   -1    0    0  502  501  0.00000000000E+00  0.00000000000E+00  0.20932472675E+02  0.20932472675E+02  0.00000000000E+00 0.  1.
         21   -1    0    0  501  502 -0.00000000000E+00 -0.00000000000E+00 -0.86362417905E+03  0.86362417905E+03  0.00000000000E+00 0.  1.
         25    1    1    2    0    0 -0.40421176761E+02  0.22093453322E+02 -0.48117378429E+03  0.49927467681E+03  0.12500000000E+03 0.  0.
         25    1    1    2    0    0  0.40421176761E+02 -0.22093453322E+02 -0.36151792208E+03  0.38528197492E+03  0.12500000000E+03 0.  0.
</event>
<event>
 4    0  0.2193754E-002  0.3302429E+03  0.7546771E-02  0.1071029E+00
         21   -1    0    0  502  501  0.00000000000E+00  0.00000000000E+00  0.96373837813E+02  0.96373837813E+02  0.00000000000E+00 0.  1.
         21   -1    0    0  501  502 -0.00000000000E+00 -0.00000000000E+00 -0.11316385602E+04  0.11316385602E+04  0.00000000000E+00 0.  1.
         25    1    1    2    0    0  0.14640435753E+03  0.92700924121E+02 -0.98580944500E+03  0.10086986463E+04  0.12500000000E+03 0.  0.
         25    1    1    2    0    0 -0.14640435753E+03 -0.92700924121E+02 -0.49455277432E+02  0.21931375174E+03  0.12500000000E+03 0.  0.
</event>
<event>
 4    0  0.2193754E-002  0.2132448E+03  0.7546771E-02  0.1139022E+00
         21   -1    0    0  502  501  0.00000000000E+00  0.00000000000E+00  0.76018626679E+03  0.76018626679E+03  0.00000000000E+00 0.  1.
         21   -1    0    0  501  502 -0.00000000000E+00 -0.00000000000E+00 -0.59818698302E+02  0.59818698302E+02  0.00000000000E+00 0.  1.
         25    1    1    2    0    0 -0.14411078545E+03 -0.95231510475E+02  0.35667376986E+03  0.41554558977E+03  0.12500000000E+03 0.  0.
         25    1    1    2    0    0  0.14411078545E+03  0.95231510475E+02  0.34369379862E+03  0.40445937531E+03  0.12500000000E+03 0.  0.
</event>
<event>
 4    0  0.2193754E-002  0.1868638E+03  0.7546771E-02  0.1161321E+00
         21   -1    0    0  502  501  0.00000000000E+00  0.00000000000E+00  0.15756511116E+03  0.15756511116E+03  0.00000000000E+00 0.  1.
         21   -1    0    0  501  502 -0.00000000000E+00 -0.00000000000E+00 -0.22161054503E+03  0.22161054503E+03  0.00000000000E+00 0.  1.
         25    1    1    2    0    0  0.10212016298E+03 -0.21325406525E+02  0.61019012280E+02  0.17387242596E+03  0.12500000000E+03 0.  0.
         25    1    1    2    0    0 -0.10212016298E+03  0.21325406525E+02 -0.12506444614E+03  0.20530323022E+03  0.12500000000E+03 0.  0.
</event>
<event>
 4    0  0.2193754E-002  0.2636050E+03  0.7546771E-02  0.1104996E+00
         21   -1    0    0  502  501  0.00000000000E+00  0.00000000000E+00  0.24037817716E+03  0.24037817716E+03  0.00000000000E+00 0. -1.
         21   -1    0    0  501  502 -0.00000000000E+00 -0.00000000000E+00 -0.28907618214E+03  0.28907618214E+03  0.00000000000E+00 0. -1.
         25    1    1    2    0    0  0.23064068256E+03  0.71816872718E+01 -0.49272075904E+02  0.26701954713E+03  0.12500000000E+03 0.  0.
         25    1    1    2    0    0 -0.23064068256E+03 -0.71816872718E+01  0.57407092918E+00  0.26243481217E+03  0.12500000000E+03 0.  0.
</event>
<event>
 4    0  0.2193754E-002  0.2695017E+03  0.7546771E-02  0.1101565E+00
         21   -1    0    0  502  501  0.00000000000E+00  0.00000000000E+00  0.10310658196E+04  0.10310658196E+04  0.00000000000E+00 0.  1.
         21   -1    0    0  501  502 -0.00000000000E+00 -0.00000000000E+00 -0.70442784886E+02  0.70442784886E+02  0.00000000000E+00 0.  1.
         25    1    1    2    0    0 -0.34078572884E+02 -0.21825544843E+03  0.29514986913E+03  0.38927526912E+03  0.12500000000E+03 0.  0.
         25    1    1    2    0    0  0.34078572884E+02  0.21825544843E+03  0.66547316561E+03  0.71223333539E+03  0.12500000000E+03 0.  0.
</event>
<event>
 4    0  0.2193754E-002  0.1642468E+03  0.7546771E-02  0.1183984E+00
         21   -1    0    0  502  501  0.00000000000E+00  0.00000000000E+00  0.19251368517E+02  0.19251368517E+02  0.00000000000E+00 0. -1.
         21   -1    0    0  501  502 -0.00000000000E+00 -0.00000000000E+00 -0.14013043433E+04  0.14013043433E+04  0.00000000000E+00 0. -1.
         25    1    1    2    0    0 -0.41996356443E+02  0.39145693529E+02 -0.10791675036E+04  0.10878986993E+04  0.12500000000E+03 0.  0.
         25    1    1    2    0    0  0.41996356443E+02 -0.39145693529E+02 -0.30288547124E+03  0.33265701250E+03  0.12500000000E+03 0.  0.
</event>
<event>
 4    0  0.2193754E-002  0.2088156E+03  0.7546771E-02  0.1142507E+00
         21   -1    0    0  502  501  0.00000000000E+00  0.00000000000E+00  0.77080302358E+03  0.77080302358E+03  0.00000000000E+00 0.  1.
         21   -1    0    0  501  502 -0.00000000000E+00 -0.00000000000E+00 -0.56569514398E+02  0.56569514398E+02  0.00000000000E+00 0. -1.
         25    1    1    2    0    0  0.47602084431E+02 -0.13702507630E+03  0.52212204394E+03  0.55612791582E+03  0.12500000000E+03 0.  0.
         25    1    1    2    0    0 -0.47602084431E+02  0.13702507630E+03  0.19211146524E+03  0.27124462217E+03  0.12500000000E+03 0.  0.
</event>
<event>
 4    0  0.2193754E-002  0.2913702E+03  0.7546771E-02  0.1089636E+00
         21   -1    0    0  502  501  0.00000000000E+00  0.00000000000E+00  0.74966700635E+03  0.74966700635E+03  0.00000000000E+00 0. -1.
         21   -1    0    0  501  502 -0.00000000000E+00 -0.00000000000E+00 -0.11324576140E+03  0.11324576140E+03  0.00000000000E+00 0. -1.
         25    1    1    2    0    0  0.10467477241E+03 -0.23944633413E+03  0.36457254991E+03  0.46564954531E+03  0.12500000000E+03 0.  0.
         25    1    1    2    0    0 -0.10467477241E+03  0.23944633413E+03  0.27184869504E+03  0.39726322244E+03  0.12500000000E+03 0.  0.
</event>
<event>
 4    0  0.2193754E-002  0.3157134E+03  0.7546771E-02  0.1077639E+00
         21   -1    0    0  502  501  0.00000000000E+00  0.00000000000E+00  0.10542964900E+04  0.10542964900E+04  0.00000000000E+00 0. -1.
         21   -1    0    0  501  502 -0.00000000000E+00 -0.00000000000E+00 -0.94541680238E+02  0.94541680238E+02  0.00000000000E+00 0. -1.
         25    1    1    2    0    0 -0.11016321402E+03  0.19232904508E+03  0.13986472308E+03  0.29036793223E+03  0.12500000000E+03 0.  0.
         25    1    1    2    0    0  0.11016321402E+03 -0.19232904508E+03  0.81989008665E+03  0.85847023798E+03  0.12500000000E+03 0.  0.
</event>
<event>
 4    0  0.2193754E-002  0.2331996E+03  0.7546771E-02  0.1124408E+00
         21   -1    0    0  502  501  0.00000000000E+00  0.00000000000E+00  0.13827229727E+03  0.13827229727E+03  0.00000000000E+00 0.  1.
         21   -1    0    0  501  502 -0.00000000000E+00 -0.00000000000E+00 -0.39329668027E+03  0.39329668027E+03  0.00000000000E+00 0.  1.
         25    1    1    2    0    0 -0.37310020266E+02 -0.17591343162E+03 -0.21882910709E+03  0.30959449470E+03  0.12500000000E+03 0.  0.
         25    1    1    2    0    0  0.37310020266E+02  0.17591343162E+03 -0.36195275908E+02  0.22197448285E+03  0.12500000000E+03 0.  0.
</event>
<event>
 4    0  0.2193754E-002  0.1878441E+03  0.7546771E-02  0.1160420E+00
         21   -1    0    0  502  501  0.00000000000E+00  0.00000000000E+00  0.26611507980E+03  0.26611507980E+03  0.00000000000E+00 0. -1.
         21   -1    0    0  501  502 -0.00000000000E+00 -0.00000000000E+00 -0.13259459235E+03  0.13259459235E+03  0.00000000000E+00 0. -1.
         25    1    1    2    0    0 -0.12392592510E+03 -0.43013743698E+02  0.14201763899E+02  0.18175397426E+03  0.12500000000E+03 0.  0.
         25    1    1    2    0    0  0.12392592510E+03  0.43013743698E+02  0.11931872355E+03  0.21695569789E+03  0.12500000000E+03 0.  0.
</event>
<event>
 4    0  0.2193754E-002  0.2357153E+03  0.7546771E-02  0.1122681E+00
         21   -1    0    0  502  501  0.00000000000E+00  0.00000000000E+00  0.29308335335E+03  0.29308335335E+03  0.00000000000E+00 0.  1.
         21   -1    0    0  501  502 -0.00000000000E+00 -0.00000000000E+00 -0.18957639422E+03  0.18957639422E+03  0.00000000000E+00 0.  1.
         25    1    1    2    0    0  0.75883210719E+02 -0.55813072886E+02  0.23219951625E+03  0.28002674179E+03  0.12500000000E+03 0.  0.
         25    1    1    2    0    0 -0.75883210719E+02  0.55813072886E+02 -0.12869255712E+03  0.20263300578E+03  0.12500000000E+03 0.  0.
</event>
<event>
 4    0  0.2193754E-002  0.3501339E+03  0.7546771E-02  0.1062560E+00
         21   -1    0    0  502  501  0.00000000000E+00  0.00000000000E+00  0.12389852667E+03  0.12389852667E+03  0.00000000000E+00 0. -1.
         21   -1    0    0  501  502 -0.00000000000E+00 -0.00000000000E+00 -0.98946888152E+03  0.98946888152E+03  0.00000000000E+00 0. -1.
         25    1    1    2    0    0  0.26836937012E+02  0.35774784895E+02  0.82329868682E+02  0.15621544002E+03  0.12500000000E+03 0.  0.
         25    1    1    2    0    0 -0.26836937012E+02 -0.35774784895E+02 -0.94790022353E+03  0.95715196818E+03  0.12500000000E+03 0.  0.
</event>
<event>
 4    0  0.2193754E-002  0.2237555E+03  0.7546771E-02  0.1131114E+00
         21   -1    0    0  502  501  0.00000000000E+00  0.00000000000E+00  0.12430172870E+03  0.12430172870E+03  0.00000000000E+00 0. -1.
         21   -1    0    0  501  502 -0.00000000000E+00 -0.00000000000E+00 -0.40278219254E+03  0.40278219254E+03  0.00000000000E+00 0. -1.
         25    1    1    2    0    0  0.17375978436E+03 -0.64447017480E+02 -0.12772160765E+03  0.25745619003E+03  0.12500000000E+03 0.  0.
         25    1    1    2    0    0 -0.17375978436E+03  0.64447017480E+02 -0.15075885618E+03  0.26962773121E+03  0.12500000000E+03 0.  0.
</event>
<event>
 4    0  0.2193754E-002  0.1792331E+03  0.7546771E-02  0.1168547E+00
         21   -1    0    0  502  501  0.00000000000E+00  0.00000000000E+00  0.93694027959E+02  0.93694027959E+02  0.00000000000E+00 0.  1.
         21   -1    0    0  501  502 -0.00000000000E+00 -0.00000000000E+00 -0.34286617120E+03  0.34286617120E+03  0.00000000000E+00 0.  1.
         25    1    1    2    0    0  0.71429106614E+02  0.10609941716E+03 -0.13901183128E+03  0.22651378066E+03  0.12500000000E+03 0.  0.
         25    1    1    2    0    0 -0.71429106614E+02 -0.10609941716E+03 -0.11016031196E+03  0.21004641850E+03  0.12500000000E+03 0.  0.
</event>
<event>
 4    0  0.2193754E-002  0.3076728E+03  0.7546771E-02  0.1081467E+00
         21   -1    0    0  502  501  0.00000000000E+00  0.00000000000E+00  0.25092537018E+03  0.25092537018E+03  0.00000000000E+00 0.  1.
         21   -1    0    0  501  502 -0.00000000000E+00 -0.00000000000E+00 -0.37725374191E+03  0.37725374191E+03  0.00000000000E+00 0.  1.
         25    1    1    2    0    0  0.82500030235E+02 -0.26708248200E+03 -0.32568679715E+02  0.30793672415E+03  0.12500000000E+03 0.  0.
         25    1    1    2    0    0 -0.82500030235E+02  0.26708248200E+03 -0.93759692015E+02  0.32024238793E+03  0.12500000000E+03 0.  0.
</event>
<event>
 4    0  0.2193754E-002  0.1917342E+03  0.7546771E-02  0.1156906E+00
         21   -1    0    0  502  501  0.00000000000E+00  0.00000000000E+00  0.15780515724E+03  0.15780515724E+03  0.00000000000E+00 0. -1.
         21   -1    0    0  501  502 -0.00000000000E+00 -0.00000000000E+00 -0.23295807076E+03  0.23295807076E+03  0.00000000000E+00 0. -1.
         25    1    1    2    0    0 -0.83415362058E+02  0.11733620483E+03 -0.16915710017E+02  0.19140806889E+03  0.12500000000E+03 0.  0.
         25    1    1    2    0    0  0.83415362058E+02 -0.11733620483E+03 -0.58237203500E+02  0.19935515911E+03  0.12500000000E+03 0.  0.
</event>
<event>
 4    0  0.2193754E-002  0.2446825E+03  0.7546771E-02  0.1116712E+00
         21   -1    0    0  502  501  0.00000000000E+00  0.00000000000E+00  0.25755370299E+03  0.25755370299E+03  0.00000000000E+00 0. -1.
         21   -1    0    0  501  502 -0.00000000000E+00 -0.00000000000E+00 -0.23245460781E+03  0.23245460781E+03  0.00000000000E+00 0. -1.
         25    1    1    2    0    0 -0.50795944748E+02 -0.11097149670E+03 -0.15899301357E+03  0.23621744103E+03  0.12500000000E+03 0.  0.
         25    1    1    2    0    0  0.50795944748E+02  0.11097149670E+03  0.18409210874E+03  0.25379086978E+03  0.12500000000E+03 0.  0.
</event>
<event>
 4    0  0.2193754E-002  0.2604396E+03  0.7546771E-02  0.1106879E+00
         21   -1    0    0  502  501  0.00000000000E+00  0.00000000000E+00  0.63234433193E+03  0.63234433193E+03  0.00000000000E+00 0. -1.
         21   -1    0    0  501  502 -0.00000000000E+00 -0.00000000000E+00 -0.10726560031E+03  0.10726560031E+03  0.00000000000E+00 0. -1.
         25    1    1    2    0    0 -0.21752601411E+03  0.50754309673E+02  0.19429087149E+03  0.32135262486E+03  0.12500000000E+03 0.  0.
         25    1    1    2    0    0  0.21752601411E+03 -0.50754309673E+02  0.33078786013E+03  0.41825730737E+03  0.12500000000E+03 0.  0.
</event>
<event>
 4    0  0.2193754E-002  0.3443425E+03  0.7546771E-02  0.1064961E+00
         21   -1    0    0  502  501  0.00000000000E+00  0.00000000000E+00  0.53030631921E+03  0.53030631921E+03  0.00000000000E+00 0.  1.
         21   -1    0    0  501  502 -0.00000000000E+00 -0.00000000000E+00 -0.22359105334E+03  0.22359105334E+03  0.00000000000E+00 0.  1.
         25    1    1    2    0    0  0.61301112643E+02  0.56651074171E+02  0.49249921344E+03  0.51492489341E+03  0.12500000000E+03 0.  0.
         25    1    1    2    0    0 -0.61301112643E+02 -0.56651074171E+02 -0.18578394757E+03  0.23897247915E+03  0.12500000000E+03 0.  0.
</event>
<event>
 4    0  0.2193754E-002  0.2364119E+03  0.7546771E-02  0.1122206E+00
         21   -1    0    0  502  501  0.00000000000E+00  0.00000000000E+00  0.33733493134E+03  0.33733493134E+03  0.00000000000E+00 0. -1.
         21   -1    0    0  501  502 -0.00000000000E+00 -0.00000000000E+00 -0.16568272999E+03  0.16568272999E+03  0.00000000000E+00 0. -1.
         25    1    1    2    0    0  0.12949161269E+03  0.15071705018E+03  0.11557356479E+03  0.26166000048E+03  0.12500000000E+03 0.  0.
         25    1    1    2    0    0 -0.12949161269E+03 -0.15071705018E+03  0.56078636565E+02  0.24135766085E+03  0.12500000000E+03 0.  0.
</event>
<event>
 4    0  0.2193754E-002  0.2599477E+03  0.7546771E-02  0.1107175E+00
         21   -1    0    0  502  501  0.00000000000E+00  0.00000000000E+00  0.43399126775E+03  0.43399126775E+03  0.00000000000E+00 0. -1.
         21   -1    0    0  501  502 -0.00000000000E+00 -0.00000000000E+00 -0.15570086398E+03  0.15570086398E+03  0.00000000000E+00 0. -1.
         25    1    1    2    0    0 -0.12043200518E+03  0.19213460726E+03  0.16521424219E+03  0.30714869526E+03  0.12500000000E+03 0.  0.
         25    1    1    2    0    0  0.12043200518E+03 -0.19213460726E+03  0.11307616158E+03  0.28254343648E+03  0.12500000000E+03 0.  0.
</event>
<event>
 4    0  0.2193754E-002  0.3103628E+03  0.7546771E-02  0.1080172E+00
         21   -1    0    0  502  501  0.00000000000E+00  0.00000000000E+00  0.59665330034E+02  0.59665330034E+02  0.00000000000E+00 0.  1.
         21   -1    0    0  501  502 -0.00000000000E+00 -0.00000000000E+00 -0.16144229663E+04  0.16144229663E+04  0.00000000000E+00 0.  1.
         25    1    1    2    0    0 -0.16772926273E+02  0.98198207290E+02 -0.14948777442E+04  0.15033990452E+04  0.12500000000E+03 0.  0.
         25    1    1    2    0    0  0.16772926273E+02 -0.98198207290E+02 -0.59879892012E+02  0.17068925109E+03  0.12500000000E+03 0.  0.
</event>
<event>
 4    0  0.2193754E-002  0.2369112E+03  0.7546771E-02  0.1121868E+00
         21   -1    0    0  502  501  0.00000000000E+00  0.00000000000E+00  0.45503668040E+02  0.45503668040E+02  0.00000000000E+00 0.  1.
         21   -1    0    0  501  502 -0.00000000000E+00 -0.00000000000E+00 -0.12334592754E+04  0.12334592754E+04  0.00000000000E+00 0. -1.
         25    1    1    2    0    0  0.29642304084E+02  0.19847662906E+03 -0.55301655079E+03  0.60143490414E+03  0.12500000000E+03 0.  0.
         25    1    1    2    0    0 -0.29642304084E+02 -0.19847662906E+03 -0.63493905657E+03  0.67752803930E+03  0.12500000000E+03 0.  0.
</event>
<event>
 4    0  0.2193754E-002  0.2522402E+03  0.7546771E-02  0.1111897E+00
         21   -1    0    0  502  501  0.00000000000E+00  0.00000000000E+00  0.76718761204E+02  0.76718761204E+02  0.00000000000E+00 0. -1.
         21   -1    0    0  501  502 -0.00000000000E+00 -0.00000000000E+00 -0.82932963893E+03  0.82932963893E+03  0.00000000000E+00 0. -1.
         25    1    1    2    0    0 -0.15907749865E+03 -0.14467442849E+03 -0.30087755983E+03  0.39036988465E+03  0.12500000000E+03 0.  0.
         25    1    1    2    0    0  0.15907749865E+03  0.14467442849E+03 -0.45173331790E+03  0.51567851548E+03  0.12500000000E+03 0.  0.
</event>
<event>
 4    0  0.2193754E-002  0.1907236E+03  0.7546771E-02  0.1157810E+00
         21   -1    0    0  502  501  0.00000000000E+00  0.00000000000E+00  0.14840176703E+03  0.14840176703E+03  0.00000000000E+00 0.  1.
         21   -1    0    0  501  502 -0.00000000000E+00 -0.00000000000E+00 -0.24511496240E+03  0.24511496240E+03  0.00000000000E+00 0.  1.
         25    1    1    2    0    0  0.59087066934E+02 -0.12690377510E+03 -0.83411825645E+02  0.20537376238E+03  0.12500000000E+03 0.  0.
         25    1    1    2    0    0 -0.59087066934E+02  0.12690377510E+03 -0.13301369728E+02  0.18814296705E+03  0.12500000000E+03 0.  0.
</event>
<event>
 4    0  0.2193754E-002  0.2160323E+03  0.7546771E-02  0.1136876E+00
         21   -1    0    0  502  501  0.00000000000E+00  0.00000000000E+00  0.20010947168E+03  0.20010947168E+03  0.00000000000E+00 0.  1.
         21   -1    0    0  501  502 -0.00000000000E+00 -0.00000000000E+00 -0.23322206696E+03  0.23322206696E+03  0.00000000000E+00 0.  1.
         25    1    1    2    0    0 -0.16846834693E+03 -0.29029519995E+02  0.26237872962E+02  0.21339569566E+03  0.12500000000E+03 0.  0.
         25    1    1    2    0    0  0.16846834693E+03  0.29029519995E+02 -0.59350468241E+02  0.21993584299E+03  0.12500000000E+03 0.  0.
</event>
<event>
 4    0  0.2193754E-002  0.1707384E+03  0.7546771E-02  0.1177080E+00
         21   -1    0    0  502  501  0.00000000000E+00  0.00000000000E+00  0.73268374845E+03  0.73268374845E+03  0.00000000000E+00 0.  1.
         21   -1    0    0  501  502 -0.00000000000E+00 -0.00000000000E+00 -0.39787432527E+02  0.39787432527E+02  0.00000000000E+00 0.  1.
         25    1    1    2    0    0  0.10969693225E+02  0.64486627852E+01  0.60796546150E+03  0.62081311342E+03  0.12500000000E+03 0.  0.
         25    1    1    2    0    0 -0.10969693225E+02 -0.64486627852E+01  0.84930854423E+02  0.15165806755E+03  0.12500000000E+03 0.  0.
</event>
<event>
 4    0  0.2193754E-002  0.2248171E+03  0.7546771E-02  0.1130342E+00
         21   -1    0    0  502  501  0.00000000000E+00  0.00000000000E+00  0.13340392653E+03  0.13340392653E+03  0.00000000000E+00 0.  1.
         21   -1    0    0  501  502 -0.00000000000E+00 -0.00000000000E+00 -0.37886985256E+03  0.37886985256E+03  0.00000000000E+00 0.  1.
         25    1    1    2    0    0 -0.16176792000E+03 -0.12316731589E+02 -0.22837102137E+03  0.30675541596E+03  0.12500000000E+03 0.  0.
         25    1    1    2    0    0  0.16176792000E+03  0.12316731589E+02 -0.17094904660E+02  0.20551836313E+03  0.12500000000E+03 0.  0.
</event>
<event>
 4    0  0.2193754E-002  0.2970855E+03  0.7546771E-02  0.1086707E+00
         21   -1    0    0  502  501  0.00000000000E+00  0.00000000000E+00  0.70778198846E+02  0.70778198846E+02  0.00000000000E+00 0. -1.
         21   -1    0    0  501  502 -0.00000000000E+00 -0.00000000000E+00 -0.12469912985E+04  0.12469912985E+04  0.00000000000E+00 0. -1.
         25    1    1    2    0    0 -0.25171981930E+03 -0.80494608638E+01 -0.37529740379E+03  0.46893581921E+03  0.12500000000E+03 0.  0.
         25    1    1    2    0    0  0.25171981930E+03  0.80494608638E+01 -0.80091569585E+03  0.84883367812E+03  0.12500000000E+03 0.  0.
</event>
<event>
 4    0  0.2193754E-002  0.1721626E+03  0.7546771E-02  0.1175611E+00
         21   -1    0    0  502  501  0.00000000000E+00  0.00000000000E+00  0.87288851516E+02  0.87288851516E+02  0.00000000000E+00 0.  1.
         21   -1    0    0  501  502 -0.00000000000E+00 -0.00000000000E+00 -0.33956170838E+03  0.33956170838E+03  0.00000000000E+00 0.  1.
         25    1    1    2    0    0 -0.48529370358E+02  0.10626819421E+03 -0.14988264248E+03  0.22745952476E+03  0.12500000000E+03 0.  0.
         25    1    1    2    0    0  0.48529370358E+02 -0.10626819421E+03 -0.10239021438E+03  0.19939103513E+03  0.12500000000E+03 0.  0.
</event>
<event>
 4    0  0.2193754E-002  0.1855273E+03  0.7546771E-02  0.1162558E+00
         21   -1    0    0  502  501  0.00000000000E+00  0.00000000000E+00  0.37163420002E+03  0.37163420002E+03  0.00000000000E+00 0. -1.
         21   -1    0    0  501  502 -0.00000000000E+00 -0.00000000000E+00 -0.92619022762E+02  0.92619022762E+02  0.00000000000E+00 0. -1.
         25    1    1    2    0    0  0.76958470126E+02  0.10758667053E+03  0.18458275980E+03  0.25921669124E+03  0.12500000000E+03 0.  0.
         25    1    1    2    0    0 -0.76958470126E+02 -0.10758667053E+03  0.94432417454E+02  0.20503653154E+03  0.12500000000E+03 0.  0.
</event>
<event>
 4    0  0.2193754E-002  0.2233627E+03  0.7546771E-02  0.1131401E+00
         21   -1    0    0  502  501  0.00000000000E+00  0.00000000000E+00  0.18359466226E+04  0.18359466226E+04  0.00000000000E+00 0.  1.
         21   -1    0    0  501  502 -0.00000000000E+00 -0.00000000000E+00 -0.27174479166E+02  0.27174479166E+02  0.00000000000E+00 0.  1.
         25    1    1    2    0    0  0.14444098394E+03 -0.74104855938E+02  0.12753406116E+04  0.12916940052E+04  0.12500000000E+03 0.  0.
         25    1    1    2    0    0 -0.14444098394E+03  0.74104855938E+02  0.53343153180E+03  0.57142709652E+03  0.12500000000E+03 0.  0.
</event>
<event>
 4    0  0.2193754E-002  0.1841047E+03  0.7546771E-02  0.1163889E+00
         21   -1    0    0  502  501  0.00000000000E+00  0.00000000000E+00  0.18309208327E+03  0.18309208327E+03  0.00000000000E+00 0.  1.
         21   -1    0    0  501  502 -0.00000000000E+00 -0.00000000000E+00 -0.18512284815E+03  0.18512284815E+03  0.00000000000E+00 0.  1.
         25    1    1    2    0    0  0.10709752707E+03 -0.74607881817E+02  0.34103687997E+02  0.18391377836E+03  0.12500000000E+03 0.  0.
         25    1    1    2    0    0 -0.10709752707E+03  0.74607881817E+02 -0.36134452880E+02  0.18430115306E+03  0.12500000000E+03 0.  0.
</event>
<event>
 4    0  0.2193754E-002  0.3053113E+03  0.7546771E-02  0.1082615E+00
         21   -1    0    0  502  501  0.00000000000E+00  0.00000000000E+00  0.11706181154E+03  0.11706181154E+03  0.00000000000E+00 0.  1.
         21   -1    0    0  501  502 -0.00000000000E+00 -0.00000000000E+00 -0.79628859583E+03  0.79628859583E+03  0.00000000000E+00 0. -1.
         25    1    1    2    0    0 -0.17756879756E+03 -0.18656714597E+03 -0.18094896302E+03  0.33868201169E+03  0.12500000000E+03 0.  0.
         25    1    1    2    0    0  0.17756879756E+03  0.18656714597E+03 -0.49827782127E+03  0.57466839568E+03  0.12500000000E+03 0.  0.
</event>
<event>
 4    0  0.2193754E-002  0.2931026E+03  0.7546771E-02  0.1088740E+00
         21   -1    0    0  502  501  0.00000000000E+00  0.00000000000E+00  0.23229516319E+03  0.23229516319E+03  0.00000000000E+00 0.  1.
         21   -1    0    0  501  502 -0.00000000000E+00 -0.00000000000E+00 -0.36982749174E+03  0.36982749174E+03  0.00000000000E+00 0.  1.
         25    1    1    2    0    0 -0.11840755679E+03  0.14355604650E+03  0.12518761701E+03  0.25675986338E+03  0.12500000000E+03 0.  0.
         25    1    1    2    0    0  0.11840755679E+03 -0.14355604650E+03 -0.26271994556E+03  0.34536279155E+03  0.12500000000E+03 0.  0.
</event>
<event>
 4    0  0.2193754E-002  0.2217649E+03  0.7546771E-02  0.1132574E+00
         21   -1    0    0  502  501  0.00000000000E+00  0.00000000000E+00  0.27313667982E+03  0.27313667982E+03  0.00000000000E+00 0. -1.
         21   -1    0    0  501  502 -0.00000000000E+00 -0.00000000000E+00 -0.18005523003E+03  0.18005523003E+03  0.00000000000E+00 0. -1.
         25    1    1    2    0    0  0.15295202064E+03 -0.39122910077E+02 -0.48379499067E+02  0.20710021401E+03  0.12500000000E+03 0.  0.
         25    1    1    2    0    0 -0.15295202064E+03  0.39122910077E+02  0.14146094886E+03  0.24609169584E+03  0.12500000000E+03 0.  0.
</event>
<event>
 4    0  0.2193754E-002  0.2278979E+03  0.7546771E-02  0.1128128E+00
         21   -1    0    0  502  501  0.00000000000E+00  0.00000000000E+00  0.16218676727E+03  0.16218676727E+03  0.00000000000E+00 0. -1.
         21   -1    0    0  501  502 -0.00000000000E+00 -0.00000000000E+00 -0.32023234301E+03  0.32023234301E+03  0.00000000000E+00 0. -1.
         25    1    1    2    0    0  0.17479532022E+03  0.36028416204E+02 -0.83307983485E+01  0.21805011567E+03  0.12500000000E+03 0.  0.
         25    1    1    2    0    0 -0.17479532022E+03 -0.36028416204E+02 -0.14971477738E+03  0.26436899461E+03  0.12500000000E+03 0.  0.
</event>
<event>
 4    0  0.2193754E-002  0.3278299E+03  0.7546771E-02  0.1072101E+00
         21   -1    0    0  502  501  0.00000000000E+00  0.00000000000E+00  0.53739835211E+03  0.53739835211E+03  0.00000000000E+00 0. -1.
         21   -1    0    0  501  502 -0.00000000000E+00 -0.00000000000E+00 -0.19998659873E+03  0.19998659873E+03  0.00000000000E+00 0. -1.
         25    1    1    2    0    0  0.30035611618E+03  0.38140366450E+02  0.18375195800E+03  0.37557724391E+03  0.12500000000E+03 0.  0.
         25    1    1    2    0    0 -0.30035611618E+03 -0.38140366450E+02  0.15365979537E+03  0.36180770693E+03  0.12500000000E+03 0.  0.
</event>
<event>
 4    0  0.2193754E-002  0.1970692E+03  0.7546771E-02  0.1152236E+00
         21   -1    0    0  502  501  0.00000000000E+00  0.00000000000E+00  0.33185347868E+03  0.33185347868E+03  0.00000000000E+00 0.  1.
         21   -1    0    0  501  502 -0.00000000000E+00 -0.00000000000E+00 -0.11702841719E+03  0.11702841719E+03  0.00000000000E+00 0.  1.
         25    1    1    2    0    0  0.91855559343E+02  0.68661119242E+02  0.22164019996E+03  0.27910781307E+03  0.12500000000E+03 0.  0.
         25    1    1    2    0    0 -0.91855559343E+02 -0.68661119242E+02 -0.68151384657E+01  0.16977408280E+03  0.12500000000E+03 0.  0.
</event>
<event>
 4    0  0.2193754E-002  0.1967610E+03  0.7546771E-02  0.1152501E+00
         21   -1    0    0  502  501  0.00000000000E+00  0.00000000000E+00  0.13551191030E+04  0.13551191030E+04  0.00000000000E+00 0. -1.
         21   -1    0    0  501  502 -0.00000000000E+00 -0.00000000000E+00 -0.28569357686E+02  0.28569357686E+02  0.00000000000E+00 0. -1.
         25    1    1    2    0    0 -0.79213099235E+02 -0.31697854509E+02  0.22115405671E+03  0.26798056995E+03  0.12500000000E+03 0.  0.
         25    1    1    2    0    0  0.79213099235E+02  0.31697854509E+02  0.11053956886E+04  0.11157078908E+04  0.12500000000E+03 0.  0.
</event>
<event>
 4    0  0.2193754E-002  0.1664649E+03  0.7546771E-02  0.1181585E+00
         21   -1    0    0  502  501  0.00000000000E+00  0.00000000000E+00  0.12646187575E+03  0.12646187575E+03  0.00000000000E+00 0.  1.
         21   -1    0    0  501  502 -0.00000000000E+00 -0.00000000000E+00 -0.21912193612E+03  0.21912193612E+03  0.00000000000E+00 0.  1.
         25    1    1    2    0    0 -0.30017946260E+02 -0.47437246739E+02  0.51783416097E+02  0.14648512436E+03  0.12500000000E+03 0.  0.
         25    1    1    2    0    0  0.30017946260E+02  0.47437246739E+02 -0.14444347647E+03  0.19909868751E+03  0.12500000000E+03 0.  0.
</event>
<event>
 4    0  0.2193754E-002  0.1692985E+03  0.7546771E-02  0.1178581E+00
         21   -1    0    0  502  501  0.00000000000E+00  0.00000000000E+00  0.21612918009E+03  0.21612918009E+03  0.00000000000E+00 0. -1.
         21   -1    0    0  501  502 -0.00000000000E+00 -0.00000000000E+00 -0.13261512373E+03  0.13261512373E+03  0.00000000000E+00 0. -1.
         25    1    1    2    0    0  0.74630880111E+02  0.78534764138E+02  0.78886217490E+02  0.18326350633E+03  0.12500000000E+03 0.  0.
         25    1    1    2    0    0 -0.74630880111E+02 -0.78534764138E+02  0.46278388684E+01  0.16548079749E+03  0.12500000000E+03 0.  0.
</event>
<event>
 4    0  0.2193754E-002  0.2848955E+03  0.7546771E-02  0.1093045E+00
         21   -1    0    0  502  501  0.00000000000E+00  0.00000000000E+00  0.28595847246E+03  0.28595847246E+03  0.00000000000E+00 0.  1.
         21   -1    0    0  501  502 -0.00000000000E+00 -0.00000000000E+00 -0.28383656863E+03  0.28383656863E+03  0.00000000000E+00 0.  1.
         25    1    1    2    0    0 -0.21947257238E+03 -0.16049116060E+02  0.13188497413E+03  0.28538470624E+03  0.12500000000E+03 0.  0.
         25    1    1    2    0    0  0.21947257238E+03  0.16049116060E+02 -0.12976307031E+03  0.28441033485E+03  0.12500000000E+03 0.  0.
</event>
<event>
 4    0  0.2193754E-002  0.2083717E+03  0.7546771E-02  0.1142862E+00
         21   -1    0    0  502  501  0.00000000000E+00  0.00000000000E+00  0.22864248217E+03  0.22864248217E+03  0.00000000000E+00 0.  1.
         21   -1    0    0  501  502 -0.00000000000E+00 -0.00000000000E+00 -0.18989805398E+03  0.18989805398E+03  0.00000000000E+00 0.  1.
         25    1    1    2    0    0  0.13598911488E+03  0.22357800023E+02  0.11358962490E+03  0.21799200323E+03  0.12500000000E+03 0.  0.
         25    1    1    2    0    0 -0.13598911488E+03 -0.22357800023E+02 -0.74845196704E+02  0.20054853292E+03  0.12500000000E+03 0.  0.
</event>
<event>
 4    0  0.2193754E-002  0.2146234E+03  0.7546771E-02  0.1137956E+00
         21   -1    0    0  502  501  0.00000000000E+00  0.00000000000E+00  0.10404893041E+04  0.10404893041E+04  0.00000000000E+00 0.  1.
         21   -1    0    0  501  502 -0.00000000000E+00 -0.00000000000E+00 -0.44270717138E+02  0.44270717138E+02  0.00000000000E+00 0.  1.
         25    1    1    2    0    0  0.16456088387E+03  0.82221330463E+01  0.64306844392E+03  0.67550715136E+03  0.12500000000E+03 0.  0.
         25    1    1    2    0    0 -0.16456088387E+03 -0.82221330463E+01  0.35315014303E+03  0.40925286987E+03  0.12500000000E+03 0.  0.
</event>
<event>
 4    0  0.2193754E-002  0.2803916E+03  0.7546771E-02  0.1095475E+00
         21   -1    0    0  502  501  0.00000000000E+00  0.00000000000E+00  0.30168820242E+03  0.30168820242E+03  0.00000000000E+00 0. -1.
         21   -1    0    0  501  502 -0.00000000000E+00 -0.00000000000E+00 -0.26059830993E+03  0.26059830993E+03  0.00000000000E+00 0. -1.
         25    1    1    2    0    0 -0.62825131089E+02  0.24151535060E+03  0.47408073741E+02  0.28310631771E+03  0.12500000000E+03 0.  0.
         25    1    1    2    0    0  0.62825131089E+02 -0.24151535060E+03 -0.63181812499E+01  0.27918019465E+03  0.12500000000E+03 0.  0.
</event>
<event>
 4    0  0.2193754E-002  0.1855253E+03  0.7546771E-02  0.1162560E+00
         21   -1    0    0  502  501  0.00000000000E+00  0.00000000000E+00  0.61915041109E+03  0.61915041109E+03  0.00000000000E+00 0.  1.
         21   -1    0    0  501  502 -0.00000000000E+00 -0.00000000000E+00 -0.55591707869E+02  0.55591707869E+02  0.00000000000E+00 0.  1.
         25    1    1    2    0    0 -0.12752485118E+03  0.22391782476E+02  0.36372429983E+03  0.40581319086E+03  0.12500000000E+03 0.  0.
         25    1    1    2    0    0  0.12752485118E+03 -0.22391782476E+02  0.19983440340E+03  0.26892892810E+03  0.12500000000E+03 0.  0.
</event>
<event>
 4    0  0.2193754E-002  0.2113776E+03  0.7546771E-02  0.1140480E+00
         21   -1    0    0  502  501  0.00000000000E+00  0.00000000000E+00  0.52674570419E+02  0.52674570419E+02  0.00000000000E+00 0.  1.
         21   -1    0    0  501  502 -0.00000000000E+00 -0.00000000000E+00 -0.84823659700E+03  0.84823659700E+03  0.00000000000E+00 0.  1.
         25    1    1    2    0    0  0.90008649536E+02  0.11679679822E+03 -0.21554911290E+03  0.28953319177E+03  0.12500000000E+03 0.  0.
         25    1    1    2    0    0 -0.90008649536E+02 -0.11679679822E+03 -0.58001291369E+03  0.61137797565E+03  0.12500000000E+03 0.  0.
</event>
<event>
 4    0  0.2193754E-002  0.2871846E+03  0.7546771E-02  0.1091828E+00
         21   -1    0    0  502  501  0.00000000000E+00  0.00000000000E+00  0.15909551465E+03  0.15909551465E+03  0.00000000000E+00 0. -1.
         21   -1    0    0  501  502 -0.00000000000E+00 -0.00000000000E+00 -0.51839911005E+03  0.51839911005E+03  0.00000000000E+00 0. -1.
         25    1    1    2    0    0 -0.35699613621E+02 -0.13318495058E+03  0.78335310418E+02  0.20192601202E+03  0.12500000000E+03 0.  0.
         25    1    1    2    0    0  0.35699613621E+02  0.13318495058E+03 -0.43763890582E+03  0.47556861268E+03  0.12500000000E+03 0.  0.
</event>
<event>
 4    0  0.2193754E-002  0.2717897E+03  0.7546771E-02  0.1100260E+00
         21   -1    0    0  502  501  0.00000000000E+00  0.00000000000E+00  0.38160749645E+03  0.38160749645E+03  0.00000000000E+00 0.  1.
         21   -1    0    0  501  502 -0.00000000000E+00 -0.00000000000E+00 -0.19357494402E+03  0.19357494402E+03  0.00000000000E+00 0.  1.
         25    1    1    2    0    0 -0.12399119961E+03  0.18688204775E+03  0.18833871840E+03  0.31842611419E+03  0.12500000000E+03 0.  0.
         25    1    1    2    0    0  0.12399119961E+03 -0.18688204775E+03 -0.30616596901E+00  0.25675632629E+03  0.12500000000E+03 0.  0.
</event>
<event>
 4    0  0.2193754E-002  0.3573488E+03  0.7546771E-02  0.1059639E+00
         21   -1    0    0  502  501  0.00000000000E+00  0.00000000000E+00  0.24552990223E+03  0.24552990223E+03  0.00000000000E+00 0.  1.
         21   -1    0    0  501  502 -0.00000000000E+00 -0.00000000000E+00 -0.52009225493E+03  0.52009225493E+03  0.00000000000E+00 0.  1.
         25    1    1    2    0    0 -0.46493053754E+02 -0.26378941466E+03  0.77842728805E+02  0.30566476696E+03  0.12500000000E+03 0.  0.
         25    1    1    2    0    0  0.46493053754E+02  0.26378941466E+03 -0.35240508151E+03  0.45995739021E+03  0.12500000000E+03 0.  0.
</event>
<event>
 4    0  0.2193754E-002  0.1936921E+03  0.7546771E-02  0.1155173E+00
         21   -1    0    0  502  501  0.00000000000E+00  0.00000000000E+00  0.51702679856E+02  0.51702679856E+02  0.00000000000E+00 0. -1.
         21   -1    0    0  501  502 -0.00000000000E+00 -0.00000000000E+00 -0.72562216487E+03  0.72562216487E+03  0.00000000000E+00 0. -1.
         25    1    1    2    0    0 -0.12620187226E+03 -0.56291651691E+02 -0.44306216292E+03  0.48065033322E+03  0.12500000000E+03 0.  0.
         25    1    1    2    0    0  0.12620187226E+03  0.56291651691E+02 -0.23085732209E+03  0.29667451151E+03  0.12500000000E+03 0.  0.
</event>
<event>
 4    0  0.2193754E-002  0.1566534E+03  0.7546771E-02  0.1192528E+00
         21   -1    0    0  502  501  0.00000000000E+00  0.00000000000E+00  0.18590162924E+03  0.18590162924E+03  0.00000000000E+00 0. -1.
         21   -1    0    0  501  502 -0.00000000000E+00 -0.00000000000E+00 -0.13200676189E+03  0.13200676189E+03  0.00000000000E+00 0. -1.
         25    1    1    2    0    0 -0.36487537049E+02  0.24750627674E+02 -0.57773431826E+02  0.14459150513E+03  0.12500000000E+03 0.  0.
         25    1    1    2    0    0  0.36487537049E+02 -0.24750627674E+02  0.11166829918E+03  0.17331688600E+03  0.12500000000E+03 0.  0.
</event>
<event>
 4    0  0.2193754E-002  0.1740254E+03  0.7546771E-02  0.1173714E+00
         21   -1    0    0  502  501  0.00000000000E+00  0.00000000000E+00  0.40897649683E+03  0.40897649683E+03  0.00000000000E+00 0.  1.
         21   -1    0    0  501  502 -0.00000000000E+00 -0.00000000000E+00 -0.74050345498E+02  0.74050345498E+02  0.00000000000E+00 0.  1.
         25    1    1    2    0    0  0.15179719501E+02 -0.90103168399E+02  0.57214663559E+02  0.16506823609E+03  0.12500000000E+03 0.  0.
         25    1    1    2    0    0 -0.15179719501E+02  0.90103168399E+02  0.27771148778E+03  0.31795860624E+03  0.12500000000E+03 0.  0.
</event>
<event>
 4    0  0.2193754E-002  0.2688581E+03  0.7546771E-02  0.1101935E+00
         21   -1    0    0  502  501  0.00000000000E+00  0.00000000000E+00  0.84975727105E+02  0.84975727105E+02  0.00000000000E+00 0.  1.
         21   -1    0    0  501  502 -0.00000000000E+00 -0.00000000000E+00 -0.85065085206E+03  0.85065085206E+03  0.00000000000E+00 0.  1.
         25    1    1    2    0    0 -0.23668665279E+02 -0.23463270909E+03 -0.32653675220E+03  0.42173921376E+03  0.12500000000E+03 0.  0.
         25    1    1    2    0    0  0.23668665279E+02  0.23463270909E+03 -0.43913837276E+03  0.51388736540E+03  0.12500000000E+03 0.  0.
</event>
<event>
 4    0  0.2193754E-002  0.2552655E+03  0.7546771E-02  0.1110022E+00
         21   -1    0    0  502  501  0.00000000000E+00  0.00000000000E+00  0.64995946889E+02  0.64995946889E+02  0.00000000000E+00 0.  1.
         21   -1    0    0  501  502 -0.00000000000E+00 -0.00000000000E+00 -0.10025310625E+04  0.10025310625E+04  0.00000000000E+00 0.  1.
         25    1    1    2    0    0  0.49021013903E+02 -0.20272468244E+03 -0.63120981655E+03  0.67642530200E+03  0.12500000000E+03 0.  0.
         25    1    1    2    0    0 -0.49021013903E+02  0.20272468244E+03 -0.30632529904E+03  0.39110170737E+03  0.12500000000E+03 0.  0.
</event>
<event>
 4    0  0.2193754E-002  0.1665665E+03  0.7546771E-02  0.1181477E+00
         21   -1    0    0  502  501  0.00000000000E+00  0.00000000000E+00  0.91759486002E+02  0.91759486002E+02  0.00000000000E+00 0. -1.
         21   -1    0    0  501  502 -0.00000000000E+00 -0.00000000000E+00 -0.30235984812E+03  0.30235984812E+03  0.00000000000E+00 0. -1.
         25    1    1    2    0    0  0.39522136653E+02  0.59308033840E+02 -0.60355020337E+01  0.14401690681E+03  0.12500000000E+03 0.  0.
         25    1    1    2    0    0 -0.39522136653E+02 -0.59308033840E+02 -0.20456486009E+03  0.25010242731E+03  0.12500000000E+03 0.  0.
</event>
<event>
 4    0  0.2193754E-002  0.2104503E+03  0.7546771E-02  0.1141210E+00
         21   -1    0    0  502  501  0.00000000000E+00  0.00000000000E+00  0.66807257473E+02  0.66807257473E+02  0.00000000000E+00 0. -1.
         21   -1    0    0  501  502 -0.00000000000E+00 -0.00000000000E+00 -0.66294178662E+03  0.66294178662E+03  0.00000000000E+00 0. -1.
         25    1    1    2    0    0  0.14264145944E+03 -0.86763915685E+02 -0.24934342770E+03  0.32507185045E+03  0.12500000000E+03 0.  0.
         25    1    1    2    0    0 -0.14264145944E+03  0.86763915685E+02 -0.34679110144E+03  0.40467719364E+03  0.12500000000E+03 0.  0.
</event>
<event>
 4    0  0.2193754E-002  0.2249880E+03  0.7546771E-02  0.1130218E+00
         21   -1    0    0  502  501  0.00000000000E+00  0.00000000000E+00  0.16746270999E+03  0.16746270999E+03  0.00000000000E+00 0.  1.
         21   -1    0    0  501  502 -0.00000000000E+00 -0.00000000000E+00 -0.30227375705E+03  0.30227375705E+03  0.00000000000E+00 0.  1.
         25    1    1    2    0    0  0.15983741923E+03 -0.74994851437E+02 -0.28652999810E+01  0.21634564537E+03  0.12500000000E+03 0.  0.
         25    1    1    2    0    0 -0.15983741923E+03  0.74994851437E+02 -0.13194574708E+03  0.25339082166E+03  0.12500000000E+03 0.  0.
</event>
<event>
 4    0  0.2193754E-002  0.1891201E+03  0.7546771E-02  0.1159257E+00
         21   -1    0    0  502  501  0.00000000000E+00  0.00000000000E+00  0.10429511468E+03  0.10429511468E+03  0.00000000000E+00 0. -1.
         21   -1    0    0  501  502 -0.00000000000E+00 -0.00000000000E+00 -0.34293473946E+03  0.34293473946E+03  0.00000000000E+00 0. -1.
         25    1    1    2    0    0 -0.86041517679E+02 -0.11078719646E+03 -0.14480236823E+03  0.23721229207E+03  0.12500000000E+03 0.  0.
         25    1    1    2    0    0  0.86041517679E+02  0.11078719646E+03 -0.93837256549E+02  0.21001756207E+03  0.12500000000E+03 0.  0.
</event>
<event>
 4    0  0.2193754E-002  0.2282514E+03  0.7546771E-02  0.1127877E+00
         21   -1    0    0  502  501  0.00000000000E+00  0.00000000000E+00  0.28482822096E+02  0.28482822096E+02  0.00000000000E+00 0. -1.
         21   -1    0    0  501  502 -0.00000000000E+00 -0.00000000000E+00 -0.18291265810E+04  0.18291265810E+04  0.00000000000E+00 0. -1.
         25    1    1    2    0    0 -0.17550041863E+03 -0.53620463982E+02 -0.68507076045E+03  0.72015449587E+03  0.12500000000E+03 0.  0.
         25    1    1    2    0    0  0.17550041863E+03  0.53620463982E+02 -0.11155729985E+04  0.11374549072E+04  0.12500000000E+03 0.  0.
</event>
<event>
 4    0  0.2193754E-002  0.2056526E+03  0.7546771E-02  0.1145056E+00
         21   -1    0    0  502  501  0.00000000000E+00  0.00000000000E+00  0.14189822916E+03  0.14189822916E+03  0.00000000000E+00 0. -1.
         21   -1    0    0  501  502 -0.00000000000E+00 -0.00000000000E+00 -0.29805156307E+03  0.29805156307E+03  0.00000000000E+00 0. -1.
         25    1    1    2    0    0 -0.52263819330E+02 -0.17732282010E+02 -0.24247511323E+03  0.27832556687E+03  0.12500000000E+03 0.  0.
         25    1    1    2    0    0  0.52263819330E+02  0.17732282010E+02  0.86321779324E+02  0.16162422536E+03  0.12500000000E+03 0.  0.
</event>
<event>
 4    0  0.2193754E-002  0.2603347E+03  0.7546771E-02  0.1106942E+00
         21   -1    0    0  502  501  0.00000000000E+00  0.00000000000E+00  0.16275055130E+03  0.16275055130E+03  0.00000000000E+00 0. -1.
         21   -1    0    0  501  502 -0.00000000000E+00 -0.00000000000E+00 -0.41642949759E+03  0.41642949759E+03  0.00000000000E+00 0. -1.
         25    1    1    2    0    0 -0.10684665781E+03 -0.17310714832E+03 -0.24226335992E+03  0.34014530519E+03  0.12500000000E+03 0.  0.
         25    1    1    2    0    0  0.10684665781E+03  0.17310714832E+03 -0.11415586370E+02  0.23903474370E+03  0.12500000000E+03 0.  0.
</event>
<event>
 4    0  0.2193754E-002  0.2107798E+03  0.7546771E-02  0.1140950E+00
         21   -1    0    0  502  501  0.00000000000E+00  0.00000000000E+00  0.76051875941E+02  0.76051875941E+02  0.00000000000E+00 0. -1.
         21   -1    0    0  501  502 -0.00000000000E+00 -0.00000000000E+00 -0.58418171884E+03  0.58418171884E+03  0.00000000000E+00 0. -1.
         25    1    1    2    0    0  0.17376968064E+02 -0.16518833630E+03 -0.30863350471E+03  0.37211394183E+03  0.12500000000E+03 0.  0.
         25    1    1    2    0    0 -0.17376968064E+02  0.16518833630E+03 -0.19949633819E+03  0.28811965296E+03  0.12500000000E+03 0.  0.
</event>
<event>
 4    0  0.2193754E-002  0.1979914E+03  0.7546771E-02  0.1151445E+00
         21   -1    0    0  502  501  0.00000000000E+00  0.00000000000E+00  0.24276725937E+02  0.24276725937E+02  0.00000000000E+00 0. -1.
         21   -1    0    0  501  502 -0.00000000000E+00 -0.00000000000E+00 -0.16147404462E+04  0.16147404462E+04  0.00000000000E+00 0. -1.
         25    1    1    2    0    0 -0.91243180574E+02 -0.12346107445E+03 -0.80668483760E+03  0.83062228608E+03  0.12500000000E+03 0.  0.
         25    1    1    2    0    0  0.91243180574E+02  0.12346107445E+03 -0.78377888263E+03  0.80839488603E+03  0.12500000000E+03 0.  0.
</event>
<event>
 4    0  0.2193754E-002  0.2469653E+03  0.7546771E-02  0.1115238E+00
         21   -1    0    0  502  501  0.00000000000E+00  0.00000000000E+00  0.38944479864E+03  0.38944479864E+03  0.00000000000E+00 0.  1.
         21   -1    0    0  501  502 -0.00000000000E+00 -0.00000000000E+00 -0.15661238365E+03  0.15661238365E+03  0.00000000000E+00 0. -1.
         25    1    1    2    0    0  0.96161127349E+02  0.18018661012E+03  0.49600402344E+02  0.24453911096E+03  0.12500000000E+03 0.  0.
         25    1    1    2    0    0 -0.96161127349E+02 -0.18018661012E+03  0.18323201264E+03  0.30151807133E+03  0.12500000000E+03 0.  0.
</event>
<event>
 4    0  0.2193754E-002  0.1825202E+03  0.7546771E-02  0.1165386E+00
         21   -1    0    0  502  501  0.00000000000E+00  0.00000000000E+00  0.10147175517E+03  0.10147175517E+03  0.00000000000E+00 0.  1.
         21   -1    0    0  501  502 -0.00000000000E+00 -0.00000000000E+00 -0.32830439019E+03  0.32830439019E+03  0.00000000000E+00 0.  1.
         25    1    1    2    0    0  0.11118770196E+03 -0.42167251024E+02 -0.43289613452E+02  0.17787572279E+03  0.12500000000E+03 0.  0.
         25    1    1    2    0    0 -0.11118770196E+03  0.42167251024E+02 -0.18354302156E+03  0.25190042257E+03  0.12500000000E+03 0.  0.
</event>
<event>
 4    0  0.2193754E-002  0.2079408E+03  0.7546771E-02  0.1143207E+00
         21   -1    0    0  502  501  0.00000000000E+00  0.00000000000E+00  0.25883903857E+02  0.25883903857E+02  0.00000000000E+00 0. -1.
         21   -1    0    0  501  502 -0.00000000000E+00 -0.00000000000E+00 -0.16705127190E+04  0.16705127190E+04  0.00000000000E+00 0. -1.
         25    1    1    2    0    0  0.13393759992E+03 -0.81445502913E+02 -0.10472813291E+04  0.10663000670E+04  0.12500000000E+03 0.  0.
         25    1    1    2    0    0 -0.13393759992E+03  0.81445502913E+02 -0.59734748612E+03  0.63009655593E+03  0.12500000000E+03 0.  0.
</event>
<event>
 4    0  0.2193754E-002  0.2149481E+03  0.7546771E-02  0.1137706E+00
         21   -1    0    0  502  501  0.00000000000E+00  0.00000000000E+00  0.20106489733E+03  0.20106489733E+03  0.00000000000E+00 0. -1.
         21   -1    0    0  501  502 -0.00000000000E+00 -0.00000000000E+00 -0.22978997136E+03  0.22978997136E+03  0.00000000000E+00 0. -1.
         25    1    1    2    0    0 -0.11230753134E+03 -0.75621905539E+02 -0.12527113928E+03  0.22282170569E+03  0.12500000000E+03 0.  0.
         25    1    1    2    0    0  0.11230753134E+03  0.75621905539E+02  0.96546065252E+02  0.20803316300E+03  0.12500000000E+03 0.  0.
</event>
<event>
 4    0  0.2193754E-002  0.2457409E+03  0.7546771E-02  0.1116026E+00
         21   -1    0    0  502  501  0.00000000000E+00  0.00000000000E+00  0.12268655137E+04  0.12268655137E+04  0.00000000000E+00 0.  1.
         21   -1    0    0  501  502 -0.00000000000E+00 -0.00000000000E+00 -0.49221863387E+02  0.49221863387E+02  0.00000000000E+00 0.  1.
         25    1    1    2    0    0 -0.17931199921E+03  0.43038426821E+00  0.88039077778E+03  0.90711956207E+03  0.12500000000E+03 0.  0.
         25    1    1    2    0    0  0.17931199921E+03 -0.43038426821E+00  0.29725287254E+03  0.36896781503E+03  0.12500000000E+03 0.  0.
</event>
<event>
 4    0  0.2193754E-002  0.2873299E+03  0.7546771E-02  0.1091752E+00
         21   -1    0    0  502  501  0.00000000000E+00  0.00000000000E+00  0.14244287440E+04  0.14244287440E+04  0.00000000000E+00 0.  1.
         21   -1    0    0  501  502 -0.00000000000E+00 -0.00000000000E+00 -0.57958985373E+02  0.57958985373E+02  0.00000000000E+00 0.  1.
         25    1    1    2    0    0  0.17590028014E+03  0.18776931025E+03  0.61328927877E+03  0.67671778599E+03  0.12500000000E+03 0.  0.
         25    1    1    2    0    0 -0.17590028014E+03 -0.18776931025E+03  0.75318047983E+03  0.80566994335E+03  0.12500000000E+03 0.  0.
</event>
<event>
 4    0  0.2193754E-002  0.2241770E+03  0.7546771E-02  0.1130807E+00
         21   -1    0    0  502  501  0.00000000000E+00  0.00000000000E+00  0.32995076945E+03  0.32995076945E+03  0.00000000000E+00 0.  1.
         21   -1    0    0  501  502 -0.00000000000E+00 -0.00000000000E+00 -0.15231158964E+03  0.15231158964E+03  0.00000000000E+00 0.  1.
         25    1    1    2    0    0  0.89752109790E+02 -0.77541237291E+02  0.24305977947E+03  0.29794486250E+03  0.12500000000E+03 0.  0.
         25    1    1    2    0    0 -0.89752109790E+02  0.77541237291E+02 -0.65420599661E+02  0.18431749660E+03  0.12500000000E+03 0.  0.
</event>
<event>
 4    0  0.2193754E-002  0.1818984E+03  0.7546771E-02  0.1165978E+00
         21   -1    0    0  502  501  0.00000000000E+00  0.00000000000E+00  0.19590926534E+03  0.19590926534E+03  0.00000000000E+00 0. -1.
         21   -1    0    0  501  502 -0.00000000000E+00 -0.00000000000E+00 -0.16888946362E+03  0.16888946362E+03  0.00000000000E+00 0. -1.
         25    1    1    2    0    0 -0.90411690595E+02 -0.82939192280E+02 -0.35705087801E+02  0.17875412361E+03  0.12500000000E+03 0.  0.
         25    1    1    2    0    0  0.90411690595E+02  0.82939192280E+02  0.62724889520E+02  0.18604460534E+03  0.12500000000E+03 0.  0.
</event>
<event>
 4    0  0.2193754E-002  0.2042903E+03  0.7546771E-02  0.1146169E+00
         21   -1    0    0  502  501  0.00000000000E+00  0.00000000000E+00  0.45353823527E+02  0.45353823527E+02  0.00000000000E+00 0. -1.
         21   -1    0    0  501  502 -0.00000000000E+00 -0.00000000000E+00 -0.92019831902E+03  0.92019831902E+03  0.00000000000E+00 0. -1.
         25    1    1    2    0    0 -0.12610214456E+03  0.89842256220E+02 -0.54664470329E+03  0.58173775320E+03  0.12500000000E+03 0.  0.
         25    1    1    2    0    0  0.12610214456E+03 -0.89842256220E+02 -0.32819979221E+03  0.38381438935E+03  0.12500000000E+03 0.  0.
</event>
<event>
 4    0  0.2193754E-002  0.1734651E+03  0.7546771E-02  0.1174282E+00
         21   -1    0    0  502  501  0.00000000000E+00  0.00000000000E+00  0.14255006485E+04  0.14255006485E+04  0.00000000000E+00 0.  1.
         21   -1    0    0  501  502 -0.00000000000E+00 -0.00000000000E+00 -0.21108473417E+02  0.21108473417E+02  0.00000000000E+00 0.  1.
         25    1    1    2    0    0  0.13960839534E+02 -0.11055714938E+03  0.89086727187E+03  0.90646968202E+03  0.12500000000E+03 0.  0.
         25    1    1    2    0    0 -0.13960839534E+02  0.11055714938E+03  0.51352490321E+03  0.54013943990E+03  0.12500000000E+03 0.  0.
</event>
<event>
 4    0  0.2193754E-002  0.1859121E+03  0.7546771E-02  0.1162201E+00
         21   -1    0    0  502  501  0.00000000000E+00  0.00000000000E+00  0.31249616254E+03  0.31249616254E+03  0.00000000000E+00 0. -1.
         21   -1    0    0  501  502 -0.00000000000E+00 -0.00000000000E+00 -0.11060394977E+03  0.11060394977E+03  0.00000000000E+00 0. -1.
         25    1    1    2    0    0 -0.79817557995E+02 -0.83832680532E+02  0.18563816428E+03  0.25196287212E+03  0.12500000000E+03 0.  0.
         25    1    1    2    0    0  0.79817557995E+02  0.83832680532E+02  0.16254048487E+02  0.17113724019E+03  0.12500000000E+03 0.  0.
</event>
<event>
 4    0  0.2193754E-002  0.1939192E+03  0.7546771E-02  0.1154973E+00
         21   -1    0    0  502  501  0.00000000000E+00  0.00000000000E+00  0.81291484220E+02  0.81291484220E+02  0.00000000000E+00 0.  1.
         21   -1    0    0  501  502 -0.00000000000E+00 -0.00000000000E+00 -0.46259012532E+03  0.46259012532E+03  0.00000000000E+00 0.  1.
         25    1    1    2    0    0 -0.68627434402E+02 -0.58505098235E+02 -0.35566779336E+03  0.38763017234E+03  0.12500000000E+03 0.  0.
         25    1    1    2    0    0  0.68627434402E+02  0.58505098235E+02 -0.25630847739E+02  0.15625143720E+03  0.12500000000E+03 0.  0.
</event>
<event>
 4    0  0.2193754E-002  0.1864102E+03  0.7546771E-02  0.1161739E+00
         21   -1    0    0  502  501  0.00000000000E+00  0.00000000000E+00  0.30417268516E+02  0.30417268516E+02  0.00000000000E+00 0.  1.
         21   -1    0    0  501  502 -0.00000000000E+00 -0.00000000000E+00 -0.11424030398E+04  0.11424030398E+04  0.00000000000E+00 0.  1.
         25    1    1    2    0    0  0.49792495644E+02  0.12418600362E+02 -0.95995955012E+03  0.96942294801E+03  0.12500000000E+03 0.  0.
         25    1    1    2    0    0 -0.49792495644E+02 -0.12418600362E+02 -0.15202622115E+03  0.20339736029E+03  0.12500000000E+03 0.  0.
</event>
<event>
 4    0  0.2193754E-002  0.1784438E+03  0.7546771E-02  0.1169318E+00
         21   -1    0    0  502  501  0.00000000000E+00  0.00000000000E+00  0.62166739666E+02  0.62166739666E+02  0.00000000000E+00 0.  1.
         21   -1    0    0  501  502 -0.00000000000E+00 -0.00000000000E+00 -0.51220596973E+03  0.51220596973E+03  0.00000000000E+00 0.  1.
         25    1    1    2    0    0 -0.72036860786E+02  0.92718035911E+02 -0.30437485524E+03  0.34936370160E+03  0.12500000000E+03 0.  0.
         25    1    1    2    0    0  0.72036860786E+02 -0.92718035911E+02 -0.14566437482E+03  0.22500900779E+03  0.12500000000E+03 0.  0.
</event>
<event>
 4    0  0.2193754E-002  0.2764748E+03  0.7546771E-02  0.1097630E+00
         21   -1    0    0  502  501  0.00000000000E+00  0.00000000000E+00  0.26349610362E+03  0.26349610362E+03  0.00000000000E+00 0. -1.
         21   -1    0    0  501  502 -0.00000000000E+00 -0.00000000000E+00 -0.29009270531E+03  0.29009270531E+03  0.00000000000E+00 0. -1.
         25    1    1    2    0    0 -0.21985494709E+03  0.82701124037E+02 -0.88469218493E+02  0.28040591345E+03  0.12500000000E+03 0.  0.
         25    1    1    2    0    0  0.21985494709E+03 -0.82701124037E+02  0.61872616807E+02  0.27318289548E+03  0.12500000000E+03 0.  0.
</event>
<event>
 4    0  0.2193754E-002  0.2370579E+03  0.7546771E-02  0.1121768E+00
         21   -1    0    0  502  501  0.00000000000E+00  0.00000000000E+00  0.79289261867E+02  0.79289261867E+02  0.00000000000E+00 0.  1.
         21   -1    0    0  501  502 -0.00000000000E+00 -0.00000000000E+00 -0.70875218700E+03  0.70875218700E+03  0.00000000000E+00 0.  1.
         25    1    1    2    0    0  0.94297513427E+01 -0.36662749704E+02 -0.64355733826E+03  0.65667657568E+03  0.12500000000E+03 0.  0.
         25    1    1    2    0    0 -0.94297513427E+01  0.36662749704E+02  0.14094413122E+02  0.13136487319E+03  0.12500000000E+03 0.  0.
</event>
<event>
 4    0  0.2193754E-002  0.2702418E+03  0.7546771E-02  0.1101141E+00
         21   -1    0    0  502  501  0.00000000000E+00  0.00000000000E+00  0.13804016193E+03  0.13804016193E+03  0.00000000000E+00 0.  1.
         21   -1    0    0  501  502 -0.00000000000E+00 -0.00000000000E+00 -0.52905367825E+03  0.52905367825E+03  0.00000000000E+00 0.  1.
         25    1    1    2    0    0 -0.18788701080E+03  0.91831241268E+02 -0.51193292812E+02  0.24895834778E+03  0.12500000000E+03 0.  0.
         25    1    1    2    0    0  0.18788701080E+03 -0.91831241268E+02 -0.33982022351E+03  0.41813549240E+03  0.12500000000E+03 0.  0.
</event>
<event>
 4    0  0.2193754E-002  0.1853806E+03  0.7546771E-02  0.1162695E+00
         21   -1    0    0  502  501  0.00000000000E+00  0.00000000000E+00  0.24934254077E+03  0.24934254077E+03  0.00000000000E+00 0.  1.
         21   -1    0    0  501  502 -0.00000000000E+00 -0.00000000000E+00 -0.13782627736E+03  0.13782627736E+03  0.00000000000E+00 0.  1.
         25    1    1    2    0    0  0.51766821602E+02 -0.53470725764E+02 -0.64226759433E+02  0.15902515197E+03  0.12500000000E+03 0.  0.
         25    1    1    2    0    0 -0.51766821602E+02  0.53470725764E+02  0.17574302284E+03  0.22814366616E+03  0.12500000000E+03 0.  0.
</event>
<event>
 4    0  0.2193754E-002  0.2069311E+03  0.7546771E-02  0.1144020E+00
         21   -1    0    0  502  501  0.00000000000E+00  0.00000000000E+00  0.14534720726E+03  0.14534720726E+03  0.00000000000E+00 0.  1.
         21   -1    0    0  501  502 -0.00000000000E+00 -0.00000000000E+00 -0.29460819222E+03  0.29460819222E+03  0.00000000000E+00 0.  1.
         25    1    1    2    0    0  0.87366739589E+02  0.13383119812E+03 -0.11783448692E+03  0.23463525542E+03  0.12500000000E+03 0.  0.
         25    1    1    2    0    0 -0.87366739589E+02 -0.13383119812E+03 -0.31426498033E+02  0.20532014406E+03  0.12500000000E+03 0.  0.
</event>
<event>
 4    0  0.2193754E-002  0.2677206E+03  0.7546771E-02  0.1102591E+00
         21   -1    0    0  502  501  0.00000000000E+00  0.00000000000E+00  0.20436100780E+03  0.20436100780E+03  0.00000000000E+00 0.  1.
         21   -1    0    0  501  502 -0.00000000000E+00 -0.00000000000E+00 -0.35072409519E+03  0.35072409519E+03  0.00000000000E+00 0.  1.
         25    1    1    2    0    0 -0.30972489066E+02 -0.10873714192E+03 -0.28881814448E+03  0.33440092956E+03  0.12500000000E+03 0.  0.
         25    1    1    2    0    0  0.30972489066E+02  0.10873714192E+03  0.14245505709E+03  0.22068417343E+03  0.12500000000E+03 0.  0.
</event>
<event>
 4    0  0.2193754E-002  0.2125893E+03  0.7546771E-02  0.1139532E+00
         21   -1    0    0  502  501  0.00000000000E+00  0.00000000000E+00  0.36822916722E+03  0.36822916722E+03  0.00000000000E+00 0.  1.
         21   -1    0    0  501  502 -0.00000000000E+00 -0.00000000000E+00 -0.12273398082E+03  0.12273398082E+03  0.00000000000E+00 0.  1.
         25    1    1    2    0    0  0.15296878626E+03 -0.49131541725E+02  0.19351493445E+03  0.28086720673E+03  0.12500000000E+03 0.  0.
         25    1    1    2    0    0 -0.15296878626E+03  0.49131541725E+02  0.51980251944E+02  0.21009594131E+03  0.12500000000E+03 0.  0.
</event>
<event>
 4    0  0.2193754E-002  0.2049473E+03  0.7546771E-02  0.1145631E+00
         21   -1    0    0  502  501  0.00000000000E+00  0.00000000000E+00  0.17816406997E+04  0.17816406997E+04  0.00000000000E+00 0. -1.
         21   -1    0    0  501  502 -0.00000000000E+00 -0.00000000000E+00 -0.23575675235E+02  0.23575675235E+02  0.00000000000E+00 0. -1.
         25    1    1    2    0    0 -0.14137505596E+03  0.78839779852E+02  0.93742050781E+03  0.95947111775E+03  0.12500000000E+03 0.  0.
         25    1    1    2    0    0  0.14137505596E+03 -0.78839779852E+02  0.82064451667E+03  0.84574525720E+03  0.12500000000E+03 0.  0.
</event>
<event>
 4    0  0.2193754E-002  0.3389578E+03  0.7546771E-02  0.1067241E+00
         21   -1    0    0  502  501  0.00000000000E+00  0.00000000000E+00  0.34618108043E+03  0.34618108043E+03  0.00000000000E+00 0.  1.
         21   -1    0    0  501  502 -0.00000000000E+00 -0.00000000000E+00 -0.33188519660E+03  0.33188519660E+03  0.00000000000E+00 0.  1.
         25    1    1    2    0    0 -0.71325936759E+02  0.79635619184E+02  0.30358885811E+03  0.34528309525E+03  0.12500000000E+03 0.  0.
         25    1    1    2    0    0  0.71325936759E+02 -0.79635619184E+02 -0.28929297429E+03  0.33278318177E+03  0.12500000000E+03 0.  0.
</event>
<event>
 4    0  0.2193754E-002  0.2502923E+03  0.7546771E-02  0.1113120E+00
         21   -1    0    0  502  501  0.00000000000E+00  0.00000000000E+00  0.22947782619E+03  0.22947782619E+03  0.00000000000E+00 0.  1.
         21   -1    0    0  501  502 -0.00000000000E+00 -0.00000000000E+00 -0.27299476678E+03  0.27299476678E+03  0.00000000000E+00 0.  1.
         25    1    1    2    0    0  0.16234566197E+03  0.40536010265E+02 -0.16019877002E+03  0.26322600176E+03  0.12500000000E+03 0.  0.
         25    1    1    2    0    0 -0.16234566197E+03 -0.40536010265E+02  0.11668182942E+03  0.23924659121E+03  0.12500000000E+03 0.  0.
</event>
<event>
 4    0  0.2193754E-002  0.2557636E+03  0.7546771E-02  0.1109716E+00
         21   -1    0    0  502  501  0.00000000000E+00  0.00000000000E+00  0.10151070566E+03  0.10151070566E+03  0.00000000000E+00 0.  1.
         21   -1    0    0  501  502 -0.00000000000E+00 -0.00000000000E+00 -0.64441485040E+03  0.64441485040E+03  0.00000000000E+00 0.  1.
         25    1    1    2    0    0  0.14421670278E+03 -0.14787066420E+03 -0.39454811316E+03  0.46255529863E+03  0.12500000000E+03 0.  0.
         25    1    1    2    0    0 -0.14421670278E+03  0.14787066420E+03 -0.14835603157E+03  0.28337025743E+03  0.12500000000E+03 0.  0.
</event>
<event>
 4    0  0.2193754E-002  0.2176930E+03  0.7546771E-02  0.1135615E+00
         21   -1    0    0  502  501  0.00000000000E+00  0.00000000000E+00  0.40399667664E+02  0.40399667664E+02  0.00000000000E+00 0. -1.
         21   -1    0    0  501  502 -0.00000000000E+00 -0.00000000000E+00 -0.11730353388E+04  0.11730353388E+04  0.00000000000E+00 0. -1.
         25    1    1    2    0    0  0.10765634707E+03 -0.13423420627E+03 -0.43689244194E+03  0.48591019440E+03  0.12500000000E+03 0.  0.
         25    1    1    2    0    0 -0.10765634707E+03  0.13423420627E+03 -0.69574322920E+03  0.72752481207E+03  0.12500000000E+03 0.  0.
</event>
<event>
 4    0  0.2193754E-002  0.2450136E+03  0.7546771E-02  0.1116497E+00
         21   -1    0    0  502  501  0.00000000000E+00  0.00000000000E+00  0.61753794431E+03  0.61753794431E+03  0.00000000000E+00 0.  1.
         21   -1    0    0  501  502 -0.00000000000E+00 -0.00000000000E+00 -0.97211263078E+02  0.97211263078E+02  0.00000000000E+00 0.  1.
         25    1    1    2    0    0 -0.74505454341E+02 -0.16482149219E+03  0.41786299096E+03  0.47217757912E+03  0.12500000000E+03 0.  0.
         25    1    1    2    0    0  0.74505454341E+02  0.16482149219E+03  0.10246369028E+03  0.24257162827E+03  0.12500000000E+03 0.  0.
</event>
<event>
 4    0  0.2193754E-002  0.2038426E+03  0.7546771E-02  0.1146537E+00
         21   -1    0    0  502  501  0.00000000000E+00  0.00000000000E+00  0.16419654732E+03  0.16419654732E+03  0.00000000000E+00 0. -1.
         21   -1    0    0  501  502 -0.00000000000E+00 -0.00000000000E+00 -0.25306136191E+03  0.25306136191E+03  0.00000000000E+00 0. -1.
         25    1    1    2    0    0  0.11732123997E+03  0.10786587371E+03 -0.67938660101E+02  0.21363516001E+03  0.12500000000E+03 0.  0.
         25    1    1    2    0    0 -0.11732123997E+03 -0.10786587371E+03 -0.20926154493E+02  0.20362274922E+03  0.12500000000E+03 0.  0.
</event>
<event>
 4    0  0.2193754E-002  0.2310670E+03  0.7546771E-02  0.1125891E+00
         21   -1    0    0  502  501  0.00000000000E+00  0.00000000000E+00  0.34397006341E+02  0.34397006341E+02  0.00000000000E+00 0. -1.
         21   -1    0    0  501  502 -0.00000000000E+00 -0.00000000000E+00 -0.15522264530E+04  0.15522264530E+04  0.00000000000E+00 0. -1.
         25    1    1    2    0    0  0.35806603012E+02  0.13195938002E+03 -0.28478297785E+03  0.33973774484E+03  0.12500000000E+03 0.  0.
         25    1    1    2    0    0 -0.35806603012E+02 -0.13195938002E+03 -0.12330464688E+04  0.12468857145E+04  0.12500000000E+03 0.  0.
</event>
<event>
 4    0  0.2193754E-002  0.3211200E+03  0.7546771E-02  0.1075135E+00
         21   -1    0    0  502  501  0.00000000000E+00  0.00000000000E+00  0.16031121233E+04  0.16031121233E+04  0.00000000000E+00 0.  1.
         21   -1    0    0  501  502 -0.00000000000E+00 -0.00000000000E+00 -0.64323650898E+02  0.64323650898E+02  0.00000000000E+00 0.  1.
         25    1    1    2    0    0 -0.15593028457E+03 -0.22003623776E+03  0.10848486167E+04  0.11248340859E+04  0.12500000000E+03 0.  0.
         25    1    1    2    0    0  0.15593028457E+03  0.22003623776E+03  0.45393985564E+03  0.54260168827E+03  0.12500000000E+03 0.  0.
</event>
<event>
 4    0  0.2193754E-002  0.2950376E+03  0.7546771E-02  0.1087748E+00
         21   -1    0    0  502  501  0.00000000000E+00  0.00000000000E+00  0.61515482615E+03  0.61515482615E+03  0.00000000000E+00 0.  1.
         21   -1    0    0  501  502 -0.00000000000E+00 -0.00000000000E+00 -0.14150454553E+03  0.14150454553E+03  0.00000000000E+00 0.  1.
         25    1    1    2    0    0  0.18141991990E+03 -0.18256137060E+03  0.32911906027E+03  0.43610342489E+03  0.12500000000E+03 0.  0.
         25    1    1    2    0    0 -0.18141991990E+03  0.18256137060E+03  0.14453122035E+03  0.32055594679E+03  0.12500000000E+03 0.  0.
</event>
<event>
 4    0  0.2193754E-002  0.1851755E+03  0.7546771E-02  0.1162886E+00
         21   -1    0    0  502  501  0.00000000000E+00  0.00000000000E+00  0.14020490861E+04  0.14020490861E+04  0.00000000000E+00 0. -1.
         21   -1    0    0  501  502 -0.00000000000E+00 -0.00000000000E+00 -0.24457043709E+02  0.24457043709E+02  0.00000000000E+00 0. -1.
         25    1    1    2    0    0 -0.55047288794E+02 -0.59557903603E+02  0.11122737727E+04  0.11222100041E+04  0.12500000000E+03 0.  0.
         25    1    1    2    0    0  0.55047288794E+02  0.59557903603E+02  0.26531826971E+03  0.30429612572E+03  0.12500000000E+03 0.  0.
</event>
<event>
 4    0  0.2193754E-002  0.4624767E+03  0.7546771E-02  0.1024065E+00
         21   -1    0    0  502  501  0.00000000000E+00  0.00000000000E+00  0.26930432375E+03  0.26930432375E+03  0.00000000000E+00 0.  1.
         21   -1    0    0  501  502 -0.00000000000E+00 -0.00000000000E+00 -0.79421198803E+03  0.79421198803E+03  0.00000000000E+00 0.  1.
         25    1    1    2    0    0  0.37687599889E+03 -0.16131257663E+03 -0.62630861632E+02  0.43313380236E+03  0.12500000000E+03 0.  0.
         25    1    1    2    0    0 -0.37687599889E+03  0.16131257663E+03 -0.46227680265E+03  0.63038250942E+03  0.12500000000E+03 0.  0.
</event>
<event>
 4    0  0.2193754E-002  0.1293109E+03  0.7546771E-02  0.1228482E+00
         21   -1    0    0  502  501  0.00000000000E+00  0.00000000000E+00  0.81329609547E+02  0.81329609547E+02  0.00000000000E+00 0.  1.
         21   -1    0    0  501  502 -0.00000000000E+00 -0.00000000000E+00 -0.20559936771E+03  0.20559936771E+03  0.00000000000E+00 0.  1.
         25    1    1    2    0    0 -0.32558177451E+02 -0.38463684438E-01 -0.55452328958E+02  0.14057025711E+03  0.12500000000E+03 0.  0.
         25    1    1    2    0    0  0.32558177451E+02  0.38463684438E-01 -0.68817429201E+02  0.14635872014E+03  0.12500000000E+03 0.  0.
</event>
<event>
 4    0  0.2193754E-002  0.2538318E+03  0.7546771E-02  0.1110907E+00
         21   -1    0    0  502  501  0.00000000000E+00  0.00000000000E+00  0.89278602841E+03  0.89278602841E+03  0.00000000000E+00 0. -1.
         21   -1    0    0  501  502 -0.00000000000E+00 -0.00000000000E+00 -0.72168009437E+02  0.72168009437E+02  0.00000000000E+00 0. -1.
         25    1    1    2    0    0 -0.19831941384E+03 -0.93620368383E+02  0.35965320237E+03  0.43939821262E+03  0.12500000000E+03 0.  0.
         25    1    1    2    0    0  0.19831941384E+03  0.93620368383E+02  0.46096481661E+03  0.52555582523E+03  0.12500000000E+03 0.  0.
</event>
<event>
 4    0  0.2193754E-002  0.1975053E+03  0.7546771E-02  0.1151861E+00
         21   -1    0    0  502  501  0.00000000000E+00  0.00000000000E+00  0.59472062513E+03  0.59472062513E+03  0.00000000000E+00 0.  1.
         21   -1    0    0  501  502 -0.00000000000E+00 -0.00000000000E+00 -0.65591028224E+02  0.65591028224E+02  0.00000000000E+00 0.  1.
         25    1    1    2    0    0  0.29054601719E+02 -0.13669775518E+03  0.16080392551E+03  0.24700880270E+03  0.12500000000E+03 0.  0.
         25    1    1    2    0    0 -0.29054601719E+02  0.13669775518E+03  0.36832567140E+03  0.41330285066E+03  0.12500000000E+03 0.  0.
</event>
<event>
 4    0  0.2193754E-002  0.1988467E+03  0.7546771E-02  0.1150716E+00
         21   -1    0    0  502  501  0.00000000000E+00  0.00000000000E+00  0.45526861605E+02  0.45526861605E+02  0.00000000000E+00 0. -1.
         21   -1    0    0  501  502 -0.00000000000E+00 -0.00000000000E+00 -0.86849885927E+03  0.86849885927E+03  0.00000000000E+00 0. -1.
         25    1    1    2    0    0 -0.17236108915E+02  0.11960424799E+03 -0.18969223780E+03  0.25731382526E+03  0.12500000000E+03 0.  0.
         25    1    1    2    0    0  0.17236108915E+02 -0.11960424799E+03 -0.63327975986E+03  0.65671189561E+03  0.12500000000E+03 0.  0.
</event>
<event>
 4    0  0.2193754E-002  0.2612114E+03  0.7546771E-02  0.1106418E+00
         21   -1    0    0  502  501  0.00000000000E+00  0.00000000000E+00  0.58024912380E+03  0.58024912380E+03  0.00000000000E+00 0.  1.
         21   -1    0    0  501  502 -0.00000000000E+00 -0.00000000000E+00 -0.11758980414E+03  0.11758980414E+03  0.00000000000E+00 0.  1.
         25    1    1    2    0    0 -0.51964503448E+02  0.13329013769E+03 -0.81423569013E+01  0.19015222428E+03  0.12500000000E+03 0.  0.
         25    1    1    2    0    0  0.51964503448E+02 -0.13329013769E+03  0.47080167656E+03  0.50768670366E+03  0.12500000000E+03 0.  0.
</event>
<event>
 4    0  0.2193754E-002  0.1889324E+03  0.7546771E-02  0.1159428E+00
         21   -1    0    0  502  501  0.00000000000E+00  0.00000000000E+00  0.11641399582E+03  0.11641399582E+03  0.00000000000E+00 0.  1.
         21   -1    0    0  501  502 -0.00000000000E+00 -0.00000000000E+00 -0.30662509750E+03  0.30662509750E+03  0.00000000000E+00 0.  1.
         25    1    1    2    0    0  0.21155079744E+02  0.13942243090E+03 -0.11030430950E+03  0.21835336575E+03  0.12500000000E+03 0.  0.
         25    1    1    2    0    0 -0.21155079744E+02 -0.13942243090E+03 -0.79906792172E+02  0.20468572758E+03  0.12500000000E+03 0.  0.
</event>
<event>
 4    0  0.2193754E-002  0.4609660E+03  0.7546771E-02  0.1024501E+00
         21   -1    0    0  502  501  0.00000000000E+00  0.00000000000E+00  0.21159688766E+04  0.21159688766E+04  0.00000000000E+00 0. -1.
         21   -1    0    0  501  502 -0.00000000000E+00 -0.00000000000E+00 -0.10042190860E+03  0.10042190860E+03  0.00000000000E+00 0. -1.
         25    1    1    2    0    0 -0.40019216991E+03 -0.53357090590E+02  0.56537275650E+03  0.70588391805E+03  0.12500000000E+03 0.  0.
         25    1    1    2    0    0  0.40019216991E+03  0.53357090590E+02  0.14501742115E+04  0.15105068671E+04  0.12500000000E+03 0.  0.
</event>
<event>
 4    0  0.2193754E-002  0.4426864E+03  0.7546771E-02  0.1029926E+00
         21   -1    0    0  502  501  0.00000000000E+00  0.00000000000E+00  0.64412049567E+02  0.64412049567E+02  0.00000000000E+00 0.  1.
         21   -1    0    0  501  502 -0.00000000000E+00 -0.00000000000E+00 -0.30424623138E+04  0.30424623138E+04  0.00000000000E+00 0.  1.
         25    1    1    2    0    0 -0.17380488795E+03  0.31427406042E+03 -0.22843634969E+04  0.23157974675E+04  0.12500000000E+03 0.  0.
         25    1    1    2    0    0  0.17380488795E+03 -0.31427406042E+03 -0.69368676732E+03  0.79107689594E+03  0.12500000000E+03 0.  0.
</event>
<event>
 4    0  0.2193754E-002  0.1756848E+03  0.7546771E-02  0.1172046E+00
         21   -1    0    0  502  501  0.00000000000E+00  0.00000000000E+00  0.82571145440E+02  0.82571145440E+02  0.00000000000E+00 0.  1.
         21   -1    0    0  501  502 -0.00000000000E+00 -0.00000000000E+00 -0.37380051283E+03  0.37380051283E+03  0.00000000000E+00 0.  1.
         25    1    1    2    0    0  0.88239172657E+02 -0.37528387365E+02 -0.44625594456E+02  0.16374057264E+03  0.12500000000E+03 0.  0.
         25    1    1    2    0    0 -0.88239172657E+02  0.37528387365E+02 -0.24660377294E+03  0.29263108563E+03  0.12500000000E+03 0.  0.
</event>
<event>
 4    0  0.2193754E-002  0.1788839E+03  0.7546771E-02  0.1168888E+00
         21   -1    0    0  502  501  0.00000000000E+00  0.00000000000E+00  0.10253260498E+03  0.10253260498E+03  0.00000000000E+00 0. -1.
         21   -1    0    0  501  502 -0.00000000000E+00 -0.00000000000E+00 -0.31209055890E+03  0.31209055890E+03  0.00000000000E+00 0. -1.
         25    1    1    2    0    0 -0.33111794024E+02  0.50234524521E+01 -0.24790793118E+03  0.27965151228E+03  0.12500000000E+03 0.  0.
         25    1    1    2    0    0  0.33111794024E+02 -0.50234524521E+01  0.38349977266E+02  0.13497165160E+03  0.12500000000E+03 0.  0.
</event>
<event>
 4    0  0.2193754E-002  0.3303747E+03  0.7546771E-02  0.1070971E+00
         21   -1    0    0  502  501  0.00000000000E+00  0.00000000000E+00  0.29974576017E+03  0.29974576017E+03  0.00000000000E+00 0. -1.
         21   -1    0    0  501  502 -0.00000000000E+00 -0.00000000000E+00 -0.36413332618E+03  0.36413332618E+03  0.00000000000E+00 0. -1.
         25    1    1    2    0    0  0.15308895899E+03 -0.15996724339E+02  0.23331212858E+03  0.30618895130E+03  0.12500000000E+03 0.  0.
         25    1    1    2    0    0 -0.15308895899E+03  0.15996724339E+02 -0.29769969459E+03  0.35769013505E+03  0.12500000000E+03 0.  0.
</event>
<event>
 4    0  0.2193754E-002  0.2184439E+03  0.7546771E-02  0.1135049E+00
         21   -1    0    0  502  501  0.00000000000E+00  0.00000000000E+00  0.40737053072E+03  0.40737053072E+03  0.00000000000E+00 0.  1.
         21   -1    0    0  501  502 -0.00000000000E+00 -0.00000000000E+00 -0.11713598667E+03  0.11713598667E+03  0.00000000000E+00 0.  1.
         25    1    1    2    0    0 -0.51058324843E+02 -0.15100340460E+03  0.24326756779E+03  0.31656451203E+03  0.12500000000E+03 0.  0.
         25    1    1    2    0    0  0.51058324843E+02  0.15100340460E+03  0.46966976261E+02  0.20794200537E+03  0.12500000000E+03 0.  0.
</event>
<event>
 4    0  0.2193754E-002  0.2191778E+03  0.7546771E-02  0.1134498E+00
         21   -1    0    0  502  501  0.00000000000E+00  0.00000000000E+00  0.55525068251E+02  0.55525068251E+02  0.00000000000E+00 0. -1.
         21   -1    0    0  501  502 -0.00000000000E+00 -0.00000000000E+00 -0.86517487553E+03  0.86517487553E+03  0.00000000000E+00 0.  1.
         25    1    1    2    0    0  0.93142830143E+02  0.15357024450E+03 -0.43093075645E+03  0.48330706974E+03  0.12500000000E+03 0.  0.
         25    1    1    2    0    0 -0.93142830143E+02 -0.15357024450E+03 -0.37871905083E+03  0.43739287404E+03  0.12500000000E+03 0.  0.
</event>
<event>
 4    0  0.2193754E-002  0.1648234E+03  0.7546771E-02  0.1183356E+00
         21   -1    0    0  502  501  0.00000000000E+00  0.00000000000E+00  0.32921936513E+02  0.32921936513E+02  0.00000000000E+00 0. -1.
         21   -1    0    0  501  502 -0.00000000000E+00 -0.00000000000E+00 -0.82518652422E+03  0.82518652422E+03  0.00000000000E+00 0. -1.
         25    1    1    2    0    0  0.14198236526E+02  0.54492197930E+02 -0.63429600723E+03  0.64894330595E+03  0.12500000000E+03 0.  0.
         25    1    1    2    0    0 -0.14198236526E+02 -0.54492197930E+02 -0.15796858048E+03  0.20916515478E+03  0.12500000000E+03 0.  0.
</event>
<event>
 4    0  0.2193754E-002  0.2797632E+03  0.7546771E-02  0.1095818E+00
         21   -1    0    0  502  501  0.00000000000E+00  0.00000000000E+00  0.49969452239E+02  0.49969452239E+02  0.00000000000E+00 0. -1.
         21   -1    0    0  501  502 -0.00000000000E+00 -0.00000000000E+00 -0.15663062968E+04  0.15663062968E+04  0.00000000000E+00 0.  1.
         25    1    1    2    0    0 -0.80948440021E+02  0.22085648534E+03 -0.51115545080E+03  0.57639841424E+03  0.12500000000E+03 0.  0.
         25    1    1    2    0    0  0.80948440021E+02 -0.22085648534E+03 -0.10051813938E+04  0.10398773348E+04  0.12500000000E+03 0.  0.
</event>
<event>
 4    0  0.2193754E-002  0.2732929E+03  0.7546771E-02  0.1099410E+00
         21   -1    0    0  502  501  0.00000000000E+00  0.00000000000E+00  0.62910023885E+02  0.62910023885E+02  0.00000000000E+00 0. -1.
         21   -1    0    0  501  502 -0.00000000000E+00 -0.00000000000E+00 -0.11872351516E+04  0.11872351516E+04  0.00000000000E+00 0. -1.
         25    1    1    2    0    0  0.20604003012E+03 -0.60482871861E+02 -0.30185145542E+03  0.39096032144E+03  0.12500000000E+03 0.  0.
         25    1    1    2    0    0 -0.20604003012E+03  0.60482871861E+02 -0.82247367227E+03  0.85918485402E+03  0.12500000000E+03 0.  0.
</event>
<event>
 4    0  0.2193754E-002  0.1718420E+03  0.7546771E-02  0.1175940E+00
         21   -1    0    0  502  501  0.00000000000E+00  0.00000000000E+00  0.83271699070E+03  0.83271699070E+03  0.00000000000E+00 0.  1.
         21   -1    0    0  501  502 -0.00000000000E+00 -0.00000000000E+00 -0.35461838972E+02  0.35461838972E+02  0.00000000000E+00 0.  1.
         25    1    1    2    0    0  0.10503208914E+03  0.16654225904E+02  0.52732399609E+03  0.55227230588E+03  0.12500000000E+03 0.  0.
         25    1    1    2    0    0 -0.10503208914E+03 -0.16654225904E+02  0.26993115564E+03  0.31590652380E+03  0.12500000000E+03 0.  0.
</event>
<event>
 4    0  0.2193754E-002  0.1991758E+03  0.7546771E-02  0.1150436E+00
         21   -1    0    0  502  501  0.00000000000E+00  0.00000000000E+00  0.24638080360E+03  0.24638080360E+03  0.00000000000E+00 0. -1.
         21   -1    0    0  501  502 -0.00000000000E+00 -0.00000000000E+00 -0.16101497404E+03  0.16101497404E+03  0.00000000000E+00 0. -1.
         25    1    1    2    0    0 -0.12401307002E+03 -0.47870649533E+02  0.12434029450E+03  0.22080839988E+03  0.12500000000E+03 0.  0.
         25    1    1    2    0    0  0.12401307002E+03  0.47870649533E+02 -0.38974464930E+02  0.18658737776E+03  0.12500000000E+03 0.  0.
</event>
<event>
 4    0  0.2193754E-002  0.2485619E+03  0.7546771E-02  0.1114217E+00
         21   -1    0    0  502  501  0.00000000000E+00  0.00000000000E+00  0.19162581554E+03  0.19162581554E+03  0.00000000000E+00 0. -1.
         21   -1    0    0  501  502 -0.00000000000E+00 -0.00000000000E+00 -0.32241477177E+03  0.32241477177E+03  0.00000000000E+00 0. -1.
         25    1    1    2    0    0 -0.19762972137E+03  0.24788648981E+02 -0.14867083899E+03  0.27820855891E+03  0.12500000000E+03 0.  0.
         25    1    1    2    0    0  0.19762972137E+03 -0.24788648981E+02  0.17881882761E+02  0.23583202840E+03  0.12500000000E+03 0.  0.
</event>
<event>
 4    0  0.2193754E-002  0.2599814E+03  0.7546771E-02  0.1107154E+00
         21   -1    0    0  502  501  0.00000000000E+00  0.00000000000E+00  0.16872784223E+03  0.16872784223E+03  0.00000000000E+00 0. -1.
         21   -1    0    0  501  502 -0.00000000000E+00 -0.00000000000E+00 -0.40058779055E+03  0.40058779055E+03  0.00000000000E+00 0. -1.
         25    1    1    2    0    0 -0.19827642783E+03  0.27609656165E+02 -0.23531841690E+03  0.33328005082E+03  0.12500000000E+03 0.  0.
         25    1    1    2    0    0  0.19827642783E+03 -0.27609656165E+02  0.34584685756E+01  0.23603558196E+03  0.12500000000E+03 0.  0.
</event>
<event>
 4    0  0.2193754E-002  0.2183191E+03  0.7546771E-02  0.1135142E+00
         21   -1    0    0  502  501  0.00000000000E+00  0.00000000000E+00  0.64994582826E+03  0.64994582826E+03  0.00000000000E+00 0. -1.
         21   -1    0    0  501  502 -0.00000000000E+00 -0.00000000000E+00 -0.73334128651E+02  0.73334128651E+02  0.00000000000E+00 0. -1.
         25    1    1    2    0    0 -0.48727372685E+02 -0.13488753478E+03  0.11090672056E+03  0.22021422423E+03  0.12500000000E+03 0.  0.
         25    1    1    2    0    0  0.48727372685E+02  0.13488753478E+03  0.46570497905E+03  0.50306573268E+03  0.12500000000E+03 0.  0.
</event>
<event>
 4    0  0.2193754E-002  0.1907942E+03  0.7546771E-02  0.1157747E+00
         21   -1    0    0  502  501  0.00000000000E+00  0.00000000000E+00  0.89867985921E+03  0.89867985921E+03  0.00000000000E+00 0. -1.
         21   -1    0    0  501  502 -0.00000000000E+00 -0.00000000000E+00 -0.40506540636E+02  0.40506540636E+02  0.00000000000E+00 0. -1.
         25    1    1    2    0    0  0.70408081633E+02  0.47541678567E+02  0.14248083596E+03  0.20770964777E+03  0.12500000000E+03 0.  0.
         25    1    1    2    0    0 -0.70408081633E+02 -0.47541678567E+02  0.71569248261E+03  0.73147675208E+03  0.12500000000E+03 0.  0.
</event>
<event>
 4    0  0.2193754E-002  0.2357726E+03  0.7546771E-02  0.1122641E+00
         21   -1    0    0  502  501  0.00000000000E+00  0.00000000000E+00  0.37423204017E+03  0.37423204017E+03  0.00000000000E+00 0.  1.
         21   -1    0    0  501  502 -0.00000000000E+00 -0.00000000000E+00 -0.14854076387E+03  0.14854076387E+03  0.00000000000E+00 0.  1.
         25    1    1    2    0    0 -0.10606211266E+03 -0.13708822090E+03  0.22327264689E+03  0.30905990827E+03  0.12500000000E+03 0.  0.
         25    1    1    2    0    0  0.10606211266E+03  0.13708822090E+03  0.24186294055E+01  0.21371289577E+03  0.12500000000E+03 0.  0.
</event>
<event>
 4    0  0.2193754E-002  0.1897945E+03  0.7546771E-02  0.1158647E+00
         21   -1    0    0  502  501  0.00000000000E+00  0.00000000000E+00  0.55245340193E+02  0.55245340193E+02  0.00000000000E+00 0.  1.
         21   -1    0    0  501  502 -0.00000000000E+00 -0.00000000000E+00 -0.65203632387E+03  0.65203632387E+03  0.00000000000E+00 0.  1.
         25    1    1    2    0    0 -0.23030552534E+02 -0.71823976795E+02 -0.72423975546E+02  0.16297031087E+03  0.12500000000E+03 0.  0.
         25    1    1    2    0    0  0.23030552534E+02  0.71823976795E+02 -0.52436700813E+03  0.54431135319E+03  0.12500000000E+03 0.  0.
</event>
<event>
 4    0  0.2193754E-002  0.2153070E+03  0.7546771E-02  0.1137431E+00
         21   -1    0    0  502  501  0.00000000000E+00  0.00000000000E+00  0.56036570216E+03  0.56036570216E+03  0.00000000000E+00 0.  1.
         21   -1    0    0  501  502 -0.00000000000E+00 -0.00000000000E+00 -0.82726545287E+02  0.82726545287E+02  0.00000000000E+00 0.  1.
         25    1    1    2    0    0 -0.64452713616E+02 -0.15837932397E+03  0.29654325397E+03  0.36441880307E+03  0.12500000000E+03 0.  0.
         25    1    1    2    0    0  0.64452713616E+02  0.15837932397E+03  0.18109590291E+03  0.27867344438E+03  0.12500000000E+03 0.  0.
</event>
<event>
 4    0  0.2193754E-002  0.1755441E+03  0.7546771E-02  0.1172186E+00
         21   -1    0    0  502  501  0.00000000000E+00  0.00000000000E+00  0.30715168700E+02  0.30715168700E+02  0.00000000000E+00 0. -1.
         21   -1    0    0  501  502 -0.00000000000E+00 -0.00000000000E+00 -0.10032742231E+04  0.10032742231E+04  0.00000000000E+00 0. -1.
         25    1    1    2    0    0 -0.11136323480E+03  0.32462873122E+02 -0.60895723972E+03  0.63238400359E+03  0.12500000000E+03 0.  0.
         25    1    1    2    0    0  0.11136323480E+03 -0.32462873122E+02 -0.36360181469E+03  0.40160538822E+03  0.12500000000E+03 0.  0.
</event>
<event>
 4    0  0.2193754E-002  0.3669642E+03  0.7546771E-02  0.1055860E+00
         21   -1    0    0  502  501  0.00000000000E+00  0.00000000000E+00  0.40094281220E+03  0.40094281220E+03  0.00000000000E+00 0. -1.
         21   -1    0    0  501  502 -0.00000000000E+00 -0.00000000000E+00 -0.33586515307E+03  0.33586515307E+03  0.00000000000E+00 0. -1.
         25    1    1    2    0    0  0.84044540866E+02  0.10392845395E+03  0.35186401886E+03  0.39660798802E+03  0.12500000000E+03 0.  0.
         25    1    1    2    0    0 -0.84044540866E+02 -0.10392845395E+03 -0.28678635973E+03  0.34019997725E+03  0.12500000000E+03 0.  0.
</event>
<event>
 4    0  0.2193754E-002  0.2191146E+03  0.7546771E-02  0.1134545E+00
         21   -1    0    0  502  501  0.00000000000E+00  0.00000000000E+00  0.43482410989E+02  0.43482410989E+02  0.00000000000E+00 0. -1.
         21   -1    0    0  501  502 -0.00000000000E+00 -0.00000000000E+00 -0.11041520758E+04  0.11041520758E+04  0.00000000000E+00 0. -1.
         25    1    1    2    0    0 -0.76048768089E+02 -0.11707391320E+03 -0.23293692942E+03  0.29895539695E+03  0.12500000000E+03 0.  0.
         25    1    1    2    0    0  0.76048768089E+02  0.11707391320E+03 -0.82773273536E+03  0.84867908980E+03  0.12500000000E+03 0.  0.
</event>
<event>
 4    0  0.2193754E-002  0.1981892E+03  0.7546771E-02  0.1151276E+00
         21   -1    0    0  502  501  0.00000000000E+00  0.00000000000E+00  0.79855653017E+02  0.79855653017E+02  0.00000000000E+00 0.  1.
         21   -1    0    0  501  502 -0.00000000000E+00 -0.00000000000E+00 -0.49187473768E+03  0.49187473768E+03  0.00000000000E+00 0.  1.
         25    1    1    2    0    0  0.15378861565E+03 -0.14566619504E+01 -0.20739168398E+03  0.28686123955E+03  0.12500000000E+03 0.  0.
         25    1    1    2    0    0 -0.15378861565E+03  0.14566619504E+01 -0.20462740068E+03  0.28486915115E+03  0.12500000000E+03 0.  0.
</event>
<event>
 4    0  0.2193754E-002  0.2326978E+03  0.7546771E-02  0.1124755E+00
         21   -1    0    0  502  501  0.00000000000E+00  0.00000000000E+00  0.92284171673E+03  0.92284171673E+03  0.00000000000E+00 0. -1.
         21   -1    0    0  501  502 -0.00000000000E+00 -0.00000000000E+00 -0.58675558397E+02  0.58675558397E+02  0.00000000000E+00 0. -1.
         25    1    1    2    0    0 -0.29783948400E+02 -0.15691081261E+03  0.19148032808E+03  0.27892257481E+03  0.12500000000E+03 0.  0.
         25    1    1    2    0    0  0.29783948400E+02  0.15691081261E+03  0.67268583025E+03  0.70259470032E+03  0.12500000000E+03 0.  0.
</event>
<event>
 4    0  0.2193754E-002  0.1580599E+03  0.7546771E-02  0.1190905E+00
         21   -1    0    0  502  501  0.00000000000E+00  0.00000000000E+00  0.87946547652E+03  0.87946547652E+03  0.00000000000E+00 0.  1.
         21   -1    0    0  501  502 -0.00000000000E+00 -0.00000000000E+00 -0.28406953862E+02  0.28406953862E+02  0.00000000000E+00 0.  1.
         25    1    1    2    0    0 -0.28284171184E+02  0.98274410046E+01  0.68970519221E+03  0.70158023426E+03  0.12500000000E+03 0.  0.
         25    1    1    2    0    0  0.28284171184E+02 -0.98274410046E+01  0.16135333045E+03  0.20629219613E+03  0.12500000000E+03 0.  0.
</event>
<event>
 4    0  0.2193754E-002  0.2787867E+03  0.7546771E-02  0.1096353E+00
         21   -1    0    0  502  501  0.00000000000E+00  0.00000000000E+00  0.10476447448E+04  0.10476447448E+04  0.00000000000E+00 0. -1.
         21   -1    0    0  501  502 -0.00000000000E+00 -0.00000000000E+00 -0.74187386786E+02  0.74187386786E+02  0.00000000000E+00 0. -1.
         25    1    1    2    0    0  0.71955106074E+02  0.20697829699E+03  0.24799206747E+03  0.35375502575E+03  0.12500000000E+03 0.  0.
         25    1    1    2    0    0 -0.71955106074E+02 -0.20697829699E+03  0.72546529051E+03  0.76807710580E+03  0.12500000000E+03 0.  0.
</event>
<event>
 4    0  0.2193754E-002  0.3068994E+03  0.7546771E-02  0.1081842E+00
         21   -1    0    0  502  501  0.00000000000E+00  0.00000000000E+00  0.87832022369E+03  0.87832022369E+03  0.00000000000E+00 0. -1.
         21   -1    0    0  501  502 -0.00000000000E+00 -0.00000000000E+00 -0.10723566485E+03  0.10723566485E+03  0.00000000000E+00 0. -1.
         25    1    1    2    0    0  0.36612488517E+02 -0.13576912570E+03  0.77485757926E+03  0.79737255906E+03  0.12500000000E+03 0.  0.
         25    1    1    2    0    0 -0.36612488517E+02  0.13576912570E+03 -0.37730204192E+01  0.18818332948E+03  0.12500000000E+03 0.  0.
</event>
<event>
 4    0  0.2193754E-002  0.2872018E+03  0.7546771E-02  0.1091819E+00
         21   -1    0    0  502  501  0.00000000000E+00  0.00000000000E+00  0.18128547076E+03  0.18128547076E+03  0.00000000000E+00 0. -1.
         21   -1    0    0  501  502 -0.00000000000E+00 -0.00000000000E+00 -0.45499989226E+03  0.45499989226E+03  0.00000000000E+00 0. -1.
         25    1    1    2    0    0  0.32936261982E+01 -0.23342036738E+03 -0.26002963170E+03  0.37112844844E+03  0.12500000000E+03 0.  0.
         25    1    1    2    0    0 -0.32936261982E+01  0.23342036738E+03 -0.13684789804E+02  0.26515691459E+03  0.12500000000E+03 0.  0.
</event>
<event>
 4    0  0.2193754E-002  0.1666381E+03  0.7546771E-02  0.1181400E+00
         21   -1    0    0  502  501  0.00000000000E+00  0.00000000000E+00  0.11006447966E+02  0.11006447966E+02  0.00000000000E+00 0. -1.
         21   -1    0    0  501  502 -0.00000000000E+00 -0.00000000000E+00 -0.25229084183E+04  0.25229084183E+04  0.00000000000E+00 0. -1.
         25    1    1    2    0    0  0.58452920353E+00 -0.75988176295E+02 -0.64919563162E+03  0.66547314952E+03  0.12500000000E+03 0.  0.
         25    1    1    2    0    0 -0.58452920353E+00  0.75988176295E+02 -0.18627063387E+04  0.18684417167E+04  0.12500000000E+03 0.  0.
</event>
<event>
 4    0  0.2193754E-002  0.2770715E+03  0.7546771E-02  0.1097299E+00
         21   -1    0    0  502  501  0.00000000000E+00  0.00000000000E+00  0.31824050668E+03  0.31824050668E+03  0.00000000000E+00 0.  1.
         21   -1    0    0  501  502 -0.00000000000E+00 -0.00000000000E+00 -0.24122832382E+03  0.24122832382E+03  0.00000000000E+00 0.  1.
         25    1    1    2    0    0  0.58507778932E+02 -0.17152457405E+03  0.20834828282E+03  0.30311358704E+03  0.12500000000E+03 0.  0.
         25    1    1    2    0    0 -0.58507778932E+02  0.17152457405E+03 -0.13133609996E+03  0.25635524346E+03  0.12500000000E+03 0.  0.
</event>
<event>
 4    0  0.2193754E-002  0.1806654E+03  0.7546771E-02  0.1167161E+00
         21   -1    0    0  502  501  0.00000000000E+00  0.00000000000E+00  0.12690161384E+03  0.12690161384E+03  0.00000000000E+00 0. -1.
         21   -1    0    0  501  502 -0.00000000000E+00 -0.00000000000E+00 -0.25720716346E+03  0.25720716346E+03  0.00000000000E+00 0. -1.
         25    1    1    2    0    0  0.99114953708E+02 -0.62891231124E+02 -0.46816242803E+01  0.17154007872E+03  0.12500000000E+03 0.  0.
         25    1    1    2    0    0 -0.99114953708E+02  0.62891231124E+02 -0.12562392534E+03  0.21256869859E+03  0.12500000000E+03 0.  0.
</event>
<event>
 4    0  0.2193754E-002  0.3092367E+03  0.7546771E-02  0.1080712E+00
         21   -1    0    0  502  501  0.00000000000E+00  0.00000000000E+00  0.38202425614E+03  0.38202425614E+03  0.00000000000E+00 0. -1.
         21   -1    0    0  501  502 -0.00000000000E+00 -0.00000000000E+00 -0.25031739284E+03  0.25031739284E+03  0.00000000000E+00 0. -1.
         25    1    1    2    0    0 -0.23348961438E+03 -0.10902429088E+03 -0.53374558862E+02  0.29133750112E+03  0.12500000000E+03 0.  0.
         25    1    1    2    0    0  0.23348961438E+03  0.10902429088E+03  0.18508142217E+03  0.34100414786E+03  0.12500000000E+03 0.  0.
</event>
<event>
 4    0  0.2193754E-002  0.3864067E+03  0.7546771E-02  0.1048591E+00
         21   -1    0    0  502  501  0.00000000000E+00  0.00000000000E+00  0.18563064154E+03  0.18563064154E+03  0.00000000000E+00 0.  1.
         21   -1    0    0  501  502 -0.00000000000E+00 -0.00000000000E+00 -0.80433995517E+03  0.80433995517E+03  0.00000000000E+00 0.  1.
         25    1    1    2    0    0 -0.11031411089E+03  0.29201486947E+03 -0.65483048559E+02  0.34257103892E+03  0.12500000000E+03 0.  0.
         25    1    1    2    0    0  0.11031411089E+03 -0.29201486947E+03 -0.55322626507E+03  0.64739955779E+03  0.12500000000E+03 0.  0.
</event>
<event>
 4    0  0.2193754E-002  0.2425415E+03  0.7546771E-02  0.1118111E+00
         21   -1    0    0  502  501  0.00000000000E+00  0.00000000000E+00  0.42277103368E+02  0.42277103368E+02  0.00000000000E+00 0. -1.
         21   -1    0    0  501  502 -0.00000000000E+00 -0.00000000000E+00 -0.13914474013E+04  0.13914474013E+04  0.00000000000E+00 0. -1.
         25    1    1    2    0    0  0.20538481525E+03 -0.18883117861E+02 -0.59854614403E+03  0.64530766384E+03  0.12500000000E+03 0.  0.
         25    1    1    2    0    0 -0.20538481525E+03  0.18883117861E+02 -0.75062415386E+03  0.78841684078E+03  0.12500000000E+03 0.  0.
</event>
<event>
 4    0  0.2193754E-002  0.2609191E+03  0.7546771E-02  0.1106592E+00
         21   -1    0    0  502  501  0.00000000000E+00  0.00000000000E+00  0.23713735856E+03  0.23713735856E+03  0.00000000000E+00 0. -1.
         21   -1    0    0  501  502 -0.00000000000E+00 -0.00000000000E+00 -0.28708582664E+03  0.28708582664E+03  0.00000000000E+00 0. -1.
         25    1    1    2    0    0  0.21682720902E+03 -0.18834162787E+02 -0.96609402214E+02  0.26893705742E+03  0.12500000000E+03 0.  0.
         25    1    1    2    0    0 -0.21682720902E+03  0.18834162787E+02  0.46660934143E+02  0.25528612778E+03  0.12500000000E+03 0.  0.
</event>
<event>
 4    0  0.2193754E-002  0.1674859E+03  0.7546771E-02  0.1180495E+00
         21   -1    0    0  502  501  0.00000000000E+00  0.00000000000E+00  0.30951529010E+02  0.30951529010E+02  0.00000000000E+00 0. -1.
         21   -1    0    0  501  502 -0.00000000000E+00 -0.00000000000E+00 -0.90630466853E+03  0.90630466853E+03  0.00000000000E+00 0. -1.
         25    1    1    2    0    0  0.10857672033E+03  0.22660258874E+02 -0.46884949362E+03  0.49774214127E+03  0.12500000000E+03 0.  0.
         25    1    1    2    0    0 -0.10857672033E+03 -0.22660258874E+02 -0.40650364591E+03  0.43951405628E+03  0.12500000000E+03 0.  0.
</event>
<event>
 4    0  0.2193754E-002  0.2182906E+03  0.7546771E-02  0.1135164E+00
         21   -1    0    0  502  501  0.00000000000E+00  0.00000000000E+00  0.62354635808E+03  0.62354635808E+03  0.00000000000E+00 0.  1.
         21   -1    0    0  501  502 -0.00000000000E+00 -0.00000000000E+00 -0.76418965381E+02  0.76418965381E+02  0.00000000000E+00 0.  1.
         25    1    1    2    0    0 -0.22251602342E+02 -0.16931858674E+03  0.18779377585E+03  0.28294066493E+03  0.12500000000E+03 0.  0.
         25    1    1    2    0    0  0.22251602342E+02  0.16931858674E+03  0.35933361684E+03  0.41702465852E+03  0.12500000000E+03 0.  0.
</event>
<event>
 4    0  0.2193754E-002  0.1714637E+03  0.7546771E-02  0.1176330E+00
         21   -1    0    0  502  501  0.00000000000E+00  0.00000000000E+00  0.38157657690E+03  0.38157657690E+03  0.00000000000E+00 0.  1.
         21   -1    0    0  501  502 -0.00000000000E+00 -0.00000000000E+00 -0.77048258384E+02  0.77048258384E+02  0.00000000000E+00 0.  1.
         25    1    1    2    0    0  0.71531580044E+02 -0.90375651356E+02  0.18187698026E+03  0.24897542298E+03  0.12500000000E+03 0.  0.
         25    1    1    2    0    0 -0.71531580044E+02  0.90375651356E+02  0.12265133826E+03  0.20964941230E+03  0.12500000000E+03 0.  0.
</event>
<event>
 4    0  0.2193754E-002  0.2336540E+03  0.7546771E-02  0.1124094E+00
         21   -1    0    0  502  501  0.00000000000E+00  0.00000000000E+00  0.73158901178E+03  0.73158901178E+03  0.00000000000E+00 0. -1.
         21   -1    0    0  501  502 -0.00000000000E+00 -0.00000000000E+00 -0.74624118624E+02  0.74624118624E+02  0.00000000000E+00 0. -1.
         25    1    1    2    0    0 -0.56633294549E+02 -0.16741488327E+03  0.48020561577E+03  0.52674235315E+03  0.12500000000E+03 0.  0.
         25    1    1    2    0    0  0.56633294549E+02  0.16741488327E+03  0.17675927739E+03  0.27947077725E+03  0.12500000000E+03 0.  0.
</event>
<event>
 4    0  0.2193754E-002  0.1849801E+03  0.7546771E-02  0.1163068E+00
         21   -1    0    0  502  501  0.00000000000E+00  0.00000000000E+00  0.60122741154E+03  0.60122741154E+03  0.00000000000E+00 0.  1.
         21   -1    0    0  501  502 -0.00000000000E+00 -0.00000000000E+00 -0.56912960843E+02  0.56912960843E+02  0.00000000000E+00 0.  1.
         25    1    1    2    0    0  0.10915545436E+03  0.13598643751E+02  0.12881325391E+03  0.21051767316E+03  0.12500000000E+03 0.  0.
         25    1    1    2    0    0 -0.10915545436E+03 -0.13598643751E+02  0.41550119679E+03  0.44762269923E+03  0.12500000000E+03 0.  0.
</event>
<event>
 4    0  0.2193754E-002  0.2183780E+03  0.7546771E-02  0.1135098E+00
         21   -1    0    0  502  501  0.00000000000E+00  0.00000000000E+00  0.62175996855E+03  0.62175996855E+03  0.00000000000E+00 0. -1.
         21   -1    0    0  501  502 -0.00000000000E+00 -0.00000000000E+00 -0.76699932330E+02  0.76699932330E+02  0.00000000000E+00 0. -1.
         25    1    1    2    0    0 -0.10062183573E+03  0.53911468408E+02  0.49315432265E+03  0.52139944975E+03  0.12500000000E+03 0.  0.
         25    1    1    2    0    0  0.10062183573E+03 -0.53911468408E+02  0.51905713571E+02  0.17706045113E+03  0.12500000000E+03 0.  0.
</event>
<event>
 4    0  0.2193754E-002  0.2329493E+03  0.7546771E-02  0.1124581E+00
         21   -1    0    0  502  501  0.00000000000E+00  0.00000000000E+00  0.11593564605E+03  0.11593564605E+03  0.00000000000E+00 0.  1.
         21   -1    0    0  501  502 -0.00000000000E+00 -0.00000000000E+00 -0.46806465829E+03  0.46806465829E+03  0.00000000000E+00 0.  1.
         25    1    1    2    0    0  0.95986866426E+02  0.14067449289E+03 -0.53007649634E+02  0.21780175021E+03  0.12500000000E+03 0.  0.
         25    1    1    2    0    0 -0.95986866426E+02 -0.14067449289E+03 -0.29912136260E+03  0.36619855412E+03  0.12500000000E+03 0.  0.
</event>
<event>
 4    0  0.2193754E-002  0.1972798E+03  0.7546771E-02  0.1152055E+00
         21   -1    0    0  502  501  0.00000000000E+00  0.00000000000E+00  0.74787744766E+03  0.74787744766E+03  0.00000000000E+00 0.  1.
         21   -1    0    0  501  502 -0.00000000000E+00 -0.00000000000E+00 -0.52039718031E+02  0.52039718031E+02  0.00000000000E+00 0.  1.
         25    1    1    2    0    0 -0.11282649995E+02  0.14963901458E+03  0.40436560048E+03  0.44906087753E+03  0.12500000000E+03 0.  0.
         25    1    1    2    0    0  0.11282649995E+02 -0.14963901458E+03  0.29147212915E+03  0.35085628817E+03  0.12500000000E+03 0.  0.
</event>
<event>
 4    0  0.2193754E-002  0.1816396E+03  0.7546771E-02  0.1166226E+00
         21   -1    0    0  502  501  0.00000000000E+00  0.00000000000E+00  0.89173726104E+02  0.89173726104E+02  0.00000000000E+00 0. -1.
         21   -1    0    0  501  502 -0.00000000000E+00 -0.00000000000E+00 -0.36998494673E+03  0.36998494673E+03  0.00000000000E+00 0. -1.
         25    1    1    2    0    0  0.81837944893E+02 -0.24368951730E+02 -0.26728182435E+03  0.30717400388E+03  0.12500000000E+03 0.  0.
         25    1    1    2    0    0 -0.81837944893E+02  0.24368951730E+02 -0.13529396275E+02  0.15198466895E+03  0.12500000000E+03 0.  0.
</event>
<event>
 4    0  0.2193754E-002  0.1934799E+03  0.7546771E-02  0.1155360E+00
         21   -1    0    0  502  501  0.00000000000E+00  0.00000000000E+00  0.34438399909E+03  0.34438399909E+03  0.00000000000E+00 0. -1.
         21   -1    0    0  501  502 -0.00000000000E+00 -0.00000000000E+00 -0.10869977263E+03  0.10869977263E+03  0.00000000000E+00 0. -1.
         25    1    1    2    0    0  0.33736463416E+02 -0.10081896608E+02  0.28577136800E+03  0.31389499577E+03  0.12500000000E+03 0.  0.
         25    1    1    2    0    0 -0.33736463416E+02  0.10081896608E+02 -0.50087141532E+02  0.13918877595E+03  0.12500000000E+03 0.  0.
</event>
<event>
 4    0  0.2193754E-002  0.2221662E+03  0.7546771E-02  0.1132278E+00
         21   -1    0    0  502  501  0.00000000000E+00  0.00000000000E+00  0.68437447482E+03  0.68437447482E+03  0.00000000000E+00 0. -1.
         21   -1    0    0  501  502 -0.00000000000E+00 -0.00000000000E+00 -0.72121054143E+02  0.72121054143E+02  0.00000000000E+00 0. -1.
         25    1    1    2    0    0  0.13153343534E+03  0.12095898370E+03  0.37837335715E+03  0.43671903755E+03  0.12500000000E+03 0.  0.
         25    1    1    2    0    0 -0.13153343534E+03 -0.12095898370E+03  0.23388006352E+03  0.31977649142E+03  0.12500000000E+03 0.  0.
</event>
<event>
 4    0  0.2193754E-002  0.1764357E+03  0.7546771E-02  0.1171298E+00
         21   -1    0    0  502  501  0.00000000000E+00  0.00000000000E+00  0.55396629156E+03  0.55396629156E+03  0.00000000000E+00 0. -1.
         21   -1    0    0  501  502 -0.00000000000E+00 -0.00000000000E+00 -0.56193974948E+02  0.56193974948E+02  0.00000000000E+00 0. -1.
         25    1    1    2    0    0  0.10121499213E+03  0.54760324153E+01  0.12383646209E+03  0.20306385918E+03  0.12500000000E+03 0.  0.
         25    1    1    2    0    0 -0.10121499213E+03 -0.54760324153E+01  0.37393585452E+03  0.40709640733E+03  0.12500000000E+03 0.  0.
</event>
<event>
 4    0  0.2193754E-002  0.2120591E+03  0.7546771E-02  0.1139946E+00
         21   -1    0    0  502  501  0.00000000000E+00  0.00000000000E+00  0.14536354213E+04  0.14536354213E+04  0.00000000000E+00 0.  1.
         21   -1    0    0  501  502 -0.00000000000E+00 -0.00000000000E+00 -0.30935575626E+02  0.30935575626E+02  0.00000000000E+00 0. -1.
         25    1    1    2    0    0 -0.12931620884E+02  0.16965888120E+03  0.78071433029E+03  0.80875906691E+03  0.12500000000E+03 0.  0.
         25    1    1    2    0    0  0.12931620884E+02 -0.16965888120E+03  0.64198551538E+03  0.67581193002E+03  0.12500000000E+03 0.  0.
</event>
<event>
 4    0  0.2193754E-002  0.3021838E+03  0.7546771E-02  0.1084154E+00
         21   -1    0    0  502  501  0.00000000000E+00  0.00000000000E+00  0.15998470739E+03  0.15998470739E+03  0.00000000000E+00 0.  1.
         21   -1    0    0  501  502 -0.00000000000E+00 -0.00000000000E+00 -0.57077356368E+03  0.57077356368E+03  0.00000000000E+00 0.  1.
         25    1    1    2    0    0 -0.50759259159E+01 -0.15311112922E+03 -0.48170420425E+03  0.52070406500E+03  0.12500000000E+03 0.  0.
         25    1    1    2    0    0  0.50759259159E+01  0.15311112922E+03  0.70915347954E+02  0.21005420608E+03  0.12500000000E+03 0.  0.
</event>
<event>
 4    0  0.2193754E-002  0.2612427E+03  0.7546771E-02  0.1106399E+00
         21   -1    0    0  502  501  0.00000000000E+00  0.00000000000E+00  0.21076750162E+03  0.21076750162E+03  0.00000000000E+00 0.  1.
         21   -1    0    0  501  502 -0.00000000000E+00 -0.00000000000E+00 -0.32380587661E+03  0.32380587661E+03  0.00000000000E+00 0.  1.
         25    1    1    2    0    0 -0.19720111715E+02 -0.21422067674E+03 -0.13800712383E+03  0.28451774528E+03  0.12500000000E+03 0.  0.
         25    1    1    2    0    0  0.19720111715E+02  0.21422067674E+03  0.24968748840E+02  0.25005563295E+03  0.12500000000E+03 0.  0.
</event>
<event>
 4    0  0.2193754E-002  0.2289602E+03  0.7546771E-02  0.1127374E+00
         21   -1    0    0  502  501  0.00000000000E+00  0.00000000000E+00  0.45344173971E+03  0.45344173971E+03  0.00000000000E+00 0.  1.
         21   -1    0    0  501  502 -0.00000000000E+00 -0.00000000000E+00 -0.11561085254E+03  0.11561085254E+03  0.00000000000E+00 0. -1.
         25    1    1    2    0    0  0.51102133213E+02  0.17567159439E+03  0.97249367623E+02  0.24198011612E+03  0.12500000000E+03 0.  0.
         25    1    1    2    0    0 -0.51102133213E+02 -0.17567159439E+03  0.24058151955E+03  0.32707247613E+03  0.12500000000E+03 0.  0.
</event>
<event>
 4    0  0.2193754E-002  0.1623865E+03  0.7546771E-02  0.1186028E+00
         21   -1    0    0  502  501  0.00000000000E+00  0.00000000000E+00  0.10597787729E+03  0.10597787729E+03  0.00000000000E+00 0.  1.
         21   -1    0    0  501  502 -0.00000000000E+00 -0.00000000000E+00 -0.24881955593E+03  0.24881955593E+03  0.00000000000E+00 0.  1.
         25    1    1    2    0    0 -0.86046214232E+02  0.34323325054E+02 -0.12222055358E+03  0.19785071479E+03  0.12500000000E+03 0.  0.
         25    1    1    2    0    0  0.86046214232E+02 -0.34323325054E+02 -0.20621125066E+02  0.15694671843E+03  0.12500000000E+03 0.  0.
</event>
<event>
 4    0  0.2193754E-002  0.2904841E+03  0.7546771E-02  0.1090097E+00
         21   -1    0    0  502  501  0.00000000000E+00  0.00000000000E+00  0.77354653913E+03  0.77354653913E+03  0.00000000000E+00 0. -1.
         21   -1    0    0  501  502 -0.00000000000E+00 -0.00000000000E+00 -0.10908330438E+03  0.10908330438E+03  0.00000000000E+00 0. -1.
         25    1    1    2    0    0 -0.18790283310E+03 -0.10942629670E+02  0.54876576709E+02  0.23251592311E+03  0.12500000000E+03 0.  0.
         25    1    1    2    0    0  0.18790283310E+03  0.10942629670E+02  0.60958665804E+03  0.65011392040E+03  0.12500000000E+03 0.  0.
</event>
<event>
 4    0  0.2193754E-002  0.1912314E+03  0.7546771E-02  0.1157355E+00
         21   -1    0    0  502  501  0.00000000000E+00  0.00000000000E+00  0.23804348149E+03  0.23804348149E+03  0.00000000000E+00 0. -1.
         21   -1    0    0  501  502 -0.00000000000E+00 -0.00000000000E+00 -0.15362511839E+03  0.15362511839E+03  0.00000000000E+00 0. -1.
         25    1    1    2    0    0 -0.12899550596E+03 -0.10357949507E+02  0.10855538463E+03  0.21013424092E+03  0.12500000000E+03 0.  0.
         25    1    1    2    0    0  0.12899550596E+03  0.10357949507E+02 -0.24137021533E+02  0.18153435896E+03  0.12500000000E+03 0.  0.
</event>
<event>
 4    0  0.2193754E-002  0.2802754E+03  0.7546771E-02  0.1095539E+00
         21   -1    0    0  502  501  0.00000000000E+00  0.00000000000E+00  0.65949358203E+02  0.65949358203E+02  0.00000000000E+00 0.  1.
         21   -1    0    0  501  502 -0.00000000000E+00 -0.00000000000E+00 -0.11911308944E+04  0.11911308944E+04  0.00000000000E+00 0.  1.
         25    1    1    2    0    0 -0.12279792080E+03 -0.19543264089E+03 -0.34222292820E+03  0.43129430678E+03  0.12500000000E+03 0.  0.
         25    1    1    2    0    0  0.12279792080E+03  0.19543264089E+03 -0.78295860796E+03  0.82578594578E+03  0.12500000000E+03 0.  0.
</event>
<event>
 4    0  0.2193754E-002  0.1872035E+03  0.7546771E-02  0.1161008E+00
         21   -1    0    0  502  501  0.00000000000E+00  0.00000000000E+00  0.26477510319E+02  0.26477510319E+02  0.00000000000E+00 0.  1.
         21   -1    0    0  501  502 -0.00000000000E+00 -0.00000000000E+00 -0.13235814707E+04  0.13235814707E+04  0.00000000000E+00 0.  1.
         25    1    1    2    0    0  0.80541518598E+01  0.68689656897E+02 -0.10848014638E+04  0.10941674251E+04  0.12500000000E+03 0.  0.
         25    1    1    2    0    0 -0.80541518598E+01 -0.68689656897E+02 -0.21230249658E+03  0.25589155590E+03  0.12500000000E+03 0.  0.
</event>
<event>
 4    0  0.2193754E-002  0.4128577E+03  0.7546771E-02  0.1039416E+00
         21   -1    0    0  502  501  0.00000000000E+00  0.00000000000E+00  0.65045551741E+03  0.65045551741E+03  0.00000000000E+00 0.  1.
         21   -1    0    0  501  502 -0.00000000000E+00 -0.00000000000E+00 -0.26204944409E+03  0.26204944409E+03  0.00000000000E+00 0.  1.
         25    1    1    2    0    0  0.10655023013E+03  0.27985879093E+03 -0.87875949086E+02  0.33618607472E+03  0.12500000000E+03 0.  0.
         25    1    1    2    0    0 -0.10655023013E+03 -0.27985879093E+03  0.47628202241E+03  0.57631888679E+03  0.12500000000E+03 0.  0.
</event>
<event>
 4    0  0.2193754E-002  0.2518362E+03  0.7546771E-02  0.1112150E+00
         21   -1    0    0  502  501  0.00000000000E+00  0.00000000000E+00  0.36267156284E+03  0.36267156284E+03  0.00000000000E+00 0. -1.
         21   -1    0    0  501  502 -0.00000000000E+00 -0.00000000000E+00 -0.17487303389E+03  0.17487303389E+03  0.00000000000E+00 0.  1.
         25    1    1    2    0    0 -0.57802021002E+02  0.19999167445E+03  0.22634957677E+02  0.24387514180E+03  0.12500000000E+03 0.  0.
         25    1    1    2    0    0  0.57802021002E+02 -0.19999167445E+03  0.16516357128E+03  0.29366945493E+03  0.12500000000E+03 0.  0.
</event>
<event>
 4    0  0.2193754E-002  0.2250652E+03  0.7546771E-02  0.1130162E+00
         21   -1    0    0  502  501  0.00000000000E+00  0.00000000000E+00  0.44458330676E+03  0.44458330676E+03  0.00000000000E+00 0. -1.
         21   -1    0    0  501  502 -0.00000000000E+00 -0.00000000000E+00 -0.11393672397E+03  0.11393672397E+03  0.00000000000E+00 0. -1.
         25    1    1    2    0    0  0.16592955943E+03 -0.76713553113E+02  0.11550912433E+03  0.24976978545E+03  0.12500000000E+03 0.  0.
         25    1    1    2    0    0 -0.16592955943E+03  0.76713553113E+02  0.21513745846E+03  0.30875024527E+03  0.12500000000E+03 0.  0.
</event>
<event>
 4    0  0.2193754E-002  0.2190209E+03  0.7546771E-02  0.1134615E+00
         21   -1    0    0  502  501  0.00000000000E+00  0.00000000000E+00  0.66913581576E+03  0.66913581576E+03  0.00000000000E+00 0.  1.
         21   -1    0    0  501  502 -0.00000000000E+00 -0.00000000000E+00 -0.71689698724E+02  0.71689698724E+02  0.00000000000E+00 0.  1.
         25    1    1    2    0    0  0.14995663798E+03 -0.98915374029E+02  0.31326171359E+03  0.38213760048E+03  0.12500000000E+03 0.  0.
         25    1    1    2    0    0 -0.14995663798E+03  0.98915374029E+02  0.28418440344E+03  0.35868791401E+03  0.12500000000E+03 0.  0.
</event>
<event>
 4    0  0.2193754E-002  0.3817019E+03  0.7546771E-02  0.1050307E+00
         21   -1    0    0  502  501  0.00000000000E+00  0.00000000000E+00  0.97411693502E+03  0.97411693502E+03  0.00000000000E+00 0. -1.
         21   -1    0    0  501  502 -0.00000000000E+00 -0.00000000000E+00 -0.14956760084E+03  0.14956760084E+03  0.00000000000E+00 0. -1.
         25    1    1    2    0    0 -0.44829346121E+02 -0.35397905907E+03  0.33493842611E+03  0.50509364857E+03  0.12500000000E+03 0.  0.
         25    1    1    2    0    0  0.44829346121E+02  0.35397905907E+03  0.48961090807E+03  0.61859088729E+03  0.12500000000E+03 0.  0.
</event>
<event>
 4    0  0.2193754E-002  0.2134809E+03  0.7546771E-02  0.1138839E+00
         21   -1    0    0  502  501  0.00000000000E+00  0.00000000000E+00  0.85603733608E+02  0.85603733608E+02  0.00000000000E+00 0.  1.
         21   -1    0    0  501  502 -0.00000000000E+00 -0.00000000000E+00 -0.53238444995E+03  0.53238444995E+03  0.00000000000E+00 0.  1.
         25    1    1    2    0    0 -0.14452267951E+02 -0.15976953399E+03 -0.31734852196E+03  0.37692208270E+03  0.12500000000E+03 0.  0.
         25    1    1    2    0    0  0.14452267951E+02  0.15976953399E+03 -0.12943219439E+03  0.24106610086E+03  0.12500000000E+03 0.  0.
</event>
<event>
 4    0  0.2193754E-002  0.1932459E+03  0.7546771E-02  0.1155566E+00
         21   -1    0    0  502  501  0.00000000000E+00  0.00000000000E+00  0.16596324493E+04  0.16596324493E+04  0.00000000000E+00 0. -1.
         21   -1    0    0  501  502 -0.00000000000E+00 -0.00000000000E+00 -0.22501361446E+02  0.22501361446E+02  0.00000000000E+00 0. -1.
         25    1    1    2    0    0  0.41852415970E+01 -0.49331836586E+02  0.14227043600E+04  0.14290429813E+04  0.12500000000E+03 0.  0.
         25    1    1    2    0    0 -0.41852415970E+01  0.49331836586E+02  0.21442672786E+03  0.25309082948E+03  0.12500000000E+03 0.  0.
</event>
<event>
 4    0  0.2193754E-002  0.2497028E+03  0.7546771E-02  0.1113493E+00
         21   -1    0    0  502  501  0.00000000000E+00  0.00000000000E+00  0.45195081711E+03  0.45195081711E+03  0.00000000000E+00 0.  1.
         21   -1    0    0  501  502 -0.00000000000E+00 -0.00000000000E+00 -0.13796073721E+03  0.13796073721E+03  0.00000000000E+00 0.  1.
         25    1    1    2    0    0 -0.21192798154E+03  0.38299344988E+02  0.17897218150E+03  0.30665347045E+03  0.12500000000E+03 0.  0.
         25    1    1    2    0    0  0.21192798154E+03 -0.38299344988E+02  0.13501789840E+03  0.28325808386E+03  0.12500000000E+03 0.  0.
</event>
<event>
 4    0  0.2193754E-002  0.1819105E+03  0.7546771E-02  0.1165967E+00
         21   -1    0    0  502  501  0.00000000000E+00  0.00000000000E+00  0.96411185566E+02  0.96411185566E+02  0.00000000000E+00 0.  1.
         21   -1    0    0  501  502 -0.00000000000E+00 -0.00000000000E+00 -0.34323212957E+03  0.34323212957E+03  0.00000000000E+00 0.  1.
         25    1    1    2    0    0  0.77710082910E+02  0.23784333990E+02 -0.24935085210E+03  0.29052607280E+03  0.12500000000E+03 0.  0.
         25    1    1    2    0    0 -0.77710082910E+02 -0.23784333990E+02  0.25299080959E+01  0.14911724234E+03  0.12500000000E+03 0.  0.
</event>
<event>
 4    0  0.2193754E-002  0.2142916E+03  0.7546771E-02  0.1138212E+00
         21   -1    0    0  502  501  0.00000000000E+00  0.00000000000E+00  0.13089816127E+03  0.13089816127E+03  0.00000000000E+00 0. -1.
         21   -1    0    0  501  502 -0.00000000000E+00 -0.00000000000E+00 -0.35081385517E+03  0.35081385517E+03  0.00000000000E+00 0. -1.
         25    1    1    2    0    0  0.50185809009E+02  0.30965545934E+02  0.74106146651E+02  0.15682538517E+03  0.12500000000E+03 0.  0.
         25    1    1    2    0    0 -0.50185809009E+02 -0.30965545934E+02 -0.29402184055E+03  0.32488663128E+03  0.12500000000E+03 0.  0.
</event>
<event>
 4    0  0.2193754E-002  0.2752805E+03  0.7546771E-02  0.1098295E+00
         21   -1    0    0  502  501  0.00000000000E+00  0.00000000000E+00  0.82306534198E+02  0.82306534198E+02  0.00000000000E+00 0. -1.
         21   -1    0    0  501  502 -0.00000000000E+00 -0.00000000000E+00 -0.92069652658E+03  0.92069652658E+03  0.00000000000E+00 0. -1.
         25    1    1    2    0    0 -0.13357290747E+03  0.18370043523E+03 -0.25057643780E+03  0.36055668445E+03  0.12500000000E+03 0.  0.
         25    1    1    2    0    0  0.13357290747E+03 -0.18370043523E+03 -0.58781355458E+03  0.64244637633E+03  0.12500000000E+03 0.  0.
</event>
<event>
 4    0  0.2193754E-002  0.2148611E+03  0.7546771E-02  0.1137773E+00
         21   -1    0    0  502  501  0.00000000000E+00  0.00000000000E+00  0.96688126942E+02  0.96688126942E+02  0.00000000000E+00 0.  1.
         21   -1    0    0  501  502 -0.00000000000E+00 -0.00000000000E+00 -0.47746617126E+03  0.47746617126E+03  0.00000000000E+00 0.  1.
         25    1    1    2    0    0  0.13732462342E+03 -0.54647738005E+02 -0.65794894330E+02  0.20444655925E+03  0.12500000000E+03 0.  0.
         25    1    1    2    0    0 -0.13732462342E+03  0.54647738005E+02 -0.31498314999E+03  0.36970773896E+03  0.12500000000E+03 0.  0.
</event>
<event>
 4    0  0.2193754E-002  0.2916070E+03  0.7546771E-02  0.1089513E+00
         21   -1    0    0  502  501  0.00000000000E+00  0.00000000000E+00  0.92339951993E+03  0.92339951993E+03  0.00000000000E+00 0. -1.
         21   -1    0    0  501  502 -0.00000000000E+00 -0.00000000000E+00 -0.92088691508E+02  0.92088691508E+02  0.00000000000E+00 0. -1.
         25    1    1    2    0    0  0.25599689802E+03  0.42409514014E+02  0.33630829395E+03  0.44278803875E+03  0.12500000000E+03 0.  0.
         25    1    1    2    0    0 -0.25599689802E+03 -0.42409514014E+02  0.49500253447E+03  0.57270017269E+03  0.12500000000E+03 0.  0.
</event>
<event>
 4    0  0.2193754E-002  0.2108996E+03  0.7546771E-02  0.1140856E+00
         21   -1    0    0  502  501  0.00000000000E+00  0.00000000000E+00  0.97215906247E+02  0.97215906247E+02  0.00000000000E+00 0.  1.
         21   -1    0    0  501  502 -0.00000000000E+00 -0.00000000000E+00 -0.45752418693E+03  0.45752418693E+03  0.00000000000E+00 0.  1.
         25    1    1    2    0    0  0.10403210997E+03 -0.10929854393E+03 -0.77563865344E+02  0.21073681410E+03  0.12500000000E+03 0.  0.
         25    1    1    2    0    0 -0.10403210997E+03  0.10929854393E+03 -0.28274441533E+03  0.34400327907E+03  0.12500000000E+03 0.  0.
</event>
<event>
 4    0  0.2193754E-002  0.1389631E+03  0.7546771E-02  0.1214731E+00
         21   -1    0    0  502  501  0.00000000000E+00  0.00000000000E+00  0.88123189607E+03  0.88123189607E+03  0.00000000000E+00 0.  1.
         21   -1    0    0  501  502 -0.00000000000E+00 -0.00000000000E+00 -0.21913340733E+02  0.21913340733E+02  0.00000000000E+00 0.  1.
         25    1    1    2    0    0 -0.58179631154E+02 -0.16680861435E+02  0.41420606941E+03  0.43686930375E+03  0.12500000000E+03 0.  0.
         25    1    1    2    0    0  0.58179631154E+02  0.16680861435E+02  0.44511248592E+03  0.46627593305E+03  0.12500000000E+03 0.  0.
</event>
<event>
 4    0  0.2193754E-002  0.1812184E+03  0.7546771E-02  0.1166629E+00
         21   -1    0    0  502  501  0.00000000000E+00  0.00000000000E+00  0.22505508148E+03  0.22505508148E+03  0.00000000000E+00 0. -1.
         21   -1    0    0  501  502 -0.00000000000E+00 -0.00000000000E+00 -0.14592039264E+03  0.14592039264E+03  0.00000000000E+00 0. -1.
         25    1    1    2    0    0 -0.26466734426E+02 -0.11457556227E+03  0.99137045150E+02  0.19819485670E+03  0.12500000000E+03 0.  0.
         25    1    1    2    0    0  0.26466734426E+02  0.11457556227E+03 -0.20002356315E+02  0.17278061743E+03  0.12500000000E+03 0.  0.
</event>
<event>
 4    0  0.2193754E-002  0.2040159E+03  0.7546771E-02  0.1146394E+00
         21   -1    0    0  502  501  0.00000000000E+00  0.00000000000E+00  0.54772202804E+03  0.54772202804E+03  0.00000000000E+00 0.  1.
         21   -1    0    0  501  502 -0.00000000000E+00 -0.00000000000E+00 -0.75992010258E+02  0.75992010258E+02  0.00000000000E+00 0.  1.
         25    1    1    2    0    0 -0.54806461698E+02 -0.13334399498E+03  0.34623237486E+03  0.39533052834E+03  0.12500000000E+03 0.  0.
         25    1    1    2    0    0  0.54806461698E+02  0.13334399498E+03  0.12549764292E+03  0.22838350995E+03  0.12500000000E+03 0.  0.
</event>
<event>
 4    0  0.2193754E-002  0.1607698E+03  0.7546771E-02  0.1187830E+00
         21   -1    0    0  502  501  0.00000000000E+00  0.00000000000E+00  0.19178967799E+03  0.19178967799E+03  0.00000000000E+00 0.  1.
         21   -1    0    0  501  502 -0.00000000000E+00 -0.00000000000E+00 -0.13476700504E+03  0.13476700504E+03  0.00000000000E+00 0.  1.
         25    1    1    2    0    0  0.57112653184E+02 -0.13373672654E+02 -0.55121683828E+02  0.14867451127E+03  0.12500000000E+03 0.  0.
         25    1    1    2    0    0 -0.57112653184E+02  0.13373672654E+02  0.11214435677E+03  0.17788217176E+03  0.12500000000E+03 0.  0.
</event>
<event>
 4    0  0.2193754E-002  0.2616277E+03  0.7546771E-02  0.1106169E+00
         21   -1    0    0  502  501  0.00000000000E+00  0.00000000000E+00  0.25466627076E+03  0.25466627076E+03  0.00000000000E+00 0. -1.
         21   -1    0    0  501  502 -0.00000000000E+00 -0.00000000000E+00 -0.26877935698E+03  0.26877935698E+03  0.00000000000E+00 0.  1.
         25    1    1    2    0    0  0.15919605833E+03 -0.15645880611E+03 -0.61860528950E+02  0.26320043320E+03  0.12500000000E+03 0.  0.
         25    1    1    2    0    0 -0.15919605833E+03  0.15645880611E+03  0.47747442727E+02  0.26024519454E+03  0.12500000000E+03 0.  0.
</event>
<event>
 4    0  0.2193754E-002  0.1605294E+03  0.7546771E-02  0.1188100E+00
         21   -1    0    0  502  501  0.00000000000E+00  0.00000000000E+00  0.62416442382E+02  0.62416442382E+02  0.00000000000E+00 0.  1.
         21   -1    0    0  501  502 -0.00000000000E+00 -0.00000000000E+00 -0.41286696732E+03  0.41286696732E+03  0.00000000000E+00 0.  1.
         25    1    1    2    0    0  0.27794017414E+02  0.78961985566E+02 -0.92309303117E+02  0.17650356940E+03  0.12500000000E+03 0.  0.
         25    1    1    2    0    0 -0.27794017414E+02 -0.78961985566E+02 -0.25814122182E+03  0.29877984031E+03  0.12500000000E+03 0.  0.
</event>
<event>
 4    0  0.2193754E-002  0.2448883E+03  0.7546771E-02  0.1116579E+00
         21   -1    0    0  502  501  0.00000000000E+00  0.00000000000E+00  0.51267052841E+03  0.51267052841E+03  0.00000000000E+00 0.  1.
         21   -1    0    0  501  502 -0.00000000000E+00 -0.00000000000E+00 -0.11697629958E+03  0.11697629958E+03  0.00000000000E+00 0.  1.
         25    1    1    2    0    0  0.10442147230E+03  0.15550547172E+03  0.32155369726E+03  0.39256537778E+03  0.12500000000E+03 0.  0.
         25    1    1    2    0    0 -0.10442147230E+03 -0.15550547172E+03  0.74140531568E+02  0.23708145021E+03  0.12500000000E+03 0.  0.
</event>
<event>
 4    0  0.2193754E-002  0.1847068E+03  0.7546771E-02  0.1163324E+00
         21   -1    0    0  502  501  0.00000000000E+00  0.00000000000E+00  0.12021402327E+04  0.12021402327E+04  0.00000000000E+00 0.  1.
         21   -1    0    0  501  502 -0.00000000000E+00 -0.00000000000E+00 -0.28379900121E+02  0.28379900121E+02  0.00000000000E+00 0.  1.
         25    1    1    2    0    0 -0.72467234023E+02  0.11497690386E+03  0.60193665917E+03  0.62962205336E+03  0.12500000000E+03 0.  0.
         25    1    1    2    0    0  0.72467234023E+02 -0.11497690386E+03  0.57182367344E+03  0.60089807949E+03  0.12500000000E+03 0.  0.
</event>
<event>
 4    0  0.2193754E-002  0.2651927E+03  0.7546771E-02  0.1104063E+00
         21   -1    0    0  502  501  0.00000000000E+00  0.00000000000E+00  0.98680430157E+03  0.98680430157E+03  0.00000000000E+00 0.  1.
         21   -1    0    0  501  502 -0.00000000000E+00 -0.00000000000E+00 -0.71267618499E+02  0.71267618499E+02  0.00000000000E+00 0.  1.
         25    1    1    2    0    0  0.79628673708E+02 -0.21929948168E+03  0.49049973048E+03  0.55735803030E+03  0.12500000000E+03 0.  0.
         25    1    1    2    0    0 -0.79628673708E+02  0.21929948168E+03  0.42503695259E+03  0.50071388977E+03  0.12500000000E+03 0.  0.
</event>
<event>
 4    0  0.2193754E-002  0.4593265E+03  0.7546771E-02  0.1024977E+00
         21   -1    0    0  502  501  0.00000000000E+00  0.00000000000E+00  0.88104028019E+03  0.88104028019E+03  0.00000000000E+00 0. -1.
         21   -1    0    0  501  502 -0.00000000000E+00 -0.00000000000E+00 -0.23946786199E+03  0.23946786199E+03  0.00000000000E+00 0. -1.
         25    1    1    2    0    0  0.21211392417E+03  0.27564422710E+03 -0.11875358281E+02  0.36978112566E+03  0.12500000000E+03 0.  0.
         25    1    1    2    0    0 -0.21211392417E+03 -0.27564422710E+03  0.65344777647E+03  0.75072701652E+03  0.12500000000E+03 0.  0.
</event>
<event>
 4    0  0.2193754E-002  0.2042071E+03  0.7546771E-02  0.1146237E+00
         21   -1    0    0  502  501  0.00000000000E+00  0.00000000000E+00  0.22258129396E+04  0.22258129396E+04  0.00000000000E+00 0.  1.
         21   -1    0    0  501  502 -0.00000000000E+00 -0.00000000000E+00 -0.18734974470E+02  0.18734974470E+02  0.00000000000E+00 0.  1.
         25    1    1    2    0    0  0.10522652441E+03  0.10969338970E+03  0.80401800921E+03  0.82775311556E+03  0.12500000000E+03 0.  0.
         25    1    1    2    0    0 -0.10522652441E+03 -0.10969338970E+03  0.14030599559E+04  0.14167947985E+04  0.12500000000E+03 0.  0.
</event>
<event>
 4    0  0.2193754E-002  0.2931537E+03  0.7546771E-02  0.1088714E+00
         21   -1    0    0  502  501  0.00000000000E+00  0.00000000000E+00  0.90132400652E+02  0.90132400652E+02  0.00000000000E+00 0.  1.
         21   -1    0    0  501  502 -0.00000000000E+00 -0.00000000000E+00 -0.95347584172E+03  0.95347584172E+03  0.00000000000E+00 0.  1.
         25    1    1    2    0    0  0.25404205802E+03  0.32929004270E+02 -0.30974222507E+03  0.42093578198E+03  0.12500000000E+03 0.  0.
         25    1    1    2    0    0 -0.25404205802E+03 -0.32929004270E+02 -0.55360121600E+03  0.62267246039E+03  0.12500000000E+03 0.  0.
</event>
<event>
 4    0  0.2193754E-002  0.1466138E+03  0.7546771E-02  0.1204697E+00
         21   -1    0    0  502  501  0.00000000000E+00  0.00000000000E+00  0.35038487307E+02  0.35038487307E+02  0.00000000000E+00 0. -1.
         21   -1    0    0  501  502 -0.00000000000E+00 -0.00000000000E+00 -0.61348522039E+03  0.61348522039E+03  0.00000000000E+00 0. -1.
         25    1    1    2    0    0 -0.24142666105E+01 -0.73513408027E+02 -0.24176018743E+03  0.28192736311E+03  0.12500000000E+03 0.  0.
         25    1    1    2    0    0  0.24142666105E+01  0.73513408027E+02 -0.33668654565E+03  0.36659634459E+03  0.12500000000E+03 0.  0.
</event>
<event>
 4    0  0.2193754E-002  0.1607069E+03  0.7546771E-02  0.1187901E+00
         21   -1    0    0  502  501  0.00000000000E+00  0.00000000000E+00  0.40934318578E+03  0.40934318578E+03  0.00000000000E+00 0. -1.
         21   -1    0    0  501  502 -0.00000000000E+00 -0.00000000000E+00 -0.63093010699E+02  0.63093010699E+02  0.00000000000E+00 0. -1.
         25    1    1    2    0    0 -0.55851265082E+02 -0.72120307987E+01  0.49880967561E+02  0.14589204270E+03  0.12500000000E+03 0.  0.
         25    1    1    2    0    0  0.55851265082E+02  0.72120307987E+01  0.29636920752E+03  0.32654415378E+03  0.12500000000E+03 0.  0.
</event>
<event>
 4    0  0.2193754E-002  0.3167745E+03  0.7546771E-02  0.1077143E+00
         21   -1    0    0  502  501  0.00000000000E+00  0.00000000000E+00  0.10898534337E+03  0.10898534337E+03  0.00000000000E+00 0. -1.
         21   -1    0    0  501  502 -0.00000000000E+00 -0.00000000000E+00 -0.92073020571E+03  0.92073020571E+03  0.00000000000E+00 0. -1.
         25    1    1    2    0    0 -0.89332853558E+02  0.13088839066E+03 -0.80269177356E+03  0.82767820612E+03  0.12500000000E+03 0.  0.
         25    1    1    2    0    0  0.89332853558E+02 -0.13088839066E+03 -0.90530887757E+01  0.20203734296E+03  0.12500000000E+03 0.  0.
</event>
<event>
 4    0  0.2193754E-002  0.2352168E+03  0.7546771E-02  0.1123021E+00
         21   -1    0    0  502  501  0.00000000000E+00  0.00000000000E+00  0.11813528168E+04  0.11813528168E+04  0.00000000000E+00 0. -1.
         21   -1    0    0  501  502 -0.00000000000E+00 -0.00000000000E+00 -0.46833536764E+02  0.46833536764E+02  0.00000000000E+00 0. -1.
         25    1    1    2    0    0 -0.85064772981E+02 -0.10568579498E+03  0.18626456335E+03  0.26215451631E+03  0.12500000000E+03 0.  0.
         25    1    1    2    0    0  0.85064772981E+02  0.10568579498E+03  0.94825471672E+03  0.96603183728E+03  0.12500000000E+03 0.  0.
</event>
<event>
 4    0  0.2193754E-002  0.2337753E+03  0.7546771E-02  0.1124010E+00
         21   -1    0    0  502  501  0.00000000000E+00  0.00000000000E+00  0.24436768373E+03  0.24436768373E+03  0.00000000000E+00 0. -1.
         21   -1    0    0  501  502 -0.00000000000E+00 -0.00000000000E+00 -0.22364202641E+03  0.22364202641E+03  0.00000000000E+00 0. -1.
         25    1    1    2    0    0 -0.19013505646E+03 -0.11836632429E+02  0.62706037841E+02  0.23632285701E+03  0.12500000000E+03 0.  0.
         25    1    1    2    0    0  0.19013505646E+03  0.11836632429E+02 -0.41980380517E+02  0.23168685313E+03  0.12500000000E+03 0.  0.
</event>
<event>
 4    0  0.2193754E-002  0.2211039E+03  0.7546771E-02  0.1133063E+00
         21   -1    0    0  502  501  0.00000000000E+00  0.00000000000E+00  0.40812577676E+02  0.40812577676E+02  0.00000000000E+00 0.  1.
         21   -1    0    0  501  502 -0.00000000000E+00 -0.00000000000E+00 -0.11978402657E+04  0.11978402657E+04  0.00000000000E+00 0.  1.
         25    1    1    2    0    0 -0.34794854438E+02 -0.49430762609E+02 -0.10604912724E+04  0.10695423419E+04  0.12500000000E+03 0.  0.
         25    1    1    2    0    0  0.34794854438E+02  0.49430762609E+02 -0.96536415657E+02  0.16911050155E+03  0.12500000000E+03 0.  0.
</event>
<event>
 4    0  0.2193754E-002  0.2042261E+03  0.7546771E-02  0.1146222E+00
         21   -1    0    0  502  501  0.00000000000E+00  0.00000000000E+00  0.28387671769E+03  0.28387671769E+03  0.00000000000E+00 0. -1.
         21   -1    0    0  501  502 -0.00000000000E+00 -0.00000000000E+00 -0.14692398729E+03  0.14692398729E+03  0.00000000000E+00 0. -1.
         25    1    1    2    0    0 -0.12498068199E+03  0.77620343957E+02  0.13874137678E+03  0.23773779316E+03  0.12500000000E+03 0.  0.
         25    1    1    2    0    0  0.12498068199E+03 -0.77620343957E+02 -0.17886463812E+01  0.19306291182E+03  0.12500000000E+03 0.  0.
</event>
<event>
 4    0  0.2193754E-002  0.2415051E+03  0.7546771E-02  0.1118794E+00
         21   -1    0    0  502  501  0.00000000000E+00  0.00000000000E+00  0.41048044378E+03  0.41048044378E+03  0.00000000000E+00 0. -1.
         21   -1    0    0  501  502 -0.00000000000E+00 -0.00000000000E+00 -0.14208890576E+03  0.14208890576E+03  0.00000000000E+00 0. -1.
         25    1    1    2    0    0  0.18271596312E+03 -0.72681474023E+02  0.61553301360E+02  0.24100109700E+03  0.12500000000E+03 0.  0.
         25    1    1    2    0    0 -0.18271596312E+03  0.72681474023E+02  0.20683823666E+03  0.31156825254E+03  0.12500000000E+03 0.  0.
</event>
<event>
 4    0  0.2193754E-002  0.2276901E+03  0.7546771E-02  0.1128276E+00
         21   -1    0    0  502  501  0.00000000000E+00  0.00000000000E+00  0.13246781753E+04  0.13246781753E+04  0.00000000000E+00 0. -1.
         21   -1    0    0  501  502 -0.00000000000E+00 -0.00000000000E+00 -0.39136125498E+02  0.39136125498E+02  0.00000000000E+00 0. -1.
         25    1    1    2    0    0  0.89418167274E+02  0.48082585433E+02  0.11248484051E+04  0.11363170676E+04  0.12500000000E+03 0.  0.
         25    1    1    2    0    0 -0.89418167274E+02 -0.48082585433E+02  0.16069364467E+03  0.22749723316E+03  0.12500000000E+03 0.  0.
</event>
<event>
 4    0  0.2193754E-002  0.1957900E+03  0.7546771E-02  0.1153340E+00
         21   -1    0    0  502  501  0.00000000000E+00  0.00000000000E+00  0.12589684331E+03  0.12589684331E+03  0.00000000000E+00 0. -1.
         21   -1    0    0  501  502 -0.00000000000E+00 -0.00000000000E+00 -0.30448507322E+03  0.30448507322E+03  0.00000000000E+00 0. -1.
         25    1    1    2    0    0 -0.65525384939E+02  0.76712729167E+02 -0.21232500569E+03  0.26624298475E+03  0.12500000000E+03 0.  0.
         25    1    1    2    0    0  0.65525384939E+02 -0.76712729167E+02  0.33736775777E+02  0.16413893178E+03  0.12500000000E+03 0.  0.
</event>
<event>
 4    0  0.2193754E-002  0.2150626E+03  0.7546771E-02  0.1137619E+00
         21   -1    0    0  502  501  0.00000000000E+00  0.00000000000E+00  0.36788833284E+03  0.36788833284E+03  0.00000000000E+00 0.  1.
         21   -1    0    0  501  502 -0.00000000000E+00 -0.00000000000E+00 -0.12572266407E+03  0.12572266407E+03  0.00000000000E+00 0.  1.
         25    1    1    2    0    0 -0.16114797468E+03 -0.17855610024E+02  0.19667996562E+03  0.28389346845E+03  0.12500000000E+03 0.  0.
         25    1    1    2    0    0  0.16114797468E+03  0.17855610024E+02  0.45485703152E+02  0.20971752846E+03  0.12500000000E+03 0.  0.
</event>
<event>
 4    0  0.2193754E-002  0.1774557E+03  0.7546771E-02  0.1170288E+00
         21   -1    0    0  502  501  0.00000000000E+00  0.00000000000E+00  0.73313876689E+02  0.73313876689E+02  0.00000000000E+00 0.  1.
         21   -1    0    0  501  502 -0.00000000000E+00 -0.00000000000E+00 -0.42953035603E+03  0.42953035603E+03  0.00000000000E+00 0.  1.
         25    1    1    2    0    0 -0.11347200909E+03 -0.54634744315E+02 -0.18117440211E+03  0.25359419574E+03  0.12500000000E+03 0.  0.
         25    1    1    2    0    0  0.11347200909E+03  0.54634744315E+02 -0.17504207723E+03  0.24925003698E+03  0.12500000000E+03 0.  0.
</event>
<event>
 4    0  0.2193754E-002  0.1401799E+03  0.7546771E-02  0.1213087E+00
         21   -1    0    0  502  501  0.00000000000E+00  0.00000000000E+00  0.55727487663E+02  0.55727487663E+02  0.00000000000E+00 0. -1.
         21   -1    0    0  501  502 -0.00000000000E+00 -0.00000000000E+00 -0.35261580185E+03  0.35261580185E+03  0.00000000000E+00 0. -1.
         25    1    1    2    0    0 -0.19451439840E+02 -0.56309556730E+02 -0.18023013206E+03  0.22728181888E+03  0.12500000000E+03 0.  0.
         25    1    1    2    0    0  0.19451439840E+02  0.56309556730E+02 -0.11665818213E+03  0.18106147064E+03  0.12500000000E+03 0.  0.
</event>
<event>
 4    0  0.2193754E-002  0.2546219E+03  0.7546771E-02  0.1110418E+00
         21   -1    0    0  502  501  0.00000000000E+00  0.00000000000E+00  0.38179060243E+03  0.38179060243E+03  0.00000000000E+00 0. -1.
         21   -1    0    0  501  502 -0.00000000000E+00 -0.00000000000E+00 -0.16981118009E+03  0.16981118009E+03  0.00000000000E+00 0. -1.
         25    1    1    2    0    0  0.10003264226E+03 -0.66119972461E+02 -0.96158540574E+02  0.19811573688E+03  0.12500000000E+03 0.  0.
         25    1    1    2    0    0 -0.10003264226E+03  0.66119972461E+02  0.30813796292E+03  0.35348604564E+03  0.12500000000E+03 0.  0.
</event>
<event>
 4    0  0.2193754E-002  0.1918387E+03  0.7546771E-02  0.1156813E+00
         21   -1    0    0  502  501  0.00000000000E+00  0.00000000000E+00  0.30593394556E+03  0.30593394556E+03  0.00000000000E+00 0. -1.
         21   -1    0    0  501  502 -0.00000000000E+00 -0.00000000000E+00 -0.12029422763E+03  0.12029422763E+03  0.00000000000E+00 0. -1.
         25    1    1    2    0    0  0.33385792423E+02  0.22093330138E+02 -0.62604730676E+02  0.14542035165E+03  0.12500000000E+03 0.  0.
         25    1    1    2    0    0 -0.33385792423E+02 -0.22093330138E+02  0.24824444861E+03  0.28080782154E+03  0.12500000000E+03 0.  0.
</event>
<event>
 4    0  0.2193754E-002  0.2315411E+03  0.7546771E-02  0.1125560E+00
         21   -1    0    0  502  501  0.00000000000E+00  0.00000000000E+00  0.13794722640E+03  0.13794722640E+03  0.00000000000E+00 0.  1.
         21   -1    0    0  501  502 -0.00000000000E+00 -0.00000000000E+00 -0.38863621053E+03  0.38863621053E+03  0.00000000000E+00 0.  1.
         25    1    1    2    0    0 -0.26136791693E+01 -0.12292699165E+03 -0.29730434821E+03  0.34515612708E+03  0.12500000000E+03 0.  0.
         25    1    1    2    0    0  0.26136791693E+01  0.12292699165E+03  0.46615364077E+02  0.18142730986E+03  0.12500000000E+03 0.  0.
</event>
<event>
 4    0  0.2193754E-002  0.2279845E+03  0.7546771E-02  0.1128066E+00
         21   -1    0    0  502  501  0.00000000000E+00  0.00000000000E+00  0.52432980466E+03  0.52432980466E+03  0.00000000000E+00 0. -1.
         21   -1    0    0  501  502 -0.00000000000E+00 -0.00000000000E+00 -0.99130249535E+02  0.99130249535E+02  0.00000000000E+00 0. -1.
         25    1    1    2    0    0  0.78762401536E+02 -0.37710129538E+02 -0.19146984435E+02  0.15367881044E+03  0.12500000000E+03 0.  0.
         25    1    1    2    0    0 -0.78762401536E+02  0.37710129538E+02  0.44434653956E+03  0.46978124376E+03  0.12500000000E+03 0.  0.
</event>
<event>
 4    0  0.2193754E-002  0.2281454E+03  0.7546771E-02  0.1127952E+00
         21   -1    0    0  502  501  0.00000000000E+00  0.00000000000E+00  0.95158611109E+02  0.95158611109E+02  0.00000000000E+00 0.  1.
         21   -1    0    0  501  502 -0.00000000000E+00 -0.00000000000E+00 -0.54698473420E+03  0.54698473420E+03  0.00000000000E+00 0.  1.
         25    1    1    2    0    0  0.16533034888E+03  0.16586356230E+02 -0.93774977239E+02  0.22809642222E+03  0.12500000000E+03 0.  0.
         25    1    1    2    0    0 -0.16533034888E+03 -0.16586356230E+02 -0.35805114585E+03  0.41404692309E+03  0.12500000000E+03 0.  0.
</event>
<event>
 4    0  0.2193754E-002  0.2837019E+03  0.7546771E-02  0.1093684E+00
         21   -1    0    0  502  501  0.00000000000E+00  0.00000000000E+00  0.12021365388E+03  0.12021365388E+03  0.00000000000E+00 0. -1.
         21   -1    0    0  501  502 -0.00000000000E+00 -0.00000000000E+00 -0.66953089257E+03  0.66953089257E+03  0.00000000000E+00 0. -1.
         25    1    1    2    0    0  0.89885866782E+02  0.21938566683E+03 -0.40412532142E+03  0.48492454596E+03  0.12500000000E+03 0.  0.
         25    1    1    2    0    0 -0.89885866782E+02 -0.21938566683E+03 -0.14519191727E+03  0.30482000049E+03  0.12500000000E+03 0.  0.
</event>
<event>
 4    0  0.2193754E-002  0.2744996E+03  0.7546771E-02  0.1098732E+00
         21   -1    0    0  502  501  0.00000000000E+00  0.00000000000E+00  0.94965260406E+02  0.94965260406E+02  0.00000000000E+00 0. -1.
         21   -1    0    0  501  502 -0.00000000000E+00 -0.00000000000E+00 -0.79344815291E+03  0.79344815291E+03  0.00000000000E+00 0. -1.
         25    1    1    2    0    0  0.18924239902E+02  0.24345429476E+03 -0.36517023881E+03  0.45673014331E+03  0.12500000000E+03 0.  0.
         25    1    1    2    0    0 -0.18924239902E+02 -0.24345429476E+03 -0.33331265369E+03  0.43168327001E+03  0.12500000000E+03 0.  0.
</event>
<event>
 4    0  0.2193754E-002  0.1879357E+03  0.7546771E-02  0.1160336E+00
         21   -1    0    0  502  501  0.00000000000E+00  0.00000000000E+00  0.77937086167E+02  0.77937086167E+02  0.00000000000E+00 0.  1.
         21   -1    0    0  501  502 -0.00000000000E+00 -0.00000000000E+00 -0.45318383961E+03  0.45318383961E+03  0.00000000000E+00 0.  1.
         25    1    1    2    0    0 -0.52353956731E+02 -0.11832883240E+03 -0.11084738398E+03  0.21131680458E+03  0.12500000000E+03 0.  0.
         25    1    1    2    0    0  0.52353956731E+02  0.11832883240E+03 -0.26439936946E+03  0.31980412119E+03  0.12500000000E+03 0.  0.
</event>
<event>
 4    0  0.2193754E-002  0.2241996E+03  0.7546771E-02  0.1130790E+00
         21   -1    0    0  502  501  0.00000000000E+00  0.00000000000E+00  0.12082693011E+03  0.12082693011E+03  0.00000000000E+00 0.  1.
         21   -1    0    0  501  502 -0.00000000000E+00 -0.00000000000E+00 -0.41601219477E+03  0.41601219477E+03  0.00000000000E+00 0.  1.
         25    1    1    2    0    0 -0.11029619999E+02 -0.14997045125E+03 -0.16290937265E+02  0.19622228059E+03  0.12500000000E+03 0.  0.
         25    1    1    2    0    0  0.11029619999E+02  0.14997045125E+03 -0.27889432739E+03  0.34061684429E+03  0.12500000000E+03 0.  0.
</event>
<event>
 4    0  0.2193754E-002  0.2215159E+03  0.7546771E-02  0.1132758E+00
         21   -1    0    0  502  501  0.00000000000E+00  0.00000000000E+00  0.23721803202E+03  0.23721803202E+03  0.00000000000E+00 0.  1.
         21   -1    0    0  501  502 -0.00000000000E+00 -0.00000000000E+00 -0.20685321921E+03  0.20685321921E+03  0.00000000000E+00 0.  1.
         25    1    1    2    0    0 -0.17465952486E+03 -0.34398340507E+01  0.69406746106E+02  0.22574339080E+03  0.12500000000E+03 0.  0.
         25    1    1    2    0    0  0.17465952486E+03  0.34398340507E+01 -0.39041933296E+02  0.21832786043E+03  0.12500000000E+03 0.  0.
</event>
<event>
 4    0  0.2193754E-002  0.3309934E+03  0.7546771E-02  0.1070698E+00
         21   -1    0    0  502  501  0.00000000000E+00  0.00000000000E+00  0.81131702157E+02  0.81131702157E+02  0.00000000000E+00 0.  1.
         21   -1    0    0  501  502 -0.00000000000E+00 -0.00000000000E+00 -0.13503556619E+04  0.13503556619E+04  0.00000000000E+00 0.  1.
         25    1    1    2    0    0 -0.15675969661E+03 -0.25800972936E+03 -0.74881162953E+03  0.81699845743E+03  0.12500000000E+03 0.  0.
         25    1    1    2    0    0  0.15675969661E+03  0.25800972936E+03 -0.52041233019E+03  0.61448890661E+03  0.12500000000E+03 0.  0.
</event>
<event>
 4    0  0.2193754E-002  0.2123605E+03  0.7546771E-02  0.1139710E+00
         21   -1    0    0  502  501  0.00000000000E+00  0.00000000000E+00  0.81511299807E+03  0.81511299807E+03  0.00000000000E+00 0.  1.
         21   -1    0    0  501  502 -0.00000000000E+00 -0.00000000000E+00 -0.55326070835E+02  0.55326070835E+02  0.00000000000E+00 0.  1.
         25    1    1    2    0    0 -0.13053583269E+03  0.80901833520E+02  0.53714403824E+03  0.57248006786E+03  0.12500000000E+03 0.  0.
         25    1    1    2    0    0  0.13053583269E+03 -0.80901833520E+02  0.22264288899E+03  0.29795900104E+03  0.12500000000E+03 0.  0.
</event>
<event>
 4    0  0.2193754E-002  0.2866594E+03  0.7546771E-02  0.1092106E+00
         21   -1    0    0  502  501  0.00000000000E+00  0.00000000000E+00  0.15576859458E+04  0.15576859458E+04  0.00000000000E+00 0. -1.
         21   -1    0    0  501  502 -0.00000000000E+00 -0.00000000000E+00 -0.52753632364E+02  0.52753632364E+02  0.00000000000E+00 0. -1.
         25    1    1    2    0    0  0.81587000504E+00  0.16223922691E+03  0.13158490670E+04  0.13316929074E+04  0.12500000000E+03 0.  0.
         25    1    1    2    0    0 -0.81587000504E+00 -0.16223922691E+03  0.18908324639E+03  0.27874667075E+03  0.12500000000E+03 0.  0.
</event>
<event>
 4    0  0.2193754E-002  0.1629698E+03  0.7546771E-02  0.1185384E+00
         21   -1    0    0  502  501  0.00000000000E+00  0.00000000000E+00  0.44535303010E+02  0.44535303010E+02  0.00000000000E+00 0.  1.
         21   -1    0    0  501  502 -0.00000000000E+00 -0.00000000000E+00 -0.59636173566E+03  0.59636173566E+03  0.00000000000E+00 0.  1.
         25    1    1    2    0    0 -0.49150741670E+02  0.57403622749E+02 -0.41802125491E+03  0.44280666308E+03  0.12500000000E+03 0.  0.
         25    1    1    2    0    0  0.49150741670E+02 -0.57403622749E+02 -0.13380517774E+03  0.19809037559E+03  0.12500000000E+03 0.  0.
</event>
<event>
 4    0  0.2193754E-002  0.2186137E+03  0.7546771E-02  0.1134921E+00
         21   -1    0    0  502  501  0.00000000000E+00  0.00000000000E+00  0.76632737109E+03  0.76632737109E+03  0.00000000000E+00 0. -1.
         21   -1    0    0  501  502 -0.00000000000E+00 -0.00000000000E+00 -0.62364944567E+02  0.62364944567E+02  0.00000000000E+00 0. -1.
         25    1    1    2    0    0  0.51920374134E+02 -0.84824300697E+02  0.69099267898E+02  0.17404193766E+03  0.12500000000E+03 0.  0.
         25    1    1    2    0    0 -0.51920374134E+02  0.84824300697E+02  0.63486315863E+03  0.65465037801E+03  0.12500000000E+03 0.  0.
</event>
<event>
 4    0  0.2193754E-002  0.3563568E+03  0.7546771E-02  0.1060036E+00
         21   -1    0    0  502  501  0.00000000000E+00  0.00000000000E+00  0.14985620071E+03  0.14985620071E+03  0.00000000000E+00 0.  1.
         21   -1    0    0  501  502 -0.00000000000E+00 -0.00000000000E+00 -0.84741344038E+03  0.84741344038E+03  0.00000000000E+00 0.  1.
         25    1    1    2    0    0  0.10688263509E+03  0.31072626475E+03 -0.26730327672E+03  0.44164550381E+03  0.12500000000E+03 0.  0.
         25    1    1    2    0    0 -0.10688263509E+03 -0.31072626475E+03 -0.43025396296E+03  0.55562413728E+03  0.12500000000E+03 0.  0.
</event>
<event>
 4    0  0.2193754E-002  0.2065372E+03  0.7546771E-02  0.1144338E+00
         21   -1    0    0  502  501  0.00000000000E+00  0.00000000000E+00  0.14479173480E+03  0.14479173480E+03  0.00000000000E+00 0. -1.
         21   -1    0    0  501  502 -0.00000000000E+00 -0.00000000000E+00 -0.29461369769E+03  0.29461369769E+03  0.00000000000E+00 0. -1.
         25    1    1    2    0    0 -0.15599073437E+03  0.30493508308E+02 -0.11965990773E+03  0.23496054302E+03  0.12500000000E+03 0.  0.
         25    1    1    2    0    0  0.15599073437E+03 -0.30493508308E+02 -0.30162055166E+02  0.20444488947E+03  0.12500000000E+03 0.  0.
</event>
<event>
 4    0  0.2193754E-002  0.1685731E+03  0.7546771E-02  0.1179344E+00
         21   -1    0    0  502  501  0.00000000000E+00  0.00000000000E+00  0.91911923431E+02  0.91911923431E+02  0.00000000000E+00 0. -1.
         21   -1    0    0  501  502 -0.00000000000E+00 -0.00000000000E+00 -0.30917528644E+03  0.30917528644E+03  0.00000000000E+00 0. -1.
         25    1    1    2    0    0 -0.75986507522E+02  0.78491907517E+02 -0.73805777614E+02  0.18167889718E+03  0.12500000000E+03 0.  0.
         25    1    1    2    0    0  0.75986507522E+02 -0.78491907517E+02 -0.14345758540E+03  0.21940831269E+03  0.12500000000E+03 0.  0.
</event>
<event>
 4    0  0.2193754E-002  0.2927422E+03  0.7546771E-02  0.1088926E+00
         21   -1    0    0  502  501  0.00000000000E+00  0.00000000000E+00  0.95522948374E+03  0.95522948374E+03  0.00000000000E+00 0.  1.
         21   -1    0    0  501  502 -0.00000000000E+00 -0.00000000000E+00 -0.89714568360E+02  0.89714568360E+02  0.00000000000E+00 0.  1.
         25    1    1    2    0    0  0.16592773836E+03 -0.19216196442E+03  0.29902293758E+03  0.41170128993E+03  0.12500000000E+03 0.  0.
         25    1    1    2    0    0 -0.16592773836E+03  0.19216196442E+03  0.56649197781E+03  0.63324276218E+03  0.12500000000E+03 0.  0.
</event>
<event>
 4    0  0.2193754E-002  0.2328272E+03  0.7546771E-02  0.1124666E+00
         21   -1    0    0  502  501  0.00000000000E+00  0.00000000000E+00  0.19183486789E+03  0.19183486789E+03  0.00000000000E+00 0.  1.
         21   -1    0    0  501  502 -0.00000000000E+00 -0.00000000000E+00 -0.28257894116E+03  0.28257894116E+03  0.00000000000E+00 0.  1.
         25    1    1    2    0    0 -0.31114778829E+02  0.14929428903E+03  0.80757348604E+02  0.21308135430E+03  0.12500000000E+03 0.  0.
         25    1    1    2    0    0  0.31114778829E+02 -0.14929428903E+03 -0.17150142187E+03  0.26133245474E+03  0.12500000000E+03 0.  0.
</event>
<event>
 4    0  0.2193754E-002  0.1561436E+03  0.7546771E-02  0.1193121E+00
         21   -1    0    0  502  501  0.00000000000E+00  0.00000000000E+00  0.32092160927E+03  0.32092160927E+03  0.00000000000E+00 0.  1.
         21   -1    0    0  501  502 -0.00000000000E+00 -0.00000000000E+00 -0.75971322259E+02  0.75971322259E+02  0.00000000000E+00 0.  1.
         25    1    1    2    0    0  0.81971966459E+02 -0.24741403036E+02  0.17043960607E+03  0.22804867820E+03  0.12500000000E+03 0.  0.
         25    1    1    2    0    0 -0.81971966459E+02  0.24741403036E+02  0.74510680941E+02  0.16884425333E+03  0.12500000000E+03 0.  0.
</event>
<event>
 4    0  0.2193754E-002  0.1825726E+03  0.7546771E-02  0.1165336E+00
         21   -1    0    0  502  501  0.00000000000E+00  0.00000000000E+00  0.33671592759E+03  0.33671592759E+03  0.00000000000E+00 0.  1.
         21   -1    0    0  501  502 -0.00000000000E+00 -0.00000000000E+00 -0.98993672838E+02  0.98993672838E+02  0.00000000000E+00 0.  1.
         25    1    1    2    0    0  0.10219011376E+03 -0.33448028009E+02  0.25313367950E+02  0.16681533660E+03  0.12500000000E+03 0.  0.
         25    1    1    2    0    0 -0.10219011376E+03  0.33448028009E+02  0.21240888680E+03  0.26889426383E+03  0.12500000000E+03 0.  0.
</event>
<event>
 4    0  0.2193754E-002  0.1833551E+03  0.7546771E-02  0.1164595E+00
         21   -1    0    0  502  501  0.00000000000E+00  0.00000000000E+00  0.49496359136E+02  0.49496359136E+02  0.00000000000E+00 0. -1.
         21   -1    0    0  501  502 -0.00000000000E+00 -0.00000000000E+00 -0.67922330264E+03  0.67922330264E+03  0.00000000000E+00 0. -1.
         25    1    1    2    0    0  0.22789276816E+02 -0.90278996339E+02 -0.50675189487E+03  0.53018122494E+03  0.12500000000E+03 0.  0.
         25    1    1    2    0    0 -0.22789276816E+02  0.90278996339E+02 -0.12297504863E+03  0.19853843684E+03  0.12500000000E+03 0.  0.
</event>
<event>
 4    0  0.2193754E-002  0.1850200E+03  0.7546771E-02  0.1163031E+00
         21   -1    0    0  502  501  0.00000000000E+00  0.00000000000E+00  0.21526136716E+03  0.21526136716E+03  0.00000000000E+00 0. -1.
         21   -1    0    0  501  502 -0.00000000000E+00 -0.00000000000E+00 -0.15902720517E+03  0.15902720517E+03  0.00000000000E+00 0. -1.
         25    1    1    2    0    0 -0.13282140064E+03  0.57240691251E+01  0.59014879027E+02  0.19178645776E+03  0.12500000000E+03 0.  0.
         25    1    1    2    0    0  0.13282140064E+03 -0.57240691251E+01 -0.27807170299E+01  0.18250211457E+03  0.12500000000E+03 0.  0.
</event>
<event>
 4    0  0.2193754E-002  0.1441443E+03  0.7546771E-02  0.1207859E+00
         21   -1    0    0  502  501  0.00000000000E+00  0.00000000000E+00  0.12394856948E+03  0.12394856948E+03  0.00000000000E+00 0.  1.
         21   -1    0    0  501  502 -0.00000000000E+00 -0.00000000000E+00 -0.16763074639E+03  0.16763074639E+03  0.00000000000E+00 0.  1.
         25    1    1    2    0    0  0.51881128202E+02  0.46221747081E+02 -0.36218727986E+01  0.14306019478E+03  0.12500000000E+03 0.  0.
         25    1    1    2    0    0 -0.51881128202E+02 -0.46221747081E+02 -0.40060304114E+02  0.14851912110E+03  0.12500000000E+03 0.  0.
</event>
<event>
 4    0  0.2193754E-002  0.1794408E+03  0.7546771E-02  0.1168345E+00
         21   -1    0    0  502  501  0.00000000000E+00  0.00000000000E+00  0.59042181407E+03  0.59042181407E+03  0.00000000000E+00 0. -1.
         21   -1    0    0  501  502 -0.00000000000E+00 -0.00000000000E+00 -0.54535595697E+02  0.54535595697E+02  0.00000000000E+00 0. -1.
         25    1    1    2    0    0 -0.61417134741E+02 -0.55732018475E+02  0.90983766498E+02  0.17544562716E+03  0.12500000000E+03 0.  0.
         25    1    1    2    0    0  0.61417134741E+02  0.55732018475E+02  0.44490245187E+03  0.46951178261E+03  0.12500000000E+03 0.  0.
</event>
<event>
 4    0  0.2193754E-002  0.2793809E+03  0.7546771E-02  0.1096028E+00
         21   -1    0    0  502  501  0.00000000000E+00  0.00000000000E+00  0.57950670806E+02  0.57950670806E+02  0.00000000000E+00 0. -1.
         21   -1    0    0  501  502 -0.00000000000E+00 -0.00000000000E+00 -0.13468982987E+04  0.13468982987E+04  0.00000000000E+00 0. -1.
         25    1    1    2    0    0  0.12611166897E+03 -0.59716231900E+01 -0.11865712975E+04  0.11997984237E+04  0.12500000000E+03 0.  0.
         25    1    1    2    0    0 -0.12611166897E+03  0.59716231900E+01 -0.10237633041E+03  0.20505054587E+03  0.12500000000E+03 0.  0.
</event>
<event>
 4    0  0.2193754E-002  0.1962962E+03  0.7546771E-02  0.1152902E+00
         21   -1    0    0  502  501  0.00000000000E+00  0.00000000000E+00  0.15245005709E+03  0.15245005709E+03  0.00000000000E+00 0.  1.
         21   -1    0    0  501  502 -0.00000000000E+00 -0.00000000000E+00 -0.25275300109E+03  0.25275300109E+03  0.00000000000E+00 0.  1.
         25    1    1    2    0    0 -0.10559302244E+03  0.81204571084E+02 -0.12431454937E+03  0.22095967039E+03  0.12500000000E+03 0.  0.
         25    1    1    2    0    0  0.10559302244E+03 -0.81204571084E+02  0.24011605367E+02  0.18424338779E+03  0.12500000000E+03 0.  0.
</event>
<event>
 4    0  0.2193754E-002  0.1723387E+03  0.7546771E-02  0.1175431E+00
         21   -1    0    0  502  501  0.00000000000E+00  0.00000000000E+00  0.52547717490E+02  0.52547717490E+02  0.00000000000E+00 0. -1.
         21   -1    0    0  501  502 -0.00000000000E+00 -0.00000000000E+00 -0.56521222754E+03  0.56521222754E+03  0.00000000000E+00 0. -1.
         25    1    1    2    0    0 -0.19317527797E+01 -0.54306861358E+02 -0.44535370799E+03  0.46574444933E+03  0.12500000000E+03 0.  0.
         25    1    1    2    0    0  0.19317527797E+01  0.54306861358E+02 -0.67310802060E+02  0.15201549570E+03  0.12500000000E+03 0.  0.
</event>
<event>
 4    0  0.2193754E-002  0.2134639E+03  0.7546771E-02  0.1138852E+00
         21   -1    0    0  502  501  0.00000000000E+00  0.00000000000E+00  0.17236854239E+03  0.17236854239E+03  0.00000000000E+00 0. -1.
         21   -1    0    0  501  502 -0.00000000000E+00 -0.00000000000E+00 -0.26435692454E+03  0.26435692454E+03  0.00000000000E+00 0. -1.
         25    1    1    2    0    0  0.87126185897E+01 -0.12257601616E+03  0.78625356074E+02  0.19211386228E+03  0.12500000000E+03 0.  0.
         25    1    1    2    0    0 -0.87126185897E+01  0.12257601616E+03 -0.17061373823E+03  0.24461160466E+03  0.12500000000E+03 0.  0.
</event>
<event>
 4    0  0.2193754E-002  0.1867001E+03  0.7546771E-02  0.1161472E+00
         21   -1    0    0  502  501  0.00000000000E+00  0.00000000000E+00  0.12053645673E+03  0.12053645673E+03  0.00000000000E+00 0.  1.
         21   -1    0    0  501  502 -0.00000000000E+00 -0.00000000000E+00 -0.28918163879E+03  0.28918163879E+03  0.00000000000E+00 0.  1.
         25    1    1    2    0    0 -0.44800205293E+02  0.12191541251E+03 -0.31000777156E+02  0.18291111062E+03  0.12500000000E+03 0.  0.
         25    1    1    2    0    0  0.44800205293E+02 -0.12191541251E+03 -0.13764440490E+03  0.22680698491E+03  0.12500000000E+03 0.  0.
</event>
<event>
 4    0  0.2193754E-002  0.1824874E+03  0.7546771E-02  0.1165417E+00
         21   -1    0    0  502  501  0.00000000000E+00  0.00000000000E+00  0.44794525526E+02  0.44794525526E+02  0.00000000000E+00 0. -1.
         21   -1    0    0  501  502 -0.00000000000E+00 -0.00000000000E+00 -0.74343166215E+03  0.74343166215E+03  0.00000000000E+00 0. -1.
         25    1    1    2    0    0  0.29557822082E+02  0.27813946045E+02 -0.62274867958E+03  0.63646539448E+03  0.12500000000E+03 0.  0.
         25    1    1    2    0    0 -0.29557822082E+02 -0.27813946045E+02 -0.75888457039E+02  0.15176079320E+03  0.12500000000E+03 0.  0.
</event>
<event>
 4    0  0.2193754E-002  0.1801459E+03  0.7546771E-02  0.1167662E+00
         21   -1    0    0  502  501  0.00000000000E+00  0.00000000000E+00  0.49466241477E+02  0.49466241477E+02  0.00000000000E+00 0. -1.
         21   -1    0    0  501  502 -0.00000000000E+00 -0.00000000000E+00 -0.65605455324E+03  0.65605455324E+03  0.00000000000E+00 0. -1.
         25    1    1    2    0    0  0.46772063305E+02 -0.46766074737E+02 -0.84774773175E+02  0.16488315202E+03  0.12500000000E+03 0.  0.
         25    1    1    2    0    0 -0.46772063305E+02  0.46766074737E+02 -0.52181353859E+03  0.54063764271E+03  0.12500000000E+03 0.  0.
</event>
<event>
 4    0  0.2193754E-002  0.3787321E+03  0.7546771E-02  0.1051403E+00
         21   -1    0    0  502  501  0.00000000000E+00  0.00000000000E+00  0.89783901610E+03  0.89783901610E+03  0.00000000000E+00 0.  1.
         21   -1    0    0  501  502 -0.00000000000E+00 -0.00000000000E+00 -0.15975914359E+03  0.15975914359E+03  0.00000000000E+00 0.  1.
         25    1    1    2    0    0 -0.10628576730E+03  0.23243496305E+03  0.71807170011E+03  0.77238244599E+03  0.12500000000E+03 0.  0.
         25    1    1    2    0    0  0.10628576730E+03 -0.23243496305E+03  0.20008172402E+02  0.28521571370E+03  0.12500000000E+03 0.  0.
</event>
<event>
 4    0  0.2193754E-002  0.2078122E+03  0.7546771E-02  0.1143310E+00
         21   -1    0    0  502  501  0.00000000000E+00  0.00000000000E+00  0.39233926864E+03  0.39233926864E+03  0.00000000000E+00 0.  1.
         21   -1    0    0  501  502 -0.00000000000E+00 -0.00000000000E+00 -0.11007282351E+03  0.11007282351E+03  0.00000000000E+00 0.  1.
         25    1    1    2    0    0 -0.67465978178E+02  0.50770000027E+02  0.31392010104E+03  0.34828161156E+03  0.12500000000E+03 0.  0.
         25    1    1    2    0    0  0.67465978178E+02 -0.50770000027E+02 -0.31653655910E+02  0.15413048059E+03  0.12500000000E+03 0.  0.
</event>
<event>
 4    0  0.2193754E-002  0.1889817E+03  0.7546771E-02  0.1159383E+00
         21   -1    0    0  502  501  0.00000000000E+00  0.00000000000E+00  0.37686867640E+02  0.37686867640E+02  0.00000000000E+00 0. -1.
         21   -1    0    0  501  502 -0.00000000000E+00 -0.00000000000E+00 -0.94765333108E+03  0.94765333108E+03  0.00000000000E+00 0. -1.
         25    1    1    2    0    0  0.30493557274E+01 -0.12575192055E+03 -0.28470498935E+03  0.33541731478E+03  0.12500000000E+03 0.  0.
         25    1    1    2    0    0 -0.30493557274E+01  0.12575192055E+03 -0.62526147409E+03  0.64992288394E+03  0.12500000000E+03 0.  0.
</event>
<event>
 4    0  0.2193754E-002  0.3071503E+03  0.7546771E-02  0.1081720E+00
         21   -1    0    0  502  501  0.00000000000E+00  0.00000000000E+00  0.17742381136E+04  0.17742381136E+04  0.00000000000E+00 0. -1.
         21   -1    0    0  501  502 -0.00000000000E+00 -0.00000000000E+00 -0.53172865608E+02  0.53172865608E+02  0.00000000000E+00 0. -1.
         25    1    1    2    0    0 -0.19179367432E+02  0.27988551255E+03  0.87108220492E+03  0.92364114027E+03  0.12500000000E+03 0.  0.
         25    1    1    2    0    0  0.19179367432E+02 -0.27988551255E+03  0.84998304309E+03  0.90376983896E+03  0.12500000000E+03 0.  0.
</event>
<event>
 4    0  0.2193754E-002  0.1889177E+03  0.7546771E-02  0.1159441E+00
         21   -1    0    0  502  501  0.00000000000E+00  0.00000000000E+00  0.51512272771E+02  0.51512272771E+02  0.00000000000E+00 0. -1.
         21   -1    0    0  501  502 -0.00000000000E+00 -0.00000000000E+00 -0.69284297267E+03  0.69284297267E+03  0.00000000000E+00 0. -1.
         25    1    1    2    0    0  0.58709828809E+02  0.50570593085E+02 -0.87061084421E+02  0.17090600137E+03  0.12500000000E+03 0.  0.
         25    1    1    2    0    0 -0.58709828809E+02 -0.50570593085E+02 -0.55426961548E+03  0.57344924407E+03  0.12500000000E+03 0.  0.
</event>
<event>
 4    0  0.2193754E-002  0.2506978E+03  0.7546771E-02  0.1112865E+00
         21   -1    0    0  502  501  0.00000000000E+00  0.00000000000E+00  0.45998503320E+03  0.45998503320E+03  0.00000000000E+00 0. -1.
         21   -1    0    0  501  502 -0.00000000000E+00 -0.00000000000E+00 -0.13663350558E+03  0.13663350558E+03  0.00000000000E+00 0. -1.
         25    1    1    2    0    0  0.98484893271E+02 -0.14007994467E+03  0.24638401313E+01  0.21202060185E+03  0.12500000000E+03 0.  0.
         25    1    1    2    0    0 -0.98484893271E+02  0.14007994467E+03  0.32088768749E+03  0.38459793692E+03  0.12500000000E+03 0.  0.
</event>
<event>
 4    0  0.2193754E-002  0.1706454E+03  0.7546771E-02  0.1177176E+00
         21   -1    0    0  502  501  0.00000000000E+00  0.00000000000E+00  0.23485413809E+02  0.23485413809E+02  0.00000000000E+00 0.  1.
         21   -1    0    0  501  502 -0.00000000000E+00 -0.00000000000E+00 -0.12399122994E+04  0.12399122994E+04  0.00000000000E+00 0.  1.
         25    1    1    2    0    0  0.74663189495E-01 -0.51890603553E+02 -0.99295745466E+03  0.10021387863E+04  0.12500000000E+03 0.  0.
         25    1    1    2    0    0 -0.74663189495E-01  0.51890603553E+02 -0.22346943094E+03  0.26125892688E+03  0.12500000000E+03 0.  0.
</event>
<event>
 4    0  0.2193754E-002  0.5692850E+03  0.7546771E-02  0.9971262E-01
         21   -1    0    0  502  501  0.00000000000E+00  0.00000000000E+00  0.80386837082E+03  0.80386837082E+03  0.00000000000E+00 0. -1.
         21   -1    0    0  501  502 -0.00000000000E+00 -0.00000000000E+00 -0.40315733144E+03  0.40315733144E+03  0.00000000000E+00 0. -1.
         25    1    1    2    0    0 -0.45988009856E+02 -0.34964421154E+03  0.65521486842E+03  0.75451805513E+03  0.12500000000E+03 0.  0.
         25    1    1    2    0    0  0.45988009856E+02  0.34964421154E+03 -0.25450382905E+03  0.45250764713E+03  0.12500000000E+03 0.  0.
</event>
<event>
 4    0  0.2193754E-002  0.1700045E+03  0.7546771E-02  0.1177843E+00
         21   -1    0    0  502  501  0.00000000000E+00  0.00000000000E+00  0.10532383295E+04  0.10532383295E+04  0.00000000000E+00 0.  1.
         21   -1    0    0  501  502 -0.00000000000E+00 -0.00000000000E+00 -0.27440638131E+02  0.27440638131E+02  0.00000000000E+00 0.  1.
         25    1    1    2    0    0 -0.74868216020E+02 -0.73410772663E+02  0.66473579395E+03  0.68446553388E+03  0.12500000000E+03 0.  0.
         25    1    1    2    0    0  0.74868216020E+02  0.73410772663E+02  0.36106189739E+03  0.39621343372E+03  0.12500000000E+03 0.  0.
</event>
<event>
 4    0  0.2193754E-002  0.1541659E+03  0.7546771E-02  0.1195445E+00
         21   -1    0    0  502  501  0.00000000000E+00  0.00000000000E+00  0.46994232941E+02  0.46994232941E+02  0.00000000000E+00 0.  1.
         21   -1    0    0  501  502 -0.00000000000E+00 -0.00000000000E+00 -0.50574528793E+03  0.50574528793E+03  0.00000000000E+00 0.  1.
         25    1    1    2    0    0  0.62763759166E+02 -0.64119541502E+02 -0.21222691420E+03  0.26213711713E+03  0.12500000000E+03 0.  0.
         25    1    1    2    0    0 -0.62763759166E+02  0.64119541502E+02 -0.24652414079E+03  0.29060240374E+03  0.12500000000E+03 0.  0.
</event>
<event>
 4    0  0.2193754E-002  0.2282642E+03  0.7546771E-02  0.1127868E+00
         21   -1    0    0  502  501  0.00000000000E+00  0.00000000000E+00  0.46077189532E+03  0.46077189532E+03  0.00000000000E+00 0.  1.
         21   -1    0    0  501  502 -0.00000000000E+00 -0.00000000000E+00 -0.11308098165E+03  0.11308098165E+03  0.00000000000E+00 0.  1.
         25    1    1    2    0    0  0.57100754357E+02 -0.16041022647E+03  0.65076704093E+02  0.22102469165E+03  0.12500000000E+03 0.  0.
         25    1    1    2    0    0 -0.57100754357E+02  0.16041022647E+03  0.28261420957E+03  0.35282818532E+03  0.12500000000E+03 0.  0.
</event>
<event>
 4    0  0.2193754E-002  0.2339273E+03  0.7546771E-02  0.1123906E+00
         21   -1    0    0  502  501  0.00000000000E+00  0.00000000000E+00  0.14344093698E+03  0.14344093698E+03  0.00000000000E+00 0.  1.
         21   -1    0    0  501  502 -0.00000000000E+00 -0.00000000000E+00 -0.38149475322E+03  0.38149475322E+03  0.00000000000E+00 0.  1.
         25    1    1    2    0    0  0.10483053498E+03  0.76451760951E+02 -0.28643780129E+03  0.33838724388E+03  0.12500000000E+03 0.  0.
         25    1    1    2    0    0 -0.10483053498E+03 -0.76451760951E+02  0.48383985046E+02  0.18654844632E+03  0.12500000000E+03 0.  0.
</event>
<event>
 4    0  0.2193754E-002  0.1494160E+03  0.7546771E-02  0.1201193E+00
         21   -1    0    0  502  501  0.00000000000E+00  0.00000000000E+00  0.47814578664E+02  0.47814578664E+02  0.00000000000E+00 0. -1.
         21   -1    0    0  501  502 -0.00000000000E+00 -0.00000000000E+00 -0.46691046821E+03  0.46691046821E+03  0.00000000000E+00 0. -1.
         25    1    1    2    0    0  0.65621505298E+02  0.27174771176E+02 -0.13946538898E+03  0.20030038660E+03  0.12500000000E+03 0.  0.
         25    1    1    2    0    0 -0.65621505298E+02 -0.27174771176E+02 -0.27963050057E+03  0.31442466028E+03  0.12500000000E+03 0.  0.
</event>
<event>
 4    0  0.2193754E-002  0.2350199E+03  0.7546771E-02  0.1123156E+00
         21   -1    0    0  502  501  0.00000000000E+00  0.00000000000E+00  0.31600488159E+03  0.31600488159E+03  0.00000000000E+00 0.  1.
         21   -1    0    0  501  502 -0.00000000000E+00 -0.00000000000E+00 -0.17478951601E+03  0.17478951601E+03  0.00000000000E+00 0.  1.
         25    1    1    2    0    0 -0.30950920465E+02  0.15992132478E+03  0.19000968696E+03  0.27975251694E+03  0.12500000000E+03 0.  0.
         25    1    1    2    0    0  0.30950920465E+02 -0.15992132478E+03 -0.48794321378E+02  0.21104188066E+03  0.12500000000E+03 0.  0.
</event>
<event>
 4    0  0.2193754E-002  0.1891419E+03  0.7546771E-02  0.1159238E+00
         21   -1    0    0  502  501  0.00000000000E+00  0.00000000000E+00  0.29428987297E+02  0.29428987297E+02  0.00000000000E+00 0. -1.
         21   -1    0    0  501  502 -0.00000000000E+00 -0.00000000000E+00 -0.12156268259E+04  0.12156268259E+04  0.00000000000E+00 0. -1.
         25    1    1    2    0    0  0.88460984318E+02 -0.60790931658E+02 -0.89883437731E+03  0.91381022152E+03  0.12500000000E+03 0.  0.
         25    1    1    2    0    0 -0.88460984318E+02  0.60790931658E+02 -0.28736346127E+03  0.33124559166E+03  0.12500000000E+03 0.  0.
</event>
<event>
 4    0  0.2193754E-002  0.3265434E+03  0.7546771E-02  0.1072677E+00
         21   -1    0    0  502  501  0.00000000000E+00  0.00000000000E+00  0.16653590039E+04  0.16653590039E+04  0.00000000000E+00 0.  1.
         21   -1    0    0  501  502 -0.00000000000E+00 -0.00000000000E+00 -0.64028596222E+02  0.64028596222E+02  0.00000000000E+00 0.  1.
         25    1    1    2    0    0 -0.99859976891E+02  0.27086238244E+03  0.56879843289E+03  0.64999623265E+03  0.12500000000E+03 0.  0.
         25    1    1    2    0    0  0.99859976891E+02 -0.27086238244E+03  0.10325319748E+04  0.10793913675E+04  0.12500000000E+03 0.  0.
</event>
<event>
 4    0  0.2193754E-002  0.1962326E+03  0.7546771E-02  0.1152957E+00
         21   -1    0    0  502  501  0.00000000000E+00  0.00000000000E+00  0.17812623208E+04  0.17812623208E+04  0.00000000000E+00 0.  1.
         21   -1    0    0  501  502 -0.00000000000E+00 -0.00000000000E+00 -0.21617956000E+02  0.21617956000E+02  0.00000000000E+00 0.  1.
         25    1    1    2    0    0 -0.92887768000E+01 -0.11721039576E+03  0.44262795717E+03  0.47473052010E+03  0.12500000000E+03 0.  0.
         25    1    1    2    0    0  0.92887768000E+01  0.11721039576E+03  0.13170164076E+04  0.13281497567E+04  0.12500000000E+03 0.  0.
</event>
<event>
 4    0  0.2193754E-002  0.2551256E+03  0.7546771E-02  0.1110108E+00
         21   -1    0    0  502  501  0.00000000000E+00  0.00000000000E+00  0.14918306145E+03  0.14918306145E+03  0.00000000000E+00 0. -1.
         21   -1    0    0  501  502 -0.00000000000E+00 -0.00000000000E+00 -0.43630321632E+03  0.43630321632E+03  0.00000000000E+00 0. -1.
         25    1    1    2    0    0 -0.44578531771E+02  0.15975915997E+03 -0.31357528062E+03  0.37611792207E+03  0.12500000000E+03 0.  0.
         25    1    1    2    0    0  0.44578531771E+02 -0.15975915997E+03  0.26455125743E+02  0.20936835570E+03  0.12500000000E+03 0.  0.
</event>
<event>
 4    0  0.2193754E-002  0.2426341E+03  0.7546771E-02  0.1118050E+00
         21   -1    0    0  502  501  0.00000000000E+00  0.00000000000E+00  0.37307191256E+02  0.37307191256E+02  0.00000000000E+00 0.  1.
         21   -1    0    0  501  502 -0.00000000000E+00 -0.00000000000E+00 -0.15780150551E+04  0.15780150551E+04  0.00000000000E+00 0.  1.
         25    1    1    2    0    0  0.16561360190E+03 -0.90718681166E+02 -0.10603266678E+04  0.10842395430E+04  0.12500000000E+03 0.  0.
         25    1    1    2    0    0 -0.16561360190E+03  0.90718681166E+02 -0.48038119606E+03  0.53108270332E+03  0.12500000000E+03 0.  0.
</event>
<event>
 4    0  0.2193754E-002  0.1980278E+03  0.7546771E-02  0.1151414E+00
         21   -1    0    0  502  501  0.00000000000E+00  0.00000000000E+00  0.79975708452E+02  0.79975708452E+02  0.00000000000E+00 0.  1.
         21   -1    0    0  501  502 -0.00000000000E+00 -0.00000000000E+00 -0.49033644756E+03  0.49033644756E+03  0.00000000000E+00 0.  1.
         25    1    1    2    0    0 -0.26149949490E+01 -0.10092421540E+03 -0.37185437884E+03  0.40508420670E+03  0.12500000000E+03 0.  0.
         25    1    1    2    0    0  0.26149949490E+01  0.10092421540E+03 -0.38506360267E+02  0.16522794931E+03  0.12500000000E+03 0.  0.
</event>
<event>
 4    0  0.2193754E-002  0.2138868E+03  0.7546771E-02  0.1138525E+00
         21   -1    0    0  502  501  0.00000000000E+00  0.00000000000E+00  0.11208104131E+04  0.11208104131E+04  0.00000000000E+00 0.  1.
         21   -1    0    0  501  502 -0.00000000000E+00 -0.00000000000E+00 -0.40816496176E+02  0.40816496176E+02  0.00000000000E+00 0.  1.
         25    1    1    2    0    0 -0.32740420864E+02 -0.91191076469E+02  0.14897358222E+03  0.21726913215E+03  0.12500000000E+03 0.  0.
         25    1    1    2    0    0  0.32740420864E+02  0.91191076469E+02  0.93102033467E+03  0.94435777709E+03  0.12500000000E+03 0.  0.
</event>
<event>
 4    0  0.2193754E-002  0.2221143E+03  0.7546771E-02  0.1132317E+00
         21   -1    0    0  502  501  0.00000000000E+00  0.00000000000E+00  0.74489311458E+03  0.74489311458E+03  0.00000000000E+00 0.  1.
         21   -1    0    0  501  502 -0.00000000000E+00 -0.00000000000E+00 -0.66230633503E+02  0.66230633503E+02  0.00000000000E+00 0.  1.
         25    1    1    2    0    0 -0.15380871649E+03 -0.10011371637E+03  0.32935275056E+03  0.39721293002E+03  0.12500000000E+03 0.  0.
         25    1    1    2    0    0  0.15380871649E+03  0.10011371637E+03  0.34930973052E+03  0.41391081806E+03  0.12500000000E+03 0.  0.
</event>
<event>
 4    0  0.2193754E-002  0.3051807E+03  0.7546771E-02  0.1082679E+00
         21   -1    0    0  502  501  0.00000000000E+00  0.00000000000E+00  0.31516215259E+03  0.31516215259E+03  0.00000000000E+00 0. -1.
         21   -1    0    0  501  502 -0.00000000000E+00 -0.00000000000E+00 -0.29551529081E+03  0.29551529081E+03  0.00000000000E+00 0. -1.
         25    1    1    2    0    0  0.26324601958E+03 -0.55367526974E+02  0.81597642271E+02  0.30764785891E+03  0.12500000000E+03 0.  0.
         25    1    1    2    0    0 -0.26324601958E+03  0.55367526974E+02 -0.61950780496E+02  0.30302958449E+03  0.12500000000E+03 0.  0.
</event>
<event>
 4    0  0.2193754E-002  0.4909502E+03  0.7546771E-02  0.1016168E+00
         21   -1    0    0  502  501  0.00000000000E+00  0.00000000000E+00  0.87767975059E+03  0.87767975059E+03  0.00000000000E+00 0. -1.
         21   -1    0    0  501  502 -0.00000000000E+00 -0.00000000000E+00 -0.27462424586E+03  0.27462424586E+03  0.00000000000E+00 0. -1.
         25    1    1    2    0    0 -0.15619995198E+02 -0.15249116853E+02  0.85810299518E+03  0.86743430308E+03  0.12500000000E+03 0.  0.
         25    1    1    2    0    0  0.15619995198E+02  0.15249116853E+02 -0.25504749045E+03  0.28486969337E+03  0.12500000000E+03 0.  0.
</event>
<event>
 4    0  0.2193754E-002  0.1822878E+03  0.7546771E-02  0.1165607E+00
         21   -1    0    0  502  501  0.00000000000E+00  0.00000000000E+00  0.93573777411E+02  0.93573777411E+02  0.00000000000E+00 0.  1.
         21   -1    0    0  501  502 -0.00000000000E+00 -0.00000000000E+00 -0.35510860597E+03  0.35510860597E+03  0.00000000000E+00 0.  1.
         25    1    1    2    0    0  0.11087933685E+03 -0.45436443525E+02 -0.20087566426E+03  0.26520695736E+03  0.12500000000E+03 0.  0.
         25    1    1    2    0    0 -0.11087933685E+03  0.45436443525E+02 -0.60659164306E+02  0.18347542603E+03  0.12500000000E+03 0.  0.
</event>
<event>
 4    0  0.2193754E-002  0.2440126E+03  0.7546771E-02  0.1117148E+00
         21   -1    0    0  502  501  0.00000000000E+00  0.00000000000E+00  0.31917106491E+03  0.31917106491E+03  0.00000000000E+00 0.  1.
         21   -1    0    0  501  502 -0.00000000000E+00 -0.00000000000E+00 -0.18655245154E+03  0.18655245154E+03  0.00000000000E+00 0.  1.
         25    1    1    2    0    0  0.17699462384E+03 -0.11091598429E+03  0.83885909732E+02  0.25747096592E+03  0.12500000000E+03 0.  0.
         25    1    1    2    0    0 -0.17699462384E+03  0.11091598429E+03  0.48732703637E+02  0.24825255053E+03  0.12500000000E+03 0.  0.
</event>
<event>
 4    0  0.2193754E-002  0.1404296E+03  0.7546771E-02  0.1212752E+00
         21   -1    0    0  502  501  0.00000000000E+00  0.00000000000E+00  0.86052026802E+03  0.86052026802E+03  0.00000000000E+00 0. -1.
         21   -1    0    0  501  502 -0.00000000000E+00 -0.00000000000E+00 -0.22916919398E+02  0.22916919398E+02  0.00000000000E+00 0. -1.
         25    1    1    2    0    0 -0.17386680531E+02  0.61210462825E+02  0.44024088870E+03  0.46204551454E+03  0.12500000000E+03 0.  0.
         25    1    1    2    0    0  0.17386680531E+02 -0.61210462825E+02  0.39736245991E+03  0.42139167288E+03  0.12500000000E+03 0.  0.
</event>
<event>
 4    0  0.2193754E-002  0.1911273E+03  0.7546771E-02  0.1157449E+00
         21   -1    0    0  502  501  0.00000000000E+00  0.00000000000E+00  0.14385730362E+04  0.14385730362E+04  0.00000000000E+00 0. -1.
         21   -1    0    0  501  502 -0.00000000000E+00 -0.00000000000E+00 -0.25392960402E+02  0.25392960402E+02  0.00000000000E+00 0. -1.
         25    1    1    2    0    0  0.10584549335E+03  0.87119660073E+02  0.88257535359E+03  0.90186327035E+03  0.12500000000E+03 0.  0.
         25    1    1    2    0    0 -0.10584549335E+03 -0.87119660073E+02  0.53060472218E+03  0.56210272623E+03  0.12500000000E+03 0.  0.
</event>
<event>
 4    0  0.2193754E-002  0.3429516E+03  0.7546771E-02  0.1065546E+00
         21   -1    0    0  502  501  0.00000000000E+00  0.00000000000E+00  0.21182416843E+03  0.21182416843E+03  0.00000000000E+00 0. -1.
         21   -1    0    0  501  502 -0.00000000000E+00 -0.00000000000E+00 -0.55525210526E+03  0.55525210526E+03  0.00000000000E+00 0. -1.
         25    1    1    2    0    0 -0.31032392074E+03 -0.68117566136E+02 -0.13547758254E+03  0.36731473421E+03  0.12500000000E+03 0.  0.
         25    1    1    2    0    0  0.31032392074E+03  0.68117566136E+02 -0.20795035430E+03  0.39976153948E+03  0.12500000000E+03 0.  0.
</event>
<event>
 4    0  0.2193754E-002  0.1820917E+03  0.7546771E-02  0.1165794E+00
         21   -1    0    0  502  501  0.00000000000E+00  0.00000000000E+00  0.11867468345E+03  0.11867468345E+03  0.00000000000E+00 0.  1.
         21   -1    0    0  501  502 -0.00000000000E+00 -0.00000000000E+00 -0.27939743129E+03  0.27939743129E+03  0.00000000000E+00 0.  1.
         25    1    1    2    0    0 -0.12926958090E+03  0.31202611682E+01 -0.11150940008E+03  0.21161216147E+03  0.12500000000E+03 0.  0.
         25    1    1    2    0    0  0.12926958090E+03 -0.31202611682E+01 -0.49213347761E+02  0.18645995327E+03  0.12500000000E+03 0.  0.
</event>
<event>
 4    0  0.2193754E-002  0.1941262E+03  0.7546771E-02  0.1154792E+00
         21   -1    0    0  502  501  0.00000000000E+00  0.00000000000E+00  0.86725366887E+03  0.86725366887E+03  0.00000000000E+00 0.  1.
         21   -1    0    0  501  502 -0.00000000000E+00 -0.00000000000E+00 -0.43453223068E+02  0.43453223068E+02  0.00000000000E+00 0.  1.
         25    1    1    2    0    0  0.13646455922E+03 -0.35090502916E+02  0.52207242178E+03  0.55501219167E+03  0.12500000000E+03 0.  0.
         25    1    1    2    0    0 -0.13646455922E+03  0.35090502916E+02  0.30172802403E+03  0.35569470027E+03  0.12500000000E+03 0.  0.
</event>
<event>
 4    0  0.2193754E-002  0.2103446E+03  0.7546771E-02  0.1141293E+00
         21   -1    0    0  502  501  0.00000000000E+00  0.00000000000E+00  0.13765146942E+03  0.13765146942E+03  0.00000000000E+00 0. -1.
         21   -1    0    0  501  502 -0.00000000000E+00 -0.00000000000E+00 -0.32142662721E+03  0.32142662721E+03  0.00000000000E+00 0. -1.
         25    1    1    2    0    0 -0.83043508961E+01 -0.11648535774E+03 -0.22545815493E+03  0.28300915256E+03  0.12500000000E+03 0.  0.
         25    1    1    2    0    0  0.83043508961E+01  0.11648535774E+03  0.41682997135E+02  0.17606894406E+03  0.12500000000E+03 0.  0.
</event>
<event>
 4    0  0.2193754E-002  0.2935563E+03  0.7546771E-02  0.1088507E+00
         21   -1    0    0  502  501  0.00000000000E+00  0.00000000000E+00  0.67242837078E+03  0.67242837078E+03  0.00000000000E+00 0. -1.
         21   -1    0    0  501  502 -0.00000000000E+00 -0.00000000000E+00 -0.12815534703E+03  0.12815534703E+03  0.00000000000E+00 0. -1.
         25    1    1    2    0    0  0.10826772497E+03 -0.94660277149E+01  0.60261854836E+03  0.62496849583E+03  0.12500000000E+03 0.  0.
         25    1    1    2    0    0 -0.10826772497E+03  0.94660277149E+01 -0.58345524611E+02  0.17561522199E+03  0.12500000000E+03 0.  0.
</event>
<event>
 4    0  0.2193754E-002  0.2760527E+03  0.7546771E-02  0.1097865E+00
         21   -1    0    0  502  501  0.00000000000E+00  0.00000000000E+00  0.36593287985E+03  0.36593287985E+03  0.00000000000E+00 0. -1.
         21   -1    0    0  501  502 -0.00000000000E+00 -0.00000000000E+00 -0.20824877137E+03  0.20824877137E+03  0.00000000000E+00 0. -1.
         25    1    1    2    0    0 -0.20294991156E+03 -0.13570514411E+03  0.11132425433E+03  0.29601121997E+03  0.12500000000E+03 0.  0.
         25    1    1    2    0    0  0.20294991156E+03  0.13570514411E+03  0.46359854150E+02  0.27817043125E+03  0.12500000000E+03 0.  0.
</event>
<event>
 4    0  0.2193754E-002  0.4170974E+03  0.7546771E-02  0.1038015E+00
         21   -1    0    0  502  501  0.00000000000E+00  0.00000000000E+00  0.13827851545E+03  0.13827851545E+03  0.00000000000E+00 0. -1.
         21   -1    0    0  501  502 -0.00000000000E+00 -0.00000000000E+00 -0.12581149380E+04  0.12581149380E+04  0.00000000000E+00 0.  1.
         25    1    1    2    0    0  0.26862043221E+02  0.37150577639E+03 -0.79431280040E+03  0.88616924802E+03  0.12500000000E+03 0.  0.
         25    1    1    2    0    0 -0.26862043221E+02 -0.37150577639E+03 -0.32552362219E+03  0.51022420548E+03  0.12500000000E+03 0.  0.
</event>
<event>
 4    0  0.2193754E-002  0.3374125E+03  0.7546771E-02  0.1067903E+00
         21   -1    0    0  502  501  0.00000000000E+00  0.00000000000E+00  0.10313257834E+04  0.10313257834E+04  0.00000000000E+00 0.  1.
         21   -1    0    0  501  502 -0.00000000000E+00 -0.00000000000E+00 -0.11038917185E+03  0.11038917185E+03  0.00000000000E+00 0.  1.
         25    1    1    2    0    0  0.12074783719E+03  0.22656822408E+03  0.76457660258E+03  0.81615904183E+03  0.12500000000E+03 0.  0.
         25    1    1    2    0    0 -0.12074783719E+03 -0.22656822408E+03  0.15636000894E+03  0.32555591339E+03  0.12500000000E+03 0.  0.
</event>
<event>
 4    0  0.2193754E-002  0.2066264E+03  0.7546771E-02  0.1144266E+00
         21   -1    0    0  502  501  0.00000000000E+00  0.00000000000E+00  0.82658719288E+03  0.82658719288E+03  0.00000000000E+00 0.  1.
         21   -1    0    0  501  502 -0.00000000000E+00 -0.00000000000E+00 -0.51651504170E+02  0.51651504170E+02  0.00000000000E+00 0.  1.
         25    1    1    2    0    0 -0.99346426049E+02 -0.12705839348E+03  0.45652570265E+03  0.50005426195E+03  0.12500000000E+03 0.  0.
         25    1    1    2    0    0  0.99346426049E+02  0.12705839348E+03  0.31840998606E+03  0.37818443509E+03  0.12500000000E+03 0.  0.
</event>
<event>
 4    0  0.2193754E-002  0.2183481E+03  0.7546771E-02  0.1135121E+00
         21   -1    0    0  502  501  0.00000000000E+00  0.00000000000E+00  0.57239572122E+03  0.57239572122E+03  0.00000000000E+00 0.  1.
         21   -1    0    0  501  502 -0.00000000000E+00 -0.00000000000E+00 -0.83291869040E+02  0.83291869040E+02  0.00000000000E+00 0.  1.
         25    1    1    2    0    0 -0.16851337339E+03 -0.58856113603E+02  0.26525430882E+03  0.34328653843E+03  0.12500000000E+03 0.  0.
         25    1    1    2    0    0  0.16851337339E+03  0.58856113603E+02  0.22384954336E+03  0.31240105183E+03  0.12500000000E+03 0.  0.
</event>
<event>
 4    0  0.2193754E-002  0.2316401E+03  0.7546771E-02  0.1125491E+00
         21   -1    0    0  502  501  0.00000000000E+00  0.00000000000E+00  0.45738244858E+02  0.45738244858E+02  0.00000000000E+00 0.  1.
         21   -1    0    0  501  502 -0.00000000000E+00 -0.00000000000E+00 -0.11731346517E+04  0.11731346517E+04  0.00000000000E+00 0.  1.
         25    1    1    2    0    0  0.21045212052E+02  0.85573688882E+02 -0.10214129048E+04  0.10327996317E+04  0.12500000000E+03 0.  0.
         25    1    1    2    0    0 -0.21045212052E+02 -0.85573688882E+02 -0.10598350201E+03  0.18607326481E+03  0.12500000000E+03 0.  0.
</event>
<event>
 4    0  0.2193754E-002  0.2174884E+03  0.7546771E-02  0.1135770E+00
         21   -1    0    0  502  501  0.00000000000E+00  0.00000000000E+00  0.35488165234E+03  0.35488165234E+03  0.00000000000E+00 0. -1.
         21   -1    0    0  501  502 -0.00000000000E+00 -0.00000000000E+00 -0.13328725800E+03  0.13328725800E+03  0.00000000000E+00 0. -1.
         25    1    1    2    0    0  0.17527377842E+03  0.86462676222E+01  0.77494431252E+02  0.22896733876E+03  0.12500000000E+03 0.  0.
         25    1    1    2    0    0 -0.17527377842E+03 -0.86462676222E+01  0.14409996309E+03  0.25920157158E+03  0.12500000000E+03 0.  0.
</event>
<event>
 4    0  0.2193754E-002  0.3553128E+03  0.7546771E-02  0.1060455E+00
         21   -1    0    0  502  501  0.00000000000E+00  0.00000000000E+00  0.85516666553E+03  0.85516666553E+03  0.00000000000E+00 0.  1.
         21   -1    0    0  501  502 -0.00000000000E+00 -0.00000000000E+00 -0.14762874495E+03  0.14762874495E+03  0.00000000000E+00 0.  1.
         25    1    1    2    0    0 -0.81995737423E+02 -0.32092709543E+03  0.39621322308E+03  0.53134491593E+03  0.12500000000E+03 0.  0.
         25    1    1    2    0    0  0.81995737423E+02  0.32092709543E+03  0.31132469750E+03  0.47145049455E+03  0.12500000000E+03 0.  0.
</event>
<event>
 4    0  0.2193754E-002  0.2084647E+03  0.7546771E-02  0.1142788E+00
         21   -1    0    0  502  501  0.00000000000E+00  0.00000000000E+00  0.18494631639E+03  0.18494631639E+03  0.00000000000E+00 0. -1.
         21   -1    0    0  501  502 -0.00000000000E+00 -0.00000000000E+00 -0.23497374172E+03  0.23497374172E+03  0.00000000000E+00 0. -1.
         25    1    1    2    0    0 -0.59475072827E+02 -0.11463179703E+03  0.81360144639E+02  0.19728711644E+03  0.12500000000E+03 0.  0.
         25    1    1    2    0    0  0.59475072827E+02  0.11463179703E+03 -0.13138756996E+03  0.22263294167E+03  0.12500000000E+03 0.  0.
</event>
<event>
 4    0  0.2193754E-002  0.2581800E+03  0.7546771E-02  0.1108242E+00
         21   -1    0    0  502  501  0.00000000000E+00  0.00000000000E+00  0.17979032950E+04  0.17979032950E+04  0.00000000000E+00 0. -1.
         21   -1    0    0  501  502 -0.00000000000E+00 -0.00000000000E+00 -0.37074812397E+02  0.37074812397E+02  0.00000000000E+00 0. -1.
         25    1    1    2    0    0  0.11969314300E+03  0.14393955652E+03  0.13297387872E+04  0.13486568454E+04  0.12500000000E+03 0.  0.
         25    1    1    2    0    0 -0.11969314300E+03 -0.14393955652E+03  0.43108969547E+03  0.48632126208E+03  0.12500000000E+03 0.  0.
</event>
<event>
 4    0  0.2193754E-002  0.2282622E+03  0.7546771E-02  0.1127869E+00
         21   -1    0    0  502  501  0.00000000000E+00  0.00000000000E+00  0.12201495656E+03  0.12201495656E+03  0.00000000000E+00 0.  1.
         21   -1    0    0  501  502 -0.00000000000E+00 -0.00000000000E+00 -0.42702645043E+03  0.42702645043E+03  0.00000000000E+00 0.  1.
         25    1    1    2    0    0 -0.11940931254E+03 -0.12776877284E+03 -0.60165853791E+02  0.22322269866E+03  0.12500000000E+03 0.  0.
         25    1    1    2    0    0  0.11940931254E+03  0.12776877284E+03 -0.24484564008E+03  0.32581870833E+03  0.12500000000E+03 0.  0.
</event>
<event>
 4    0  0.2193754E-002  0.2223462E+03  0.7546771E-02  0.1132146E+00
         21   -1    0    0  502  501  0.00000000000E+00  0.00000000000E+00  0.68876370243E+02  0.68876370243E+02  0.00000000000E+00 0.  1.
         21   -1    0    0  501  502 -0.00000000000E+00 -0.00000000000E+00 -0.71777621938E+03  0.71777621938E+03  0.00000000000E+00 0.  1.
         25    1    1    2    0    0 -0.15031680321E+03 -0.10426313633E+03 -0.35739659417E+03  0.42050358910E+03  0.12500000000E+03 0.  0.
         25    1    1    2    0    0  0.15031680321E+03  0.10426313633E+03 -0.29150325497E+03  0.36614900052E+03  0.12500000000E+03 0.  0.
</event>
<event>
 4    0  0.2193754E-002  0.2545495E+03  0.7546771E-02  0.1110463E+00
         21   -1    0    0  502  501  0.00000000000E+00  0.00000000000E+00  0.34006894982E+03  0.34006894982E+03  0.00000000000E+00 0.  1.
         21   -1    0    0  501  502 -0.00000000000E+00 -0.00000000000E+00 -0.19053620514E+03  0.19053620514E+03  0.00000000000E+00 0.  1.
         25    1    1    2    0    0 -0.20433879025E+03 -0.76050038954E+02  0.32655378235E+02  0.25343504760E+03  0.12500000000E+03 0.  0.
         25    1    1    2    0    0  0.20433879025E+03  0.76050038954E+02  0.11687736644E+03  0.27717010736E+03  0.12500000000E+03 0.  0.
</event>
<event>
 4    0  0.2193754E-002  0.1672012E+03  0.7546771E-02  0.1180798E+00
         21   -1    0    0  502  501  0.00000000000E+00  0.00000000000E+00  0.27233428105E+03  0.27233428105E+03  0.00000000000E+00 0.  1.
         21   -1    0    0  501  502 -0.00000000000E+00 -0.00000000000E+00 -0.10265420009E+03  0.10265420009E+03  0.00000000000E+00 0.  1.
         25    1    1    2    0    0 -0.31745818318E+02  0.44506259919E+01  0.20406242857E+03  0.24144166957E+03  0.12500000000E+03 0.  0.
         25    1    1    2    0    0  0.31745818318E+02 -0.44506259919E+01 -0.34382347612E+02  0.13354681157E+03  0.12500000000E+03 0.  0.
</event>
<event>
 4    0  0.2193754E-002  0.1916826E+03  0.7546771E-02  0.1156952E+00
         21   -1    0    0  502  501  0.00000000000E+00  0.00000000000E+00  0.11641666240E+03  0.11641666240E+03  0.00000000000E+00 0.  1.
         21   -1    0    0  501  502 -0.00000000000E+00 -0.00000000000E+00 -0.31560958183E+03  0.31560958183E+03  0.00000000000E+00 0.  1.
         25    1    1    2    0    0  0.52458869761E+02  0.13661916641E+02 -0.25153854583E+03  0.28606856000E+03  0.12500000000E+03 0.  0.
         25    1    1    2    0    0 -0.52458869761E+02 -0.13661916641E+02  0.52345626398E+02  0.14595768423E+03  0.12500000000E+03 0.  0.
</event>
<event>
 4    0  0.2193754E-002  0.2189970E+03  0.7546771E-02  0.1134633E+00
         21   -1    0    0  502  501  0.00000000000E+00  0.00000000000E+00  0.90708112947E+03  0.90708112947E+03  0.00000000000E+00 0.  1.
         21   -1    0    0  501  502 -0.00000000000E+00 -0.00000000000E+00 -0.52872563965E+02  0.52872563965E+02  0.00000000000E+00 0.  1.
         25    1    1    2    0    0  0.14415547557E+03  0.64571808687E+02  0.23876573612E+03  0.31238501302E+03  0.12500000000E+03 0.  0.
         25    1    1    2    0    0 -0.14415547557E+03 -0.64571808687E+02  0.61544282938E+03  0.64756868041E+03  0.12500000000E+03 0.  0.
</event>
<event>
 4    0  0.2193754E-002  0.1854013E+03  0.7546771E-02  0.1162676E+00
         21   -1    0    0  502  501  0.00000000000E+00  0.00000000000E+00  0.21224586524E+03  0.21224586524E+03  0.00000000000E+00 0. -1.
         21   -1    0    0  501  502 -0.00000000000E+00 -0.00000000000E+00 -0.16195200340E+03  0.16195200340E+03  0.00000000000E+00 0. -1.
         25    1    1    2    0    0  0.51921705287E+02  0.34222960727E+02  0.14825397032E+03  0.20364506927E+03  0.12500000000E+03 0.  0.
         25    1    1    2    0    0 -0.51921705287E+02 -0.34222960727E+02 -0.97960108479E+02  0.17055279937E+03  0.12500000000E+03 0.  0.
</event>
<event>
 4    0  0.2193754E-002  0.1869805E+03  0.7546771E-02  0.1161213E+00
         21   -1    0    0  502  501  0.00000000000E+00  0.00000000000E+00  0.18193459480E+03  0.18193459480E+03  0.00000000000E+00 0.  1.
         21   -1    0    0  501  502 -0.00000000000E+00 -0.00000000000E+00 -0.19216631066E+03  0.19216631066E+03  0.00000000000E+00 0.  1.
         25    1    1    2    0    0  0.13693257605E+03  0.24210668420E+02 -0.50017277077E+01  0.18704733125E+03  0.12500000000E+03 0.  0.
         25    1    1    2    0    0 -0.13693257605E+03 -0.24210668420E+02 -0.52299881575E+01  0.18705357421E+03  0.12500000000E+03 0.  0.
</event>
<event>
 4    0  0.2193754E-002  0.5297090E+03  0.7546771E-02  0.1006303E+00
         21   -1    0    0  502  501  0.00000000000E+00  0.00000000000E+00  0.32806223803E+03  0.32806223803E+03  0.00000000000E+00 0.  1.
         21   -1    0    0  501  502 -0.00000000000E+00 -0.00000000000E+00 -0.85529996790E+03  0.85529996790E+03  0.00000000000E+00 0.  1.
         25    1    1    2    0    0  0.36812091575E+03 -0.35467302170E+03 -0.19603701285E+03  0.56157053995E+03  0.12500000000E+03 0.  0.
         25    1    1    2    0    0 -0.36812091575E+03  0.35467302170E+03 -0.33120071702E+03  0.62179166598E+03  0.12500000000E+03 0.  0.
</event>
<event>
 4    0  0.2193754E-002  0.2649157E+03  0.7546771E-02  0.1104225E+00
         21   -1    0    0  502  501  0.00000000000E+00  0.00000000000E+00  0.28513037859E+02  0.28513037859E+02  0.00000000000E+00 0.  1.
         21   -1    0    0  501  502 -0.00000000000E+00 -0.00000000000E+00 -0.24613418902E+04  0.24613418902E+04  0.00000000000E+00 0.  1.
         25    1    1    2    0    0  0.10355571834E+03 -0.51195925528E+02 -0.21703969176E+04  0.21770605388E+04  0.12500000000E+03 0.  0.
         25    1    1    2    0    0 -0.10355571834E+03  0.51195925528E+02 -0.26243193474E+03  0.31279438927E+03  0.12500000000E+03 0.  0.
</event>
<event>
 4    0  0.2193754E-002  0.3120491E+03  0.7546771E-02  0.1079368E+00
         21   -1    0    0  502  501  0.00000000000E+00  0.00000000000E+00  0.17175838272E+03  0.17175838272E+03  0.00000000000E+00 0.  1.
         21   -1    0    0  501  502 -0.00000000000E+00 -0.00000000000E+00 -0.56692816686E+03  0.56692816686E+03  0.00000000000E+00 0.  1.
         25    1    1    2    0    0 -0.92767858583E+02 -0.26975609819E+03 -0.17465110795E+03  0.35707455469E+03  0.12500000000E+03 0.  0.
         25    1    1    2    0    0  0.92767858583E+02  0.26975609819E+03 -0.22051867619E+03  0.38161199489E+03  0.12500000000E+03 0.  0.
</event>
<event>
 4    0  0.2193754E-002  0.2102747E+03  0.7546771E-02  0.1141349E+00
         21   -1    0    0  502  501  0.00000000000E+00  0.00000000000E+00  0.25078586486E+03  0.25078586486E+03  0.00000000000E+00 0.  1.
         21   -1    0    0  501  502 -0.00000000000E+00 -0.00000000000E+00 -0.17630756154E+03  0.17630756154E+03  0.00000000000E+00 0.  1.
         25    1    1    2    0    0  0.91711870003E+02  0.45183819212E+02 -0.99533162531E+02  0.18969579611E+03  0.12500000000E+03 0.  0.
         25    1    1    2    0    0 -0.91711870003E+02 -0.45183819212E+02  0.17401146585E+03  0.23739763028E+03  0.12500000000E+03 0.  0.
</event>
<event>
 4    0  0.2193754E-002  0.1850725E+03  0.7546771E-02  0.1162982E+00
         21   -1    0    0  502  501  0.00000000000E+00  0.00000000000E+00  0.29667588796E+03  0.29667588796E+03  0.00000000000E+00 0.  1.
         21   -1    0    0  501  502 -0.00000000000E+00 -0.00000000000E+00 -0.11545201596E+03  0.11545201596E+03  0.00000000000E+00 0.  1.
         25    1    1    2    0    0  0.50896147110E+02  0.12020720058E+03  0.46261345642E+02  0.18656178859E+03  0.12500000000E+03 0.  0.
         25    1    1    2    0    0 -0.50896147110E+02 -0.12020720058E+03  0.13496252636E+03  0.22556611533E+03  0.12500000000E+03 0.  0.
</event>
<event>
 4    0  0.2193754E-002  0.1783715E+03  0.7546771E-02  0.1169389E+00
         21   -1    0    0  502  501  0.00000000000E+00  0.00000000000E+00  0.51911853729E+02  0.51911853729E+02  0.00000000000E+00 0.  1.
         21   -1    0    0  501  502 -0.00000000000E+00 -0.00000000000E+00 -0.61289228923E+03  0.61289228923E+03  0.00000000000E+00 0.  1.
         25    1    1    2    0    0 -0.51533739042E+02 -0.43713017088E+02 -0.48141407479E+03  0.50194727365E+03  0.12500000000E+03 0.  0.
         25    1    1    2    0    0  0.51533739042E+02  0.43713017088E+02 -0.79566360708E+02  0.16285686930E+03  0.12500000000E+03 0.  0.
</event>
<event>
 4    0  0.2193754E-002  0.2552974E+03  0.7546771E-02  0.1110002E+00
         21   -1    0    0  502  501  0.00000000000E+00  0.00000000000E+00  0.67386034720E+02  0.67386034720E+02  0.00000000000E+00 0.  1.
         21   -1    0    0  501  502 -0.00000000000E+00 -0.00000000000E+00 -0.96721440133E+03  0.96721440133E+03  0.00000000000E+00 0.  1.
         25    1    1    2    0    0 -0.84933486108E+02  0.94635908716E+02 -0.82012840802E+03  0.83928854271E+03  0.12500000000E+03 0.  0.
         25    1    1    2    0    0  0.84933486108E+02 -0.94635908716E+02 -0.79699958589E+02  0.19531189334E+03  0.12500000000E+03 0.  0.
</event>
<event>
 4    0  0.2193754E-002  0.1996531E+03  0.7546771E-02  0.1150032E+00
         21   -1    0    0  502  501  0.00000000000E+00  0.00000000000E+00  0.77773901398E+03  0.77773901398E+03  0.00000000000E+00 0.  1.
         21   -1    0    0  501  502 -0.00000000000E+00 -0.00000000000E+00 -0.51252891533E+02  0.51252891533E+02  0.00000000000E+00 0.  1.
         25    1    1    2    0    0  0.53213053328E+02  0.14268901175E+03  0.43034223011E+03  0.47329823381E+03  0.12500000000E+03 0.  0.
         25    1    1    2    0    0 -0.53213053328E+02 -0.14268901175E+03  0.29614389234E+03  0.35569367170E+03  0.12500000000E+03 0.  0.
</event>
<event>
 4    0  0.2193754E-002  0.1690389E+03  0.7546771E-02  0.1178854E+00
         21   -1    0    0  502  501  0.00000000000E+00  0.00000000000E+00  0.18441113703E+03  0.18441113703E+03  0.00000000000E+00 0. -1.
         21   -1    0    0  501  502 -0.00000000000E+00 -0.00000000000E+00 -0.15494809862E+03  0.15494809862E+03  0.00000000000E+00 0. -1.
         25    1    1    2    0    0  0.26554505469E+02 -0.10614050182E+03  0.46126368130E+02  0.17240530655E+03  0.12500000000E+03 0.  0.
         25    1    1    2    0    0 -0.26554505469E+02  0.10614050182E+03 -0.16663329721E+02  0.16695392911E+03  0.12500000000E+03 0.  0.
</event>
<event>
 4    0  0.2193754E-002  0.2280318E+03  0.7546771E-02  0.1128033E+00
         21   -1    0    0  502  501  0.00000000000E+00  0.00000000000E+00  0.16539069487E+02  0.16539069487E+02  0.00000000000E+00 0.  1.
         21   -1    0    0  501  502 -0.00000000000E+00 -0.00000000000E+00 -0.31439787155E+04  0.31439787155E+04  0.00000000000E+00 0.  1.
         25    1    1    2    0    0 -0.15613080967E+03  0.54835252676E+02 -0.22207822929E+04  0.22304445133E+04  0.12500000000E+03 0.  0.
         25    1    1    2    0    0  0.15613080967E+03 -0.54835252676E+02 -0.90665735311E+03  0.93007327163E+03  0.12500000000E+03 0.  0.
</event>
<event>
 4    0  0.2193754E-002  0.3528785E+03  0.7546771E-02  0.1061440E+00
         21   -1    0    0  502  501  0.00000000000E+00  0.00000000000E+00  0.54718887988E+03  0.54718887988E+03  0.00000000000E+00 0.  1.
         21   -1    0    0  501  502 -0.00000000000E+00 -0.00000000000E+00 -0.22756904460E+03  0.22756904460E+03  0.00000000000E+00 0.  1.
         25    1    1    2    0    0 -0.20512227214E+03  0.19291615754E+02 -0.12317374508E+03  0.27063644331E+03  0.12500000000E+03 0.  0.
         25    1    1    2    0    0  0.20512227214E+03 -0.19291615754E+02  0.44279358036E+03  0.50412148117E+03  0.12500000000E+03 0.  0.
</event>
<event>
 4    0  0.2193754E-002  0.2066160E+03  0.7546771E-02  0.1144274E+00
         21   -1    0    0  502  501  0.00000000000E+00  0.00000000000E+00  0.55931388100E+03  0.55931388100E+03  0.00000000000E+00 0.  1.
         21   -1    0    0  501  502 -0.00000000000E+00 -0.00000000000E+00 -0.76325955794E+02  0.76325955794E+02  0.00000000000E+00 0.  1.
         25    1    1    2    0    0  0.15785880205E+03  0.15028486938E+02  0.17409431988E+03  0.26660661848E+03  0.12500000000E+03 0.  0.
         25    1    1    2    0    0 -0.15785880205E+03 -0.15028486938E+02  0.30889360533E+03  0.36903321831E+03  0.12500000000E+03 0.  0.
</event>
<event>
 4    0  0.2193754E-002  0.2487858E+03  0.7546771E-02  0.1114075E+00
         21   -1    0    0  502  501  0.00000000000E+00  0.00000000000E+00  0.11969133723E+03  0.11969133723E+03  0.00000000000E+00 0.  1.
         21   -1    0    0  501  502 -0.00000000000E+00 -0.00000000000E+00 -0.51711658367E+03  0.51711658367E+03  0.00000000000E+00 0.  1.
         25    1    1    2    0    0  0.38910620890E+02 -0.16536995056E+03 -0.29851845520E+02  0.21301969309E+03  0.12500000000E+03 0.  0.
         25    1    1    2    0    0 -0.38910620890E+02  0.16536995056E+03 -0.36757340092E+03  0.42378822781E+03  0.12500000000E+03 0.  0.
</event>
<event>
 4    0  0.2193754E-002  0.1682949E+03  0.7546771E-02  0.1179638E+00
         21   -1    0    0  502  501  0.00000000000E+00  0.00000000000E+00  0.41768708687E+03  0.41768708687E+03  0.00000000000E+00 0. -1.
         21   -1    0    0  501  502 -0.00000000000E+00 -0.00000000000E+00 -0.67809586973E+02  0.67809586973E+02  0.00000000000E+00 0. -1.
         25    1    1    2    0    0  0.85545739796E+02  0.30937372535E+02  0.27086630499E+03  0.31187938341E+03  0.12500000000E+03 0.  0.
         25    1    1    2    0    0 -0.85545739796E+02 -0.30937372535E+02  0.79011194906E+02  0.17361729043E+03  0.12500000000E+03 0.  0.
</event>
<event>
 4    0  0.2193754E-002  0.2401498E+03  0.7546771E-02  0.1119693E+00
         21   -1    0    0  502  501  0.00000000000E+00  0.00000000000E+00  0.21047844376E+03  0.21047844376E+03  0.00000000000E+00 0. -1.
         21   -1    0    0  501  502 -0.00000000000E+00 -0.00000000000E+00 -0.27400406924E+03  0.27400406924E+03  0.00000000000E+00 0. -1.
         25    1    1    2    0    0  0.15755313919E+03 -0.50288020507E+02 -0.15404175466E+03  0.25827454163E+03  0.12500000000E+03 0.  0.
         25    1    1    2    0    0 -0.15755313919E+03  0.50288020507E+02  0.90516129177E+02  0.22620797138E+03  0.12500000000E+03 0.  0.
</event>
<event>
 4    0  0.2193754E-002  0.2047481E+03  0.7546771E-02  0.1145794E+00
         21   -1    0    0  502  501  0.00000000000E+00  0.00000000000E+00  0.43445358352E+02  0.43445358352E+02  0.00000000000E+00 0.  1.
         21   -1    0    0  501  502 -0.00000000000E+00 -0.00000000000E+00 -0.96493100778E+03  0.96493100778E+03  0.00000000000E+00 0.  1.
         25    1    1    2    0    0 -0.50776638418E+02  0.12485657293E+03 -0.68276714696E+03  0.70708090610E+03  0.12500000000E+03 0.  0.
         25    1    1    2    0    0  0.50776638418E+02 -0.12485657293E+03 -0.23871850247E+03  0.30129546003E+03  0.12500000000E+03 0.  0.
</event>
<event>
 4    0  0.2193754E-002  0.1868196E+03  0.7546771E-02  0.1161362E+00
         21   -1    0    0  502  501  0.00000000000E+00  0.00000000000E+00  0.34432479778E+03  0.34432479778E+03  0.00000000000E+00 0.  1.
         21   -1    0    0  501  502 -0.00000000000E+00 -0.00000000000E+00 -0.10136228667E+03  0.10136228667E+03  0.00000000000E+00 0.  1.
         25    1    1    2    0    0  0.24428195119E+02 -0.12678317509E+03  0.18237202529E+03  0.25603762577E+03  0.12500000000E+03 0.  0.
         25    1    1    2    0    0 -0.24428195119E+02  0.12678317509E+03  0.60590485827E+02  0.18964945868E+03  0.12500000000E+03 0.  0.
</event>
<event>
 4    0  0.2193754E-002  0.2438849E+03  0.7546771E-02  0.1117232E+00
         21   -1    0    0  502  501  0.00000000000E+00  0.00000000000E+00  0.56556209717E+03  0.56556209717E+03  0.00000000000E+00 0.  1.
         21   -1    0    0  501  502 -0.00000000000E+00 -0.00000000000E+00 -0.10516940939E+03  0.10516940939E+03  0.00000000000E+00 0.  1.
         25    1    1    2    0    0  0.33595312623E+02  0.96244536557E+01  0.51412526218E+03  0.53025565565E+03  0.12500000000E+03 0.  0.
         25    1    1    2    0    0 -0.33595312623E+02 -0.96244536557E+01 -0.53732574398E+02  0.14047585091E+03  0.12500000000E+03 0.  0.
</event>
<event>
 4    0  0.2193754E-002  0.3223972E+03  0.7546771E-02  0.1074551E+00
         21   -1    0    0  502  501  0.00000000000E+00  0.00000000000E+00  0.34806726910E+03  0.34806726910E+03  0.00000000000E+00 0.  1.
         21   -1    0    0  501  502 -0.00000000000E+00 -0.00000000000E+00 -0.29862039733E+03  0.29862039733E+03  0.00000000000E+00 0.  1.
         25    1    1    2    0    0  0.17825687050E+03 -0.28879348687E+02 -0.21198957415E+03  0.30524434182E+03  0.12500000000E+03 0.  0.
         25    1    1    2    0    0 -0.17825687050E+03  0.28879348687E+02  0.26143644593E+03  0.34144332461E+03  0.12500000000E+03 0.  0.
</event>
<event>
 4    0  0.2193754E-002  0.2240641E+03  0.7546771E-02  0.1130889E+00
         21   -1    0    0  502  501  0.00000000000E+00  0.00000000000E+00  0.29869276187E+03  0.29869276187E+03  0.00000000000E+00 0.  1.
         21   -1    0    0  501  502 -0.00000000000E+00 -0.00000000000E+00 -0.16808142316E+03  0.16808142316E+03  0.00000000000E+00 0.  1.
         25    1    1    2    0    0 -0.41293050833E+02  0.15105074769E+03 -0.39158187620E+02  0.20415633245E+03  0.12500000000E+03 0.  0.
         25    1    1    2    0    0  0.41293050833E+02 -0.15105074769E+03  0.16976952632E+03  0.26261785258E+03  0.12500000000E+03 0.  0.
</event>
<event>
 4    0  0.2193754E-002  0.1801091E+03  0.7546771E-02  0.1167698E+00
         21   -1    0    0  502  501  0.00000000000E+00  0.00000000000E+00  0.96062414978E+01  0.96062414978E+01  0.00000000000E+00 0. -1.
         21   -1    0    0  501  502 -0.00000000000E+00 -0.00000000000E+00 -0.33768956265E+04  0.33768956265E+04  0.00000000000E+00 0.  1.
         25    1    1    2    0    0 -0.11396062499E+03  0.16502748692E+01 -0.22650441816E+04  0.22713519965E+04  0.12500000000E+03 0.  0.
         25    1    1    2    0    0  0.11396062499E+03 -0.16502748692E+01 -0.11022452034E+04  0.11151498715E+04  0.12500000000E+03 0.  0.
</event>
<event>
 4    0  0.2193754E-002  0.2783595E+03  0.7546771E-02  0.1096588E+00
         21   -1    0    0  502  501  0.00000000000E+00  0.00000000000E+00  0.94810192229E+02  0.94810192229E+02  0.00000000000E+00 0. -1.
         21   -1    0    0  501  502 -0.00000000000E+00 -0.00000000000E+00 -0.81725400971E+03  0.81725400971E+03  0.00000000000E+00 0. -1.
         25    1    1    2    0    0 -0.39878821409E+02  0.24298475862E+03 -0.30383290056E+03  0.41057440833E+03  0.12500000000E+03 0.  0.
         25    1    1    2    0    0  0.39878821409E+02 -0.24298475862E+03 -0.41861091692E+03  0.50148979360E+03  0.12500000000E+03 0.  0.
</event>
<event>
 4    0  0.2193754E-002  0.2619441E+03  0.7546771E-02  0.1105981E+00
         21   -1    0    0  502  501  0.00000000000E+00  0.00000000000E+00  0.96831963021E+03  0.96831963021E+03  0.00000000000E+00 0.  1.
         21   -1    0    0  501  502 -0.00000000000E+00 -0.00000000000E+00 -0.70859590410E+02  0.70859590410E+02  0.00000000000E+00 0.  1.
         25    1    1    2    0    0 -0.13577675974E+03  0.18582532905E+03  0.43914474980E+03  0.51131154170E+03  0.12500000000E+03 0.  0.
         25    1    1    2    0    0  0.13577675974E+03 -0.18582532905E+03  0.45831529000E+03  0.52786767892E+03  0.12500000000E+03 0.  0.
</event>
<event>
 4    0  0.2193754E-002  0.2428464E+03  0.7546771E-02  0.1117911E+00
         21   -1    0    0  502  501  0.00000000000E+00  0.00000000000E+00  0.36407946279E+03  0.36407946279E+03  0.00000000000E+00 0.  1.
         21   -1    0    0  501  502 -0.00000000000E+00 -0.00000000000E+00 -0.16198212504E+03  0.16198212504E+03  0.00000000000E+00 0.  1.
         25    1    1    2    0    0  0.23301681765E+02 -0.20422945097E+03  0.13691809553E+03  0.27681076912E+03  0.12500000000E+03 0.  0.
         25    1    1    2    0    0 -0.23301681765E+02  0.20422945097E+03  0.65179242218E+02  0.24925081872E+03  0.12500000000E+03 0.  0.
</event>
<event>
 4    0  0.2193754E-002  0.1871063E+03  0.7546771E-02  0.1161097E+00
         21   -1    0    0  502  501  0.00000000000E+00  0.00000000000E+00  0.14438217962E+03  0.14438217962E+03  0.00000000000E+00 0.  1.
         21   -1    0    0  501  502 -0.00000000000E+00 -0.00000000000E+00 -0.24247296695E+03  0.24247296695E+03  0.00000000000E+00 0.  1.
         25    1    1    2    0    0 -0.12221252817E+03 -0.39427945990E+02 -0.10465213493E+03  0.20752718933E+03  0.12500000000E+03 0.  0.
         25    1    1    2    0    0  0.12221252817E+03  0.39427945990E+02  0.65613476010E+01  0.17932795724E+03  0.12500000000E+03 0.  0.
</event>
<event>
 4    0  0.2193754E-002  0.2104218E+03  0.7546771E-02  0.1141232E+00
         21   -1    0    0  502  501  0.00000000000E+00  0.00000000000E+00  0.32828644813E+03  0.32828644813E+03  0.00000000000E+00 0. -1.
         21   -1    0    0  501  502 -0.00000000000E+00 -0.00000000000E+00 -0.13487410562E+03  0.13487410562E+03  0.00000000000E+00 0. -1.
         25    1    1    2    0    0 -0.41586029132E+01  0.14875754198E+03  0.18547814354E+03  0.26865078076E+03  0.12500000000E+03 0.  0.
         25    1    1    2    0    0  0.41586029132E+01 -0.14875754198E+03  0.79341989702E+01  0.19450977299E+03  0.12500000000E+03 0.  0.
</event>
<event>
 4    0  0.2193754E-002  0.2381886E+03  0.7546771E-02  0.1121005E+00
         21   -1    0    0  502  501  0.00000000000E+00  0.00000000000E+00  0.37080586072E+03  0.37080586072E+03  0.00000000000E+00 0.  1.
         21   -1    0    0  501  502 -0.00000000000E+00 -0.00000000000E+00 -0.15300134319E+03  0.15300134319E+03  0.00000000000E+00 0.  1.
         25    1    1    2    0    0 -0.17943288284E+03  0.11154752971E+02  0.21198137552E+03  0.30476497752E+03  0.12500000000E+03 0.  0.
         25    1    1    2    0    0  0.17943288284E+03 -0.11154752971E+02  0.58231420131E+01  0.21904222639E+03  0.12500000000E+03 0.  0.
</event>
<event>
 4    0  0.2193754E-002  0.2025501E+03  0.7546771E-02  0.1147605E+00
         21   -1    0    0  502  501  0.00000000000E+00  0.00000000000E+00  0.65012266765E+02  0.65012266765E+02  0.00000000000E+00 0. -1.
         21   -1    0    0  501  502 -0.00000000000E+00 -0.00000000000E+00 -0.63105838831E+03  0.63105838831E+03  0.00000000000E+00 0. -1.
         25    1    1    2    0    0  0.85778598121E+02  0.13428558351E+03 -0.27733706000E+03  0.34341145975E+03  0.12500000000E+03 0.  0.
         25    1    1    2    0    0 -0.85778598121E+02 -0.13428558351E+03 -0.28870906154E+03  0.35265919533E+03  0.12500000000E+03 0.  0.
</event>
<event>
 4    0  0.2193754E-002  0.2070735E+03  0.7546771E-02  0.1143905E+00
         21   -1    0    0  502  501  0.00000000000E+00  0.00000000000E+00  0.31146166967E+03  0.31146166967E+03  0.00000000000E+00 0. -1.
         21   -1    0    0  501  502 -0.00000000000E+00 -0.00000000000E+00 -0.13767156099E+03  0.13767156099E+03  0.00000000000E+00 0. -1.
         25    1    1    2    0    0 -0.85945234387E+01  0.15960582390E+03  0.42095091079E+02  0.20723146853E+03  0.12500000000E+03 0.  0.
         25    1    1    2    0    0  0.85945234387E+01 -0.15960582390E+03  0.13169501761E+03  0.24190176213E+03  0.12500000000E+03 0.  0.
</event>
<event>
 4    0  0.2193754E-002  0.1815873E+03  0.7546771E-02  0.1166276E+00
         21   -1    0    0  502  501  0.00000000000E+00  0.00000000000E+00  0.92026210828E+02  0.92026210828E+02  0.00000000000E+00 0.  1.
         21   -1    0    0  501  502 -0.00000000000E+00 -0.00000000000E+00 -0.35831056664E+03  0.35831056664E+03  0.00000000000E+00 0.  1.
         25    1    1    2    0    0 -0.78658273085E+02  0.10406613046E+03 -0.11054556182E+03  0.21180699864E+03  0.12500000000E+03 0.  0.
         25    1    1    2    0    0  0.78658273085E+02 -0.10406613046E+03 -0.15573879399E+03  0.23852977883E+03  0.12500000000E+03 0.  0.
</event>
<event>
 4    0  0.2193754E-002  0.1587229E+03  0.7546771E-02  0.1190146E+00
         21   -1    0    0  502  501  0.00000000000E+00  0.00000000000E+00  0.27397649469E+02  0.27397649469E+02  0.00000000000E+00 0.  1.
         21   -1    0    0  501  502 -0.00000000000E+00 -0.00000000000E+00 -0.91952950279E+03  0.91952950279E+03  0.00000000000E+00 0. -1.
         25    1    1    2    0    0 -0.42075326352E+02 -0.88237943852E+02 -0.45626012530E+03  0.48306787283E+03  0.12500000000E+03 0.  0.
         25    1    1    2    0    0  0.42075326352E+02  0.88237943852E+02 -0.43587172802E+03  0.46385927943E+03  0.12500000000E+03 0.  0.
</event>
<event>
 4    0  0.2193754E-002  0.2390719E+03  0.7546771E-02  0.1120413E+00
         21   -1    0    0  502  501  0.00000000000E+00  0.00000000000E+00  0.75423327932E+02  0.75423327932E+02  0.00000000000E+00 0.  1.
         21   -1    0    0  501  502 -0.00000000000E+00 -0.00000000000E+00 -0.75779448146E+03  0.75779448146E+03  0.00000000000E+00 0.  1.
         25    1    1    2    0    0  0.11941806470E+03 -0.98135173811E+02 -0.10974507271E+03  0.22706864050E+03  0.12500000000E+03 0.  0.
         25    1    1    2    0    0 -0.11941806470E+03  0.98135173811E+02 -0.57262608082E+03  0.60614916889E+03  0.12500000000E+03 0.  0.
</event>
<event>
 4    0  0.2193754E-002  0.2121282E+03  0.7546771E-02  0.1139892E+00
         21   -1    0    0  502  501  0.00000000000E+00  0.00000000000E+00  0.67058230605E+03  0.67058230605E+03  0.00000000000E+00 0. -1.
         21   -1    0    0  501  502 -0.00000000000E+00 -0.00000000000E+00 -0.67103412763E+02  0.67103412763E+02  0.00000000000E+00 0. -1.
         25    1    1    2    0    0 -0.14975980543E+03  0.43241673837E+02  0.17786455561E+03  0.26750447066E+03  0.12500000000E+03 0.  0.
         25    1    1    2    0    0  0.14975980543E+03 -0.43241673837E+02  0.42561433768E+03  0.47018124816E+03  0.12500000000E+03 0.  0.
</event>
<event>
 4    0  0.2193754E-002  0.2309789E+03  0.7546771E-02  0.1125953E+00
         21   -1    0    0  502  501  0.00000000000E+00  0.00000000000E+00  0.70007199287E+02  0.70007199287E+02  0.00000000000E+00 0. -1.
         21   -1    0    0  501  502 -0.00000000000E+00 -0.00000000000E+00 -0.76208236398E+03  0.76208236398E+03  0.00000000000E+00 0. -1.
         25    1    1    2    0    0  0.31879620538E+02  0.40235212891E+02 -0.68345389355E+03  0.69668458227E+03  0.12500000000E+03 0.  0.
         25    1    1    2    0    0 -0.31879620538E+02 -0.40235212891E+02 -0.86212711395E+01  0.13540498099E+03  0.12500000000E+03 0.  0.
</event>
<event>
 4    0  0.2193754E-002  0.2506862E+03  0.7546771E-02  0.1112872E+00
         21   -1    0    0  502  501  0.00000000000E+00  0.00000000000E+00  0.34456687639E+03  0.34456687639E+03  0.00000000000E+00 0.  1.
         21   -1    0    0  501  502 -0.00000000000E+00 -0.00000000000E+00 -0.18238427734E+03  0.18238427734E+03  0.00000000000E+00 0.  1.
         25    1    1    2    0    0  0.17861578227E+03  0.76847063129E+02  0.18304276011E+03  0.29485372783E+03  0.12500000000E+03 0.  0.
         25    1    1    2    0    0 -0.17861578227E+03 -0.76847063129E+02 -0.20860161057E+02  0.23209742590E+03  0.12500000000E+03 0.  0.
</event>
<event>
 4    0  0.2193754E-002  0.2203493E+03  0.7546771E-02  0.1133623E+00
         21   -1    0    0  502  501  0.00000000000E+00  0.00000000000E+00  0.52209994543E+03  0.52209994543E+03  0.00000000000E+00 0.  1.
         21   -1    0    0  501  502 -0.00000000000E+00 -0.00000000000E+00 -0.92997169420E+02  0.92997169420E+02  0.00000000000E+00 0. -1.
         25    1    1    2    0    0  0.28899453426E+01  0.17713041095E+03  0.26941772821E+03  0.34582430011E+03  0.12500000000E+03 0.  0.
         25    1    1    2    0    0 -0.28899453426E+01 -0.17713041095E+03  0.15968504779E+03  0.26927281474E+03  0.12500000000E+03 0.  0.
</event>
<event>
 4    0  0.2193754E-002  0.1797529E+03  0.7546771E-02  0.1168042E+00
         21   -1    0    0  502  501  0.00000000000E+00  0.00000000000E+00  0.75327519599E+02  0.75327519599E+02  0.00000000000E+00 0.  1.
         21   -1    0    0  501  502 -0.00000000000E+00 -0.00000000000E+00 -0.42894163072E+03  0.42894163072E+03  0.00000000000E+00 0.  1.
         25    1    1    2    0    0 -0.14965252979E+02  0.10848420182E+03 -0.80712908412E+02  0.18474943687E+03  0.12500000000E+03 0.  0.
         25    1    1    2    0    0  0.14965252979E+02 -0.10848420182E+03 -0.27290120271E+03  0.31951971344E+03  0.12500000000E+03 0.  0.
</event>
<event>
 4    0  0.2193754E-002  0.2051651E+03  0.7546771E-02  0.1145453E+00
         21   -1    0    0  502  501  0.00000000000E+00  0.00000000000E+00  0.35320931759E+02  0.35320931759E+02  0.00000000000E+00 0.  1.
         21   -1    0    0  501  502 -0.00000000000E+00 -0.00000000000E+00 -0.11917215578E+04  0.11917215578E+04  0.00000000000E+00 0.  1.
         25    1    1    2    0    0  0.99574094785E+02  0.11294826929E+03 -0.76242809938E+03  0.78714288323E+03  0.12500000000E+03 0.  0.
         25    1    1    2    0    0 -0.99574094785E+02 -0.11294826929E+03 -0.39397252664E+03  0.43989960631E+03  0.12500000000E+03 0.  0.
</event>
<event>
 4    0  0.2193754E-002  0.2145362E+03  0.7546771E-02  0.1138023E+00
         21   -1    0    0  502  501  0.00000000000E+00  0.00000000000E+00  0.82212571631E+03  0.82212571631E+03  0.00000000000E+00 0.  1.
         21   -1    0    0  501  502 -0.00000000000E+00 -0.00000000000E+00 -0.55983872091E+02  0.55983872091E+02  0.00000000000E+00 0.  1.
         25    1    1    2    0    0  0.16329544582E+03  0.58351842221E+02  0.34586903327E+03  0.40659651781E+03  0.12500000000E+03 0.  0.
         25    1    1    2    0    0 -0.16329544582E+03 -0.58351842221E+02  0.42027281094E+03  0.47151307059E+03  0.12500000000E+03 0.  0.
</event>
<event>
 4    0  0.2193754E-002  0.2763955E+03  0.7546771E-02  0.1097674E+00
         21   -1    0    0  502  501  0.00000000000E+00  0.00000000000E+00  0.30526980863E+04  0.30526980863E+04  0.00000000000E+00 0.  1.
         21   -1    0    0  501  502 -0.00000000000E+00 -0.00000000000E+00 -0.25025226344E+02  0.25025226344E+02  0.00000000000E+00 0.  1.
         25    1    1    2    0    0  0.16578204043E+03 -0.18241978680E+03  0.14973230306E+04  0.15226168006E+04  0.12500000000E+03 0.  0.
         25    1    1    2    0    0 -0.16578204043E+03  0.18241978680E+03  0.15303498294E+04  0.15551065120E+04  0.12500000000E+03 0.  0.
</event>
<event>
 4    0  0.2193754E-002  0.1984496E+03  0.7546771E-02  0.1151054E+00
         21   -1    0    0  502  501  0.00000000000E+00  0.00000000000E+00  0.34300081342E+03  0.34300081342E+03  0.00000000000E+00 0.  1.
         21   -1    0    0  501  502 -0.00000000000E+00 -0.00000000000E+00 -0.11481680901E+03  0.11481680901E+03  0.00000000000E+00 0.  1.
         25    1    1    2    0    0  0.55200215053E+02  0.11989628670E+02 -0.51329439573E+02  0.14645998192E+03  0.12500000000E+03 0.  0.
         25    1    1    2    0    0 -0.55200215053E+02 -0.11989628670E+02  0.27951344398E+03  0.31135764051E+03  0.12500000000E+03 0.  0.
</event>
<event>
 4    0  0.2193754E-002  0.2477997E+03  0.7546771E-02  0.1114703E+00
         21   -1    0    0  502  501  0.00000000000E+00  0.00000000000E+00  0.44212158440E+03  0.44212158440E+03  0.00000000000E+00 0.  1.
         21   -1    0    0  501  502 -0.00000000000E+00 -0.00000000000E+00 -0.13888648221E+03  0.13888648221E+03  0.00000000000E+00 0.  1.
         25    1    1    2    0    0  0.86113389259E+02  0.56536619109E+02  0.37146627994E+03  0.40524573069E+03  0.12500000000E+03 0.  0.
         25    1    1    2    0    0 -0.86113389259E+02 -0.56536619109E+02 -0.68231177745E+02  0.17576233592E+03  0.12500000000E+03 0.  0.
</event>
<event>
 4    0  0.2193754E-002  0.1993511E+03  0.7546771E-02  0.1150288E+00
         21   -1    0    0  502  501  0.00000000000E+00  0.00000000000E+00  0.96839280154E+02  0.96839280154E+02  0.00000000000E+00 0.  1.
         21   -1    0    0  501  502 -0.00000000000E+00 -0.00000000000E+00 -0.41037972004E+03  0.41037972004E+03  0.00000000000E+00 0.  1.
         25    1    1    2    0    0 -0.10228369283E+03  0.98863735295E+02 -0.23601236191E+03  0.30259350117E+03  0.12500000000E+03 0.  0.
         25    1    1    2    0    0  0.10228369283E+03 -0.98863735295E+02 -0.77528077973E+02  0.20462549902E+03  0.12500000000E+03 0.  0.
</event>
<event>
 4    0  0.2193754E-002  0.2245134E+03  0.7546771E-02  0.1130562E+00
         21   -1    0    0  502  501  0.00000000000E+00  0.00000000000E+00  0.11897262170E+04  0.11897262170E+04  0.00000000000E+00 0.  1.
         21   -1    0    0  501  502 -0.00000000000E+00 -0.00000000000E+00 -0.42367963019E+02  0.42367963019E+02  0.00000000000E+00 0.  1.
         25    1    1    2    0    0 -0.75082521992E+02 -0.11902334241E+03  0.90948545622E+03  0.92875870721E+03  0.12500000000E+03 0.  0.
         25    1    1    2    0    0  0.75082521992E+02  0.11902334241E+03  0.23787279775E+03  0.30333547280E+03  0.12500000000E+03 0.  0.
</event>
<event>
 4    0  0.2193754E-002  0.3353409E+03  0.7546771E-02  0.1068798E+00
         21   -1    0    0  502  501  0.00000000000E+00  0.00000000000E+00  0.23532996234E+03  0.23532996234E+03  0.00000000000E+00 0.  1.
         21   -1    0    0  501  502 -0.00000000000E+00 -0.00000000000E+00 -0.47785476331E+03  0.47785476331E+03  0.00000000000E+00 0. -1.
         25    1    1    2    0    0  0.23531211289E+03  0.15654219627E+03  0.17185664559E+02  0.30951186851E+03  0.12500000000E+03 0.  0.
         25    1    1    2    0    0 -0.23531211289E+03 -0.15654219627E+03 -0.25971046553E+03  0.40367285714E+03  0.12500000000E+03 0.  0.
</event>
<event>
 4    0  0.2193754E-002  0.2422126E+03  0.7546771E-02  0.1118328E+00
         21   -1    0    0  502  501  0.00000000000E+00  0.00000000000E+00  0.61887897202E+03  0.61887897202E+03  0.00000000000E+00 0. -1.
         21   -1    0    0  501  502 -0.00000000000E+00 -0.00000000000E+00 -0.94795480291E+02  0.94795480291E+02  0.00000000000E+00 0.  1.
         25    1    1    2    0    0 -0.14806725661E+03  0.25184307810E+02  0.47289407135E+03  0.51167564390E+03  0.12500000000E+03 0.  0.
         25    1    1    2    0    0  0.14806725661E+03 -0.25184307810E+02  0.51189420375E+02  0.20199880841E+03  0.12500000000E+03 0.  0.
</event>
<event>
 4    0  0.2193754E-002  0.2643510E+03  0.7546771E-02  0.1104557E+00
         21   -1    0    0  502  501  0.00000000000E+00  0.00000000000E+00  0.78904171279E+03  0.78904171279E+03  0.00000000000E+00 0.  1.
         21   -1    0    0  501  502 -0.00000000000E+00 -0.00000000000E+00 -0.88564955260E+02  0.88564955260E+02  0.00000000000E+00 0. -1.
         25    1    1    2    0    0 -0.19258260812E+03  0.12864971940E+03  0.39149124594E+03  0.47173001483E+03  0.12500000000E+03 0.  0.
         25    1    1    2    0    0  0.19258260812E+03 -0.12864971940E+03  0.30898551159E+03  0.40587665321E+03  0.12500000000E+03 0.  0.
</event>
<event>
 4    0  0.2193754E-002  0.2437222E+03  0.7546771E-02  0.1117338E+00
         21   -1    0    0  502  501  0.00000000000E+00  0.00000000000E+00  0.37071431321E+03  0.37071431321E+03  0.00000000000E+00 0.  1.
         21   -1    0    0  501  502 -0.00000000000E+00 -0.00000000000E+00 -0.16023262671E+03  0.16023262671E+03  0.00000000000E+00 0.  1.
         25    1    1    2    0    0  0.43277303106E+02 -0.19970346548E+03  0.15421004203E+03  0.28488618105E+03  0.12500000000E+03 0.  0.
         25    1    1    2    0    0 -0.43277303106E+02  0.19970346548E+03  0.56271644462E+02  0.24606075888E+03  0.12500000000E+03 0.  0.
</event>
<event>
 4    0  0.2193754E-002  0.1746851E+03  0.7546771E-02  0.1173048E+00
         21   -1    0    0  502  501  0.00000000000E+00  0.00000000000E+00  0.12984476929E+03  0.12984476929E+03  0.00000000000E+00 0.  1.
         21   -1    0    0  501  502 -0.00000000000E+00 -0.00000000000E+00 -0.23501053141E+03  0.23501053141E+03  0.00000000000E+00 0.  1.
         25    1    1    2    0    0 -0.10126233929E+03  0.49186676596E+02 -0.10174928183E+03  0.19659935622E+03  0.12500000000E+03 0.  0.
         25    1    1    2    0    0  0.10126233929E+03 -0.49186676596E+02 -0.34164802883E+01  0.16825594447E+03  0.12500000000E+03 0.  0.
</event>
<event>
 4    0  0.2193754E-002  0.3066004E+03  0.7546771E-02  0.1081987E+00
         21   -1    0    0  502  501  0.00000000000E+00  0.00000000000E+00  0.28043479431E+03  0.28043479431E+03  0.00000000000E+00 0.  1.
         21   -1    0    0  501  502 -0.00000000000E+00 -0.00000000000E+00 -0.33520725844E+03  0.33520725844E+03  0.00000000000E+00 0.  1.
         25    1    1    2    0    0 -0.83804436325E+02 -0.21994059573E+03  0.12481458351E+03  0.29428001878E+03  0.12500000000E+03 0.  0.
         25    1    1    2    0    0  0.83804436325E+02  0.21994059573E+03 -0.17958704764E+03  0.32136203397E+03  0.12500000000E+03 0.  0.
</event>
<event>
 4    0  0.2193754E-002  0.1948363E+03  0.7546771E-02  0.1154170E+00
         21   -1    0    0  502  501  0.00000000000E+00  0.00000000000E+00  0.47074003073E+02  0.47074003073E+02  0.00000000000E+00 0. -1.
         21   -1    0    0  501  502 -0.00000000000E+00 -0.00000000000E+00 -0.80641471796E+03  0.80641471796E+03  0.00000000000E+00 0. -1.
         25    1    1    2    0    0 -0.50945388440E+02  0.10723647463E+03 -0.18083668655E+03  0.24984395390E+03  0.12500000000E+03 0.  0.
         25    1    1    2    0    0  0.50945388440E+02 -0.10723647463E+03 -0.57850402833E+03  0.60364476713E+03  0.12500000000E+03 0.  0.
</event>
<event>
 4    0  0.2193754E-002  0.1761385E+03  0.7546771E-02  0.1171593E+00
         21   -1    0    0  502  501  0.00000000000E+00  0.00000000000E+00  0.24311877721E+03  0.24311877721E+03  0.00000000000E+00 0.  1.
         21   -1    0    0  501  502 -0.00000000000E+00 -0.00000000000E+00 -0.12761156733E+03  0.12761156733E+03  0.00000000000E+00 0.  1.
         25    1    1    2    0    0 -0.73607861741E+02 -0.39921828973E+02 -0.38629397031E+02  0.15533544365E+03  0.12500000000E+03 0.  0.
         25    1    1    2    0    0  0.73607861741E+02  0.39921828973E+02  0.15413660691E+03  0.21539490089E+03  0.12500000000E+03 0.  0.
</event>
<event>
 4    0  0.2193754E-002  0.1801495E+03  0.7546771E-02  0.1167658E+00
         21   -1    0    0  502  501  0.00000000000E+00  0.00000000000E+00  0.53501677825E+02  0.53501677825E+02  0.00000000000E+00 0.  1.
         21   -1    0    0  501  502 -0.00000000000E+00 -0.00000000000E+00 -0.60659454201E+03  0.60659454201E+03  0.00000000000E+00 0.  1.
         25    1    1    2    0    0  0.46109222141E+02  0.75188667127E+02 -0.10226348070E+03  0.18401688921E+03  0.12500000000E+03 0.  0.
         25    1    1    2    0    0 -0.46109222141E+02 -0.75188667127E+02 -0.45082938348E+03  0.47607933062E+03  0.12500000000E+03 0.  0.
</event>
<event>
 4    0  0.2193754E-002  0.3196146E+03  0.7546771E-02  0.1075827E+00
         21   -1    0    0  502  501  0.00000000000E+00  0.00000000000E+00  0.88650684837E+02  0.88650684837E+02  0.00000000000E+00 0. -1.
         21   -1    0    0  501  502 -0.00000000000E+00 -0.00000000000E+00 -0.11523148078E+04  0.11523148078E+04  0.00000000000E+00 0. -1.
         25    1    1    2    0    0 -0.15337453414E+03  0.61795330636E+02 -0.10041265767E+04  0.10252987821E+04  0.12500000000E+03 0.  0.
         25    1    1    2    0    0  0.15337453414E+03 -0.61795330636E+02 -0.59537546285E+02  0.21566671052E+03  0.12500000000E+03 0.  0.
</event>
<event>
 4    0  0.2193754E-002  0.1801379E+03  0.7546771E-02  0.1167670E+00
         21   -1    0    0  502  501  0.00000000000E+00  0.00000000000E+00  0.60712957739E+02  0.60712957739E+02  0.00000000000E+00 0. -1.
         21   -1    0    0  501  502 -0.00000000000E+00 -0.00000000000E+00 -0.53447659534E+03  0.53447659534E+03  0.00000000000E+00 0. -1.
         25    1    1    2    0    0  0.11194871702E+03 -0.27677945393E+02 -0.33498109242E+03  0.37568060395E+03  0.12500000000E+03 0.  0.
         25    1    1    2    0    0 -0.11194871702E+03  0.27677945393E+02 -0.13878254518E+03  0.21950894913E+03  0.12500000000E+03 0.  0.
</event>
<event>
 4    0  0.2193754E-002  0.1800165E+03  0.7546771E-02  0.1167787E+00
         21   -1    0    0  502  501  0.00000000000E+00  0.00000000000E+00  0.81705452241E+03  0.81705452241E+03  0.00000000000E+00 0.  1.
         21   -1    0    0  501  502 -0.00000000000E+00 -0.00000000000E+00 -0.39661920346E+02  0.39661920346E+02  0.00000000000E+00 0.  1.
         25    1    1    2    0    0  0.10075843073E+03 -0.39773126547E+02  0.21965132515E+03  0.27496521161E+03  0.12500000000E+03 0.  0.
         25    1    1    2    0    0 -0.10075843073E+03  0.39773126547E+02  0.55774127692E+03  0.58175123115E+03  0.12500000000E+03 0.  0.
</event>
<event>
 4    0  0.2193754E-002  0.2131634E+03  0.7546771E-02  0.1139085E+00
         21   -1    0    0  502  501  0.00000000000E+00  0.00000000000E+00  0.43997611692E+03  0.43997611692E+03  0.00000000000E+00 0.  1.
         21   -1    0    0  501  502 -0.00000000000E+00 -0.00000000000E+00 -0.10327518456E+03  0.10327518456E+03  0.00000000000E+00 0.  1.
         25    1    1    2    0    0  0.90066015748E+02 -0.14455640898E+03  0.20450831627E+03  0.29403587195E+03  0.12500000000E+03 0.  0.
         25    1    1    2    0    0 -0.90066015748E+02  0.14455640898E+03  0.13219261608E+03  0.24921542953E+03  0.12500000000E+03 0.  0.
</event>
<event>
 4    0  0.2193754E-002  0.2091172E+03  0.7546771E-02  0.1142267E+00
         21   -1    0    0  502  501  0.00000000000E+00  0.00000000000E+00  0.61352153427E+03  0.61352153427E+03  0.00000000000E+00 0. -1.
         21   -1    0    0  501  502 -0.00000000000E+00 -0.00000000000E+00 -0.71277029059E+02  0.71277029059E+02  0.00000000000E+00 0. -1.
         25    1    1    2    0    0 -0.13466857890E+03  0.98839372084E+02  0.29428633468E+03  0.36074131230E+03  0.12500000000E+03 0.  0.
         25    1    1    2    0    0  0.13466857890E+03 -0.98839372084E+02  0.24795817053E+03  0.32405725103E+03  0.12500000000E+03 0.  0.
</event>
<event>
 4    0  0.2193754E-002  0.2113451E+03  0.7546771E-02  0.1140505E+00
         21   -1    0    0  502  501  0.00000000000E+00  0.00000000000E+00  0.17344053460E+02  0.17344053460E+02  0.00000000000E+00 0. -1.
         21   -1    0    0  501  502 -0.00000000000E+00 -0.00000000000E+00 -0.25753357561E+04  0.25753357561E+04  0.00000000000E+00 0. -1.
         25    1    1    2    0    0 -0.16293296247E+03 -0.49548920817E+02 -0.13175533500E+04  0.13343815331E+04  0.12500000000E+03 0.  0.
         25    1    1    2    0    0  0.16293296247E+03  0.49548920817E+02 -0.12404383527E+04  0.12582982765E+04  0.12500000000E+03 0.  0.
</event>
<event>
 4    0  0.2193754E-002  0.2084581E+03  0.7546771E-02  0.1142793E+00
         21   -1    0    0  502  501  0.00000000000E+00  0.00000000000E+00  0.68017232754E+03  0.68017232754E+03  0.00000000000E+00 0.  1.
         21   -1    0    0  501  502 -0.00000000000E+00 -0.00000000000E+00 -0.63887905751E+02  0.63887905751E+02  0.00000000000E+00 0.  1.
         25    1    1    2    0    0  0.11699481379E+03 -0.11146321781E+03  0.38211373638E+03  0.43329867633E+03  0.12500000000E+03 0.  0.
         25    1    1    2    0    0 -0.11699481379E+03  0.11146321781E+03  0.23417068540E+03  0.31076155696E+03  0.12500000000E+03 0.  0.
</event>
<event>
 4    0  0.2193754E-002  0.2051946E+03  0.7546771E-02  0.1145429E+00
         21   -1    0    0  502  501  0.00000000000E+00  0.00000000000E+00  0.95391211201E+03  0.95391211201E+03  0.00000000000E+00 0. -1.
         21   -1    0    0  501  502 -0.00000000000E+00 -0.00000000000E+00 -0.44139112497E+02  0.44139112497E+02  0.00000000000E+00 0. -1.
         25    1    1    2    0    0 -0.11687376891E+03  0.77509466733E+02  0.65561754032E+03  0.68200187278E+03  0.12500000000E+03 0.  0.
         25    1    1    2    0    0  0.11687376891E+03 -0.77509466733E+02  0.25415545919E+03  0.31604935173E+03  0.12500000000E+03 0.  0.
</event>
<event>
 4    0  0.2193754E-002  0.2178085E+03  0.7546771E-02  0.1135528E+00
         21   -1    0    0  502  501  0.00000000000E+00  0.00000000000E+00  0.37603863560E+02  0.37603863560E+02  0.00000000000E+00 0.  1.
         21   -1    0    0  501  502 -0.00000000000E+00 -0.00000000000E+00 -0.12615867723E+04  0.12615867723E+04  0.00000000000E+00 0.  1.
         25    1    1    2    0    0 -0.12825303085E+03  0.19446732023E+02 -0.24686147991E+03  0.30560203791E+03  0.12500000000E+03 0.  0.
         25    1    1    2    0    0  0.12825303085E+03 -0.19446732023E+02 -0.97712142886E+03  0.99358859798E+03  0.12500000000E+03 0.  0.
</event>
<event>
 4    0  0.2193754E-002  0.1929072E+03  0.7546771E-02  0.1155865E+00
         21   -1    0    0  502  501  0.00000000000E+00  0.00000000000E+00  0.59739994425E+03  0.59739994425E+03  0.00000000000E+00 0. -1.
         21   -1    0    0  501  502 -0.00000000000E+00 -0.00000000000E+00 -0.62291942194E+02  0.62291942194E+02  0.00000000000E+00 0. -1.
         25    1    1    2    0    0 -0.81032528202E+02 -0.59080788548E+02  0.83940969388E+02  0.18090853088E+03  0.12500000000E+03 0.  0.
         25    1    1    2    0    0  0.81032528202E+02  0.59080788548E+02  0.45116703267E+03  0.47878335557E+03  0.12500000000E+03 0.  0.
</event>
<event>
 4    0  0.2193754E-002  0.2785103E+03  0.7546771E-02  0.1096505E+00
         21   -1    0    0  502  501  0.00000000000E+00  0.00000000000E+00  0.24195760051E+02  0.24195760051E+02  0.00000000000E+00 0.  1.
         21   -1    0    0  501  502 -0.00000000000E+00 -0.00000000000E+00 -0.32058504349E+04  0.32058504349E+04  0.00000000000E+00 0.  1.
         25    1    1    2    0    0  0.55248943471E+02  0.18337481267E+03 -0.66912556235E+03  0.70712996391E+03  0.12500000000E+03 0.  0.
         25    1    1    2    0    0 -0.55248943471E+02 -0.18337481267E+03 -0.25125291125E+04  0.25229162311E+04  0.12500000000E+03 0.  0.
</event>
<event>
 4    0  0.2193754E-002  0.2687881E+03  0.7546771E-02  0.1101975E+00
         21   -1    0    0  502  501  0.00000000000E+00  0.00000000000E+00  0.68346478342E+02  0.68346478342E+02  0.00000000000E+00 0. -1.
         21   -1    0    0  501  502 -0.00000000000E+00 -0.00000000000E+00 -0.10570703622E+04  0.10570703622E+04  0.00000000000E+00 0. -1.
         25    1    1    2    0    0 -0.67516513241E+02 -0.18039155635E+03 -0.20185210103E+03  0.30572677974E+03  0.12500000000E+03 0.  0.
         25    1    1    2    0    0  0.67516513241E+02  0.18039155635E+03 -0.78687178282E+03  0.81969006080E+03  0.12500000000E+03 0.  0.
</event>
<event>
 4    0  0.2193754E-002  0.2023052E+03  0.7546771E-02  0.1147809E+00
         21   -1    0    0  502  501  0.00000000000E+00  0.00000000000E+00  0.23123503452E+03  0.23123503452E+03  0.00000000000E+00 0. -1.
         21   -1    0    0  501  502 -0.00000000000E+00 -0.00000000000E+00 -0.17699474519E+03  0.17699474519E+03  0.00000000000E+00 0. -1.
         25    1    1    2    0    0 -0.19740810493E+02 -0.24763185592E+02  0.18439746213E+03  0.22501186413E+03  0.12500000000E+03 0.  0.
         25    1    1    2    0    0  0.19740810493E+02  0.24763185592E+02 -0.13015717280E+03  0.18321791559E+03  0.12500000000E+03 0.  0.
</event>
<event>
 4    0  0.2193754E-002  0.1808519E+03  0.7546771E-02  0.1166981E+00
         21   -1    0    0  502  501  0.00000000000E+00  0.00000000000E+00  0.28889596131E+02  0.28889596131E+02  0.00000000000E+00 0.  1.
         21   -1    0    0  501  502 -0.00000000000E+00 -0.00000000000E+00 -0.11321518811E+04  0.11321518811E+04  0.00000000000E+00 0.  1.
         25    1    1    2    0    0  0.37134491879E+02 -0.89807146187E+02 -0.83216662541E+03  0.84709538213E+03  0.12500000000E+03 0.  0.
         25    1    1    2    0    0 -0.37134491879E+02  0.89807146187E+02 -0.27109565957E+03  0.31394609511E+03  0.12500000000E+03 0.  0.
</event>
<event>
 4    0  0.2193754E-002  0.1757707E+03  0.7546771E-02  0.1171960E+00
         21   -1    0    0  502  501  0.00000000000E+00  0.00000000000E+00  0.11884492471E+03  0.11884492471E+03  0.00000000000E+00 0.  1.
         21   -1    0    0  501  502 -0.00000000000E+00 -0.00000000000E+00 -0.25996344780E+03  0.25996344780E+03  0.00000000000E+00 0.  1.
         25    1    1    2    0    0  0.18706844001E+02  0.44799625755E+02 -0.19301048841E+03  0.23502127801E+03  0.12500000000E+03 0.  0.
         25    1    1    2    0    0 -0.18706844001E+02 -0.44799625755E+02  0.51891965318E+02  0.14378709450E+03  0.12500000000E+03 0.  0.
</event>
<event>
 4    0  0.2193754E-002  0.1825404E+03  0.7546771E-02  0.1165367E+00
         21   -1    0    0  502  501  0.00000000000E+00  0.00000000000E+00  0.26899357894E+04  0.26899357894E+04  0.00000000000E+00 0. -1.
         21   -1    0    0  501  502 -0.00000000000E+00 -0.00000000000E+00 -0.12387279491E+02  0.12387279491E+02  0.00000000000E+00 0. -1.
         25    1    1    2    0    0 -0.11160186925E+03  0.44697946477E+02  0.91724404422E+03  0.93349585982E+03  0.12500000000E+03 0.  0.
         25    1    1    2    0    0  0.11160186925E+03 -0.44697946477E+02  0.17603044657E+04  0.17688272091E+04  0.12500000000E+03 0.  0.
</event>
<event>
 4    0  0.2193754E-002  0.1595115E+03  0.7546771E-02  0.1189249E+00
         21   -1    0    0  502  501  0.00000000000E+00  0.00000000000E+00  0.22769547676E+03  0.22769547676E+03  0.00000000000E+00 0.  1.
         21   -1    0    0  501  502 -0.00000000000E+00 -0.00000000000E+00 -0.11174543300E+03  0.11174543300E+03  0.00000000000E+00 0.  1.
         25    1    1    2    0    0  0.66514089366E+02  0.41164910626E+02 -0.67478771476E+01  0.14761167907E+03  0.12500000000E+03 0.  0.
         25    1    1    2    0    0 -0.66514089366E+02 -0.41164910626E+02  0.12269792091E+03  0.19182923069E+03  0.12500000000E+03 0.  0.
</event>
<event>
 4    0  0.2193754E-002  0.1669747E+03  0.7546771E-02  0.1181040E+00
         21   -1    0    0  502  501  0.00000000000E+00  0.00000000000E+00  0.32303494224E+03  0.32303494224E+03  0.00000000000E+00 0. -1.
         21   -1    0    0  501  502 -0.00000000000E+00 -0.00000000000E+00 -0.86308116063E+02  0.86308116063E+02  0.00000000000E+00 0. -1.
         25    1    1    2    0    0 -0.60241789291E+02  0.11495241947E+02  0.23133552923E+03  0.27000433487E+03  0.12500000000E+03 0.  0.
         25    1    1    2    0    0  0.60241789291E+02 -0.11495241947E+02  0.53912969446E+01  0.13933872343E+03  0.12500000000E+03 0.  0.
</event>
<event>
 4    0  0.2193754E-002  0.2417813E+03  0.7546771E-02  0.1118612E+00
         21   -1    0    0  502  501  0.00000000000E+00  0.00000000000E+00  0.24931496441E+03  0.24931496441E+03  0.00000000000E+00 0.  1.
         21   -1    0    0  501  502 -0.00000000000E+00 -0.00000000000E+00 -0.23447528185E+03  0.23447528185E+03  0.00000000000E+00 0.  1.
         25    1    1    2    0    0 -0.16287882677E+03 -0.54772847028E+02 -0.10797577600E+03  0.23835550168E+03  0.12500000000E+03 0.  0.
         25    1    1    2    0    0  0.16287882677E+03  0.54772847028E+02  0.12281545856E+03  0.24543474457E+03  0.12500000000E+03 0.  0.
</event>
<event>
 4    0  0.2193754E-002  0.5068702E+03  0.7546771E-02  0.1012001E+00
         21   -1    0    0  502  501  0.00000000000E+00  0.00000000000E+00  0.28125049773E+03  0.28125049773E+03  0.00000000000E+00 0. -1.
         21   -1    0    0  501  502 -0.00000000000E+00 -0.00000000000E+00 -0.91348253572E+03  0.91348253572E+03  0.00000000000E+00 0.  1.
         25    1    1    2    0    0  0.21093475597E+02  0.41199433933E+03 -0.63038664031E+03  0.76367308885E+03  0.12500000000E+03 0.  0.
         25    1    1    2    0    0 -0.21093475597E+02 -0.41199433933E+03 -0.18453976779E+01  0.43105994460E+03  0.12500000000E+03 0.  0.
</event>
<event>
 4    0  0.2193754E-002  0.2603092E+03  0.7546771E-02  0.1106958E+00
         21   -1    0    0  502  501  0.00000000000E+00  0.00000000000E+00  0.45032729216E+03  0.45032729216E+03  0.00000000000E+00 0. -1.
         21   -1    0    0  501  502 -0.00000000000E+00 -0.00000000000E+00 -0.15047035040E+03  0.15047035040E+03  0.00000000000E+00 0. -1.
         25    1    1    2    0    0  0.53128226915E+02 -0.78414828412E+02  0.38968560389E+03  0.42006114280E+03  0.12500000000E+03 0.  0.
         25    1    1    2    0    0 -0.53128226915E+02  0.78414828412E+02 -0.89828662128E+02  0.18073649977E+03  0.12500000000E+03 0.  0.
</event>
<event>
 4    0  0.2193754E-002  0.3171514E+03  0.7546771E-02  0.1076968E+00
         21   -1    0    0  502  501  0.00000000000E+00  0.00000000000E+00  0.75967848942E+03  0.75967848942E+03  0.00000000000E+00 0. -1.
         21   -1    0    0  501  502 -0.00000000000E+00 -0.00000000000E+00 -0.13240467057E+03  0.13240467057E+03  0.00000000000E+00 0. -1.
         25    1    1    2    0    0 -0.17426641658E+03 -0.10885545964E+03  0.60439686806E+03  0.65049125218E+03  0.12500000000E+03 0.  0.
         25    1    1    2    0    0  0.17426641658E+03  0.10885545964E+03  0.22876950789E+02  0.24159190781E+03  0.12500000000E+03 0.  0.
</event>
<event>
 4    0  0.2193754E-002  0.1972222E+03  0.7546771E-02  0.1152104E+00
         21   -1    0    0  502  501  0.00000000000E+00  0.00000000000E+00  0.11255012350E+03  0.11255012350E+03  0.00000000000E+00 0.  1.
         21   -1    0    0  501  502 -0.00000000000E+00 -0.00000000000E+00 -0.34559370107E+03  0.34559370107E+03  0.00000000000E+00 0.  1.
         25    1    1    2    0    0  0.84551312229E+02  0.10773547654E+03 -0.38470298682E+02  0.18936953606E+03  0.12500000000E+03 0.  0.
         25    1    1    2    0    0 -0.84551312229E+02 -0.10773547654E+03 -0.19457327890E+03  0.26877428851E+03  0.12500000000E+03 0.  0.
</event>
<event>
 4    0  0.2193754E-002  0.1784413E+03  0.7546771E-02  0.1169320E+00
         21   -1    0    0  502  501  0.00000000000E+00  0.00000000000E+00  0.14263421324E+03  0.14263421324E+03  0.00000000000E+00 0.  1.
         21   -1    0    0  501  502 -0.00000000000E+00 -0.00000000000E+00 -0.22323739255E+03  0.22323739255E+03  0.00000000000E+00 0.  1.
         25    1    1    2    0    0  0.21580623155E+02  0.32586882290E+01  0.88317379520E+02  0.15460045883E+03  0.12500000000E+03 0.  0.
         25    1    1    2    0    0 -0.21580623155E+02 -0.32586882290E+01 -0.16892055883E+03  0.21127114696E+03  0.12500000000E+03 0.  0.
</event>
<event>
 4    0  0.2193754E-002  0.2220203E+03  0.7546771E-02  0.1132386E+00
         21   -1    0    0  502  501  0.00000000000E+00  0.00000000000E+00  0.13134206053E+04  0.13134206053E+04  0.00000000000E+00 0. -1.
         21   -1    0    0  501  502 -0.00000000000E+00 -0.00000000000E+00 -0.37530257790E+02  0.37530257790E+02  0.00000000000E+00 0. -1.
         25    1    1    2    0    0 -0.13926854239E+03 -0.90084909123E+02  0.87667204822E+03  0.90093834299E+03  0.12500000000E+03 0.  0.
         25    1    1    2    0    0  0.13926854239E+03  0.90084909123E+02  0.39921829926E+03  0.45001252007E+03  0.12500000000E+03 0.  0.
</event>
<event>
 4    0  0.2193754E-002  0.2151020E+03  0.7546771E-02  0.1137588E+00
         21   -1    0    0  502  501  0.00000000000E+00  0.00000000000E+00  0.58225584392E+02  0.58225584392E+02  0.00000000000E+00 0.  1.
         21   -1    0    0  501  502 -0.00000000000E+00 -0.00000000000E+00 -0.79464821020E+03  0.79464821020E+03  0.00000000000E+00 0.  1.
         25    1    1    2    0    0 -0.78802263160E+02  0.14116591583E+03 -0.23512979625E+03  0.31152629673E+03  0.12500000000E+03 0.  0.
         25    1    1    2    0    0  0.78802263160E+02 -0.14116591583E+03 -0.50129282956E+03  0.54134749786E+03  0.12500000000E+03 0.  0.
</event>
<event>
 4    0  0.2193754E-002  0.2405298E+03  0.7546771E-02  0.1119440E+00
         21   -1    0    0  502  501  0.00000000000E+00  0.00000000000E+00  0.79555201702E+03  0.79555201702E+03  0.00000000000E+00 0.  1.
         21   -1    0    0  501  502 -0.00000000000E+00 -0.00000000000E+00 -0.72722589478E+02  0.72722589478E+02  0.00000000000E+00 0.  1.
         25    1    1    2    0    0 -0.68223536559E+02  0.12434325659E+03  0.93009542349E+02  0.21069283654E+03  0.12500000000E+03 0.  0.
         25    1    1    2    0    0  0.68223536559E+02 -0.12434325659E+03  0.62981988520E+03  0.65758176996E+03  0.12500000000E+03 0.  0.
</event>
<event>
 4    0  0.2193754E-002  0.4567430E+03  0.7546771E-02  0.1025730E+00
         21   -1    0    0  502  501  0.00000000000E+00  0.00000000000E+00  0.77571657235E+02  0.77571657235E+02  0.00000000000E+00 0. -1.
         21   -1    0    0  501  502 -0.00000000000E+00 -0.00000000000E+00 -0.26893096190E+04  0.26893096190E+04  0.00000000000E+00 0. -1.
         25    1    1    2    0    0 -0.18604213178E+03  0.35937605041E+02 -0.25063556902E+04  0.25166142000E+04  0.12500000000E+03 0.  0.
         25    1    1    2    0    0  0.18604213178E+03 -0.35937605041E+02 -0.10538227159E+03  0.25026707618E+03  0.12500000000E+03 0.  0.
</event>
<event>
 4    0  0.2193754E-002  0.1956617E+03  0.7546771E-02  0.1153452E+00
         21   -1    0    0  502  501  0.00000000000E+00  0.00000000000E+00  0.15231675886E+03  0.15231675886E+03  0.00000000000E+00 0. -1.
         21   -1    0    0  501  502 -0.00000000000E+00 -0.00000000000E+00 -0.25134124269E+03  0.25134124269E+03  0.00000000000E+00 0. -1.
         25    1    1    2    0    0 -0.48053435085E+02  0.99815299913E+02  0.55613088296E+02  0.17603988841E+03  0.12500000000E+03 0.  0.
         25    1    1    2    0    0  0.48053435085E+02 -0.99815299913E+02 -0.15463757213E+03  0.22761811315E+03  0.12500000000E+03 0.  0.
</event>
<event>
 4    0  0.2193754E-002  0.2029746E+03  0.7546771E-02  0.1147253E+00
         21   -1    0    0  502  501  0.00000000000E+00  0.00000000000E+00  0.57794185333E+03  0.57794185333E+03  0.00000000000E+00 0. -1.
         21   -1    0    0  501  502 -0.00000000000E+00 -0.00000000000E+00 -0.71285166437E+02  0.71285166437E+02  0.00000000000E+00 0. -1.
         25    1    1    2    0    0 -0.67387520633E+02  0.57202296899E+02  0.40194442665E+02  0.15828383976E+03  0.12500000000E+03 0.  0.
         25    1    1    2    0    0  0.67387520633E+02 -0.57202296899E+02  0.46646224423E+03  0.49094318001E+03  0.12500000000E+03 0.  0.
</event>
<event>
 4    0  0.2193754E-002  0.3554987E+03  0.7546771E-02  0.1060380E+00
         21   -1    0    0  502  501  0.00000000000E+00  0.00000000000E+00  0.10423473730E+04  0.10423473730E+04  0.00000000000E+00 0. -1.
         21   -1    0    0  501  502 -0.00000000000E+00 -0.00000000000E+00 -0.12124495548E+03  0.12124495548E+03  0.00000000000E+00 0. -1.
         25    1    1    2    0    0  0.23939761458E+02 -0.30477397946E+03  0.67577059270E+03  0.75216433357E+03  0.12500000000E+03 0.  0.
         25    1    1    2    0    0 -0.23939761458E+02  0.30477397946E+03  0.24533182485E+03  0.41142799494E+03  0.12500000000E+03 0.  0.
</event>
<event>
 4    0  0.2193754E-002  0.2103920E+03  0.7546771E-02  0.1141256E+00
         21   -1    0    0  502  501  0.00000000000E+00  0.00000000000E+00  0.65991934791E+02  0.65991934791E+02  0.00000000000E+00 0. -1.
         21   -1    0    0  501  502 -0.00000000000E+00 -0.00000000000E+00 -0.67076039739E+03  0.67076039739E+03  0.00000000000E+00 0. -1.
         25    1    1    2    0    0  0.87850360125E+02  0.14372707102E+03 -0.27390203590E+03  0.34499635069E+03  0.12500000000E+03 0.  0.
         25    1    1    2    0    0 -0.87850360125E+02 -0.14372707102E+03 -0.33086642670E+03  0.39175598149E+03  0.12500000000E+03 0.  0.
</event>
<event>
 4    0  0.2193754E-002  0.2520354E+03  0.7546771E-02  0.1112025E+00
         21   -1    0    0  502  501  0.00000000000E+00  0.00000000000E+00  0.33121113098E+03  0.33121113098E+03  0.00000000000E+00 0.  1.
         21   -1    0    0  501  502 -0.00000000000E+00 -0.00000000000E+00 -0.19178648224E+03  0.19178648224E+03  0.00000000000E+00 0.  1.
         25    1    1    2    0    0  0.14660780778E+03  0.15944609243E+03  0.10219126009E+03  0.27015728629E+03  0.12500000000E+03 0.  0.
         25    1    1    2    0    0 -0.14660780778E+03 -0.15944609243E+03  0.37233388647E+02  0.25284032694E+03  0.12500000000E+03 0.  0.
</event>
<event>
 4    0  0.2193754E-002  0.2549269E+03  0.7546771E-02  0.1110230E+00
         21   -1    0    0  502  501  0.00000000000E+00  0.00000000000E+00  0.47829802472E+02  0.47829802472E+02  0.00000000000E+00 0.  1.
         21   -1    0    0  501  502 -0.00000000000E+00 -0.00000000000E+00 -0.13587282569E+04  0.13587282569E+04  0.00000000000E+00 0.  1.
         25    1    1    2    0    0 -0.20920779864E+03  0.56666458654E+01 -0.44969227917E+03  0.51151555190E+03  0.12500000000E+03 0.  0.
         25    1    1    2    0    0  0.20920779864E+03 -0.56666458654E+01 -0.86120617529E+03  0.89504250750E+03  0.12500000000E+03 0.  0.
</event>
<event>
 4    0  0.2193754E-002  0.2636511E+03  0.7546771E-02  0.1104969E+00
         21   -1    0    0  502  501  0.00000000000E+00  0.00000000000E+00  0.20088993122E+03  0.20088993122E+03  0.00000000000E+00 0. -1.
         21   -1    0    0  501  502 -0.00000000000E+00 -0.00000000000E+00 -0.34601987772E+03  0.34601987772E+03  0.00000000000E+00 0. -1.
         25    1    1    2    0    0  0.80751353069E+02 -0.21402566059E+03 -0.31610686752E+02  0.26258712826E+03  0.12500000000E+03 0.  0.
         25    1    1    2    0    0 -0.80751353069E+02  0.21402566059E+03 -0.11351925974E+03  0.28432268067E+03  0.12500000000E+03 0.  0.
</event>
<event>
 4    0  0.2193754E-002  0.2446060E+03  0.7546771E-02  0.1116762E+00
         21   -1    0    0  502  501  0.00000000000E+00  0.00000000000E+00  0.98334807963E+03  0.98334807963E+03  0.00000000000E+00 0.  1.
         21   -1    0    0  501  502 -0.00000000000E+00 -0.00000000000E+00 -0.60845272722E+02  0.60845272722E+02  0.00000000000E+00 0.  1.
         25    1    1    2    0    0 -0.11394157840E+03  0.15953702917E+03  0.29908546537E+03  0.37882959568E+03  0.12500000000E+03 0.  0.
         25    1    1    2    0    0  0.11394157840E+03 -0.15953702917E+03  0.62341734154E+03  0.66536375668E+03  0.12500000000E+03 0.  0.
</event>
<event>
 4    0  0.2193754E-002  0.1865798E+03  0.7546771E-02  0.1161583E+00
         21   -1    0    0  502  501  0.00000000000E+00  0.00000000000E+00  0.28173193402E+03  0.28173193402E+03  0.00000000000E+00 0. -1.
         21   -1    0    0  501  502 -0.00000000000E+00 -0.00000000000E+00 -0.12356433233E+03  0.12356433233E+03  0.00000000000E+00 0. -1.
         25    1    1    2    0    0 -0.58697751430E+02  0.11674559536E+03  0.12899878675E+03  0.22212754679E+03  0.12500000000E+03 0.  0.
         25    1    1    2    0    0  0.58697751430E+02 -0.11674559536E+03  0.29168814941E+02  0.18316871956E+03  0.12500000000E+03 0.  0.
</event>
<event>
 4    0  0.2193754E-002  0.2129419E+03  0.7546771E-02  0.1139257E+00
         21   -1    0    0  502  501  0.00000000000E+00  0.00000000000E+00  0.17515593984E+03  0.17515593984E+03  0.00000000000E+00 0. -1.
         21   -1    0    0  501  502 -0.00000000000E+00 -0.00000000000E+00 -0.25887941368E+03  0.25887941368E+03  0.00000000000E+00 0. -1.
         25    1    1    2    0    0 -0.64650969494E+02 -0.18263253995E+02  0.11994091964E+03  0.18580666970E+03  0.12500000000E+03 0.  0.
         25    1    1    2    0    0  0.64650969494E+02  0.18263253995E+02 -0.20366439348E+03  0.24822868382E+03  0.12500000000E+03 0.  0.
</event>
<event>
 4    0  0.2193754E-002  0.1904089E+03  0.7546771E-02  0.1158093E+00
         21   -1    0    0  502  501  0.00000000000E+00  0.00000000000E+00  0.71988925765E+03  0.71988925765E+03  0.00000000000E+00 0. -1.
         21   -1    0    0  501  502 -0.00000000000E+00 -0.00000000000E+00 -0.50362663976E+02  0.50362663976E+02  0.00000000000E+00 0. -1.
         25    1    1    2    0    0  0.11544740547E+03  0.80360996379E+02  0.39354303820E+03  0.43621911477E+03  0.12500000000E+03 0.  0.
         25    1    1    2    0    0 -0.11544740547E+03 -0.80360996379E+02  0.27598355547E+03  0.33403280686E+03  0.12500000000E+03 0.  0.
</event>
<event>
 4    0  0.2193754E-002  0.1896876E+03  0.7546771E-02  0.1158743E+00
         21   -1    0    0  502  501  0.00000000000E+00  0.00000000000E+00  0.20657545261E+03  0.20657545261E+03  0.00000000000E+00 0.  1.
         21   -1    0    0  501  502 -0.00000000000E+00 -0.00000000000E+00 -0.17418041192E+03  0.17418041192E+03  0.00000000000E+00 0.  1.
         25    1    1    2    0    0 -0.63153468667E+02  0.11244738006E+03  0.77441087161E+02  0.19558858829E+03  0.12500000000E+03 0.  0.
         25    1    1    2    0    0  0.63153468667E+02 -0.11244738006E+03 -0.45046046470E+02  0.18516727624E+03  0.12500000000E+03 0.  0.
</event>
<event>
 4    0  0.2193754E-002  0.1954191E+03  0.7546771E-02  0.1153662E+00
         21   -1    0    0  502  501  0.00000000000E+00  0.00000000000E+00  0.34999660004E+03  0.34999660004E+03  0.00000000000E+00 0.  1.
         21   -1    0    0  501  502 -0.00000000000E+00 -0.00000000000E+00 -0.10911140741E+03  0.10911140741E+03  0.00000000000E+00 0.  1.
         25    1    1    2    0    0  0.22558649998E+02 -0.14511306733E+03  0.83353224616E+02  0.21009391960E+03  0.12500000000E+03 0.  0.
         25    1    1    2    0    0 -0.22558649998E+02  0.14511306733E+03  0.15753196801E+03  0.24901408784E+03  0.12500000000E+03 0.  0.
</event>
<event>
 4    0  0.2193754E-002  0.3266308E+03  0.7546771E-02  0.1072637E+00
         21   -1    0    0  502  501  0.00000000000E+00  0.00000000000E+00  0.64359284085E+03  0.64359284085E+03  0.00000000000E+00 0. -1.
         21   -1    0    0  501  502 -0.00000000000E+00 -0.00000000000E+00 -0.16576893060E+03  0.16576893060E+03  0.00000000000E+00 0. -1.
         25    1    1    2    0    0  0.42576387584E+02 -0.20924570544E+03  0.50309185381E+03  0.56064509932E+03  0.12500000000E+03 0.  0.
         25    1    1    2    0    0 -0.42576387584E+02  0.20924570544E+03 -0.25267943557E+02  0.24871667213E+03  0.12500000000E+03 0.  0.
</event>
<event>
 4    0  0.2193754E-002  0.1913822E+03  0.7546771E-02  0.1157221E+00
         21   -1    0    0  502  501  0.00000000000E+00  0.00000000000E+00  0.13981135319E+03  0.13981135319E+03  0.00000000000E+00 0.  1.
         21   -1    0    0  501  502 -0.00000000000E+00 -0.00000000000E+00 -0.26197555685E+03  0.26197555685E+03  0.00000000000E+00 0.  1.
         25    1    1    2    0    0 -0.98099200792E+02 -0.60029150179E+01  0.50712751405E+02  0.16690198123E+03  0.12500000000E+03 0.  0.
         25    1    1    2    0    0  0.98099200792E+02  0.60029150179E+01 -0.17287695507E+03  0.23488492880E+03  0.12500000000E+03 0.  0.
</event>
<event>
 4    0  0.2193754E-002  0.2196385E+03  0.7546771E-02  0.1134153E+00
         21   -1    0    0  502  501  0.00000000000E+00  0.00000000000E+00  0.17822944438E+03  0.17822944438E+03  0.00000000000E+00 0. -1.
         21   -1    0    0  501  502 -0.00000000000E+00 -0.00000000000E+00 -0.27066828011E+03  0.27066828011E+03  0.00000000000E+00 0. -1.
         25    1    1    2    0    0  0.17079808722E+03  0.58340136522E+02 -0.52722682180E+02  0.22578804075E+03  0.12500000000E+03 0.  0.
         25    1    1    2    0    0 -0.17079808722E+03 -0.58340136522E+02 -0.39716153554E+02  0.22310968374E+03  0.12500000000E+03 0.  0.
</event>
<event>
 4    0  0.2193754E-002  0.2886629E+03  0.7546771E-02  0.1091049E+00
         21   -1    0    0  502  501  0.00000000000E+00  0.00000000000E+00  0.13520809375E+03  0.13520809375E+03  0.00000000000E+00 0.  1.
         21   -1    0    0  501  502 -0.00000000000E+00 -0.00000000000E+00 -0.61628145874E+03  0.61628145874E+03  0.00000000000E+00 0. -1.
         25    1    1    2    0    0 -0.16897260774E+03 -0.19472910148E+03 -0.19488381616E+03  0.34651964869E+03  0.12500000000E+03 0.  0.
         25    1    1    2    0    0  0.16897260774E+03  0.19472910148E+03 -0.28618954883E+03  0.40496990380E+03  0.12500000000E+03 0.  0.
</event>
<event>
 4    0  0.2193754E-002  0.2458774E+03  0.7546771E-02  0.1115938E+00
         21   -1    0    0  502  501  0.00000000000E+00  0.00000000000E+00  0.69020899022E+03  0.69020899022E+03  0.00000000000E+00 0.  1.
         21   -1    0    0  501  502 -0.00000000000E+00 -0.00000000000E+00 -0.87590402577E+02  0.87590402577E+02  0.00000000000E+00 0.  1.
         25    1    1    2    0    0  0.91935422819E+02 -0.18259725391E+03  0.38847134331E+03  0.45643056830E+03  0.12500000000E+03 0.  0.
         25    1    1    2    0    0 -0.91935422819E+02  0.18259725391E+03  0.21414724433E+03  0.32136882449E+03  0.12500000000E+03 0.  0.
</event>
<event>
 4    0  0.2193754E-002  0.2221058E+03  0.7546771E-02  0.1132323E+00
         21   -1    0    0  502  501  0.00000000000E+00  0.00000000000E+00  0.54203720317E+02  0.54203720317E+02  0.00000000000E+00 0. -1.
         21   -1    0    0  501  502 -0.00000000000E+00 -0.00000000000E+00 -0.91010316826E+03  0.91010316826E+03  0.00000000000E+00 0. -1.
         25    1    1    2    0    0 -0.11548186649E+03  0.10632418914E+03 -0.22126360867E+03  0.29870299497E+03  0.12500000000E+03 0.  0.
         25    1    1    2    0    0  0.11548186649E+03 -0.10632418914E+03 -0.63463583928E+03  0.66560389360E+03  0.12500000000E+03 0.  0.
</event>
<event>
 4    0  0.2193754E-002  0.2416619E+03  0.7546771E-02  0.1118691E+00
         21   -1    0    0  502  501  0.00000000000E+00  0.00000000000E+00  0.19012442754E+03  0.19012442754E+03  0.00000000000E+00 0. -1.
         21   -1    0    0  501  502 -0.00000000000E+00 -0.00000000000E+00 -0.30716981504E+03  0.30716981504E+03  0.00000000000E+00 0. -1.
         25    1    1    2    0    0  0.14868947820E+03 -0.17109549824E+01 -0.20642752908E+03  0.28345866199E+03  0.12500000000E+03 0.  0.
         25    1    1    2    0    0 -0.14868947820E+03  0.17109549824E+01  0.89382141576E+02  0.21383558059E+03  0.12500000000E+03 0.  0.
</event>
<event>
 4    0  0.2193754E-002  0.1586131E+03  0.7546771E-02  0.1190271E+00
         21   -1    0    0  502  501  0.00000000000E+00  0.00000000000E+00  0.21094169939E+03  0.21094169939E+03  0.00000000000E+00 0.  1.
         21   -1    0    0  501  502 -0.00000000000E+00 -0.00000000000E+00 -0.11926574567E+03  0.11926574567E+03  0.00000000000E+00 0.  1.
         25    1    1    2    0    0  0.36849940410E+02  0.86801047165E+02  0.19488501320E+02  0.15778828087E+03  0.12500000000E+03 0.  0.
         25    1    1    2    0    0 -0.36849940410E+02 -0.86801047165E+02  0.72187452402E+02  0.17241916419E+03  0.12500000000E+03 0.  0.
</event>
<event>
 4    0  0.2193754E-002  0.1891227E+03  0.7546771E-02  0.1159255E+00
         21   -1    0    0  502  501  0.00000000000E+00  0.00000000000E+00  0.16195638965E+03  0.16195638965E+03  0.00000000000E+00 0. -1.
         21   -1    0    0  501  502 -0.00000000000E+00 -0.00000000000E+00 -0.22084585493E+03  0.22084585493E+03  0.00000000000E+00 0. -1.
         25    1    1    2    0    0 -0.30070282674E+00  0.14192358888E+03 -0.29488051521E+02  0.19140778637E+03  0.12500000000E+03 0.  0.
         25    1    1    2    0    0  0.30070282674E+00 -0.14192358888E+03 -0.29401413759E+02  0.19139445821E+03  0.12500000000E+03 0.  0.
</event>
<event>
 4    0  0.2193754E-002  0.2133726E+03  0.7546771E-02  0.1138923E+00
         21   -1    0    0  502  501  0.00000000000E+00  0.00000000000E+00  0.16902841740E+03  0.16902841740E+03  0.00000000000E+00 0. -1.
         21   -1    0    0  501  502 -0.00000000000E+00 -0.00000000000E+00 -0.26935027306E+03  0.26935027306E+03  0.00000000000E+00 0. -1.
         25    1    1    2    0    0  0.83521445173E+02 -0.15000183651E+03 -0.71374993065E+02  0.22404413046E+03  0.12500000000E+03 0.  0.
         25    1    1    2    0    0 -0.83521445173E+02  0.15000183651E+03 -0.28946862592E+02  0.21433456001E+03  0.12500000000E+03 0.  0.
</event>
<event>
 4    0  0.2193754E-002  0.3856644E+03  0.7546771E-02  0.1048860E+00
         21   -1    0    0  502  501  0.00000000000E+00  0.00000000000E+00  0.40001402883E+03  0.40001402883E+03  0.00000000000E+00 0.  1.
         21   -1    0    0  501  502 -0.00000000000E+00 -0.00000000000E+00 -0.37182956730E+03  0.37182956730E+03  0.00000000000E+00 0.  1.
         25    1    1    2    0    0  0.19603150555E+03  0.27725371752E+03 -0.11946619550E+03  0.38104480958E+03  0.12500000000E+03 0.  0.
         25    1    1    2    0    0 -0.19603150555E+03 -0.27725371752E+03  0.14765065703E+03  0.39079878655E+03  0.12500000000E+03 0.  0.
</event>
<event>
 4    0  0.2193754E-002  0.2355742E+03  0.7546771E-02  0.1122777E+00
         21   -1    0    0  502  501  0.00000000000E+00  0.00000000000E+00  0.73046401981E+02  0.73046401981E+02  0.00000000000E+00 0.  1.
         21   -1    0    0  501  502 -0.00000000000E+00 -0.00000000000E+00 -0.75972503438E+03  0.75972503438E+03  0.00000000000E+00 0.  1.
         25    1    1    2    0    0 -0.14361737902E+03 -0.39779828183E+02 -0.57824071285E+03  0.61007844437E+03  0.12500000000E+03 0.  0.
         25    1    1    2    0    0  0.14361737902E+03  0.39779828183E+02 -0.10843791956E+03  0.22269299200E+03  0.12500000000E+03 0.  0.
</event>
<event>
 4    0  0.2193754E-002  0.2611095E+03  0.7546771E-02  0.1106478E+00
         21   -1    0    0  502  501  0.00000000000E+00  0.00000000000E+00  0.33266315329E+03  0.33266315329E+03  0.00000000000E+00 0.  1.
         21   -1    0    0  501  502 -0.00000000000E+00 -0.00000000000E+00 -0.20494652222E+03  0.20494652222E+03  0.00000000000E+00 0.  1.
         25    1    1    2    0    0  0.18289575526E+03  0.90527404400E+02 -0.43656636291E+02  0.24326317052E+03  0.12500000000E+03 0.  0.
         25    1    1    2    0    0 -0.18289575526E+03 -0.90527404400E+02  0.17137326736E+03  0.29434650500E+03  0.12500000000E+03 0.  0.
</event>
<event>
 4    0  0.2193754E-002  0.2130640E+03  0.7546771E-02  0.1139162E+00
         21   -1    0    0  502  501  0.00000000000E+00  0.00000000000E+00  0.18146605044E+04  0.18146605044E+04  0.00000000000E+00 0.  1.
         21   -1    0    0  501  502 -0.00000000000E+00 -0.00000000000E+00 -0.25016404909E+02  0.25016404909E+02  0.00000000000E+00 0.  1.
         25    1    1    2    0    0 -0.31212361357E+02 -0.12011682102E+03  0.14123275742E+04  0.14232696298E+04  0.12500000000E+03 0.  0.
         25    1    1    2    0    0  0.31212361357E+02  0.12011682102E+03  0.37731652530E+03  0.41640727954E+03  0.12500000000E+03 0.  0.
</event>
<event>
 4    0  0.2193754E-002  0.2379121E+03  0.7546771E-02  0.1121192E+00
         21   -1    0    0  502  501  0.00000000000E+00  0.00000000000E+00  0.76071766410E+03  0.76071766410E+03  0.00000000000E+00 0.  1.
         21   -1    0    0  501  502 -0.00000000000E+00 -0.00000000000E+00 -0.74406303092E+02  0.74406303092E+02  0.00000000000E+00 0.  1.
         25    1    1    2    0    0 -0.21559325462E+02 -0.77419421772E+02  0.66924084159E+03  0.68554130104E+03  0.12500000000E+03 0.  0.
         25    1    1    2    0    0  0.21559325462E+02  0.77419421772E+02  0.17070519427E+02  0.14958266616E+03  0.12500000000E+03 0.  0.
</event>
<event>
 4    0  0.2193754E-002  0.3378705E+03  0.7546771E-02  0.1067707E+00
         21   -1    0    0  502  501  0.00000000000E+00  0.00000000000E+00  0.10735782530E+03  0.10735782530E+03  0.00000000000E+00 0. -1.
         21   -1    0    0  501  502 -0.00000000000E+00 -0.00000000000E+00 -0.10633269847E+04  0.10633269847E+04  0.00000000000E+00 0. -1.
         25    1    1    2    0    0  0.90362817550E+02 -0.16427014398E+03 -0.91413919484E+03  0.94150177192E+03  0.12500000000E+03 0.  0.
         25    1    1    2    0    0 -0.90362817550E+02  0.16427014398E+03 -0.41829964551E+02  0.22918303806E+03  0.12500000000E+03 0.  0.
</event>
<event>
 4    0  0.2193754E-002  0.2223661E+03  0.7546771E-02  0.1132131E+00
         21   -1    0    0  502  501  0.00000000000E+00  0.00000000000E+00  0.29951025165E+03  0.29951025165E+03  0.00000000000E+00 0. -1.
         21   -1    0    0  501  502 -0.00000000000E+00 -0.00000000000E+00 -0.16509171241E+03  0.16509171241E+03  0.00000000000E+00 0. -1.
         25    1    1    2    0    0  0.12551094187E+03  0.70663289012E+02  0.18666567646E+03  0.26686208369E+03  0.12500000000E+03 0.  0.
         25    1    1    2    0    0 -0.12551094187E+03 -0.70663289012E+02 -0.52247137223E+02  0.19773988038E+03  0.12500000000E+03 0.  0.
</event>
<event>
 4    0  0.2193754E-002  0.2634025E+03  0.7546771E-02  0.1105116E+00
         21   -1    0    0  502  501  0.00000000000E+00  0.00000000000E+00  0.39176046123E+03  0.39176046123E+03  0.00000000000E+00 0. -1.
         21   -1    0    0  501  502 -0.00000000000E+00 -0.00000000000E+00 -0.17710031926E+03  0.17710031926E+03  0.00000000000E+00 0. -1.
         25    1    1    2    0    0  0.15622859677E+03 -0.16604594341E+03  0.61806838387E+02  0.26725215629E+03  0.12500000000E+03 0.  0.
         25    1    1    2    0    0 -0.15622859677E+03  0.16604594341E+03  0.15285330358E+03  0.30160862419E+03  0.12500000000E+03 0.  0.
</event>
<event>
 4    0  0.2193754E-002  0.2172478E+03  0.7546771E-02  0.1135952E+00
         21   -1    0    0  502  501  0.00000000000E+00  0.00000000000E+00  0.82669207692E+03  0.82669207692E+03  0.00000000000E+00 0. -1.
         21   -1    0    0  501  502 -0.00000000000E+00 -0.00000000000E+00 -0.57090920504E+02  0.57090920504E+02  0.00000000000E+00 0. -1.
         25    1    1    2    0    0  0.63044224610E+01 -0.16720241953E+03  0.26317877790E+03  0.33598283286E+03  0.12500000000E+03 0.  0.
         25    1    1    2    0    0 -0.63044224610E+01  0.16720241953E+03  0.50642237851E+03  0.54780016456E+03  0.12500000000E+03 0.  0.
</event>
<event>
 4    0  0.2193754E-002  0.2527856E+03  0.7546771E-02  0.1111557E+00
         21   -1    0    0  502  501  0.00000000000E+00  0.00000000000E+00  0.36774232884E+03  0.36774232884E+03  0.00000000000E+00 0. -1.
         21   -1    0    0  501  502 -0.00000000000E+00 -0.00000000000E+00 -0.17376444793E+03  0.17376444793E+03  0.00000000000E+00 0. -1.
         25    1    1    2    0    0 -0.33606640736E+02  0.20531351968E+03  0.17266882310E+03  0.29786334138E+03  0.12500000000E+03 0.  0.
         25    1    1    2    0    0  0.33606640736E+02 -0.20531351968E+03  0.21309057818E+02  0.24364343539E+03  0.12500000000E+03 0.  0.
</event>
<event>
 4    0  0.2193754E-002  0.2539127E+03  0.7546771E-02  0.1110857E+00
         21   -1    0    0  502  501  0.00000000000E+00  0.00000000000E+00  0.13820604902E+03  0.13820604902E+03  0.00000000000E+00 0. -1.
         21   -1    0    0  501  502 -0.00000000000E+00 -0.00000000000E+00 -0.46648956395E+03  0.46648956395E+03  0.00000000000E+00 0. -1.
         25    1    1    2    0    0  0.14988231472E+03  0.14757254326E+03 -0.24494055163E+03  0.34621270575E+03  0.12500000000E+03 0.  0.
         25    1    1    2    0    0 -0.14988231472E+03 -0.14757254326E+03 -0.83342963299E+02  0.25848290721E+03  0.12500000000E+03 0.  0.
</event>
<event>
 4    0  0.2193754E-002  0.2126875E+03  0.7546771E-02  0.1139455E+00
         21   -1    0    0  502  501  0.00000000000E+00  0.00000000000E+00  0.22620063513E+03  0.22620063513E+03  0.00000000000E+00 0. -1.
         21   -1    0    0  501  502 -0.00000000000E+00 -0.00000000000E+00 -0.19998165850E+03  0.19998165850E+03  0.00000000000E+00 0. -1.
         25    1    1    2    0    0 -0.14941933718E+03  0.77949739962E+02  0.47941511560E+02  0.21523403266E+03  0.12500000000E+03 0.  0.
         25    1    1    2    0    0  0.14941933718E+03 -0.77949739962E+02 -0.21722534921E+02  0.21094826097E+03  0.12500000000E+03 0.  0.
</event>
