<event>
 5    0  0.5720005E-005  0.3406486E+03  0.7546771E-02  0.1066520E+00
         21   -1    0    0  502  501  0.00000000000E+00  0.00000000000E+00  0.18615993398E+03  0.18615993398E+03  0.00000000000E+00 0.  1.
         21   -1    0    0  501  502 -0.00000000000E+00 -0.00000000000E+00 -0.62334280454E+03  0.62334280454E+03  0.00000000000E+00 0.  1.
         25    1    1    2    0    0 -0.11167299247E+03  0.10099609635E+03  0.37642031798E+02  0.19928118647E+03  0.12500000000E+03 0.  0.
         25    1    1    2    0    0 -0.24214031051E+02 -0.10272526203E+03 -0.35284103200E+03  0.38892234780E+03  0.12500000000E+03 0.  0.
         25    1    1    2    0    0  0.13588702352E+03  0.17291656760E+01 -0.12198387036E+03  0.22129920425E+03  0.12500000000E+03 0.  0.
</event>
<event>
 5    0  0.5743437E-005  0.2914775E+03  0.7546771E-02  0.1089580E+00
         21   -1    0    0  502  501  0.00000000000E+00  0.00000000000E+00  0.13727091387E+03  0.13727091387E+03  0.00000000000E+00 0.  1.
         21   -1    0    0  501  502 -0.00000000000E+00 -0.00000000000E+00 -0.61891582219E+03  0.61891582219E+03  0.00000000000E+00 0.  1.
         25    1    1    2    0    0  0.10718272900E+03 -0.47944212549E+02 -0.40514519529E+03  0.43994819488E+03  0.12500000000E+03 0.  0.
         25    1    1    2    0    0 -0.35595116731E+02 -0.19649627667E+02  0.15630919035E+02  0.13237237564E+03  0.12500000000E+03 0.  0.
         25    1    1    2    0    0 -0.71587612270E+02  0.67593840215E+02 -0.92130632073E+02  0.18386616554E+03  0.12500000000E+03 0.  0.
</event>
<event>
 5    0  0.5666767E-005  0.3011375E+03  0.7546771E-02  0.1084673E+00
         21   -1    0    0  502  501  0.00000000000E+00  0.00000000000E+00  0.62612753005E+03  0.62612753005E+03  0.00000000000E+00 0. -1.
         21   -1    0    0  501  502 -0.00000000000E+00 -0.00000000000E+00 -0.14483278862E+03  0.14483278862E+03  0.00000000000E+00 0. -1.
         25    1    1    2    0    0  0.88363539165E+02 -0.74468485752E+02  0.53969137577E+02  0.17858146106E+03  0.12500000000E+03 0.  0.
         25    1    1    2    0    0 -0.11716644027E+03  0.17268993865E+03  0.30271946974E+03  0.38834761104E+03  0.12500000000E+03 0.  0.
         25    1    1    2    0    0  0.28802901109E+02 -0.98221452899E+02  0.12460613410E+03  0.20403124657E+03  0.12500000000E+03 0.  0.
</event>
<event>
 5    0  0.5612316E-005  0.2978854E+03  0.7546771E-02  0.1086302E+00
         21   -1    0    0  502  501  0.00000000000E+00  0.00000000000E+00  0.13086530713E+04  0.13086530713E+04  0.00000000000E+00 0.  1.
         21   -1    0    0  501  502 -0.00000000000E+00 -0.00000000000E+00 -0.67806909039E+02  0.67806909039E+02  0.00000000000E+00 0.  1.
         25    1    1    2    0    0 -0.36543334136E+02 -0.31587563374E+02  0.51842101025E+03  0.53546104741E+03  0.12500000000E+03 0.  0.
         25    1    1    2    0    0  0.33625124067E+02 -0.14714942748E+03  0.45830611409E+03  0.49845069685E+03  0.12500000000E+03 0.  0.
         25    1    1    2    0    0  0.29182100685E+01  0.17873699085E+03  0.26411903794E+03  0.34254823609E+03  0.12500000000E+03 0.  0.
</event>
<event>
 5    0  0.5612316E-005  0.3566864E+03  0.7546771E-02  0.1059904E+00
         21   -1    0    0  502  501  0.00000000000E+00  0.00000000000E+00  0.17377827180E+04  0.17377827180E+04  0.00000000000E+00 0.  1.
         21   -1    0    0  501  502 -0.00000000000E+00 -0.00000000000E+00 -0.73211200871E+02  0.73211200871E+02  0.00000000000E+00 0.  1.
         25    1    1    2    0    0 -0.96597609767E+01  0.35410138348E+02  0.16135303407E+03  0.20738126840E+03  0.12500000000E+03 0.  0.
         25    1    1    2    0    0 -0.16726301047E+03 -0.63919776487E+02  0.12509954111E+04  0.12699122691E+04  0.12500000000E+03 0.  0.
         25    1    1    2    0    0  0.17692277145E+03  0.28509638140E+02  0.25222307193E+03  0.33370038139E+03  0.12500000000E+03 0.  0.
</event>
<event>
 5    0  0.5612316E-005  0.4330700E+03  0.7546771E-02  0.1032895E+00
         21   -1    0    0  502  501  0.00000000000E+00  0.00000000000E+00  0.30147785646E+03  0.30147785646E+03  0.00000000000E+00 0. -1.
         21   -1    0    0  501  502 -0.00000000000E+00 -0.00000000000E+00 -0.62210075315E+03  0.62210075315E+03  0.00000000000E+00 0. -1.
         25    1    1    2    0    0  0.44326731960E+02  0.42642684204E+02 -0.35044078377E+03  0.37711669362E+03  0.12500000000E+03 0.  0.
         25    1    1    2    0    0 -0.16878360276E+02  0.20270241452E+03  0.10333245091E+03  0.26014561943E+03  0.12500000000E+03 0.  0.
         25    1    1    2    0    0 -0.27448371684E+02 -0.24534509872E+03 -0.73514563836E+02  0.28631629655E+03  0.12500000000E+03 0.  0.
</event>
<event>
 5    0  0.5612316E-005  0.3937064E+03  0.7546771E-02  0.1045981E+00
         21   -1    0    0  502  501  0.00000000000E+00  0.00000000000E+00  0.22105622593E+03  0.22105622593E+03  0.00000000000E+00 0. -1.
         21   -1    0    0  501  502 -0.00000000000E+00 -0.00000000000E+00 -0.70120040162E+03  0.70120040162E+03  0.00000000000E+00 0. -1.
         25    1    1    2    0    0  0.13951818122E+03  0.32032449293E+02  0.82414905916E+02  0.20714395337E+03  0.12500000000E+03 0.  0.
         25    1    1    2    0    0 -0.22662067230E+03 -0.56057700230E+02 -0.23918268107E+03  0.35683714744E+03  0.12500000000E+03 0.  0.
         25    1    1    2    0    0  0.87102491071E+02  0.24025250937E+02 -0.32337640054E+03  0.35827552673E+03  0.12500000000E+03 0.  0.
</event>
<event>
 5    0  0.5761200E-005  0.2954237E+03  0.7546771E-02  0.1087551E+00
         21   -1    0    0  502  501  0.00000000000E+00  0.00000000000E+00  0.35845748949E+03  0.35845748949E+03  0.00000000000E+00 0.  1.
         21   -1    0    0  501  502 -0.00000000000E+00 -0.00000000000E+00 -0.24347422439E+03  0.24347422439E+03  0.00000000000E+00 0.  1.
         25    1    1    2    0    0  0.28655278218E+02 -0.15224710335E+03  0.39518845795E+02  0.20294591551E+03  0.12500000000E+03 0.  0.
         25    1    1    2    0    0 -0.11699726168E+01  0.11093755950E+03  0.16702768709E+03  0.23628745036E+03  0.12500000000E+03 0.  0.
         25    1    1    2    0    0 -0.27485305601E+02  0.41309543857E+02 -0.91563267785E+02  0.16269834801E+03  0.12500000000E+03 0.  0.
</event>
<event>
 5    0  0.5612316E-005  0.2580874E+03  0.7546771E-02  0.1108298E+00
         21   -1    0    0  502  501  0.00000000000E+00  0.00000000000E+00  0.44567166781E+03  0.44567166781E+03  0.00000000000E+00 0. -1.
         21   -1    0    0  501  502 -0.00000000000E+00 -0.00000000000E+00 -0.14945781127E+03  0.14945781127E+03  0.00000000000E+00 0. -1.
         25    1    1    2    0    0 -0.70028428674E+00  0.75026653161E+01  0.15374142816E+03  0.19828819208E+03  0.12500000000E+03 0.  0.
         25    1    1    2    0    0 -0.75779231382E+02 -0.80256896898E+02 -0.17930347595E+02  0.16772047810E+03  0.12500000000E+03 0.  0.
         25    1    1    2    0    0  0.76479515669E+02  0.72754231582E+02  0.16040277597E+03  0.22912080890E+03  0.12500000000E+03 0.  0.
</event>
<event>
 5    0  0.5612316E-005  0.2518912E+03  0.7546771E-02  0.1112115E+00
         21   -1    0    0  502  501  0.00000000000E+00  0.00000000000E+00  0.59834808614E+03  0.59834808614E+03  0.00000000000E+00 0.  1.
         21   -1    0    0  501  502 -0.00000000000E+00 -0.00000000000E+00 -0.10604060144E+03  0.10604060144E+03  0.00000000000E+00 0.  1.
         25    1    1    2    0    0 -0.20148778631E+02 -0.23321517830E+02  0.23920178810E+03  0.27164749567E+03  0.12500000000E+03 0.  0.
         25    1    1    2    0    0 -0.10018977996E+03  0.52429621169E+02  0.16540330269E+03  0.23615695994E+03  0.12500000000E+03 0.  0.
         25    1    1    2    0    0  0.12033855859E+03 -0.29108103339E+02  0.87702393906E+02  0.19658423198E+03  0.12500000000E+03 0.  0.
</event>
<event>
 5    0  0.5612316E-005  0.2706985E+03  0.7546771E-02  0.1100880E+00
         21   -1    0    0  502  501  0.00000000000E+00  0.00000000000E+00  0.16767499598E+03  0.16767499598E+03  0.00000000000E+00 0. -1.
         21   -1    0    0  501  502 -0.00000000000E+00 -0.00000000000E+00 -0.43702222674E+03  0.43702222674E+03  0.00000000000E+00 0. -1.
         25    1    1    2    0    0  0.31194893218E+02 -0.70625078898E+02 -0.97337877257E+02  0.17624041954E+03  0.12500000000E+03 0.  0.
         25    1    1    2    0    0 -0.77594222386E+02 -0.34939064509E+02  0.40240239847E+02  0.15647964238E+03  0.12500000000E+03 0.  0.
         25    1    1    2    0    0  0.46399329168E+02  0.10556414341E+03 -0.21224959334E+03  0.27197716080E+03  0.12500000000E+03 0.  0.
</event>
<event>
 5    0  0.5612316E-005  0.4375032E+03  0.7546771E-02  0.1031516E+00
         21   -1    0    0  502  501  0.00000000000E+00  0.00000000000E+00  0.22591140928E+03  0.22591140928E+03  0.00000000000E+00 0. -1.
         21   -1    0    0  501  502 -0.00000000000E+00 -0.00000000000E+00 -0.84727490375E+03  0.84727490375E+03  0.00000000000E+00 0. -1.
         25    1    1    2    0    0  0.20520228091E+02  0.24656103008E+03 -0.23699342438E+03  0.36469755211E+03  0.12500000000E+03 0.  0.
         25    1    1    2    0    0  0.94021502744E+01  0.97414320093E+02 -0.28798658542E+03  0.32884528820E+03  0.12500000000E+03 0.  0.
         25    1    1    2    0    0 -0.29922378366E+02 -0.34397535018E+03 -0.96383484672E+02  0.37964347271E+03  0.12500000000E+03 0.  0.
</event>
<event>
 5    0  0.5612316E-005  0.2907858E+03  0.7546771E-02  0.1089940E+00
         21   -1    0    0  502  501  0.00000000000E+00  0.00000000000E+00  0.94060828355E+03  0.94060828355E+03  0.00000000000E+00 0. -1.
         21   -1    0    0  501  502 -0.00000000000E+00 -0.00000000000E+00 -0.89895443583E+02  0.89895443583E+02  0.00000000000E+00 0. -1.
         25    1    1    2    0    0 -0.15785632306E+03 -0.11234754722E+03  0.20008777042E+03  0.30528790668E+03  0.12500000000E+03 0.  0.
         25    1    1    2    0    0  0.99052476085E+02  0.43325157786E+02  0.35953145677E+03  0.39569727157E+03  0.12500000000E+03 0.  0.
         25    1    1    2    0    0  0.58803846972E+02  0.69022389432E+02  0.29109361277E+03  0.32951854889E+03  0.12500000000E+03 0.  0.
</event>
<event>
 5    0  0.5612316E-005  0.2653226E+03  0.7546771E-02  0.1103987E+00
         21   -1    0    0  502  501  0.00000000000E+00  0.00000000000E+00  0.44329783884E+02  0.44329783884E+02  0.00000000000E+00 0.  1.
         21   -1    0    0  501  502 -0.00000000000E+00 -0.00000000000E+00 -0.15880092217E+04  0.15880092217E+04  0.00000000000E+00 0.  1.
         25    1    1    2    0    0  0.50208455148E+02  0.94956360695E+02 -0.68102356670E+03  0.70068230876E+03  0.12500000000E+03 0.  0.
         25    1    1    2    0    0 -0.53875159165E+02  0.43510054087E+02 -0.54343045991E+03  0.56190508303E+03  0.12500000000E+03 0.  0.
         25    1    1    2    0    0  0.36667040173E+01 -0.13846641478E+03 -0.31922541120E+03  0.36975161378E+03  0.12500000000E+03 0.  0.
</event>
<event>
 5    0  0.5612316E-005  0.3149840E+03  0.7546771E-02  0.1077981E+00
         21   -1    0    0  502  501  0.00000000000E+00  0.00000000000E+00  0.10740278831E+03  0.10740278831E+03  0.00000000000E+00 0. -1.
         21   -1    0    0  501  502 -0.00000000000E+00 -0.00000000000E+00 -0.92376476525E+03  0.92376476525E+03  0.00000000000E+00 0. -1.
         25    1    1    2    0    0 -0.12521267387E+03  0.85851303331E+02 -0.59818678818E+03  0.62968332798E+03  0.12500000000E+03 0.  0.
         25    1    1    2    0    0  0.57777033524E+02 -0.62343011835E+02 -0.14206689583E+02  0.15182775358E+03  0.12500000000E+03 0.  0.
         25    1    1    2    0    0  0.67435640346E+02 -0.23508291497E+02 -0.20396849918E+03  0.24965647201E+03  0.12500000000E+03 0.  0.
</event>
<event>
 5    0  0.5612316E-005  0.3081692E+03  0.7546771E-02  0.1081227E+00
         21   -1    0    0  502  501  0.00000000000E+00  0.00000000000E+00  0.18351455020E+04  0.18351455020E+04  0.00000000000E+00 0.  1.
         21   -1    0    0  501  502 -0.00000000000E+00 -0.00000000000E+00 -0.51749728181E+02  0.51749728181E+02  0.00000000000E+00 0.  1.
         25    1    1    2    0    0  0.12198396178E+03  0.54779101411E+02  0.11027591250E+04  0.11178477198E+04  0.12500000000E+03 0.  0.
         25    1    1    2    0    0 -0.81782845037E+02 -0.13366498821E+03  0.32528662543E+03  0.38208788452E+03  0.12500000000E+03 0.  0.
         25    1    1    2    0    0 -0.40201116739E+02  0.78885886799E+02  0.35535002336E+03  0.38695962583E+03  0.12500000000E+03 0.  0.
</event>
<event>
 5    0  0.6729942E-005  0.3624515E+03  0.7546771E-02  0.1057617E+00
         21   -1    0    0  502  501  0.00000000000E+00  0.00000000000E+00  0.11161128633E+04  0.11161128633E+04  0.00000000000E+00 0. -1.
         21   -1    0    0  501  502 -0.00000000000E+00 -0.00000000000E+00 -0.11770409480E+03  0.11770409480E+03  0.00000000000E+00 0. -1.
         25    1    1    2    0    0 -0.17163657622E+03 -0.42641642518E+02  0.92047234535E+02  0.23531918188E+03  0.12500000000E+03 0.  0.
         25    1    1    2    0    0  0.17001452372E+02 -0.68296971975E+02  0.59928234832E+03  0.61621251105E+03  0.12500000000E+03 0.  0.
         25    1    1    2    0    0  0.15463512385E+03  0.11093861449E+03  0.30707918565E+03  0.38228526518E+03  0.12500000000E+03 0.  0.
</event>
<event>
 5    0  0.5612316E-005  0.2337857E+03  0.7546771E-02  0.1124003E+00
         21   -1    0    0  502  501  0.00000000000E+00  0.00000000000E+00  0.43874749146E+02  0.43874749146E+02  0.00000000000E+00 0.  1.
         21   -1    0    0  501  502 -0.00000000000E+00 -0.00000000000E+00 -0.12457217853E+04  0.12457217853E+04  0.00000000000E+00 0.  1.
         25    1    1    2    0    0 -0.77656773682E+02 -0.63445340412E+02 -0.57686742318E+03  0.59871271044E+03  0.12500000000E+03 0.  0.
         25    1    1    2    0    0  0.81863639725E+02  0.71282272801E+02 -0.30120791102E+03  0.34370630426E+03  0.12500000000E+03 0.  0.
         25    1    1    2    0    0 -0.42068660426E+01 -0.78369323888E+01 -0.32377170195E+03  0.34717751974E+03  0.12500000000E+03 0.  0.
</event>
<event>
 5    0  0.5612316E-005  0.3550050E+03  0.7546771E-02  0.1060579E+00
         21   -1    0    0  502  501  0.00000000000E+00  0.00000000000E+00  0.32033980301E+04  0.32033980301E+04  0.00000000000E+00 0.  1.
         21   -1    0    0  501  502 -0.00000000000E+00 -0.00000000000E+00 -0.39342138722E+02  0.39342138722E+02  0.00000000000E+00 0.  1.
         25    1    1    2    0    0 -0.14432559311E+03 -0.14085618484E+03  0.23312222690E+04  0.23432653732E+04  0.12500000000E+03 0.  0.
         25    1    1    2    0    0  0.27567033491E+02  0.95514488412E+02  0.33493049619E+03  0.37106117570E+03  0.12500000000E+03 0.  0.
         25    1    1    2    0    0  0.11675855962E+03  0.45341696433E+02  0.49790312617E+03  0.52841361993E+03  0.12500000000E+03 0.  0.
</event>
<event>
 5    0  0.5612316E-005  0.4163375E+03  0.7546771E-02  0.1038265E+00
         21   -1    0    0  502  501  0.00000000000E+00  0.00000000000E+00  0.24321128131E+03  0.24321128131E+03  0.00000000000E+00 0. -1.
         21   -1    0    0  501  502 -0.00000000000E+00 -0.00000000000E+00 -0.71270093043E+03  0.71270093043E+03  0.00000000000E+00 0. -1.
         25    1    1    2    0    0  0.65679639310E+02  0.10471120829E+03 -0.11990886640E+03  0.21279423959E+03  0.12500000000E+03 0.  0.
         25    1    1    2    0    0 -0.18061516842E+03 -0.14437926044E+03 -0.46489388577E+03  0.53405855010E+03  0.12500000000E+03 0.  0.
         25    1    1    2    0    0  0.11493552911E+03  0.39668052154E+02  0.11531310305E+03  0.20905942205E+03  0.12500000000E+03 0.  0.
</event>
<event>
 5    0  0.5612316E-005  0.2641355E+03  0.7546771E-02  0.1104684E+00
         21   -1    0    0  502  501  0.00000000000E+00  0.00000000000E+00  0.15336670889E+03  0.15336670889E+03  0.00000000000E+00 0.  1.
         21   -1    0    0  501  502 -0.00000000000E+00 -0.00000000000E+00 -0.45490678996E+03  0.45490678996E+03  0.00000000000E+00 0.  1.
         25    1    1    2    0    0 -0.10081622949E+03  0.57384858203E+01 -0.70321553827E+02  0.17540514041E+03  0.12500000000E+03 0.  0.
         25    1    1    2    0    0  0.29285462463E+02  0.11812257458E+03 -0.13047050684E+03  0.21784887902E+03  0.12500000000E+03 0.  0.
         25    1    1    2    0    0  0.71530767031E+02 -0.12386106040E+03 -0.10074802040E+03  0.21501947942E+03  0.12500000000E+03 0.  0.
</event>
<event>
 5    0  0.5612316E-005  0.3364870E+03  0.7546771E-02  0.1068302E+00
         21   -1    0    0  502  501  0.00000000000E+00  0.00000000000E+00  0.54998974711E+03  0.54998974711E+03  0.00000000000E+00 0.  1.
         21   -1    0    0  501  502 -0.00000000000E+00 -0.00000000000E+00 -0.20586472318E+03  0.20586472318E+03  0.00000000000E+00 0.  1.
         25    1    1    2    0    0  0.18504170132E+03  0.13906578898E+03  0.16122535540E+03  0.30854228254E+03  0.12500000000E+03 0.  0.
         25    1    1    2    0    0  0.63187670458E+01 -0.88506119352E+02  0.14339961216E+03  0.20990881055E+03  0.12500000000E+03 0.  0.
         25    1    1    2    0    0 -0.19136046837E+03 -0.50559669625E+02  0.39500056360E+02  0.23740337719E+03  0.12500000000E+03 0.  0.
</event>
<event>
 5    0  0.5612316E-005  0.3321036E+03  0.7546771E-02  0.1070210E+00
         21   -1    0    0  502  501  0.00000000000E+00  0.00000000000E+00  0.16120548689E+04  0.16120548689E+04  0.00000000000E+00 0.  1.
         21   -1    0    0  501  502 -0.00000000000E+00 -0.00000000000E+00 -0.68417503141E+02  0.68417503141E+02  0.00000000000E+00 0.  1.
         25    1    1    2    0    0 -0.17333306649E+03 -0.83266063332E+02  0.84276963537E+03  0.87342043000E+03  0.12500000000E+03 0.  0.
         25    1    1    2    0    0  0.18874782716E+03 -0.21738057816E+02  0.48761339089E+03  0.53804284624E+03  0.12500000000E+03 0.  0.
         25    1    1    2    0    0 -0.15414760663E+02  0.10500412115E+03  0.21325433947E+03  0.26900909577E+03  0.12500000000E+03 0.  0.
</event>
<event>
 5    0  0.5612316E-005  0.3659242E+03  0.7546771E-02  0.1056262E+00
         21   -1    0    0  502  501  0.00000000000E+00  0.00000000000E+00  0.23797470896E+03  0.23797470896E+03  0.00000000000E+00 0.  1.
         21   -1    0    0  501  502 -0.00000000000E+00 -0.00000000000E+00 -0.56266698294E+03  0.56266698294E+03  0.00000000000E+00 0.  1.
         25    1    1    2    0    0 -0.96097200315E+02 -0.16843182399E+03 -0.15808239433E+02  0.23125494951E+03  0.12500000000E+03 0.  0.
         25    1    1    2    0    0  0.21128704759E+02  0.18277688139E+03  0.55582807986E+01  0.22250776395E+03  0.12500000000E+03 0.  0.
         25    1    1    2    0    0  0.74968495555E+02 -0.14345057397E+02 -0.31444231535E+03  0.34687897843E+03  0.12500000000E+03 0.  0.
</event>
<event>
 5    0  0.5612316E-005  0.3068532E+03  0.7546771E-02  0.1081864E+00
         21   -1    0    0  502  501  0.00000000000E+00  0.00000000000E+00  0.64593145437E+03  0.64593145437E+03  0.00000000000E+00 0.  1.
         21   -1    0    0  501  502 -0.00000000000E+00 -0.00000000000E+00 -0.14577223204E+03  0.14577223204E+03  0.00000000000E+00 0.  1.
         25    1    1    2    0    0 -0.90921706417E+02 -0.31109184578E+02  0.95705772335E+02  0.18444276327E+03  0.12500000000E+03 0.  0.
         25    1    1    2    0    0 -0.22235957600E+02  0.12854408486E+03  0.36684570017E+03  0.40892393828E+03  0.12500000000E+03 0.  0.
         25    1    1    2    0    0  0.11315766402E+03 -0.97434900278E+02  0.37607749820E+02  0.19833698486E+03  0.12500000000E+03 0.  0.
</event>
<event>
 5    0  0.5612316E-005  0.5053002E+03  0.7546771E-02  0.1012405E+00
         21   -1    0    0  502  501  0.00000000000E+00  0.00000000000E+00  0.16576592323E+04  0.16576592323E+04  0.00000000000E+00 0.  1.
         21   -1    0    0  501  502 -0.00000000000E+00 -0.00000000000E+00 -0.15402939798E+03  0.15402939798E+03  0.00000000000E+00 0.  1.
         25    1    1    2    0    0  0.27466260736E+03  0.20172279049E+03  0.96538133412E+03  0.10313669339E+04  0.12500000000E+03 0.  0.
         25    1    1    2    0    0 -0.24234965857E+03 -0.27990168843E+03  0.27834250342E+03  0.47976854983E+03  0.12500000000E+03 0.  0.
         25    1    1    2    0    0 -0.32312948789E+02  0.78178897937E+02  0.25990599679E+03  0.30055314656E+03  0.12500000000E+03 0.  0.
</event>
<event>
 5    0  0.5612316E-005  0.2703147E+03  0.7546771E-02  0.1101100E+00
         21   -1    0    0  502  501  0.00000000000E+00  0.00000000000E+00  0.14691150703E+04  0.14691150703E+04  0.00000000000E+00 0. -1.
         21   -1    0    0  501  502 -0.00000000000E+00 -0.00000000000E+00 -0.49737437678E+02  0.49737437678E+02  0.00000000000E+00 0. -1.
         25    1    1    2    0    0  0.14406868367E+02 -0.10824018614E+03  0.93946306647E+03  0.95401223735E+03  0.12500000000E+03 0.  0.
         25    1    1    2    0    0 -0.63786555139E+02  0.75484116861E+02  0.26689768876E+03  0.31084715341E+03  0.12500000000E+03 0.  0.
         25    1    1    2    0    0  0.49379686773E+02  0.32756069282E+02  0.21301687736E+03  0.25399311719E+03  0.12500000000E+03 0.  0.
</event>
<event>
 5    0  0.5612316E-005  0.2535820E+03  0.7546771E-02  0.1111062E+00
         21   -1    0    0  502  501  0.00000000000E+00  0.00000000000E+00  0.12663503614E+03  0.12663503614E+03  0.00000000000E+00 0. -1.
         21   -1    0    0  501  502 -0.00000000000E+00 -0.00000000000E+00 -0.50778857951E+03  0.50778857951E+03  0.00000000000E+00 0. -1.
         25    1    1    2    0    0  0.66252484133E+02 -0.28856824940E+01 -0.17773609323E+03  0.22718458938E+03  0.12500000000E+03 0.  0.
         25    1    1    2    0    0  0.47988069358E+02 -0.86123598311E+02 -0.11556355492E+03  0.19672331893E+03  0.12500000000E+03 0.  0.
         25    1    1    2    0    0 -0.11424055349E+03  0.89009280805E+02 -0.87853895223E+02  0.21051570734E+03  0.12500000000E+03 0.  0.
</event>
<event>
 5    0  0.5612316E-005  0.3972632E+03  0.7546771E-02  0.1044731E+00
         21   -1    0    0  502  501  0.00000000000E+00  0.00000000000E+00  0.90470512214E+03  0.90470512214E+03  0.00000000000E+00 0. -1.
         21   -1    0    0  501  502 -0.00000000000E+00 -0.00000000000E+00 -0.17444142254E+03  0.17444142254E+03  0.00000000000E+00 0. -1.
         25    1    1    2    0    0  0.15488177932E+02 -0.12825984623E+03 -0.40106974004E+01  0.17980978145E+03  0.12500000000E+03 0.  0.
         25    1    1    2    0    0 -0.30047785224E+01 -0.15064446801E+03  0.40540065898E+03  0.45019715541E+03  0.12500000000E+03 0.  0.
         25    1    1    2    0    0 -0.12483399410E+02  0.27890431424E+03  0.32887373802E+03  0.44913960783E+03  0.12500000000E+03 0.  0.
</event>
<event>
 5    0  0.5612316E-005  0.4047761E+03  0.7546771E-02  0.1042138E+00
         21   -1    0    0  502  501  0.00000000000E+00  0.00000000000E+00  0.37833998325E+03  0.37833998325E+03  0.00000000000E+00 0. -1.
         21   -1    0    0  501  502 -0.00000000000E+00 -0.00000000000E+00 -0.43305933302E+03  0.43305933302E+03  0.00000000000E+00 0. -1.
         25    1    1    2    0    0  0.85668720012E+02  0.89820933250E+02  0.12192331785E+03  0.21423637664E+03  0.12500000000E+03 0.  0.
         25    1    1    2    0    0  0.19060793203E+02 -0.12190013334E+03 -0.32819715329E+03  0.37223826748E+03  0.12500000000E+03 0.  0.
         25    1    1    2    0    0 -0.10472951322E+03  0.32079200094E+02  0.15155448567E+03  0.22492467216E+03  0.12500000000E+03 0.  0.
</event>
<event>
 5    0  0.5612316E-005  0.2801339E+03  0.7546771E-02  0.1095616E+00
         21   -1    0    0  502  501  0.00000000000E+00  0.00000000000E+00  0.42324760361E+03  0.42324760361E+03  0.00000000000E+00 0.  1.
         21   -1    0    0  501  502 -0.00000000000E+00 -0.00000000000E+00 -0.18541158503E+03  0.18541158503E+03  0.00000000000E+00 0.  1.
         25    1    1    2    0    0 -0.52704425510E+02  0.14084185767E+03  0.48680433923E+02  0.20151667421E+03  0.12500000000E+03 0.  0.
         25    1    1    2    0    0 -0.54595268492E+02 -0.13968028621E+03  0.91264353688E+02  0.21551196707E+03  0.12500000000E+03 0.  0.
         25    1    1    2    0    0  0.10729969400E+03 -0.11615714618E+01  0.97891230972E+02  0.19163054736E+03  0.12500000000E+03 0.  0.
</event>
<event>
 5    0  0.5612316E-005  0.3431784E+03  0.7546771E-02  0.1065450E+00
         21   -1    0    0  502  501  0.00000000000E+00  0.00000000000E+00  0.61935249999E+03  0.61935249999E+03  0.00000000000E+00 0.  1.
         21   -1    0    0  501  502 -0.00000000000E+00 -0.00000000000E+00 -0.19015245683E+03  0.19015245683E+03  0.00000000000E+00 0.  1.
         25    1    1    2    0    0  0.11651088990E+03  0.79337878430E+02  0.17989215834E+03  0.26049083487E+03  0.12500000000E+03 0.  0.
         25    1    1    2    0    0 -0.18011965375E+03 -0.76951274762E+02  0.31717998876E+03  0.39318282468E+03  0.12500000000E+03 0.  0.
         25    1    1    2    0    0  0.63608763849E+02 -0.23866036680E+01 -0.67872103944E+02  0.15583129727E+03  0.12500000000E+03 0.  0.
</event>
<event>
 5    0  0.5612316E-005  0.2112546E+03  0.7546771E-02  0.1140576E+00
         21   -1    0    0  502  501  0.00000000000E+00  0.00000000000E+00  0.47146258424E+02  0.47146258424E+02  0.00000000000E+00 0. -1.
         21   -1    0    0  501  502 -0.00000000000E+00 -0.00000000000E+00 -0.94659711018E+03  0.94659711018E+03  0.00000000000E+00 0. -1.
         25    1    1    2    0    0 -0.28113492474E+01  0.56542245905E+01 -0.16674925463E+03  0.20849505476E+03  0.12500000000E+03 0.  0.
         25    1    1    2    0    0  0.14064452847E+02  0.61488212552E+02 -0.37234504832E+03  0.39779950242E+03  0.12500000000E+03 0.  0.
         25    1    1    2    0    0 -0.11253103599E+02 -0.67142437142E+02 -0.36035654880E+03  0.38744881142E+03  0.12500000000E+03 0.  0.
</event>
<event>
 5    0  0.5612316E-005  0.3180270E+03  0.7546771E-02  0.1076561E+00
         21   -1    0    0  502  501  0.00000000000E+00  0.00000000000E+00  0.94926498980E+02  0.94926498980E+02  0.00000000000E+00 0.  1.
         21   -1    0    0  501  502 -0.00000000000E+00 -0.00000000000E+00 -0.10654683757E+04  0.10654683757E+04  0.00000000000E+00 0.  1.
         25    1    1    2    0    0  0.70088178096E+02 -0.72584642294E+02 -0.35695692758E+03  0.39143854071E+03  0.12500000000E+03 0.  0.
         25    1    1    2    0    0 -0.29559125013E+02  0.18280852486E+03 -0.53601935253E+03  0.58071890353E+03  0.12500000000E+03 0.  0.
         25    1    1    2    0    0 -0.40529053083E+02 -0.11022388256E+03 -0.77565596569E+02  0.18823743040E+03  0.12500000000E+03 0.  0.
</event>
<event>
 5    0  0.5612316E-005  0.2770761E+03  0.7546771E-02  0.1097297E+00
         21   -1    0    0  502  501  0.00000000000E+00  0.00000000000E+00  0.53215312558E+02  0.53215312558E+02  0.00000000000E+00 0. -1.
         21   -1    0    0  501  502 -0.00000000000E+00 -0.00000000000E+00 -0.14426522357E+04  0.14426522357E+04  0.00000000000E+00 0. -1.
         25    1    1    2    0    0  0.59562905341E+02  0.72707863924E+02 -0.14030003356E+03  0.21010300471E+03  0.12500000000E+03 0.  0.
         25    1    1    2    0    0 -0.50188386921E+02 -0.69702136806E+02 -0.40691826997E+03  0.43426344596E+03  0.12500000000E+03 0.  0.
         25    1    1    2    0    0 -0.93745184203E+01 -0.30057271183E+01 -0.84221861961E+03  0.85150109760E+03  0.12500000000E+03 0.  0.
</event>
<event>
 5    0  0.5612316E-005  0.5399765E+03  0.7546771E-02  0.1003841E+00
         21   -1    0    0  502  501  0.00000000000E+00  0.00000000000E+00  0.71623283972E+03  0.71623283972E+03  0.00000000000E+00 0. -1.
         21   -1    0    0  501  502 -0.00000000000E+00 -0.00000000000E+00 -0.40709466609E+03  0.40709466609E+03  0.00000000000E+00 0. -1.
         25    1    1    2    0    0  0.18466418947E+03 -0.17265463133E+02  0.14898567718E+03  0.26873907623E+03  0.12500000000E+03 0.  0.
         25    1    1    2    0    0  0.11582822148E+03  0.31964343531E+03  0.19056912797E+03  0.40930391540E+03  0.12500000000E+03 0.  0.
         25    1    1    2    0    0 -0.30049241095E+03 -0.30237797218E+03 -0.30416631521E+02  0.44528451418E+03  0.12500000000E+03 0.  0.
</event>
<event>
 5    0  0.5612316E-005  0.2754100E+03  0.7546771E-02  0.1098223E+00
         21   -1    0    0  502  501  0.00000000000E+00  0.00000000000E+00  0.22224500992E+02  0.22224500992E+02  0.00000000000E+00 0.  1.
         21   -1    0    0  501  502 -0.00000000000E+00 -0.00000000000E+00 -0.34129308560E+04  0.34129308560E+04  0.00000000000E+00 0.  1.
         25    1    1    2    0    0 -0.32286345499E+01 -0.29013718127E+02 -0.62045547039E+03  0.63359467379E+03  0.12500000000E+03 0.  0.
         25    1    1    2    0    0 -0.13375109447E+03 -0.82951392078E+02 -0.13585669459E+04  0.13733533541E+04  0.12500000000E+03 0.  0.
         25    1    1    2    0    0  0.13697972902E+03  0.11196511020E+03 -0.14116839387E+04  0.14282073291E+04  0.12500000000E+03 0.  0.
</event>
<event>
 5    0  0.5612316E-005  0.3595746E+03  0.7546771E-02  0.1058752E+00
         21   -1    0    0  502  501  0.00000000000E+00  0.00000000000E+00  0.21309465916E+03  0.21309465916E+03  0.00000000000E+00 0.  1.
         21   -1    0    0  501  502 -0.00000000000E+00 -0.00000000000E+00 -0.60674401211E+03  0.60674401211E+03  0.00000000000E+00 0.  1.
         25    1    1    2    0    0  0.38691851814E+02  0.33236065216E+02  0.31528849534E+02  0.13863896920E+03  0.12500000000E+03 0.  0.
         25    1    1    2    0    0 -0.67746579708E+02 -0.11780633182E+03  0.42026232589E+02  0.18936508418E+03  0.12500000000E+03 0.  0.
         25    1    1    2    0    0  0.29054727895E+02  0.84570266608E+02 -0.46720443507E+03  0.49183461789E+03  0.12500000000E+03 0.  0.
</event>
<event>
 5    0  0.6104505E-005  0.3025247E+03  0.7546771E-02  0.1083985E+00
         21   -1    0    0  502  501  0.00000000000E+00  0.00000000000E+00  0.25751381839E+03  0.25751381839E+03  0.00000000000E+00 0. -1.
         21   -1    0    0  501  502 -0.00000000000E+00 -0.00000000000E+00 -0.35540306750E+03  0.35540306750E+03  0.00000000000E+00 0. -1.
         25    1    1    2    0    0  0.22703002698E+02 -0.13111594375E+03 -0.53739488616E+02  0.19031486982E+03  0.12500000000E+03 0.  0.
         25    1    1    2    0    0  0.82130154351E+02 -0.55710783796E+02  0.32734809181E+02  0.16292827077E+03  0.12500000000E+03 0.  0.
         25    1    1    2    0    0 -0.10483315705E+03  0.18682672755E+03 -0.76884569668E+02  0.25967374530E+03  0.12500000000E+03 0.  0.
</event>
<event>
 5    0  0.5612316E-005  0.2623550E+03  0.7546771E-02  0.1105736E+00
         21   -1    0    0  502  501  0.00000000000E+00  0.00000000000E+00  0.47401355485E+03  0.47401355485E+03  0.00000000000E+00 0.  1.
         21   -1    0    0  501  502 -0.00000000000E+00 -0.00000000000E+00 -0.14520716451E+03  0.14520716451E+03  0.00000000000E+00 0.  1.
         25    1    1    2    0    0 -0.11893359896E+03 -0.80320481792E+02  0.50999549544E+02  0.19703434932E+03  0.12500000000E+03 0.  0.
         25    1    1    2    0    0  0.30246132146E+02  0.39578643439E+02  0.47783124637E+02  0.14279189237E+03  0.12500000000E+03 0.  0.
         25    1    1    2    0    0  0.88687466817E+02  0.40741838354E+02  0.23002371615E+03  0.27939447768E+03  0.12500000000E+03 0.  0.
</event>
<event>
 5    0  0.5612316E-005  0.3394000E+03  0.7546771E-02  0.1067052E+00
         21   -1    0    0  502  501  0.00000000000E+00  0.00000000000E+00  0.31258502621E+03  0.31258502621E+03  0.00000000000E+00 0. -1.
         21   -1    0    0  501  502 -0.00000000000E+00 -0.00000000000E+00 -0.36851524906E+03  0.36851524906E+03  0.00000000000E+00 0. -1.
         25    1    1    2    0    0 -0.17951322914E+02  0.17503602140E+03  0.62162260587E+02  0.22460856044E+03  0.12500000000E+03 0.  0.
         25    1    1    2    0    0 -0.93876532201E+02  0.54748494981E+00  0.46560883037E+02  0.16311351528E+03  0.12500000000E+03 0.  0.
         25    1    1    2    0    0  0.11182785512E+03 -0.17558350635E+03 -0.16465336647E+03  0.29337819955E+03  0.12500000000E+03 0.  0.
</event>
<event>
 5    0  0.5612316E-005  0.5340088E+03  0.7546771E-02  0.1005265E+00
         21   -1    0    0  502  501  0.00000000000E+00  0.00000000000E+00  0.28083284118E+03  0.28083284118E+03  0.00000000000E+00 0.  1.
         21   -1    0    0  501  502 -0.00000000000E+00 -0.00000000000E+00 -0.10154276795E+04  0.10154276795E+04  0.00000000000E+00 0.  1.
         25    1    1    2    0    0  0.10141531205E+03  0.26368208402E+03 -0.75220265147E+02  0.31795659333E+03  0.12500000000E+03 0.  0.
         25    1    1    2    0    0 -0.33862045403E+03 -0.19528130582E+03 -0.53667848015E+03  0.67560890413E+03  0.12500000000E+03 0.  0.
         25    1    1    2    0    0  0.23720514197E+03 -0.68400778206E+02 -0.12269609302E+03  0.30269502322E+03  0.12500000000E+03 0.  0.
</event>
<event>
 5    0  0.5612316E-005  0.2867269E+03  0.7546771E-02  0.1092071E+00
         21   -1    0    0  502  501  0.00000000000E+00  0.00000000000E+00  0.59294702401E+03  0.59294702401E+03  0.00000000000E+00 0.  1.
         21   -1    0    0  501  502 -0.00000000000E+00 -0.00000000000E+00 -0.13865032023E+03  0.13865032023E+03  0.00000000000E+00 0.  1.
         25    1    1    2    0    0 -0.12078699149E+03  0.49908206359E+02  0.33552402771E+01  0.18087726229E+03  0.12500000000E+03 0.  0.
         25    1    1    2    0    0  0.12729450620E+03 -0.64086223203E+02  0.25409907540E+03  0.31702093847E+03  0.12500000000E+03 0.  0.
         25    1    1    2    0    0 -0.65075147122E+01  0.14178016844E+02  0.19684238810E+03  0.23369914348E+03  0.12500000000E+03 0.  0.
</event>
<event>
 5    0  0.5612316E-005  0.4344761E+03  0.7546771E-02  0.1032455E+00
         21   -1    0    0  502  501  0.00000000000E+00  0.00000000000E+00  0.40147150228E+03  0.40147150228E+03  0.00000000000E+00 0. -1.
         21   -1    0    0  501  502 -0.00000000000E+00 -0.00000000000E+00 -0.47019389842E+03  0.47019389842E+03  0.00000000000E+00 0. -1.
         25    1    1    2    0    0 -0.13210879366E+03  0.20730238981E+03 -0.31793295146E+03  0.42087216088E+03  0.12500000000E+03 0.  0.
         25    1    1    2    0    0  0.13320456594E+03 -0.10443641988E+03  0.11082370015E+03  0.23781781829E+03  0.12500000000E+03 0.  0.
         25    1    1    2    0    0 -0.10957722752E+01 -0.10286596994E+03  0.13838685516E+03  0.21297542152E+03  0.12500000000E+03 0.  0.
</event>
<event>
 5    0  0.5612316E-005  0.2726283E+03  0.7546771E-02  0.1099785E+00
         21   -1    0    0  502  501  0.00000000000E+00  0.00000000000E+00  0.13211660238E+03  0.13211660238E+03  0.00000000000E+00 0.  1.
         21   -1    0    0  501  502 -0.00000000000E+00 -0.00000000000E+00 -0.56258042044E+03  0.56258042044E+03  0.00000000000E+00 0.  1.
         25    1    1    2    0    0  0.14207025684E+03 -0.22738027066E+02 -0.31859341246E+03  0.37125158345E+03  0.12500000000E+03 0.  0.
         25    1    1    2    0    0 -0.35895616808E+02 -0.13344121043E+02 -0.77680611292E+02  0.15207181936E+03  0.12500000000E+03 0.  0.
         25    1    1    2    0    0 -0.10617464003E+03  0.36082148109E+02 -0.34189794311E+02  0.17137362001E+03  0.12500000000E+03 0.  0.
</event>
<event>
 5    0  0.5612316E-005  0.3318191E+03  0.7546771E-02  0.1070335E+00
         21   -1    0    0  502  501  0.00000000000E+00  0.00000000000E+00  0.11993885269E+03  0.11993885269E+03  0.00000000000E+00 0.  1.
         21   -1    0    0  501  502 -0.00000000000E+00 -0.00000000000E+00 -0.91800017103E+03  0.91800017103E+03  0.00000000000E+00 0.  1.
         25    1    1    2    0    0 -0.82129444404E+02 -0.13209510783E+03 -0.39620735531E+03  0.44362104498E+03  0.12500000000E+03 0.  0.
         25    1    1    2    0    0  0.35907768370E+02  0.22497188621E+03 -0.16748166220E+03  0.30915501708E+03  0.12500000000E+03 0.  0.
         25    1    1    2    0    0  0.46221676034E+02 -0.92876778383E+02 -0.23437230083E+03  0.28516296164E+03  0.12500000000E+03 0.  0.
</event>
<event>
 5    0  0.5612316E-005  0.2460786E+03  0.7546771E-02  0.1115808E+00
         21   -1    0    0  502  501  0.00000000000E+00  0.00000000000E+00  0.26681363316E+03  0.26681363316E+03  0.00000000000E+00 0.  1.
         21   -1    0    0  501  502 -0.00000000000E+00 -0.00000000000E+00 -0.22695504285E+03  0.22695504285E+03  0.00000000000E+00 0.  1.
         25    1    1    2    0    0  0.48641240672E+02  0.23495196749E+02 -0.66329881120E+02  0.15146830590E+03  0.12500000000E+03 0.  0.
         25    1    1    2    0    0  0.25978555549E+02 -0.55361357740E+02 -0.27788495007E+02  0.14190477699E+03  0.12500000000E+03 0.  0.
         25    1    1    2    0    0 -0.74619796221E+02  0.31866160991E+02  0.13397696643E+03  0.20039559311E+03  0.12500000000E+03 0.  0.
</event>
<event>
 5    0  0.5612316E-005  0.3328980E+03  0.7546771E-02  0.1069862E+00
         21   -1    0    0  502  501  0.00000000000E+00  0.00000000000E+00  0.24869385539E+04  0.24869385539E+04  0.00000000000E+00 0.  1.
         21   -1    0    0  501  502 -0.00000000000E+00 -0.00000000000E+00 -0.44561247634E+02  0.44561247634E+02  0.00000000000E+00 0.  1.
         25    1    1    2    0    0 -0.17747316035E+03  0.23164357672E+01  0.12378872625E+04  0.12567784066E+04  0.12500000000E+03 0.  0.
         25    1    1    2    0    0  0.34067585401E+02  0.21336039121E+02  0.13551518775E+03  0.18869338369E+03  0.12500000000E+03 0.  0.
         25    1    1    2    0    0  0.14340557495E+03 -0.23652474888E+02  0.10689748560E+04  0.10860280113E+04  0.12500000000E+03 0.  0.
</event>
<event>
 5    0  0.5612316E-005  0.4324659E+03  0.7546771E-02  0.1033084E+00
         21   -1    0    0  502  501  0.00000000000E+00  0.00000000000E+00  0.10299305382E+03  0.10299305382E+03  0.00000000000E+00 0. -1.
         21   -1    0    0  501  502 -0.00000000000E+00 -0.00000000000E+00 -0.18159166134E+04  0.18159166134E+04  0.00000000000E+00 0. -1.
         25    1    1    2    0    0  0.28380315684E+02 -0.24675245800E+03 -0.73442080014E+03  0.78529684167E+03  0.12500000000E+03 0.  0.
         25    1    1    2    0    0 -0.13915380181E+03  0.23028130205E+03 -0.90130751492E+03  0.94888012683E+03  0.12500000000E+03 0.  0.
         25    1    1    2    0    0  0.11077348613E+03  0.16471155946E+02 -0.77195244524E+02  0.18473269874E+03  0.12500000000E+03 0.  0.
</event>
<event>
 5    0  0.7316782E-005  0.3523349E+03  0.7546771E-02  0.1061661E+00
         21   -1    0    0  502  501  0.00000000000E+00  0.00000000000E+00  0.16864388933E+03  0.16864388933E+03  0.00000000000E+00 0.  1.
         21   -1    0    0  501  502 -0.00000000000E+00 -0.00000000000E+00 -0.73610676586E+03  0.73610676586E+03  0.00000000000E+00 0.  1.
         25    1    1    2    0    0  0.61761854040E+02  0.59993331296E+02  0.69454148827E+02  0.16692095496E+03  0.12500000000E+03 0.  0.
         25    1    1    2    0    0 -0.12970550547E+03 -0.94420558295E+02 -0.23888472681E+03  0.31373503579E+03  0.12500000000E+03 0.  0.
         25    1    1    2    0    0  0.67943651430E+02  0.34427226999E+02 -0.39803229855E+03  0.42409466445E+03  0.12500000000E+03 0.  0.
</event>
<event>
 5    0  0.5612316E-005  0.3004523E+03  0.7546771E-02  0.1085015E+00
         21   -1    0    0  502  501  0.00000000000E+00  0.00000000000E+00  0.22624101412E+04  0.22624101412E+04  0.00000000000E+00 0. -1.
         21   -1    0    0  501  502 -0.00000000000E+00 -0.00000000000E+00 -0.39900621816E+02  0.39900621816E+02  0.00000000000E+00 0. -1.
         25    1    1    2    0    0 -0.82012221029E+02 -0.16400790596E+01  0.76574709345E+03  0.78020657866E+03  0.12500000000E+03 0.  0.
         25    1    1    2    0    0  0.19710829012E+03 -0.30719839617E+02  0.11088605848E+04  0.11335749570E+04  0.12500000000E+03 0.  0.
         25    1    1    2    0    0 -0.11509606909E+03  0.32359918677E+02  0.34790184115E+03  0.38852922739E+03  0.12500000000E+03 0.  0.
</event>
<event>
 5    0  0.5612316E-005  0.3079042E+03  0.7546771E-02  0.1081355E+00
         21   -1    0    0  502  501  0.00000000000E+00  0.00000000000E+00  0.59280044400E+03  0.59280044400E+03  0.00000000000E+00 0.  1.
         21   -1    0    0  501  502 -0.00000000000E+00 -0.00000000000E+00 -0.15992733393E+03  0.15992733393E+03  0.00000000000E+00 0.  1.
         25    1    1    2    0    0 -0.53567058857E+02 -0.45634796921E+02 -0.77289841773E+02  0.16294380665E+03  0.12500000000E+03 0.  0.
         25    1    1    2    0    0 -0.17450600403E+02  0.70722788047E+02  0.19833485621E+03  0.24549531847E+03  0.12500000000E+03 0.  0.
         25    1    1    2    0    0  0.71017659260E+02 -0.25087991126E+02  0.31182809563E+03  0.34428865281E+03  0.12500000000E+03 0.  0.
</event>
<event>
 5    0  0.5612316E-005  0.4474710E+03  0.7546771E-02  0.1028479E+00
         21   -1    0    0  502  501  0.00000000000E+00  0.00000000000E+00  0.60534950022E+03  0.60534950022E+03  0.00000000000E+00 0.  1.
         21   -1    0    0  501  502 -0.00000000000E+00 -0.00000000000E+00 -0.33076813437E+03  0.33076813437E+03  0.00000000000E+00 0.  1.
         25    1    1    2    0    0  0.99498757877E+02 -0.17643207420E+03  0.20476236421E+03  0.31397596313E+03  0.12500000000E+03 0.  0.
         25    1    1    2    0    0 -0.40560057740E+02  0.59826913821E+02 -0.23026362753E+03  0.27179167769E+03  0.12500000000E+03 0.  0.
         25    1    1    2    0    0 -0.58938700137E+02  0.11660516038E+03  0.30008262917E+03  0.35034999376E+03  0.12500000000E+03 0.  0.
</event>
<event>
 5    0  0.5612316E-005  0.2742179E+03  0.7546771E-02  0.1098890E+00
         21   -1    0    0  502  501  0.00000000000E+00  0.00000000000E+00  0.32892495205E+03  0.32892495205E+03  0.00000000000E+00 0. -1.
         21   -1    0    0  501  502 -0.00000000000E+00 -0.00000000000E+00 -0.22860976687E+03  0.22860976687E+03  0.00000000000E+00 0. -1.
         25    1    1    2    0    0  0.15411463423E+01  0.11747178397E+03  0.24731553338E+02  0.17331660304E+03  0.12500000000E+03 0.  0.
         25    1    1    2    0    0  0.82124956236E+01  0.75449853359E+02  0.37900882220E+02  0.15106820423E+03  0.12500000000E+03 0.  0.
         25    1    1    2    0    0 -0.97536419660E+01 -0.19292163733E+03  0.37682749616E+02  0.23314991164E+03  0.12500000000E+03 0.  0.
</event>
<event>
 5    0  0.5612316E-005  0.2081427E+03  0.7546771E-02  0.1143045E+00
         21   -1    0    0  502  501  0.00000000000E+00  0.00000000000E+00  0.36432763298E+03  0.36432763298E+03  0.00000000000E+00 0.  1.
         21   -1    0    0  501  502 -0.00000000000E+00 -0.00000000000E+00 -0.11891322693E+03  0.11891322693E+03  0.00000000000E+00 0.  1.
         25    1    1    2    0    0 -0.33475502623E+01  0.65297688644E+01  0.18117568659E+03  0.22023504123E+03  0.12500000000E+03 0.  0.
         25    1    1    2    0    0 -0.20374607701E+02 -0.14708314276E+02  0.34607576177E+02  0.13211413050E+03  0.12500000000E+03 0.  0.
         25    1    1    2    0    0  0.23722157964E+02  0.81785454115E+01  0.29631143288E+02  0.13089168819E+03  0.12500000000E+03 0.  0.
</event>
<event>
 5    0  0.5612316E-005  0.3116797E+03  0.7546771E-02  0.1079544E+00
         21   -1    0    0  502  501  0.00000000000E+00  0.00000000000E+00  0.21791368884E+03  0.21791368884E+03  0.00000000000E+00 0.  1.
         21   -1    0    0  501  502 -0.00000000000E+00 -0.00000000000E+00 -0.44579234745E+03  0.44579234745E+03  0.00000000000E+00 0.  1.
         25    1    1    2    0    0  0.49076316805E+02  0.10122439671E+03 -0.30044103079E+03  0.34430317504E+03  0.12500000000E+03 0.  0.
         25    1    1    2    0    0 -0.97435852441E+02 -0.39004352215E+02  0.34779429872E+02  0.16688227460E+03  0.12500000000E+03 0.  0.
         25    1    1    2    0    0  0.48359535636E+02 -0.62220044498E+02  0.37782942311E+02  0.15252058666E+03  0.12500000000E+03 0.  0.
</event>
<event>
 5    0  0.5612316E-005  0.2830294E+03  0.7546771E-02  0.1094046E+00
         21   -1    0    0  502  501  0.00000000000E+00  0.00000000000E+00  0.16081514554E+03  0.16081514554E+03  0.00000000000E+00 0.  1.
         21   -1    0    0  501  502 -0.00000000000E+00 -0.00000000000E+00 -0.49812262472E+03  0.49812262472E+03  0.00000000000E+00 0.  1.
         25    1    1    2    0    0 -0.11305359157E+02 -0.41432170842E+02 -0.27027597287E+03  0.30086298782E+03  0.12500000000E+03 0.  0.
         25    1    1    2    0    0  0.11557722443E+03  0.24184828873E+02  0.19263355426E+02  0.17302912361E+03  0.12500000000E+03 0.  0.
         25    1    1    2    0    0 -0.10427186527E+03  0.17247341969E+02 -0.86294861733E+02  0.18504565884E+03  0.12500000000E+03 0.  0.
</event>
<event>
 5    0  0.5612316E-005  0.3044352E+03  0.7546771E-02  0.1083044E+00
         21   -1    0    0  502  501  0.00000000000E+00  0.00000000000E+00  0.14662375320E+04  0.14662375320E+04  0.00000000000E+00 0.  1.
         21   -1    0    0  501  502 -0.00000000000E+00 -0.00000000000E+00 -0.63209930647E+02  0.63209930647E+02  0.00000000000E+00 0.  1.
         25    1    1    2    0    0  0.21895459319E+02 -0.10550927843E+03  0.82110754207E+03  0.83752863510E+03  0.12500000000E+03 0.  0.
         25    1    1    2    0    0  0.10161597830E+03  0.11564163171E+03  0.30639423052E+03  0.36496742118E+03  0.12500000000E+03 0.  0.
         25    1    1    2    0    0 -0.12351143762E+03 -0.10132353279E+02  0.27552582878E+03  0.32695140638E+03  0.12500000000E+03 0.  0.
</event>
<event>
 5    0  0.5612316E-005  0.3024937E+03  0.7546771E-02  0.1084001E+00
         21   -1    0    0  502  501  0.00000000000E+00  0.00000000000E+00  0.11853527811E+03  0.11853527811E+03  0.00000000000E+00 0.  1.
         21   -1    0    0  501  502 -0.00000000000E+00 -0.00000000000E+00 -0.77194249373E+03  0.77194249373E+03  0.00000000000E+00 0.  1.
         25    1    1    2    0    0 -0.75451196331E+02  0.16917944053E+02 -0.11726340822E+03  0.18802873920E+03  0.12500000000E+03 0.  0.
         25    1    1    2    0    0  0.25711098447E+01  0.10406497495E+03 -0.34180604979E+02  0.16622106778E+03  0.12500000000E+03 0.  0.
         25    1    1    2    0    0  0.72880086487E+02 -0.12098291901E+03 -0.50196320243E+03  0.53622796485E+03  0.12500000000E+03 0.  0.
</event>
<event>
 5    0  0.5612316E-005  0.2654605E+03  0.7546771E-02  0.1103906E+00
         21   -1    0    0  502  501  0.00000000000E+00  0.00000000000E+00  0.42888067814E+03  0.42888067814E+03  0.00000000000E+00 0. -1.
         21   -1    0    0  501  502 -0.00000000000E+00 -0.00000000000E+00 -0.16430971708E+03  0.16430971708E+03  0.00000000000E+00 0. -1.
         25    1    1    2    0    0 -0.14198173141E+03  0.63738662108E+01  0.92425531496E+02  0.21063455817E+03  0.12500000000E+03 0.  0.
         25    1    1    2    0    0 -0.36259090701E+01  0.26330982877E+02  0.82164666752E+01  0.12805849523E+03  0.12500000000E+03 0.  0.
         25    1    1    2    0    0  0.14560764048E+03 -0.32704849087E+02  0.16392896289E+03  0.25449734182E+03  0.12500000000E+03 0.  0.
</event>
<event>
 5    0  0.5612316E-005  0.4272018E+03  0.7546771E-02  0.1034748E+00
         21   -1    0    0  502  501  0.00000000000E+00  0.00000000000E+00  0.32099782664E+03  0.32099782664E+03  0.00000000000E+00 0.  1.
         21   -1    0    0  501  502 -0.00000000000E+00 -0.00000000000E+00 -0.56854398693E+03  0.56854398693E+03  0.00000000000E+00 0.  1.
         25    1    1    2    0    0  0.92633494065E+02 -0.27849178076E+03 -0.19898448566E+03  0.37597667708E+03  0.12500000000E+03 0.  0.
         25    1    1    2    0    0 -0.15440876680E+03 -0.12616635746E+01 -0.16561905688E+02  0.19935635375E+03  0.12500000000E+03 0.  0.
         25    1    1    2    0    0  0.61775272736E+02  0.27975344434E+03 -0.31999768934E+02  0.31420878274E+03  0.12500000000E+03 0.  0.
</event>
<event>
 5    0  0.5612316E-005  0.4323608E+03  0.7546771E-02  0.1033117E+00
         21   -1    0    0  502  501  0.00000000000E+00  0.00000000000E+00  0.11703680074E+04  0.11703680074E+04  0.00000000000E+00 0. -1.
         21   -1    0    0  501  502 -0.00000000000E+00 -0.00000000000E+00 -0.15972401834E+03  0.15972401834E+03  0.00000000000E+00 0. -1.
         25    1    1    2    0    0 -0.18699335776E+03 -0.15277171569E+03  0.77102165316E+03  0.81756045808E+03  0.12500000000E+03 0.  0.
         25    1    1    2    0    0  0.23712675530E+03  0.62498459293E+02  0.83954176304E+02  0.28776458992E+03  0.12500000000E+03 0.  0.
         25    1    1    2    0    0 -0.50133397543E+02  0.90273256394E+02  0.15566815954E+03  0.22476697770E+03  0.12500000000E+03 0.  0.
</event>
<event>
 5    0  0.5612316E-005  0.3410432E+03  0.7546771E-02  0.1066352E+00
         21   -1    0    0  502  501  0.00000000000E+00  0.00000000000E+00  0.12725898795E+04  0.12725898795E+04  0.00000000000E+00 0.  1.
         21   -1    0    0  501  502 -0.00000000000E+00 -0.00000000000E+00 -0.91396672719E+02  0.91396672719E+02  0.00000000000E+00 0.  1.
         25    1    1    2    0    0 -0.17116849808E+03  0.21636286759E+02  0.59919070038E+03  0.63594125441E+03  0.12500000000E+03 0.  0.
         25    1    1    2    0    0 -0.62278274868E+02 -0.11713513272E+02  0.82556491779E+02  0.16265412460E+03  0.12500000000E+03 0.  0.
         25    1    1    2    0    0  0.23344677294E+03 -0.99227734868E+01  0.49944601467E+03  0.56539117326E+03  0.12500000000E+03 0.  0.
</event>
<event>
 5    0  0.5612316E-005  0.3476220E+03  0.7546771E-02  0.1063595E+00
         21   -1    0    0  502  501  0.00000000000E+00  0.00000000000E+00  0.11506183514E+03  0.11506183514E+03  0.00000000000E+00 0. -1.
         21   -1    0    0  501  502 -0.00000000000E+00 -0.00000000000E+00 -0.10502273385E+04  0.10502273385E+04  0.00000000000E+00 0. -1.
         25    1    1    2    0    0  0.17712900439E+03 -0.62212578539E+02 -0.49537571364E+03  0.54430431451E+03  0.12500000000E+03 0.  0.
         25    1    1    2    0    0  0.28986565243E+02 -0.77551026255E+02 -0.21931381693E+03  0.26566507662E+03  0.12500000000E+03 0.  0.
         25    1    1    2    0    0 -0.20611556963E+03  0.13976360479E+03 -0.22047597279E+03  0.35531978252E+03  0.12500000000E+03 0.  0.
</event>
<event>
 5    0  0.5612316E-005  0.6089318E+03  0.7546771E-02  0.9887047E-01
         21   -1    0    0  502  501  0.00000000000E+00  0.00000000000E+00  0.14803958376E+04  0.14803958376E+04  0.00000000000E+00 0.  1.
         21   -1    0    0  501  502 -0.00000000000E+00 -0.00000000000E+00 -0.25047219185E+03  0.25047219185E+03  0.00000000000E+00 0.  1.
         25    1    1    2    0    0  0.12767563099E+03 -0.72533387242E+02  0.83482816933E+03  0.85681108263E+03  0.12500000000E+03 0.  0.
         25    1    1    2    0    0 -0.17191562356E+02  0.13256415928E+03 -0.18933287210E+03  0.26332630442E+03  0.12500000000E+03 0.  0.
         25    1    1    2    0    0 -0.11048406863E+03 -0.60030772042E+02  0.58442834855E+03  0.61073064243E+03  0.12500000000E+03 0.  0.
</event>
<event>
 5    0  0.5612316E-005  0.2273344E+03  0.7546771E-02  0.1128530E+00
         21   -1    0    0  502  501  0.00000000000E+00  0.00000000000E+00  0.11408940660E+03  0.11408940660E+03  0.00000000000E+00 0. -1.
         21   -1    0    0  501  502 -0.00000000000E+00 -0.00000000000E+00 -0.45298608175E+03  0.45298608175E+03  0.00000000000E+00 0. -1.
         25    1    1    2    0    0 -0.36651693915E+02  0.65211836049E+02 -0.10797204659E+03  0.18132537901E+03  0.12500000000E+03 0.  0.
         25    1    1    2    0    0 -0.36848506956E+02  0.29495972044E+02 -0.12347411127E+03  0.18193042897E+03  0.12500000000E+03 0.  0.
         25    1    1    2    0    0  0.73500200872E+02 -0.94707808093E+02 -0.10745051728E+03  0.20381968037E+03  0.12500000000E+03 0.  0.
</event>
<event>
 5    0  0.5612316E-005  0.3972658E+03  0.7546771E-02  0.1044731E+00
         21   -1    0    0  502  501  0.00000000000E+00  0.00000000000E+00  0.84933558303E+02  0.84933558303E+02  0.00000000000E+00 0. -1.
         21   -1    0    0  501  502 -0.00000000000E+00 -0.00000000000E+00 -0.18581601378E+04  0.18581601378E+04  0.00000000000E+00 0. -1.
         25    1    1    2    0    0 -0.78036126276E+02  0.23436863322E+03 -0.11217958166E+04  0.11554519234E+04  0.12500000000E+03 0.  0.
         25    1    1    2    0    0  0.63987293123E+02 -0.80539700038E+02 -0.53135985061E+03  0.55547214854E+03  0.12500000000E+03 0.  0.
         25    1    1    2    0    0  0.14048833153E+02 -0.15382893318E+03 -0.12007091233E+03  0.23216962416E+03  0.12500000000E+03 0.  0.
</event>
<event>
 5    0  0.5612316E-005  0.3915386E+03  0.7546771E-02  0.1046750E+00
         21   -1    0    0  502  501  0.00000000000E+00  0.00000000000E+00  0.33302436771E+03  0.33302436771E+03  0.00000000000E+00 0.  1.
         21   -1    0    0  501  502 -0.00000000000E+00 -0.00000000000E+00 -0.46033411038E+03  0.46033411038E+03  0.00000000000E+00 0.  1.
         25    1    1    2    0    0  0.77002287747E+02  0.88608727051E+01  0.56789304635E+02  0.15766385922E+03  0.12500000000E+03 0.  0.
         25    1    1    2    0    0  0.15644741443E+03  0.13131478579E+03  0.62673744605E+02  0.24753255283E+03  0.12500000000E+03 0.  0.
         25    1    1    2    0    0 -0.23344970218E+03 -0.14017565850E+03 -0.24677279191E+03  0.38816206603E+03  0.12500000000E+03 0.  0.
</event>
<event>
 5    0  0.5612316E-005  0.3165481E+03  0.7546771E-02  0.1077249E+00
         21   -1    0    0  502  501  0.00000000000E+00  0.00000000000E+00  0.31234511430E+03  0.31234511430E+03  0.00000000000E+00 0.  1.
         21   -1    0    0  501  502 -0.00000000000E+00 -0.00000000000E+00 -0.32080770725E+03  0.32080770725E+03  0.00000000000E+00 0.  1.
         25    1    1    2    0    0  0.66304544992E+02 -0.19407478595E+03  0.18009885462E+02  0.24085404543E+03  0.12500000000E+03 0.  0.
         25    1    1    2    0    0  0.24931063698E+02 -0.12617357559E+02 -0.38697606807E+02  0.13380306581E+03  0.12500000000E+03 0.  0.
         25    1    1    2    0    0 -0.91235608690E+02  0.20669214351E+03  0.12225128396E+02  0.25849571030E+03  0.12500000000E+03 0.  0.
</event>
<event>
 5    0  0.5612316E-005  0.4736563E+03  0.7546771E-02  0.1020893E+00
         21   -1    0    0  502  501  0.00000000000E+00  0.00000000000E+00  0.10540590931E+03  0.10540590931E+03  0.00000000000E+00 0.  1.
         21   -1    0    0  501  502 -0.00000000000E+00 -0.00000000000E+00 -0.21284416955E+04  0.21284416955E+04  0.00000000000E+00 0.  1.
         25    1    1    2    0    0  0.28172927959E+03 -0.90148970591E+02 -0.13712561159E+04  0.14083559775E+04  0.12500000000E+03 0.  0.
         25    1    1    2    0    0 -0.15099698740E+03  0.20792309568E+03 -0.31324761464E+03  0.42400609901E+03  0.12500000000E+03 0.  0.
         25    1    1    2    0    0 -0.13073229219E+03 -0.11777412509E+03 -0.33853205566E+03  0.40148552834E+03  0.12500000000E+03 0.  0.
</event>
<event>
 5    0  0.5612316E-005  0.2959795E+03  0.7546771E-02  0.1087268E+00
         21   -1    0    0  502  501  0.00000000000E+00  0.00000000000E+00  0.31524007997E+03  0.31524007997E+03  0.00000000000E+00 0. -1.
         21   -1    0    0  501  502 -0.00000000000E+00 -0.00000000000E+00 -0.27789567868E+03  0.27789567868E+03  0.00000000000E+00 0. -1.
         25    1    1    2    0    0 -0.12825318412E+03  0.17355796998E+03 -0.64461586090E+01  0.24947505114E+03  0.12500000000E+03 0.  0.
         25    1    1    2    0    0  0.68684883494E+02 -0.13636569651E+03  0.30487312902E+02  0.19966895766E+03  0.12500000000E+03 0.  0.
         25    1    1    2    0    0  0.59568300629E+02 -0.37192273471E+02  0.13303247001E+02  0.14399174986E+03  0.12500000000E+03 0.  0.
</event>
<event>
 5    0  0.5612316E-005  0.2247930E+03  0.7546771E-02  0.1130359E+00
         21   -1    0    0  502  501  0.00000000000E+00  0.00000000000E+00  0.60430356132E+03  0.60430356132E+03  0.00000000000E+00 0. -1.
         21   -1    0    0  501  502 -0.00000000000E+00 -0.00000000000E+00 -0.83620039252E+02  0.83620039252E+02  0.00000000000E+00 0. -1.
         25    1    1    2    0    0 -0.58376772266E+02 -0.36381105759E+02  0.31774570095E+03  0.34830843066E+03  0.12500000000E+03 0.  0.
         25    1    1    2    0    0  0.63952768351E+02  0.42848898388E+02  0.10267918603E+03  0.17914798329E+03  0.12500000000E+03 0.  0.
         25    1    1    2    0    0 -0.55759960852E+01 -0.64677926291E+01  0.10025863510E+03  0.16046718663E+03  0.12500000000E+03 0.  0.
</event>
<event>
 5    0  0.5612316E-005  0.2518022E+03  0.7546771E-02  0.1112171E+00
         21   -1    0    0  502  501  0.00000000000E+00  0.00000000000E+00  0.16551886276E+03  0.16551886276E+03  0.00000000000E+00 0. -1.
         21   -1    0    0  501  502 -0.00000000000E+00 -0.00000000000E+00 -0.38306420965E+03  0.38306420965E+03  0.00000000000E+00 0. -1.
         25    1    1    2    0    0  0.28575296358E+02 -0.26762012194E+02  0.36587696166E+02  0.13600151606E+03  0.12500000000E+03 0.  0.
         25    1    1    2    0    0 -0.99940161245E+00  0.36324060656E+02 -0.26136856788E+01  0.13020087380E+03  0.12500000000E+03 0.  0.
         25    1    1    2    0    0 -0.27575894745E+02 -0.95620484627E+01 -0.25151935737E+03  0.28238068255E+03  0.12500000000E+03 0.  0.
</event>
<event>
 5    0  0.5612316E-005  0.2384074E+03  0.7546771E-02  0.1120858E+00
         21   -1    0    0  502  501  0.00000000000E+00  0.00000000000E+00  0.55131755624E+03  0.55131755624E+03  0.00000000000E+00 0. -1.
         21   -1    0    0  501  502 -0.00000000000E+00 -0.00000000000E+00 -0.10309503906E+03  0.10309503906E+03  0.00000000000E+00 0. -1.
         25    1    1    2    0    0 -0.25900122245E+02  0.72493770738E+02  0.16904269204E+03  0.22388969351E+03  0.12500000000E+03 0.  0.
         25    1    1    2    0    0  0.35991980886E+02 -0.13185833719E+03  0.12695938099E+03  0.22455673714E+03  0.12500000000E+03 0.  0.
         25    1    1    2    0    0 -0.10091858641E+02  0.59364566449E+02  0.15222044415E+03  0.20596616464E+03  0.12500000000E+03 0.  0.
</event>
<event>
 5    0  0.6344078E-005  0.3276248E+03  0.7546771E-02  0.1072193E+00
         21   -1    0    0  502  501  0.00000000000E+00  0.00000000000E+00  0.64458897961E+03  0.64458897961E+03  0.00000000000E+00 0.  1.
         21   -1    0    0  501  502 -0.00000000000E+00 -0.00000000000E+00 -0.16652161261E+03  0.16652161261E+03  0.00000000000E+00 0.  1.
         25    1    1    2    0    0  0.49863406689E+02  0.39313559482E+02  0.26803147703E+03  0.30248601284E+03  0.12500000000E+03 0.  0.
         25    1    1    2    0    0  0.25393758357E+02 -0.18372632121E+03  0.12941315871E+02  0.22403723290E+03  0.12500000000E+03 0.  0.
         25    1    1    2    0    0 -0.75257165046E+02  0.14441276172E+03  0.19709457409E+03  0.28458734648E+03  0.12500000000E+03 0.  0.
</event>
<event>
 5    0  0.5612316E-005  0.2904562E+03  0.7546771E-02  0.1090111E+00
         21   -1    0    0  502  501  0.00000000000E+00  0.00000000000E+00  0.11973762673E+03  0.11973762673E+03  0.00000000000E+00 0. -1.
         21   -1    0    0  501  502 -0.00000000000E+00 -0.00000000000E+00 -0.70458046695E+03  0.70458046695E+03  0.00000000000E+00 0. -1.
         25    1    1    2    0    0  0.70002490297E+02 -0.32809853442E+02  0.39104399646E+01  0.14702763914E+03  0.12500000000E+03 0.  0.
         25    1    1    2    0    0  0.40898009565E+02  0.69873338899E+02 -0.17663747068E+03  0.23104269459E+03  0.12500000000E+03 0.  0.
         25    1    1    2    0    0 -0.11090049986E+03 -0.37063485457E+02 -0.41211580949E+03  0.44624775995E+03  0.12500000000E+03 0.  0.
</event>
<event>
 5    0  0.5612316E-005  0.3032070E+03  0.7546771E-02  0.1083648E+00
         21   -1    0    0  502  501  0.00000000000E+00  0.00000000000E+00  0.14149333194E+03  0.14149333194E+03  0.00000000000E+00 0.  1.
         21   -1    0    0  501  502 -0.00000000000E+00 -0.00000000000E+00 -0.64974440717E+03  0.64974440717E+03  0.00000000000E+00 0.  1.
         25    1    1    2    0    0 -0.56602918510E+02 -0.58372784800E+01 -0.19682833051E+03  0.24000907461E+03  0.12500000000E+03 0.  0.
         25    1    1    2    0    0 -0.10197957154E+03 -0.13350574107E+03 -0.14892416681E+03  0.25695724035E+03  0.12500000000E+03 0.  0.
         25    1    1    2    0    0  0.15858249005E+03  0.13934301955E+03 -0.16249857792E+03  0.29427142415E+03  0.12500000000E+03 0.  0.
</event>
<event>
 5    0  0.5612316E-005  0.3771911E+03  0.7546771E-02  0.1051977E+00
         21   -1    0    0  502  501  0.00000000000E+00  0.00000000000E+00  0.32329072870E+03  0.32329072870E+03  0.00000000000E+00 0. -1.
         21   -1    0    0  501  502 -0.00000000000E+00 -0.00000000000E+00 -0.44007808007E+03  0.44007808007E+03  0.00000000000E+00 0. -1.
         25    1    1    2    0    0 -0.14122674676E+03 -0.61274652454E+02 -0.16589901305E+03  0.25854798310E+03  0.12500000000E+03 0.  0.
         25    1    1    2    0    0 -0.10297025475E+03  0.65210463522E+02  0.13126309358E+03  0.21842682448E+03  0.12500000000E+03 0.  0.
         25    1    1    2    0    0  0.24419700151E+03 -0.39358110675E+01 -0.82151431912E+02  0.28639400119E+03  0.12500000000E+03 0.  0.
</event>
<event>
 5    0  0.5612316E-005  0.4488593E+03  0.7546771E-02  0.1028063E+00
         21   -1    0    0  502  501  0.00000000000E+00  0.00000000000E+00  0.11750053826E+04  0.11750053826E+04  0.00000000000E+00 0.  1.
         21   -1    0    0  501  502 -0.00000000000E+00 -0.00000000000E+00 -0.17146699140E+03  0.17146699140E+03  0.00000000000E+00 0.  1.
         25    1    1    2    0    0 -0.89064002625E+02 -0.37284031636E+03  0.39709351662E+03  0.56590684658E+03  0.12500000000E+03 0.  0.
         25    1    1    2    0    0 -0.82307623468E+01  0.23178208890E+03  0.23607924903E+03  0.35376417852E+03  0.12500000000E+03 0.  0.
         25    1    1    2    0    0  0.97294764972E+02  0.14105822747E+03  0.37036562552E+03  0.42680134887E+03  0.12500000000E+03 0.  0.
</event>
<event>
 5    0  0.5639974E-005  0.2610133E+03  0.7546771E-02  0.1106536E+00
         21   -1    0    0  502  501  0.00000000000E+00  0.00000000000E+00  0.51603377509E+03  0.51603377509E+03  0.00000000000E+00 0.  1.
         21   -1    0    0  501  502 -0.00000000000E+00 -0.00000000000E+00 -0.13202227365E+03  0.13202227365E+03  0.00000000000E+00 0.  1.
         25    1    1    2    0    0 -0.48542270490E+02  0.14827044256E+03  0.13311264829E+03  0.24017587992E+03  0.12500000000E+03 0.  0.
         25    1    1    2    0    0 -0.17536827802E+02 -0.12613330834E+03  0.13663846455E+03  0.22474924204E+03  0.12500000000E+03 0.  0.
         25    1    1    2    0    0  0.66079098292E+02 -0.22137134211E+02  0.11426038858E+03  0.18313092678E+03  0.12500000000E+03 0.  0.
</event>
<event>
 5    0  0.7120643E-005  0.5207176E+03  0.7546771E-02  0.1008508E+00
         21   -1    0    0  502  501  0.00000000000E+00  0.00000000000E+00  0.48643359227E+03  0.48643359227E+03  0.00000000000E+00 0. -1.
         21   -1    0    0  501  502 -0.00000000000E+00 -0.00000000000E+00 -0.55741789438E+03  0.55741789438E+03  0.00000000000E+00 0. -1.
         25    1    1    2    0    0  0.19994509667E+03 -0.27625399320E+03  0.55231027281E+02  0.36738233057E+03  0.12500000000E+03 0.  0.
         25    1    1    2    0    0 -0.20956568242E+03  0.20632198413E+02  0.14388134633E+03  0.28402518318E+03  0.12500000000E+03 0.  0.
         25    1    1    2    0    0  0.96205857485E+01  0.25562179478E+03 -0.27009667571E+03  0.39244397290E+03  0.12500000000E+03 0.  0.
</event>
<event>
 5    0  0.5612316E-005  0.2980591E+03  0.7546771E-02  0.1086215E+00
         21   -1    0    0  502  501  0.00000000000E+00  0.00000000000E+00  0.37600250815E+02  0.37600250815E+02  0.00000000000E+00 0. -1.
         21   -1    0    0  501  502 -0.00000000000E+00 -0.00000000000E+00 -0.23627294838E+04  0.23627294838E+04  0.00000000000E+00 0. -1.
         25    1    1    2    0    0 -0.11198771471E+03 -0.10057405972E+03 -0.70139078262E+03  0.72816922461E+03  0.12500000000E+03 0.  0.
         25    1    1    2    0    0  0.16938212133E+03  0.61751765514E+02 -0.60704071747E+03  0.64546651055E+03  0.12500000000E+03 0.  0.
         25    1    1    2    0    0 -0.57394406626E+02  0.38822294202E+02 -0.10166977329E+04  0.10266939995E+04  0.12500000000E+03 0.  0.
</event>
<event>
 5    0  0.5612316E-005  0.3061370E+03  0.7546771E-02  0.1082212E+00
         21   -1    0    0  502  501  0.00000000000E+00  0.00000000000E+00  0.37770568887E+02  0.37770568887E+02  0.00000000000E+00 0. -1.
         21   -1    0    0  501  502 -0.00000000000E+00 -0.00000000000E+00 -0.24812935005E+04  0.24812935005E+04  0.00000000000E+00 0. -1.
         25    1    1    2    0    0  0.30244209442E+02 -0.60203413582E+02 -0.16284585581E+04  0.16346380145E+04  0.12500000000E+03 0.  0.
         25    1    1    2    0    0 -0.26121142154E+02 -0.83649099607E+02 -0.37062494124E+03  0.40083329827E+03  0.12500000000E+03 0.  0.
         25    1    1    2    0    0 -0.41230672886E+01  0.14385251319E+03 -0.44443943233E+03  0.48359275661E+03  0.12500000000E+03 0.  0.
</event>
<event>
 5    0  0.5612316E-005  0.5897657E+03  0.7546771E-02  0.9926869E-01
         21   -1    0    0  502  501  0.00000000000E+00  0.00000000000E+00  0.10712092292E+04  0.10712092292E+04  0.00000000000E+00 0.  1.
         21   -1    0    0  501  502 -0.00000000000E+00 -0.00000000000E+00 -0.32470178436E+03  0.32470178436E+03  0.00000000000E+00 0.  1.
         25    1    1    2    0    0 -0.79469477848E+02  0.37779974869E+02  0.21757751068E+03  0.26590919045E+03  0.12500000000E+03 0.  0.
         25    1    1    2    0    0  0.11818438697E+02 -0.45011103159E+03  0.51249323387E+03  0.69355167869E+03  0.12500000000E+03 0.  0.
         25    1    1    2    0    0  0.67651039150E+02  0.41233105672E+03  0.16436700276E+02  0.43645014441E+03  0.12500000000E+03 0.  0.
</event>
<event>
 5    0  0.5612316E-005  0.4059819E+03  0.7546771E-02  0.1041728E+00
         21   -1    0    0  502  501  0.00000000000E+00  0.00000000000E+00  0.88028698381E+02  0.88028698381E+02  0.00000000000E+00 0.  1.
         21   -1    0    0  501  502 -0.00000000000E+00 -0.00000000000E+00 -0.18723589048E+04  0.18723589048E+04  0.00000000000E+00 0.  1.
         25    1    1    2    0    0  0.40766560738E+02 -0.12556540287E+03 -0.10363819320E+04  0.10522077228E+04  0.12500000000E+03 0.  0.
         25    1    1    2    0    0 -0.15203413347E+03  0.23911608229E+03 -0.40211156263E+03  0.50755254640E+03  0.12500000000E+03 0.  0.
         25    1    1    2    0    0  0.11126757274E+03 -0.11355067943E+03 -0.34583671177E+03  0.40062733400E+03  0.12500000000E+03 0.  0.
</event>
<event>
 5    0  0.5612316E-005  0.3055169E+03  0.7546771E-02  0.1082515E+00
         21   -1    0    0  502  501  0.00000000000E+00  0.00000000000E+00  0.87944074330E+03  0.87944074330E+03  0.00000000000E+00 0. -1.
         21   -1    0    0  501  502 -0.00000000000E+00 -0.00000000000E+00 -0.10613629083E+03  0.10613629083E+03  0.00000000000E+00 0. -1.
         25    1    1    2    0    0  0.68204230080E+02  0.23338872600E+02  0.13351498919E+03  0.19659036679E+03  0.12500000000E+03 0.  0.
         25    1    1    2    0    0 -0.26047638353E+02  0.17896550666E+03  0.32006913133E+03  0.38829934440E+03  0.12500000000E+03 0.  0.
         25    1    1    2    0    0 -0.42156591727E+02 -0.20230437926E+03  0.31972033195E+03  0.40068732293E+03  0.12500000000E+03 0.  0.
</event>
<event>
 5    0  0.6491828E-005  0.3235432E+03  0.7546771E-02  0.1074030E+00
         21   -1    0    0  502  501  0.00000000000E+00  0.00000000000E+00  0.43788871159E+03  0.43788871159E+03  0.00000000000E+00 0. -1.
         21   -1    0    0  501  502 -0.00000000000E+00 -0.00000000000E+00 -0.23905669513E+03  0.23905669513E+03  0.00000000000E+00 0. -1.
         25    1    1    2    0    0  0.16159955492E+03  0.17928906648E+02  0.37338658875E+02  0.20845871843E+03  0.12500000000E+03 0.  0.
         25    1    1    2    0    0 -0.21196695760E+03 -0.17730571063E+02 -0.14122248872E+02  0.24712102739E+03  0.12500000000E+03 0.  0.
         25    1    1    2    0    0  0.50367402686E+02 -0.19833558490E+00  0.17561560646E+03  0.22136566089E+03  0.12500000000E+03 0.  0.
</event>
<event>
 5    0  0.5612316E-005  0.3472262E+03  0.7546771E-02  0.1063759E+00
         21   -1    0    0  502  501  0.00000000000E+00  0.00000000000E+00  0.20703801446E+03  0.20703801446E+03  0.00000000000E+00 0.  1.
         21   -1    0    0  501  502 -0.00000000000E+00 -0.00000000000E+00 -0.58233765993E+03  0.58233765993E+03  0.00000000000E+00 0.  1.
         25    1    1    2    0    0 -0.19825320842E+03  0.14789379883E+03 -0.61448592881E+02  0.28386236092E+03  0.12500000000E+03 0.  0.
         25    1    1    2    0    0  0.15034362791E+03 -0.39772004818E+02 -0.25471517614E+03  0.32355809336E+03  0.12500000000E+03 0.  0.
         25    1    1    2    0    0  0.47909580502E+02 -0.10812179401E+03 -0.59135876450E+02  0.18195522012E+03  0.12500000000E+03 0.  0.
</event>
<event>
 5    0  0.5612316E-005  0.2983574E+03  0.7546771E-02  0.1086065E+00
         21   -1    0    0  502  501  0.00000000000E+00  0.00000000000E+00  0.10363989705E+04  0.10363989705E+04  0.00000000000E+00 0. -1.
         21   -1    0    0  501  502 -0.00000000000E+00 -0.00000000000E+00 -0.85890777109E+02  0.85890777109E+02  0.00000000000E+00 0. -1.
         25    1    1    2    0    0  0.94485898052E+02 -0.48794008293E+02  0.11292805712E+03  0.19921392085E+03  0.12500000000E+03 0.  0.
         25    1    1    2    0    0  0.76410131665E+02  0.90194445984E+02  0.35706472770E+03  0.39635055958E+03  0.12500000000E+03 0.  0.
         25    1    1    2    0    0 -0.17089602972E+03 -0.41400437691E+02  0.48051540852E+03  0.52672526714E+03  0.12500000000E+03 0.  0.
</event>
<event>
 5    0  0.5612316E-005  0.2636717E+03  0.7546771E-02  0.1104957E+00
         21   -1    0    0  502  501  0.00000000000E+00  0.00000000000E+00  0.33337883497E+03  0.33337883497E+03  0.00000000000E+00 0. -1.
         21   -1    0    0  501  502 -0.00000000000E+00 -0.00000000000E+00 -0.20853989442E+03  0.20853989442E+03  0.00000000000E+00 0. -1.
         25    1    1    2    0    0  0.49397048431E+02  0.38952871090E+02 -0.29209183384E+02  0.14295303758E+03  0.12500000000E+03 0.  0.
         25    1    1    2    0    0  0.30971121879E+02 -0.13830570010E+03  0.87046422499E+02  0.20806190603E+03  0.12500000000E+03 0.  0.
         25    1    1    2    0    0 -0.80368170310E+02  0.99352829007E+02  0.67001701442E+02  0.19090378578E+03  0.12500000000E+03 0.  0.
</event>
<event>
 5    0  0.6014321E-005  0.2726143E+03  0.7546771E-02  0.1099793E+00
         21   -1    0    0  502  501  0.00000000000E+00  0.00000000000E+00  0.35030586839E+03  0.35030586839E+03  0.00000000000E+00 0.  1.
         21   -1    0    0  501  502 -0.00000000000E+00 -0.00000000000E+00 -0.21215339272E+03  0.21215339272E+03  0.00000000000E+00 0.  1.
         25    1    1    2    0    0  0.22874287679E+02 -0.52369836587E+02 -0.35804108947E+02  0.14203086650E+03  0.12500000000E+03 0.  0.
         25    1    1    2    0    0  0.33617234581E+02  0.95350269680E+02  0.21728188080E+03  0.27029281920E+03  0.12500000000E+03 0.  0.
         25    1    1    2    0    0 -0.56491522260E+02 -0.42980433092E+02 -0.43325296171E+02  0.15013557541E+03  0.12500000000E+03 0.  0.
</event>
<event>
 5    0  0.5612316E-005  0.4524289E+03  0.7546771E-02  0.1027000E+00
         21   -1    0    0  502  501  0.00000000000E+00  0.00000000000E+00  0.29679804682E+03  0.29679804682E+03  0.00000000000E+00 0.  1.
         21   -1    0    0  501  502 -0.00000000000E+00 -0.00000000000E+00 -0.68966741615E+03  0.68966741615E+03  0.00000000000E+00 0.  1.
         25    1    1    2    0    0 -0.21065960992E+02 -0.19082209400E+03 -0.16807691893E+03  0.28413323802E+03  0.12500000000E+03 0.  0.
         25    1    1    2    0    0  0.94287129572E+02  0.31803205583E+03  0.58885695991E+02  0.35934242239E+03  0.12500000000E+03 0.  0.
         25    1    1    2    0    0 -0.73221168580E+02 -0.12720996183E+03 -0.28367814639E+03  0.34298980256E+03  0.12500000000E+03 0.  0.
</event>
<event>
 5    0  0.5612316E-005  0.2307741E+03  0.7546771E-02  0.1126096E+00
         21   -1    0    0  502  501  0.00000000000E+00  0.00000000000E+00  0.11442291003E+03  0.11442291003E+03  0.00000000000E+00 0. -1.
         21   -1    0    0  501  502 -0.00000000000E+00 -0.00000000000E+00 -0.46543729732E+03  0.46543729732E+03  0.00000000000E+00 0. -1.
         25    1    1    2    0    0  0.62803989546E+02 -0.10411133088E+03 -0.16505017779E+03  0.24010429298E+03  0.12500000000E+03 0.  0.
         25    1    1    2    0    0 -0.23001679151E+02  0.52966908315E+02 -0.57710517173E+02  0.14929860821E+03  0.12500000000E+03 0.  0.
         25    1    1    2    0    0 -0.39802310396E+02  0.51144422560E+02 -0.12825369233E+03  0.19045730616E+03  0.12500000000E+03 0.  0.
</event>
<event>
 5    0  0.5612316E-005  0.3057770E+03  0.7546771E-02  0.1082388E+00
         21   -1    0    0  502  501  0.00000000000E+00  0.00000000000E+00  0.26519282803E+03  0.26519282803E+03  0.00000000000E+00 0.  1.
         21   -1    0    0  501  502 -0.00000000000E+00 -0.00000000000E+00 -0.35257197884E+03  0.35257197884E+03  0.00000000000E+00 0.  1.
         25    1    1    2    0    0 -0.82512383121E+02 -0.65611923364E+02 -0.32261335578E+02  0.16667036818E+03  0.12500000000E+03 0.  0.
         25    1    1    2    0    0 -0.51733396973E+02  0.50846557131E+02  0.12684936463E+03  0.19229528866E+03  0.12500000000E+03 0.  0.
         25    1    1    2    0    0  0.13424578009E+03  0.14765366233E+02 -0.18196717986E+03  0.25879915004E+03  0.12500000000E+03 0.  0.
</event>
<event>
 5    0  0.5612316E-005  0.4381939E+03  0.7546771E-02  0.1031302E+00
         21   -1    0    0  502  501  0.00000000000E+00  0.00000000000E+00  0.38609390414E+03  0.38609390414E+03  0.00000000000E+00 0.  1.
         21   -1    0    0  501  502 -0.00000000000E+00 -0.00000000000E+00 -0.49732441488E+03  0.49732441488E+03  0.00000000000E+00 0.  1.
         25    1    1    2    0    0 -0.13981166471E+03 -0.15987779274E+03 -0.30569414147E+02  0.24832981956E+03  0.12500000000E+03 0.  0.
         25    1    1    2    0    0  0.34373214909E+03  0.11774929473E+03 -0.78685040341E+02  0.39221553042E+03  0.12500000000E+03 0.  0.
         25    1    1    2    0    0 -0.20392048438E+03  0.42128498008E+02 -0.19760562452E+01  0.24287296904E+03  0.12500000000E+03 0.  0.
</event>
<event>
 5    0  0.5612316E-005  0.2994730E+03  0.7546771E-02  0.1085504E+00
         21   -1    0    0  502  501  0.00000000000E+00  0.00000000000E+00  0.65990598644E+02  0.65990598644E+02  0.00000000000E+00 0. -1.
         21   -1    0    0  501  502 -0.00000000000E+00 -0.00000000000E+00 -0.13590435439E+04  0.13590435439E+04  0.00000000000E+00 0. -1.
         25    1    1    2    0    0 -0.38579498250E+02 -0.64473243079E+02 -0.28945569751E+03  0.32412154754E+03  0.12500000000E+03 0.  0.
         25    1    1    2    0    0 -0.13087453212E+03 -0.78940226960E+02 -0.41726557315E+03  0.46162242269E+03  0.12500000000E+03 0.  0.
         25    1    1    2    0    0  0.16945403037E+03  0.14341347004E+03 -0.58633167463E+03  0.63929017236E+03  0.12500000000E+03 0.  0.
</event>
<event>
 5    0  0.5612316E-005  0.2439279E+03  0.7546771E-02  0.1117203E+00
         21   -1    0    0  502  501  0.00000000000E+00  0.00000000000E+00  0.11538795983E+04  0.11538795983E+04  0.00000000000E+00 0.  1.
         21   -1    0    0  501  502 -0.00000000000E+00 -0.00000000000E+00 -0.51565894864E+02  0.51565894864E+02  0.00000000000E+00 0.  1.
         25    1    1    2    0    0  0.10088618278E+03  0.29575413689E+02  0.55770422597E+03  0.58112970207E+03  0.12500000000E+03 0.  0.
         25    1    1    2    0    0 -0.11748590695E+03  0.12996282021E+02  0.29866390808E+03  0.34466936572E+03  0.12500000000E+03 0.  0.
         25    1    1    2    0    0  0.16599724169E+02 -0.42571695710E+02  0.24594556940E+03  0.27964642537E+03  0.12500000000E+03 0.  0.
</event>
<event>
 5    0  0.5612316E-005  0.3693463E+03  0.7546771E-02  0.1054943E+00
         21   -1    0    0  502  501  0.00000000000E+00  0.00000000000E+00  0.77226613935E+03  0.77226613935E+03  0.00000000000E+00 0. -1.
         21   -1    0    0  501  502 -0.00000000000E+00 -0.00000000000E+00 -0.17664461272E+03  0.17664461272E+03  0.00000000000E+00 0. -1.
         25    1    1    2    0    0 -0.51643201580E+02  0.54289636057E+02  0.51081938781E+02  0.15443040284E+03  0.12500000000E+03 0.  0.
         25    1    1    2    0    0  0.59495488831E+02  0.37987847091E+02  0.60929075680E+03  0.62597365443E+03  0.12500000000E+03 0.  0.
         25    1    1    2    0    0 -0.78522872506E+01 -0.92277483148E+02 -0.64751168947E+02  0.16850669480E+03  0.12500000000E+03 0.  0.
</event>
<event>
 5    0  0.5612316E-005  0.3778980E+03  0.7546771E-02  0.1051713E+00
         21   -1    0    0  502  501  0.00000000000E+00  0.00000000000E+00  0.84629357151E+03  0.84629357151E+03  0.00000000000E+00 0. -1.
         21   -1    0    0  501  502 -0.00000000000E+00 -0.00000000000E+00 -0.16874396878E+03  0.16874396878E+03  0.00000000000E+00 0. -1.
         25    1    1    2    0    0 -0.12743323008E+03 -0.39118126124E+02  0.69333124637E+02  0.19545213760E+03  0.12500000000E+03 0.  0.
         25    1    1    2    0    0 -0.50107357535E+02  0.22585057129E+03  0.28748162250E+03  0.38960224730E+03  0.12500000000E+03 0.  0.
         25    1    1    2    0    0  0.17754058762E+03 -0.18673244516E+03  0.32073485559E+03  0.42998315539E+03  0.12500000000E+03 0.  0.
</event>
<event>
 5    0  0.5612316E-005  0.2710977E+03  0.7546771E-02  0.1100653E+00
         21   -1    0    0  502  501  0.00000000000E+00  0.00000000000E+00  0.41538481454E+03  0.41538481454E+03  0.00000000000E+00 0.  1.
         21   -1    0    0  501  502 -0.00000000000E+00 -0.00000000000E+00 -0.17692984314E+03  0.17692984314E+03  0.00000000000E+00 0.  1.
         25    1    1    2    0    0 -0.51015527910E+02  0.16103770195E+02 -0.50131890011E+02  0.14491418805E+03  0.12500000000E+03 0.  0.
         25    1    1    2    0    0  0.11452068318E+03 -0.55626435301E+02  0.86500109863E+02  0.19828402907E+03  0.12500000000E+03 0.  0.
         25    1    1    2    0    0 -0.63505155265E+02  0.39522665107E+02  0.20208675155E+03  0.24911644055E+03  0.12500000000E+03 0.  0.
</event>
<event>
 5    0  0.5612316E-005  0.3090430E+03  0.7546771E-02  0.1080805E+00
         21   -1    0    0  502  501  0.00000000000E+00  0.00000000000E+00  0.77605097698E+03  0.77605097698E+03  0.00000000000E+00 0.  1.
         21   -1    0    0  501  502 -0.00000000000E+00 -0.00000000000E+00 -0.12306868658E+03  0.12306868658E+03  0.00000000000E+00 0.  1.
         25    1    1    2    0    0  0.30326248343E+02 -0.11187360995E+03  0.88246219664E+02  0.19195775896E+03  0.12500000000E+03 0.  0.
         25    1    1    2    0    0 -0.29435417495E+02 -0.34396551316E+02  0.26489873399E+02  0.13555913816E+03  0.12500000000E+03 0.  0.
         25    1    1    2    0    0 -0.89083084837E+00  0.14627016126E+03  0.53824619734E+03  0.57160276644E+03  0.12500000000E+03 0.  0.
</event>
<event>
 5    0  0.5612316E-005  0.2168481E+03  0.7546771E-02  0.1136255E+00
         21   -1    0    0  502  501  0.00000000000E+00  0.00000000000E+00  0.29017545007E+02  0.29017545007E+02  0.00000000000E+00 0. -1.
         21   -1    0    0  501  502 -0.00000000000E+00 -0.00000000000E+00 -0.16205050728E+04  0.16205050728E+04  0.00000000000E+00 0. -1.
         25    1    1    2    0    0  0.32451908921E+02  0.96892851051E+02 -0.64042714678E+03  0.66046444364E+03  0.12500000000E+03 0.  0.
         25    1    1    2    0    0 -0.93929376844E+01 -0.59722884640E+02 -0.46643189717E+03  0.48666083151E+03  0.12500000000E+03 0.  0.
         25    1    1    2    0    0 -0.23058971237E+02 -0.37169966411E+02 -0.48462848380E+03  0.50239734261E+03  0.12500000000E+03 0.  0.
</event>
<event>
 5    0  0.5612316E-005  0.3544132E+03  0.7546771E-02  0.1060818E+00
         21   -1    0    0  502  501  0.00000000000E+00  0.00000000000E+00  0.45899393713E+03  0.45899393713E+03  0.00000000000E+00 0. -1.
         21   -1    0    0  501  502 -0.00000000000E+00 -0.00000000000E+00 -0.27366089577E+03  0.27366089577E+03  0.00000000000E+00 0. -1.
         25    1    1    2    0    0 -0.17259798352E+03  0.12096892869E+03  0.22225326265E+02  0.24605387774E+03  0.12500000000E+03 0.  0.
         25    1    1    2    0    0  0.24224164637E+03 -0.12325939198E+02  0.59768247853E+02  0.27933883988E+03  0.12500000000E+03 0.  0.
         25    1    1    2    0    0 -0.69643662855E+02 -0.10864298949E+03  0.10333946724E+03  0.20726211528E+03  0.12500000000E+03 0.  0.
</event>
<event>
 5    0  0.5612316E-005  0.2884700E+03  0.7546771E-02  0.1091151E+00
         21   -1    0    0  502  501  0.00000000000E+00  0.00000000000E+00  0.62503993699E+02  0.62503993699E+02  0.00000000000E+00 0. -1.
         21   -1    0    0  501  502 -0.00000000000E+00 -0.00000000000E+00 -0.13313543403E+04  0.13313543403E+04  0.00000000000E+00 0.  1.
         25    1    1    2    0    0  0.34632596319E+02 -0.10474783567E+03 -0.17381428686E+03  0.24084835919E+03  0.12500000000E+03 0.  0.
         25    1    1    2    0    0 -0.37242322133E+01  0.10874924249E+03 -0.26160599898E+03  0.30968204073E+03  0.12500000000E+03 0.  0.
         25    1    1    2    0    0 -0.30908364106E+02 -0.40014068142E+01 -0.83343006080E+03  0.84332793412E+03  0.12500000000E+03 0.  0.
</event>
<event>
 5    0  0.5612316E-005  0.5508242E+03  0.7546771E-02  0.1001303E+00
         21   -1    0    0  502  501  0.00000000000E+00  0.00000000000E+00  0.51676357514E+04  0.51676357514E+04  0.00000000000E+00 0. -1.
         21   -1    0    0  501  502 -0.00000000000E+00 -0.00000000000E+00 -0.58712976849E+02  0.58712976849E+02  0.00000000000E+00 0. -1.
         25    1    1    2    0    0 -0.50765028168E+02 -0.36893441443E+03  0.20564797491E+04  0.20936627352E+04  0.12500000000E+03 0.  0.
         25    1    1    2    0    0  0.26185675119E+03  0.21625054937E+03  0.22685148929E+04  0.22971978752E+04  0.12500000000E+03 0.  0.
         25    1    1    2    0    0 -0.21109172303E+03  0.15268386506E+03  0.78392813248E+03  0.83548811786E+03  0.12500000000E+03 0.  0.
</event>
<event>
 5    0  0.5612316E-005  0.2596762E+03  0.7546771E-02  0.1107338E+00
         21   -1    0    0  502  501  0.00000000000E+00  0.00000000000E+00  0.37382644646E+03  0.37382644646E+03  0.00000000000E+00 0.  1.
         21   -1    0    0  501  502 -0.00000000000E+00 -0.00000000000E+00 -0.18038242143E+03  0.18038242143E+03  0.00000000000E+00 0.  1.
         25    1    1    2    0    0  0.41488077965E+02 -0.61524229379E+02  0.77490877125E+02  0.16473107616E+03  0.12500000000E+03 0.  0.
         25    1    1    2    0    0 -0.11827554159E+03  0.24455565463E+02 -0.33258856628E+02  0.17696985609E+03  0.12500000000E+03 0.  0.
         25    1    1    2    0    0  0.76787463626E+02  0.37068663916E+02  0.14921200453E+03  0.21250793564E+03  0.12500000000E+03 0.  0.
</event>
<event>
 5    0  0.5612316E-005  0.3328230E+03  0.7546771E-02  0.1069895E+00
         21   -1    0    0  502  501  0.00000000000E+00  0.00000000000E+00  0.52716684685E+02  0.52716684685E+02  0.00000000000E+00 0. -1.
         21   -1    0    0  501  502 -0.00000000000E+00 -0.00000000000E+00 -0.21012539729E+04  0.21012539729E+04  0.00000000000E+00 0. -1.
         25    1    1    2    0    0  0.13538328707E+01  0.58662827181E+02 -0.65412076361E+03  0.66853730901E+03  0.12500000000E+03 0.  0.
         25    1    1    2    0    0  0.18954252878E+02 -0.13537038934E+03 -0.16785941381E+03  0.24997237611E+03  0.12500000000E+03 0.  0.
         25    1    1    2    0    0 -0.20308085748E+02  0.76707562164E+02 -0.12265571108E+04  0.12354609725E+04  0.12500000000E+03 0.  0.
</event>
<event>
 5    0  0.5731657E-005  0.2835795E+03  0.7546771E-02  0.1093750E+00
         21   -1    0    0  502  501  0.00000000000E+00  0.00000000000E+00  0.15736865047E+04  0.15736865047E+04  0.00000000000E+00 0.  1.
         21   -1    0    0  501  502 -0.00000000000E+00 -0.00000000000E+00 -0.51101230706E+02  0.51101230706E+02  0.00000000000E+00 0.  1.
         25    1    1    2    0    0  0.17545161024E+02 -0.19416656922E+03  0.77794133779E+03  0.81168110383E+03  0.12500000000E+03 0.  0.
         25    1    1    2    0    0  0.46630686996E+01  0.79342039064E+02  0.26158286363E+03  0.30061187255E+03  0.12500000000E+03 0.  0.
         25    1    1    2    0    0 -0.22208229723E+02  0.11482453016E+03  0.48306107262E+03  0.51249475907E+03  0.12500000000E+03 0.  0.
</event>
<event>
 5    0  0.5612316E-005  0.2797400E+03  0.7546771E-02  0.1095831E+00
         21   -1    0    0  502  501  0.00000000000E+00  0.00000000000E+00  0.12683828910E+04  0.12683828910E+04  0.00000000000E+00 0.  1.
         21   -1    0    0  501  502 -0.00000000000E+00 -0.00000000000E+00 -0.61696253587E+02  0.61696253587E+02  0.00000000000E+00 0.  1.
         25    1    1    2    0    0  0.78689419952E+02 -0.69564744757E+02  0.36860936679E+03  0.40314903424E+03  0.12500000000E+03 0.  0.
         25    1    1    2    0    0  0.31143516920E+02  0.15483682952E+03  0.52444410204E+03  0.56179264732E+03  0.12500000000E+03 0.  0.
         25    1    1    2    0    0 -0.10983293687E+03 -0.85272084767E+02  0.31363316857E+03  0.36513746300E+03  0.12500000000E+03 0.  0.
</event>
<event>
 5    0  0.5612316E-005  0.2782763E+03  0.7546771E-02  0.1096634E+00
         21   -1    0    0  502  501  0.00000000000E+00  0.00000000000E+00  0.26116911647E+03  0.26116911647E+03  0.00000000000E+00 0.  1.
         21   -1    0    0  501  502 -0.00000000000E+00 -0.00000000000E+00 -0.29650407168E+03  0.29650407168E+03  0.00000000000E+00 0.  1.
         25    1    1    2    0    0 -0.39161929447E+02  0.39563130127E+02 -0.20414769421E+03  0.24576447879E+03  0.12500000000E+03 0.  0.
         25    1    1    2    0    0  0.32229871619E+02 -0.43043669429E+01  0.60386396819E+02  0.14257913284E+03  0.12500000000E+03 0.  0.
         25    1    1    2    0    0  0.69320578281E+01 -0.35258763185E+02  0.10842634218E+03  0.16932957652E+03  0.12500000000E+03 0.  0.
</event>
<event>
 5    0  0.5612316E-005  0.3529139E+03  0.7546771E-02  0.1061425E+00
         21   -1    0    0  502  501  0.00000000000E+00  0.00000000000E+00  0.35874408145E+03  0.35874408145E+03  0.00000000000E+00 0.  1.
         21   -1    0    0  501  502 -0.00000000000E+00 -0.00000000000E+00 -0.34717842134E+03  0.34717842134E+03  0.00000000000E+00 0.  1.
         25    1    1    2    0    0 -0.81065603937E+02  0.11953093298E+03  0.11381975640E+03  0.22234930409E+03  0.12500000000E+03 0.  0.
         25    1    1    2    0    0 -0.83668321006E+02 -0.41240004534E+02  0.98874269821E+02  0.18466793752E+03  0.12500000000E+03 0.  0.
         25    1    1    2    0    0  0.16473392494E+03 -0.78290928449E+02 -0.20112836612E+03  0.29890526118E+03  0.12500000000E+03 0.  0.
</event>
<event>
 5    0  0.5612316E-005  0.4483736E+03  0.7546771E-02  0.1028208E+00
         21   -1    0    0  502  501  0.00000000000E+00  0.00000000000E+00  0.16893090513E+04  0.16893090513E+04  0.00000000000E+00 0. -1.
         21   -1    0    0  501  502 -0.00000000000E+00 -0.00000000000E+00 -0.11900657817E+03  0.11900657817E+03  0.00000000000E+00 0. -1.
         25    1    1    2    0    0  0.58538047219E+02  0.31095223468E+03  0.93968031023E+03  0.99937084241E+03  0.12500000000E+03 0.  0.
         25    1    1    2    0    0 -0.28433070538E+02 -0.76822673093E+02  0.31157382838E+02  0.15266284783E+03  0.12500000000E+03 0.  0.
         25    1    1    2    0    0 -0.30104976681E+02 -0.23412956158E+03  0.59946478010E+03  0.65628193927E+03  0.12500000000E+03 0.  0.
</event>
<event>
 5    0  0.5612316E-005  0.4187558E+03  0.7546771E-02  0.1037472E+00
         21   -1    0    0  502  501  0.00000000000E+00  0.00000000000E+00  0.21913905154E+03  0.21913905154E+03  0.00000000000E+00 0.  1.
         21   -1    0    0  501  502 -0.00000000000E+00 -0.00000000000E+00 -0.80020606408E+03  0.80020606408E+03  0.00000000000E+00 0.  1.
         25    1    1    2    0    0 -0.39776284880E+02  0.11107567025E+03 -0.57383168224E+02  0.18121199010E+03  0.12500000000E+03 0.  0.
         25    1    1    2    0    0 -0.17870592990E+03 -0.27662779953E+03 -0.30357877117E+03  0.46502023522E+03  0.12500000000E+03 0.  0.
         25    1    1    2    0    0  0.21848221478E+03  0.16555212927E+03 -0.22010507315E+03  0.37311289030E+03  0.12500000000E+03 0.  0.
</event>
<event>
 5    0  0.5612316E-005  0.3995853E+03  0.7546771E-02  0.1043923E+00
         21   -1    0    0  502  501  0.00000000000E+00  0.00000000000E+00  0.50334960798E+03  0.50334960798E+03  0.00000000000E+00 0.  1.
         21   -1    0    0  501  502 -0.00000000000E+00 -0.00000000000E+00 -0.31721171707E+03  0.31721171707E+03  0.00000000000E+00 0.  1.
         25    1    1    2    0    0  0.93194659044E+01 -0.82746806651E+02  0.33583663933E+03  0.36789283055E+03  0.12500000000E+03 0.  0.
         25    1    1    2    0    0  0.14995477752E+03  0.10598318454E+03 -0.60648212453E+02  0.23026523051E+03  0.12500000000E+03 0.  0.
         25    1    1    2    0    0 -0.15927424343E+03 -0.23236377892E+02 -0.89050535968E+02  0.22240326399E+03  0.12500000000E+03 0.  0.
</event>
<event>
 5    0  0.5612316E-005  0.3565812E+03  0.7546771E-02  0.1059946E+00
         21   -1    0    0  502  501  0.00000000000E+00  0.00000000000E+00  0.26965596301E+03  0.26965596301E+03  0.00000000000E+00 0.  1.
         21   -1    0    0  501  502 -0.00000000000E+00 -0.00000000000E+00 -0.47152729627E+03  0.47152729627E+03  0.00000000000E+00 0.  1.
         25    1    1    2    0    0  0.16066821514E+03 -0.20849984889E+03 -0.12245149599E+03  0.31607883702E+03  0.12500000000E+03 0.  0.
         25    1    1    2    0    0 -0.65385905322E+02 -0.77938330950E+01  0.13785199563E+02  0.14195454264E+03  0.12500000000E+03 0.  0.
         25    1    1    2    0    0 -0.95282309818E+02  0.21629368199E+03 -0.93205036835E+02  0.28314987961E+03  0.12500000000E+03 0.  0.
</event>
<event>
 5    0  0.5612316E-005  0.4631621E+03  0.7546771E-02  0.1023868E+00
         21   -1    0    0  502  501  0.00000000000E+00  0.00000000000E+00  0.12844860709E+03  0.12844860709E+03  0.00000000000E+00 0. -1.
         21   -1    0    0  501  502 -0.00000000000E+00 -0.00000000000E+00 -0.16700775405E+04  0.16700775405E+04  0.00000000000E+00 0. -1.
         25    1    1    2    0    0  0.43694331513E+02 -0.11194481406E+02  0.45453308845E+02  0.14044755002E+03  0.12500000000E+03 0.  0.
         25    1    1    2    0    0 -0.20092954009E+03 -0.10166957995E+02 -0.51131528499E+03  0.56351075214E+03  0.12500000000E+03 0.  0.
         25    1    1    2    0    0  0.15723520858E+03  0.21361439401E+02 -0.10757669572E+04  0.10945678454E+04  0.12500000000E+03 0.  0.
</event>
<event>
 5    0  0.5612316E-005  0.2916472E+03  0.7546771E-02  0.1089492E+00
         21   -1    0    0  502  501  0.00000000000E+00  0.00000000000E+00  0.11078884865E+03  0.11078884865E+03  0.00000000000E+00 0.  1.
         21   -1    0    0  501  502 -0.00000000000E+00 -0.00000000000E+00 -0.76774937566E+03  0.76774937566E+03  0.00000000000E+00 0.  1.
         25    1    1    2    0    0 -0.53779849466E+02  0.64413987347E+02 -0.36739604070E+03  0.39704695528E+03  0.12500000000E+03 0.  0.
         25    1    1    2    0    0 -0.81594970599E+02 -0.48534200541E+02 -0.25378305699E+02  0.15900429632E+03  0.12500000000E+03 0.  0.
         25    1    1    2    0    0  0.13537482006E+03 -0.15879786805E+02 -0.26418618062E+03  0.32248697271E+03  0.12500000000E+03 0.  0.
</event>
<event>
 5    0  0.5612316E-005  0.2583625E+03  0.7546771E-02  0.1108131E+00
         21   -1    0    0  502  501  0.00000000000E+00  0.00000000000E+00  0.40451093682E+03  0.40451093682E+03  0.00000000000E+00 0. -1.
         21   -1    0    0  501  502 -0.00000000000E+00 -0.00000000000E+00 -0.16501696594E+03  0.16501696594E+03  0.00000000000E+00 0. -1.
         25    1    1    2    0    0 -0.10138365954E+03 -0.23195072829E+01  0.14689711728E+03  0.21791693280E+03  0.12500000000E+03 0.  0.
         25    1    1    2    0    0  0.15021841281E+03  0.33782456120E+02  0.77577160738E+02  0.21295549243E+03  0.12500000000E+03 0.  0.
         25    1    1    2    0    0 -0.48834753266E+02 -0.31462948837E+02  0.15019692857E+02  0.13865547753E+03  0.12500000000E+03 0.  0.
</event>
<event>
 5    0  0.5612316E-005  0.2030127E+03  0.7546771E-02  0.1147222E+00
         21   -1    0    0  502  501  0.00000000000E+00  0.00000000000E+00  0.27513021310E+03  0.27513021310E+03  0.00000000000E+00 0.  1.
         21   -1    0    0  501  502 -0.00000000000E+00 -0.00000000000E+00 -0.14979868287E+03  0.14979868287E+03  0.00000000000E+00 0.  1.
         25    1    1    2    0    0  0.19696447900E+02 -0.33478812121E+02  0.87310542118E+02  0.15734329247E+03  0.12500000000E+03 0.  0.
         25    1    1    2    0    0  0.28772493058E+02  0.23425569425E+02  0.16514720610E+02  0.13143192023E+03  0.12500000000E+03 0.  0.
         25    1    1    2    0    0 -0.48468940958E+02  0.10053242696E+02  0.21506267499E+02  0.13615368327E+03  0.12500000000E+03 0.  0.
</event>
<event>
 5    0  0.5612316E-005  0.5277826E+03  0.7546771E-02  0.1006771E+00
         21   -1    0    0  502  501  0.00000000000E+00  0.00000000000E+00  0.52908309730E+03  0.52908309730E+03  0.00000000000E+00 0.  1.
         21   -1    0    0  501  502 -0.00000000000E+00 -0.00000000000E+00 -0.52648524529E+03  0.52648524529E+03  0.00000000000E+00 0.  1.
         25    1    1    2    0    0  0.18669903791E+03  0.13418802219E+03  0.25323532944E+03  0.36416491887E+03  0.12500000000E+03 0.  0.
         25    1    1    2    0    0  0.13191498980E+02 -0.26952914811E+03  0.32167602404E+02  0.29913162984E+03  0.12500000000E+03 0.  0.
         25    1    1    2    0    0 -0.19989053689E+03  0.13534112592E+03 -0.28280507983E+03  0.39227179389E+03  0.12500000000E+03 0.  0.
</event>
<event>
 5    0  0.5612316E-005  0.2516271E+03  0.7546771E-02  0.1112281E+00
         21   -1    0    0  502  501  0.00000000000E+00  0.00000000000E+00  0.21673308224E+04  0.21673308224E+04  0.00000000000E+00 0. -1.
         21   -1    0    0  501  502 -0.00000000000E+00 -0.00000000000E+00 -0.29213896096E+02  0.29213896096E+02  0.00000000000E+00 0. -1.
         25    1    1    2    0    0 -0.53846025120E+02 -0.10600594279E+03  0.11042777156E+04  0.11176721020E+04  0.12500000000E+03 0.  0.
         25    1    1    2    0    0 -0.35401340420E+02  0.62172751375E+02  0.39730579976E+03  0.42260573167E+03  0.12500000000E+03 0.  0.
         25    1    1    2    0    0  0.89247365540E+02  0.43833191412E+02  0.63653341093E+03  0.65626688486E+03  0.12500000000E+03 0.  0.
</event>
<event>
 5    0  0.5612316E-005  0.4992230E+03  0.7546771E-02  0.1013982E+00
         21   -1    0    0  502  501  0.00000000000E+00  0.00000000000E+00  0.19152802697E+04  0.19152802697E+04  0.00000000000E+00 0. -1.
         21   -1    0    0  501  502 -0.00000000000E+00 -0.00000000000E+00 -0.13012385360E+03  0.13012385360E+03  0.00000000000E+00 0. -1.
         25    1    1    2    0    0  0.16106671016E+03  0.19481479636E+03  0.34686452487E+03  0.44702940465E+03  0.12500000000E+03 0.  0.
         25    1    1    2    0    0 -0.21636591399E+03 -0.52331241951E+02  0.13635695645E+04  0.13872633941E+04  0.12500000000E+03 0.  0.
         25    1    1    2    0    0  0.55299203831E+02 -0.14248355441E+03  0.74722326804E+02  0.21111132453E+03  0.12500000000E+03 0.  0.
</event>
<event>
 5    0  0.5612316E-005  0.2204027E+03  0.7546771E-02  0.1133583E+00
         21   -1    0    0  502  501  0.00000000000E+00  0.00000000000E+00  0.61006729330E+03  0.61006729330E+03  0.00000000000E+00 0. -1.
         21   -1    0    0  501  502 -0.00000000000E+00 -0.00000000000E+00 -0.79626230775E+02  0.79626230775E+02  0.00000000000E+00 0. -1.
         25    1    1    2    0    0 -0.37895473499E+00  0.55816133732E+02  0.34111805977E+03  0.36756239619E+03  0.12500000000E+03 0.  0.
         25    1    1    2    0    0 -0.66213853369E+01 -0.36782854346E+02  0.12242414536E+03  0.17891196853E+03  0.12500000000E+03 0.  0.
         25    1    1    2    0    0  0.70003400719E+01 -0.19033279386E+02  0.66898857401E+02  0.14321915936E+03  0.12500000000E+03 0.  0.
</event>
<event>
 5    0  0.5612316E-005  0.2627181E+03  0.7546771E-02  0.1105521E+00
         21   -1    0    0  502  501  0.00000000000E+00  0.00000000000E+00  0.13914281839E+03  0.13914281839E+03  0.00000000000E+00 0.  1.
         21   -1    0    0  501  502 -0.00000000000E+00 -0.00000000000E+00 -0.49604273675E+03  0.49604273675E+03  0.00000000000E+00 0.  1.
         25    1    1    2    0    0 -0.27576476143E+02 -0.56622756986E+02 -0.35930584095E+02  0.14450815035E+03  0.12500000000E+03 0.  0.
         25    1    1    2    0    0  0.87078343531E+02  0.97433201717E+02 -0.29201422425E+03  0.34347223159E+03  0.12500000000E+03 0.  0.
         25    1    1    2    0    0 -0.59501867388E+02 -0.40810444730E+02 -0.28955110025E+02  0.14720517320E+03  0.12500000000E+03 0.  0.
</event>
<event>
 5    0  0.5956402E-005  0.3131073E+03  0.7546771E-02  0.1078866E+00
         21   -1    0    0  502  501  0.00000000000E+00  0.00000000000E+00  0.96152802339E+02  0.96152802339E+02  0.00000000000E+00 0.  1.
         21   -1    0    0  501  502 -0.00000000000E+00 -0.00000000000E+00 -0.10195874029E+04  0.10195874029E+04  0.00000000000E+00 0.  1.
         25    1    1    2    0    0  0.62972209095E+02 -0.70931879770E+02 -0.12899682245E+03  0.20313052673E+03  0.12500000000E+03 0.  0.
         25    1    1    2    0    0 -0.41953347193E+02  0.72177127074E+02 -0.51435357255E+02  0.15887169977E+03  0.12500000000E+03 0.  0.
         25    1    1    2    0    0 -0.21018861902E+02 -0.12452473038E+01 -0.74300242090E+03  0.75373797878E+03  0.12500000000E+03 0.  0.
</event>
<event>
 5    0  0.5612316E-005  0.2627479E+03  0.7546771E-02  0.1105503E+00
         21   -1    0    0  502  501  0.00000000000E+00  0.00000000000E+00  0.48029470947E+02  0.48029470947E+02  0.00000000000E+00 0.  1.
         21   -1    0    0  501  502 -0.00000000000E+00 -0.00000000000E+00 -0.14373770453E+04  0.14373770453E+04  0.00000000000E+00 0.  1.
         25    1    1    2    0    0 -0.82708793494E+02 -0.12449031968E+03 -0.44715992942E+03  0.48776591383E+03  0.12500000000E+03 0.  0.
         25    1    1    2    0    0  0.10154796323E+03  0.11974888264E+03 -0.54378093281E+03  0.57963306205E+03  0.12500000000E+03 0.  0.
         25    1    1    2    0    0 -0.18839169738E+02  0.47414370424E+01 -0.39840671208E+03  0.41800754033E+03  0.12500000000E+03 0.  0.
</event>
<event>
 5    0  0.5612316E-005  0.3475029E+03  0.7546771E-02  0.1063645E+00
         21   -1    0    0  502  501  0.00000000000E+00  0.00000000000E+00  0.67764664486E+03  0.67764664486E+03  0.00000000000E+00 0. -1.
         21   -1    0    0  501  502 -0.00000000000E+00 -0.00000000000E+00 -0.17820240740E+03  0.17820240740E+03  0.00000000000E+00 0. -1.
         25    1    1    2    0    0  0.66934367600E+02 -0.10678708355E+03 -0.71226406140E+02  0.19126393207E+03  0.12500000000E+03 0.  0.
         25    1    1    2    0    0  0.57379198415E+02  0.11977730145E+02  0.19519139691E+03  0.23908266323E+03  0.12500000000E+03 0.  0.
         25    1    1    2    0    0 -0.12431356601E+03  0.94809353407E+02  0.37547924669E+03  0.42550245696E+03  0.12500000000E+03 0.  0.
</event>
<event>
 5    0  0.5612316E-005  0.3143999E+03  0.7546771E-02  0.1078256E+00
         21   -1    0    0  502  501  0.00000000000E+00  0.00000000000E+00  0.11300142766E+03  0.11300142766E+03  0.00000000000E+00 0.  1.
         21   -1    0    0  501  502 -0.00000000000E+00 -0.00000000000E+00 -0.87474355566E+03  0.87474355566E+03  0.00000000000E+00 0.  1.
         25    1    1    2    0    0  0.92450867742E+01 -0.62025471904E+02 -0.32342361432E+03  0.35236410869E+03  0.12500000000E+03 0.  0.
         25    1    1    2    0    0 -0.67535918336E+02  0.11735332443E+03 -0.12870298900E+02  0.18472560087E+03  0.12500000000E+03 0.  0.
         25    1    1    2    0    0  0.58290831562E+02 -0.55327852531E+02 -0.42544821479E+03  0.45065527377E+03  0.12500000000E+03 0.  0.
</event>
<event>
 5    0  0.5612316E-005  0.4899797E+03  0.7546771E-02  0.1016428E+00
         21   -1    0    0  502  501  0.00000000000E+00  0.00000000000E+00  0.32891424052E+03  0.32891424052E+03  0.00000000000E+00 0.  1.
         21   -1    0    0  501  502 -0.00000000000E+00 -0.00000000000E+00 -0.72991711092E+03  0.72991711092E+03  0.00000000000E+00 0.  1.
         25    1    1    2    0    0 -0.27591141838E+03  0.17384683793E+03 -0.26354415104E+03  0.43752754587E+03  0.12500000000E+03 0.  0.
         25    1    1    2    0    0  0.21401447257E+02  0.77679748975E+02 -0.18713134467E+03  0.23902992596E+03  0.12500000000E+03 0.  0.
         25    1    1    2    0    0  0.25450997113E+03 -0.25152658690E+03  0.49672625322E+02  0.38227387960E+03  0.12500000000E+03 0.  0.
</event>
<event>
 5    0  0.5612316E-005  0.4415047E+03  0.7546771E-02  0.1030286E+00
         21   -1    0    0  502  501  0.00000000000E+00  0.00000000000E+00  0.14259142174E+04  0.14259142174E+04  0.00000000000E+00 0. -1.
         21   -1    0    0  501  502 -0.00000000000E+00 -0.00000000000E+00 -0.13670276366E+03  0.13670276366E+03  0.00000000000E+00 0. -1.
         25    1    1    2    0    0  0.85539334917E+02 -0.18043137527E+03  0.42302713948E+02  0.23934698371E+03  0.12500000000E+03 0.  0.
         25    1    1    2    0    0 -0.11112973608E+03  0.11266182029E+03  0.27684239244E+03  0.34250432733E+03  0.12500000000E+03 0.  0.
         25    1    1    2    0    0  0.25590401159E+02  0.67769554988E+02  0.97006634737E+03  0.98076567004E+03  0.12500000000E+03 0.  0.
</event>
<event>
 5    0  0.5612316E-005  0.3857594E+03  0.7546771E-02  0.1048825E+00
         21   -1    0    0  502  501  0.00000000000E+00  0.00000000000E+00  0.10618694252E+03  0.10618694252E+03  0.00000000000E+00 0.  1.
         21   -1    0    0  501  502 -0.00000000000E+00 -0.00000000000E+00 -0.14013991890E+04  0.14013991890E+04  0.00000000000E+00 0.  1.
         25    1    1    2    0    0 -0.14785358898E+03  0.17331875332E+03 -0.26008108176E+03  0.36765098003E+03  0.12500000000E+03 0.  0.
         25    1    1    2    0    0 -0.19429497443E+02  0.78761812563E+02 -0.36036479456E+03  0.38995988723E+03  0.12500000000E+03 0.  0.
         25    1    1    2    0    0  0.16728308642E+03 -0.25208056588E+03 -0.67476637016E+03  0.74997526426E+03  0.12500000000E+03 0.  0.
</event>
<event>
 5    0  0.5612316E-005  0.5259608E+03  0.7546771E-02  0.1007216E+00
         21   -1    0    0  502  501  0.00000000000E+00  0.00000000000E+00  0.93404628571E+02  0.93404628571E+02  0.00000000000E+00 0. -1.
         21   -1    0    0  501  502 -0.00000000000E+00 -0.00000000000E+00 -0.29616817177E+04  0.29616817177E+04  0.00000000000E+00 0. -1.
         25    1    1    2    0    0 -0.51533706262E+02 -0.10549877659E+03 -0.15452670704E+03  0.23084457527E+03  0.12500000000E+03 0.  0.
         25    1    1    2    0    0  0.60625314101E+02 -0.24612657904E+01 -0.38912246633E+02  0.14429362244E+03  0.12500000000E+03 0.  0.
         25    1    1    2    0    0 -0.90916078393E+01  0.10796004238E+03 -0.26748381355E+04  0.26799481486E+04  0.12500000000E+03 0.  0.
</event>
<event>
 5    0  0.5612316E-005  0.2602010E+03  0.7546771E-02  0.1107023E+00
         21   -1    0    0  502  501  0.00000000000E+00  0.00000000000E+00  0.19379847181E+03  0.19379847181E+03  0.00000000000E+00 0.  1.
         21   -1    0    0  501  502 -0.00000000000E+00 -0.00000000000E+00 -0.34935552782E+03  0.34935552782E+03  0.00000000000E+00 0.  1.
         25    1    1    2    0    0 -0.98778665611E+02  0.67054447786E+02 -0.57961397771E+02  0.18231304775E+03  0.12500000000E+03 0.  0.
         25    1    1    2    0    0 -0.57480429787E+01  0.47446086924E+01 -0.12927930244E+03  0.17998246956E+03  0.12500000000E+03 0.  0.
         25    1    1    2    0    0  0.10452670859E+03 -0.71799056479E+02  0.31683644197E+02  0.18085848233E+03  0.12500000000E+03 0.  0.
</event>
<event>
 5    0  0.5612316E-005  0.3291551E+03  0.7546771E-02  0.1071511E+00
         21   -1    0    0  502  501  0.00000000000E+00  0.00000000000E+00  0.49274095426E+03  0.49274095426E+03  0.00000000000E+00 0. -1.
         21   -1    0    0  501  502 -0.00000000000E+00 -0.00000000000E+00 -0.21987836656E+03  0.21987836656E+03  0.00000000000E+00 0. -1.
         25    1    1    2    0    0 -0.11176947579E+03 -0.12986273112E+03  0.16323187959E+03  0.26763107287E+03  0.12500000000E+03 0.  0.
         25    1    1    2    0    0 -0.64301922393E+02 -0.38859497920E+01 -0.44971269494E+02  0.14763892749E+03  0.12500000000E+03 0.  0.
         25    1    1    2    0    0  0.17607139818E+03  0.13374868091E+03  0.15460197760E+03  0.29734932046E+03  0.12500000000E+03 0.  0.
</event>
<event>
 5    0  0.5612316E-005  0.3496395E+03  0.7546771E-02  0.1062763E+00
         21   -1    0    0  502  501  0.00000000000E+00  0.00000000000E+00  0.10116461047E+03  0.10116461047E+03  0.00000000000E+00 0.  1.
         21   -1    0    0  501  502 -0.00000000000E+00 -0.00000000000E+00 -0.12084048342E+04  0.12084048342E+04  0.00000000000E+00 0.  1.
         25    1    1    2    0    0 -0.48936354358E+02  0.15464203199E+02 -0.13642778711E+03  0.19201939864E+03  0.12500000000E+03 0.  0.
         25    1    1    2    0    0 -0.19809650968E+03  0.95737995622E+02 -0.49507441500E+03  0.55599610371E+03  0.12500000000E+03 0.  0.
         25    1    1    2    0    0  0.24703286403E+03 -0.11120219882E+03 -0.47573802163E+03  0.56155394234E+03  0.12500000000E+03 0.  0.
</event>
<event>
 5    0  0.5612316E-005  0.3127411E+03  0.7546771E-02  0.1079039E+00
         21   -1    0    0  502  501  0.00000000000E+00  0.00000000000E+00  0.12381954650E+03  0.12381954650E+03  0.00000000000E+00 0. -1.
         21   -1    0    0  501  502 -0.00000000000E+00 -0.00000000000E+00 -0.78991556412E+03  0.78991556412E+03  0.00000000000E+00 0. -1.
         25    1    1    2    0    0 -0.13656877516E+01  0.11978857361E+03 -0.19910371726E+03  0.26385309871E+03  0.12500000000E+03 0.  0.
         25    1    1    2    0    0  0.12500354960E+03 -0.56628138636E+02 -0.41706367343E+03  0.45650820496E+03  0.12500000000E+03 0.  0.
         25    1    1    2    0    0 -0.12363786185E+03 -0.63160434977E+02 -0.49928626933E+02  0.19337380696E+03  0.12500000000E+03 0.  0.
</event>
<event>
 5    0  0.5612316E-005  0.2628825E+03  0.7546771E-02  0.1105424E+00
         21   -1    0    0  502  501  0.00000000000E+00  0.00000000000E+00  0.22154448635E+03  0.22154448635E+03  0.00000000000E+00 0.  1.
         21   -1    0    0  501  502 -0.00000000000E+00 -0.00000000000E+00 -0.31193370837E+03  0.31193370837E+03  0.00000000000E+00 0.  1.
         25    1    1    2    0    0 -0.11721814094E+02  0.11764866028E+03 -0.13090130044E+03  0.21619148606E+03  0.12500000000E+03 0.  0.
         25    1    1    2    0    0  0.37230955434E+02  0.10054044736E+02  0.39943949049E+02  0.13677626594E+03  0.12500000000E+03 0.  0.
         25    1    1    2    0    0 -0.25509141340E+02 -0.12770270501E+03  0.56812936821E+00  0.18051044272E+03  0.12500000000E+03 0.  0.
</event>
<event>
 5    0  0.5709454E-005  0.3335400E+03  0.7546771E-02  0.1069581E+00
         21   -1    0    0  502  501  0.00000000000E+00  0.00000000000E+00  0.97943733834E+02  0.97943733834E+02  0.00000000000E+00 0.  1.
         21   -1    0    0  501  502 -0.00000000000E+00 -0.00000000000E+00 -0.11358455673E+04  0.11358455673E+04  0.00000000000E+00 0.  1.
         25    1    1    2    0    0 -0.28524721740E+02 -0.23403005231E+03 -0.47388543120E+03  0.54385303809E+03  0.12500000000E+03 0.  0.
         25    1    1    2    0    0  0.10977983116E+03  0.10650459513E+03 -0.23636990237E+03  0.30804313149E+03  0.12500000000E+03 0.  0.
         25    1    1    2    0    0 -0.81255109423E+02  0.12752545718E+03 -0.32764649993E+03  0.38189313158E+03  0.12500000000E+03 0.  0.
</event>
<event>
 5    0  0.5612316E-005  0.2629045E+03  0.7546771E-02  0.1105411E+00
         21   -1    0    0  502  501  0.00000000000E+00  0.00000000000E+00  0.28930446433E+03  0.28930446433E+03  0.00000000000E+00 0.  1.
         21   -1    0    0  501  502 -0.00000000000E+00 -0.00000000000E+00 -0.23891353862E+03  0.23891353862E+03  0.00000000000E+00 0.  1.
         25    1    1    2    0    0  0.43156007477E+02  0.72805578332E+02 -0.48677826728E+02  0.15861155075E+03  0.12500000000E+03 0.  0.
         25    1    1    2    0    0 -0.19103546802E+02  0.85216226174E+02  0.53848432860E+02  0.16171395866E+03  0.12500000000E+03 0.  0.
         25    1    1    2    0    0 -0.24052460675E+02 -0.15802180451E+03  0.45220319583E+02  0.20789249353E+03  0.12500000000E+03 0.  0.
</event>
<event>
 5    0  0.5612316E-005  0.3334966E+03  0.7546771E-02  0.1069600E+00
         21   -1    0    0  502  501  0.00000000000E+00  0.00000000000E+00  0.89553837012E+02  0.89553837012E+02  0.00000000000E+00 0. -1.
         21   -1    0    0  501  502 -0.00000000000E+00 -0.00000000000E+00 -0.12419346342E+04  0.12419346342E+04  0.00000000000E+00 0. -1.
         25    1    1    2    0    0  0.46559507833E+02 -0.46824407679E+02 -0.14199358606E+03  0.20036838924E+03  0.12500000000E+03 0.  0.
         25    1    1    2    0    0  0.14924773207E+03  0.98315153384E+02 -0.73746290101E+03  0.76903659554E+03  0.12500000000E+03 0.  0.
         25    1    1    2    0    0 -0.19580723990E+03 -0.51490745705E+02 -0.27292431010E+03  0.36208348641E+03  0.12500000000E+03 0.  0.
</event>
<event>
 5    0  0.5612316E-005  0.3009650E+03  0.7546771E-02  0.1084759E+00
         21   -1    0    0  502  501  0.00000000000E+00  0.00000000000E+00  0.96630607531E+03  0.96630607531E+03  0.00000000000E+00 0. -1.
         21   -1    0    0  501  502 -0.00000000000E+00 -0.00000000000E+00 -0.93738358360E+02  0.93738358360E+02  0.00000000000E+00 0. -1.
         25    1    1    2    0    0 -0.50420490980E+02  0.46193919421E+02  0.98623826152E+02  0.17328520764E+03  0.12500000000E+03 0.  0.
         25    1    1    2    0    0  0.77952000256E+02  0.95897676560E+02  0.14035825949E+03  0.22494070267E+03  0.12500000000E+03 0.  0.
         25    1    1    2    0    0 -0.27531509275E+02 -0.14209159598E+03  0.63358563131E+03  0.66181852335E+03  0.12500000000E+03 0.  0.
</event>
<event>
 5    0  0.5612316E-005  0.3771571E+03  0.7546771E-02  0.1051990E+00
         21   -1    0    0  502  501  0.00000000000E+00  0.00000000000E+00  0.14137347295E+03  0.14137347295E+03  0.00000000000E+00 0. -1.
         21   -1    0    0  501  502 -0.00000000000E+00 -0.00000000000E+00 -0.10061822511E+04  0.10061822511E+04  0.00000000000E+00 0. -1.
         25    1    1    2    0    0 -0.19051491999E+03  0.14347088118E+03 -0.32732527336E+03  0.42384745258E+03  0.12500000000E+03 0.  0.
         25    1    1    2    0    0 -0.23791049116E+01  0.42166526918E+02 -0.28193056391E+02  0.13492043789E+03  0.12500000000E+03 0.  0.
         25    1    1    2    0    0  0.19289402490E+03 -0.18563740809E+03 -0.50929044842E+03  0.58878783359E+03  0.12500000000E+03 0.  0.
</event>
<event>
 5    0  0.5612316E-005  0.2081563E+03  0.7546771E-02  0.1143034E+00
         21   -1    0    0  502  501  0.00000000000E+00  0.00000000000E+00  0.24904222316E+03  0.24904222316E+03  0.00000000000E+00 0. -1.
         21   -1    0    0  501  502 -0.00000000000E+00 -0.00000000000E+00 -0.17398280290E+03  0.17398280290E+03  0.00000000000E+00 0. -1.
         25    1    1    2    0    0 -0.63702747748E+02  0.15109562392E+02  0.46483323168E+02  0.14856661226E+03  0.12500000000E+03 0.  0.
         25    1    1    2    0    0  0.14551642866E+02  0.16284939429E+02  0.46956384477E+02  0.13530281448E+03  0.12500000000E+03 0.  0.
         25    1    1    2    0    0  0.49151104882E+02 -0.31394501821E+02 -0.18380287385E+02  0.13915559931E+03  0.12500000000E+03 0.  0.
</event>
<event>
 5    0  0.5612316E-005  0.2857185E+03  0.7546771E-02  0.1092606E+00
         21   -1    0    0  502  501  0.00000000000E+00  0.00000000000E+00  0.17021644448E+04  0.17021644448E+04  0.00000000000E+00 0.  1.
         21   -1    0    0  501  502 -0.00000000000E+00 -0.00000000000E+00 -0.47959575148E+02  0.47959575148E+02  0.00000000000E+00 0.  1.
         25    1    1    2    0    0 -0.14099826100E+03  0.24013255536E+01  0.34792522061E+03  0.39568072369E+03  0.12500000000E+03 0.  0.
         25    1    1    2    0    0  0.16252908959E+03 -0.54070648771E+01  0.10327421670E+04  0.10529132561E+04  0.12500000000E+03 0.  0.
         25    1    1    2    0    0 -0.21530828596E+02  0.30057393235E+01  0.27353748205E+03  0.30153004019E+03  0.12500000000E+03 0.  0.
</event>
<event>
 5    0  0.5612316E-005  0.2500198E+03  0.7546771E-02  0.1113292E+00
         21   -1    0    0  502  501  0.00000000000E+00  0.00000000000E+00  0.10060380749E+03  0.10060380749E+03  0.00000000000E+00 0.  1.
         21   -1    0    0  501  502 -0.00000000000E+00 -0.00000000000E+00 -0.62134734398E+03  0.62134734398E+03  0.00000000000E+00 0.  1.
         25    1    1    2    0    0  0.14459950854E+02 -0.10304706243E+03 -0.16275983169E+03  0.23009465458E+03  0.12500000000E+03 0.  0.
         25    1    1    2    0    0 -0.20150429728E+02 -0.52789874617E+02 -0.13618919940E+03  0.19330108307E+03  0.12500000000E+03 0.  0.
         25    1    1    2    0    0  0.56904788741E+01  0.15583693705E+03 -0.22179450540E+03  0.29855541382E+03  0.12500000000E+03 0.  0.
</event>
<event>
 5    0  0.5612316E-005  0.3622907E+03  0.7546771E-02  0.1057681E+00
         21   -1    0    0  502  501  0.00000000000E+00  0.00000000000E+00  0.82535795471E+03  0.82535795471E+03  0.00000000000E+00 0. -1.
         21   -1    0    0  501  502 -0.00000000000E+00 -0.00000000000E+00 -0.15902740877E+03  0.15902740877E+03  0.00000000000E+00 0. -1.
         25    1    1    2    0    0  0.60506320944E+02 -0.69420450556E+02 -0.48887940831E+02  0.16277359917E+03  0.12500000000E+03 0.  0.
         25    1    1    2    0    0  0.17295776144E+01  0.58528880883E+02  0.65460132410E+03  0.66899664786E+03  0.12500000000E+03 0.  0.
         25    1    1    2    0    0 -0.62235898559E+02  0.10891569673E+02  0.60617162676E+02  0.15261511645E+03  0.12500000000E+03 0.  0.
</event>
<event>
 5    0  0.5612316E-005  0.2440713E+03  0.7546771E-02  0.1117110E+00
         21   -1    0    0  502  501  0.00000000000E+00  0.00000000000E+00  0.20114479284E+03  0.20114479284E+03  0.00000000000E+00 0. -1.
         21   -1    0    0  501  502 -0.00000000000E+00 -0.00000000000E+00 -0.29615878754E+03  0.29615878754E+03  0.00000000000E+00 0. -1.
         25    1    1    2    0    0 -0.67196284105E+02  0.79633591267E+02  0.10223898887E+02  0.16305329670E+03  0.12500000000E+03 0.  0.
         25    1    1    2    0    0 -0.45294890802E+01 -0.11324199878E+03 -0.65772675179E+02  0.18109475796E+03  0.12500000000E+03 0.  0.
         25    1    1    2    0    0  0.71725773185E+02  0.33608407517E+02 -0.39465218407E+02  0.15315552572E+03  0.12500000000E+03 0.  0.
</event>
<event>
 5    0  0.5612316E-005  0.4334325E+03  0.7546771E-02  0.1032781E+00
         21   -1    0    0  502  501  0.00000000000E+00  0.00000000000E+00  0.12993888941E+03  0.12993888941E+03  0.00000000000E+00 0.  1.
         21   -1    0    0  501  502 -0.00000000000E+00 -0.00000000000E+00 -0.14457850153E+04  0.14457850153E+04  0.00000000000E+00 0.  1.
         25    1    1    2    0    0  0.77089524145E+02  0.14893083004E+03 -0.10783460397E+04  0.10984436117E+04  0.12500000000E+03 0.  0.
         25    1    1    2    0    0  0.77366509770E+02 -0.18793213681E+00 -0.22130950991E+02  0.14866200303E+03  0.12500000000E+03 0.  0.
         25    1    1    2    0    0 -0.15445603392E+03 -0.14874289791E+03 -0.21536913527E+03  0.32861828999E+03  0.12500000000E+03 0.  0.
</event>
<event>
 5    0  0.5612316E-005  0.2876864E+03  0.7546771E-02  0.1091563E+00
         21   -1    0    0  502  501  0.00000000000E+00  0.00000000000E+00  0.27786615057E+03  0.27786615057E+03  0.00000000000E+00 0.  1.
         21   -1    0    0  501  502 -0.00000000000E+00 -0.00000000000E+00 -0.29785368166E+03  0.29785368166E+03  0.00000000000E+00 0.  1.
         25    1    1    2    0    0  0.69630181529E+02 -0.42830444608E+02 -0.18321425357E+02  0.15047751923E+03  0.12500000000E+03 0.  0.
         25    1    1    2    0    0 -0.52720442938E+02  0.74905401797E+01 -0.16636735420E+03  0.21479909180E+03  0.12500000000E+03 0.  0.
         25    1    1    2    0    0 -0.16909738590E+02  0.35339904429E+02  0.16470124847E+03  0.21044322121E+03  0.12500000000E+03 0.  0.
</event>
<event>
 5    0  0.5612316E-005  0.2127736E+03  0.7546771E-02  0.1139388E+00
         21   -1    0    0  502  501  0.00000000000E+00  0.00000000000E+00  0.45656261079E+02  0.45656261079E+02  0.00000000000E+00 0. -1.
         21   -1    0    0  501  502 -0.00000000000E+00 -0.00000000000E+00 -0.99159640456E+03  0.99159640456E+03  0.00000000000E+00 0. -1.
         25    1    1    2    0    0  0.37193217785E+01 -0.95246118663E+02 -0.32953900824E+03  0.36511178347E+03  0.12500000000E+03 0.  0.
         25    1    1    2    0    0 -0.68309712544E+01  0.53368696334E+02 -0.31923358827E+03  0.34703020588E+03  0.12500000000E+03 0.  0.
         25    1    1    2    0    0  0.31116494759E+01  0.41877422329E+02 -0.29716754697E+03  0.32511067629E+03  0.12500000000E+03 0.  0.
</event>
<event>
 5    0  0.5612316E-005  0.2789292E+03  0.7546771E-02  0.1096275E+00
         21   -1    0    0  502  501  0.00000000000E+00  0.00000000000E+00  0.30611530665E+03  0.30611530665E+03  0.00000000000E+00 0. -1.
         21   -1    0    0  501  502 -0.00000000000E+00 -0.00000000000E+00 -0.25415743571E+03  0.25415743571E+03  0.00000000000E+00 0. -1.
         25    1    1    2    0    0  0.78243218747E+02  0.11916156371E+03 -0.20841914272E+02  0.19073768620E+03  0.12500000000E+03 0.  0.
         25    1    1    2    0    0 -0.29627212560E+02 -0.15682831006E+03 -0.17561670612E+02  0.20348538728E+03  0.12500000000E+03 0.  0.
         25    1    1    2    0    0 -0.48616006187E+02  0.37666746357E+02  0.90361455817E+02  0.16604966888E+03  0.12500000000E+03 0.  0.
</event>
<event>
 5    0  0.5612316E-005  0.3080106E+03  0.7546771E-02  0.1081303E+00
         21   -1    0    0  502  501  0.00000000000E+00  0.00000000000E+00  0.15044000489E+04  0.15044000489E+04  0.00000000000E+00 0. -1.
         21   -1    0    0  501  502 -0.00000000000E+00 -0.00000000000E+00 -0.63062032054E+02  0.63062032054E+02  0.00000000000E+00 0. -1.
         25    1    1    2    0    0  0.13351837618E+02 -0.34162041935E+02  0.10213147083E+04  0.10295892628E+04  0.12500000000E+03 0.  0.
         25    1    1    2    0    0  0.19364529928E+02  0.12146082904E+03  0.26666841059E+03  0.31916259056E+03  0.12500000000E+03 0.  0.
         25    1    1    2    0    0 -0.32716367546E+02 -0.87298787101E+02  0.15335489802E+03  0.21871022766E+03  0.12500000000E+03 0.  0.
</event>
<event>
 5    0  0.5612316E-005  0.2465295E+03  0.7546771E-02  0.1115518E+00
         21   -1    0    0  502  501  0.00000000000E+00  0.00000000000E+00  0.91438130944E+02  0.91438130944E+02  0.00000000000E+00 0.  1.
         21   -1    0    0  501  502 -0.00000000000E+00 -0.00000000000E+00 -0.66467644268E+03  0.66467644268E+03  0.00000000000E+00 0.  1.
         25    1    1    2    0    0  0.11257600342E+03 -0.21800825474E+02 -0.18804379980E+03  0.25324711880E+03  0.12500000000E+03 0.  0.
         25    1    1    2    0    0 -0.29332272283E+01  0.65308663010E+02 -0.11205585872E+03  0.18015365875E+03  0.12500000000E+03 0.  0.
         25    1    1    2    0    0 -0.10964277619E+03 -0.43507837536E+02 -0.27313865322E+03  0.32271379609E+03  0.12500000000E+03 0.  0.
</event>
<event>
 5    0  0.5612316E-005  0.4944581E+03  0.7546771E-02  0.1015236E+00
         21   -1    0    0  502  501  0.00000000000E+00  0.00000000000E+00  0.45144409695E+03  0.45144409695E+03  0.00000000000E+00 0. -1.
         21   -1    0    0  501  502 -0.00000000000E+00 -0.00000000000E+00 -0.54157040976E+03  0.54157040976E+03  0.00000000000E+00 0. -1.
         25    1    1    2    0    0  0.75135426878E+01  0.26149354318E+03  0.22066220418E+02  0.29077008879E+03  0.12500000000E+03 0.  0.
         25    1    1    2    0    0 -0.20808886795E+03 -0.11465574301E+02  0.13556430682E+03  0.27827166159E+03  0.12500000000E+03 0.  0.
         25    1    1    2    0    0  0.20057532526E+03 -0.25002796888E+03 -0.24775684004E+03  0.42397275633E+03  0.12500000000E+03 0.  0.
</event>
<event>
 5    0  0.5612316E-005  0.2218737E+03  0.7546771E-02  0.1132494E+00
         21   -1    0    0  502  501  0.00000000000E+00  0.00000000000E+00  0.43212667300E+03  0.43212667300E+03  0.00000000000E+00 0. -1.
         21   -1    0    0  501  502 -0.00000000000E+00 -0.00000000000E+00 -0.11392020103E+03  0.11392020103E+03  0.00000000000E+00 0. -1.
         25    1    1    2    0    0  0.75533298493E+02 -0.24624763224E+02  0.79155881334E+02  0.16793543907E+03  0.12500000000E+03 0.  0.
         25    1    1    2    0    0 -0.95780191543E+02  0.17766726816E+02  0.17481812960E+03  0.23595736927E+03  0.12500000000E+03 0.  0.
         25    1    1    2    0    0  0.20246893049E+02  0.68580364081E+01  0.64232461036E+02  0.14215406569E+03  0.12500000000E+03 0.  0.
</event>
<event>
 5    0  0.5612316E-005  0.4907582E+03  0.7546771E-02  0.1016220E+00
         21   -1    0    0  502  501  0.00000000000E+00  0.00000000000E+00  0.11901991422E+04  0.11901991422E+04  0.00000000000E+00 0. -1.
         21   -1    0    0  501  502 -0.00000000000E+00 -0.00000000000E+00 -0.20235568722E+03  0.20235568722E+03  0.00000000000E+00 0. -1.
         25    1    1    2    0    0  0.30088369670E+03  0.14605956712E+03  0.39734027236E+03  0.53419910906E+03  0.12500000000E+03 0.  0.
         25    1    1    2    0    0 -0.21359737837E+03  0.79701110397E+02  0.51300129091E+03  0.57512731766E+03  0.12500000000E+03 0.  0.
         25    1    1    2    0    0 -0.87286318323E+02 -0.22576067751E+03  0.77501891717E+02  0.28322840270E+03  0.12500000000E+03 0.  0.
</event>
<event>
 5    0  0.5612316E-005  0.2393451E+03  0.7546771E-02  0.1120230E+00
         21   -1    0    0  502  501  0.00000000000E+00  0.00000000000E+00  0.31278790398E+03  0.31278790398E+03  0.00000000000E+00 0. -1.
         21   -1    0    0  501  502 -0.00000000000E+00 -0.00000000000E+00 -0.18314674406E+03  0.18314674406E+03  0.00000000000E+00 0. -1.
         25    1    1    2    0    0  0.12032055622E+03 -0.17467696678E+02  0.87235321502E+02  0.19497989126E+03  0.12500000000E+03 0.  0.
         25    1    1    2    0    0 -0.10180594771E+03  0.26455227274E+01  0.60971196870E+02  0.17237730891E+03  0.12500000000E+03 0.  0.
         25    1    1    2    0    0 -0.18514608515E+02  0.14822173951E+02 -0.18565358452E+02  0.12857744788E+03  0.12500000000E+03 0.  0.
</event>
<event>
 5    0  0.5612316E-005  0.3389304E+03  0.7546771E-02  0.1067252E+00
         21   -1    0    0  502  501  0.00000000000E+00  0.00000000000E+00  0.18721318914E+03  0.18721318914E+03  0.00000000000E+00 0. -1.
         21   -1    0    0  501  502 -0.00000000000E+00 -0.00000000000E+00 -0.61359883658E+03  0.61359883658E+03  0.00000000000E+00 0. -1.
         25    1    1    2    0    0 -0.10409335974E+02 -0.16838775249E+03 -0.20519879053E+03  0.29358871418E+03  0.12500000000E+03 0.  0.
         25    1    1    2    0    0 -0.32674040422E+02  0.25823867336E+03 -0.18619297212E+03  0.34358059928E+03  0.12500000000E+03 0.  0.
         25    1    1    2    0    0  0.43083376396E+02 -0.89850920868E+02 -0.34993884794E+02  0.16364271226E+03  0.12500000000E+03 0.  0.
</event>
<event>
 5    0  0.5612316E-005  0.2625902E+03  0.7546771E-02  0.1105597E+00
         21   -1    0    0  502  501  0.00000000000E+00  0.00000000000E+00  0.21639345661E+03  0.21639345661E+03  0.00000000000E+00 0. -1.
         21   -1    0    0  501  502 -0.00000000000E+00 -0.00000000000E+00 -0.31864916742E+03  0.31864916742E+03  0.00000000000E+00 0. -1.
         25    1    1    2    0    0  0.65867578702E+02 -0.23798809030E+02 -0.50331017756E+02  0.15186550821E+03  0.12500000000E+03 0.  0.
         25    1    1    2    0    0 -0.17352954841E+03  0.15207994724E+02 -0.26476227970E+02  0.21603189099E+03  0.12500000000E+03 0.  0.
         25    1    1    2    0    0  0.10766196971E+03  0.85908143060E+01 -0.25448465083E+02  0.16714522484E+03  0.12500000000E+03 0.  0.
</event>
<event>
 5    0  0.5612316E-005  0.4688223E+03  0.7546771E-02  0.1022253E+00
         21   -1    0    0  502  501  0.00000000000E+00  0.00000000000E+00  0.17871059804E+04  0.17871059804E+04  0.00000000000E+00 0.  1.
         21   -1    0    0  501  502 -0.00000000000E+00 -0.00000000000E+00 -0.12298896376E+03  0.12298896376E+03  0.00000000000E+00 0.  1.
         25    1    1    2    0    0 -0.64901349083E+02 -0.59040523173E+02  0.57093376048E+02  0.16304178016E+03  0.12500000000E+03 0.  0.
         25    1    1    2    0    0  0.21773846132E+03  0.24526955945E+03  0.12514011307E+04  0.12996911111E+04  0.12500000000E+03 0.  0.
         25    1    1    2    0    0 -0.15283711224E+03 -0.18622903628E+03  0.35562250985E+03  0.44736205286E+03  0.12500000000E+03 0.  0.
</event>
<event>
 5    0  0.5612316E-005  0.2632030E+03  0.7546771E-02  0.1105234E+00
         21   -1    0    0  502  501  0.00000000000E+00  0.00000000000E+00  0.33934254478E+04  0.33934254478E+04  0.00000000000E+00 0. -1.
         21   -1    0    0  501  502 -0.00000000000E+00 -0.00000000000E+00 -0.20414721278E+02  0.20414721278E+02  0.00000000000E+00 0. -1.
         25    1    1    2    0    0 -0.88830091008E+02 -0.61048341535E+02  0.98180288803E+03  0.99558002994E+03  0.12500000000E+03 0.  0.
         25    1    1    2    0    0  0.13788135332E+03  0.93064643777E+02  0.10845454652E+04  0.11043261119E+04  0.12500000000E+03 0.  0.
         25    1    1    2    0    0 -0.49051262316E+02 -0.32016302241E+02  0.13066623733E+04  0.13139340272E+04  0.12500000000E+03 0.  0.
</event>
<event>
 5    0  0.5612316E-005  0.2904904E+03  0.7546771E-02  0.1090093E+00
         21   -1    0    0  502  501  0.00000000000E+00  0.00000000000E+00  0.54338688524E+03  0.54338688524E+03  0.00000000000E+00 0.  1.
         21   -1    0    0  501  502 -0.00000000000E+00 -0.00000000000E+00 -0.15529386998E+03  0.15529386998E+03  0.00000000000E+00 0.  1.
         25    1    1    2    0    0  0.58528791134E+02  0.11195240141E+03  0.15802082751E+03  0.23781198771E+03  0.12500000000E+03 0.  0.
         25    1    1    2    0    0 -0.14679721739E+03 -0.76601903717E+02  0.22163860851E+03  0.30358845081E+03  0.12500000000E+03 0.  0.
         25    1    1    2    0    0  0.88268426253E+02 -0.35350497690E+02  0.84335792426E+01  0.15728031669E+03  0.12500000000E+03 0.  0.
</event>
<event>
 5    0  0.5612316E-005  0.2455135E+03  0.7546771E-02  0.1116173E+00
         21   -1    0    0  502  501  0.00000000000E+00  0.00000000000E+00  0.58375633393E+03  0.58375633393E+03  0.00000000000E+00 0.  1.
         21   -1    0    0  501  502 -0.00000000000E+00 -0.00000000000E+00 -0.10325688710E+03  0.10325688710E+03  0.00000000000E+00 0.  1.
         25    1    1    2    0    0  0.90522797084E+02  0.61516754791E+02  0.14974853520E+03  0.22367009569E+03  0.12500000000E+03 0.  0.
         25    1    1    2    0    0  0.18127579337E+02 -0.38961129475E+02  0.23785419464E+03  0.27211430806E+03  0.12500000000E+03 0.  0.
         25    1    1    2    0    0 -0.10865037642E+03 -0.22555625316E+02  0.92896716992E+02  0.19122881728E+03  0.12500000000E+03 0.  0.
</event>
<event>
 5    0  0.5612316E-005  0.3191434E+03  0.7546771E-02  0.1076044E+00
         21   -1    0    0  502  501  0.00000000000E+00  0.00000000000E+00  0.12729968997E+04  0.12729968997E+04  0.00000000000E+00 0. -1.
         21   -1    0    0  501  502 -0.00000000000E+00 -0.00000000000E+00 -0.80010016067E+02  0.80010016067E+02  0.00000000000E+00 0. -1.
         25    1    1    2    0    0 -0.20259246538E+02 -0.42729420118E+02  0.25025298647E+03  0.28370371455E+03  0.12500000000E+03 0.  0.
         25    1    1    2    0    0  0.19297528210E+03  0.13984484004E+03  0.54132121989E+03  0.60452436005E+03  0.12500000000E+03 0.  0.
         25    1    1    2    0    0 -0.17271603556E+03 -0.97115419918E+02  0.40141267731E+03  0.46477884120E+03  0.12500000000E+03 0.  0.
</event>
<event>
 5    0  0.5612316E-005  0.3104895E+03  0.7546771E-02  0.1080111E+00
         21   -1    0    0  502  501  0.00000000000E+00  0.00000000000E+00  0.45520686147E+03  0.45520686147E+03  0.00000000000E+00 0. -1.
         21   -1    0    0  501  502 -0.00000000000E+00 -0.00000000000E+00 -0.21178005190E+03  0.21178005190E+03  0.00000000000E+00 0. -1.
         25    1    1    2    0    0  0.20648892426E+03  0.84377087407E+02  0.89712206132E+02  0.27098053187E+03  0.12500000000E+03 0.  0.
         25    1    1    2    0    0 -0.14590272544E+03  0.98951765150E+00  0.37424115866E+02  0.19574000328E+03  0.12500000000E+03 0.  0.
         25    1    1    2    0    0 -0.60586198818E+02 -0.85366605058E+02  0.11629048757E+03  0.20026637822E+03  0.12500000000E+03 0.  0.
</event>
<event>
 5    0  0.5612316E-005  0.2976898E+03  0.7546771E-02  0.1086401E+00
         21   -1    0    0  502  501  0.00000000000E+00  0.00000000000E+00  0.25941850011E+03  0.25941850011E+03  0.00000000000E+00 0.  1.
         21   -1    0    0  501  502 -0.00000000000E+00 -0.00000000000E+00 -0.34160705181E+03  0.34160705181E+03  0.00000000000E+00 0.  1.
         25    1    1    2    0    0 -0.16949694725E+03  0.59690956565E+02  0.20933899604E+02  0.21989873482E+03  0.12500000000E+03 0.  0.
         25    1    1    2    0    0  0.67359357665E+02 -0.93811011597E+02 -0.12974857519E+03  0.21400346195E+03  0.12500000000E+03 0.  0.
         25    1    1    2    0    0  0.10213758959E+03  0.34120055032E+02  0.26626123883E+02  0.16712335515E+03  0.12500000000E+03 0.  0.
</event>
<event>
 5    0  0.5901985E-005  0.2935908E+03  0.7546771E-02  0.1088489E+00
         21   -1    0    0  502  501  0.00000000000E+00  0.00000000000E+00  0.59930668119E+03  0.59930668119E+03  0.00000000000E+00 0. -1.
         21   -1    0    0  501  502 -0.00000000000E+00 -0.00000000000E+00 -0.14382547120E+03  0.14382547120E+03  0.00000000000E+00 0. -1.
         25    1    1    2    0    0  0.24833323977E+01 -0.63450379296E+02  0.36283994892E+03  0.38898579165E+03  0.12500000000E+03 0.  0.
         25    1    1    2    0    0 -0.10463701367E+03  0.93864410533E+01  0.66589173909E+01  0.16342077924E+03  0.12500000000E+03 0.  0.
         25    1    1    2    0    0  0.10215368127E+03  0.54063938243E+02  0.85982343682E+02  0.19072558151E+03  0.12500000000E+03 0.  0.
</event>
<event>
 5    0  0.6218553E-005  0.2476688E+03  0.7546771E-02  0.1114787E+00
         21   -1    0    0  502  501  0.00000000000E+00  0.00000000000E+00  0.40207577022E+03  0.40207577022E+03  0.00000000000E+00 0.  1.
         21   -1    0    0  501  502 -0.00000000000E+00 -0.00000000000E+00 -0.15255790535E+03  0.15255790535E+03  0.00000000000E+00 0.  1.
         25    1    1    2    0    0 -0.91129763428E+00  0.30584303795E+02  0.57999962997E+01  0.12882107770E+03  0.12500000000E+03 0.  0.
         25    1    1    2    0    0  0.78884929567E+02 -0.96022760503E+02  0.18154095618E+03  0.25303225371E+03  0.12500000000E+03 0.  0.
         25    1    1    2    0    0 -0.77973631933E+02  0.65438456708E+02  0.62176912392E+02  0.17278034416E+03  0.12500000000E+03 0.  0.
</event>
<event>
 5    0  0.5612316E-005  0.3870716E+03  0.7546771E-02  0.1048351E+00
         21   -1    0    0  502  501  0.00000000000E+00  0.00000000000E+00  0.15320798487E+03  0.15320798487E+03  0.00000000000E+00 0. -1.
         21   -1    0    0  501  502 -0.00000000000E+00 -0.00000000000E+00 -0.97791529255E+03  0.97791529255E+03  0.00000000000E+00 0. -1.
         25    1    1    2    0    0  0.20978060374E+03  0.14292285543E+02 -0.72661928501E+03  0.76668947853E+03  0.12500000000E+03 0.  0.
         25    1    1    2    0    0 -0.77206657316E+02 -0.58272287416E+02 -0.76981056277E+02  0.17580560412E+03  0.12500000000E+03 0.  0.
         25    1    1    2    0    0 -0.13257394642E+03  0.43980001873E+02 -0.21106966391E+02  0.18862819478E+03  0.12500000000E+03 0.  0.
</event>
<event>
 5    0  0.5612316E-005  0.1931679E+03  0.7546771E-02  0.1155635E+00
         21   -1    0    0  502  501  0.00000000000E+00  0.00000000000E+00  0.17538918935E+03  0.17538918935E+03  0.00000000000E+00 0.  1.
         21   -1    0    0  501  502 -0.00000000000E+00 -0.00000000000E+00 -0.21274877560E+03  0.21274877560E+03  0.00000000000E+00 0.  1.
         25    1    1    2    0    0  0.26601644926E+02 -0.21158815577E+02 -0.35851840955E+02  0.13440869574E+03  0.12500000000E+03 0.  0.
         25    1    1    2    0    0 -0.23260453578E+01  0.13597442733E+02  0.64269225281E+01  0.12592301723E+03  0.12500000000E+03 0.  0.
         25    1    1    2    0    0 -0.24275599568E+02  0.75613728440E+01 -0.79346678188E+01  0.12780625199E+03  0.12500000000E+03 0.  0.
</event>
<event>
 5    0  0.5612316E-005  0.3621364E+03  0.7546771E-02  0.1057741E+00
         21   -1    0    0  502  501  0.00000000000E+00  0.00000000000E+00  0.61271102656E+03  0.61271102656E+03  0.00000000000E+00 0.  1.
         21   -1    0    0  501  502 -0.00000000000E+00 -0.00000000000E+00 -0.21403685101E+03  0.21403685101E+03  0.00000000000E+00 0.  1.
         25    1    1    2    0    0  0.38970500539E+02  0.71360694915E+02  0.30530674162E+03  0.33977677256E+03  0.12500000000E+03 0.  0.
         25    1    1    2    0    0 -0.61459324719E+02 -0.46482348389E+02 -0.15088786523E+03  0.21054691919E+03  0.12500000000E+03 0.  0.
         25    1    1    2    0    0  0.22488824180E+02 -0.24878346527E+02  0.24425529916E+03  0.27642418582E+03  0.12500000000E+03 0.  0.
</event>
<event>
 5    0  0.5612316E-005  0.2391159E+03  0.7546771E-02  0.1120383E+00
         21   -1    0    0  502  501  0.00000000000E+00  0.00000000000E+00  0.23006167953E+04  0.23006167953E+04  0.00000000000E+00 0.  1.
         21   -1    0    0  501  502 -0.00000000000E+00 -0.00000000000E+00 -0.24852650343E+02  0.24852650343E+02  0.00000000000E+00 0.  1.
         25    1    1    2    0    0 -0.28367847554E+02  0.25514351631E+02  0.42171710067E+03  0.44150428074E+03  0.12500000000E+03 0.  0.
         25    1    1    2    0    0 -0.93259871400E+02 -0.13388303805E+02  0.10036437178E+04  0.10157767287E+04  0.12500000000E+03 0.  0.
         25    1    1    2    0    0  0.12162771895E+03 -0.12126047826E+02  0.85040332649E+03  0.86818843621E+03  0.12500000000E+03 0.  0.
</event>
<event>
 5    0  0.5612316E-005  0.3529307E+03  0.7546771E-02  0.1061419E+00
         21   -1    0    0  502  501  0.00000000000E+00  0.00000000000E+00  0.16276173655E+03  0.16276173655E+03  0.00000000000E+00 0.  1.
         21   -1    0    0  501  502 -0.00000000000E+00 -0.00000000000E+00 -0.76529106663E+03  0.76529106663E+03  0.00000000000E+00 0. -1.
         25    1    1    2    0    0  0.73772088905E+02 -0.22627481401E+03 -0.45860866832E+03  0.53159150032E+03  0.12500000000E+03 0.  0.
         25    1    1    2    0    0 -0.76193968303E+02  0.53216085951E+02 -0.66426712225E+02  0.16933688525E+03  0.12500000000E+03 0.  0.
         25    1    1    2    0    0  0.24218793982E+01  0.17305872806E+03 -0.77493949536E+02  0.22712441760E+03  0.12500000000E+03 0.  0.
</event>
<event>
 5    0  0.5612316E-005  0.3032330E+03  0.7546771E-02  0.1083636E+00
         21   -1    0    0  502  501  0.00000000000E+00  0.00000000000E+00  0.65934737251E+02  0.65934737251E+02  0.00000000000E+00 0. -1.
         21   -1    0    0  501  502 -0.00000000000E+00 -0.00000000000E+00 -0.13945643546E+04  0.13945643546E+04  0.00000000000E+00 0. -1.
         25    1    1    2    0    0  0.52431149735E+02 -0.75218054615E+02 -0.24264334722E+03  0.28793675547E+03  0.12500000000E+03 0.  0.
         25    1    1    2    0    0 -0.15023543961E+02 -0.10005242934E+03 -0.78098111174E+03  0.79736609684E+03  0.12500000000E+03 0.  0.
         25    1    1    2    0    0 -0.37407605774E+02  0.17527048395E+03 -0.30500515835E+03  0.37519623950E+03  0.12500000000E+03 0.  0.
</event>
<event>
 5    0  0.5764034E-005  0.3057571E+03  0.7546771E-02  0.1082398E+00
         21   -1    0    0  502  501  0.00000000000E+00  0.00000000000E+00  0.30052570225E+03  0.30052570225E+03  0.00000000000E+00 0. -1.
         21   -1    0    0  501  502 -0.00000000000E+00 -0.00000000000E+00 -0.31107953147E+03  0.31107953147E+03  0.00000000000E+00 0. -1.
         25    1    1    2    0    0 -0.10837010597E+03 -0.56384889727E+01 -0.83522321870E+02  0.18540995301E+03  0.12500000000E+03 0.  0.
         25    1    1    2    0    0  0.14400333474E+03  0.11154572461E+03 -0.39340168214E+02  0.22439264233E+03  0.12500000000E+03 0.  0.
         25    1    1    2    0    0 -0.35633228779E+02 -0.10590723564E+03  0.11230866087E+03  0.20180263838E+03  0.12500000000E+03 0.  0.
</event>
<event>
 5    0  0.5615532E-005  0.2505609E+03  0.7546771E-02  0.1112951E+00
         21   -1    0    0  502  501  0.00000000000E+00  0.00000000000E+00  0.14211448888E+03  0.14211448888E+03  0.00000000000E+00 0.  1.
         21   -1    0    0  501  502 -0.00000000000E+00 -0.00000000000E+00 -0.44176172686E+03  0.44176172686E+03  0.00000000000E+00 0.  1.
         25    1    1    2    0    0 -0.83153356539E+02 -0.11019027481E+03 -0.42148157112E+02  0.19093937392E+03  0.12500000000E+03 0.  0.
         25    1    1    2    0    0  0.18289923549E+02  0.55958666486E+02 -0.16786607355E+03  0.21741644903E+03  0.12500000000E+03 0.  0.
         25    1    1    2    0    0  0.64863432991E+02  0.54231608324E+02 -0.89633007316E+02  0.17552039278E+03  0.12500000000E+03 0.  0.
</event>
<event>
 5    0  0.5612316E-005  0.3779574E+03  0.7546771E-02  0.1051691E+00
         21   -1    0    0  502  501  0.00000000000E+00  0.00000000000E+00  0.71179801938E+03  0.71179801938E+03  0.00000000000E+00 0.  1.
         21   -1    0    0  501  502 -0.00000000000E+00 -0.00000000000E+00 -0.20069143559E+03  0.20069143559E+03  0.00000000000E+00 0.  1.
         25    1    1    2    0    0 -0.23732093720E+03 -0.12983867718E+03  0.31339675778E+03  0.43246021448E+03  0.12500000000E+03 0.  0.
         25    1    1    2    0    0  0.14247148671E+03  0.95283988271E+02 -0.15906689698E+02  0.21273266257E+03  0.12500000000E+03 0.  0.
         25    1    1    2    0    0  0.94849450493E+02  0.34554688906E+02  0.21361651571E+03  0.26729657792E+03  0.12500000000E+03 0.  0.
</event>
<event>
 5    0  0.5612316E-005  0.2376058E+03  0.7546771E-02  0.1121398E+00
         21   -1    0    0  502  501  0.00000000000E+00  0.00000000000E+00  0.58764804722E+02  0.58764804722E+02  0.00000000000E+00 0.  1.
         21   -1    0    0  501  502 -0.00000000000E+00 -0.00000000000E+00 -0.96071996445E+03  0.96071996445E+03  0.00000000000E+00 0.  1.
         25    1    1    2    0    0 -0.35843369633E+02 -0.88242590506E+02 -0.38524608581E+03  0.41606615887E+03  0.12500000000E+03 0.  0.
         25    1    1    2    0    0  0.95718860191E+02  0.55414086643E+02 -0.31503018091E+03  0.35651344445E+03  0.12500000000E+03 0.  0.
         25    1    1    2    0    0 -0.59875490558E+02  0.32828503863E+02 -0.20167889301E+03  0.24690516585E+03  0.12500000000E+03 0.  0.
</event>
<event>
 5    0  0.5612316E-005  0.3176767E+03  0.7546771E-02  0.1076724E+00
         21   -1    0    0  502  501  0.00000000000E+00  0.00000000000E+00  0.40416234279E+03  0.40416234279E+03  0.00000000000E+00 0. -1.
         21   -1    0    0  501  502 -0.00000000000E+00 -0.00000000000E+00 -0.24969794240E+03  0.24969794240E+03  0.00000000000E+00 0. -1.
         25    1    1    2    0    0  0.16775703216E+03  0.32348180152E+02  0.11550211044E+03  0.24115257435E+03  0.12500000000E+03 0.  0.
         25    1    1    2    0    0 -0.67535316444E+02 -0.47758927202E+02  0.15397367669E+03  0.21488328741E+03  0.12500000000E+03 0.  0.
         25    1    1    2    0    0 -0.10022171571E+03  0.15410747050E+02 -0.11501138674E+03  0.19782442343E+03  0.12500000000E+03 0.  0.
</event>
<event>
 5    0  0.5612316E-005  0.2652286E+03  0.7546771E-02  0.1104042E+00
         21   -1    0    0  502  501  0.00000000000E+00  0.00000000000E+00  0.11405578688E+03  0.11405578688E+03  0.00000000000E+00 0.  1.
         21   -1    0    0  501  502 -0.00000000000E+00 -0.00000000000E+00 -0.61677020763E+03  0.61677020763E+03  0.00000000000E+00 0.  1.
         25    1    1    2    0    0  0.12862015830E+03 -0.81266494303E+00 -0.24209027447E+03  0.30129139805E+03  0.12500000000E+03 0.  0.
         25    1    1    2    0    0 -0.55132781883E+01 -0.78187404990E+02 -0.93463243484E+02  0.17465407072E+03  0.12500000000E+03 0.  0.
         25    1    1    2    0    0 -0.12310688011E+03  0.79000069933E+02 -0.16716090280E+03  0.25488052575E+03  0.12500000000E+03 0.  0.
</event>
<event>
 5    0  0.5612316E-005  0.3405636E+03  0.7546771E-02  0.1066556E+00
         21   -1    0    0  502  501  0.00000000000E+00  0.00000000000E+00  0.94781449553E+02  0.94781449553E+02  0.00000000000E+00 0.  1.
         21   -1    0    0  501  502 -0.00000000000E+00 -0.00000000000E+00 -0.12236947580E+04  0.12236947580E+04  0.00000000000E+00 0.  1.
         25    1    1    2    0    0 -0.46656985070E+02  0.10981597452E+03 -0.28987137563E+03  0.33747123866E+03  0.12500000000E+03 0.  0.
         25    1    1    2    0    0  0.14473684380E+03 -0.14761202464E+03 -0.17797799923E+03  0.30006537951E+03  0.12500000000E+03 0.  0.
         25    1    1    2    0    0 -0.98079858727E+02  0.37796050127E+02 -0.66106393356E+03  0.68093958935E+03  0.12500000000E+03 0.  0.
</event>
<event>
 5    0  0.5612316E-005  0.6805785E+03  0.7546771E-02  0.9751034E-01
         21   -1    0    0  502  501  0.00000000000E+00  0.00000000000E+00  0.80269488879E+03  0.80269488879E+03  0.00000000000E+00 0.  1.
         21   -1    0    0  501  502 -0.00000000000E+00 -0.00000000000E+00 -0.57704002770E+03  0.57704002770E+03  0.00000000000E+00 0.  1.
         25    1    1    2    0    0  0.49743852196E+03 -0.23782378638E+03  0.28549950620E+03  0.63335630141E+03  0.12500000000E+03 0.  0.
         25    1    1    2    0    0 -0.40804635987E+03  0.25681778365E+03  0.11668177827E+03  0.51156313704E+03  0.12500000000E+03 0.  0.
         25    1    1    2    0    0 -0.89392162087E+02 -0.18993997275E+02 -0.17652642338E+03  0.23481547804E+03  0.12500000000E+03 0.  0.
</event>
<event>
 5    0  0.5612316E-005  0.2512970E+03  0.7546771E-02  0.1112488E+00
         21   -1    0    0  502  501  0.00000000000E+00  0.00000000000E+00  0.74703713084E+02  0.74703713084E+02  0.00000000000E+00 0.  1.
         21   -1    0    0  501  502 -0.00000000000E+00 -0.00000000000E+00 -0.84534177983E+03  0.84534177983E+03  0.00000000000E+00 0.  1.
         25    1    1    2    0    0  0.11163464275E+03 -0.61896738498E+02 -0.13631116929E+03  0.22472034748E+03  0.12500000000E+03 0.  0.
         25    1    1    2    0    0 -0.59855750307E+02  0.70121036727E+01 -0.31262492609E+03  0.34203980011E+03  0.12500000000E+03 0.  0.
         25    1    1    2    0    0 -0.51778892446E+02  0.54884634826E+02 -0.32170197135E+03  0.35328534532E+03  0.12500000000E+03 0.  0.
</event>
<event>
 5    0  0.5612316E-005  0.3561409E+03  0.7546771E-02  0.1060122E+00
         21   -1    0    0  502  501  0.00000000000E+00  0.00000000000E+00  0.10227319071E+03  0.10227319071E+03  0.00000000000E+00 0. -1.
         21   -1    0    0  501  502 -0.00000000000E+00 -0.00000000000E+00 -0.12401716675E+04  0.12401716675E+04  0.00000000000E+00 0. -1.
         25    1    1    2    0    0  0.15345577386E+03 -0.71983502220E+02 -0.24508907228E+03  0.32314695183E+03  0.12500000000E+03 0.  0.
         25    1    1    2    0    0 -0.10410300332E+03 -0.68747329486E+02 -0.76817564455E+03  0.78821472423E+03  0.12500000000E+03 0.  0.
         25    1    1    2    0    0 -0.49352770545E+02  0.14073083171E+03 -0.12463375998E+03  0.23108318216E+03  0.12500000000E+03 0.  0.
</event>
<event>
 5    0  0.5612316E-005  0.3590699E+03  0.7546771E-02  0.1058953E+00
         21   -1    0    0  502  501  0.00000000000E+00  0.00000000000E+00  0.13469604118E+04  0.13469604118E+04  0.00000000000E+00 0.  1.
         21   -1    0    0  501  502 -0.00000000000E+00 -0.00000000000E+00 -0.95720106770E+02  0.95720106770E+02  0.00000000000E+00 0.  1.
         25    1    1    2    0    0 -0.14732604329E+03 -0.23473416389E+03  0.72259572350E+03  0.78394812988E+03  0.12500000000E+03 0.  0.
         25    1    1    2    0    0  0.10009727673E+03  0.60694844541E+02  0.26776050111E+03  0.31784275187E+03  0.12500000000E+03 0.  0.
         25    1    1    2    0    0  0.47228766568E+02  0.17403931934E+03  0.26088408041E+03  0.34088963680E+03  0.12500000000E+03 0.  0.
</event>
<event>
 5    0  0.5612316E-005  0.2966785E+03  0.7546771E-02  0.1086913E+00
         21   -1    0    0  502  501  0.00000000000E+00  0.00000000000E+00  0.96209908154E+02  0.96209908154E+02  0.00000000000E+00 0.  1.
         21   -1    0    0  501  502 -0.00000000000E+00 -0.00000000000E+00 -0.91485497004E+03  0.91485497004E+03  0.00000000000E+00 0.  1.
         25    1    1    2    0    0 -0.14390277506E+03  0.41697839297E+02 -0.58701355163E+03  0.61859245733E+03  0.12500000000E+03 0.  0.
         25    1    1    2    0    0  0.22381428695E+01 -0.19996344165E+02 -0.89145683356E+02  0.15484448949E+03  0.12500000000E+03 0.  0.
         25    1    1    2    0    0  0.14166463219E+03 -0.21701495132E+02 -0.14248582691E+03  0.23762793138E+03  0.12500000000E+03 0.  0.
</event>
<event>
 5    0  0.5612316E-005  0.5145984E+03  0.7546771E-02  0.1010037E+00
         21   -1    0    0  502  501  0.00000000000E+00  0.00000000000E+00  0.71910765453E+03  0.71910765453E+03  0.00000000000E+00 0.  1.
         21   -1    0    0  501  502 -0.00000000000E+00 -0.00000000000E+00 -0.36825010070E+03  0.36825010070E+03  0.00000000000E+00 0.  1.
         25    1    1    2    0    0  0.42321773005E+02 -0.12087744225E+03 -0.10296213615E+03  0.20646716445E+03  0.12500000000E+03 0.  0.
         25    1    1    2    0    0 -0.12395728546E+03 -0.23512103242E+03  0.11700020886E+02  0.29395441652E+03  0.12500000000E+03 0.  0.
         25    1    1    2    0    0  0.81635512451E+02  0.35599847467E+03  0.44211966909E+03  0.58693617426E+03  0.12500000000E+03 0.  0.
</event>
<event>
 5    0  0.5612316E-005  0.2359090E+03  0.7546771E-02  0.1122549E+00
         21   -1    0    0  502  501  0.00000000000E+00  0.00000000000E+00  0.76518409892E+03  0.76518409892E+03  0.00000000000E+00 0. -1.
         21   -1    0    0  501  502 -0.00000000000E+00 -0.00000000000E+00 -0.72731560729E+02  0.72731560729E+02  0.00000000000E+00 0. -1.
         25    1    1    2    0    0 -0.39083401785E+02  0.78180259130E+02  0.25560817276E+03  0.29765786265E+03  0.12500000000E+03 0.  0.
         25    1    1    2    0    0  0.92374235199E+02  0.90141563931E+01  0.23278473695E+03  0.28004997429E+03  0.12500000000E+03 0.  0.
         25    1    1    2    0    0 -0.53290833414E+02 -0.87194415523E+02  0.20405962847E+03  0.26020782271E+03  0.12500000000E+03 0.  0.
</event>
<event>
 5    0  0.5612316E-005  0.3122122E+03  0.7546771E-02  0.1079290E+00
         21   -1    0    0  502  501  0.00000000000E+00  0.00000000000E+00  0.32375188791E+03  0.32375188791E+03  0.00000000000E+00 0.  1.
         21   -1    0    0  501  502 -0.00000000000E+00 -0.00000000000E+00 -0.30108379767E+03  0.30108379767E+03  0.00000000000E+00 0.  1.
         25    1    1    2    0    0 -0.78230817031E+01 -0.17550457652E+03  0.93558121807E+02  0.23503442118E+03  0.12500000000E+03 0.  0.
         25    1    1    2    0    0 -0.76666609482E+02  0.14317278763E+03  0.27531675588E+02  0.20678300048E+03  0.12500000000E+03 0.  0.
         25    1    1    2    0    0  0.84489691185E+02  0.32331788885E+02 -0.98421707150E+02  0.18301826392E+03  0.12500000000E+03 0.  0.
</event>
<event>
 5    0  0.5612316E-005  0.3240315E+03  0.7546771E-02  0.1073809E+00
         21   -1    0    0  502  501  0.00000000000E+00  0.00000000000E+00  0.19304085036E+03  0.19304085036E+03  0.00000000000E+00 0. -1.
         21   -1    0    0  501  502 -0.00000000000E+00 -0.00000000000E+00 -0.54390781850E+03  0.54390781850E+03  0.00000000000E+00 0. -1.
         25    1    1    2    0    0  0.20061598324E+03  0.51939292653E+02 -0.12776074690E+02  0.24234828437E+03  0.12500000000E+03 0.  0.
         25    1    1    2    0    0 -0.10770654560E+02  0.52440015679E+01 -0.13618508592E+03  0.18524277092E+03  0.12500000000E+03 0.  0.
         25    1    1    2    0    0 -0.18984532868E+03 -0.57183294221E+02 -0.20190580753E+03  0.30935761357E+03  0.12500000000E+03 0.  0.
</event>
<event>
 5    0  0.5612316E-005  0.2547007E+03  0.7546771E-02  0.1110370E+00
         21   -1    0    0  502  501  0.00000000000E+00  0.00000000000E+00  0.18193376837E+04  0.18193376837E+04  0.00000000000E+00 0. -1.
         21   -1    0    0  501  502 -0.00000000000E+00 -0.00000000000E+00 -0.35657172386E+02  0.35657172386E+02  0.00000000000E+00 0. -1.
         25    1    1    2    0    0 -0.52515446941E+02  0.43976175396E+02  0.46274972574E+03  0.48420458986E+03  0.12500000000E+03 0.  0.
         25    1    1    2    0    0  0.10652174071E+03  0.76015987625E+02  0.56004250833E+03  0.58855579409E+03  0.12500000000E+03 0.  0.
         25    1    1    2    0    0 -0.54006293768E+02 -0.11999216302E+03  0.76088827725E+03  0.78223447214E+03  0.12500000000E+03 0.  0.
</event>
<event>
 5    0  0.5612316E-005  0.3440524E+03  0.7546771E-02  0.1065083E+00
         21   -1    0    0  502  501  0.00000000000E+00  0.00000000000E+00  0.13042928977E+03  0.13042928977E+03  0.00000000000E+00 0. -1.
         21   -1    0    0  501  502 -0.00000000000E+00 -0.00000000000E+00 -0.90755753381E+03  0.90755753381E+03  0.00000000000E+00 0. -1.
         25    1    1    2    0    0  0.13172603038E+03 -0.50373899283E+01 -0.13603192556E+03  0.22695111181E+03  0.12500000000E+03 0.  0.
         25    1    1    2    0    0 -0.26310095795E+03  0.67308682459E+02 -0.32718991878E+03  0.44320516215E+03  0.12500000000E+03 0.  0.
         25    1    1    2    0    0  0.13137492757E+03 -0.62271292531E+02 -0.31390639969E+03  0.36783054962E+03  0.12500000000E+03 0.  0.
</event>
<event>
 5    0  0.6655511E-005  0.3807796E+03  0.7546771E-02  0.1050646E+00
         21   -1    0    0  502  501  0.00000000000E+00  0.00000000000E+00  0.58143383130E+03  0.58143383130E+03  0.00000000000E+00 0.  1.
         21   -1    0    0  501  502 -0.00000000000E+00 -0.00000000000E+00 -0.24937164741E+03  0.24937164741E+03  0.00000000000E+00 0.  1.
         25    1    1    2    0    0 -0.79670341808E+02 -0.10543446216E+03 -0.51454756074E+02  0.18904068635E+03  0.12500000000E+03 0.  0.
         25    1    1    2    0    0 -0.15560492530E+03  0.14122694328E+03  0.20501344615E+03  0.31908220788E+03  0.12500000000E+03 0.  0.
         25    1    1    2    0    0  0.23527526711E+03 -0.35792481118E+02  0.17850349382E+03  0.32268258448E+03  0.12500000000E+03 0.  0.
</event>
<event>
 5    0  0.5612316E-005  0.3067105E+03  0.7546771E-02  0.1081933E+00
         21   -1    0    0  502  501  0.00000000000E+00  0.00000000000E+00  0.59895741757E+02  0.59895741757E+02  0.00000000000E+00 0.  1.
         21   -1    0    0  501  502 -0.00000000000E+00 -0.00000000000E+00 -0.15705848263E+04  0.15705848263E+04  0.00000000000E+00 0.  1.
         25    1    1    2    0    0  0.80891345184E+02  0.39695528121E+02 -0.51940891392E+03  0.54178387254E+03  0.12500000000E+03 0.  0.
         25    1    1    2    0    0 -0.17990650648E+03 -0.68583204683E+02 -0.29492425862E+03  0.37373162210E+03  0.12500000000E+03 0.  0.
         25    1    1    2    0    0  0.99015161297E+02  0.28887676562E+02 -0.69635591199E+03  0.71496507341E+03  0.12500000000E+03 0.  0.
</event>
<event>
 5    0  0.5612316E-005  0.4569454E+03  0.7546771E-02  0.1025671E+00
         21   -1    0    0  502  501  0.00000000000E+00  0.00000000000E+00  0.83300571866E+03  0.83300571866E+03  0.00000000000E+00 0. -1.
         21   -1    0    0  501  502 -0.00000000000E+00 -0.00000000000E+00 -0.25065748085E+03  0.25065748085E+03  0.00000000000E+00 0. -1.
         25    1    1    2    0    0 -0.81487869249E+02  0.12314376909E+03  0.23640012896E+03  0.30547451886E+03  0.12500000000E+03 0.  0.
         25    1    1    2    0    0  0.16427584595E+03 -0.91682397193E+02 -0.14197258420E+03  0.26678348934E+03  0.12500000000E+03 0.  0.
         25    1    1    2    0    0 -0.82787976704E+02 -0.31461371897E+02  0.48792069305E+03  0.51140519132E+03  0.12500000000E+03 0.  0.
</event>
<event>
 5    0  0.6513295E-005  0.2786423E+03  0.7546771E-02  0.1096433E+00
         21   -1    0    0  502  501  0.00000000000E+00  0.00000000000E+00  0.17135178281E+03  0.17135178281E+03  0.00000000000E+00 0. -1.
         21   -1    0    0  501  502 -0.00000000000E+00 -0.00000000000E+00 -0.45311173820E+03  0.45311173820E+03  0.00000000000E+00 0. -1.
         25    1    1    2    0    0 -0.61410071725E+02 -0.11330149222E+03 -0.68223723031E+02  0.19206223323E+03  0.12500000000E+03 0.  0.
         25    1    1    2    0    0  0.36994580608E+02  0.15465686252E+03 -0.21934164121E+03  0.29836739045E+03  0.12500000000E+03 0.  0.
         25    1    1    2    0    0  0.24415491116E+02 -0.41355370301E+02  0.58054088493E+01  0.13403389732E+03  0.12500000000E+03 0.  0.
</event>
<event>
 5    0  0.5612316E-005  0.3140429E+03  0.7546771E-02  0.1078424E+00
         21   -1    0    0  502  501  0.00000000000E+00  0.00000000000E+00  0.28921937272E+03  0.28921937272E+03  0.00000000000E+00 0. -1.
         21   -1    0    0  501  502 -0.00000000000E+00 -0.00000000000E+00 -0.34099707242E+03  0.34099707242E+03  0.00000000000E+00 0. -1.
         25    1    1    2    0    0  0.11067023571E+03 -0.12722078413E+02  0.27068942362E+02  0.16960978743E+03  0.12500000000E+03 0.  0.
         25    1    1    2    0    0 -0.75668765516E+02  0.18211367837E+03 -0.81142903718E+02  0.24718479878E+03  0.12500000000E+03 0.  0.
         25    1    1    2    0    0 -0.35001470189E+02 -0.16939159996E+03  0.22962616548E+01  0.21342185893E+03  0.12500000000E+03 0.  0.
</event>
<event>
 5    0  0.5612316E-005  0.3358899E+03  0.7546771E-02  0.1068560E+00
         21   -1    0    0  502  501  0.00000000000E+00  0.00000000000E+00  0.39047729164E+02  0.39047729164E+02  0.00000000000E+00 0.  1.
         21   -1    0    0  501  502 -0.00000000000E+00 -0.00000000000E+00 -0.28893361310E+04  0.28893361310E+04  0.00000000000E+00 0.  1.
         25    1    1    2    0    0 -0.18505055677E+03 -0.49326686532E+02 -0.67911874532E+03  0.71659200442E+03  0.12500000000E+03 0.  0.
         25    1    1    2    0    0  0.17610350373E+03 -0.89080410360E+02 -0.11091482784E+04  0.11334825394E+04  0.12500000000E+03 0.  0.
         25    1    1    2    0    0  0.89470530422E+01  0.13840709689E+03 -0.10620213781E+04  0.10783093164E+04  0.12500000000E+03 0.  0.
</event>
<event>
 5    0  0.5612316E-005  0.2516632E+03  0.7546771E-02  0.1112258E+00
         21   -1    0    0  502  501  0.00000000000E+00  0.00000000000E+00  0.51793509161E+03  0.51793509161E+03  0.00000000000E+00 0.  1.
         21   -1    0    0  501  502 -0.00000000000E+00 -0.00000000000E+00 -0.12228246446E+03  0.12228246446E+03  0.00000000000E+00 0.  1.
         25    1    1    2    0    0 -0.13416568487E+03 -0.12616049131E+02  0.11435727257E+03  0.21647674582E+03  0.12500000000E+03 0.  0.
         25    1    1    2    0    0  0.83092541429E+02  0.75167200136E+02  0.14117327562E+03  0.21933848766E+03  0.12500000000E+03 0.  0.
         25    1    1    2    0    0  0.51073143439E+02 -0.62551151005E+02  0.14012207895E+03  0.20440232260E+03  0.12500000000E+03 0.  0.
</event>
<event>
 5    0  0.5612316E-005  0.4418100E+03  0.7546771E-02  0.1030193E+00
         21   -1    0    0  502  501  0.00000000000E+00  0.00000000000E+00  0.22335484499E+03  0.22335484499E+03  0.00000000000E+00 0.  1.
         21   -1    0    0  501  502 -0.00000000000E+00 -0.00000000000E+00 -0.87392804038E+03  0.87392804038E+03  0.00000000000E+00 0.  1.
         25    1    1    2    0    0 -0.17908549023E+03 -0.16423370032E+02 -0.10233652489E+03  0.24174181314E+03  0.12500000000E+03 0.  0.
         25    1    1    2    0    0  0.34926309371E+03 -0.23454125993E+02 -0.51944536371E+03  0.63873569693E+03  0.12500000000E+03 0.  0.
         25    1    1    2    0    0 -0.17017760348E+03  0.39877496025E+02 -0.28791306792E+02  0.21680537531E+03  0.12500000000E+03 0.  0.
</event>
<event>
 5    0  0.5612316E-005  0.2690710E+03  0.7546771E-02  0.1101812E+00
         21   -1    0    0  502  501  0.00000000000E+00  0.00000000000E+00  0.12465839766E+03  0.12465839766E+03  0.00000000000E+00 0. -1.
         21   -1    0    0  501  502 -0.00000000000E+00 -0.00000000000E+00 -0.58078078616E+03  0.58078078616E+03  0.00000000000E+00 0. -1.
         25    1    1    2    0    0 -0.58278574597E+02  0.11214571437E+03 -0.18490558705E+03  0.25649196796E+03  0.12500000000E+03 0.  0.
         25    1    1    2    0    0  0.55939688994E+02 -0.17083109004E+03 -0.17993189677E+03  0.28339547915E+03  0.12500000000E+03 0.  0.
         25    1    1    2    0    0  0.23388856031E+01  0.58685375668E+02 -0.91284904680E+02  0.16555173670E+03  0.12500000000E+03 0.  0.
</event>
<event>
 5    0  0.5612316E-005  0.8231018E+03  0.7546771E-02  0.9527167E-01
         21   -1    0    0  502  501  0.00000000000E+00  0.00000000000E+00  0.49175086915E+03  0.49175086915E+03  0.00000000000E+00 0.  1.
         21   -1    0    0  501  502 -0.00000000000E+00 -0.00000000000E+00 -0.13777230745E+04  0.13777230745E+04  0.00000000000E+00 0.  1.
         25    1    1    2    0    0 -0.51258275850E+03  0.30052391107E+03  0.12009033838E+02  0.60730957701E+03  0.12500000000E+03 0.  0.
         25    1    1    2    0    0  0.47055131094E+02  0.90942626404E+02  0.10295462496E+02  0.16191276419E+03  0.12500000000E+03 0.  0.
         25    1    1    2    0    0  0.46552762741E+03 -0.39146653747E+03 -0.90827670168E+03  0.11002516024E+04  0.12500000000E+03 0.  0.
</event>
<event>
 5    0  0.5612316E-005  0.2782278E+03  0.7546771E-02  0.1096661E+00
         21   -1    0    0  502  501  0.00000000000E+00  0.00000000000E+00  0.18405151799E+04  0.18405151799E+04  0.00000000000E+00 0.  1.
         21   -1    0    0  501  502 -0.00000000000E+00 -0.00000000000E+00 -0.42059274191E+02  0.42059274191E+02  0.00000000000E+00 0.  1.
         25    1    1    2    0    0  0.15692128334E+03 -0.45125502312E+02  0.89996863172E+03  0.92316257409E+03  0.12500000000E+03 0.  0.
         25    1    1    2    0    0 -0.12452619032E+01  0.32577095379E+01  0.44340510026E+03  0.46070082080E+03  0.12500000000E+03 0.  0.
         25    1    1    2    0    0 -0.15567602144E+03  0.41867792775E+02  0.45508217372E+03  0.49871105919E+03  0.12500000000E+03 0.  0.
</event>
<event>
 5    0  0.5612316E-005  0.5454892E+03  0.7546771E-02  0.1002543E+00
         21   -1    0    0  502  501  0.00000000000E+00  0.00000000000E+00  0.15114600739E+03  0.15114600739E+03  0.00000000000E+00 0.  1.
         21   -1    0    0  501  502 -0.00000000000E+00 -0.00000000000E+00 -0.19686825110E+04  0.19686825110E+04  0.00000000000E+00 0.  1.
         25    1    1    2    0    0 -0.13667716015E+03 -0.27297750153E+03 -0.43232141954E+03  0.54380527052E+03  0.12500000000E+03 0.  0.
         25    1    1    2    0    0  0.31227600995E+03  0.27800858459E+03 -0.12439229948E+04  0.13182467510E+04  0.12500000000E+03 0.  0.
         25    1    1    2    0    0 -0.17559884980E+03 -0.50310830554E+01 -0.14129208925E+03  0.25777649686E+03  0.12500000000E+03 0.  0.
</event>
<event>
 5    0  0.5612316E-005  0.3210581E+03  0.7546771E-02  0.1075163E+00
         21   -1    0    0  502  501  0.00000000000E+00  0.00000000000E+00  0.64912157055E+02  0.64912157055E+02  0.00000000000E+00 0.  1.
         21   -1    0    0  501  502 -0.00000000000E+00 -0.00000000000E+00 -0.15879662619E+04  0.15879662619E+04  0.00000000000E+00 0.  1.
         25    1    1    2    0    0 -0.73596723658E+02  0.16849453519E+03 -0.26696384238E+03  0.34742132816E+03  0.12500000000E+03 0.  0.
         25    1    1    2    0    0  0.46882331117E+02 -0.83483924447E+02 -0.95074421530E+03  0.96369449596E+03  0.12500000000E+03 0.  0.
         25    1    1    2    0    0  0.26714392541E+02 -0.85010610741E+02 -0.30534604712E+03  0.34176259479E+03  0.12500000000E+03 0.  0.
</event>
<event>
 5    0  0.5612316E-005  0.2391907E+03  0.7546771E-02  0.1120333E+00
         21   -1    0    0  502  501  0.00000000000E+00  0.00000000000E+00  0.12831677292E+04  0.12831677292E+04  0.00000000000E+00 0.  1.
         21   -1    0    0  501  502 -0.00000000000E+00 -0.00000000000E+00 -0.44586694348E+02  0.44586694348E+02  0.00000000000E+00 0.  1.
         25    1    1    2    0    0 -0.42407764768E+02 -0.46510684150E+02  0.32958645755E+03  0.35806967933E+03  0.12500000000E+03 0.  0.
         25    1    1    2    0    0  0.64153473285E+02 -0.64398523471E+02  0.29566379579E+03  0.33362391716E+03  0.12500000000E+03 0.  0.
         25    1    1    2    0    0 -0.21745708517E+02  0.11090920762E+03  0.61333078154E+03  0.63606082709E+03  0.12500000000E+03 0.  0.
</event>
<event>
 5    0  0.5612316E-005  0.2643387E+03  0.7546771E-02  0.1104564E+00
         21   -1    0    0  502  501  0.00000000000E+00  0.00000000000E+00  0.47516774933E+03  0.47516774933E+03  0.00000000000E+00 0.  1.
         21   -1    0    0  501  502 -0.00000000000E+00 -0.00000000000E+00 -0.14705321130E+03  0.14705321130E+03  0.00000000000E+00 0.  1.
         25    1    1    2    0    0  0.18129233732E+02  0.46290693218E+02  0.28075039095E+03  0.31131540182E+03  0.12500000000E+03 0.  0.
         25    1    1    2    0    0 -0.37986881486E+02  0.13320051178E+02 -0.49934249490E+02  0.14049503977E+03  0.12500000000E+03 0.  0.
         25    1    1    2    0    0  0.19857647754E+02 -0.59610744395E+02  0.97298396573E+02  0.17041051903E+03  0.12500000000E+03 0.  0.
</event>
<event>
 5    0  0.5612316E-005  0.6562902E+03  0.7546771E-02  0.9795047E-01
         21   -1    0    0  502  501  0.00000000000E+00  0.00000000000E+00  0.16042910172E+03  0.16042910172E+03  0.00000000000E+00 0. -1.
         21   -1    0    0  501  502 -0.00000000000E+00 -0.00000000000E+00 -0.26847796283E+04  0.26847796283E+04  0.00000000000E+00 0. -1.
         25    1    1    2    0    0  0.90569800657E+02 -0.26503534424E+03 -0.41642910967E+03  0.51718935204E+03  0.12500000000E+03 0.  0.
         25    1    1    2    0    0 -0.27308251354E+03  0.51808846026E+03 -0.16821698767E+04  0.17855839957E+04  0.12500000000E+03 0.  0.
         25    1    1    2    0    0  0.18251271289E+03 -0.25305311602E+03 -0.42575154028E+03  0.54243538228E+03  0.12500000000E+03 0.  0.
</event>
<event>
 5    0  0.5612316E-005  0.2567329E+03  0.7546771E-02  0.1109122E+00
         21   -1    0    0  502  501  0.00000000000E+00  0.00000000000E+00  0.39747028235E+03  0.39747028235E+03  0.00000000000E+00 0. -1.
         21   -1    0    0  501  502 -0.00000000000E+00 -0.00000000000E+00 -0.16582818615E+03  0.16582818615E+03  0.00000000000E+00 0. -1.
         25    1    1    2    0    0 -0.10681393802E+03 -0.42658487024E+02  0.37243324490E+02  0.17389947984E+03  0.12500000000E+03 0.  0.
         25    1    1    2    0    0 -0.33819844906E+02  0.57535162909E+02  0.12288051428E+03  0.18755985090E+03  0.12500000000E+03 0.  0.
         25    1    1    2    0    0  0.14063378293E+03 -0.14876675886E+02  0.71518257434E+02  0.20183913776E+03  0.12500000000E+03 0.  0.
</event>
<event>
 5    0  0.5612316E-005  0.3429767E+03  0.7546771E-02  0.1065535E+00
         21   -1    0    0  502  501  0.00000000000E+00  0.00000000000E+00  0.15305237921E+03  0.15305237921E+03  0.00000000000E+00 0. -1.
         21   -1    0    0  501  502 -0.00000000000E+00 -0.00000000000E+00 -0.76858002364E+03  0.76858002364E+03  0.00000000000E+00 0. -1.
         25    1    1    2    0    0 -0.13395306096E+03 -0.77328149882E+02 -0.36738447509E+03  0.41775521282E+03  0.12500000000E+03 0.  0.
         25    1    1    2    0    0 -0.87250894111E+02 -0.13568896360E+02 -0.15649614664E+03  0.21889010344E+03  0.12500000000E+03 0.  0.
         25    1    1    2    0    0  0.22120395507E+03  0.90897046242E+02 -0.91647022700E+02  0.28498708659E+03  0.12500000000E+03 0.  0.
</event>
<event>
 5    0  0.5612316E-005  0.2349814E+03  0.7546771E-02  0.1123182E+00
         21   -1    0    0  502  501  0.00000000000E+00  0.00000000000E+00  0.81007955316E+02  0.81007955316E+02  0.00000000000E+00 0. -1.
         21   -1    0    0  501  502 -0.00000000000E+00 -0.00000000000E+00 -0.68161526254E+03  0.68161526254E+03  0.00000000000E+00 0. -1.
         25    1    1    2    0    0  0.46151529455E+02  0.76339564085E+01 -0.92261578958E+02  0.16225116306E+03  0.12500000000E+03 0.  0.
         25    1    1    2    0    0 -0.37592657325E+02  0.78616395972E+02 -0.34509692976E+03  0.37724082034E+03  0.12500000000E+03 0.  0.
         25    1    1    2    0    0 -0.85588721294E+01 -0.86250352380E+02 -0.16324879850E+03  0.22313123446E+03  0.12500000000E+03 0.  0.
</event>
<event>
 5    0  0.5612316E-005  0.2527354E+03  0.7546771E-02  0.1111588E+00
         21   -1    0    0  502  501  0.00000000000E+00  0.00000000000E+00  0.30312815177E+03  0.30312815177E+03  0.00000000000E+00 0.  1.
         21   -1    0    0  501  502 -0.00000000000E+00 -0.00000000000E+00 -0.21072003521E+03  0.21072003521E+03  0.00000000000E+00 0.  1.
         25    1    1    2    0    0  0.25664949926E+02  0.10912275477E+03 -0.18698018015E+02  0.16894105819E+03  0.12500000000E+03 0.  0.
         25    1    1    2    0    0  0.33471824274E+02 -0.10892600262E+03  0.26505410718E+01  0.16916637501E+03  0.12500000000E+03 0.  0.
         25    1    1    2    0    0 -0.59136774200E+02 -0.19675215297E+00  0.10845559350E+03  0.17574075377E+03  0.12500000000E+03 0.  0.
</event>
<event>
 5    0  0.5612316E-005  0.3170212E+03  0.7546771E-02  0.1077028E+00
         21   -1    0    0  502  501  0.00000000000E+00  0.00000000000E+00  0.13569346830E+03  0.13569346830E+03  0.00000000000E+00 0. -1.
         21   -1    0    0  501  502 -0.00000000000E+00 -0.00000000000E+00 -0.74065813595E+03  0.74065813595E+03  0.00000000000E+00 0. -1.
         25    1    1    2    0    0 -0.14056160308E+03 -0.30156382599E+02 -0.40282735008E+03  0.44560278909E+03  0.12500000000E+03 0.  0.
         25    1    1    2    0    0  0.98018466436E+02 -0.49072543915E+01  0.29678352145E+02  0.16167097913E+03  0.12500000000E+03 0.  0.
         25    1    1    2    0    0  0.42543136644E+02  0.35063636991E+02 -0.23181566971E+03  0.26907783602E+03  0.12500000000E+03 0.  0.
</event>
<event>
 5    0  0.5612316E-005  0.4754640E+03  0.7546771E-02  0.1020389E+00
         21   -1    0    0  502  501  0.00000000000E+00  0.00000000000E+00  0.32631685565E+04  0.32631685565E+04  0.00000000000E+00 0.  1.
         21   -1    0    0  501  502 -0.00000000000E+00 -0.00000000000E+00 -0.69278069925E+02  0.69278069925E+02  0.00000000000E+00 0.  1.
         25    1    1    2    0    0  0.25176308225E+03  0.22801948812E+02  0.11031132587E+04  0.11385905498E+04  0.12500000000E+03 0.  0.
         25    1    1    2    0    0 -0.34966574653E+03 -0.18062187007E+03  0.16311715738E+04  0.16826277359E+04  0.12500000000E+03 0.  0.
         25    1    1    2    0    0  0.97902664274E+02  0.15781992126E+03  0.45960565406E+03  0.51122834082E+03  0.12500000000E+03 0.  0.
</event>
<event>
 5    0  0.5612316E-005  0.2159893E+03  0.7546771E-02  0.1136909E+00
         21   -1    0    0  502  501  0.00000000000E+00  0.00000000000E+00  0.48091251352E+03  0.48091251352E+03  0.00000000000E+00 0.  1.
         21   -1    0    0  501  502 -0.00000000000E+00 -0.00000000000E+00 -0.97005921432E+02  0.97005921432E+02  0.00000000000E+00 0.  1.
         25    1    1    2    0    0 -0.76646386126E+02  0.36387603088E+02  0.12798492248E+03  0.19799966299E+03  0.12500000000E+03 0.  0.
         25    1    1    2    0    0  0.18621324877E+02 -0.61629881942E+02  0.12367804473E+03  0.18725985912E+03  0.12500000000E+03 0.  0.
         25    1    1    2    0    0  0.58025061249E+02  0.25242278855E+02  0.13224362488E+03  0.19265891284E+03  0.12500000000E+03 0.  0.
</event>
<event>
 5    0  0.5612316E-005  0.2379529E+03  0.7546771E-02  0.1121164E+00
         21   -1    0    0  502  501  0.00000000000E+00  0.00000000000E+00  0.25081992619E+03  0.25081992619E+03  0.00000000000E+00 0.  1.
         21   -1    0    0  501  502 -0.00000000000E+00 -0.00000000000E+00 -0.22574600224E+03  0.22574600224E+03  0.00000000000E+00 0.  1.
         25    1    1    2    0    0 -0.65264493474E+01 -0.51300153333E+02  0.71497978768E+02  0.15300738950E+03  0.12500000000E+03 0.  0.
         25    1    1    2    0    0 -0.64431069321E+02 -0.42339065174E+02 -0.43527813298E+01  0.14692823363E+03  0.12500000000E+03 0.  0.
         25    1    1    2    0    0  0.70957518668E+02  0.93639218508E+02 -0.42071273491E+02  0.17663030530E+03  0.12500000000E+03 0.  0.
</event>
<event>
 5    0  0.5612316E-005  0.3414528E+03  0.7546771E-02  0.1066179E+00
         21   -1    0    0  502  501  0.00000000000E+00  0.00000000000E+00  0.78116900498E+02  0.78116900498E+02  0.00000000000E+00 0.  1.
         21   -1    0    0  501  502 -0.00000000000E+00 -0.00000000000E+00 -0.14925069771E+04  0.14925069771E+04  0.00000000000E+00 0.  1.
         25    1    1    2    0    0 -0.53196462693E+02  0.85889682073E+02 -0.95205099963E+02  0.18680447583E+03  0.12500000000E+03 0.  0.
         25    1    1    2    0    0 -0.68984987517E+02 -0.15898453891E+02 -0.10217355620E+04  0.10317849815E+04  0.12500000000E+03 0.  0.
         25    1    1    2    0    0  0.12218145021E+03 -0.69991228181E+02 -0.29744941456E+03  0.35203442022E+03  0.12500000000E+03 0.  0.
</event>
<event>
 5    0  0.5612316E-005  0.4346600E+03  0.7546771E-02  0.1032398E+00
         21   -1    0    0  502  501  0.00000000000E+00  0.00000000000E+00  0.38312230704E+04  0.38312230704E+04  0.00000000000E+00 0. -1.
         21   -1    0    0  501  502 -0.00000000000E+00 -0.00000000000E+00 -0.49313050568E+02  0.49313050568E+02  0.00000000000E+00 0. -1.
         25    1    1    2    0    0  0.14499903571E+02  0.23053134142E+03  0.27345128800E+04  0.27470967652E+04  0.12500000000E+03 0.  0.
         25    1    1    2    0    0 -0.53199671464E+02 -0.42952390557E+01  0.60086254672E+03  0.61604338660E+03  0.12500000000E+03 0.  0.
         25    1    1    2    0    0  0.38699767894E+02 -0.22623610236E+03  0.44653459310E+03  0.51739596914E+03  0.12500000000E+03 0.  0.
</event>
<event>
 5    0  0.5612316E-005  0.3991625E+03  0.7546771E-02  0.1044070E+00
         21   -1    0    0  502  501  0.00000000000E+00  0.00000000000E+00  0.10200460237E+03  0.10200460237E+03  0.00000000000E+00 0.  1.
         21   -1    0    0  501  502 -0.00000000000E+00 -0.00000000000E+00 -0.15619955623E+04  0.15619955623E+04  0.00000000000E+00 0.  1.
         25    1    1    2    0    0  0.13319586392E+03  0.17103023013E+03 -0.28584706035E+03  0.37990264502E+03  0.12500000000E+03 0.  0.
         25    1    1    2    0    0 -0.11525694192E+03 -0.20997175351E+03 -0.31564141509E+03  0.41548381780E+03  0.12500000000E+03 0.  0.
         25    1    1    2    0    0 -0.17938921999E+02  0.38941523381E+02 -0.85850248452E+03  0.86861370188E+03  0.12500000000E+03 0.  0.
</event>
<event>
 5    0  0.5612316E-005  0.3662818E+03  0.7546771E-02  0.1056124E+00
         21   -1    0    0  502  501  0.00000000000E+00  0.00000000000E+00  0.56601376382E+03  0.56601376382E+03  0.00000000000E+00 0.  1.
         21   -1    0    0  501  502 -0.00000000000E+00 -0.00000000000E+00 -0.23703014026E+03  0.23703014026E+03  0.00000000000E+00 0.  1.
         25    1    1    2    0    0  0.11870093152E+03  0.15745655374E+03  0.55588740249E+02  0.23999496974E+03  0.12500000000E+03 0.  0.
         25    1    1    2    0    0 -0.17173427564E+03  0.72471098018E+02  0.10932443896E+03  0.24964285376E+03  0.12500000000E+03 0.  0.
         25    1    1    2    0    0  0.53033344120E+02 -0.22992765175E+03  0.16407044435E+03  0.31340608057E+03  0.12500000000E+03 0.  0.
</event>
<event>
 5    0  0.5612316E-005  0.2842365E+03  0.7546771E-02  0.1093397E+00
         21   -1    0    0  502  501  0.00000000000E+00  0.00000000000E+00  0.23793211709E+03  0.23793211709E+03  0.00000000000E+00 0.  1.
         21   -1    0    0  501  502 -0.00000000000E+00 -0.00000000000E+00 -0.33955237353E+03  0.33955237353E+03  0.00000000000E+00 0.  1.
         25    1    1    2    0    0  0.28802674862E+02 -0.70793231610E+02 -0.17616250511E+03  0.22912770223E+03  0.12500000000E+03 0.  0.
         25    1    1    2    0    0  0.91300474145E+01 -0.29998343810E+01  0.13712415369E+03  0.18579663694E+03  0.12500000000E+03 0.  0.
         25    1    1    2    0    0 -0.37932722276E+02  0.73793065991E+02 -0.62581905018E+02  0.16256015146E+03  0.12500000000E+03 0.  0.
</event>
<event>
 5    0  0.5612316E-005  0.2792092E+03  0.7546771E-02  0.1096122E+00
         21   -1    0    0  502  501  0.00000000000E+00  0.00000000000E+00  0.49812400892E+02  0.49812400892E+02  0.00000000000E+00 0. -1.
         21   -1    0    0  501  502 -0.00000000000E+00 -0.00000000000E+00 -0.15650270257E+04  0.15650270257E+04  0.00000000000E+00 0. -1.
         25    1    1    2    0    0 -0.11508890009E+02  0.15091762372E+03 -0.84453156839E+03  0.86704507017E+03  0.12500000000E+03 0.  0.
         25    1    1    2    0    0 -0.61737814802E+01  0.10337009443E+02 -0.23830264919E+03  0.26936614849E+03  0.12500000000E+03 0.  0.
         25    1    1    2    0    0  0.17682671489E+02 -0.16125463316E+03 -0.43238040720E+03  0.47842820790E+03  0.12500000000E+03 0.  0.
</event>
<event>
 5    0  0.5612316E-005  0.3068268E+03  0.7546771E-02  0.1081877E+00
         21   -1    0    0  502  501  0.00000000000E+00  0.00000000000E+00  0.37232264041E+03  0.37232264041E+03  0.00000000000E+00 0. -1.
         21   -1    0    0  501  502 -0.00000000000E+00 -0.00000000000E+00 -0.25285237387E+03  0.25285237387E+03  0.00000000000E+00 0. -1.
         25    1    1    2    0    0 -0.15810925571E+01  0.85090040220E+02 -0.89790248241E+02  0.17586956382E+03  0.12500000000E+03 0.  0.
         25    1    1    2    0    0 -0.59758952110E+02 -0.84223837613E+02 -0.37087643347E+02  0.16632883234E+03  0.12500000000E+03 0.  0.
         25    1    1    2    0    0  0.61340044667E+02 -0.86620260675E+00  0.24634815813E+03  0.28297661811E+03  0.12500000000E+03 0.  0.
</event>
<event>
 5    0  0.5612316E-005  0.3380606E+03  0.7546771E-02  0.1067625E+00
         21   -1    0    0  502  501  0.00000000000E+00  0.00000000000E+00  0.55444785489E+03  0.55444785489E+03  0.00000000000E+00 0.  1.
         21   -1    0    0  501  502 -0.00000000000E+00 -0.00000000000E+00 -0.20612389895E+03  0.20612389895E+03  0.00000000000E+00 0.  1.
         25    1    1    2    0    0  0.24453060858E+02  0.17746429752E+03  0.28328089439E+03  0.35772139187E+03  0.12500000000E+03 0.  0.
         25    1    1    2    0    0 -0.43900780139E+02 -0.22376743793E+03  0.65376377338E+02  0.26813842598E+03  0.12500000000E+03 0.  0.
         25    1    1    2    0    0  0.19447719281E+02  0.46303140416E+02 -0.33331579014E+00  0.13471193599E+03  0.12500000000E+03 0.  0.
</event>
<event>
 5    0  0.5889694E-005  0.3584397E+03  0.7546771E-02  0.1059203E+00
         21   -1    0    0  502  501  0.00000000000E+00  0.00000000000E+00  0.49856616876E+03  0.49856616876E+03  0.00000000000E+00 0. -1.
         21   -1    0    0  501  502 -0.00000000000E+00 -0.00000000000E+00 -0.25769695956E+03  0.25769695956E+03  0.00000000000E+00 0. -1.
         25    1    1    2    0    0 -0.13253185727E+03  0.19726886340E+03 -0.63071742145E+02  0.27583100318E+03  0.12500000000E+03 0.  0.
         25    1    1    2    0    0  0.71528518165E+02 -0.44527103866E+02  0.19625459783E+03  0.24746688477E+03  0.12500000000E+03 0.  0.
         25    1    1    2    0    0  0.61003339101E+02 -0.15274175954E+03  0.10768635351E+03  0.23296524037E+03  0.12500000000E+03 0.  0.
</event>
<event>
 5    0  0.5612316E-005  0.3138204E+03  0.7546771E-02  0.1078529E+00
         21   -1    0    0  502  501  0.00000000000E+00  0.00000000000E+00  0.64246537343E+02  0.64246537343E+02  0.00000000000E+00 0.  1.
         21   -1    0    0  501  502 -0.00000000000E+00 -0.00000000000E+00 -0.15328957125E+04  0.15328957125E+04  0.00000000000E+00 0.  1.
         25    1    1    2    0    0  0.17220867683E+02 -0.16608487022E+03 -0.65172033581E+03  0.68428439885E+03  0.12500000000E+03 0.  0.
         25    1    1    2    0    0  0.11009612763E+03  0.13461303107E+02 -0.41484287621E+03  0.44723816467E+03  0.12500000000E+03 0.  0.
         25    1    1    2    0    0 -0.12731699531E+03  0.15262356711E+03 -0.40208596313E+03  0.46561968631E+03  0.12500000000E+03 0.  0.
</event>
<event>
 5    0  0.5612316E-005  0.2512544E+03  0.7546771E-02  0.1112515E+00
         21   -1    0    0  502  501  0.00000000000E+00  0.00000000000E+00  0.22140623613E+02  0.22140623613E+02  0.00000000000E+00 0. -1.
         21   -1    0    0  501  502 -0.00000000000E+00 -0.00000000000E+00 -0.28512649860E+04  0.28512649860E+04  0.00000000000E+00 0. -1.
         25    1    1    2    0    0  0.26719302587E+02  0.31050594044E+02 -0.14684081580E+04  0.14742881601E+04  0.12500000000E+03 0.  0.
         25    1    1    2    0    0  0.73124876040E+02  0.40382535725E+02 -0.62797377149E+03  0.64571979555E+03  0.12500000000E+03 0.  0.
         25    1    1    2    0    0 -0.99844178627E+02 -0.71433129769E+02 -0.73274243296E+03  0.75339765403E+03  0.12500000000E+03 0.  0.
</event>
<event>
 5    0  0.5612316E-005  0.4834550E+03  0.7546771E-02  0.1018190E+00
         21   -1    0    0  502  501  0.00000000000E+00  0.00000000000E+00  0.21736078263E+03  0.21736078263E+03  0.00000000000E+00 0.  1.
         21   -1    0    0  501  502 -0.00000000000E+00 -0.00000000000E+00 -0.10753030960E+04  0.10753030960E+04  0.00000000000E+00 0.  1.
         25    1    1    2    0    0 -0.15461044916E+03  0.25304087491E+02 -0.87225019708E+03  0.89498049931E+03  0.12500000000E+03 0.  0.
         25    1    1    2    0    0  0.22236407707E+02  0.63391743997E+01 -0.11557845377E+03  0.17180809624E+03  0.12500000000E+03 0.  0.
         25    1    1    2    0    0  0.13237404145E+03 -0.31643261890E+02  0.12988633743E+03  0.22587528312E+03  0.12500000000E+03 0.  0.
</event>
<event>
 5    0  0.5612316E-005  0.2863505E+03  0.7546771E-02  0.1092270E+00
         21   -1    0    0  502  501  0.00000000000E+00  0.00000000000E+00  0.14167568829E+04  0.14167568829E+04  0.00000000000E+00 0. -1.
         21   -1    0    0  501  502 -0.00000000000E+00 -0.00000000000E+00 -0.57876261163E+02  0.57876261163E+02  0.00000000000E+00 0. -1.
         25    1    1    2    0    0 -0.19394505847E+02  0.97026203745E+02  0.58677549011E+03  0.60804663214E+03  0.12500000000E+03 0.  0.
         25    1    1    2    0    0 -0.12604255966E+03 -0.95334483586E+02  0.38166125837E+03  0.43158510950E+03  0.12500000000E+03 0.  0.
         25    1    1    2    0    0  0.14543706550E+03 -0.16917201587E+01  0.39044387329E+03  0.43500140244E+03  0.12500000000E+03 0.  0.
</event>
<event>
 5    0  0.5612316E-005  0.2407853E+03  0.7546771E-02  0.1119271E+00
         21   -1    0    0  502  501  0.00000000000E+00  0.00000000000E+00  0.27165037984E+03  0.27165037984E+03  0.00000000000E+00 0. -1.
         21   -1    0    0  501  502 -0.00000000000E+00 -0.00000000000E+00 -0.21342706071E+03  0.21342706071E+03  0.00000000000E+00 0. -1.
         25    1    1    2    0    0  0.24087462299E+02 -0.96349696626E+01  0.15929681198E+03  0.20414091405E+03  0.12500000000E+03 0.  0.
         25    1    1    2    0    0 -0.17588716861E+02  0.22302658427E+02 -0.85693024662E+02  0.15419165350E+03  0.12500000000E+03 0.  0.
         25    1    1    2    0    0 -0.64987454377E+01 -0.12667688765E+02 -0.15380468183E+02  0.12674487300E+03  0.12500000000E+03 0.  0.
</event>
<event>
 5    0  0.6047192E-005  0.4305392E+03  0.7546771E-02  0.1033690E+00
         21   -1    0    0  502  501  0.00000000000E+00  0.00000000000E+00  0.19804326853E+03  0.19804326853E+03  0.00000000000E+00 0.  1.
         21   -1    0    0  501  502 -0.00000000000E+00 -0.00000000000E+00 -0.93597738270E+03  0.93597738270E+03  0.00000000000E+00 0.  1.
         25    1    1    2    0    0 -0.27890592196E+03  0.47269496554E+02 -0.17804186451E+03  0.35685686784E+03  0.12500000000E+03 0.  0.
         25    1    1    2    0    0  0.77160928909E+02  0.41780904491E+02 -0.49140016633E+03  0.51458582997E+03  0.12500000000E+03 0.  0.
         25    1    1    2    0    0  0.20174499305E+03 -0.89050401046E+02 -0.68492083326E+02  0.26257795343E+03  0.12500000000E+03 0.  0.
</event>
<event>
 5    0  0.5612316E-005  0.4166856E+03  0.7546771E-02  0.1038150E+00
         21   -1    0    0  502  501  0.00000000000E+00  0.00000000000E+00  0.12744580996E+04  0.12744580996E+04  0.00000000000E+00 0.  1.
         21   -1    0    0  501  502 -0.00000000000E+00 -0.00000000000E+00 -0.13623582460E+03  0.13623582460E+03  0.00000000000E+00 0.  1.
         25    1    1    2    0    0 -0.10434894595E+03 -0.11976540108E+03  0.59872641636E+03  0.63192624211E+03  0.12500000000E+03 0.  0.
         25    1    1    2    0    0 -0.15498792255E+03  0.78207910819E+02  0.40559813520E+03  0.45855488301E+03  0.12500000000E+03 0.  0.
         25    1    1    2    0    0  0.25933686850E+03  0.41557490260E+02  0.13389772344E+03  0.32021279910E+03  0.12500000000E+03 0.  0.
</event>
<event>
 5    0  0.5612316E-005  0.3419898E+03  0.7546771E-02  0.1065952E+00
         21   -1    0    0  502  501  0.00000000000E+00  0.00000000000E+00  0.18806695474E+03  0.18806695474E+03  0.00000000000E+00 0.  1.
         21   -1    0    0  501  502 -0.00000000000E+00 -0.00000000000E+00 -0.62189034107E+03  0.62189034107E+03  0.00000000000E+00 0.  1.
         25    1    1    2    0    0  0.47628676723E+02 -0.34846290626E+02  0.56192210748E+02  0.14921568070E+03  0.12500000000E+03 0.  0.
         25    1    1    2    0    0  0.14381355421E+03 -0.46893814883E+02 -0.17436941203E+03  0.26250916194E+03  0.12500000000E+03 0.  0.
         25    1    1    2    0    0 -0.19144223094E+03  0.81740105509E+02 -0.31564618505E+03  0.39823245319E+03  0.12500000000E+03 0.  0.
</event>
<event>
 5    0  0.5612316E-005  0.2422233E+03  0.7546771E-02  0.1118321E+00
         21   -1    0    0  502  501  0.00000000000E+00  0.00000000000E+00  0.84985379263E+03  0.84985379263E+03  0.00000000000E+00 0. -1.
         21   -1    0    0  501  502 -0.00000000000E+00 -0.00000000000E+00 -0.69037897135E+02  0.69037897135E+02  0.00000000000E+00 0. -1.
         25    1    1    2    0    0  0.50146039312E+00  0.75805077361E+02  0.16089069749E+03  0.21738785098E+03  0.12500000000E+03 0.  0.
         25    1    1    2    0    0 -0.38404651241E+02 -0.71157637346E+02  0.50819963451E+03  0.52955660236E+03  0.12500000000E+03 0.  0.
         25    1    1    2    0    0  0.37903190848E+02 -0.46474400157E+01  0.11172556351E+03  0.17194723643E+03  0.12500000000E+03 0.  0.
</event>
<event>
 5    0  0.5612316E-005  0.3020602E+03  0.7546771E-02  0.1084215E+00
         21   -1    0    0  502  501  0.00000000000E+00  0.00000000000E+00  0.21786313352E+04  0.21786313352E+04  0.00000000000E+00 0. -1.
         21   -1    0    0  501  502 -0.00000000000E+00 -0.00000000000E+00 -0.41879674094E+02  0.41879674094E+02  0.00000000000E+00 0. -1.
         25    1    1    2    0    0  0.12960885027E+03 -0.11644052496E+03  0.10747837463E+04  0.10959662181E+04  0.12500000000E+03 0.  0.
         25    1    1    2    0    0 -0.91367219335E+02  0.76150917310E+02  0.88077656110E+03  0.89751840179E+03  0.12500000000E+03 0.  0.
         25    1    1    2    0    0 -0.38241630933E+02  0.40289607647E+02  0.18119135368E+03  0.22702638936E+03  0.12500000000E+03 0.  0.
</event>
<event>
 5    0  0.5612316E-005  0.2553537E+03  0.7546771E-02  0.1109967E+00
         21   -1    0    0  502  501  0.00000000000E+00  0.00000000000E+00  0.18448815027E+04  0.18448815027E+04  0.00000000000E+00 0.  1.
         21   -1    0    0  501  502 -0.00000000000E+00 -0.00000000000E+00 -0.35344011737E+02  0.35344011737E+02  0.00000000000E+00 0.  1.
         25    1    1    2    0    0  0.19955622615E+02 -0.77216273725E+01  0.69766905715E+03  0.70910151862E+03  0.12500000000E+03 0.  0.
         25    1    1    2    0    0 -0.16561715201E+02  0.13804032258E+03  0.58643930650E+03  0.61552049623E+03  0.12500000000E+03 0.  0.
         25    1    1    2    0    0 -0.33939074142E+01 -0.13031869521E+03  0.52542912734E+03  0.55560349962E+03  0.12500000000E+03 0.  0.
</event>
<event>
 5    0  0.5612316E-005  0.3053951E+03  0.7546771E-02  0.1082574E+00
         21   -1    0    0  502  501  0.00000000000E+00  0.00000000000E+00  0.30443381068E+02  0.30443381068E+02  0.00000000000E+00 0. -1.
         21   -1    0    0  501  502 -0.00000000000E+00 -0.00000000000E+00 -0.30635941889E+04  0.30635941889E+04  0.00000000000E+00 0. -1.
         25    1    1    2    0    0 -0.42957066834E+02 -0.10944354303E+03 -0.13902096480E+04  0.14007608876E+04  0.12500000000E+03 0.  0.
         25    1    1    2    0    0 -0.17241139073E+02 -0.75406806087E+02 -0.34645267441E+03  0.37634810865E+03  0.12500000000E+03 0.  0.
         25    1    1    2    0    0  0.60198205907E+02  0.18485034911E+03 -0.12964884854E+04  0.13169285737E+04  0.12500000000E+03 0.  0.
</event>
<event>
 5    0  0.5612316E-005  0.3079086E+03  0.7546771E-02  0.1081353E+00
         21   -1    0    0  502  501  0.00000000000E+00  0.00000000000E+00  0.57038783262E+02  0.57038783262E+02  0.00000000000E+00 0.  1.
         21   -1    0    0  501  502 -0.00000000000E+00 -0.00000000000E+00 -0.16621616336E+04  0.16621616336E+04  0.00000000000E+00 0.  1.
         25    1    1    2    0    0  0.10274676170E+03  0.73580092604E+02 -0.41659784878E+03  0.45293453685E+03  0.12500000000E+03 0.  0.
         25    1    1    2    0    0 -0.15314875332E+02 -0.12095492837E+03 -0.20250066254E+03  0.26738765572E+03  0.12500000000E+03 0.  0.
         25    1    1    2    0    0 -0.87431886369E+02  0.47374835764E+02 -0.98602433898E+03  0.99887822425E+03  0.12500000000E+03 0.  0.
</event>
<event>
 5    0  0.5612316E-005  0.2987312E+03  0.7546771E-02  0.1085877E+00
         21   -1    0    0  502  501  0.00000000000E+00  0.00000000000E+00  0.21950589453E+03  0.21950589453E+03  0.00000000000E+00 0.  1.
         21   -1    0    0  501  502 -0.00000000000E+00 -0.00000000000E+00 -0.40655095687E+03  0.40655095687E+03  0.00000000000E+00 0.  1.
         25    1    1    2    0    0 -0.10667805306E+03  0.27523344761E+02 -0.23418690512E+03  0.28741302691E+03  0.12500000000E+03 0.  0.
         25    1    1    2    0    0  0.11220870549E+03 -0.40589643825E+02  0.10280411400E+03  0.20107709623E+03  0.12500000000E+03 0.  0.
         25    1    1    2    0    0 -0.55306524319E+01  0.13066299065E+02 -0.55662271208E+02  0.13756672826E+03  0.12500000000E+03 0.  0.
</event>
<event>
 5    0  0.5820314E-005  0.2864341E+03  0.7546771E-02  0.1092226E+00
         21   -1    0    0  502  501  0.00000000000E+00  0.00000000000E+00  0.58052872235E+03  0.58052872235E+03  0.00000000000E+00 0.  1.
         21   -1    0    0  501  502 -0.00000000000E+00 -0.00000000000E+00 -0.14132715201E+03  0.14132715201E+03  0.00000000000E+00 0.  1.
         25    1    1    2    0    0  0.14538661738E+03 -0.92167823133E+02  0.33671965655E+03  0.39829298668E+03  0.12500000000E+03 0.  0.
         25    1    1    2    0    0 -0.49835758848E+02  0.30987630364E+02  0.45673898922E+02  0.14544738271E+03  0.12500000000E+03 0.  0.
         25    1    1    2    0    0 -0.95550858528E+02  0.61180192770E+02  0.56808014870E+02  0.17811550496E+03  0.12500000000E+03 0.  0.
</event>
<event>
 5    0  0.5612316E-005  0.2860475E+03  0.7546771E-02  0.1092431E+00
         21   -1    0    0  502  501  0.00000000000E+00  0.00000000000E+00  0.85485807174E+02  0.85485807174E+02  0.00000000000E+00 0.  1.
         21   -1    0    0  501  502 -0.00000000000E+00 -0.00000000000E+00 -0.95715525116E+03  0.95715525116E+03  0.00000000000E+00 0.  1.
         25    1    1    2    0    0  0.13074217086E+03  0.24207964688E+02 -0.13913130696E+03  0.22948215916E+03  0.12500000000E+03 0.  0.
         25    1    1    2    0    0 -0.11491758734E+03 -0.32377851635E+01 -0.18589300674E+03  0.25178908850E+03  0.12500000000E+03 0.  0.
         25    1    1    2    0    0 -0.15824583523E+02 -0.20970179525E+02 -0.54664513030E+03  0.56136981069E+03  0.12500000000E+03 0.  0.
</event>
<event>
 5    0  0.5612316E-005  0.3428986E+03  0.7546771E-02  0.1065568E+00
         21   -1    0    0  502  501  0.00000000000E+00  0.00000000000E+00  0.31086303954E+03  0.31086303954E+03  0.00000000000E+00 0.  1.
         21   -1    0    0  501  502 -0.00000000000E+00 -0.00000000000E+00 -0.37823563306E+03  0.37823563306E+03  0.00000000000E+00 0.  1.
         25    1    1    2    0    0  0.10633998166E+03 -0.66602478664E+02  0.21394042845E+03  0.27774014616E+03  0.12500000000E+03 0.  0.
         25    1    1    2    0    0 -0.20538680012E+02  0.73275004687E+02 -0.11426766967E+03  0.18566950213E+03  0.12500000000E+03 0.  0.
         25    1    1    2    0    0 -0.85801301653E+02 -0.66725260233E+01 -0.16704535231E+03  0.22568902432E+03  0.12500000000E+03 0.  0.
</event>
<event>
 5    0  0.5612316E-005  0.4669283E+03  0.7546771E-02  0.1022791E+00
         21   -1    0    0  502  501  0.00000000000E+00  0.00000000000E+00  0.68894057384E+03  0.68894057384E+03  0.00000000000E+00 0. -1.
         21   -1    0    0  501  502 -0.00000000000E+00 -0.00000000000E+00 -0.31645990592E+03  0.31645990592E+03  0.00000000000E+00 0. -1.
         25    1    1    2    0    0 -0.25195061469E+03 -0.13677976612E+02 -0.17522485272E+03  0.33165486322E+03  0.12500000000E+03 0.  0.
         25    1    1    2    0    0  0.33684689369E+02 -0.32660461042E+01  0.26510252628E+03  0.29504181872E+03  0.12500000000E+03 0.  0.
         25    1    1    2    0    0  0.21826592532E+03  0.16944022716E+02  0.28260299436E+03  0.37870379782E+03  0.12500000000E+03 0.  0.
</event>
<event>
 5    0  0.5612316E-005  0.8204280E+03  0.7546771E-02  0.9530910E-01
         21   -1    0    0  502  501  0.00000000000E+00  0.00000000000E+00  0.21039355594E+03  0.21039355594E+03  0.00000000000E+00 0.  1.
         21   -1    0    0  501  502 -0.00000000000E+00 -0.00000000000E+00 -0.31992522094E+04  0.31992522094E+04  0.00000000000E+00 0. -1.
         25    1    1    2    0    0 -0.89255125564E+02  0.58965794224E+03 -0.49855923063E+03  0.78730506967E+03  0.12500000000E+03 0.  0.
         25    1    1    2    0    0  0.43750611163E+02 -0.64117676800E+03 -0.17508580773E+04  0.18692647674E+04  0.12500000000E+03 0.  0.
         25    1    1    2    0    0  0.45504514401E+02  0.51518825755E+02 -0.73944134555E+03  0.75307592828E+03  0.12500000000E+03 0.  0.
</event>
<event>
 5    0  0.5612316E-005  0.2522841E+03  0.7546771E-02  0.1111870E+00
         21   -1    0    0  502  501  0.00000000000E+00  0.00000000000E+00  0.11081211806E+03  0.11081211806E+03  0.00000000000E+00 0. -1.
         21   -1    0    0  501  502 -0.00000000000E+00 -0.00000000000E+00 -0.57437102784E+03  0.57437102784E+03  0.00000000000E+00 0. -1.
         25    1    1    2    0    0 -0.66767880145E+02  0.13579072788E+03 -0.19307272095E+03  0.27531644914E+03  0.12500000000E+03 0.  0.
         25    1    1    2    0    0  0.64822210141E+02 -0.89934865125E+02 -0.19504052038E+03  0.25681900919E+03  0.12500000000E+03 0.  0.
         25    1    1    2    0    0  0.19456700036E+01 -0.45855862751E+02 -0.75445668459E+02  0.15304768757E+03  0.12500000000E+03 0.  0.
</event>
<event>
 5    0  0.5612316E-005  0.2899898E+03  0.7546771E-02  0.1090354E+00
         21   -1    0    0  502  501  0.00000000000E+00  0.00000000000E+00  0.65285351947E+02  0.65285351947E+02  0.00000000000E+00 0. -1.
         21   -1    0    0  501  502 -0.00000000000E+00 -0.00000000000E+00 -0.12881004902E+04  0.12881004902E+04  0.00000000000E+00 0. -1.
         25    1    1    2    0    0 -0.25917849321E+02 -0.73896188500E+00 -0.13280530220E+03  0.18421327116E+03  0.12500000000E+03 0.  0.
         25    1    1    2    0    0 -0.11107810508E+03  0.25411008134E+02 -0.21075830658E+03  0.27023717093E+03  0.12500000000E+03 0.  0.
         25    1    1    2    0    0  0.13699595440E+03 -0.24672046249E+02 -0.87925152946E+03  0.89893540004E+03  0.12500000000E+03 0.  0.
</event>
<event>
 5    0  0.5612316E-005  0.2617377E+03  0.7546771E-02  0.1106104E+00
         21   -1    0    0  502  501  0.00000000000E+00  0.00000000000E+00  0.13880923539E+03  0.13880923539E+03  0.00000000000E+00 0. -1.
         21   -1    0    0  501  502 -0.00000000000E+00 -0.00000000000E+00 -0.49353069784E+03  0.49353069784E+03  0.00000000000E+00 0. -1.
         25    1    1    2    0    0  0.88740863062E+01  0.13093575243E+03 -0.11566158648E+03  0.21500121688E+03  0.12500000000E+03 0.  0.
         25    1    1    2    0    0  0.44313928656E+02 -0.15485213999E+03 -0.13445101105E+03  0.24422322556E+03  0.12500000000E+03 0.  0.
         25    1    1    2    0    0 -0.53188014962E+02  0.23916387558E+02 -0.10460886492E+03  0.17311549078E+03  0.12500000000E+03 0.  0.
</event>
<event>
 5    0  0.5612316E-005  0.4031556E+03  0.7546771E-02  0.1042692E+00
         21   -1    0    0  502  501  0.00000000000E+00  0.00000000000E+00  0.20341438049E+04  0.20341438049E+04  0.00000000000E+00 0.  1.
         21   -1    0    0  501  502 -0.00000000000E+00 -0.00000000000E+00 -0.79903118733E+02  0.79903118733E+02  0.00000000000E+00 0.  1.
         25    1    1    2    0    0  0.16426730732E+03  0.39398081500E+02  0.33835187325E+03  0.39830007182E+03  0.12500000000E+03 0.  0.
         25    1    1    2    0    0  0.10199100256E+02 -0.20777742526E+02  0.14165414508E+04  0.14222343049E+04  0.12500000000E+03 0.  0.
         25    1    1    2    0    0 -0.17446640758E+03 -0.18620338974E+02  0.19934736208E+03  0.29351254686E+03  0.12500000000E+03 0.  0.
</event>
<event>
 5    0  0.5612316E-005  0.2982817E+03  0.7546771E-02  0.1086103E+00
         21   -1    0    0  502  501  0.00000000000E+00  0.00000000000E+00  0.22727498477E+03  0.22727498477E+03  0.00000000000E+00 0. -1.
         21   -1    0    0  501  502 -0.00000000000E+00 -0.00000000000E+00 -0.39147279175E+03  0.39147279175E+03  0.00000000000E+00 0. -1.
         25    1    1    2    0    0 -0.77012315586E+02 -0.15539525855E+03 -0.90884728495E+02  0.23230070384E+03  0.12500000000E+03 0.  0.
         25    1    1    2    0    0 -0.23226983403E+02  0.17154786155E+03 -0.72204910675E+02  0.22540343983E+03  0.12500000000E+03 0.  0.
         25    1    1    2    0    0  0.10023929899E+03 -0.16152603006E+02 -0.11081678010E+01  0.16104363285E+03  0.12500000000E+03 0.  0.
</event>
<event>
 5    0  0.5612316E-005  0.4084973E+03  0.7546771E-02  0.1040876E+00
         21   -1    0    0  502  501  0.00000000000E+00  0.00000000000E+00  0.44093698943E+03  0.44093698943E+03  0.00000000000E+00 0. -1.
         21   -1    0    0  501  502 -0.00000000000E+00 -0.00000000000E+00 -0.37844424389E+03  0.37844424389E+03  0.00000000000E+00 0. -1.
         25    1    1    2    0    0  0.90000734220E+02 -0.73268741706E+02  0.15247001450E+03  0.22878056297E+03  0.12500000000E+03 0.  0.
         25    1    1    2    0    0 -0.93499414123E+02 -0.20697232558E+03  0.30285628897E+02  0.26100173048E+03  0.12500000000E+03 0.  0.
         25    1    1    2    0    0  0.34986799023E+01  0.28024106729E+03 -0.12026289786E+03  0.32959893986E+03  0.12500000000E+03 0.  0.
</event>
<event>
 5    0  0.5612316E-005  0.2249511E+03  0.7546771E-02  0.1130245E+00
         21   -1    0    0  502  501  0.00000000000E+00  0.00000000000E+00  0.45102049260E+03  0.45102049260E+03  0.00000000000E+00 0.  1.
         21   -1    0    0  501  502 -0.00000000000E+00 -0.00000000000E+00 -0.11219662253E+03  0.11219662253E+03  0.00000000000E+00 0.  1.
         25    1    1    2    0    0 -0.68149027732E+02 -0.50814148773E+02  0.15945369735E+03  0.21971993377E+03  0.12500000000E+03 0.  0.
         25    1    1    2    0    0  0.87363368619E+02 -0.89341443864E+01  0.85760389200E+02  0.17519138526E+03  0.12500000000E+03 0.  0.
         25    1    1    2    0    0 -0.19214340887E+02  0.59748293159E+02  0.93609783522E+02  0.16830579610E+03  0.12500000000E+03 0.  0.
</event>
<event>
 5    0  0.5612316E-005  0.2467347E+03  0.7546771E-02  0.1115386E+00
         21   -1    0    0  502  501  0.00000000000E+00  0.00000000000E+00  0.12220243143E+04  0.12220243143E+04  0.00000000000E+00 0.  1.
         21   -1    0    0  501  502 -0.00000000000E+00 -0.00000000000E+00 -0.49817351111E+02  0.49817351111E+02  0.00000000000E+00 0.  1.
         25    1    1    2    0    0  0.79366508212E+01 -0.11571888666E+03  0.46297854970E+03  0.49338422010E+03  0.12500000000E+03 0.  0.
         25    1    1    2    0    0  0.49826131436E+02  0.11127268402E+03  0.30564376344E+03  0.35200477797E+03  0.12500000000E+03 0.  0.
         25    1    1    2    0    0 -0.57762782258E+02  0.44462026324E+01  0.40358465002E+03  0.42645266732E+03  0.12500000000E+03 0.  0.
</event>
<event>
 5    0  0.5864079E-005  0.4792390E+03  0.7546771E-02  0.1019345E+00
         21   -1    0    0  502  501  0.00000000000E+00  0.00000000000E+00  0.33294654735E+03  0.33294654735E+03  0.00000000000E+00 0.  1.
         21   -1    0    0  501  502 -0.00000000000E+00 -0.00000000000E+00 -0.68981049753E+03  0.68981049753E+03  0.00000000000E+00 0.  1.
         25    1    1    2    0    0 -0.83225764065E+02 -0.45395879507E+02 -0.35700330597E+03  0.38995342562E+03  0.12500000000E+03 0.  0.
         25    1    1    2    0    0  0.52492762641E+02 -0.25830969594E+03  0.59271501977E+02  0.29768691623E+03  0.12500000000E+03 0.  0.
         25    1    1    2    0    0  0.30733001424E+02  0.30370557545E+03 -0.59132146199E+02  0.33511670303E+03  0.12500000000E+03 0.  0.
</event>
<event>
 5    0  0.5612316E-005  0.2640664E+03  0.7546771E-02  0.1104724E+00
         21   -1    0    0  502  501  0.00000000000E+00  0.00000000000E+00  0.95223861324E+02  0.95223861324E+02  0.00000000000E+00 0.  1.
         21   -1    0    0  501  502 -0.00000000000E+00 -0.00000000000E+00 -0.73228556906E+03  0.73228556906E+03  0.00000000000E+00 0.  1.
         25    1    1    2    0    0 -0.12664156993E+03  0.70683537499E+02 -0.12310494567E+03  0.22762705761E+03  0.12500000000E+03 0.  0.
         25    1    1    2    0    0  0.34460925200E+02 -0.59953591406E+02 -0.16809643408E+03  0.22059782329E+03  0.12500000000E+03 0.  0.
         25    1    1    2    0    0  0.92180644732E+02 -0.10729946093E+02 -0.34586032798E+03  0.37928454948E+03  0.12500000000E+03 0.  0.
</event>
<event>
 5    0  0.5612316E-005  0.3106641E+03  0.7546771E-02  0.1080028E+00
         21   -1    0    0  502  501  0.00000000000E+00  0.00000000000E+00  0.20080477063E+03  0.20080477063E+03  0.00000000000E+00 0. -1.
         21   -1    0    0  501  502 -0.00000000000E+00 -0.00000000000E+00 -0.48062709358E+03  0.48062709358E+03  0.00000000000E+00 0. -1.
         25    1    1    2    0    0 -0.65198425836E+01 -0.66960481858E+02 -0.10060974321E+03  0.17399291625E+03  0.12500000000E+03 0.  0.
         25    1    1    2    0    0 -0.18385203190E+03 -0.27626492032E+02 -0.11863835443E+03  0.25350513178E+03  0.12500000000E+03 0.  0.
         25    1    1    2    0    0  0.19037187449E+03  0.94586973890E+02 -0.60574225314E+02  0.25393381617E+03  0.12500000000E+03 0.  0.
</event>
<event>
 5    0  0.5612316E-005  0.3288459E+03  0.7546771E-02  0.1071649E+00
         21   -1    0    0  502  501  0.00000000000E+00  0.00000000000E+00  0.74612285523E+03  0.74612285523E+03  0.00000000000E+00 0. -1.
         21   -1    0    0  501  502 -0.00000000000E+00 -0.00000000000E+00 -0.14493537308E+03  0.14493537308E+03  0.00000000000E+00 0. -1.
         25    1    1    2    0    0 -0.19287785196E+02  0.93834772829E+02 -0.27852600223E+02  0.15993045548E+03  0.12500000000E+03 0.  0.
         25    1    1    2    0    0 -0.74074549891E+00 -0.16591901572E+02  0.53829035869E+02  0.13710727553E+03  0.12500000000E+03 0.  0.
         25    1    1    2    0    0  0.20028530695E+02 -0.77242871257E+02  0.57521104650E+03  0.59402049730E+03  0.12500000000E+03 0.  0.
</event>
<event>
 5    0  0.5612316E-005  0.2934215E+03  0.7546771E-02  0.1088576E+00
         21   -1    0    0  502  501  0.00000000000E+00  0.00000000000E+00  0.47231059235E+03  0.47231059235E+03  0.00000000000E+00 0.  1.
         21   -1    0    0  501  502 -0.00000000000E+00 -0.00000000000E+00 -0.18228714207E+03  0.18228714207E+03  0.00000000000E+00 0.  1.
         25    1    1    2    0    0 -0.66547171077E+02 -0.12651745651E+01 -0.22361657083E+02  0.14337074441E+03  0.12500000000E+03 0.  0.
         25    1    1    2    0    0 -0.16364021454E+02 -0.14210839921E+03  0.19756574394E+03  0.27407991810E+03  0.12500000000E+03 0.  0.
         25    1    1    2    0    0  0.82911192531E+02  0.14337357377E+03  0.11481936341E+03  0.23714707191E+03  0.12500000000E+03 0.  0.
</event>
<event>
 5    0  0.5693774E-005  0.5308611E+03  0.7546771E-02  0.1006024E+00
         21   -1    0    0  502  501  0.00000000000E+00  0.00000000000E+00  0.37476301281E+03  0.37476301281E+03  0.00000000000E+00 0.  1.
         21   -1    0    0  501  502 -0.00000000000E+00 -0.00000000000E+00 -0.75197781771E+03  0.75197781771E+03  0.00000000000E+00 0.  1.
         25    1    1    2    0    0 -0.30806390186E+03  0.14036212678E+03 -0.29255758561E+03  0.46456413461E+03  0.12500000000E+03 0.  0.
         25    1    1    2    0    0  0.33922817881E+03 -0.11365884013E+03 -0.24764794750E+03  0.45271248617E+03  0.12500000000E+03 0.  0.
         25    1    1    2    0    0 -0.31164276943E+02 -0.26703286650E+02  0.16299072822E+03  0.20946420974E+03  0.12500000000E+03 0.  0.
</event>
<event>
 5    0  0.5612316E-005  0.2799935E+03  0.7546771E-02  0.1095692E+00
         21   -1    0    0  502  501  0.00000000000E+00  0.00000000000E+00  0.21736381850E+03  0.21736381850E+03  0.00000000000E+00 0.  1.
         21   -1    0    0  501  502 -0.00000000000E+00 -0.00000000000E+00 -0.36066889757E+03  0.36066889757E+03  0.00000000000E+00 0.  1.
         25    1    1    2    0    0  0.14899408237E+03 -0.82782908215E+01 -0.10547881301E+03  0.22140132492E+03  0.12500000000E+03 0.  0.
         25    1    1    2    0    0 -0.72481145408E+02 -0.43918971605E+02 -0.10829874538E+03  0.18583866863E+03  0.12500000000E+03 0.  0.
         25    1    1    2    0    0 -0.76512936964E+02  0.52197262426E+02  0.70472479311E+02  0.17079272253E+03  0.12500000000E+03 0.  0.
</event>
<event>
 5    0  0.5612316E-005  0.2842360E+03  0.7546771E-02  0.1093398E+00
         21   -1    0    0  502  501  0.00000000000E+00  0.00000000000E+00  0.21690174482E+03  0.21690174482E+03  0.00000000000E+00 0. -1.
         21   -1    0    0  501  502 -0.00000000000E+00 -0.00000000000E+00 -0.37247325979E+03  0.37247325979E+03  0.00000000000E+00 0. -1.
         25    1    1    2    0    0 -0.13371159771E+02 -0.67396211939E+02 -0.14629364970E+03  0.20432295329E+03  0.12500000000E+03 0.  0.
         25    1    1    2    0    0  0.20775378705E+02 -0.18327662560E+00 -0.14210730156E+03  0.19039730856E+03  0.12500000000E+03 0.  0.
         25    1    1    2    0    0 -0.74042189341E+01  0.67579488565E+02  0.13282943629E+03  0.19465474276E+03  0.12500000000E+03 0.  0.
</event>
<event>
 5    0  0.5612316E-005  0.2631803E+03  0.7546771E-02  0.1105247E+00
         21   -1    0    0  502  501  0.00000000000E+00  0.00000000000E+00  0.21420222216E+03  0.21420222216E+03  0.00000000000E+00 0.  1.
         21   -1    0    0  501  502 -0.00000000000E+00 -0.00000000000E+00 -0.32335736154E+03  0.32335736154E+03  0.00000000000E+00 0.  1.
         25    1    1    2    0    0  0.13707382935E+03  0.31184206512E+02  0.10065712776E+02  0.18838261066E+03  0.12500000000E+03 0.  0.
         25    1    1    2    0    0 -0.14168693255E+03 -0.51286197582E+02 -0.10367196341E+03  0.22153631060E+03  0.12500000000E+03 0.  0.
         25    1    1    2    0    0  0.46131032010E+01  0.20101991069E+02 -0.15548888744E+02  0.12764066244E+03  0.12500000000E+03 0.  0.
</event>
<event>
 5    0  0.5612316E-005  0.4182618E+03  0.7546771E-02  0.1037634E+00
         21   -1    0    0  502  501  0.00000000000E+00  0.00000000000E+00  0.13039461854E+03  0.13039461854E+03  0.00000000000E+00 0.  1.
         21   -1    0    0  501  502 -0.00000000000E+00 -0.00000000000E+00 -0.13416419662E+04  0.13416419662E+04  0.00000000000E+00 0.  1.
         25    1    1    2    0    0 -0.75994656949E+02 -0.13305381585E+03 -0.49224594268E+02  0.20378068230E+03  0.12500000000E+03 0.  0.
         25    1    1    2    0    0  0.19563152680E+03  0.91842436468E+02 -0.98933197541E+03  0.10203477275E+04  0.12500000000E+03 0.  0.
         25    1    1    2    0    0 -0.11963686985E+03  0.41211379378E+02 -0.17269077800E+03  0.24790817498E+03  0.12500000000E+03 0.  0.
</event>
<event>
 5    0  0.5612316E-005  0.2509485E+03  0.7546771E-02  0.1112707E+00
         21   -1    0    0  502  501  0.00000000000E+00  0.00000000000E+00  0.12395700531E+03  0.12395700531E+03  0.00000000000E+00 0. -1.
         21   -1    0    0  501  502 -0.00000000000E+00 -0.00000000000E+00 -0.50804011754E+03  0.50804011754E+03  0.00000000000E+00 0. -1.
         25    1    1    2    0    0  0.11082810997E+03  0.65267034091E+02 -0.41882935528E+02  0.18417881525E+03  0.12500000000E+03 0.  0.
         25    1    1    2    0    0 -0.38341510558E+02 -0.48431428667E+01 -0.13396496147E+03  0.18725687803E+03  0.12500000000E+03 0.  0.
         25    1    1    2    0    0 -0.72486599410E+02 -0.60423891225E+02 -0.20823521522E+03  0.26056142958E+03  0.12500000000E+03 0.  0.
</event>
<event>
 5    0  0.5612316E-005  0.3200732E+03  0.7546771E-02  0.1075616E+00
         21   -1    0    0  502  501  0.00000000000E+00  0.00000000000E+00  0.12375609231E+03  0.12375609231E+03  0.00000000000E+00 0. -1.
         21   -1    0    0  501  502 -0.00000000000E+00 -0.00000000000E+00 -0.82781271732E+03  0.82781271732E+03  0.00000000000E+00 0. -1.
         25    1    1    2    0    0 -0.58492180424E+02  0.11237751733E+03 -0.21680544446E+03  0.28049891679E+03  0.12500000000E+03 0.  0.
         25    1    1    2    0    0  0.26643967846E+02  0.27388014851E+02  0.17311306864E+02  0.13185099820E+03  0.12500000000E+03 0.  0.
         25    1    1    2    0    0  0.31848212577E+02 -0.13976553218E+03 -0.50456248742E+03  0.53921889465E+03  0.12500000000E+03 0.  0.
</event>
<event>
 5    0  0.5612316E-005  0.2544998E+03  0.7546771E-02  0.1110494E+00
         21   -1    0    0  502  501  0.00000000000E+00  0.00000000000E+00  0.53033325325E+03  0.53033325325E+03  0.00000000000E+00 0.  1.
         21   -1    0    0  501  502 -0.00000000000E+00 -0.00000000000E+00 -0.12213105720E+03  0.12213105720E+03  0.00000000000E+00 0.  1.
         25    1    1    2    0    0  0.11586310397E+03 -0.41661309614E+02  0.78333707006E+02  0.19214862277E+03  0.12500000000E+03 0.  0.
         25    1    1    2    0    0  0.53864971153E-01  0.71999830030E+02  0.11579115288E+03  0.18497721349E+03  0.12500000000E+03 0.  0.
         25    1    1    2    0    0 -0.11591696894E+03 -0.30338520416E+02  0.21407733616E+03  0.27533847419E+03  0.12500000000E+03 0.  0.
</event>
<event>
 5    0  0.5612316E-005  0.2811468E+03  0.7546771E-02  0.1095064E+00
         21   -1    0    0  502  501  0.00000000000E+00  0.00000000000E+00  0.35120197108E+02  0.35120197108E+02  0.00000000000E+00 0. -1.
         21   -1    0    0  501  502 -0.00000000000E+00 -0.00000000000E+00 -0.22506577411E+04  0.22506577411E+04  0.00000000000E+00 0. -1.
         25    1    1    2    0    0 -0.17632755003E+03 -0.34335274713E+02 -0.65489135155E+03  0.69049112835E+03  0.12500000000E+03 0.  0.
         25    1    1    2    0    0  0.38690127627E+02 -0.20996708822E+02 -0.76057158281E+03  0.77203103586E+03  0.12500000000E+03 0.  0.
         25    1    1    2    0    0  0.13763742240E+03  0.55331983535E+02 -0.80007460963E+03  0.82325577400E+03  0.12500000000E+03 0.  0.
</event>
<event>
 5    0  0.5612316E-005  0.2688012E+03  0.7546771E-02  0.1101968E+00
         21   -1    0    0  502  501  0.00000000000E+00  0.00000000000E+00  0.24098080902E+02  0.24098080902E+02  0.00000000000E+00 0. -1.
         21   -1    0    0  501  502 -0.00000000000E+00 -0.00000000000E+00 -0.29983330202E+04  0.29983330202E+04  0.00000000000E+00 0. -1.
         25    1    1    2    0    0  0.12527559874E+02  0.11552663286E+03 -0.47625037057E+03  0.50590785537E+03  0.12500000000E+03 0.  0.
         25    1    1    2    0    0  0.49401480539E+00 -0.60923674338E+02 -0.72258867131E+03  0.73584735242E+03  0.12500000000E+03 0.  0.
         25    1    1    2    0    0 -0.13021574679E+02 -0.54602958520E+02 -0.17753958974E+04  0.17806758933E+04  0.12500000000E+03 0.  0.
</event>
<event>
 5    0  0.5612316E-005  0.2443266E+03  0.7546771E-02  0.1116944E+00
         21   -1    0    0  502  501  0.00000000000E+00  0.00000000000E+00  0.52989916709E+03  0.52989916709E+03  0.00000000000E+00 0.  1.
         21   -1    0    0  501  502 -0.00000000000E+00 -0.00000000000E+00 -0.11265439722E+03  0.11265439722E+03  0.00000000000E+00 0.  1.
         25    1    1    2    0    0  0.89422632387E+02  0.19886772807E+01  0.85442406906E+02  0.17585723448E+03  0.12500000000E+03 0.  0.
         25    1    1    2    0    0 -0.95713345423E+01 -0.53351915857E+02  0.26115998792E+03  0.29456336613E+03  0.12500000000E+03 0.  0.
         25    1    1    2    0    0 -0.79851297845E+02  0.51363238576E+02  0.70642375038E+02  0.17213296371E+03  0.12500000000E+03 0.  0.
</event>
<event>
 5    0  0.5612316E-005  0.3678481E+03  0.7546771E-02  0.1055519E+00
         21   -1    0    0  502  501  0.00000000000E+00  0.00000000000E+00  0.37256659227E+03  0.37256659227E+03  0.00000000000E+00 0.  1.
         21   -1    0    0  501  502 -0.00000000000E+00 -0.00000000000E+00 -0.36318933170E+03  0.36318933170E+03  0.00000000000E+00 0.  1.
         25    1    1    2    0    0 -0.16931684256E+03  0.10873109347E+03 -0.42521757427E+01  0.23692556819E+03  0.12500000000E+03 0.  0.
         25    1    1    2    0    0  0.25398558891E+03 -0.12414897232E+03  0.99165819559E+02  0.32462363818E+03  0.12500000000E+03 0.  0.
         25    1    1    2    0    0 -0.84668746344E+02  0.15417878847E+02 -0.85536383248E+02  0.17420671759E+03  0.12500000000E+03 0.  0.
</event>
<event>
 5    0  0.5612316E-005  0.3210970E+03  0.7546771E-02  0.1075146E+00
         21   -1    0    0  502  501  0.00000000000E+00  0.00000000000E+00  0.25481029893E+03  0.25481029893E+03  0.00000000000E+00 0.  1.
         21   -1    0    0  501  502 -0.00000000000E+00 -0.00000000000E+00 -0.40462766935E+03  0.40462766935E+03  0.00000000000E+00 0.  1.
         25    1    1    2    0    0 -0.39501245320E+02 -0.52797602642E+02 -0.31858523610E+03  0.34852473067E+03  0.12500000000E+03 0.  0.
         25    1    1    2    0    0  0.16477101677E+02  0.43188689037E+02  0.77845352157E+02  0.15434265967E+03  0.12500000000E+03 0.  0.
         25    1    1    2    0    0  0.23024143642E+02  0.96089136054E+01  0.90922513528E+02  0.15657057794E+03  0.12500000000E+03 0.  0.
</event>
<event>
 5    0  0.5612316E-005  0.4275554E+03  0.7546771E-02  0.1034635E+00
         21   -1    0    0  502  501  0.00000000000E+00  0.00000000000E+00  0.78115357821E+03  0.78115357821E+03  0.00000000000E+00 0. -1.
         21   -1    0    0  501  502 -0.00000000000E+00 -0.00000000000E+00 -0.23401750664E+03  0.23401750664E+03  0.00000000000E+00 0. -1.
         25    1    1    2    0    0 -0.22476584211E+03 -0.23480415212E+03  0.34982023050E+03  0.49361104860E+03  0.12500000000E+03 0.  0.
         25    1    1    2    0    0  0.95033949118E+02  0.25444977891E+03  0.14867423278E+03  0.33392389697E+03  0.12500000000E+03 0.  0.
         25    1    1    2    0    0  0.12973189299E+03 -0.19645626793E+02  0.48641608279E+02  0.18763613929E+03  0.12500000000E+03 0.  0.
</event>
<event>
 5    0  0.5612316E-005  0.2515957E+03  0.7546771E-02  0.1112301E+00
         21   -1    0    0  502  501  0.00000000000E+00  0.00000000000E+00  0.13793394702E+03  0.13793394702E+03  0.00000000000E+00 0.  1.
         21   -1    0    0  501  502 -0.00000000000E+00 -0.00000000000E+00 -0.45891801282E+03  0.45891801282E+03  0.00000000000E+00 0.  1.
         25    1    1    2    0    0  0.78420675855E+02 -0.10226103076E+03 -0.77475948450E+02  0.19553680830E+03  0.12500000000E+03 0.  0.
         25    1    1    2    0    0  0.10377848667E+02  0.34834174330E+02 -0.36835280473E+02  0.13528842276E+03  0.12500000000E+03 0.  0.
         25    1    1    2    0    0 -0.88798524522E+02  0.67426856431E+02 -0.20667283688E+03  0.26602672878E+03  0.12500000000E+03 0.  0.
</event>
<event>
 5    0  0.5612316E-005  0.2499999E+03  0.7546771E-02  0.1113305E+00
         21   -1    0    0  502  501  0.00000000000E+00  0.00000000000E+00  0.74321707344E+03  0.74321707344E+03  0.00000000000E+00 0. -1.
         21   -1    0    0  501  502 -0.00000000000E+00 -0.00000000000E+00 -0.84093809663E+02  0.84093809663E+02  0.00000000000E+00 0. -1.
         25    1    1    2    0    0  0.87247308128E+02 -0.11736774689E+03  0.22167727566E+03  0.29351847528E+03  0.12500000000E+03 0.  0.
         25    1    1    2    0    0 -0.10933759173E+02  0.91421139402E+02  0.25317718714E+03  0.29698663254E+03  0.12500000000E+03 0.  0.
         25    1    1    2    0    0 -0.76313548955E+02  0.25946607489E+02  0.18426880097E+03  0.23680577528E+03  0.12500000000E+03 0.  0.
</event>
<event>
 5    0  0.5612316E-005  0.4545527E+03  0.7546771E-02  0.1026373E+00
         21   -1    0    0  502  501  0.00000000000E+00  0.00000000000E+00  0.36208736280E+03  0.36208736280E+03  0.00000000000E+00 0. -1.
         21   -1    0    0  501  502 -0.00000000000E+00 -0.00000000000E+00 -0.57063063837E+03  0.57063063837E+03  0.00000000000E+00 0. -1.
         25    1    1    2    0    0 -0.33402926308E+02  0.32937986423E+03 -0.62359265636E+02  0.35933345023E+03  0.12500000000E+03 0.  0.
         25    1    1    2    0    0  0.19375773378E+03 -0.12393293885E+03 -0.36870294106E+02  0.26435932236E+03  0.12500000000E+03 0.  0.
         25    1    1    2    0    0 -0.16035480747E+03 -0.20544692538E+03 -0.10931371584E+03  0.30902522858E+03  0.12500000000E+03 0.  0.
</event>
<event>
 5    0  0.5612316E-005  0.4228341E+03  0.7546771E-02  0.1036148E+00
         21   -1    0    0  502  501  0.00000000000E+00  0.00000000000E+00  0.13112719600E+04  0.13112719600E+04  0.00000000000E+00 0. -1.
         21   -1    0    0  501  502 -0.00000000000E+00 -0.00000000000E+00 -0.13634749800E+03  0.13634749800E+03  0.00000000000E+00 0. -1.
         25    1    1    2    0    0 -0.15483248290E+03 -0.19588921054E+03  0.58357856964E+03  0.64694252258E+03  0.12500000000E+03 0.  0.
         25    1    1    2    0    0  0.28670467920E+03  0.87371218716E+02  0.40126073876E+03  0.51620585371E+03  0.12500000000E+03 0.  0.
         25    1    1    2    0    0 -0.13187219630E+03  0.10851799183E+03  0.19008515356E+03  0.28447108168E+03  0.12500000000E+03 0.  0.
</event>
<event>
 5    0  0.5612316E-005  0.3121473E+03  0.7546771E-02  0.1079321E+00
         21   -1    0    0  502  501  0.00000000000E+00  0.00000000000E+00  0.41627610219E+03  0.41627610219E+03  0.00000000000E+00 0.  1.
         21   -1    0    0  501  502 -0.00000000000E+00 -0.00000000000E+00 -0.23406562033E+03  0.23406562033E+03  0.00000000000E+00 0.  1.
         25    1    1    2    0    0  0.17262226290E+03 -0.36310337167E+02  0.15488178041E+03  0.26595159736E+03  0.12500000000E+03 0.  0.
         25    1    1    2    0    0  0.21140275057E+02 -0.44427753411E+02 -0.19166363661E+02  0.13569482672E+03  0.12500000000E+03 0.  0.
         25    1    1    2    0    0 -0.19376253796E+03  0.80738090578E+02  0.46495065117E+02  0.24869529844E+03  0.12500000000E+03 0.  0.
</event>
<event>
 5    0  0.5612316E-005  0.2570633E+03  0.7546771E-02  0.1108921E+00
         21   -1    0    0  502  501  0.00000000000E+00  0.00000000000E+00  0.22454104875E+03  0.22454104875E+03  0.00000000000E+00 0.  1.
         21   -1    0    0  501  502 -0.00000000000E+00 -0.00000000000E+00 -0.29429602934E+03  0.29429602934E+03  0.00000000000E+00 0.  1.
         25    1    1    2    0    0  0.72626120487E+02  0.59602629555E+01 -0.85988069982E+02  0.16831228800E+03  0.12500000000E+03 0.  0.
         25    1    1    2    0    0 -0.83203921746E+02  0.10251999091E+03  0.29299934052E+02  0.18416494581E+03  0.12500000000E+03 0.  0.
         25    1    1    2    0    0  0.10577801259E+02 -0.10848025387E+03 -0.13066844658E+02  0.16635984428E+03  0.12500000000E+03 0.  0.
</event>
<event>
 5    0  0.5612316E-005  0.2185420E+03  0.7546771E-02  0.1134975E+00
         21   -1    0    0  502  501  0.00000000000E+00  0.00000000000E+00  0.33269187627E+02  0.33269187627E+02  0.00000000000E+00 0. -1.
         21   -1    0    0  501  502 -0.00000000000E+00 -0.00000000000E+00 -0.14355808270E+04  0.14355808270E+04  0.00000000000E+00 0. -1.
         25    1    1    2    0    0 -0.25951983108E+02  0.21471758390E+02 -0.59726948626E+03  0.61113859398E+03  0.12500000000E+03 0.  0.
         25    1    1    2    0    0 -0.22777107401E+02  0.55349759812E+02 -0.43910703461E+03  0.46045888022E+03  0.12500000000E+03 0.  0.
         25    1    1    2    0    0  0.48729090510E+02 -0.76821518202E+02 -0.36593511855E+03  0.39725254047E+03  0.12500000000E+03 0.  0.
</event>
<event>
 5    0  0.5612316E-005  0.3259592E+03  0.7546771E-02  0.1072939E+00
         21   -1    0    0  502  501  0.00000000000E+00  0.00000000000E+00  0.29392761387E+03  0.29392761387E+03  0.00000000000E+00 0. -1.
         21   -1    0    0  501  502 -0.00000000000E+00 -0.00000000000E+00 -0.36148152810E+03  0.36148152810E+03  0.00000000000E+00 0. -1.
         25    1    1    2    0    0 -0.39572506389E+02  0.12071060647E+03 -0.22962647127E+03  0.29067223824E+03  0.12500000000E+03 0.  0.
         25    1    1    2    0    0 -0.17281148244E+01 -0.99485626322E+01  0.14521317334E+03  0.19186929403E+03  0.12500000000E+03 0.  0.
         25    1    1    2    0    0  0.41300621213E+02 -0.11076204384E+03  0.16859383701E+02  0.17286760971E+03  0.12500000000E+03 0.  0.
</event>
<event>
 5    0  0.5612316E-005  0.2463762E+03  0.7546771E-02  0.1115617E+00
         21   -1    0    0  502  501  0.00000000000E+00  0.00000000000E+00  0.29906118749E+03  0.29906118749E+03  0.00000000000E+00 0. -1.
         21   -1    0    0  501  502 -0.00000000000E+00 -0.00000000000E+00 -0.20297255991E+03  0.20297255991E+03  0.00000000000E+00 0. -1.
         25    1    1    2    0    0  0.13026541321E+02  0.76459667456E+01 -0.79050097874E+02  0.14866764799E+03  0.12500000000E+03 0.  0.
         25    1    1    2    0    0  0.13360138902E+02 -0.68943739045E+02  0.22563860486E+02  0.14514082908E+03  0.12500000000E+03 0.  0.
         25    1    1    2    0    0 -0.26386680224E+02  0.61297772299E+02  0.15257486497E+03  0.20822527033E+03  0.12500000000E+03 0.  0.
</event>
<event>
 5    0  0.5612316E-005  0.3491294E+03  0.7546771E-02  0.1062973E+00
         21   -1    0    0  502  501  0.00000000000E+00  0.00000000000E+00  0.17172237958E+04  0.17172237958E+04  0.00000000000E+00 0. -1.
         21   -1    0    0  501  502 -0.00000000000E+00 -0.00000000000E+00 -0.70981620641E+02  0.70981620641E+02  0.00000000000E+00 0. -1.
         25    1    1    2    0    0 -0.40892742773E+02 -0.65576542632E+01  0.15051522337E+03  0.19998762889E+03  0.12500000000E+03 0.  0.
         25    1    1    2    0    0 -0.14937737684E+03  0.80119515824E+02  0.28669186245E+03  0.35573861405E+03  0.12500000000E+03 0.  0.
         25    1    1    2    0    0  0.19027011961E+03 -0.73561861561E+02  0.12090350893E+04  0.12324791735E+04  0.12500000000E+03 0.  0.
</event>
<event>
 5    0  0.5612316E-005  0.2535408E+03  0.7546771E-02  0.1111087E+00
         21   -1    0    0  502  501  0.00000000000E+00  0.00000000000E+00  0.89974954607E+02  0.89974954607E+02  0.00000000000E+00 0. -1.
         21   -1    0    0  501  502 -0.00000000000E+00 -0.00000000000E+00 -0.71445384382E+03  0.71445384382E+03  0.00000000000E+00 0. -1.
         25    1    1    2    0    0  0.42758676769E+02 -0.96312368007E+02 -0.36247386466E+03  0.39763888044E+03  0.12500000000E+03 0.  0.
         25    1    1    2    0    0 -0.91226671466E+02  0.58574786879E+02 -0.10079208427E+03  0.19374559478E+03  0.12500000000E+03 0.  0.
         25    1    1    2    0    0  0.48467994697E+02  0.37737581128E+02 -0.16121294028E+03  0.21304432322E+03  0.12500000000E+03 0.  0.
</event>
<event>
 5    0  0.5612316E-005  0.3442321E+03  0.7546771E-02  0.1065008E+00
         21   -1    0    0  502  501  0.00000000000E+00  0.00000000000E+00  0.91207706631E+03  0.91207706631E+03  0.00000000000E+00 0. -1.
         21   -1    0    0  501  502 -0.00000000000E+00 -0.00000000000E+00 -0.12991854698E+03  0.12991854698E+03  0.00000000000E+00 0. -1.
         25    1    1    2    0    0  0.80342472766E+01 -0.58240551815E+02  0.53599024870E+03  0.55350434298E+03  0.12500000000E+03 0.  0.
         25    1    1    2    0    0 -0.43893431337E+02 -0.11831887910E+03  0.29196112512E+02  0.18000945378E+03  0.12500000000E+03 0.  0.
         25    1    1    2    0    0  0.35859184060E+02  0.17655943092E+03  0.21697215811E+03  0.30848181652E+03  0.12500000000E+03 0.  0.
</event>
<event>
 5    0  0.5612316E-005  0.2573148E+03  0.7546771E-02  0.1108767E+00
         21   -1    0    0  502  501  0.00000000000E+00  0.00000000000E+00  0.13666752058E+03  0.13666752058E+03  0.00000000000E+00 0. -1.
         21   -1    0    0  501  502 -0.00000000000E+00 -0.00000000000E+00 -0.48446698182E+03  0.48446698182E+03  0.00000000000E+00 0. -1.
         25    1    1    2    0    0 -0.41169416379E+01 -0.34796865201E+02  0.34332447654E+02  0.13428137622E+03  0.12500000000E+03 0.  0.
         25    1    1    2    0    0  0.48174267577E+02  0.85908818663E+02 -0.21545412040E+03  0.26785548935E+03  0.12500000000E+03 0.  0.
         25    1    1    2    0    0 -0.44057325939E+02 -0.51111953462E+02 -0.16667778850E+03  0.21899763683E+03  0.12500000000E+03 0.  0.
</event>
<event>
 5    0  0.5612316E-005  0.2816478E+03  0.7546771E-02  0.1094792E+00
         21   -1    0    0  502  501  0.00000000000E+00  0.00000000000E+00  0.14517011351E+03  0.14517011351E+03  0.00000000000E+00 0. -1.
         21   -1    0    0  501  502 -0.00000000000E+00 -0.00000000000E+00 -0.54643133606E+03  0.54643133606E+03  0.00000000000E+00 0. -1.
         25    1    1    2    0    0 -0.15837945307E+03  0.37684288195E+02 -0.24700433199E+03  0.32115463060E+03  0.12500000000E+03 0.  0.
         25    1    1    2    0    0  0.41168982596E+02  0.52795727040E+02 -0.80856109718E+02  0.16323291457E+03  0.12500000000E+03 0.  0.
         25    1    1    2    0    0  0.11721047048E+03 -0.90480015235E+02 -0.73400780832E+02  0.20721390439E+03  0.12500000000E+03 0.  0.
</event>
<event>
 5    0  0.5612316E-005  0.2733843E+03  0.7546771E-02  0.1099358E+00
         21   -1    0    0  502  501  0.00000000000E+00  0.00000000000E+00  0.21844042211E+03  0.21844042211E+03  0.00000000000E+00 0. -1.
         21   -1    0    0  501  502 -0.00000000000E+00 -0.00000000000E+00 -0.34214817236E+03  0.34214817236E+03  0.00000000000E+00 0. -1.
         25    1    1    2    0    0 -0.91361023083E+02  0.11891562615E+03  0.20229469146E+02  0.19627020687E+03  0.12500000000E+03 0.  0.
         25    1    1    2    0    0 -0.32883345726E+02 -0.83735411189E+02 -0.52761974753E+02  0.16279361011E+03  0.12500000000E+03 0.  0.
         25    1    1    2    0    0  0.12424436881E+03 -0.35180214964E+02 -0.91175244641E+02  0.20152477749E+03  0.12500000000E+03 0.  0.
</event>
<event>
 5    0  0.5798000E-005  0.3053815E+03  0.7546771E-02  0.1082581E+00
         21   -1    0    0  502  501  0.00000000000E+00  0.00000000000E+00  0.62124956457E+03  0.62124956457E+03  0.00000000000E+00 0.  1.
         21   -1    0    0  501  502 -0.00000000000E+00 -0.00000000000E+00 -0.15011335471E+03  0.15011335471E+03  0.00000000000E+00 0.  1.
         25    1    1    2    0    0  0.17406650047E+03 -0.12974555725E+02  0.37824112774E+03  0.43492394323E+03  0.12500000000E+03 0.  0.
         25    1    1    2    0    0 -0.10811549930E+03 -0.20115943043E+02  0.94177408520E+02  0.19127989081E+03  0.12500000000E+03 0.  0.
         25    1    1    2    0    0 -0.65951001175E+02  0.33090498768E+02 -0.12823263971E+01  0.14515908523E+03  0.12500000000E+03 0.  0.
</event>
<event>
 5    0  0.5612316E-005  0.3248953E+03  0.7546771E-02  0.1073418E+00
         21   -1    0    0  502  501  0.00000000000E+00  0.00000000000E+00  0.33590665388E+03  0.33590665388E+03  0.00000000000E+00 0.  1.
         21   -1    0    0  501  502 -0.00000000000E+00 -0.00000000000E+00 -0.31424491174E+03  0.31424491174E+03  0.00000000000E+00 0.  1.
         25    1    1    2    0    0  0.15043131579E+03  0.18290549969E+02  0.17975088640E+03  0.26626961176E+03  0.12500000000E+03 0.  0.
         25    1    1    2    0    0 -0.51236786914E+02  0.85014171327E+02 -0.76863477650E+02  0.17715984832E+03  0.12500000000E+03 0.  0.
         25    1    1    2    0    0 -0.99194528871E+02 -0.10330472130E+03 -0.81225666611E+02  0.20672210553E+03  0.12500000000E+03 0.  0.
</event>
<event>
 5    0  0.5612316E-005  0.3656810E+03  0.7546771E-02  0.1056357E+00
         21   -1    0    0  502  501  0.00000000000E+00  0.00000000000E+00  0.20910135800E+03  0.20910135800E+03  0.00000000000E+00 0.  1.
         21   -1    0    0  501  502 -0.00000000000E+00 -0.00000000000E+00 -0.63951079502E+03  0.63951079502E+03  0.00000000000E+00 0.  1.
         25    1    1    2    0    0  0.53003470039E+02 -0.16282304867E+03 -0.32406557210E+02  0.21446654277E+03  0.12500000000E+03 0.  0.
         25    1    1    2    0    0  0.31926097938E+02 -0.97211545784E+02 -0.25320640808E+03  0.30034620932E+03  0.12500000000E+03 0.  0.
         25    1    1    2    0    0 -0.84929567977E+02  0.26003459446E+03 -0.14479647174E+03  0.33379940093E+03  0.12500000000E+03 0.  0.
</event>
<event>
 5    0  0.5612316E-005  0.2837217E+03  0.7546771E-02  0.1093673E+00
         21   -1    0    0  502  501  0.00000000000E+00  0.00000000000E+00  0.16242503692E+03  0.16242503692E+03  0.00000000000E+00 0.  1.
         21   -1    0    0  501  502 -0.00000000000E+00 -0.00000000000E+00 -0.49560091761E+03  0.49560091761E+03  0.00000000000E+00 0.  1.
         25    1    1    2    0    0 -0.87494767241E+02  0.11348365869E+03 -0.13777053155E+03  0.23481821575E+03  0.12500000000E+03 0.  0.
         25    1    1    2    0    0  0.39139641346E+02  0.69451018071E+02 -0.86337555106E+02  0.17156494064E+03  0.12500000000E+03 0.  0.
         25    1    1    2    0    0  0.48355125895E+02 -0.18293467676E+03 -0.10906779404E+03  0.25164279814E+03  0.12500000000E+03 0.  0.
</event>
<event>
 5    0  0.5612316E-005  0.2946515E+03  0.7546771E-02  0.1087945E+00
         21   -1    0    0  502  501  0.00000000000E+00  0.00000000000E+00  0.11659910682E+03  0.11659910682E+03  0.00000000000E+00 0. -1.
         21   -1    0    0  501  502 -0.00000000000E+00 -0.00000000000E+00 -0.74459849658E+03  0.74459849658E+03  0.00000000000E+00 0. -1.
         25    1    1    2    0    0 -0.76777963935E+02 -0.69192259450E+02 -0.24736874614E+02  0.16407113542E+03  0.12500000000E+03 0.  0.
         25    1    1    2    0    0 -0.10696118508E+02  0.11674596003E+02 -0.46985136880E+03  0.48645247652E+03  0.12500000000E+03 0.  0.
         25    1    1    2    0    0  0.87474082443E+02  0.57517663447E+02 -0.13341114634E+03  0.21067399146E+03  0.12500000000E+03 0.  0.
</event>
<event>
 5    0  0.5612316E-005  0.3677611E+03  0.7546771E-02  0.1055552E+00
         21   -1    0    0  502  501  0.00000000000E+00  0.00000000000E+00  0.42366732193E+03  0.42366732193E+03  0.00000000000E+00 0. -1.
         21   -1    0    0  501  502 -0.00000000000E+00 -0.00000000000E+00 -0.31923215024E+03  0.31923215024E+03  0.00000000000E+00 0. -1.
         25    1    1    2    0    0  0.28468911894E+01 -0.16972265631E+03 -0.17647833719E+03  0.27492451392E+03  0.12500000000E+03 0.  0.
         25    1    1    2    0    0 -0.70513730221E+01  0.18623278315E+03  0.95885390592E+02  0.24403151336E+03  0.12500000000E+03 0.  0.
         25    1    1    2    0    0  0.42044818327E+01 -0.16510126844E+02  0.18502811829E+03  0.22394344490E+03  0.12500000000E+03 0.  0.
</event>
<event>
 5    0  0.5612316E-005  0.3659133E+03  0.7546771E-02  0.1056267E+00
         21   -1    0    0  502  501  0.00000000000E+00  0.00000000000E+00  0.15262150739E+04  0.15262150739E+04  0.00000000000E+00 0.  1.
         21   -1    0    0  501  502 -0.00000000000E+00 -0.00000000000E+00 -0.87728501954E+02  0.87728501954E+02  0.00000000000E+00 0.  1.
         25    1    1    2    0    0  0.67460707498E+02 -0.76868145291E+02  0.26568229900E+03  0.31092079830E+03  0.12500000000E+03 0.  0.
         25    1    1    2    0    0 -0.53833758203E+02 -0.17826710787E+03  0.81848955720E+03  0.84866211799E+03  0.12500000000E+03 0.  0.
         25    1    1    2    0    0 -0.13626949295E+02  0.25513525316E+03  0.35431471572E+03  0.45436065953E+03  0.12500000000E+03 0.  0.
</event>
<event>
 5    0  0.5612316E-005  0.2565112E+03  0.7546771E-02  0.1109258E+00
         21   -1    0    0  502  501  0.00000000000E+00  0.00000000000E+00  0.19479250836E+03  0.19479250836E+03  0.00000000000E+00 0.  1.
         21   -1    0    0  501  502 -0.00000000000E+00 -0.00000000000E+00 -0.33778500767E+03  0.33778500767E+03  0.00000000000E+00 0.  1.
         25    1    1    2    0    0  0.15256738104E+03  0.11580684327E+02 -0.66843550797E+02  0.20857607314E+03  0.12500000000E+03 0.  0.
         25    1    1    2    0    0 -0.51019305056E+02 -0.51440145462E+02 -0.81811061333E+01  0.14471001538E+03  0.12500000000E+03 0.  0.
         25    1    1    2    0    0 -0.10154807598E+03  0.39859461135E+02 -0.67967842384E+02  0.17929142750E+03  0.12500000000E+03 0.  0.
</event>
<event>
 5    0  0.5612316E-005  0.2083719E+03  0.7546771E-02  0.1142862E+00
         21   -1    0    0  502  501  0.00000000000E+00  0.00000000000E+00  0.14372185639E+04  0.14372185639E+04  0.00000000000E+00 0. -1.
         21   -1    0    0  501  502 -0.00000000000E+00 -0.00000000000E+00 -0.30210337966E+02  0.30210337966E+02  0.00000000000E+00 0. -1.
         25    1    1    2    0    0  0.30843513215E+02  0.76544519089E+02  0.52453082342E+03  0.54549791056E+03  0.12500000000E+03 0.  0.
         25    1    1    2    0    0 -0.17840285623E+02 -0.16137938245E+02  0.43265877909E+03  0.45099592899E+03  0.12500000000E+03 0.  0.
         25    1    1    2    0    0 -0.13003227592E+02 -0.60406580843E+02  0.44981862343E+03  0.47093506232E+03  0.12500000000E+03 0.  0.
</event>
<event>
 5    0  0.5647062E-005  0.2814856E+03  0.7546771E-02  0.1094880E+00
         21   -1    0    0  502  501  0.00000000000E+00  0.00000000000E+00  0.63765269491E+03  0.63765269491E+03  0.00000000000E+00 0.  1.
         21   -1    0    0  501  502 -0.00000000000E+00 -0.00000000000E+00 -0.12425906710E+03  0.12425906710E+03  0.00000000000E+00 0.  1.
         25    1    1    2    0    0  0.13773748044E+02 -0.12581646890E+03  0.72765937452E+02  0.19219620609E+03  0.12500000000E+03 0.  0.
         25    1    1    2    0    0  0.11930105483E+02 -0.38360480182E+02  0.80924071132E+02  0.15423215989E+03  0.12500000000E+03 0.  0.
         25    1    1    2    0    0 -0.25703853527E+02  0.16417694908E+03  0.35970361923E+03  0.41548339604E+03  0.12500000000E+03 0.  0.
</event>
<event>
 5    0  0.5612316E-005  0.3691089E+03  0.7546771E-02  0.1055034E+00
         21   -1    0    0  502  501  0.00000000000E+00  0.00000000000E+00  0.22407421744E+04  0.22407421744E+04  0.00000000000E+00 0. -1.
         21   -1    0    0  501  502 -0.00000000000E+00 -0.00000000000E+00 -0.60801896410E+02  0.60801896410E+02  0.00000000000E+00 0. -1.
         25    1    1    2    0    0 -0.70939195108E+02  0.58882486484E+02  0.64561793917E+03  0.66403843262E+03  0.12500000000E+03 0.  0.
         25    1    1    2    0    0 -0.11892794418E+03 -0.21616253547E+03  0.55766928693E+03  0.62248705306E+03  0.12500000000E+03 0.  0.
         25    1    1    2    0    0  0.18986713928E+03  0.15728004899E+03  0.97665305192E+03  0.10150185852E+04  0.12500000000E+03 0.  0.
</event>
<event>
 5    0  0.5612316E-005  0.4414407E+03  0.7546771E-02  0.1030306E+00
         21   -1    0    0  502  501  0.00000000000E+00  0.00000000000E+00  0.61902649902E+03  0.61902649902E+03  0.00000000000E+00 0.  1.
         21   -1    0    0  501  502 -0.00000000000E+00 -0.00000000000E+00 -0.31480052701E+03  0.31480052701E+03  0.00000000000E+00 0.  1.
         25    1    1    2    0    0 -0.33585944807E+02 -0.26841416726E+03  0.38013613609E+03  0.48301414352E+03  0.12500000000E+03 0.  0.
         25    1    1    2    0    0  0.82098227557E+02  0.23780632437E+03  0.22313563068E+02  0.28180642642E+03  0.12500000000E+03 0.  0.
         25    1    1    2    0    0 -0.48512282750E+02  0.30607842896E+02 -0.98223727145E+02  0.16900645609E+03  0.12500000000E+03 0.  0.
</event>
<event>
 5    0  0.5612316E-005  0.2792301E+03  0.7546771E-02  0.1096110E+00
         21   -1    0    0  502  501  0.00000000000E+00  0.00000000000E+00  0.40149141460E+03  0.40149141460E+03  0.00000000000E+00 0. -1.
         21   -1    0    0  501  502 -0.00000000000E+00 -0.00000000000E+00 -0.19419954552E+03  0.19419954552E+03  0.00000000000E+00 0. -1.
         25    1    1    2    0    0  0.35564557741E+02 -0.97058915858E+02  0.21867984155E+03  0.27227035097E+03  0.12500000000E+03 0.  0.
         25    1    1    2    0    0  0.36952576341E+02  0.94848297638E+02  0.46427994459E+02  0.16775652337E+03  0.12500000000E+03 0.  0.
         25    1    1    2    0    0 -0.72517134082E+02  0.22106182195E+01 -0.57815966931E+02  0.15566408578E+03  0.12500000000E+03 0.  0.
</event>
<event>
 5    0  0.5612316E-005  0.4087498E+03  0.7546771E-02  0.1040791E+00
         21   -1    0    0  502  501  0.00000000000E+00  0.00000000000E+00  0.26818097478E+03  0.26818097478E+03  0.00000000000E+00 0.  1.
         21   -1    0    0  501  502 -0.00000000000E+00 -0.00000000000E+00 -0.62299865572E+03  0.62299865572E+03  0.00000000000E+00 0.  1.
         25    1    1    2    0    0 -0.54448109958E+02 -0.16524609890E+03  0.56646670837E+02  0.22159583750E+03  0.12500000000E+03 0.  0.
         25    1    1    2    0    0  0.16122485020E+03  0.15355668312E+03 -0.33854246028E+02  0.25757371222E+03  0.12500000000E+03 0.  0.
         25    1    1    2    0    0 -0.10677674024E+03  0.11689415789E+02 -0.37761010575E+03  0.41201008078E+03  0.12500000000E+03 0.  0.
</event>
<event>
 5    0  0.5612316E-005  0.3384613E+03  0.7546771E-02  0.1067453E+00
         21   -1    0    0  502  501  0.00000000000E+00  0.00000000000E+00  0.20814226815E+03  0.20814226815E+03  0.00000000000E+00 0.  1.
         21   -1    0    0  501  502 -0.00000000000E+00 -0.00000000000E+00 -0.55037364130E+03  0.55037364130E+03  0.00000000000E+00 0.  1.
         25    1    1    2    0    0 -0.11997006059E+03  0.10573734682E+03 -0.68506387423E+02  0.21422261101E+03  0.12500000000E+03 0.  0.
         25    1    1    2    0    0 -0.12109455244E+03 -0.90461571069E+02 -0.88164444029E+02  0.21504686852E+03  0.12500000000E+03 0.  0.
         25    1    1    2    0    0  0.24106461303E+03 -0.15275775756E+02 -0.18556054169E+03  0.32924642992E+03  0.12500000000E+03 0.  0.
</event>
<event>
 5    0  0.5612316E-005  0.3738811E+03  0.7546771E-02  0.1053219E+00
         21   -1    0    0  502  501  0.00000000000E+00  0.00000000000E+00  0.19186670381E+03  0.19186670381E+03  0.00000000000E+00 0.  1.
         21   -1    0    0  501  502 -0.00000000000E+00 -0.00000000000E+00 -0.72856339395E+03  0.72856339395E+03  0.00000000000E+00 0.  1.
         25    1    1    2    0    0 -0.13725138584E+03 -0.78118834599E+02 -0.41247378889E+03  0.45902082933E+03  0.12500000000E+03 0.  0.
         25    1    1    2    0    0  0.20883616073E+03 -0.52162150836E+02 -0.52674114743E+02  0.25442679571E+03  0.12500000000E+03 0.  0.
         25    1    1    2    0    0 -0.71584774899E+02  0.13028098543E+03 -0.71548786506E+02  0.20698247272E+03  0.12500000000E+03 0.  0.
</event>
<event>
 5    0  0.5612316E-005  0.2445232E+03  0.7546771E-02  0.1116816E+00
         21   -1    0    0  502  501  0.00000000000E+00  0.00000000000E+00  0.78981544435E+03  0.78981544435E+03  0.00000000000E+00 0.  1.
         21   -1    0    0  501  502 -0.00000000000E+00 -0.00000000000E+00 -0.75703223979E+02  0.75703223979E+02  0.00000000000E+00 0.  1.
         25    1    1    2    0    0  0.52399323364E+01 -0.62392111309E+02  0.19308581977E+03  0.23838491194E+03  0.12500000000E+03 0.  0.
         25    1    1    2    0    0 -0.33252765081E+02  0.13800784641E+03  0.36775451401E+03  0.41354600063E+03  0.12500000000E+03 0.  0.
         25    1    1    2    0    0  0.28012832744E+02 -0.75615735103E+02  0.15327188659E+03  0.21358775576E+03  0.12500000000E+03 0.  0.
</event>
<event>
 5    0  0.5612316E-005  0.2801511E+03  0.7546771E-02  0.1095606E+00
         21   -1    0    0  502  501  0.00000000000E+00  0.00000000000E+00  0.43355133457E+03  0.43355133457E+03  0.00000000000E+00 0. -1.
         21   -1    0    0  501  502 -0.00000000000E+00 -0.00000000000E+00 -0.18102727156E+03  0.18102727156E+03  0.00000000000E+00 0. -1.
         25    1    1    2    0    0  0.43694323291E+01  0.93714828686E+02  0.43861346468E+02  0.16232799749E+03  0.12500000000E+03 0.  0.
         25    1    1    2    0    0  0.91690106334E+02  0.39272858820E+02  0.18517198194E+03  0.24466936043E+03  0.12500000000E+03 0.  0.
         25    1    1    2    0    0 -0.96059538663E+02 -0.13298768751E+03  0.23490734607E+02  0.20758124821E+03  0.12500000000E+03 0.  0.
</event>
<event>
 5    0  0.5612316E-005  0.2418417E+03  0.7546771E-02  0.1118572E+00
         21   -1    0    0  502  501  0.00000000000E+00  0.00000000000E+00  0.27383621117E+03  0.27383621117E+03  0.00000000000E+00 0.  1.
         21   -1    0    0  501  502 -0.00000000000E+00 -0.00000000000E+00 -0.21358531992E+03  0.21358531992E+03  0.00000000000E+00 0.  1.
         25    1    1    2    0    0  0.74718430013E+02  0.46585739550E+02  0.10296058007E+03  0.18433381665E+03  0.12500000000E+03 0.  0.
         25    1    1    2    0    0 -0.37017282670E+02 -0.14610978253E+00  0.46351445851E+02  0.13836096667E+03  0.12500000000E+03 0.  0.
         25    1    1    2    0    0 -0.37701147343E+02 -0.46439629768E+02 -0.89061134665E+02  0.16472674777E+03  0.12500000000E+03 0.  0.
</event>
<event>
 5    0  0.5612316E-005  0.5067402E+03  0.7546771E-02  0.1012034E+00
         21   -1    0    0  502  501  0.00000000000E+00  0.00000000000E+00  0.18383814449E+04  0.18383814449E+04  0.00000000000E+00 0. -1.
         21   -1    0    0  501  502 -0.00000000000E+00 -0.00000000000E+00 -0.13968027893E+03  0.13968027893E+03  0.00000000000E+00 0.  1.
         25    1    1    2    0    0 -0.27853938897E+03  0.17337619646E+03  0.23903262189E+03  0.42474120478E+03  0.12500000000E+03 0.  0.
         25    1    1    2    0    0 -0.47475875020E+02 -0.46160315092E+01  0.51627230127E+03  0.53332668742E+03  0.12500000000E+03 0.  0.
         25    1    1    2    0    0  0.32601526399E+03 -0.16876016495E+03  0.94339624285E+03  0.10199938317E+04  0.12500000000E+03 0.  0.
</event>
<event>
 5    0  0.5612316E-005  0.2032301E+03  0.7546771E-02  0.1147042E+00
         21   -1    0    0  502  501  0.00000000000E+00  0.00000000000E+00  0.51347287057E+03  0.51347287057E+03  0.00000000000E+00 0.  1.
         21   -1    0    0  501  502 -0.00000000000E+00 -0.00000000000E+00 -0.80437530976E+02  0.80437530976E+02  0.00000000000E+00 0.  1.
         25    1    1    2    0    0  0.28526426154E+02 -0.10132247965E+02  0.92677298329E+02  0.15852602645E+03  0.12500000000E+03 0.  0.
         25    1    1    2    0    0  0.25036370308E+02  0.19236616158E+02  0.21221357814E+03  0.24830720889E+03  0.12500000000E+03 0.  0.
         25    1    1    2    0    0 -0.53562796461E+02 -0.91043681925E+01  0.12814446313E+03  0.18707716621E+03  0.12500000000E+03 0.  0.
</event>
<event>
 5    0  0.5612316E-005  0.3145649E+03  0.7546771E-02  0.1078178E+00
         21   -1    0    0  502  501  0.00000000000E+00  0.00000000000E+00  0.11856223283E+04  0.11856223283E+04  0.00000000000E+00 0. -1.
         21   -1    0    0  501  502 -0.00000000000E+00 -0.00000000000E+00 -0.83459187576E+02  0.83459187576E+02  0.00000000000E+00 0. -1.
         25    1    1    2    0    0  0.76087334019E+02 -0.65097528239E+02  0.96246190440E+02  0.18685636129E+03  0.12500000000E+03 0.  0.
         25    1    1    2    0    0 -0.14045958905E+03 -0.68341474247E+02  0.59834940608E+03  0.63090923675E+03  0.12500000000E+03 0.  0.
         25    1    1    2    0    0  0.64372255033E+02  0.13343900249E+03  0.40756754420E+03  0.45131591783E+03  0.12500000000E+03 0.  0.
</event>
<event>
 5    0  0.5612316E-005  0.2657555E+03  0.7546771E-02  0.1103734E+00
         21   -1    0    0  502  501  0.00000000000E+00  0.00000000000E+00  0.16051455430E+03  0.16051455430E+03  0.00000000000E+00 0.  1.
         21   -1    0    0  501  502 -0.00000000000E+00 -0.00000000000E+00 -0.43999749128E+03  0.43999749128E+03  0.00000000000E+00 0.  1.
         25    1    1    2    0    0 -0.12611457112E+03 -0.59109008680E+02 -0.13770938008E+03  0.23235239039E+03  0.12500000000E+03 0.  0.
         25    1    1    2    0    0  0.62874567823E+02 -0.43876357130E+02 -0.46305232818E+01  0.14671328413E+03  0.12500000000E+03 0.  0.
         25    1    1    2    0    0  0.63240003302E+02  0.10298536581E+03 -0.13714303362E+03  0.22144637107E+03  0.12500000000E+03 0.  0.
</event>
<event>
 5    0  0.5612316E-005  0.3696634E+03  0.7546771E-02  0.1054822E+00
         21   -1    0    0  502  501  0.00000000000E+00  0.00000000000E+00  0.46448279537E+03  0.46448279537E+03  0.00000000000E+00 0. -1.
         21   -1    0    0  501  502 -0.00000000000E+00 -0.00000000000E+00 -0.29420042008E+03  0.29420042008E+03  0.00000000000E+00 0. -1.
         25    1    1    2    0    0  0.54853142932E+02  0.14781262029E+03  0.12557933839E+03  0.23717632310E+03  0.12500000000E+03 0.  0.
         25    1    1    2    0    0 -0.39508378723E+02  0.14625613524E+03 -0.11325968052E+02  0.19673598206E+03  0.12500000000E+03 0.  0.
         25    1    1    2    0    0 -0.15344764209E+02 -0.29406875554E+03  0.56029004957E+02  0.32477091029E+03  0.12500000000E+03 0.  0.
</event>
<event>
 5    0  0.5612316E-005  0.2377876E+03  0.7546771E-02  0.1121275E+00
         21   -1    0    0  502  501  0.00000000000E+00  0.00000000000E+00  0.47841684871E+03  0.47841684871E+03  0.00000000000E+00 0. -1.
         21   -1    0    0  501  502 -0.00000000000E+00 -0.00000000000E+00 -0.11818760689E+03  0.11818760689E+03  0.00000000000E+00 0. -1.
         25    1    1    2    0    0 -0.61474033300E+02  0.55264300996E+01  0.10297958307E+03  0.17331876046E+03  0.12500000000E+03 0.  0.
         25    1    1    2    0    0  0.82354761288E+02  0.71259700634E+02  0.21041708052E+03  0.26788168922E+03  0.12500000000E+03 0.  0.
         25    1    1    2    0    0 -0.20880727988E+02 -0.76786130733E+02  0.46832578224E+02  0.15540400592E+03  0.12500000000E+03 0.  0.
</event>
<event>
 5    0  0.5612316E-005  0.4672147E+03  0.7546771E-02  0.1022709E+00
         21   -1    0    0  502  501  0.00000000000E+00  0.00000000000E+00  0.37634407814E+03  0.37634407814E+03  0.00000000000E+00 0.  1.
         21   -1    0    0  501  502 -0.00000000000E+00 -0.00000000000E+00 -0.58002671701E+03  0.58002671701E+03  0.00000000000E+00 0.  1.
         25    1    1    2    0    0 -0.83839896024E+02  0.21175178685E+03 -0.20965452597E+03  0.33383823577E+03  0.12500000000E+03 0.  0.
         25    1    1    2    0    0 -0.28133836144E+02 -0.28074327961E+03  0.19136957631E+03  0.36311928691E+03  0.12500000000E+03 0.  0.
         25    1    1    2    0    0  0.11197373217E+03  0.68991492765E+02 -0.18539768922E+03  0.25941327248E+03  0.12500000000E+03 0.  0.
</event>
<event>
 5    0  0.5612316E-005  0.4473298E+03  0.7546771E-02  0.1028521E+00
         21   -1    0    0  502  501  0.00000000000E+00  0.00000000000E+00  0.16114367770E+04  0.16114367770E+04  0.00000000000E+00 0.  1.
         21   -1    0    0  501  502 -0.00000000000E+00 -0.00000000000E+00 -0.12417734218E+03  0.12417734218E+03  0.00000000000E+00 0.  1.
         25    1    1    2    0    0 -0.15513439113E+03  0.18822909516E+03  0.10622938960E+04  0.10970825826E+04  0.12500000000E+03 0.  0.
         25    1    1    2    0    0  0.17526840152E+03 -0.25427027096E+03  0.31211867185E+03  0.45652540848E+03  0.12500000000E+03 0.  0.
         25    1    1    2    0    0 -0.20134010384E+02  0.66041175802E+02  0.11284686694E+03  0.18200612807E+03  0.12500000000E+03 0.  0.
</event>
<event>
 5    0  0.5612316E-005  0.3091033E+03  0.7546771E-02  0.1080776E+00
         21   -1    0    0  502  501  0.00000000000E+00  0.00000000000E+00  0.14706868253E+04  0.14706868253E+04  0.00000000000E+00 0.  1.
         21   -1    0    0  501  502 -0.00000000000E+00 -0.00000000000E+00 -0.64966161441E+02  0.64966161441E+02  0.00000000000E+00 0.  1.
         25    1    1    2    0    0  0.64942895439E+02 -0.10901123399E+03  0.47505745864E+03  0.50735157220E+03  0.12500000000E+03 0.  0.
         25    1    1    2    0    0 -0.11565641475E+03  0.20786279474E+03  0.61280370770E+03  0.66913132633E+03  0.12500000000E+03 0.  0.
         25    1    1    2    0    0  0.50713519310E+02 -0.98851560752E+02  0.31785949755E+03  0.35917008824E+03  0.12500000000E+03 0.  0.
</event>
<event>
 5    0  0.5612316E-005  0.3409481E+03  0.7546771E-02  0.1066393E+00
         21   -1    0    0  502  501  0.00000000000E+00  0.00000000000E+00  0.87582442487E+02  0.87582442487E+02  0.00000000000E+00 0. -1.
         21   -1    0    0  501  502 -0.00000000000E+00 -0.00000000000E+00 -0.13272703847E+04  0.13272703847E+04  0.00000000000E+00 0. -1.
         25    1    1    2    0    0 -0.61915934194E+02 -0.10693455931E+03 -0.13502512083E+03  0.22164242855E+03  0.12500000000E+03 0.  0.
         25    1    1    2    0    0  0.65428679353E+02  0.13596377939E+03 -0.10217968350E+04  0.10404137799E+04  0.12500000000E+03 0.  0.
         25    1    1    2    0    0 -0.35127451594E+01 -0.29029220086E+02 -0.82865986392E+02  0.15279661874E+03  0.12500000000E+03 0.  0.
</event>
<event>
 5    0  0.5612316E-005  0.3729760E+03  0.7546771E-02  0.1053561E+00
         21   -1    0    0  502  501  0.00000000000E+00  0.00000000000E+00  0.11734498634E+04  0.11734498634E+04  0.00000000000E+00 0.  1.
         21   -1    0    0  501  502 -0.00000000000E+00 -0.00000000000E+00 -0.11854880169E+03  0.11854880169E+03  0.00000000000E+00 0.  1.
         25    1    1    2    0    0  0.18454063698E+03 -0.10183331655E+03  0.20227636662E+03  0.31775147451E+03  0.12500000000E+03 0.  0.
         25    1    1    2    0    0 -0.14654880053E+03  0.59830549260E+02  0.80359366716E+03  0.82851917749E+03  0.12500000000E+03 0.  0.
         25    1    1    2    0    0 -0.37991836453E+02  0.42002767294E+02  0.49031027906E+02  0.14572801308E+03  0.12500000000E+03 0.  0.
</event>
<event>
 5    0  0.5612316E-005  0.4220908E+03  0.7546771E-02  0.1036388E+00
         21   -1    0    0  502  501  0.00000000000E+00  0.00000000000E+00  0.34737867863E+03  0.34737867863E+03  0.00000000000E+00 0. -1.
         21   -1    0    0  501  502 -0.00000000000E+00 -0.00000000000E+00 -0.51287145561E+03  0.51287145561E+03  0.00000000000E+00 0. -1.
         25    1    1    2    0    0 -0.42919336089E+02  0.73859574331E+02 -0.29537957632E+02  0.15425562250E+03  0.12500000000E+03 0.  0.
         25    1    1    2    0    0  0.83024683906E+02 -0.29157488411E+03 -0.26432636401E+03  0.42119168782E+03  0.12500000000E+03 0.  0.
         25    1    1    2    0    0 -0.40105347817E+02  0.21771530978E+03  0.12837154465E+03  0.28480282392E+03  0.12500000000E+03 0.  0.
</event>
<event>
 5    0  0.5612316E-005  0.2822569E+03  0.7546771E-02  0.1094463E+00
         21   -1    0    0  502  501  0.00000000000E+00  0.00000000000E+00  0.65853675900E+03  0.65853675900E+03  0.00000000000E+00 0.  1.
         21   -1    0    0  501  502 -0.00000000000E+00 -0.00000000000E+00 -0.12097877591E+03  0.12097877591E+03  0.00000000000E+00 0.  1.
         25    1    1    2    0    0  0.37479187376E+02  0.16059311825E+02  0.79688189589E+02  0.15374588951E+03  0.12500000000E+03 0.  0.
         25    1    1    2    0    0  0.11831742205E+03  0.86208072367E+02  0.14621809903E+03  0.24173451674E+03  0.12500000000E+03 0.  0.
         25    1    1    2    0    0 -0.15579660942E+03 -0.10226738419E+03  0.31165169447E+03  0.38403512866E+03  0.12500000000E+03 0.  0.
</event>
<event>
 5    0  0.5612316E-005  0.3133688E+03  0.7546771E-02  0.1078742E+00
         21   -1    0    0  502  501  0.00000000000E+00  0.00000000000E+00  0.81624154210E+03  0.81624154210E+03  0.00000000000E+00 0. -1.
         21   -1    0    0  501  502 -0.00000000000E+00 -0.00000000000E+00 -0.12030751546E+03  0.12030751546E+03  0.00000000000E+00 0. -1.
         25    1    1    2    0    0  0.83935913223E+02 -0.17167227426E+03  0.92737916287E+02  0.24645877626E+03  0.12500000000E+03 0.  0.
         25    1    1    2    0    0  0.11026599183E+02  0.10892448620E+03  0.29673809503E+03  0.34009502588E+03  0.12500000000E+03 0.  0.
         25    1    1    2    0    0 -0.94962512406E+02  0.62747788065E+02  0.30645801532E+03  0.34999525543E+03  0.12500000000E+03 0.  0.
</event>
<event>
 5    0  0.5612316E-005  0.2638427E+03  0.7546771E-02  0.1104856E+00
         21   -1    0    0  502  501  0.00000000000E+00  0.00000000000E+00  0.58637520830E+02  0.58637520830E+02  0.00000000000E+00 0.  1.
         21   -1    0    0  501  502 -0.00000000000E+00 -0.00000000000E+00 -0.11871744823E+04  0.11871744823E+04  0.00000000000E+00 0.  1.
         25    1    1    2    0    0  0.27255730255E+02  0.98297327242E+02 -0.16700547318E+03  0.23220910285E+03  0.12500000000E+03 0.  0.
         25    1    1    2    0    0  0.29928331254E+02 -0.11524966984E+03 -0.65255323277E+03  0.67500289851E+03  0.12500000000E+03 0.  0.
         25    1    1    2    0    0 -0.57184061509E+02  0.16952342595E+02 -0.30897825555E+03  0.33860000179E+03  0.12500000000E+03 0.  0.
</event>
<event>
 5    0  0.5612316E-005  0.2166612E+03  0.7546771E-02  0.1136397E+00
         21   -1    0    0  502  501  0.00000000000E+00  0.00000000000E+00  0.14113861069E+03  0.14113861069E+03  0.00000000000E+00 0.  1.
         21   -1    0    0  501  502 -0.00000000000E+00 -0.00000000000E+00 -0.33259569776E+03  0.33259569776E+03  0.00000000000E+00 0.  1.
         25    1    1    2    0    0  0.42939584276E+02  0.13490324075E+02 -0.99619886547E+02  0.16605697377E+03  0.12500000000E+03 0.  0.
         25    1    1    2    0    0 -0.33100816019E+02  0.39395318523E+02 -0.10470802327E+03  0.17098662310E+03  0.12500000000E+03 0.  0.
         25    1    1    2    0    0 -0.98387682570E+01 -0.52885642598E+02  0.12870822755E+02  0.13669071158E+03  0.12500000000E+03 0.  0.
</event>
<event>
 5    0  0.5612316E-005  0.2480056E+03  0.7546771E-02  0.1114572E+00
         21   -1    0    0  502  501  0.00000000000E+00  0.00000000000E+00  0.10333767945E+03  0.10333767945E+03  0.00000000000E+00 0.  1.
         21   -1    0    0  501  502 -0.00000000000E+00 -0.00000000000E+00 -0.59520174103E+03  0.59520174103E+03  0.00000000000E+00 0.  1.
         25    1    1    2    0    0 -0.10761509170E+03  0.11416093055E+01 -0.19380256941E+03  0.25449311806E+03  0.12500000000E+03 0.  0.
         25    1    1    2    0    0 -0.29397776870E+02 -0.47518103599E+02 -0.10707750653E+03  0.17381827251E+03  0.12500000000E+03 0.  0.
         25    1    1    2    0    0  0.13701286857E+03  0.46376494294E+02 -0.19098398564E+03  0.27022802991E+03  0.12500000000E+03 0.  0.
</event>
<event>
 5    0  0.5612316E-005  0.3139494E+03  0.7546771E-02  0.1078468E+00
         21   -1    0    0  502  501  0.00000000000E+00  0.00000000000E+00  0.22002889686E+03  0.22002889686E+03  0.00000000000E+00 0.  1.
         21   -1    0    0  501  502 -0.00000000000E+00 -0.00000000000E+00 -0.44796039480E+03  0.44796039480E+03  0.00000000000E+00 0.  1.
         25    1    1    2    0    0  0.16399111244E+03 -0.33442107642E+02 -0.27669793676E+03  0.34669613169E+03  0.12500000000E+03 0.  0.
         25    1    1    2    0    0 -0.41515892732E+02  0.26599122441E+02 -0.14340528400E+02  0.13513598121E+03  0.12500000000E+03 0.  0.
         25    1    1    2    0    0 -0.12247521971E+03  0.68429852013E+01  0.63106967220E+02  0.18615717875E+03  0.12500000000E+03 0.  0.
</event>
<event>
 5    0  0.5612316E-005  0.4988601E+03  0.7546771E-02  0.1014077E+00
         21   -1    0    0  502  501  0.00000000000E+00  0.00000000000E+00  0.26888790566E+04  0.26888790566E+04  0.00000000000E+00 0. -1.
         21   -1    0    0  501  502 -0.00000000000E+00 -0.00000000000E+00 -0.92552106971E+02  0.92552106971E+02  0.00000000000E+00 0. -1.
         25    1    1    2    0    0  0.21773035762E+02 -0.11689680804E+02  0.26181504247E+03  0.29117491339E+03  0.12500000000E+03 0.  0.
         25    1    1    2    0    0  0.26421003445E+02  0.32502259304E+03  0.19299790294E+04  0.19613214446E+04  0.12500000000E+03 0.  0.
         25    1    1    2    0    0 -0.48194039207E+02 -0.31333291224E+03  0.40453287782E+03  0.52893480557E+03  0.12500000000E+03 0.  0.
</event>
<event>
 5    0  0.5612316E-005  0.4739780E+03  0.7546771E-02  0.1020803E+00
         21   -1    0    0  502  501  0.00000000000E+00  0.00000000000E+00  0.34140147904E+03  0.34140147904E+03  0.00000000000E+00 0. -1.
         21   -1    0    0  501  502 -0.00000000000E+00 -0.00000000000E+00 -0.65803807597E+03  0.65803807597E+03  0.00000000000E+00 0. -1.
         25    1    1    2    0    0  0.14360203458E+03  0.27083090567E+03 -0.40906464996E+03  0.52624121052E+03  0.12500000000E+03 0.  0.
         25    1    1    2    0    0 -0.10182212107E+03 -0.28561593296E+03  0.91763057539E+02  0.34057255354E+03  0.12500000000E+03 0.  0.
         25    1    1    2    0    0 -0.41779913504E+02  0.14785027284E+02  0.66499549557E+00  0.13262579094E+03  0.12500000000E+03 0.  0.
</event>
<event>
 5    0  0.5612316E-005  0.2077629E+03  0.7546771E-02  0.1143350E+00
         21   -1    0    0  502  501  0.00000000000E+00  0.00000000000E+00  0.14761678404E+03  0.14761678404E+03  0.00000000000E+00 0.  1.
         21   -1    0    0  501  502 -0.00000000000E+00 -0.00000000000E+00 -0.29241550284E+03  0.29241550284E+03  0.00000000000E+00 0.  1.
         25    1    1    2    0    0  0.27792698935E+02  0.22989401156E+02 -0.21140496559E+02  0.13180617313E+03  0.12500000000E+03 0.  0.
         25    1    1    2    0    0 -0.18201486540E+02 -0.72311530940E+02 -0.45610545637E+02  0.15253056576E+03  0.12500000000E+03 0.  0.
         25    1    1    2    0    0 -0.95912123954E+01  0.49322129784E+02 -0.78047676603E+02  0.15569554799E+03  0.12500000000E+03 0.  0.
</event>
<event>
 5    0  0.5612316E-005  0.3974159E+03  0.7546771E-02  0.1044678E+00
         21   -1    0    0  502  501  0.00000000000E+00  0.00000000000E+00  0.22815704665E+04  0.22815704665E+04  0.00000000000E+00 0.  1.
         21   -1    0    0  501  502 -0.00000000000E+00 -0.00000000000E+00 -0.69223972995E+02  0.69223972995E+02  0.00000000000E+00 0.  1.
         25    1    1    2    0    0 -0.21793587111E+03  0.12724282404E+03  0.52635654790E+03  0.59696146920E+03  0.12500000000E+03 0.  0.
         25    1    1    2    0    0  0.26377113520E+03  0.35299253546E+01  0.11421708777E+04  0.11788837881E+04  0.12500000000E+03 0.  0.
         25    1    1    2    0    0 -0.45835264092E+02 -0.13077274939E+03  0.54381906789E+03  0.57494918212E+03  0.12500000000E+03 0.  0.
</event>
<event>
 5    0  0.5612316E-005  0.2736692E+03  0.7546771E-02  0.1099198E+00
         21   -1    0    0  502  501  0.00000000000E+00  0.00000000000E+00  0.12157983666E+03  0.12157983666E+03  0.00000000000E+00 0.  1.
         21   -1    0    0  501  502 -0.00000000000E+00 -0.00000000000E+00 -0.61601364204E+03  0.61601364204E+03  0.00000000000E+00 0.  1.
         25    1    1    2    0    0 -0.17138755968E+03 -0.14868105696E+02 -0.25326149548E+03  0.33069796080E+03  0.12500000000E+03 0.  0.
         25    1    1    2    0    0  0.16536101450E+02 -0.86019227377E+01 -0.78351347053E+02  0.14869892169E+03  0.12500000000E+03 0.  0.
         25    1    1    2    0    0  0.15485145823E+03  0.23470028434E+02 -0.16282096285E+03  0.25819659621E+03  0.12500000000E+03 0.  0.
</event>
<event>
 5    0  0.5612316E-005  0.3049222E+03  0.7546771E-02  0.1082806E+00
         21   -1    0    0  502  501  0.00000000000E+00  0.00000000000E+00  0.67054914735E+03  0.67054914735E+03  0.00000000000E+00 0.  1.
         21   -1    0    0  501  502 -0.00000000000E+00 -0.00000000000E+00 -0.13865883976E+03  0.13865883976E+03  0.00000000000E+00 0.  1.
         25    1    1    2    0    0  0.43542131768E+02 -0.17304801847E+03  0.31593712606E+03  0.38377441493E+03  0.12500000000E+03 0.  0.
         25    1    1    2    0    0  0.10798463566E+02 -0.23113577365E+02  0.80058991177E+02  0.15061635483E+03  0.12500000000E+03 0.  0.
         25    1    1    2    0    0 -0.54340595334E+02  0.19616159583E+03  0.13589419035E+03  0.27481721735E+03  0.12500000000E+03 0.  0.
</event>
<event>
 5    0  0.5612316E-005  0.4006149E+03  0.7546771E-02  0.1043567E+00
         21   -1    0    0  502  501  0.00000000000E+00  0.00000000000E+00  0.21260257266E+03  0.21260257266E+03  0.00000000000E+00 0.  1.
         21   -1    0    0  501  502 -0.00000000000E+00 -0.00000000000E+00 -0.75489363430E+03  0.75489363430E+03  0.00000000000E+00 0.  1.
         25    1    1    2    0    0  0.18875130259E+02 -0.12637677028E+03 -0.21884123093E+03  0.28256652838E+03  0.12500000000E+03 0.  0.
         25    1    1    2    0    0  0.21880862371E+03  0.51438180770E+02 -0.31409993833E+03  0.40596412589E+03  0.12500000000E+03 0.  0.
         25    1    1    2    0    0 -0.23768375397E+03  0.74938589510E+02 -0.93498923771E+01  0.27896555269E+03  0.12500000000E+03 0.  0.
</event>
<event>
 5    0  0.5612316E-005  0.2256706E+03  0.7546771E-02  0.1129725E+00
         21   -1    0    0  502  501  0.00000000000E+00  0.00000000000E+00  0.76170550233E+03  0.76170550233E+03  0.00000000000E+00 0. -1.
         21   -1    0    0  501  502 -0.00000000000E+00 -0.00000000000E+00 -0.66859457037E+02  0.66859457037E+02  0.00000000000E+00 0. -1.
         25    1    1    2    0    0  0.16612145839E+02  0.94261836185E+02  0.24016373742E+03  0.28716698613E+03  0.12500000000E+03 0.  0.
         25    1    1    2    0    0  0.38586732011E+02 -0.71137313634E+02  0.17900884452E+03  0.23284892032E+03  0.12500000000E+03 0.  0.
         25    1    1    2    0    0 -0.55198877850E+02 -0.23124522550E+02  0.27567346335E+03  0.30854905291E+03  0.12500000000E+03 0.  0.
</event>
<event>
 5    0  0.5612316E-005  0.3272045E+03  0.7546771E-02  0.1072381E+00
         21   -1    0    0  502  501  0.00000000000E+00  0.00000000000E+00  0.10257163616E+03  0.10257163616E+03  0.00000000000E+00 0.  1.
         21   -1    0    0  501  502 -0.00000000000E+00 -0.00000000000E+00 -0.10437852161E+04  0.10437852161E+04  0.00000000000E+00 0.  1.
         25    1    1    2    0    0 -0.40170592076E+02  0.45999882358E+01 -0.23981746117E+03  0.27344515180E+03  0.12500000000E+03 0.  0.
         25    1    1    2    0    0  0.93889712342E+01 -0.23832623762E+02  0.29129720400E+02  0.13088043149E+03  0.12500000000E+03 0.  0.
         25    1    1    2    0    0  0.30781620842E+02  0.19232635526E+02 -0.73052583916E+03  0.74203126897E+03  0.12500000000E+03 0.  0.
</event>
<event>
 5    0  0.5612316E-005  0.2665074E+03  0.7546771E-02  0.1103295E+00
         21   -1    0    0  502  501  0.00000000000E+00  0.00000000000E+00  0.57856316369E+03  0.57856316369E+03  0.00000000000E+00 0. -1.
         21   -1    0    0  501  502 -0.00000000000E+00 -0.00000000000E+00 -0.12276305404E+03  0.12276305404E+03  0.00000000000E+00 0. -1.
         25    1    1    2    0    0  0.70260224613E+02  0.10045866316E+03  0.51034237982E+02  0.18236758378E+03  0.12500000000E+03 0.  0.
         25    1    1    2    0    0 -0.11584954842E+03 -0.33378992918E+02  0.18822750907E+03  0.25610519364E+03  0.12500000000E+03 0.  0.
         25    1    1    2    0    0  0.45589323804E+02 -0.67079670247E+02  0.21653836260E+03  0.26285344031E+03  0.12500000000E+03 0.  0.
</event>
<event>
 5    0  0.5612316E-005  0.2951445E+03  0.7546771E-02  0.1087693E+00
         21   -1    0    0  502  501  0.00000000000E+00  0.00000000000E+00  0.13700132186E+03  0.13700132186E+03  0.00000000000E+00 0.  1.
         21   -1    0    0  501  502 -0.00000000000E+00 -0.00000000000E+00 -0.63583546029E+03  0.63583546029E+03  0.00000000000E+00 0.  1.
         25    1    1    2    0    0 -0.25649727739E+02  0.12046505294E+03 -0.10758661044E+02  0.17581378302E+03  0.12500000000E+03 0.  0.
         25    1    1    2    0    0 -0.12959556915E+02 -0.12385065173E+03 -0.14025357095E+03  0.22539520451E+03  0.12500000000E+03 0.  0.
         25    1    1    2    0    0  0.38609284654E+02  0.33855987879E+01 -0.34782190644E+03  0.37162779462E+03  0.12500000000E+03 0.  0.
</event>
<event>
 5    0  0.5612316E-005  0.4459840E+03  0.7546771E-02  0.1028926E+00
         21   -1    0    0  502  501  0.00000000000E+00  0.00000000000E+00  0.13445382278E+04  0.13445382278E+04  0.00000000000E+00 0. -1.
         21   -1    0    0  501  502 -0.00000000000E+00 -0.00000000000E+00 -0.14793310214E+03  0.14793310214E+03  0.00000000000E+00 0.  1.
         25    1    1    2    0    0 -0.42764118937E+02  0.31739473341E+03  0.89216272924E+03  0.95611062232E+03  0.12500000000E+03 0.  0.
         25    1    1    2    0    0  0.92142596379E+02 -0.21798780897E+03  0.14076449249E+03  0.30240467138E+03  0.12500000000E+03 0.  0.
         25    1    1    2    0    0 -0.49378477442E+02 -0.99406924436E+02  0.16367790392E+03  0.23395603624E+03  0.12500000000E+03 0.  0.
</event>
<event>
 5    0  0.5612316E-005  0.3553250E+03  0.7546771E-02  0.1060450E+00
         21   -1    0    0  502  501  0.00000000000E+00  0.00000000000E+00  0.13492069524E+03  0.13492069524E+03  0.00000000000E+00 0. -1.
         21   -1    0    0  501  502 -0.00000000000E+00 -0.00000000000E+00 -0.93577811556E+03  0.93577811556E+03  0.00000000000E+00 0. -1.
         25    1    1    2    0    0  0.21200016340E+01 -0.72927154168E+02 -0.14585136955E+03  0.20547624247E+03  0.12500000000E+03 0.  0.
         25    1    1    2    0    0  0.14076113084E+03 -0.21800597021E+02 -0.14010152427E+02  0.19002696218E+03  0.12500000000E+03 0.  0.
         25    1    1    2    0    0 -0.14288113247E+03  0.94727751188E+02 -0.64099589834E+03  0.67519560614E+03  0.12500000000E+03 0.  0.
</event>
<event>
 5    0  0.5612316E-005  0.2090351E+03  0.7546771E-02  0.1142332E+00
         21   -1    0    0  502  501  0.00000000000E+00  0.00000000000E+00  0.11970850643E+03  0.11970850643E+03  0.00000000000E+00 0. -1.
         21   -1    0    0  501  502 -0.00000000000E+00 -0.00000000000E+00 -0.36501744170E+03  0.36501744170E+03  0.00000000000E+00 0. -1.
         25    1    1    2    0    0 -0.36278685794E+02  0.88255802433E+01 -0.16252774959E+03  0.20840898084E+03  0.12500000000E+03 0.  0.
         25    1    1    2    0    0 -0.19073376847E+02 -0.53885550432E+01 -0.33062647727E+02  0.13080890224E+03  0.12500000000E+03 0.  0.
         25    1    1    2    0    0  0.55352062641E+02 -0.34370252001E+01 -0.49718537955E+02  0.14550806506E+03  0.12500000000E+03 0.  0.
</event>
<event>
 5    0  0.5612316E-005  0.6951113E+03  0.7546771E-02  0.9725629E-01
         21   -1    0    0  502  501  0.00000000000E+00  0.00000000000E+00  0.46402182287E+03  0.46402182287E+03  0.00000000000E+00 0. -1.
         21   -1    0    0  501  502 -0.00000000000E+00 -0.00000000000E+00 -0.10412865426E+04  0.10412865426E+04  0.00000000000E+00 0. -1.
         25    1    1    2    0    0  0.13259679604E+02 -0.18842357410E+03 -0.55208508072E+03  0.59674299220E+03  0.12500000000E+03 0.  0.
         25    1    1    2    0    0 -0.24006573133E+03  0.29881169631E+03  0.28191906400E+03  0.49195868105E+03  0.12500000000E+03 0.  0.
         25    1    1    2    0    0  0.22680605172E+03 -0.11038812221E+03 -0.30709870305E+03  0.41660669226E+03  0.12500000000E+03 0.  0.
</event>
<event>
 5    0  0.5786629E-005  0.3032616E+03  0.7546771E-02  0.1083621E+00
         21   -1    0    0  502  501  0.00000000000E+00  0.00000000000E+00  0.70978287801E+03  0.70978287801E+03  0.00000000000E+00 0.  1.
         21   -1    0    0  501  502 -0.00000000000E+00 -0.00000000000E+00 -0.12957144186E+03  0.12957144186E+03  0.00000000000E+00 0.  1.
         25    1    1    2    0    0  0.18411687600E+01 -0.12359448855E+03 -0.57482754113E+01  0.17588925542E+03  0.12500000000E+03 0.  0.
         25    1    1    2    0    0  0.24777063181E+02 -0.43734643771E+01  0.28712425820E+03  0.31416296678E+03  0.12500000000E+03 0.  0.
         25    1    1    2    0    0 -0.26618231941E+02  0.12796795293E+03  0.29883545336E+03  0.34930209767E+03  0.12500000000E+03 0.  0.
</event>
<event>
 5    0  0.5612316E-005  0.2981977E+03  0.7546771E-02  0.1086145E+00
         21   -1    0    0  502  501  0.00000000000E+00  0.00000000000E+00  0.23302668605E+04  0.23302668605E+04  0.00000000000E+00 0. -1.
         21   -1    0    0  501  502 -0.00000000000E+00 -0.00000000000E+00 -0.38159516312E+02  0.38159516312E+02  0.00000000000E+00 0. -1.
         25    1    1    2    0    0 -0.31022532706E+02  0.17201671786E+03  0.68250704334E+03  0.71553687044E+03  0.12500000000E+03 0.  0.
         25    1    1    2    0    0 -0.93112109957E+02 -0.97230276009E+02  0.73742260164E+03  0.75996097597E+03  0.12500000000E+03 0.  0.
         25    1    1    2    0    0  0.12413464266E+03 -0.74786441854E+02  0.87217769926E+03  0.89292853044E+03  0.12500000000E+03 0.  0.
</event>
<event>
 5    0  0.5612316E-005  0.3616563E+03  0.7546771E-02  0.1057930E+00
         21   -1    0    0  502  501  0.00000000000E+00  0.00000000000E+00  0.10103121689E+03  0.10103121689E+03  0.00000000000E+00 0.  1.
         21   -1    0    0  501  502 -0.00000000000E+00 -0.00000000000E+00 -0.12946027839E+04  0.12946027839E+04  0.00000000000E+00 0.  1.
         25    1    1    2    0    0  0.58902560009E+02 -0.19014555483E+03 -0.16259846449E+03  0.28581130883E+03  0.12500000000E+03 0.  0.
         25    1    1    2    0    0 -0.46011325257E+02 -0.41277917480E+01 -0.65454068788E+03  0.66796900587E+03  0.12500000000E+03 0.  0.
         25    1    1    2    0    0 -0.12891234752E+02  0.19427334658E+03 -0.37643241466E+03  0.44185368611E+03  0.12500000000E+03 0.  0.
</event>
<event>
 5    0  0.5612316E-005  0.2742042E+03  0.7546771E-02  0.1098897E+00
         21   -1    0    0  502  501  0.00000000000E+00  0.00000000000E+00  0.84551587786E+03  0.84551587786E+03  0.00000000000E+00 0. -1.
         21   -1    0    0  501  502 -0.00000000000E+00 -0.00000000000E+00 -0.88925505854E+02  0.88925505854E+02  0.00000000000E+00 0. -1.
         25    1    1    2    0    0 -0.30064707327E+02  0.17592418934E+03  0.34583426195E+03  0.40875364679E+03  0.12500000000E+03 0.  0.
         25    1    1    2    0    0  0.33950024512E+02 -0.13897997727E+03  0.29740533446E+03  0.35290646241E+03  0.12500000000E+03 0.  0.
         25    1    1    2    0    0 -0.38853171857E+01 -0.36944212073E+02  0.11335077560E+03  0.17278127452E+03  0.12500000000E+03 0.  0.
</event>
<event>
 5    0  0.5612316E-005  0.3917216E+03  0.7546771E-02  0.1046684E+00
         21   -1    0    0  502  501  0.00000000000E+00  0.00000000000E+00  0.41706457305E+03  0.41706457305E+03  0.00000000000E+00 0. -1.
         21   -1    0    0  501  502 -0.00000000000E+00 -0.00000000000E+00 -0.36791860528E+03  0.36791860528E+03  0.00000000000E+00 0. -1.
         25    1    1    2    0    0  0.23890291513E+03  0.11622901347E+03  0.40447127246E+02  0.29638616117E+03  0.12500000000E+03 0.  0.
         25    1    1    2    0    0  0.80487813720E+01 -0.36858233066E+02  0.12244823620E+03  0.17900246583E+03  0.12500000000E+03 0.  0.
         25    1    1    2    0    0 -0.24695169650E+03 -0.79370780409E+02 -0.11374939567E+03  0.30959455132E+03  0.12500000000E+03 0.  0.
</event>
<event>
 5    0  0.5612316E-005  0.3900903E+03  0.7546771E-02  0.1047266E+00
         21   -1    0    0  502  501  0.00000000000E+00  0.00000000000E+00  0.12076777367E+03  0.12076777367E+03  0.00000000000E+00 0.  1.
         21   -1    0    0  501  502 -0.00000000000E+00 -0.00000000000E+00 -0.12600250499E+04  0.12600250499E+04  0.00000000000E+00 0.  1.
         25    1    1    2    0    0 -0.99691371973E+01 -0.91479602367E+02 -0.10807158649E+02  0.15559465294E+03  0.12500000000E+03 0.  0.
         25    1    1    2    0    0  0.17975757105E+03 -0.43182207895E+02 -0.61010472960E+03  0.64963856759E+03  0.12500000000E+03 0.  0.
         25    1    1    2    0    0 -0.16978843385E+03  0.13466181026E+03 -0.51834538796E+03  0.57555960302E+03  0.12500000000E+03 0.  0.
</event>
<event>
 5    0  0.5612316E-005  0.3183310E+03  0.7546771E-02  0.1076420E+00
         21   -1    0    0  502  501  0.00000000000E+00  0.00000000000E+00  0.44065544228E+03  0.44065544228E+03  0.00000000000E+00 0. -1.
         21   -1    0    0  501  502 -0.00000000000E+00 -0.00000000000E+00 -0.22996341231E+03  0.22996341231E+03  0.00000000000E+00 0. -1.
         25    1    1    2    0    0 -0.18825800046E+02 -0.96248604306E+01 -0.10298366362E+03  0.16333304521E+03  0.12500000000E+03 0.  0.
         25    1    1    2    0    0  0.15736394767E+03 -0.25036029920E+02  0.11662539737E+03  0.23370215688E+03  0.12500000000E+03 0.  0.
         25    1    1    2    0    0 -0.13853814763E+03  0.34660890350E+02  0.19705029623E+03  0.27358365249E+03  0.12500000000E+03 0.  0.
</event>
<event>
 5    0  0.5612316E-005  0.2246402E+03  0.7546771E-02  0.1130470E+00
         21   -1    0    0  502  501  0.00000000000E+00  0.00000000000E+00  0.40485946626E+02  0.40485946626E+02  0.00000000000E+00 0.  1.
         21   -1    0    0  501  502 -0.00000000000E+00 -0.00000000000E+00 -0.12464373911E+04  0.12464373911E+04  0.00000000000E+00 0.  1.
         25    1    1    2    0    0  0.22451532815E+02  0.11794029197E+02 -0.25993937123E+03  0.28954558737E+03  0.12500000000E+03 0.  0.
         25    1    1    2    0    0  0.23642879271E+02  0.70923068368E+02 -0.31297742128E+03  0.34520853639E+03  0.12500000000E+03 0.  0.
         25    1    1    2    0    0 -0.46094412086E+02 -0.82717097565E+02 -0.63303465197E+03  0.65216921397E+03  0.12500000000E+03 0.  0.
</event>
<event>
 5    0  0.5612316E-005  0.2521895E+03  0.7546771E-02  0.1111929E+00
         21   -1    0    0  502  501  0.00000000000E+00  0.00000000000E+00  0.12045940389E+03  0.12045940389E+03  0.00000000000E+00 0.  1.
         21   -1    0    0  501  502 -0.00000000000E+00 -0.00000000000E+00 -0.52797502676E+03  0.52797502676E+03  0.00000000000E+00 0.  1.
         25    1    1    2    0    0 -0.79917103002E+02 -0.74693292097E+02 -0.14797202816E+03  0.22245573122E+03  0.12500000000E+03 0.  0.
         25    1    1    2    0    0  0.10926671982E+02  0.17167813274E+02 -0.23927179120E+03  0.27072147318E+03  0.12500000000E+03 0.  0.
         25    1    1    2    0    0  0.68990431019E+02  0.57525478823E+02 -0.20271803513E+02  0.15525722625E+03  0.12500000000E+03 0.  0.
</event>
<event>
 5    0  0.5893802E-005  0.3293594E+03  0.7546771E-02  0.1071421E+00
         21   -1    0    0  502  501  0.00000000000E+00  0.00000000000E+00  0.40250174040E+03  0.40250174040E+03  0.00000000000E+00 0. -1.
         21   -1    0    0  501  502 -0.00000000000E+00 -0.00000000000E+00 -0.26950835695E+03  0.26950835695E+03  0.00000000000E+00 0. -1.
         25    1    1    2    0    0  0.19350095992E+03 -0.83141538053E+02  0.11527286031E+03  0.27068056665E+03  0.12500000000E+03 0.  0.
         25    1    1    2    0    0 -0.13640300601E+03  0.43342704478E+02  0.12064125772E+03  0.22508594613E+03  0.12500000000E+03 0.  0.
         25    1    1    2    0    0 -0.57097953908E+02  0.39798833575E+02 -0.10292073458E+03  0.17624358457E+03  0.12500000000E+03 0.  0.
</event>
<event>
 5    0  0.5612316E-005  0.4258425E+03  0.7546771E-02  0.1035181E+00
         21   -1    0    0  502  501  0.00000000000E+00  0.00000000000E+00  0.59066127803E+03  0.59066127803E+03  0.00000000000E+00 0.  1.
         21   -1    0    0  501  502 -0.00000000000E+00 -0.00000000000E+00 -0.30701492298E+03  0.30701492298E+03  0.00000000000E+00 0.  1.
         25    1    1    2    0    0 -0.26904146807E+03 -0.10970224319E+03  0.63883223008E+02  0.32268244434E+03  0.12500000000E+03 0.  0.
         25    1    1    2    0    0  0.17470415819E+03  0.21284098488E+03  0.24044099001E+03  0.38634142595E+03  0.12500000000E+03 0.  0.
         25    1    1    2    0    0  0.94337309884E+02 -0.10313874169E+03 -0.20677857964E+02  0.18865233071E+03  0.12500000000E+03 0.  0.
</event>
<event>
 5    0  0.5824316E-005  0.2661382E+03  0.7546771E-02  0.1103510E+00
         21   -1    0    0  502  501  0.00000000000E+00  0.00000000000E+00  0.69810410498E+03  0.69810410498E+03  0.00000000000E+00 0.  1.
         21   -1    0    0  501  502 -0.00000000000E+00 -0.00000000000E+00 -0.10145982370E+03  0.10145982370E+03  0.00000000000E+00 0.  1.
         25    1    1    2    0    0  0.21339820374E+02  0.78146121851E+02  0.22129189036E+03  0.26675326621E+03  0.12500000000E+03 0.  0.
         25    1    1    2    0    0  0.13108064115E+02 -0.16133232674E+03  0.29529616866E+03  0.35920017848E+03  0.12500000000E+03 0.  0.
         25    1    1    2    0    0 -0.34447884489E+02  0.83186204889E+02  0.80056222269E+02  0.17361048400E+03  0.12500000000E+03 0.  0.
</event>
<event>
 5    0  0.5612316E-005  0.3497335E+03  0.7546771E-02  0.1062724E+00
         21   -1    0    0  502  501  0.00000000000E+00  0.00000000000E+00  0.47607297170E+03  0.47607297170E+03  0.00000000000E+00 0. -1.
         21   -1    0    0  501  502 -0.00000000000E+00 -0.00000000000E+00 -0.25692178268E+03  0.25692178268E+03  0.00000000000E+00 0.  1.
         25    1    1    2    0    0 -0.39535112749E+02 -0.20655725670E+03  0.22922480911E+03  0.33525801787E+03  0.12500000000E+03 0.  0.
         25    1    1    2    0    0 -0.20290252505E+02  0.21418166977E+03  0.36199637953E+02  0.25143765788E+03  0.12500000000E+03 0.  0.
         25    1    1    2    0    0  0.59825365253E+02 -0.76244130661E+01 -0.46273258038E+02  0.14629907864E+03  0.12500000000E+03 0.  0.
</event>
<event>
 5    0  0.5612316E-005  0.3425851E+03  0.7546771E-02  0.1065700E+00
         21   -1    0    0  502  501  0.00000000000E+00  0.00000000000E+00  0.50356407242E+03  0.50356407242E+03  0.00000000000E+00 0. -1.
         21   -1    0    0  501  502 -0.00000000000E+00 -0.00000000000E+00 -0.23306782348E+03  0.23306782348E+03  0.00000000000E+00 0. -1.
         25    1    1    2    0    0 -0.39828031759E+02  0.25113753775E+03  0.15455782689E+02  0.28376084331E+03  0.12500000000E+03 0.  0.
         25    1    1    2    0    0  0.58110075132E+02 -0.76681236095E+02  0.90828512870E+02  0.18202090965E+03  0.12500000000E+03 0.  0.
         25    1    1    2    0    0 -0.18282043372E+02 -0.17445630165E+03  0.16421195338E+03  0.27085014293E+03  0.12500000000E+03 0.  0.
</event>
<event>
 5    0  0.5612316E-005  0.2192590E+03  0.7546771E-02  0.1134437E+00
         21   -1    0    0  502  501  0.00000000000E+00  0.00000000000E+00  0.39619234931E+02  0.39619234931E+02  0.00000000000E+00 0. -1.
         21   -1    0    0  501  502 -0.00000000000E+00 -0.00000000000E+00 -0.12134138243E+04  0.12134138243E+04  0.00000000000E+00 0. -1.
         25    1    1    2    0    0 -0.34050331370E+02 -0.77534081590E+02 -0.46313170661E+03  0.48712106969E+03  0.12500000000E+03 0.  0.
         25    1    1    2    0    0  0.25695961042E+02  0.87020429373E+02 -0.46506332580E+03  0.49004258442E+03  0.12500000000E+03 0.  0.
         25    1    1    2    0    0  0.83543703284E+01 -0.94863477833E+01 -0.24559955693E+03  0.27586940508E+03  0.12500000000E+03 0.  0.
</event>
<event>
 5    0  0.6573953E-005  0.3512667E+03  0.7546771E-02  0.1062096E+00
         21   -1    0    0  502  501  0.00000000000E+00  0.00000000000E+00  0.82621797014E+02  0.82621797014E+02  0.00000000000E+00 0.  1.
         21   -1    0    0  501  502 -0.00000000000E+00 -0.00000000000E+00 -0.14934110141E+04  0.14934110141E+04  0.00000000000E+00 0.  1.
         25    1    1    2    0    0  0.10241289188E+03 -0.16865284787E+03 -0.77389731691E+03  0.80837753595E+03  0.12500000000E+03 0.  0.
         25    1    1    2    0    0 -0.17865046516E+03  0.50676398885E+02 -0.44969110681E+03  0.50232576845E+03  0.12500000000E+03 0.  0.
         25    1    1    2    0    0  0.76237573285E+02  0.11797644898E+03 -0.18720079339E+03  0.26532950673E+03  0.12500000000E+03 0.  0.
</event>
<event>
 5    0  0.5612316E-005  0.4780986E+03  0.7546771E-02  0.1019659E+00
         21   -1    0    0  502  501  0.00000000000E+00  0.00000000000E+00  0.93814289848E+03  0.93814289848E+03  0.00000000000E+00 0. -1.
         21   -1    0    0  501  502 -0.00000000000E+00 -0.00000000000E+00 -0.24364974240E+03  0.24364974240E+03  0.00000000000E+00 0. -1.
         25    1    1    2    0    0 -0.17664459166E+03  0.10805727590E+03  0.25867925770E+03  0.35414636099E+03  0.12500000000E+03 0.  0.
         25    1    1    2    0    0 -0.45769783936E+02  0.21978387184E+03  0.52208995305E+02  0.26220336121E+03  0.12500000000E+03 0.  0.
         25    1    1    2    0    0  0.22241437559E+03 -0.32784114773E+03  0.38360490307E+03  0.56544291867E+03  0.12500000000E+03 0.  0.
</event>
<event>
 5    0  0.5612316E-005  0.2911278E+03  0.7546771E-02  0.1089762E+00
         21   -1    0    0  502  501  0.00000000000E+00  0.00000000000E+00  0.12292492543E+03  0.12292492543E+03  0.00000000000E+00 0.  1.
         21   -1    0    0  501  502 -0.00000000000E+00 -0.00000000000E+00 -0.68948913479E+03  0.68948913479E+03  0.00000000000E+00 0.  1.
         25    1    1    2    0    0  0.73362521159E+02  0.60922504670E+02 -0.47335577565E+03  0.49878281990E+03  0.12500000000E+03 0.  0.
         25    1    1    2    0    0 -0.25830937047E+02 -0.56045806103E+02  0.16780558159E+02  0.14040995984E+03  0.12500000000E+03 0.  0.
         25    1    1    2    0    0 -0.47531584112E+02 -0.48766985668E+01 -0.10998899187E+03  0.17322128047E+03  0.12500000000E+03 0.  0.
</event>
<event>
 5    0  0.5612316E-005  0.2641693E+03  0.7546771E-02  0.1104664E+00
         21   -1    0    0  502  501  0.00000000000E+00  0.00000000000E+00  0.43839074065E+03  0.43839074065E+03  0.00000000000E+00 0. -1.
         21   -1    0    0  501  502 -0.00000000000E+00 -0.00000000000E+00 -0.15918539478E+03  0.15918539478E+03  0.00000000000E+00 0. -1.
         25    1    1    2    0    0 -0.46316844559E+02  0.51877590284E+02 -0.19525808632E+02  0.14437032821E+03  0.12500000000E+03 0.  0.
         25    1    1    2    0    0  0.10793246170E+03 -0.96104945658E+02  0.13659021202E+03  0.23487754871E+03  0.12500000000E+03 0.  0.
         25    1    1    2    0    0 -0.61615617137E+02  0.44227355373E+02  0.16214094248E+03  0.21832825851E+03  0.12500000000E+03 0.  0.
</event>
<event>
 5    0  0.5612316E-005  0.2929788E+03  0.7546771E-02  0.1088804E+00
         21   -1    0    0  502  501  0.00000000000E+00  0.00000000000E+00  0.12728188621E+03  0.12728188621E+03  0.00000000000E+00 0. -1.
         21   -1    0    0  501  502 -0.00000000000E+00 -0.00000000000E+00 -0.67438174192E+03  0.67438174192E+03  0.00000000000E+00 0. -1.
         25    1    1    2    0    0  0.62051671152E+02  0.59866370054E+02 -0.15706854965E+03  0.21847178638E+03  0.12500000000E+03 0.  0.
         25    1    1    2    0    0  0.57295925414E+02 -0.62884209254E+02  0.57493129139E+01  0.15131193423E+03  0.12500000000E+03 0.  0.
         25    1    1    2    0    0 -0.11934759657E+03  0.30178391994E+01 -0.39578061898E+03  0.43187990752E+03  0.12500000000E+03 0.  0.
</event>
<event>
 5    0  0.5612316E-005  0.3099130E+03  0.7546771E-02  0.1080388E+00
         21   -1    0    0  502  501  0.00000000000E+00  0.00000000000E+00  0.13644663607E+03  0.13644663607E+03  0.00000000000E+00 0. -1.
         21   -1    0    0  501  502 -0.00000000000E+00 -0.00000000000E+00 -0.70390960933E+03  0.70390960933E+03  0.00000000000E+00 0. -1.
         25    1    1    2    0    0  0.85145501556E+02 -0.16646161722E+03 -0.15215672797E+03  0.27154354404E+03  0.12500000000E+03 0.  0.
         25    1    1    2    0    0  0.54833584203E+02  0.45239184540E+01 -0.10876285367E+03  0.17458965070E+03  0.12500000000E+03 0.  0.
         25    1    1    2    0    0 -0.13997908576E+03  0.16193769876E+03 -0.30654339163E+03  0.39422305067E+03  0.12500000000E+03 0.  0.
</event>
<event>
 5    0  0.5612316E-005  0.3767208E+03  0.7546771E-02  0.1052152E+00
         21   -1    0    0  502  501  0.00000000000E+00  0.00000000000E+00  0.26994608539E+03  0.26994608539E+03  0.00000000000E+00 0. -1.
         21   -1    0    0  501  502 -0.00000000000E+00 -0.00000000000E+00 -0.52572930866E+03  0.52572930866E+03  0.00000000000E+00 0. -1.
         25    1    1    2    0    0 -0.15093611330E+03  0.53446528332E+02  0.12216879700E+03  0.23704104423E+03  0.12500000000E+03 0.  0.
         25    1    1    2    0    0  0.15456245787E+03 -0.65291916735E+02 -0.37911188742E+03  0.43301664051E+03  0.12500000000E+03 0.  0.
         25    1    1    2    0    0 -0.36263445684E+01  0.11845388403E+02  0.11598671487E+01  0.12561770931E+03  0.12500000000E+03 0.  0.
</event>
<event>
 5    0  0.5612316E-005  0.2609691E+03  0.7546771E-02  0.1106562E+00
         21   -1    0    0  502  501  0.00000000000E+00  0.00000000000E+00  0.15990161092E+04  0.15990161092E+04  0.00000000000E+00 0.  1.
         21   -1    0    0  501  502 -0.00000000000E+00 -0.00000000000E+00 -0.42591724849E+02  0.42591724849E+02  0.00000000000E+00 0.  1.
         25    1    1    2    0    0 -0.11976989860E+03  0.62987590442E+01  0.72535397611E+03  0.74575323910E+03  0.12500000000E+03 0.  0.
         25    1    1    2    0    0  0.13247631915E+03  0.22588006584E+02  0.32121118336E+03  0.36994839842E+03  0.12500000000E+03 0.  0.
         25    1    1    2    0    0 -0.12706420552E+02 -0.28886765628E+02  0.50985922490E+03  0.52590619655E+03  0.12500000000E+03 0.  0.
</event>
<event>
 5    0  0.5612316E-005  0.3179004E+03  0.7546771E-02  0.1076620E+00
         21   -1    0    0  502  501  0.00000000000E+00  0.00000000000E+00  0.78550221449E+02  0.78550221449E+02  0.00000000000E+00 0.  1.
         21   -1    0    0  501  502 -0.00000000000E+00 -0.00000000000E+00 -0.12865742349E+04  0.12865742349E+04  0.00000000000E+00 0.  1.
         25    1    1    2    0    0  0.36986785092E+01 -0.46317463667E+02 -0.43079543606E+03  0.45096418416E+03  0.12500000000E+03 0.  0.
         25    1    1    2    0    0  0.55984924386E+02 -0.84134064106E+02 -0.59116785286E+02  0.17126776347E+03  0.12500000000E+03 0.  0.
         25    1    1    2    0    0 -0.59683602896E+02  0.13045152777E+03 -0.71811179211E+03  0.74289250872E+03  0.12500000000E+03 0.  0.
</event>
<event>
 5    0  0.5612316E-005  0.2675519E+03  0.7546771E-02  0.1102689E+00
         21   -1    0    0  502  501  0.00000000000E+00  0.00000000000E+00  0.18702068872E+03  0.18702068872E+03  0.00000000000E+00 0.  1.
         21   -1    0    0  501  502 -0.00000000000E+00 -0.00000000000E+00 -0.38275984477E+03  0.38275984477E+03  0.00000000000E+00 0.  1.
         25    1    1    2    0    0  0.47561005706E+02  0.24419841746E+02 -0.56720436350E+02  0.14731118706E+03  0.12500000000E+03 0.  0.
         25    1    1    2    0    0  0.97489605437E+01 -0.15445027758E+03 -0.22453936374E+02  0.20019767665E+03  0.12500000000E+03 0.  0.
         25    1    1    2    0    0 -0.57309966249E+02  0.13003043584E+03 -0.11656478332E+03  0.22227166978E+03  0.12500000000E+03 0.  0.
</event>
<event>
 5    0  0.5612316E-005  0.5270723E+03  0.7546771E-02  0.1006945E+00
         21   -1    0    0  502  501  0.00000000000E+00  0.00000000000E+00  0.32821667226E+03  0.32821667226E+03  0.00000000000E+00 0.  1.
         21   -1    0    0  501  502 -0.00000000000E+00 -0.00000000000E+00 -0.84640797137E+03  0.84640797137E+03  0.00000000000E+00 0.  1.
         25    1    1    2    0    0 -0.18002449399E+03 -0.11177042560E+03 -0.14468777294E+03  0.28541373147E+03  0.12500000000E+03 0.  0.
         25    1    1    2    0    0 -0.15748179408E+03  0.11429933722E+02  0.14639842515E+03  0.24897521511E+03  0.12500000000E+03 0.  0.
         25    1    1    2    0    0  0.33750628807E+03  0.10034049188E+03 -0.51990195132E+03  0.64023569705E+03  0.12500000000E+03 0.  0.
</event>
<event>
 5    0  0.5612316E-005  0.2483811E+03  0.7546771E-02  0.1114332E+00
         21   -1    0    0  502  501  0.00000000000E+00  0.00000000000E+00  0.45162327112E+02  0.45162327112E+02  0.00000000000E+00 0. -1.
         21   -1    0    0  501  502 -0.00000000000E+00 -0.00000000000E+00 -0.13660320050E+04  0.13660320050E+04  0.00000000000E+00 0. -1.
         25    1    1    2    0    0 -0.97691910502E+02 -0.35681128224E+02 -0.33028356127E+03  0.36814274831E+03  0.12500000000E+03 0.  0.
         25    1    1    2    0    0 -0.18879614826E+02 -0.40299721372E+02 -0.30939516868E+03  0.33664651759E+03  0.12500000000E+03 0.  0.
         25    1    1    2    0    0  0.11657152533E+03  0.75980849595E+02 -0.68119094791E+03  0.70640506619E+03  0.12500000000E+03 0.  0.
</event>
<event>
 5    0  0.5612316E-005  0.3258652E+03  0.7546771E-02  0.1072981E+00
         21   -1    0    0  502  501  0.00000000000E+00  0.00000000000E+00  0.12589650637E+03  0.12589650637E+03  0.00000000000E+00 0. -1.
         21   -1    0    0  501  502 -0.00000000000E+00 -0.00000000000E+00 -0.84345585416E+03  0.84345585416E+03  0.00000000000E+00 0. -1.
         25    1    1    2    0    0  0.30472199749E+02 -0.70919019462E+02 -0.50496293444E+03  0.52589982643E+03  0.12500000000E+03 0.  0.
         25    1    1    2    0    0  0.10686961733E+03 -0.31890516341E+02 -0.14244024286E+03  0.21989166180E+03  0.12500000000E+03 0.  0.
         25    1    1    2    0    0 -0.13734181708E+03  0.10280953580E+03 -0.70156170486E+02  0.22356087231E+03  0.12500000000E+03 0.  0.
</event>
<event>
 5    0  0.5612316E-005  0.2397091E+03  0.7546771E-02  0.1119987E+00
         21   -1    0    0  502  501  0.00000000000E+00  0.00000000000E+00  0.46389847769E+03  0.46389847769E+03  0.00000000000E+00 0.  1.
         21   -1    0    0  501  502 -0.00000000000E+00 -0.00000000000E+00 -0.12386424872E+03  0.12386424872E+03  0.00000000000E+00 0.  1.
         25    1    1    2    0    0 -0.40617295010E+02  0.47807184635E+02  0.91757539232E+02  0.16727144874E+03  0.12500000000E+03 0.  0.
         25    1    1    2    0    0 -0.90417325635E+02 -0.14735972024E+02  0.12237366708E+03  0.19746583513E+03  0.12500000000E+03 0.  0.
         25    1    1    2    0    0  0.13103462065E+03 -0.33071212611E+02  0.12590302265E+03  0.22302544255E+03  0.12500000000E+03 0.  0.
</event>
<event>
 5    0  0.5685338E-005  0.2830027E+03  0.7546771E-02  0.1094060E+00
         21   -1    0    0  502  501  0.00000000000E+00  0.00000000000E+00  0.79102659911E+02  0.79102659911E+02  0.00000000000E+00 0. -1.
         21   -1    0    0  501  502 -0.00000000000E+00 -0.00000000000E+00 -0.10124883565E+04  0.10124883565E+04  0.00000000000E+00 0. -1.
         25    1    1    2    0    0 -0.40558373083E+02 -0.50422590763E+02 -0.12394776817E+03  0.18755124239E+03  0.12500000000E+03 0.  0.
         25    1    1    2    0    0  0.87205378907E+02  0.15517729168E+03 -0.57423513595E+03  0.61404866364E+03  0.12500000000E+03 0.  0.
         25    1    1    2    0    0 -0.46647005824E+02 -0.10475470092E+03 -0.23520279249E+03  0.28999111040E+03  0.12500000000E+03 0.  0.
</event>
<event>
 5    0  0.5612316E-005  0.3517759E+03  0.7546771E-02  0.1061888E+00
         21   -1    0    0  502  501  0.00000000000E+00  0.00000000000E+00  0.54419071507E+03  0.54419071507E+03  0.00000000000E+00 0. -1.
         21   -1    0    0  501  502 -0.00000000000E+00 -0.00000000000E+00 -0.22739505708E+03  0.22739505708E+03  0.00000000000E+00 0. -1.
         25    1    1    2    0    0 -0.27776710272E+03 -0.43620034546E+01  0.15464441705E+03  0.34163355537E+03  0.12500000000E+03 0.  0.
         25    1    1    2    0    0  0.13248562517E+03  0.24577033860E+02  0.93974643179E+01  0.18403745218E+03  0.12500000000E+03 0.  0.
         25    1    1    2    0    0  0.14528147756E+03 -0.20215030405E+02  0.15275377663E+03  0.24591476460E+03  0.12500000000E+03 0.  0.
</event>
<event>
 5    0  0.5612316E-005  0.3318611E+03  0.7546771E-02  0.1070316E+00
         21   -1    0    0  502  501  0.00000000000E+00  0.00000000000E+00  0.95399015803E+02  0.95399015803E+02  0.00000000000E+00 0. -1.
         21   -1    0    0  501  502 -0.00000000000E+00 -0.00000000000E+00 -0.11544329193E+04  0.11544329193E+04  0.00000000000E+00 0. -1.
         25    1    1    2    0    0 -0.18658880699E+03 -0.14994511089E+03 -0.65456483699E+03  0.70808124180E+03  0.12500000000E+03 0.  0.
         25    1    1    2    0    0  0.10183070670E+03  0.40935829836E+02 -0.24731205777E+03  0.29804947393E+03  0.12500000000E+03 0.  0.
         25    1    1    2    0    0  0.84758100297E+02  0.10900928105E+03 -0.15715700871E+03  0.24370121934E+03  0.12500000000E+03 0.  0.
</event>
<event>
 5    0  0.5612316E-005  0.3792721E+03  0.7546771E-02  0.1051203E+00
         21   -1    0    0  502  501  0.00000000000E+00  0.00000000000E+00  0.41792064081E+03  0.41792064081E+03  0.00000000000E+00 0. -1.
         21   -1    0    0  501  502 -0.00000000000E+00 -0.00000000000E+00 -0.34419778288E+03  0.34419778288E+03  0.00000000000E+00 0. -1.
         25    1    1    2    0    0 -0.20454865342E+03 -0.18488883147E+03  0.11445874577E+03  0.32365079345E+03  0.12500000000E+03 0.  0.
         25    1    1    2    0    0  0.21693020887E+03  0.60881963019E+02 -0.15892354741E+01  0.25766810942E+03  0.12500000000E+03 0.  0.
         25    1    1    2    0    0 -0.12381555452E+02  0.12400686845E+03 -0.39146652359E+02  0.18079952082E+03  0.12500000000E+03 0.  0.
</event>
<event>
 5    0  0.5612316E-005  0.2617725E+03  0.7546771E-02  0.1106083E+00
         21   -1    0    0  502  501  0.00000000000E+00  0.00000000000E+00  0.16182334994E+03  0.16182334994E+03  0.00000000000E+00 0.  1.
         21   -1    0    0  501  502 -0.00000000000E+00 -0.00000000000E+00 -0.42345474632E+03  0.42345474632E+03  0.00000000000E+00 0.  1.
         25    1    1    2    0    0  0.42654416816E+02 -0.42116411657E+02 -0.46947685885E+02  0.14636350848E+03  0.12500000000E+03 0.  0.
         25    1    1    2    0    0 -0.48182394661E+02 -0.10638388101E+03 -0.35546838562E+02  0.17472163869E+03  0.12500000000E+03 0.  0.
         25    1    1    2    0    0  0.55279778448E+01  0.14850029267E+03 -0.17913687194E+03  0.26419294909E+03  0.12500000000E+03 0.  0.
</event>
<event>
 5    0  0.5612316E-005  0.2150073E+03  0.7546771E-02  0.1137661E+00
         21   -1    0    0  502  501  0.00000000000E+00  0.00000000000E+00  0.83391840276E+02  0.83391840276E+02  0.00000000000E+00 0.  1.
         21   -1    0    0  501  502 -0.00000000000E+00 -0.00000000000E+00 -0.55434864409E+03  0.55434864409E+03  0.00000000000E+00 0.  1.
         25    1    1    2    0    0  0.35808694037E+02 -0.36859076287E+02 -0.13957879730E+03  0.19428868914E+03  0.12500000000E+03 0.  0.
         25    1    1    2    0    0 -0.89899268986E+02  0.24246617517E+01 -0.16497772173E+03  0.22567765998E+03  0.12500000000E+03 0.  0.
         25    1    1    2    0    0  0.54090574949E+02  0.34434414535E+02 -0.16640028479E+03  0.21777413525E+03  0.12500000000E+03 0.  0.
</event>
<event>
 5    0  0.5612316E-005  0.2204854E+03  0.7546771E-02  0.1133522E+00
         21   -1    0    0  502  501  0.00000000000E+00  0.00000000000E+00  0.60992704144E+03  0.60992704144E+03  0.00000000000E+00 0.  1.
         21   -1    0    0  501  502 -0.00000000000E+00 -0.00000000000E+00 -0.79704326302E+02  0.79704326302E+02  0.00000000000E+00 0.  1.
         25    1    1    2    0    0  0.78398090340E+02 -0.35277750472E+02  0.24431413845E+03  0.28758508045E+03  0.12500000000E+03 0.  0.
         25    1    1    2    0    0  0.57191424765E+01  0.29233879744E+00  0.15650244992E+03  0.20037667250E+03  0.12500000000E+03 0.  0.
         25    1    1    2    0    0 -0.84117232816E+02  0.34985411674E+02  0.12940612677E+03  0.20166961480E+03  0.12500000000E+03 0.  0.
</event>
<event>
 5    0  0.5612316E-005  0.2648951E+03  0.7546771E-02  0.1104237E+00
         21   -1    0    0  502  501  0.00000000000E+00  0.00000000000E+00  0.20884334000E+03  0.20884334000E+03  0.00000000000E+00 0. -1.
         21   -1    0    0  501  502 -0.00000000000E+00 -0.00000000000E+00 -0.33599062662E+03  0.33599062662E+03  0.00000000000E+00 0. -1.
         25    1    1    2    0    0  0.12147132465E+03  0.26804536523E+02 -0.50569945207E+02  0.18345594907E+03  0.12500000000E+03 0.  0.
         25    1    1    2    0    0  0.10550881675E+02 -0.49681648892E+02 -0.11126004573E+03  0.17488105991E+03  0.12500000000E+03 0.  0.
         25    1    1    2    0    0 -0.13202220632E+03  0.22877112368E+02  0.34682704310E+02  0.18649695765E+03  0.12500000000E+03 0.  0.
</event>
<event>
 5    0  0.5612316E-005  0.3191266E+03  0.7546771E-02  0.1076052E+00
         21   -1    0    0  502  501  0.00000000000E+00  0.00000000000E+00  0.21262815902E+04  0.21262815902E+04  0.00000000000E+00 0.  1.
         21   -1    0    0  501  502 -0.00000000000E+00 -0.00000000000E+00 -0.47896657278E+02  0.47896657278E+02  0.00000000000E+00 0.  1.
         25    1    1    2    0    0  0.18486176649E+03 -0.11775394971E+03  0.87584579195E+03  0.91146624548E+03  0.12500000000E+03 0.  0.
         25    1    1    2    0    0 -0.94453897143E+01  0.10095758547E+03  0.38925444176E+03  0.42121926580E+03  0.12500000000E+03 0.  0.
         25    1    1    2    0    0 -0.17541637677E+03  0.16796364240E+02  0.81328469920E+03  0.84149273618E+03  0.12500000000E+03 0.  0.
</event>
<event>
 5    0  0.5612316E-005  0.3440967E+03  0.7546771E-02  0.1065064E+00
         21   -1    0    0  502  501  0.00000000000E+00  0.00000000000E+00  0.41516200942E+03  0.41516200942E+03  0.00000000000E+00 0. -1.
         21   -1    0    0  501  502 -0.00000000000E+00 -0.00000000000E+00 -0.28519605216E+03  0.28519605216E+03  0.00000000000E+00 0. -1.
         25    1    1    2    0    0 -0.11285698090E+03 -0.87220008893E+02  0.43537841262E+02  0.19458821061E+03  0.12500000000E+03 0.  0.
         25    1    1    2    0    0  0.13347134242E+03 -0.11891961198E+03  0.13834670051E+03  0.25830463198E+03  0.12500000000E+03 0.  0.
         25    1    1    2    0    0 -0.20614361520E+02  0.20613962087E+03 -0.51918584510E+02  0.24746521899E+03  0.12500000000E+03 0.  0.
</event>
<event>
 5    0  0.5612316E-005  0.2574967E+03  0.7546771E-02  0.1108657E+00
         21   -1    0    0  502  501  0.00000000000E+00  0.00000000000E+00  0.19868266023E+03  0.19868266023E+03  0.00000000000E+00 0.  1.
         21   -1    0    0  501  502 -0.00000000000E+00 -0.00000000000E+00 -0.33372097097E+03  0.33372097097E+03  0.00000000000E+00 0.  1.
         25    1    1    2    0    0  0.15940257785E+01 -0.88483580418E+01  0.46279422093E+02  0.13359498219E+03  0.12500000000E+03 0.  0.
         25    1    1    2    0    0  0.70417085740E+02 -0.99380425666E+02 -0.97832141517E+02  0.20007789204E+03  0.12500000000E+03 0.  0.
         25    1    1    2    0    0 -0.72011111519E+02  0.10822878371E+03 -0.83485591319E+02  0.19873075696E+03  0.12500000000E+03 0.  0.
</event>
<event>
 5    0  0.5612316E-005  0.2644124E+03  0.7546771E-02  0.1104521E+00
         21   -1    0    0  502  501  0.00000000000E+00  0.00000000000E+00  0.44469588873E+02  0.44469588873E+02  0.00000000000E+00 0. -1.
         21   -1    0    0  501  502 -0.00000000000E+00 -0.00000000000E+00 -0.15721741837E+04  0.15721741837E+04  0.00000000000E+00 0. -1.
         25    1    1    2    0    0  0.10535492433E+03  0.11780407616E+03 -0.64257576825E+03  0.67342859932E+03  0.12500000000E+03 0.  0.
         25    1    1    2    0    0  0.32584387272E+01 -0.88045379262E+02 -0.34227663019E+03  0.37488784697E+03  0.12500000000E+03 0.  0.
         25    1    1    2    0    0 -0.10861336306E+03 -0.29758696896E+02 -0.54285219638E+03  0.56832732627E+03  0.12500000000E+03 0.  0.
</event>
<event>
 5    0  0.5612316E-005  0.3109696E+03  0.7546771E-02  0.1079882E+00
         21   -1    0    0  502  501  0.00000000000E+00  0.00000000000E+00  0.37661308823E+03  0.37661308823E+03  0.00000000000E+00 0.  1.
         21   -1    0    0  501  502 -0.00000000000E+00 -0.00000000000E+00 -0.25676774095E+03  0.25676774095E+03  0.00000000000E+00 0.  1.
         25    1    1    2    0    0 -0.63228396911E+02 -0.39027143427E+02 -0.59914163361E+02  0.15727572944E+03  0.12500000000E+03 0.  0.
         25    1    1    2    0    0  0.84086672456E+02 -0.60488572139E+02 -0.71683948772E+02  0.17746274075E+03  0.12500000000E+03 0.  0.
         25    1    1    2    0    0 -0.20858275545E+02  0.99515715566E+02  0.25144345941E+03  0.29864235899E+03  0.12500000000E+03 0.  0.
</event>
<event>
 5    0  0.5612316E-005  0.4409012E+03  0.7546771E-02  0.1030471E+00
         21   -1    0    0  502  501  0.00000000000E+00  0.00000000000E+00  0.21692802445E+03  0.21692802445E+03  0.00000000000E+00 0. -1.
         21   -1    0    0  501  502 -0.00000000000E+00 -0.00000000000E+00 -0.89612135576E+03  0.89612135576E+03  0.00000000000E+00 0. -1.
         25    1    1    2    0    0 -0.15029108585E+02 -0.12581443266E+03 -0.24572215070E+03  0.30341311922E+03  0.12500000000E+03 0.  0.
         25    1    1    2    0    0  0.19236209197E+03  0.66454465317E+01 -0.50269305584E+03  0.55260532460E+03  0.12500000000E+03 0.  0.
         25    1    1    2    0    0 -0.17733298339E+03  0.11916898613E+03  0.69221875226E+02  0.25703093639E+03  0.12500000000E+03 0.  0.
</event>
<event>
 5    0  0.5612316E-005  0.2807302E+03  0.7546771E-02  0.1095291E+00
         21   -1    0    0  502  501  0.00000000000E+00  0.00000000000E+00  0.15940045349E+03  0.15940045349E+03  0.00000000000E+00 0. -1.
         21   -1    0    0  501  502 -0.00000000000E+00 -0.00000000000E+00 -0.49441172402E+03  0.49441172402E+03  0.00000000000E+00 0. -1.
         25    1    1    2    0    0  0.76497669837E+02 -0.17679444052E+02 -0.82562890905E+02  0.16913334144E+03  0.12500000000E+03 0.  0.
         25    1    1    2    0    0  0.44249036492E+02  0.55165547441E+02  0.33955483872E+02  0.14757774134E+03  0.12500000000E+03 0.  0.
         25    1    1    2    0    0 -0.12074670633E+03 -0.37486103388E+02 -0.28640386350E+03  0.33710109473E+03  0.12500000000E+03 0.  0.
</event>
<event>
 5    0  0.5612316E-005  0.4258636E+03  0.7546771E-02  0.1035175E+00
         21   -1    0    0  502  501  0.00000000000E+00  0.00000000000E+00  0.18134950479E+03  0.18134950479E+03  0.00000000000E+00 0. -1.
         21   -1    0    0  501  502 -0.00000000000E+00 -0.00000000000E+00 -0.10000565894E+04  0.10000565894E+04  0.00000000000E+00 0. -1.
         25    1    1    2    0    0 -0.15382431646E+03 -0.30180600314E+03 -0.32492605655E+03  0.48574759504E+03  0.12500000000E+03 0.  0.
         25    1    1    2    0    0  0.16470457083E+02  0.27417654697E+03 -0.28925891451E+03  0.41801886858E+03  0.12500000000E+03 0.  0.
         25    1    1    2    0    0  0.13735385938E+03  0.27629456167E+02 -0.20452211356E+03  0.27763963058E+03  0.12500000000E+03 0.  0.
</event>
<event>
 5    0  0.5612316E-005  0.2754784E+03  0.7546771E-02  0.1098184E+00
         21   -1    0    0  502  501  0.00000000000E+00  0.00000000000E+00  0.37604682548E+03  0.37604682548E+03  0.00000000000E+00 0.  1.
         21   -1    0    0  501  502 -0.00000000000E+00 -0.00000000000E+00 -0.20180559183E+03  0.20180559183E+03  0.00000000000E+00 0.  1.
         25    1    1    2    0    0 -0.35033471371E+02 -0.50481260564E+02 -0.43548985907E+02  0.14593565691E+03  0.12500000000E+03 0.  0.
         25    1    1    2    0    0 -0.63860565800E+01  0.15750722237E+03  0.14091352926E+03  0.24562355251E+03  0.12500000000E+03 0.  0.
         25    1    1    2    0    0  0.41419527951E+02 -0.10702596181E+03  0.76876690292E+02  0.18629320789E+03  0.12500000000E+03 0.  0.
</event>
<event>
 5    0  0.5612316E-005  0.2498470E+03  0.7546771E-02  0.1113402E+00
         21   -1    0    0  502  501  0.00000000000E+00  0.00000000000E+00  0.58774296011E+02  0.58774296011E+02  0.00000000000E+00 0. -1.
         21   -1    0    0  501  502 -0.00000000000E+00 -0.00000000000E+00 -0.10620885268E+04  0.10620885268E+04  0.00000000000E+00 0. -1.
         25    1    1    2    0    0 -0.75198878155E+02  0.68553650514E+02 -0.14239187655E+03  0.21506957196E+03  0.12500000000E+03 0.  0.
         25    1    1    2    0    0  0.35695708129E+02  0.61339944208E+01 -0.37089932318E+03  0.39306884563E+03  0.12500000000E+03 0.  0.
         25    1    1    2    0    0  0.39503170026E+02 -0.74687644935E+02 -0.49002303106E+03  0.51272440523E+03  0.12500000000E+03 0.  0.
</event>
<event>
 5    0  0.5612316E-005  0.2753397E+03  0.7546771E-02  0.1098262E+00
         21   -1    0    0  502  501  0.00000000000E+00  0.00000000000E+00  0.29043489794E+03  0.29043489794E+03  0.00000000000E+00 0. -1.
         21   -1    0    0  501  502 -0.00000000000E+00 -0.00000000000E+00 -0.26102913383E+03  0.26102913383E+03  0.00000000000E+00 0. -1.
         25    1    1    2    0    0 -0.13758428006E+03  0.10046750243E+02 -0.28587913401E+02  0.18834181719E+03  0.12500000000E+03 0.  0.
         25    1    1    2    0    0  0.30161422072E+02 -0.88565078285E+02 -0.32310845524E+02  0.15944426992E+03  0.12500000000E+03 0.  0.
         25    1    1    2    0    0  0.10742285799E+03  0.78518328042E+02  0.90304523034E+02  0.20367794465E+03  0.12500000000E+03 0.  0.
</event>
<event>
 5    0  0.5612316E-005  0.3974855E+03  0.7546771E-02  0.1044654E+00
         21   -1    0    0  502  501  0.00000000000E+00  0.00000000000E+00  0.24380983552E+03  0.24380983552E+03  0.00000000000E+00 0.  1.
         21   -1    0    0  501  502 -0.00000000000E+00 -0.00000000000E+00 -0.64802437156E+03  0.64802437156E+03  0.00000000000E+00 0.  1.
         25    1    1    2    0    0  0.16317718291E+02 -0.12173107374E+03 -0.82308775791E+02  0.19360903082E+03  0.12500000000E+03 0.  0.
         25    1    1    2    0    0  0.19107206791E+03 -0.93160030316E+02 -0.71741967235E+01  0.24670588862E+03  0.12500000000E+03 0.  0.
         25    1    1    2    0    0 -0.20738978620E+03  0.21489110405E+03 -0.31473156353E+03  0.45151928763E+03  0.12500000000E+03 0.  0.
</event>
<event>
 5    0  0.5612316E-005  0.2771998E+03  0.7546771E-02  0.1097228E+00
         21   -1    0    0  502  501  0.00000000000E+00  0.00000000000E+00  0.99010234183E+02  0.99010234183E+02  0.00000000000E+00 0. -1.
         21   -1    0    0  501  502 -0.00000000000E+00 -0.00000000000E+00 -0.77607888683E+03  0.77607888683E+03  0.00000000000E+00 0. -1.
         25    1    1    2    0    0  0.12819652191E+03 -0.29540823333E+02 -0.24164809086E+03  0.30220160207E+03  0.12500000000E+03 0.  0.
         25    1    1    2    0    0 -0.78208783382E+02 -0.10502288393E+03 -0.19206267914E+03  0.26393084827E+03  0.12500000000E+03 0.  0.
         25    1    1    2    0    0 -0.49987738531E+02  0.13456370726E+03 -0.24335788264E+03  0.30895667068E+03  0.12500000000E+03 0.  0.
</event>
<event>
 5    0  0.5612316E-005  0.2829554E+03  0.7546771E-02  0.1094086E+00
         21   -1    0    0  502  501  0.00000000000E+00  0.00000000000E+00  0.97307952669E+02  0.97307952669E+02  0.00000000000E+00 0.  1.
         21   -1    0    0  501  502 -0.00000000000E+00 -0.00000000000E+00 -0.82278762520E+03  0.82278762520E+03  0.00000000000E+00 0.  1.
         25    1    1    2    0    0 -0.11673078739E+03 -0.31799261401E+02 -0.16336036911E+03  0.23863964454E+03  0.12500000000E+03 0.  0.
         25    1    1    2    0    0  0.43909236385E+01 -0.72581688685E+02 -0.40109787513E+03  0.42637059839E+03  0.12500000000E+03 0.  0.
         25    1    1    2    0    0  0.11233986376E+03  0.10438095009E+03 -0.16102142830E+03  0.25508533494E+03  0.12500000000E+03 0.  0.
</event>
<event>
 5    0  0.5612316E-005  0.2430441E+03  0.7546771E-02  0.1117781E+00
         21   -1    0    0  502  501  0.00000000000E+00  0.00000000000E+00  0.26882536772E+03  0.26882536772E+03  0.00000000000E+00 0.  1.
         21   -1    0    0  501  502 -0.00000000000E+00 -0.00000000000E+00 -0.21973537101E+03  0.21973537101E+03  0.00000000000E+00 0.  1.
         25    1    1    2    0    0  0.87087554390E+01  0.13526440856E+03 -0.17609952592E+02  0.18522260412E+03  0.12500000000E+03 0.  0.
         25    1    1    2    0    0 -0.50363892896E+01 -0.11288693985E+03  0.45515498736E+02  0.17454365365E+03  0.12500000000E+03 0.  0.
         25    1    1    2    0    0 -0.36723661493E+01 -0.22377468715E+02  0.21184450562E+02  0.12879448096E+03  0.12500000000E+03 0.  0.
</event>
<event>
 5    0  0.7908640E-005  0.5482853E+03  0.7546771E-02  0.1001892E+00
         21   -1    0    0  502  501  0.00000000000E+00  0.00000000000E+00  0.68607224959E+03  0.68607224959E+03  0.00000000000E+00 0. -1.
         21   -1    0    0  501  502 -0.00000000000E+00 -0.00000000000E+00 -0.43817075575E+03  0.43817075575E+03  0.00000000000E+00 0. -1.
         25    1    1    2    0    0 -0.18231908585E+03 -0.97480687971E+02  0.26699619270E+03  0.36007596491E+03  0.12500000000E+03 0.  0.
         25    1    1    2    0    0 -0.46837916485E+02  0.35621677725E+03  0.68040901291E+02  0.38644371785E+03  0.12500000000E+03 0.  0.
         25    1    1    2    0    0  0.22915700234E+03 -0.25873608928E+03 -0.87135600143E+02  0.37772332259E+03  0.12500000000E+03 0.  0.
</event>
<event>
 5    0  0.5612316E-005  0.2733945E+03  0.7546771E-02  0.1099352E+00
         21   -1    0    0  502  501  0.00000000000E+00  0.00000000000E+00  0.65067039350E+02  0.65067039350E+02  0.00000000000E+00 0.  1.
         21   -1    0    0  501  502 -0.00000000000E+00 -0.00000000000E+00 -0.11487315964E+04  0.11487315964E+04  0.00000000000E+00 0.  1.
         25    1    1    2    0    0  0.13445462135E+03 -0.18969136808E+02 -0.18633157664E+03  0.26226385532E+03  0.12500000000E+03 0.  0.
         25    1    1    2    0    0 -0.74280189781E+00 -0.47111259358E+01 -0.46328462383E+03  0.47987538918E+03  0.12500000000E+03 0.  0.
         25    1    1    2    0    0 -0.13371181945E+03  0.23680262743E+02 -0.43404835658E+03  0.47165939126E+03  0.12500000000E+03 0.  0.
</event>
<event>
 5    0  0.5612316E-005  0.3932143E+03  0.7546771E-02  0.1046155E+00
         21   -1    0    0  502  501  0.00000000000E+00  0.00000000000E+00  0.71707457596E+03  0.71707457596E+03  0.00000000000E+00 0. -1.
         21   -1    0    0  501  502 -0.00000000000E+00 -0.00000000000E+00 -0.21562258973E+03  0.21562258973E+03  0.00000000000E+00 0. -1.
         25    1    1    2    0    0 -0.41377600263E+02  0.17445847942E+03  0.50333765183E+03  0.54874553174E+03  0.12500000000E+03 0.  0.
         25    1    1    2    0    0 -0.22768651676E+02  0.34625212543E+02 -0.84594838700E+01  0.13196166000E+03  0.12500000000E+03 0.  0.
         25    1    1    2    0    0  0.64146251940E+02 -0.20908369197E+03  0.65738182582E+01  0.25198997395E+03  0.12500000000E+03 0.  0.
</event>
<event>
 5    0  0.5612316E-005  0.2094953E+03  0.7546771E-02  0.1141966E+00
         21   -1    0    0  502  501  0.00000000000E+00  0.00000000000E+00  0.90027926882E+02  0.90027926882E+02  0.00000000000E+00 0.  1.
         21   -1    0    0  501  502 -0.00000000000E+00 -0.00000000000E+00 -0.48749617272E+03  0.48749617272E+03  0.00000000000E+00 0.  1.
         25    1    1    2    0    0 -0.57058291549E+02 -0.11210058956E+02 -0.93618931421E+02  0.16664578716E+03  0.12500000000E+03 0.  0.
         25    1    1    2    0    0  0.57442081332E+02  0.46817426648E+02 -0.18011531324E+03  0.23142599294E+03  0.12500000000E+03 0.  0.
         25    1    1    2    0    0 -0.38378978295E+00 -0.35607367693E+02 -0.12373400118E+03  0.17945231951E+03  0.12500000000E+03 0.  0.
</event>
<event>
 5    0  0.5612316E-005  0.4950996E+03  0.7546771E-02  0.1015066E+00
         21   -1    0    0  502  501  0.00000000000E+00  0.00000000000E+00  0.92839731430E+02  0.92839731430E+02  0.00000000000E+00 0.  1.
         21   -1    0    0  501  502 -0.00000000000E+00 -0.00000000000E+00 -0.26402883154E+04  0.26402883154E+04  0.00000000000E+00 0.  1.
         25    1    1    2    0    0 -0.64916762573E+02  0.18102636705E+03 -0.22534052584E+04  0.22650485624E+04  0.12500000000E+03 0.  0.
         25    1    1    2    0    0 -0.45355599350E+02 -0.82956523161E+02 -0.68700273966E+02  0.17112464104E+03  0.12500000000E+03 0.  0.
         25    1    1    2    0    0  0.11027236192E+03 -0.98069843891E+02 -0.22534305162E+03  0.29695484336E+03  0.12500000000E+03 0.  0.
</event>
<event>
 5    0  0.5612316E-005  0.3741114E+03  0.7546771E-02  0.1053132E+00
         21   -1    0    0  502  501  0.00000000000E+00  0.00000000000E+00  0.16083927458E+03  0.16083927458E+03  0.00000000000E+00 0. -1.
         21   -1    0    0  501  502 -0.00000000000E+00 -0.00000000000E+00 -0.87018141023E+03  0.87018141023E+03  0.00000000000E+00 0. -1.
         25    1    1    2    0    0  0.14100898749E+03 -0.49441314294E+02  0.15117738914E+02  0.19540093178E+03  0.12500000000E+03 0.  0.
         25    1    1    2    0    0 -0.22322334018E+03  0.64904919094E+02 -0.50062746627E+03  0.56594537556E+03  0.12500000000E+03 0.  0.
         25    1    1    2    0    0  0.82214352692E+02 -0.15463604800E+02 -0.22383240829E+03  0.26967437747E+03  0.12500000000E+03 0.  0.
</event>
<event>
 5    0  0.5612316E-005  0.2980999E+03  0.7546771E-02  0.1086194E+00
         21   -1    0    0  502  501  0.00000000000E+00  0.00000000000E+00  0.18348390453E+03  0.18348390453E+03  0.00000000000E+00 0.  1.
         21   -1    0    0  501  502 -0.00000000000E+00 -0.00000000000E+00 -0.48431234837E+03  0.48431234837E+03  0.00000000000E+00 0.  1.
         25    1    1    2    0    0 -0.95658396864E+02  0.32489570313E+02 -0.29203115936E+03  0.33333661531E+03  0.12500000000E+03 0.  0.
         25    1    1    2    0    0 -0.96257767943E+01  0.65632127973E+02  0.15226993843E+02  0.14232741529E+03  0.12500000000E+03 0.  0.
         25    1    1    2    0    0  0.10528417366E+03 -0.98121698286E+02 -0.24024278318E+02  0.19213222230E+03  0.12500000000E+03 0.  0.
</event>
<event>
 5    0  0.5612316E-005  0.3211150E+03  0.7546771E-02  0.1075137E+00
         21   -1    0    0  502  501  0.00000000000E+00  0.00000000000E+00  0.17687647587E+03  0.17687647587E+03  0.00000000000E+00 0.  1.
         21   -1    0    0  501  502 -0.00000000000E+00 -0.00000000000E+00 -0.58297659656E+03  0.58297659656E+03  0.00000000000E+00 0.  1.
         25    1    1    2    0    0  0.62909642207E+02 -0.11152367404E+03  0.54930439581E+01  0.17902604974E+03  0.12500000000E+03 0.  0.
         25    1    1    2    0    0  0.97056079957E+02  0.13091376058E+03 -0.19223455423E+03  0.28131373804E+03  0.12500000000E+03 0.  0.
         25    1    1    2    0    0 -0.15996572216E+03 -0.19390086544E+02 -0.21935861041E+03  0.29951328466E+03  0.12500000000E+03 0.  0.
</event>
<event>
 5    0  0.5612316E-005  0.3922210E+03  0.7546771E-02  0.1046507E+00
         21   -1    0    0  502  501  0.00000000000E+00  0.00000000000E+00  0.52494252845E+03  0.52494252845E+03  0.00000000000E+00 0. -1.
         21   -1    0    0  501  502 -0.00000000000E+00 -0.00000000000E+00 -0.29305551841E+03  0.29305551841E+03  0.00000000000E+00 0. -1.
         25    1    1    2    0    0  0.97745888177E+01 -0.33052878582E+03  0.70631382852E+02  0.36049772966E+03  0.12500000000E+03 0.  0.
         25    1    1    2    0    0 -0.10158490966E+02  0.19298594348E+03  0.34969345354E+02  0.23279738923E+03  0.12500000000E+03 0.  0.
         25    1    1    2    0    0  0.38390214861E+00  0.13754284235E+03  0.12628628183E+03  0.22470292798E+03  0.12500000000E+03 0.  0.
</event>
<event>
 5    0  0.5612316E-005  0.3208999E+03  0.7546771E-02  0.1075236E+00
         21   -1    0    0  502  501  0.00000000000E+00  0.00000000000E+00  0.19843605926E+03  0.19843605926E+03  0.00000000000E+00 0.  1.
         21   -1    0    0  501  502 -0.00000000000E+00 -0.00000000000E+00 -0.51894164059E+03  0.51894164059E+03  0.00000000000E+00 0.  1.
         25    1    1    2    0    0  0.10212474503E+03 -0.93694424977E+02 -0.22934341854E+03  0.29568820140E+03  0.12500000000E+03 0.  0.
         25    1    1    2    0    0 -0.51807256624E+01  0.81197007434E+02 -0.18477146837E+03  0.23745586844E+03  0.12500000000E+03 0.  0.
         25    1    1    2    0    0 -0.96944019366E+02  0.12497417544E+02  0.93609305578E+02  0.18423363001E+03  0.12500000000E+03 0.  0.
</event>
<event>
 5    0  0.5612316E-005  0.3361023E+03  0.7546771E-02  0.1068468E+00
         21   -1    0    0  502  501  0.00000000000E+00  0.00000000000E+00  0.12381135512E+04  0.12381135512E+04  0.00000000000E+00 0. -1.
         21   -1    0    0  501  502 -0.00000000000E+00 -0.00000000000E+00 -0.91239408876E+02  0.91239408876E+02  0.00000000000E+00 0. -1.
         25    1    1    2    0    0 -0.47839823521E+02  0.11809786330E+03  0.80286413677E+03  0.82246676294E+03  0.12500000000E+03 0.  0.
         25    1    1    2    0    0  0.50161870012E+02  0.26403876612E+02  0.26827283436E+03  0.30134480510E+03  0.12500000000E+03 0.  0.
         25    1    1    2    0    0 -0.23220464913E+01 -0.14450173991E+03  0.75737171185E+02  0.20554139203E+03  0.12500000000E+03 0.  0.
</event>
<event>
 5    0  0.5612316E-005  0.3320382E+03  0.7546771E-02  0.1070239E+00
         21   -1    0    0  502  501  0.00000000000E+00  0.00000000000E+00  0.14394989593E+03  0.14394989593E+03  0.00000000000E+00 0.  1.
         21   -1    0    0  501  502 -0.00000000000E+00 -0.00000000000E+00 -0.76588704737E+03  0.76588704737E+03  0.00000000000E+00 0.  1.
         25    1    1    2    0    0  0.18474368990E+03 -0.11859526254E+03 -0.27976939118E+03  0.37694957156E+03  0.12500000000E+03 0.  0.
         25    1    1    2    0    0 -0.13550269101E+03 -0.42837951310E+02 -0.21883966006E+03  0.28933002982E+03  0.12500000000E+03 0.  0.
         25    1    1    2    0    0 -0.49240998896E+02  0.16143321385E+03 -0.12332810020E+03  0.24355734193E+03  0.12500000000E+03 0.  0.
</event>
<event>
 5    0  0.5612316E-005  0.3770379E+03  0.7546771E-02  0.1052034E+00
         21   -1    0    0  502  501  0.00000000000E+00  0.00000000000E+00  0.15820233846E+03  0.15820233846E+03  0.00000000000E+00 0. -1.
         21   -1    0    0  501  502 -0.00000000000E+00 -0.00000000000E+00 -0.89858073960E+03  0.89858073960E+03  0.00000000000E+00 0. -1.
         25    1    1    2    0    0 -0.33592668318E+02 -0.20561130137E+03 -0.73039522529E+02  0.25370109670E+03  0.12500000000E+03 0.  0.
         25    1    1    2    0    0  0.77411592417E+02 -0.46294149046E+02 -0.31038919188E+03  0.34655757575E+03  0.12500000000E+03 0.  0.
         25    1    1    2    0    0 -0.43818924099E+02  0.25190545042E+03 -0.35694968673E+03  0.45652440560E+03  0.12500000000E+03 0.  0.
</event>
<event>
 5    0  0.5612316E-005  0.2202692E+03  0.7546771E-02  0.1133682E+00
         21   -1    0    0  502  501  0.00000000000E+00  0.00000000000E+00  0.22913767318E+04  0.22913767318E+04  0.00000000000E+00 0. -1.
         21   -1    0    0  501  502 -0.00000000000E+00 -0.00000000000E+00 -0.21174402807E+02  0.21174402807E+02  0.00000000000E+00 0. -1.
         25    1    1    2    0    0  0.69720353532E+02  0.22690444805E+02  0.12518277339E+04  0.12601878667E+04  0.12500000000E+03 0.  0.
         25    1    1    2    0    0 -0.40778920003E+02  0.11403512618E+02  0.47354811739E+03  0.49159513819E+03  0.12500000000E+03 0.  0.
         25    1    1    2    0    0 -0.28941433529E+02 -0.34093957423E+02  0.54482647772E+03  0.56076812974E+03  0.12500000000E+03 0.  0.
</event>
<event>
 5    0  0.5612316E-005  0.2533930E+03  0.7546771E-02  0.1111179E+00
         21   -1    0    0  502  501  0.00000000000E+00  0.00000000000E+00  0.99018746995E+02  0.99018746995E+02  0.00000000000E+00 0. -1.
         21   -1    0    0  501  502 -0.00000000000E+00 -0.00000000000E+00 -0.64844297282E+03  0.64844297282E+03  0.00000000000E+00 0. -1.
         25    1    1    2    0    0  0.22786370097E+02 -0.26634565018E+02 -0.47311374603E+02  0.13817374889E+03  0.12500000000E+03 0.  0.
         25    1    1    2    0    0  0.55386813161E+02  0.37856842865E+02 -0.81873368119E+02  0.16379587306E+03  0.12500000000E+03 0.  0.
         25    1    1    2    0    0 -0.78173183259E+02 -0.11222277847E+02 -0.42023948310E+03  0.44549209786E+03  0.12500000000E+03 0.  0.
</event>
<event>
 5    0  0.5612316E-005  0.2400886E+03  0.7546771E-02  0.1119734E+00
         21   -1    0    0  502  501  0.00000000000E+00  0.00000000000E+00  0.14357885545E+03  0.14357885545E+03  0.00000000000E+00 0.  1.
         21   -1    0    0  501  502 -0.00000000000E+00 -0.00000000000E+00 -0.40146968706E+03  0.40146968706E+03  0.00000000000E+00 0.  1.
         25    1    1    2    0    0 -0.10262472487E+03  0.36512480418E+02 -0.25636650073E+02  0.16777137184E+03  0.12500000000E+03 0.  0.
         25    1    1    2    0    0  0.10185173404E+03 -0.30391232031E+02 -0.17422708358E+03  0.23932713880E+03  0.12500000000E+03 0.  0.
         25    1    1    2    0    0  0.77299082652E+00 -0.61212483874E+01 -0.58027097954E+02  0.13795003187E+03  0.12500000000E+03 0.  0.
</event>
<event>
 5    0  0.5612316E-005  0.2907742E+03  0.7546771E-02  0.1089946E+00
         21   -1    0    0  502  501  0.00000000000E+00  0.00000000000E+00  0.24018750646E+03  0.24018750646E+03  0.00000000000E+00 0.  1.
         21   -1    0    0  501  502 -0.00000000000E+00 -0.00000000000E+00 -0.35201515579E+03  0.35201515579E+03  0.00000000000E+00 0.  1.
         25    1    1    2    0    0  0.11132681467E+03 -0.75428323948E+02  0.48055173919E+02  0.18978248459E+03  0.12500000000E+03 0.  0.
         25    1    1    2    0    0 -0.12787201479E+03 -0.48391758155E+02 -0.12161497800E+03  0.22160373936E+03  0.12500000000E+03 0.  0.
         25    1    1    2    0    0  0.16545200117E+02  0.12382008210E+03 -0.38267845243E+02  0.18081643830E+03  0.12500000000E+03 0.  0.
</event>
<event>
 5    0  0.5612316E-005  0.3579870E+03  0.7546771E-02  0.1059384E+00
         21   -1    0    0  502  501  0.00000000000E+00  0.00000000000E+00  0.44019355924E+03  0.44019355924E+03  0.00000000000E+00 0.  1.
         21   -1    0    0  501  502 -0.00000000000E+00 -0.00000000000E+00 -0.29113262573E+03  0.29113262573E+03  0.00000000000E+00 0.  1.
         25    1    1    2    0    0  0.43543764402E+02  0.13970287691E+02  0.14934753536E+03  0.20005227985E+03  0.12500000000E+03 0.  0.
         25    1    1    2    0    0  0.23240001359E+02 -0.99450459629E+02 -0.20952469756E+03  0.26449213688E+03  0.12500000000E+03 0.  0.
         25    1    1    2    0    0 -0.66783765761E+02  0.85480171938E+02  0.20923809572E+03  0.26678176824E+03  0.12500000000E+03 0.  0.
</event>
<event>
 5    0  0.5612316E-005  0.2836528E+03  0.7546771E-02  0.1093710E+00
         21   -1    0    0  502  501  0.00000000000E+00  0.00000000000E+00  0.25564935099E+03  0.25564935099E+03  0.00000000000E+00 0.  1.
         21   -1    0    0  501  502 -0.00000000000E+00 -0.00000000000E+00 -0.31472379083E+03  0.31472379083E+03  0.00000000000E+00 0.  1.
         25    1    1    2    0    0 -0.25144219149E+02  0.34363611803E+02 -0.14629889214E+02  0.13286129320E+03  0.12500000000E+03 0.  0.
         25    1    1    2    0    0 -0.83196768628E+02  0.11945187902E+03 -0.81765400208E+02  0.20856901587E+03  0.12500000000E+03 0.  0.
         25    1    1    2    0    0  0.10834098778E+03 -0.15381549082E+03  0.37320849588E+02  0.22894283274E+03  0.12500000000E+03 0.  0.
</event>
<event>
 5    0  0.5612316E-005  0.2329322E+03  0.7546771E-02  0.1124593E+00
         21   -1    0    0  502  501  0.00000000000E+00  0.00000000000E+00  0.10943386670E+04  0.10943386670E+04  0.00000000000E+00 0.  1.
         21   -1    0    0  501  502 -0.00000000000E+00 -0.00000000000E+00 -0.49580095192E+02  0.49580095192E+02  0.00000000000E+00 0.  1.
         25    1    1    2    0    0  0.33071549564E+02  0.45697423194E+02  0.39005904213E+03  0.41346467591E+03  0.12500000000E+03 0.  0.
         25    1    1    2    0    0  0.33988423763E+02  0.59990298444E+02  0.35215814464E+03  0.37999264163E+03  0.12500000000E+03 0.  0.
         25    1    1    2    0    0 -0.67059973327E+02 -0.10568772164E+03  0.30254138504E+03  0.35046144466E+03  0.12500000000E+03 0.  0.
</event>
<event>
 5    0  0.6241227E-005  0.3069821E+03  0.7546771E-02  0.1081801E+00
         21   -1    0    0  502  501  0.00000000000E+00  0.00000000000E+00  0.39994849948E+03  0.39994849948E+03  0.00000000000E+00 0. -1.
         21   -1    0    0  501  502 -0.00000000000E+00 -0.00000000000E+00 -0.23562535935E+03  0.23562535935E+03  0.00000000000E+00 0. -1.
         25    1    1    2    0    0  0.36217550981E+02 -0.37633242697E+02  0.17014514055E+03  0.21749101317E+03  0.12500000000E+03 0.  0.
         25    1    1    2    0    0 -0.56266323229E+02  0.15726080179E+03 -0.86856821371E+02  0.22597780052E+03  0.12500000000E+03 0.  0.
         25    1    1    2    0    0  0.20048772248E+02 -0.11962755909E+03  0.81034820946E+02  0.19210504514E+03  0.12500000000E+03 0.  0.
</event>
<event>
 5    0  0.5612316E-005  0.3645471E+03  0.7546771E-02  0.1056798E+00
         21   -1    0    0  502  501  0.00000000000E+00  0.00000000000E+00  0.99370572677E+03  0.99370572677E+03  0.00000000000E+00 0. -1.
         21   -1    0    0  501  502 -0.00000000000E+00 -0.00000000000E+00 -0.13373634096E+03  0.13373634096E+03  0.00000000000E+00 0. -1.
         25    1    1    2    0    0  0.49029963121E+02 -0.32179325290E+02  0.29756703779E+03  0.32804052835E+03  0.12500000000E+03 0.  0.
         25    1    1    2    0    0 -0.54496231216E+02  0.19826871233E+03  0.49120419749E+02  0.24559751045E+03  0.12500000000E+03 0.  0.
         25    1    1    2    0    0  0.54662680950E+01 -0.16608938704E+03  0.51328192826E+03  0.55380402893E+03  0.12500000000E+03 0.  0.
</event>
<event>
 5    0  0.5612316E-005  0.3252621E+03  0.7546771E-02  0.1073253E+00
         21   -1    0    0  502  501  0.00000000000E+00  0.00000000000E+00  0.28540504530E+03  0.28540504530E+03  0.00000000000E+00 0.  1.
         21   -1    0    0  501  502 -0.00000000000E+00 -0.00000000000E+00 -0.37068523941E+03  0.37068523941E+03  0.00000000000E+00 0.  1.
         25    1    1    2    0    0 -0.15383080236E+03 -0.20482666458E+02  0.11394933754E+03  0.22954935614E+03  0.12500000000E+03 0.  0.
         25    1    1    2    0    0  0.33543174660E+02 -0.98975720440E+02 -0.11627475850E+03  0.20016532484E+03  0.12500000000E+03 0.  0.
         25    1    1    2    0    0  0.12028762770E+03  0.11945838690E+03 -0.82954773154E+02  0.22637560373E+03  0.12500000000E+03 0.  0.
</event>
<event>
 5    0  0.5612316E-005  0.2252312E+03  0.7546771E-02  0.1130042E+00
         21   -1    0    0  502  501  0.00000000000E+00  0.00000000000E+00  0.18195849299E+03  0.18195849299E+03  0.00000000000E+00 0.  1.
         21   -1    0    0  501  502 -0.00000000000E+00 -0.00000000000E+00 -0.27879482843E+03  0.27879482843E+03  0.00000000000E+00 0.  1.
         25    1    1    2    0    0 -0.74838470339E+02 -0.16688351027E+02 -0.11862901182E+03  0.18861903443E+03  0.12500000000E+03 0.  0.
         25    1    1    2    0    0  0.64302631697E+02  0.46295762987E+01  0.36370538490E+02  0.14527242508E+03  0.12500000000E+03 0.  0.
         25    1    1    2    0    0  0.10535838642E+02  0.12058774729E+02 -0.14577862107E+02  0.12686186191E+03  0.12500000000E+03 0.  0.
</event>
<event>
 5    0  0.5612316E-005  0.3395323E+03  0.7546771E-02  0.1066995E+00
         21   -1    0    0  502  501  0.00000000000E+00  0.00000000000E+00  0.21271576041E+03  0.21271576041E+03  0.00000000000E+00 0.  1.
         21   -1    0    0  501  502 -0.00000000000E+00 -0.00000000000E+00 -0.54195424173E+03  0.54195424173E+03  0.00000000000E+00 0.  1.
         25    1    1    2    0    0  0.75403301043E+02  0.12230588996E+02 -0.17624061989E+03  0.22917460857E+03  0.12500000000E+03 0.  0.
         25    1    1    2    0    0  0.42294599887E+01  0.17598375736E+03 -0.18433754372E+03  0.28388994560E+03  0.12500000000E+03 0.  0.
         25    1    1    2    0    0 -0.79632761032E+02 -0.18821434636E+03  0.31339682286E+02  0.24160544797E+03  0.12500000000E+03 0.  0.
</event>
<event>
 5    0  0.5612316E-005  0.3274810E+03  0.7546771E-02  0.1072257E+00
         21   -1    0    0  502  501  0.00000000000E+00  0.00000000000E+00  0.21876764044E+04  0.21876764044E+04  0.00000000000E+00 0.  1.
         21   -1    0    0  501  502 -0.00000000000E+00 -0.00000000000E+00 -0.49021791078E+02  0.49021791078E+02  0.00000000000E+00 0.  1.
         25    1    1    2    0    0  0.18539974897E+03 -0.15782208610E+03  0.83347394126E+03  0.87725976115E+03  0.12500000000E+03 0.  0.
         25    1    1    2    0    0 -0.30005400879E+02  0.12215752985E+03  0.58222332007E+03  0.60863107102E+03  0.12500000000E+03 0.  0.
         25    1    1    2    0    0 -0.15539434809E+03  0.35664556248E+02  0.72295735197E+03  0.75080736328E+03  0.12500000000E+03 0.  0.
</event>
<event>
 5    0  0.6067486E-005  0.3155752E+03  0.7546771E-02  0.1077704E+00
         21   -1    0    0  502  501  0.00000000000E+00  0.00000000000E+00  0.18102568233E+03  0.18102568233E+03  0.00000000000E+00 0.  1.
         21   -1    0    0  501  502 -0.00000000000E+00 -0.00000000000E+00 -0.55013042530E+03  0.55013042530E+03  0.00000000000E+00 0.  1.
         25    1    1    2    0    0 -0.14605337443E+02  0.37676240219E+02  0.30436034569E+02  0.13484868245E+03  0.12500000000E+03 0.  0.
         25    1    1    2    0    0  0.48331756889E+02  0.14889998504E+03 -0.11070091866E+03  0.22888175476E+03  0.12500000000E+03 0.  0.
         25    1    1    2    0    0 -0.33726419445E+02 -0.18657622526E+03 -0.28883985888E+03  0.36742567041E+03  0.12500000000E+03 0.  0.
</event>
<event>
 5    0  0.5612316E-005  0.3714282E+03  0.7546771E-02  0.1054148E+00
         21   -1    0    0  502  501  0.00000000000E+00  0.00000000000E+00  0.17828949512E+03  0.17828949512E+03  0.00000000000E+00 0.  1.
         21   -1    0    0  501  502 -0.00000000000E+00 -0.00000000000E+00 -0.77379175000E+03  0.77379175000E+03  0.00000000000E+00 0.  1.
         25    1    1    2    0    0 -0.54278305235E+02 -0.16028174632E+03 -0.79797362391E+02  0.22500887019E+03  0.12500000000E+03 0.  0.
         25    1    1    2    0    0  0.22569574638E+03  0.48799706087E+02 -0.19673537027E+03  0.32810026999E+03  0.12500000000E+03 0.  0.
         25    1    1    2    0    0 -0.17141744115E+03  0.11148204023E+03 -0.31896952221E+03  0.39897210495E+03  0.12500000000E+03 0.  0.
</event>
<event>
 5    0  0.5796456E-005  0.3434932E+03  0.7546771E-02  0.1065318E+00
         21   -1    0    0  502  501  0.00000000000E+00  0.00000000000E+00  0.54063699196E+03  0.54063699196E+03  0.00000000000E+00 0. -1.
         21   -1    0    0  501  502 -0.00000000000E+00 -0.00000000000E+00 -0.21823805666E+03  0.21823805666E+03  0.00000000000E+00 0.  1.
         25    1    1    2    0    0 -0.15428404158E+03  0.50147946696E+02  0.10558031847E+03  0.23041394422E+03  0.12500000000E+03 0.  0.
         25    1    1    2    0    0 -0.17593124435E+02  0.10309772888E+03 -0.33166063776E+02  0.16632392346E+03  0.12500000000E+03 0.  0.
         25    1    1    2    0    0  0.17187716601E+03 -0.15324567557E+03  0.24998468061E+03  0.36213718094E+03  0.12500000000E+03 0.  0.
</event>
<event>
 5    0  0.5612316E-005  0.3023950E+03  0.7546771E-02  0.1084049E+00
         21   -1    0    0  502  501  0.00000000000E+00  0.00000000000E+00  0.80991695066E+03  0.80991695066E+03  0.00000000000E+00 0.  1.
         21   -1    0    0  501  502 -0.00000000000E+00 -0.00000000000E+00 -0.11290380730E+03  0.11290380730E+03  0.00000000000E+00 0.  1.
         25    1    1    2    0    0  0.26161072716E+02 -0.63451776092E+02  0.51713275225E+03  0.53643435112E+03  0.12500000000E+03 0.  0.
         25    1    1    2    0    0 -0.32605488691E+02  0.11384372325E+03  0.18319858124E+03  0.25141645010E+03  0.12500000000E+03 0.  0.
         25    1    1    2    0    0  0.64444159746E+01 -0.50391947156E+02 -0.33181901202E+01  0.13496995674E+03  0.12500000000E+03 0.  0.
</event>
<event>
 5    0  0.5625904E-005  0.3376271E+03  0.7546771E-02  0.1067811E+00
         21   -1    0    0  502  501  0.00000000000E+00  0.00000000000E+00  0.59555801301E+03  0.59555801301E+03  0.00000000000E+00 0. -1.
         21   -1    0    0  501  502 -0.00000000000E+00 -0.00000000000E+00 -0.19140373235E+03  0.19140373235E+03  0.00000000000E+00 0. -1.
         25    1    1    2    0    0  0.16007905526E+03 -0.93326891464E+02  0.33355552326E+03  0.40152148099E+03  0.12500000000E+03 0.  0.
         25    1    1    2    0    0 -0.11215620331E+03 -0.40775394468E+02  0.90200281812E+02  0.19494290850E+03  0.12500000000E+03 0.  0.
         25    1    1    2    0    0 -0.47922851948E+02  0.13410228593E+03 -0.19601524405E+02  0.19049735586E+03  0.12500000000E+03 0.  0.
</event>
<event>
 5    0  0.5612316E-005  0.2921111E+03  0.7546771E-02  0.1089252E+00
         21   -1    0    0  502  501  0.00000000000E+00  0.00000000000E+00  0.61909986112E+02  0.61909986112E+02  0.00000000000E+00 0. -1.
         21   -1    0    0  501  502 -0.00000000000E+00 -0.00000000000E+00 -0.13782738846E+04  0.13782738846E+04  0.00000000000E+00 0. -1.
         25    1    1    2    0    0 -0.28820749933E+02  0.44058079305E+01 -0.64976605280E+03  0.66232240649E+03  0.12500000000E+03 0.  0.
         25    1    1    2    0    0 -0.12133413261E+03  0.58831592118E+02 -0.40897934806E+03  0.44841078835E+03  0.12500000000E+03 0.  0.
         25    1    1    2    0    0  0.15015488255E+03 -0.63237400049E+02 -0.25761849766E+03  0.32945067591E+03  0.12500000000E+03 0.  0.
</event>
<event>
 5    0  0.5612316E-005  0.5515005E+03  0.7546771E-02  0.1001147E+00
         21   -1    0    0  502  501  0.00000000000E+00  0.00000000000E+00  0.63294860310E+03  0.63294860310E+03  0.00000000000E+00 0.  1.
         21   -1    0    0  501  502 -0.00000000000E+00 -0.00000000000E+00 -0.48053317667E+03  0.48053317667E+03  0.00000000000E+00 0.  1.
         25    1    1    2    0    0  0.77925969831E+02 -0.12213639267E+03 -0.20859653792E+03  0.28306760821E+03  0.12500000000E+03 0.  0.
         25    1    1    2    0    0 -0.18847411002E+03 -0.12349448979E+03  0.45160778003E+03  0.51994996503E+03  0.12500000000E+03 0.  0.
         25    1    1    2    0    0  0.11054814019E+03  0.24563088246E+03 -0.90595815679E+02  0.31046420653E+03  0.12500000000E+03 0.  0.
</event>
<event>
 5    0  0.5612316E-005  0.3697941E+03  0.7546771E-02  0.1054772E+00
         21   -1    0    0  502  501  0.00000000000E+00  0.00000000000E+00  0.10842855606E+04  0.10842855606E+04  0.00000000000E+00 0. -1.
         21   -1    0    0  501  502 -0.00000000000E+00 -0.00000000000E+00 -0.12611779134E+03  0.12611779134E+03  0.00000000000E+00 0. -1.
         25    1    1    2    0    0 -0.17143320251E+03 -0.24323095935E+03  0.58376974477E+03  0.66705528813E+03  0.12500000000E+03 0.  0.
         25    1    1    2    0    0  0.88003013262E+02  0.15814137091E+03  0.22988865357E+03  0.31816193452E+03  0.12500000000E+03 0.  0.
         25    1    1    2    0    0  0.83430189252E+02  0.85089588432E+02  0.14450937091E+03  0.22518612928E+03  0.12500000000E+03 0.  0.
</event>
<event>
 5    0  0.5612316E-005  0.2961722E+03  0.7546771E-02  0.1087170E+00
         21   -1    0    0  502  501  0.00000000000E+00  0.00000000000E+00  0.21926501260E+03  0.21926501260E+03  0.00000000000E+00 0.  1.
         21   -1    0    0  501  502 -0.00000000000E+00 -0.00000000000E+00 -0.40005447273E+03  0.40005447273E+03  0.00000000000E+00 0.  1.
         25    1    1    2    0    0  0.28778522900E+02 -0.98044603511E+01 -0.78343026567E+02  0.15062191286E+03  0.12500000000E+03 0.  0.
         25    1    1    2    0    0 -0.11871615623E+03  0.14095075009E+03  0.33221448082E+02  0.22514285313E+03  0.12500000000E+03 0.  0.
         25    1    1    2    0    0  0.89937633328E+02 -0.13114628974E+03 -0.13566788165E+03  0.24355471934E+03  0.12500000000E+03 0.  0.
</event>
<event>
 5    0  0.5612316E-005  0.2628131E+03  0.7546771E-02  0.1105465E+00
         21   -1    0    0  502  501  0.00000000000E+00  0.00000000000E+00  0.30969905987E+03  0.30969905987E+03  0.00000000000E+00 0. -1.
         21   -1    0    0  501  502 -0.00000000000E+00 -0.00000000000E+00 -0.22302524682E+03  0.22302524682E+03  0.00000000000E+00 0. -1.
         25    1    1    2    0    0  0.10900179385E+03  0.97073926597E+02  0.60450406998E+02  0.20145468472E+03  0.12500000000E+03 0.  0.
         25    1    1    2    0    0  0.17123132920E+02 -0.28030901900E+02  0.51399460870E+02  0.13908931562E+03  0.12500000000E+03 0.  0.
         25    1    1    2    0    0 -0.12612492677E+03 -0.69043024697E+02 -0.25176054817E+02  0.19218030635E+03  0.12500000000E+03 0.  0.
</event>
<event>
 5    0  0.5612316E-005  0.2150116E+03  0.7546771E-02  0.1137658E+00
         21   -1    0    0  502  501  0.00000000000E+00  0.00000000000E+00  0.72524065531E+02  0.72524065531E+02  0.00000000000E+00 0.  1.
         21   -1    0    0  501  502 -0.00000000000E+00 -0.00000000000E+00 -0.63744359322E+03  0.63744359322E+03  0.00000000000E+00 0.  1.
         25    1    1    2    0    0  0.19542282627E+02  0.67020350249E+02 -0.12271289639E+03  0.18856585879E+03  0.12500000000E+03 0.  0.
         25    1    1    2    0    0 -0.30315866961E+02 -0.15867521526E+02 -0.28990989299E+03  0.31755877579E+03  0.12500000000E+03 0.  0.
         25    1    1    2    0    0  0.10773584334E+02 -0.51152828723E+02 -0.15229673830E+03  0.20384302417E+03  0.12500000000E+03 0.  0.
</event>
<event>
 5    0  0.5612316E-005  0.3395750E+03  0.7546771E-02  0.1066977E+00
         21   -1    0    0  502  501  0.00000000000E+00  0.00000000000E+00  0.17922339000E+03  0.17922339000E+03  0.00000000000E+00 0.  1.
         21   -1    0    0  501  502 -0.00000000000E+00 -0.00000000000E+00 -0.64339365277E+03  0.64339365277E+03  0.00000000000E+00 0.  1.
         25    1    1    2    0    0 -0.14022049629E+03  0.27244875973E+02  0.39740394028E+01  0.18985484939E+03  0.12500000000E+03 0.  0.
         25    1    1    2    0    0 -0.34424272815E+02 -0.93649583154E+01 -0.14839985918E+02  0.13083561512E+03  0.12500000000E+03 0.  0.
         25    1    1    2    0    0  0.17464476911E+03 -0.17879917657E+02 -0.45330431626E+03  0.50192657826E+03  0.12500000000E+03 0.  0.
</event>
<event>
 5    0  0.5612316E-005  0.5012112E+03  0.7546771E-02  0.1013463E+00
         21   -1    0    0  502  501  0.00000000000E+00  0.00000000000E+00  0.54864461216E+03  0.54864461216E+03  0.00000000000E+00 0.  1.
         21   -1    0    0  501  502 -0.00000000000E+00 -0.00000000000E+00 -0.45787874175E+03  0.45787874175E+03  0.00000000000E+00 0.  1.
         25    1    1    2    0    0  0.16745371395E+03 -0.12664372438E+03  0.16137542437E+03  0.29282487400E+03  0.12500000000E+03 0.  0.
         25    1    1    2    0    0 -0.37964540133E+03  0.20300965796E+03 -0.81428189348E+02  0.45563044455E+03  0.12500000000E+03 0.  0.
         25    1    1    2    0    0  0.21219168738E+03 -0.76365933572E+02  0.10818635385E+02  0.25806803536E+03  0.12500000000E+03 0.  0.
</event>
<event>
 5    0  0.5612316E-005  0.3261725E+03  0.7546771E-02  0.1072843E+00
         21   -1    0    0  502  501  0.00000000000E+00  0.00000000000E+00  0.80089804074E+03  0.80089804074E+03  0.00000000000E+00 0. -1.
         21   -1    0    0  501  502 -0.00000000000E+00 -0.00000000000E+00 -0.13283649502E+03  0.13283649502E+03  0.00000000000E+00 0. -1.
         25    1    1    2    0    0 -0.14388605804E+03 -0.11818965341E+03  0.22729661168E+03  0.31931292105E+03  0.12500000000E+03 0.  0.
         25    1    1    2    0    0  0.11371837356E+03 -0.71285301897E+02  0.11588517325E+03  0.21695122984E+03  0.12500000000E+03 0.  0.
         25    1    1    2    0    0  0.30167684484E+02  0.18947495531E+03  0.32487976078E+03  0.39747038486E+03  0.12500000000E+03 0.  0.
</event>
<event>
 5    0  0.5612316E-005  0.7753571E+03  0.7546771E-02  0.9596388E-01
         21   -1    0    0  502  501  0.00000000000E+00  0.00000000000E+00  0.28962648588E+04  0.28962648588E+04  0.00000000000E+00 0. -1.
         21   -1    0    0  501  502 -0.00000000000E+00 -0.00000000000E+00 -0.20757030548E+03  0.20757030548E+03  0.00000000000E+00 0.  1.
         25    1    1    2    0    0  0.70313042436E+01 -0.22922310174E+03  0.26104398681E+04  0.26234736466E+04  0.12500000000E+03 0.  0.
         25    1    1    2    0    0  0.84683352979E+02  0.27285529755E+03  0.36464145562E+02  0.31396802000E+03  0.12500000000E+03 0.  0.
         25    1    1    2    0    0 -0.91714657223E+02 -0.43632195807E+02  0.41790539680E+02  0.16639349767E+03  0.12500000000E+03 0.  0.
</event>
<event>
 5    0  0.5612316E-005  0.2380151E+03  0.7546771E-02  0.1121122E+00
         21   -1    0    0  502  501  0.00000000000E+00  0.00000000000E+00  0.53675544022E+03  0.53675544022E+03  0.00000000000E+00 0.  1.
         21   -1    0    0  501  502 -0.00000000000E+00 -0.00000000000E+00 -0.10554378237E+03  0.10554378237E+03  0.00000000000E+00 0.  1.
         25    1    1    2    0    0  0.58415808120E+02 -0.21547833431E+02  0.14250834074E+03  0.19952529400E+03  0.12500000000E+03 0.  0.
         25    1    1    2    0    0 -0.88286562988E+02  0.77878692329E+02  0.23820157173E+03  0.29364025048E+03  0.12500000000E+03 0.  0.
         25    1    1    2    0    0  0.29870754868E+02 -0.56330858899E+02  0.50501745377E+02  0.14913367811E+03  0.12500000000E+03 0.  0.
</event>
<event>
 5    0  0.5612316E-005  0.2977571E+03  0.7546771E-02  0.1086367E+00
         21   -1    0    0  502  501  0.00000000000E+00  0.00000000000E+00  0.75689329075E+03  0.75689329075E+03  0.00000000000E+00 0.  1.
         21   -1    0    0  501  502 -0.00000000000E+00 -0.00000000000E+00 -0.11713579287E+03  0.11713579287E+03  0.00000000000E+00 0.  1.
         25    1    1    2    0    0  0.16239257610E+03  0.12239965089E+03  0.20642629546E+03  0.31557857780E+03  0.12500000000E+03 0.  0.
         25    1    1    2    0    0 -0.11195941043E+03 -0.25367887245E+02  0.13442755515E+03  0.21650451928E+03  0.12500000000E+03 0.  0.
         25    1    1    2    0    0 -0.50433165670E+02 -0.97031763647E+02  0.29890364727E+03  0.34194598654E+03  0.12500000000E+03 0.  0.
</event>
<event>
 5    0  0.5612316E-005  0.5940508E+03  0.7546771E-02  0.9917826E-01
         21   -1    0    0  502  501  0.00000000000E+00  0.00000000000E+00  0.36761934165E+03  0.36761934165E+03  0.00000000000E+00 0. -1.
         21   -1    0    0  501  502 -0.00000000000E+00 -0.00000000000E+00 -0.95995051302E+03  0.95995051302E+03  0.00000000000E+00 0. -1.
         25    1    1    2    0    0 -0.19252506235E+03 -0.22561143281E+03 -0.18311967388E+03  0.37030289387E+03  0.12500000000E+03 0.  0.
         25    1    1    2    0    0  0.19060951923E+03  0.41196929201E+03 -0.52462933230E+03  0.70491958597E+03  0.12500000000E+03 0.  0.
         25    1    1    2    0    0  0.19155431174E+01 -0.18635785920E+03  0.11541783481E+03  0.25234737483E+03  0.12500000000E+03 0.  0.
</event>
<event>
 5    0  0.5612316E-005  0.2313885E+03  0.7546771E-02  0.1125666E+00
         21   -1    0    0  502  501  0.00000000000E+00  0.00000000000E+00  0.13100080273E+04  0.13100080273E+04  0.00000000000E+00 0.  1.
         21   -1    0    0  501  502 -0.00000000000E+00 -0.00000000000E+00 -0.40870473294E+02  0.40870473294E+02  0.00000000000E+00 0.  1.
         25    1    1    2    0    0  0.90667766630E+02  0.20209321710E+02  0.47437667620E+03  0.49928678283E+03  0.12500000000E+03 0.  0.
         25    1    1    2    0    0 -0.24365816206E+02 -0.80481407973E+02  0.35215589840E+03  0.38302705754E+03  0.12500000000E+03 0.  0.
         25    1    1    2    0    0 -0.66301950424E+02  0.60272086263E+02  0.44260497937E+03  0.46856466019E+03  0.12500000000E+03 0.  0.
</event>
<event>
 5    0  0.5954645E-005  0.2541472E+03  0.7546771E-02  0.1110712E+00
         21   -1    0    0  502  501  0.00000000000E+00  0.00000000000E+00  0.21547619602E+03  0.21547619602E+03  0.00000000000E+00 0.  1.
         21   -1    0    0  501  502 -0.00000000000E+00 -0.00000000000E+00 -0.29975832806E+03  0.29975832806E+03  0.00000000000E+00 0.  1.
         25    1    1    2    0    0 -0.48677733400E+02  0.82337493548E+02  0.14499013789E+02  0.15806393002E+03  0.12500000000E+03 0.  0.
         25    1    1    2    0    0  0.88501012748E+02 -0.11573046637E+03 -0.11014530679E+03  0.22132094052E+03  0.12500000000E+03 0.  0.
         25    1    1    2    0    0 -0.39823279348E+02  0.33392972823E+02  0.11364160958E+02  0.13584965354E+03  0.12500000000E+03 0.  0.
</event>
<event>
 5    0  0.5612316E-005  0.3392499E+03  0.7546771E-02  0.1067116E+00
         21   -1    0    0  502  501  0.00000000000E+00  0.00000000000E+00  0.61796196530E+03  0.61796196530E+03  0.00000000000E+00 0. -1.
         21   -1    0    0  501  502 -0.00000000000E+00 -0.00000000000E+00 -0.18624199600E+03  0.18624199600E+03  0.00000000000E+00 0.  1.
         25    1    1    2    0    0 -0.87478063822E+02 -0.21519150647E+03  0.17248689902E+03  0.31517697638E+03  0.12500000000E+03 0.  0.
         25    1    1    2    0    0 -0.54351910998E+01  0.19485748942E+03  0.67571823409E+02  0.24122589787E+03  0.12500000000E+03 0.  0.
         25    1    1    2    0    0  0.92913254922E+02  0.20334017052E+02  0.19166124687E+03  0.24780108705E+03  0.12500000000E+03 0.  0.
</event>
<event>
 5    0  0.5612316E-005  0.2591724E+03  0.7546771E-02  0.1107642E+00
         21   -1    0    0  502  501  0.00000000000E+00  0.00000000000E+00  0.79624744318E+02  0.79624744318E+02  0.00000000000E+00 0. -1.
         21   -1    0    0  501  502 -0.00000000000E+00 -0.00000000000E+00 -0.84358603459E+03  0.84358603459E+03  0.00000000000E+00 0. -1.
         25    1    1    2    0    0  0.72285473534E+02 -0.76522869781E+02 -0.95348490613E+02  0.18920167532E+03  0.12500000000E+03 0.  0.
         25    1    1    2    0    0 -0.27317537988E+01  0.68364199156E+02 -0.45501018220E+03  0.47680225683E+03  0.12500000000E+03 0.  0.
         25    1    1    2    0    0 -0.69553719735E+02  0.81586706246E+01 -0.21360261745E+03  0.25720684676E+03  0.12500000000E+03 0.  0.
</event>
<event>
 5    0  0.5612316E-005  0.4594849E+03  0.7546771E-02  0.1024931E+00
         21   -1    0    0  502  501  0.00000000000E+00  0.00000000000E+00  0.33568958306E+04  0.33568958306E+04  0.00000000000E+00 0. -1.
         21   -1    0    0  501  502 -0.00000000000E+00 -0.00000000000E+00 -0.62893346625E+02  0.62893346625E+02  0.00000000000E+00 0. -1.
         25    1    1    2    0    0 -0.61371195863E+02 -0.71442145836E+02  0.10700925708E+03  0.18959531899E+03  0.12500000000E+03 0.  0.
         25    1    1    2    0    0  0.19137852793E+03  0.45221302882E+02  0.27029957535E+04  0.27130207796E+04  0.12500000000E+03 0.  0.
         25    1    1    2    0    0 -0.13000733207E+03  0.26220842954E+02  0.48399747348E+03  0.51717307870E+03  0.12500000000E+03 0.  0.
</event>
<event>
 5    0  0.5612316E-005  0.4824379E+03  0.7546771E-02  0.1018467E+00
         21   -1    0    0  502  501  0.00000000000E+00  0.00000000000E+00  0.10539179958E+03  0.10539179958E+03  0.00000000000E+00 0. -1.
         21   -1    0    0  501  502 -0.00000000000E+00 -0.00000000000E+00 -0.22083914606E+04  0.22083914606E+04  0.00000000000E+00 0. -1.
         25    1    1    2    0    0 -0.12953077265E+03  0.20815318235E+03 -0.80102366596E+03  0.84697690749E+03  0.12500000000E+03 0.  0.
         25    1    1    2    0    0 -0.17095574477E+03 -0.83679668813E+01 -0.84548997823E+03  0.87165026979E+03  0.12500000000E+03 0.  0.
         25    1    1    2    0    0  0.30048651742E+03 -0.19978521547E+03 -0.45648601687E+03  0.59515608295E+03  0.12500000000E+03 0.  0.
</event>
<event>
 5    0  0.5612316E-005  0.3782323E+03  0.7546771E-02  0.1051589E+00
         21   -1    0    0  502  501  0.00000000000E+00  0.00000000000E+00  0.10436477056E+03  0.10436477056E+03  0.00000000000E+00 0.  1.
         21   -1    0    0  501  502 -0.00000000000E+00 -0.00000000000E+00 -0.13707662527E+04  0.13707662527E+04  0.00000000000E+00 0.  1.
         25    1    1    2    0    0  0.73650051914E+02  0.40903668824E+01 -0.56558440425E+02  0.15577200786E+03  0.12500000000E+03 0.  0.
         25    1    1    2    0    0 -0.15462296884E+03 -0.15136171819E+03 -0.96653327896E+03  0.99831368395E+03  0.12500000000E+03 0.  0.
         25    1    1    2    0    0  0.80972916925E+02  0.14727135131E+03 -0.24330976275E+03  0.32104533144E+03  0.12500000000E+03 0.  0.
</event>
<event>
 5    0  0.5612316E-005  0.3395030E+03  0.7546771E-02  0.1067008E+00
         21   -1    0    0  502  501  0.00000000000E+00  0.00000000000E+00  0.86170928303E+03  0.86170928303E+03  0.00000000000E+00 0.  1.
         21   -1    0    0  501  502 -0.00000000000E+00 -0.00000000000E+00 -0.13376010017E+03  0.13376010017E+03  0.00000000000E+00 0.  1.
         25    1    1    2    0    0  0.24054353016E+03 -0.40902075328E+02  0.21821752085E+03  0.35039699781E+03  0.12500000000E+03 0.  0.
         25    1    1    2    0    0 -0.41426877887E+02  0.70501077683E+02  0.26645500266E+03  0.30546662111E+03  0.12500000000E+03 0.  0.
         25    1    1    2    0    0 -0.19911665227E+03 -0.29599002355E+02  0.24327665934E+03  0.33960576428E+03  0.12500000000E+03 0.  0.
</event>
<event>
 5    0  0.5612316E-005  0.7055910E+03  0.7546771E-02  0.9707718E-01
         21   -1    0    0  502  501  0.00000000000E+00  0.00000000000E+00  0.47362254522E+03  0.47362254522E+03  0.00000000000E+00 0. -1.
         21   -1    0    0  501  502 -0.00000000000E+00 -0.00000000000E+00 -0.10511718074E+04  0.10511718074E+04  0.00000000000E+00 0. -1.
         25    1    1    2    0    0 -0.47548480240E+02 -0.41344813549E+03 -0.26830150193E+03  0.51069649955E+03  0.12500000000E+03 0.  0.
         25    1    1    2    0    0  0.11835241157E+03  0.65876464589E+03 -0.20144419290E+03  0.71005838835E+03  0.12500000000E+03 0.  0.
         25    1    1    2    0    0 -0.70803931334E+02 -0.24531651040E+03 -0.10780356733E+03  0.30403946470E+03  0.12500000000E+03 0.  0.
</event>
<event>
 5    0  0.5612316E-005  0.3091029E+03  0.7546771E-02  0.1080777E+00
         21   -1    0    0  502  501  0.00000000000E+00  0.00000000000E+00  0.21029523694E+04  0.21029523694E+04  0.00000000000E+00 0. -1.
         21   -1    0    0  501  502 -0.00000000000E+00 -0.00000000000E+00 -0.45433560061E+02  0.45433560061E+02  0.00000000000E+00 0. -1.
         25    1    1    2    0    0  0.43988653180E+02  0.10616823229E+03  0.42575569745E+03  0.45836623902E+03  0.12500000000E+03 0.  0.
         25    1    1    2    0    0  0.47068523161E+00 -0.14872357835E+03  0.14396592926E+04  0.14527087812E+04  0.12500000000E+03 0.  0.
         25    1    1    2    0    0 -0.44459338412E+02  0.42555346054E+02  0.19210381932E+03  0.23731090925E+03  0.12500000000E+03 0.  0.
</event>
<event>
 5    0  0.5612316E-005  0.4530398E+03  0.7546771E-02  0.1026819E+00
         21   -1    0    0  502  501  0.00000000000E+00  0.00000000000E+00  0.47208461220E+03  0.47208461220E+03  0.00000000000E+00 0.  1.
         21   -1    0    0  501  502 -0.00000000000E+00 -0.00000000000E+00 -0.43476326665E+03  0.43476326665E+03  0.00000000000E+00 0.  1.
         25    1    1    2    0    0 -0.83338973407E+01 -0.23464749246E+02 -0.41270792621E+02  0.13397136495E+03  0.12500000000E+03 0.  0.
         25    1    1    2    0    0  0.58596068980E+02  0.34157311514E+03  0.18383999265E+03  0.41173758049E+03  0.12500000000E+03 0.  0.
         25    1    1    2    0    0 -0.50262171639E+02 -0.31810836590E+03 -0.10524785448E+03  0.36113893341E+03  0.12500000000E+03 0.  0.
</event>
<event>
 5    0  0.5612316E-005  0.2570736E+03  0.7546771E-02  0.1108914E+00
         21   -1    0    0  502  501  0.00000000000E+00  0.00000000000E+00  0.32499341971E+02  0.32499341971E+02  0.00000000000E+00 0.  1.
         21   -1    0    0  501  502 -0.00000000000E+00 -0.00000000000E+00 -0.20334816610E+04  0.20334816610E+04  0.00000000000E+00 0.  1.
         25    1    1    2    0    0 -0.66153348690E+02  0.10282158657E+03 -0.41366634458E+03  0.44910287112E+03  0.12500000000E+03 0.  0.
         25    1    1    2    0    0 -0.50319325146E+01 -0.49981123118E+01 -0.85893628836E+03  0.86801316173E+03  0.12500000000E+03 0.  0.
         25    1    1    2    0    0  0.71185281204E+02 -0.97823474256E+02 -0.72837968609E+03  0.74886497013E+03  0.12500000000E+03 0.  0.
</event>
<event>
 5    0  0.5612316E-005  0.2453146E+03  0.7546771E-02  0.1116302E+00
         21   -1    0    0  502  501  0.00000000000E+00  0.00000000000E+00  0.37118426361E+03  0.37118426361E+03  0.00000000000E+00 0. -1.
         21   -1    0    0  501  502 -0.00000000000E+00 -0.00000000000E+00 -0.16212768269E+03  0.16212768269E+03  0.00000000000E+00 0. -1.
         25    1    1    2    0    0 -0.85458277819E+02 -0.70235746799E+00  0.15349310880E+03  0.21561248805E+03  0.12500000000E+03 0.  0.
         25    1    1    2    0    0  0.79136951307E+02  0.76398768442E+02  0.31637113509E+02  0.16948550331E+03  0.12500000000E+03 0.  0.
         25    1    1    2    0    0  0.63213265114E+01 -0.75696410974E+02  0.23926358623E+02  0.14821395494E+03  0.12500000000E+03 0.  0.
</event>
<event>
 5    0  0.5612316E-005  0.3081038E+03  0.7546771E-02  0.1081258E+00
         21   -1    0    0  502  501  0.00000000000E+00  0.00000000000E+00  0.24812051431E+03  0.24812051431E+03  0.00000000000E+00 0. -1.
         21   -1    0    0  501  502 -0.00000000000E+00 -0.00000000000E+00 -0.38258811503E+03  0.38258811503E+03  0.00000000000E+00 0. -1.
         25    1    1    2    0    0 -0.42622061874E+00 -0.17810411140E+03 -0.67875908685E+01  0.21769778949E+03  0.12500000000E+03 0.  0.
         25    1    1    2    0    0 -0.15831675543E+02  0.14994813076E+03  0.41457939299E+02  0.20019701447E+03  0.12500000000E+03 0.  0.
         25    1    1    2    0    0  0.16257896162E+02  0.28155980633E+02 -0.16913794914E+03  0.21281382538E+03  0.12500000000E+03 0.  0.
</event>
<event>
 5    0  0.6070977E-005  0.2872418E+03  0.7546771E-02  0.1091798E+00
         21   -1    0    0  502  501  0.00000000000E+00  0.00000000000E+00  0.12758952181E+03  0.12758952181E+03  0.00000000000E+00 0. -1.
         21   -1    0    0  501  502 -0.00000000000E+00 -0.00000000000E+00 -0.64666613665E+03  0.64666613665E+03  0.00000000000E+00 0. -1.
         25    1    1    2    0    0 -0.19098114862E+02  0.15039708162E+03 -0.41192007978E+03  0.45638489489E+03  0.12500000000E+03 0.  0.
         25    1    1    2    0    0  0.17140354440E+01 -0.87201362259E+02 -0.86416446808E+02  0.17521363468E+03  0.12500000000E+03 0.  0.
         25    1    1    2    0    0  0.17384079418E+02 -0.63195719365E+02 -0.20740088249E+02  0.14265712889E+03  0.12500000000E+03 0.  0.
</event>
<event>
 5    0  0.5612316E-005  0.2723266E+03  0.7546771E-02  0.1099955E+00
         21   -1    0    0  502  501  0.00000000000E+00  0.00000000000E+00  0.11819074291E+04  0.11819074291E+04  0.00000000000E+00 0. -1.
         21   -1    0    0  501  502 -0.00000000000E+00 -0.00000000000E+00 -0.62747526232E+02  0.62747526232E+02  0.00000000000E+00 0. -1.
         25    1    1    2    0    0  0.10485690846E+03 -0.89002923517E+02  0.49741866274E+03  0.53100547802E+03  0.12500000000E+03 0.  0.
         25    1    1    2    0    0 -0.26580669200E+02 -0.49385456226E+02  0.34228983311E+03  0.36869063605E+03  0.12500000000E+03 0.  0.
         25    1    1    2    0    0 -0.78276239255E+02  0.13838837974E+03  0.27945140702E+03  0.34495884126E+03  0.12500000000E+03 0.  0.
</event>
<event>
 5    0  0.5612316E-005  0.3900894E+03  0.7546771E-02  0.1047266E+00
         21   -1    0    0  502  501  0.00000000000E+00  0.00000000000E+00  0.27177656616E+03  0.27177656616E+03  0.00000000000E+00 0. -1.
         21   -1    0    0  501  502 -0.00000000000E+00 -0.00000000000E+00 -0.55990754823E+03  0.55990754823E+03  0.00000000000E+00 0. -1.
         25    1    1    2    0    0 -0.14821164027E+03 -0.51064971010E+02 -0.11868008169E+03  0.23298987825E+03  0.12500000000E+03 0.  0.
         25    1    1    2    0    0  0.27788121333E+03  0.11971594617E+03 -0.22601608371E+03  0.39781672487E+03  0.12500000000E+03 0.  0.
         25    1    1    2    0    0 -0.12966957306E+03 -0.68650975162E+02  0.56565183336E+02  0.20087751127E+03  0.12500000000E+03 0.  0.
</event>
<event>
 5    0  0.6067812E-005  0.2727128E+03  0.7546771E-02  0.1099737E+00
         21   -1    0    0  502  501  0.00000000000E+00  0.00000000000E+00  0.51738946571E+03  0.51738946571E+03  0.00000000000E+00 0. -1.
         21   -1    0    0  501  502 -0.00000000000E+00 -0.00000000000E+00 -0.14374521375E+03  0.14374521375E+03  0.00000000000E+00 0. -1.
         25    1    1    2    0    0 -0.55872450042E+02 -0.48113201524E+01  0.18794223176E+03  0.23257721719E+03  0.12500000000E+03 0.  0.
         25    1    1    2    0    0 -0.73095420655E+02  0.10196991679E+03  0.12046292780E+03  0.21418945218E+03  0.12500000000E+03 0.  0.
         25    1    1    2    0    0  0.12896787070E+03 -0.97158596634E+02  0.65239092402E+02  0.21436801009E+03  0.12500000000E+03 0.  0.
</event>
<event>
 5    0  0.5612316E-005  0.3017799E+03  0.7546771E-02  0.1084354E+00
         21   -1    0    0  502  501  0.00000000000E+00  0.00000000000E+00  0.43091420116E+03  0.43091420116E+03  0.00000000000E+00 0. -1.
         21   -1    0    0  501  502 -0.00000000000E+00 -0.00000000000E+00 -0.21134400917E+03  0.21134400917E+03  0.00000000000E+00 0. -1.
         25    1    1    2    0    0 -0.38924891150E+02  0.98932726488E+02  0.92367436349E+02  0.18830712897E+03  0.12500000000E+03 0.  0.
         25    1    1    2    0    0  0.86487624561E+02 -0.12266496276E+03  0.21635001287E+03  0.29147749546E+03  0.12500000000E+03 0.  0.
         25    1    1    2    0    0 -0.47562733411E+02  0.23732236267E+02 -0.89147257226E+02  0.16247358591E+03  0.12500000000E+03 0.  0.
</event>
<event>
 5    0  0.5612316E-005  0.2648364E+03  0.7546771E-02  0.1104272E+00
         21   -1    0    0  502  501  0.00000000000E+00  0.00000000000E+00  0.21176057167E+03  0.21176057167E+03  0.00000000000E+00 0.  1.
         21   -1    0    0  501  502 -0.00000000000E+00 -0.00000000000E+00 -0.33121526417E+03  0.33121526417E+03  0.00000000000E+00 0.  1.
         25    1    1    2    0    0  0.22537512866E+01  0.12155831858E+02  0.25601598090E+02  0.12819237679E+03  0.12500000000E+03 0.  0.
         25    1    1    2    0    0 -0.90495557314E+02  0.73211168779E+02  0.22583864533E+02  0.17229147415E+03  0.12500000000E+03 0.  0.
         25    1    1    2    0    0  0.88241806027E+02 -0.85367000637E+02 -0.16764015512E+03  0.24249198489E+03  0.12500000000E+03 0.  0.
</event>
<event>
 5    0  0.5612316E-005  0.2736317E+03  0.7546771E-02  0.1099219E+00
         21   -1    0    0  502  501  0.00000000000E+00  0.00000000000E+00  0.25040068434E+03  0.25040068434E+03  0.00000000000E+00 0. -1.
         21   -1    0    0  501  502 -0.00000000000E+00 -0.00000000000E+00 -0.29901791697E+03  0.29901791697E+03  0.00000000000E+00 0. -1.
         25    1    1    2    0    0 -0.78199074836E+02  0.12825937348E+03  0.99076304841E+02  0.21910425913E+03  0.12500000000E+03 0.  0.
         25    1    1    2    0    0  0.52528510490E+02 -0.73783361365E+02 -0.56994659920E+02  0.16454974958E+03  0.12500000000E+03 0.  0.
         25    1    1    2    0    0  0.25670564346E+02 -0.54476012112E+02 -0.90698877553E+02  0.16576459260E+03  0.12500000000E+03 0.  0.
</event>
<event>
 5    0  0.5612316E-005  0.2959028E+03  0.7546771E-02  0.1087307E+00
         21   -1    0    0  502  501  0.00000000000E+00  0.00000000000E+00  0.51518659671E+03  0.51518659671E+03  0.00000000000E+00 0.  1.
         21   -1    0    0  501  502 -0.00000000000E+00 -0.00000000000E+00 -0.16995489601E+03  0.16995489601E+03  0.00000000000E+00 0.  1.
         25    1    1    2    0    0  0.33995103042E+02  0.66363453437E+02  0.86833715708E+02  0.16948412659E+03  0.12500000000E+03 0.  0.
         25    1    1    2    0    0 -0.67538215671E+01  0.12118533155E+03  0.34330367489E+01  0.17426498337E+03  0.12500000000E+03 0.  0.
         25    1    1    2    0    0 -0.27241281475E+02 -0.18754878499E+03  0.25496494825E+03  0.34139238275E+03  0.12500000000E+03 0.  0.
</event>
<event>
 5    0  0.5612316E-005  0.3252780E+03  0.7546771E-02  0.1073246E+00
         21   -1    0    0  502  501  0.00000000000E+00  0.00000000000E+00  0.25004455335E+03  0.25004455335E+03  0.00000000000E+00 0. -1.
         21   -1    0    0  501  502 -0.00000000000E+00 -0.00000000000E+00 -0.42314757191E+03  0.42314757191E+03  0.00000000000E+00 0. -1.
         25    1    1    2    0    0 -0.35629371170E+02  0.19675935721E+03 -0.23855446377E+03  0.33543543182E+03  0.12500000000E+03 0.  0.
         25    1    1    2    0    0  0.42940081673E+02 -0.80281410124E+02 -0.13509660185E-01  0.15464137741E+03  0.12500000000E+03 0.  0.
         25    1    1    2    0    0 -0.73107105034E+01 -0.11647794709E+03  0.65464954866E+02  0.18311531602E+03  0.12500000000E+03 0.  0.
</event>
<event>
 5    0  0.5612316E-005  0.3711614E+03  0.7546771E-02  0.1054250E+00
         21   -1    0    0  502  501  0.00000000000E+00  0.00000000000E+00  0.16243336667E+03  0.16243336667E+03  0.00000000000E+00 0. -1.
         21   -1    0    0  501  502 -0.00000000000E+00 -0.00000000000E+00 -0.84810654757E+03  0.84810654757E+03  0.00000000000E+00 0. -1.
         25    1    1    2    0    0 -0.40127195932E+02 -0.21669691978E+03 -0.15639111587E+03  0.29774305704E+03  0.12500000000E+03 0.  0.
         25    1    1    2    0    0 -0.10600382661E+03  0.22342653839E+03 -0.24718257846E+03  0.37132257729E+03  0.12500000000E+03 0.  0.
         25    1    1    2    0    0  0.14613102254E+03 -0.67296186115E+01 -0.28209948657E+03  0.34147427991E+03  0.12500000000E+03 0.  0.
</event>
<event>
 5    0  0.5612316E-005  0.2646715E+03  0.7546771E-02  0.1104369E+00
         21   -1    0    0  502  501  0.00000000000E+00  0.00000000000E+00  0.54988132721E+03  0.54988132721E+03  0.00000000000E+00 0. -1.
         21   -1    0    0  501  502 -0.00000000000E+00 -0.00000000000E+00 -0.12739290985E+03  0.12739290985E+03  0.00000000000E+00 0. -1.
         25    1    1    2    0    0  0.35930332328E+02 -0.14000139903E+03  0.17703790645E+03  0.26049721847E+03  0.12500000000E+03 0.  0.
         25    1    1    2    0    0  0.41246983193E+02 -0.30537731339E+01  0.90622382307E+02  0.15983759047E+03  0.12500000000E+03 0.  0.
         25    1    1    2    0    0 -0.77177315521E+02  0.14305517216E+03  0.15482812861E+03  0.25693942812E+03  0.12500000000E+03 0.  0.
</event>
<event>
 5    0  0.5612316E-005  0.2256901E+03  0.7546771E-02  0.1129711E+00
         21   -1    0    0  502  501  0.00000000000E+00  0.00000000000E+00  0.50473088374E+03  0.50473088374E+03  0.00000000000E+00 0.  1.
         21   -1    0    0  501  502 -0.00000000000E+00 -0.00000000000E+00 -0.10091718904E+03  0.10091718904E+03  0.00000000000E+00 0.  1.
         25    1    1    2    0    0 -0.71453025539E+02  0.32664221213E+02  0.11571259976E+03  0.18758169407E+03  0.12500000000E+03 0.  0.
         25    1    1    2    0    0  0.18829791796E+02  0.58533710817E+02  0.12487797486E+03  0.18708357749E+03  0.12500000000E+03 0.  0.
         25    1    1    2    0    0  0.52623233743E+02 -0.91197932031E+02  0.16322312007E+03  0.23098280123E+03  0.12500000000E+03 0.  0.
</event>
<event>
 5    0  0.5612316E-005  0.6144706E+03  0.7546771E-02  0.9875831E-01
         21   -1    0    0  502  501  0.00000000000E+00  0.00000000000E+00  0.19150930335E+03  0.19150930335E+03  0.00000000000E+00 0. -1.
         21   -1    0    0  501  502 -0.00000000000E+00 -0.00000000000E+00 -0.19715705572E+04  0.19715705572E+04  0.00000000000E+00 0. -1.
         25    1    1    2    0    0  0.16898502520E+03 -0.44505726581E+03 -0.12297618289E+04  0.13246022287E+04  0.12500000000E+03 0.  0.
         25    1    1    2    0    0 -0.40261631527E+02  0.42229550678E+03 -0.45308833367E+03  0.63314179464E+03  0.12500000000E+03 0.  0.
         25    1    1    2    0    0 -0.12872339367E+03  0.22761759025E+02 -0.97211091278E+02  0.20533583716E+03  0.12500000000E+03 0.  0.
</event>
<event>
 5    0  0.5612316E-005  0.2544141E+03  0.7546771E-02  0.1110547E+00
         21   -1    0    0  502  501  0.00000000000E+00  0.00000000000E+00  0.38369056589E+02  0.38369056589E+02  0.00000000000E+00 0. -1.
         21   -1    0    0  501  502 -0.00000000000E+00 -0.00000000000E+00 -0.16869467478E+04  0.16869467478E+04  0.00000000000E+00 0. -1.
         25    1    1    2    0    0 -0.29494463840E+02 -0.48812571077E+02 -0.57347246568E+03  0.58970183939E+03  0.12500000000E+03 0.  0.
         25    1    1    2    0    0 -0.10898386404E+03 -0.19693390204E+02 -0.49445989519E+03  0.52190123605E+03  0.12500000000E+03 0.  0.
         25    1    1    2    0    0  0.13847832788E+03  0.68505961280E+02 -0.58064533034E+03  0.61371272895E+03  0.12500000000E+03 0.  0.
</event>
<event>
 5    0  0.5612316E-005  0.2832536E+03  0.7546771E-02  0.1093925E+00
         21   -1    0    0  502  501  0.00000000000E+00  0.00000000000E+00  0.38244080080E+03  0.38244080080E+03  0.00000000000E+00 0.  1.
         21   -1    0    0  501  502 -0.00000000000E+00 -0.00000000000E+00 -0.20979084482E+03  0.20979084482E+03  0.00000000000E+00 0.  1.
         25    1    1    2    0    0  0.87680377348E+02 -0.69397786913E+02  0.42245735334E+02  0.17295549588E+03  0.12500000000E+03 0.  0.
         25    1    1    2    0    0  0.68793245073E+02  0.12558441010E+03  0.71656627417E+02  0.20313450441E+03  0.12500000000E+03 0.  0.
         25    1    1    2    0    0 -0.15647362242E+03 -0.56186623186E+02  0.58747593223E+02  0.21614164534E+03  0.12500000000E+03 0.  0.
</event>
<event>
 5    0  0.5612316E-005  0.5849619E+03  0.7546771E-02  0.9937106E-01
         21   -1    0    0  502  501  0.00000000000E+00  0.00000000000E+00  0.14882744631E+04  0.14882744631E+04  0.00000000000E+00 0. -1.
         21   -1    0    0  501  502 -0.00000000000E+00 -0.00000000000E+00 -0.22991755358E+03  0.22991755358E+03  0.00000000000E+00 0. -1.
         25    1    1    2    0    0 -0.33905154477E+03 -0.22350268666E+03  0.90481810436E+03  0.99961502737E+03  0.12500000000E+03 0.  0.
         25    1    1    2    0    0  0.29295453960E+03  0.78039183158E+02  0.16851477520E+02  0.32836176494E+03  0.12500000000E+03 0.  0.
         25    1    1    2    0    0  0.46097005169E+02  0.14546350351E+03  0.33668732764E+03  0.39021522437E+03  0.12500000000E+03 0.  0.
</event>
<event>
 5    0  0.5612316E-005  0.3155915E+03  0.7546771E-02  0.1077696E+00
         21   -1    0    0  502  501  0.00000000000E+00  0.00000000000E+00  0.41814185882E+03  0.41814185882E+03  0.00000000000E+00 0. -1.
         21   -1    0    0  501  502 -0.00000000000E+00 -0.00000000000E+00 -0.23819188303E+03  0.23819188303E+03  0.00000000000E+00 0. -1.
         25    1    1    2    0    0  0.67164415557E+02  0.21160027718E+03  0.10959386073E+03  0.27734734599E+03  0.12500000000E+03 0.  0.
         25    1    1    2    0    0  0.45964386395E+02 -0.12312078815E+03  0.23348546271E+02  0.18287046756E+03  0.12500000000E+03 0.  0.
         25    1    1    2    0    0 -0.11312880195E+03 -0.88479489023E+02  0.47007568795E+02  0.19611592830E+03  0.12500000000E+03 0.  0.
</event>
<event>
 5    0  0.5753719E-005  0.2882533E+03  0.7546771E-02  0.1091265E+00
         21   -1    0    0  502  501  0.00000000000E+00  0.00000000000E+00  0.12088132730E+04  0.12088132730E+04  0.00000000000E+00 0.  1.
         21   -1    0    0  501  502 -0.00000000000E+00 -0.00000000000E+00 -0.68736815257E+02  0.68736815257E+02  0.00000000000E+00 0.  1.
         25    1    1    2    0    0  0.33093359068E+02 -0.49769509065E+01  0.75813398983E+02  0.14997537104E+03  0.12500000000E+03 0.  0.
         25    1    1    2    0    0 -0.43534918725E+02  0.11914900627E+03  0.74569060063E+03  0.76666240726E+03  0.12500000000E+03 0.  0.
         25    1    1    2    0    0  0.10441559657E+02 -0.11417205536E+03  0.31857245814E+03  0.36091230996E+03  0.12500000000E+03 0.  0.
</event>
<event>
 5    0  0.5612316E-005  0.2668404E+03  0.7546771E-02  0.1103102E+00
         21   -1    0    0  502  501  0.00000000000E+00  0.00000000000E+00  0.47528498045E+03  0.47528498045E+03  0.00000000000E+00 0.  1.
         21   -1    0    0  501  502 -0.00000000000E+00 -0.00000000000E+00 -0.14981281843E+03  0.14981281843E+03  0.00000000000E+00 0.  1.
         25    1    1    2    0    0 -0.22490946025E+02  0.98265201256E+02 -0.80371935988E+01  0.16078398214E+03  0.12500000000E+03 0.  0.
         25    1    1    2    0    0  0.79785961908E+02 -0.60663131921E+02  0.94480053704E+02  0.18600348341E+03  0.12500000000E+03 0.  0.
         25    1    1    2    0    0 -0.57295015882E+02 -0.37602069335E+02  0.23902930191E+03  0.27831033333E+03  0.12500000000E+03 0.  0.
</event>
<event>
 5    0  0.5612316E-005  0.3231169E+03  0.7546771E-02  0.1074224E+00
         21   -1    0    0  502  501  0.00000000000E+00  0.00000000000E+00  0.43219919275E+03  0.43219919275E+03  0.00000000000E+00 0.  1.
         21   -1    0    0  501  502 -0.00000000000E+00 -0.00000000000E+00 -0.24156583509E+03  0.24156583509E+03  0.00000000000E+00 0.  1.
         25    1    1    2    0    0 -0.15186993107E+03 -0.52363931459E+02 -0.62332895802E+02  0.21287754034E+03  0.12500000000E+03 0.  0.
         25    1    1    2    0    0  0.15407907475E+03  0.11944117196E+03  0.99996757203E+02  0.25225167251E+03  0.12500000000E+03 0.  0.
         25    1    1    2    0    0 -0.22091436756E+01 -0.67077240501E+02  0.15296949626E+03  0.20863581499E+03  0.12500000000E+03 0.  0.
</event>
<event>
 5    0  0.5612316E-005  0.4186952E+03  0.7546771E-02  0.1037492E+00
         21   -1    0    0  502  501  0.00000000000E+00  0.00000000000E+00  0.10502029739E+03  0.10502029739E+03  0.00000000000E+00 0. -1.
         21   -1    0    0  501  502 -0.00000000000E+00 -0.00000000000E+00 -0.16692555243E+04  0.16692555243E+04  0.00000000000E+00 0.  1.
         25    1    1    2    0    0  0.29882387931E+03  0.85560028487E+02 -0.90345380244E+03  0.96357148280E+03  0.12500000000E+03 0.  0.
         25    1    1    2    0    0 -0.12013448392E+03  0.81862204282E+02 -0.22694429589E+03  0.29708993277E+03  0.12500000000E+03 0.  0.
         25    1    1    2    0    0 -0.17868939539E+03 -0.16742223277E+03 -0.43383712860E+03  0.51361440615E+03  0.12500000000E+03 0.  0.
</event>
<event>
 5    0  0.5612316E-005  0.2467013E+03  0.7546771E-02  0.1115407E+00
         21   -1    0    0  502  501  0.00000000000E+00  0.00000000000E+00  0.63930749983E+03  0.63930749983E+03  0.00000000000E+00 0.  1.
         21   -1    0    0  501  502 -0.00000000000E+00 -0.00000000000E+00 -0.95199118861E+02  0.95199118861E+02  0.00000000000E+00 0.  1.
         25    1    1    2    0    0 -0.50562933088E+01  0.97121379393E+01  0.28553615104E+03  0.31189066238E+03  0.12500000000E+03 0.  0.
         25    1    1    2    0    0  0.60755679731E+02  0.65875612745E+02  0.20722021723E+03  0.25806213864E+03  0.12500000000E+03 0.  0.
         25    1    1    2    0    0 -0.55699386423E+02 -0.75587750684E+02  0.51352012697E+02  0.16455381767E+03  0.12500000000E+03 0.  0.
</event>
<event>
 5    0  0.5612316E-005  0.3814681E+03  0.7546771E-02  0.1050392E+00
         21   -1    0    0  502  501  0.00000000000E+00  0.00000000000E+00  0.56508819815E+03  0.56508819815E+03  0.00000000000E+00 0. -1.
         21   -1    0    0  501  502 -0.00000000000E+00 -0.00000000000E+00 -0.25751358106E+03  0.25751358106E+03  0.00000000000E+00 0. -1.
         25    1    1    2    0    0 -0.29029333376E+03  0.28854851610E+02  0.21971510150E+03  0.38600848167E+03  0.12500000000E+03 0.  0.
         25    1    1    2    0    0  0.18574805696E+03 -0.72468695517E+02  0.12109853010E+03  0.26465809356E+03  0.12500000000E+03 0.  0.
         25    1    1    2    0    0  0.10454527680E+03  0.43613843906E+02 -0.33239014527E+02  0.17193520398E+03  0.12500000000E+03 0.  0.
</event>
<event>
 5    0  0.5612316E-005  0.4654332E+03  0.7546771E-02  0.1023217E+00
         21   -1    0    0  502  501  0.00000000000E+00  0.00000000000E+00  0.13099034497E+04  0.13099034497E+04  0.00000000000E+00 0.  1.
         21   -1    0    0  501  502 -0.00000000000E+00 -0.00000000000E+00 -0.16537713131E+03  0.16537713131E+03  0.00000000000E+00 0.  1.
         25    1    1    2    0    0 -0.60072127591E+02 -0.15704915620E+03  0.28469716612E+03  0.35348348529E+03  0.12500000000E+03 0.  0.
         25    1    1    2    0    0  0.29876470734E+03  0.23505568041E+03  0.67871032486E+03  0.78789861551E+03  0.12500000000E+03 0.  0.
         25    1    1    2    0    0 -0.23869257974E+03 -0.78006524209E+02  0.18111882740E+03  0.33389848020E+03  0.12500000000E+03 0.  0.
</event>
<event>
 5    0  0.5612316E-005  0.2367553E+03  0.7546771E-02  0.1121973E+00
         21   -1    0    0  502  501  0.00000000000E+00  0.00000000000E+00  0.77725909590E+03  0.77725909590E+03  0.00000000000E+00 0. -1.
         21   -1    0    0  501  502 -0.00000000000E+00 -0.00000000000E+00 -0.72116299742E+02  0.72116299742E+02  0.00000000000E+00 0. -1.
         25    1    1    2    0    0  0.27047662703E+02 -0.91341780106E+01  0.19945920049E+03  0.23711596725E+03  0.12500000000E+03 0.  0.
         25    1    1    2    0    0  0.98843821029E+02  0.27589338502E+02  0.18856642647E+03  0.24842216034E+03  0.12500000000E+03 0.  0.
         25    1    1    2    0    0 -0.12589148373E+03 -0.18455160491E+02  0.31711716920E+03  0.36383726806E+03  0.12500000000E+03 0.  0.
</event>
<event>
 5    0  0.5612316E-005  0.2635473E+03  0.7546771E-02  0.1105030E+00
         21   -1    0    0  502  501  0.00000000000E+00  0.00000000000E+00  0.35443846111E+02  0.35443846111E+02  0.00000000000E+00 0. -1.
         21   -1    0    0  501  502 -0.00000000000E+00 -0.00000000000E+00 -0.19596405348E+04  0.19596405348E+04  0.00000000000E+00 0. -1.
         25    1    1    2    0    0 -0.71545540108E+02 -0.12756855482E+02 -0.12111857755E+04  0.12197858354E+04  0.12500000000E+03 0.  0.
         25    1    1    2    0    0 -0.26684999622E+02  0.24615612017E+02 -0.20475035417E+03  0.24262259806E+03  0.12500000000E+03 0.  0.
         25    1    1    2    0    0  0.98230539730E+02 -0.11858756535E+02 -0.50826055903E+03  0.53267594737E+03  0.12500000000E+03 0.  0.
</event>
<event>
 5    0  0.5612316E-005  0.2811629E+03  0.7546771E-02  0.1095055E+00
         21   -1    0    0  502  501  0.00000000000E+00  0.00000000000E+00  0.15443148324E+04  0.15443148324E+04  0.00000000000E+00 0.  1.
         21   -1    0    0  501  502 -0.00000000000E+00 -0.00000000000E+00 -0.51189423536E+02  0.51189423536E+02  0.00000000000E+00 0.  1.
         25    1    1    2    0    0 -0.22113202106E+02 -0.18380234862E+03  0.50438631463E+03  0.55163652113E+03  0.12500000000E+03 0.  0.
         25    1    1    2    0    0  0.47854805658E+02  0.86966884308E+02  0.33943875415E+03  0.37509597333E+03  0.12500000000E+03 0.  0.
         25    1    1    2    0    0 -0.25741603552E+02  0.96835464316E+02  0.64930034011E+03  0.66877176149E+03  0.12500000000E+03 0.  0.
</event>
<event>
 5    0  0.5612316E-005  0.2456742E+03  0.7546771E-02  0.1116070E+00
         21   -1    0    0  502  501  0.00000000000E+00  0.00000000000E+00  0.39421116444E+03  0.39421116444E+03  0.00000000000E+00 0.  1.
         21   -1    0    0  501  502 -0.00000000000E+00 -0.00000000000E+00 -0.15310529665E+03  0.15310529665E+03  0.00000000000E+00 0.  1.
         25    1    1    2    0    0 -0.20467896290E+02 -0.26321399723E+02  0.35362246186E+02  0.13411651396E+03  0.12500000000E+03 0.  0.
         25    1    1    2    0    0 -0.25853811265E+02  0.59326881971E+02 -0.26651624391E+02  0.14325993007E+03  0.12500000000E+03 0.  0.
         25    1    1    2    0    0  0.46321707555E+02 -0.33005482248E+02  0.23239524599E+03  0.26994001705E+03  0.12500000000E+03 0.  0.
</event>
<event>
 5    0  0.5612316E-005  0.2646757E+03  0.7546771E-02  0.1104366E+00
         21   -1    0    0  502  501  0.00000000000E+00  0.00000000000E+00  0.14663506137E+04  0.14663506137E+04  0.00000000000E+00 0. -1.
         21   -1    0    0  501  502 -0.00000000000E+00 -0.00000000000E+00 -0.47773868678E+02  0.47773868678E+02  0.00000000000E+00 0. -1.
         25    1    1    2    0    0  0.11992000333E+03 -0.11091128444E+03  0.41488807026E+03  0.46307583727E+03  0.12500000000E+03 0.  0.
         25    1    1    2    0    0 -0.49306776624E+02  0.69811819600E+02  0.36560121495E+03  0.39571971994E+03  0.12500000000E+03 0.  0.
         25    1    1    2    0    0 -0.70613226708E+02  0.41099464842E+02  0.63808745977E+03  0.65532892513E+03  0.12500000000E+03 0.  0.
</event>
<event>
 5    0  0.5612316E-005  0.2058201E+03  0.7546771E-02  0.1144919E+00
         21   -1    0    0  502  501  0.00000000000E+00  0.00000000000E+00  0.19498975051E+03  0.19498975051E+03  0.00000000000E+00 0.  1.
         21   -1    0    0  501  502 -0.00000000000E+00 -0.00000000000E+00 -0.21725208988E+03  0.21725208988E+03  0.00000000000E+00 0.  1.
         25    1    1    2    0    0  0.21471394783E+02  0.51036491395E+01  0.19885228841E+02  0.12848147864E+03  0.12500000000E+03 0.  0.
         25    1    1    2    0    0  0.21136606470E+01  0.47765060487E+02  0.14903471941E+02  0.13465913278E+03  0.12500000000E+03 0.  0.
         25    1    1    2    0    0 -0.23585055430E+02 -0.52868709626E+02 -0.57051040155E+02  0.14910122897E+03  0.12500000000E+03 0.  0.
</event>
<event>
 5    0  0.5612316E-005  0.2630552E+03  0.7546771E-02  0.1105321E+00
         21   -1    0    0  502  501  0.00000000000E+00  0.00000000000E+00  0.69495970310E+03  0.69495970310E+03  0.00000000000E+00 0. -1.
         21   -1    0    0  501  502 -0.00000000000E+00 -0.00000000000E+00 -0.99571307194E+02  0.99571307194E+02  0.00000000000E+00 0. -1.
         25    1    1    2    0    0 -0.30975704396E+02 -0.35744471869E+01  0.86281361492E+02  0.15505400439E+03  0.12500000000E+03 0.  0.
         25    1    1    2    0    0  0.52882346128E+02 -0.98272067167E+02  0.42385756944E+03  0.45577865340E+03  0.12500000000E+03 0.  0.
         25    1    1    2    0    0 -0.21906641732E+02  0.10184651435E+03  0.85249464976E+02  0.18369835251E+03  0.12500000000E+03 0.  0.
</event>
<event>
 5    0  0.5612316E-005  0.3245800E+03  0.7546771E-02  0.1073561E+00
         21   -1    0    0  502  501  0.00000000000E+00  0.00000000000E+00  0.53405137865E+03  0.53405137865E+03  0.00000000000E+00 0.  1.
         21   -1    0    0  501  502 -0.00000000000E+00 -0.00000000000E+00 -0.19726968721E+03  0.19726968721E+03  0.00000000000E+00 0.  1.
         25    1    1    2    0    0 -0.93573464703E+01 -0.42191080299E+02  0.38629109224E+02  0.13778554086E+03  0.12500000000E+03 0.  0.
         25    1    1    2    0    0 -0.72014211717E+02  0.23054787616E+03  0.17668679211E+03  0.32431711702E+03  0.12500000000E+03 0.  0.
         25    1    1    2    0    0  0.81371558187E+02 -0.18835679586E+03  0.12146579011E+03  0.26921840798E+03  0.12500000000E+03 0.  0.
</event>
<event>
 5    0  0.5612316E-005  0.2851586E+03  0.7546771E-02  0.1092904E+00
         21   -1    0    0  502  501  0.00000000000E+00  0.00000000000E+00  0.57407522609E+03  0.57407522609E+03  0.00000000000E+00 0.  1.
         21   -1    0    0  501  502 -0.00000000000E+00 -0.00000000000E+00 -0.14164595712E+03  0.14164595712E+03  0.00000000000E+00 0.  1.
         25    1    1    2    0    0 -0.11827844366E+03  0.10449672661E+03  0.18409535949E+03  0.27281029579E+03  0.12500000000E+03 0.  0.
         25    1    1    2    0    0  0.91902402411E+02  0.30905423286E+02  0.39308494721E+02  0.16300722228E+03  0.12500000000E+03 0.  0.
         25    1    1    2    0    0  0.26376041245E+02 -0.13540214989E+03  0.20902541476E+03  0.27990366515E+03  0.12500000000E+03 0.  0.
</event>
<event>
 5    0  0.5612316E-005  0.4254239E+03  0.7546771E-02  0.1035315E+00
         21   -1    0    0  502  501  0.00000000000E+00  0.00000000000E+00  0.30973622502E+03  0.30973622502E+03  0.00000000000E+00 0. -1.
         21   -1    0    0  501  502 -0.00000000000E+00 -0.00000000000E+00 -0.58432132883E+03  0.58432132883E+03  0.00000000000E+00 0. -1.
         25    1    1    2    0    0 -0.15908228901E+01 -0.14047997590E+03 -0.66513961692E+02  0.19946493788E+03  0.12500000000E+03 0.  0.
         25    1    1    2    0    0 -0.29627135582E+03  0.40559447901E+02 -0.11473745291E+03  0.34381894682E+03  0.12500000000E+03 0.  0.
         25    1    1    2    0    0  0.29786217871E+03  0.99920527995E+02 -0.93333689213E+02  0.35077366914E+03  0.12500000000E+03 0.  0.
</event>
<event>
 5    0  0.5612316E-005  0.3778838E+03  0.7546771E-02  0.1051719E+00
         21   -1    0    0  502  501  0.00000000000E+00  0.00000000000E+00  0.22575182933E+04  0.22575182933E+04  0.00000000000E+00 0.  1.
         21   -1    0    0  501  502 -0.00000000000E+00 -0.00000000000E+00 -0.63253616012E+02  0.63253616012E+02  0.00000000000E+00 0.  1.
         25    1    1    2    0    0  0.16794792046E+03 -0.10553117458E+03  0.11531937727E+04  0.11767855413E+04  0.12500000000E+03 0.  0.
         25    1    1    2    0    0 -0.10056646711E+03  0.13342571472E+03  0.19490042598E+03  0.28552970371E+03  0.12500000000E+03 0.  0.
         25    1    1    2    0    0 -0.67381453350E+02 -0.27894540139E+02  0.84617047860E+03  0.85845666430E+03  0.12500000000E+03 0.  0.
</event>
<event>
 5    0  0.5612316E-005  0.2338796E+03  0.7546771E-02  0.1123939E+00
         21   -1    0    0  502  501  0.00000000000E+00  0.00000000000E+00  0.22163843525E+03  0.22163843525E+03  0.00000000000E+00 0. -1.
         21   -1    0    0  501  502 -0.00000000000E+00 -0.00000000000E+00 -0.24679683440E+03  0.24679683440E+03  0.00000000000E+00 0. -1.
         25    1    1    2    0    0 -0.71920600852E+02  0.22843850949E+02  0.57869361960E+02  0.15706138102E+03  0.12500000000E+03 0.  0.
         25    1    1    2    0    0  0.81282056102E+02  0.45559978201E+02 -0.28355468923E+02  0.15846613795E+03  0.12500000000E+03 0.  0.
         25    1    1    2    0    0 -0.93614552506E+01 -0.68403829149E+02 -0.54672292188E+02  0.15290775069E+03  0.12500000000E+03 0.  0.
</event>
<event>
 5    0  0.5612316E-005  0.2952115E+03  0.7546771E-02  0.1087659E+00
         21   -1    0    0  502  501  0.00000000000E+00  0.00000000000E+00  0.38020327878E+03  0.38020327878E+03  0.00000000000E+00 0. -1.
         21   -1    0    0  501  502 -0.00000000000E+00 -0.00000000000E+00 -0.22921905800E+03  0.22921905800E+03  0.00000000000E+00 0. -1.
         25    1    1    2    0    0 -0.43446929342E+02  0.66215612813E+02 -0.75799493810E+02  0.16626095847E+03  0.12500000000E+03 0.  0.
         25    1    1    2    0    0  0.15824939982E+03 -0.57284978828E+02  0.10811729430E+03  0.23587876265E+03  0.12500000000E+03 0.  0.
         25    1    1    2    0    0 -0.11480247048E+03 -0.89306339854E+01  0.11866642029E+03  0.20728261566E+03  0.12500000000E+03 0.  0.
</event>
<event>
 5    0  0.5612316E-005  0.2483742E+03  0.7546771E-02  0.1114337E+00
         21   -1    0    0  502  501  0.00000000000E+00  0.00000000000E+00  0.89046967269E+03  0.89046967269E+03  0.00000000000E+00 0. -1.
         21   -1    0    0  501  502 -0.00000000000E+00 -0.00000000000E+00 -0.69277761723E+02  0.69277761723E+02  0.00000000000E+00 0. -1.
         25    1    1    2    0    0  0.93869951809E+02  0.38461322302E+02  0.19912543742E+03  0.25606011207E+03  0.12500000000E+03 0.  0.
         25    1    1    2    0    0 -0.81351182208E+02 -0.10398659501E+03  0.28503715766E+03  0.33808639138E+03  0.12500000000E+03 0.  0.
         25    1    1    2    0    0 -0.12518769601E+02  0.65525272707E+02  0.33702931589E+03  0.36560093097E+03  0.12500000000E+03 0.  0.
</event>
<event>
 5    0  0.5612316E-005  0.3141748E+03  0.7546771E-02  0.1078362E+00
         21   -1    0    0  502  501  0.00000000000E+00  0.00000000000E+00  0.16278847018E+04  0.16278847018E+04  0.00000000000E+00 0. -1.
         21   -1    0    0  501  502 -0.00000000000E+00 -0.00000000000E+00 -0.60634386517E+02  0.60634386517E+02  0.00000000000E+00 0. -1.
         25    1    1    2    0    0  0.14153066492E+03  0.70250033266E+02  0.92350589933E+03  0.94522703219E+03  0.12500000000E+03 0.  0.
         25    1    1    2    0    0 -0.39773777902E+02 -0.14000478112E+03  0.39079792245E+03  0.43535193618E+03  0.12500000000E+03 0.  0.
         25    1    1    2    0    0 -0.10175688701E+03  0.69754747853E+02  0.25294649355E+03  0.30794012000E+03  0.12500000000E+03 0.  0.
</event>
<event>
 5    0  0.5612316E-005  0.3472997E+03  0.7546771E-02  0.1063729E+00
         21   -1    0    0  502  501  0.00000000000E+00  0.00000000000E+00  0.57686323668E+02  0.57686323668E+02  0.00000000000E+00 0. -1.
         21   -1    0    0  501  502 -0.00000000000E+00 -0.00000000000E+00 -0.20909129255E+04  0.20909129255E+04  0.00000000000E+00 0. -1.
         25    1    1    2    0    0 -0.37132793375E+02  0.24274254141E+02 -0.28338707826E+03  0.31289186612E+03  0.12500000000E+03 0.  0.
         25    1    1    2    0    0  0.12969183983E+03  0.13279663546E+03 -0.32974686566E+03  0.39851338136E+03  0.12500000000E+03 0.  0.
         25    1    1    2    0    0 -0.92559046459E+02 -0.15707088960E+03 -0.14200926579E+04  0.14371940017E+04  0.12500000000E+03 0.  0.
</event>
<event>
 5    0  0.5612316E-005  0.2959817E+03  0.7546771E-02  0.1087267E+00
         21   -1    0    0  502  501  0.00000000000E+00  0.00000000000E+00  0.56855962468E+02  0.56855962468E+02  0.00000000000E+00 0. -1.
         21   -1    0    0  501  502 -0.00000000000E+00 -0.00000000000E+00 -0.15408259638E+04  0.15408259638E+04  0.00000000000E+00 0.  1.
         25    1    1    2    0    0  0.63633082558E+02 -0.11867211146E+03 -0.53528566780E+03  0.56593991323E+03  0.12500000000E+03 0.  0.
         25    1    1    2    0    0 -0.12932428060E+03  0.15835942995E+03 -0.42503329978E+03  0.48793522575E+03  0.12500000000E+03 0.  0.
         25    1    1    2    0    0  0.65691198046E+02 -0.39687318489E+02 -0.52365103379E+03  0.54380678733E+03  0.12500000000E+03 0.  0.
</event>
<event>
 5    0  0.5612316E-005  0.3866926E+03  0.7546771E-02  0.1048487E+00
         21   -1    0    0  502  501  0.00000000000E+00  0.00000000000E+00  0.30707006995E+03  0.30707006995E+03  0.00000000000E+00 0. -1.
         21   -1    0    0  501  502 -0.00000000000E+00 -0.00000000000E+00 -0.48696110597E+03  0.48696110597E+03  0.00000000000E+00 0. -1.
         25    1    1    2    0    0 -0.90875174056E+01  0.13545514764E+03 -0.32754414133E+03  0.37595324778E+03  0.12500000000E+03 0.  0.
         25    1    1    2    0    0 -0.55487599133E+00 -0.11468760425E+03 -0.55467144510E+02  0.17848013496E+03  0.12500000000E+03 0.  0.
         25    1    1    2    0    0  0.96423933969E+01 -0.20767543392E+02  0.20312024982E+03  0.23959779318E+03  0.12500000000E+03 0.  0.
</event>
<event>
 5    0  0.5612316E-005  0.5142728E+03  0.7546771E-02  0.1010119E+00
         21   -1    0    0  502  501  0.00000000000E+00  0.00000000000E+00  0.23662587348E+03  0.23662587348E+03  0.00000000000E+00 0. -1.
         21   -1    0    0  501  502 -0.00000000000E+00 -0.00000000000E+00 -0.11176990457E+04  0.11176990457E+04  0.00000000000E+00 0. -1.
         25    1    1    2    0    0  0.16572689225E+03  0.12081288888E+03  0.11810217734E+03  0.26764581302E+03  0.12500000000E+03 0.  0.
         25    1    1    2    0    0 -0.50934202051E+02 -0.60495302489E+02 -0.12356554198E+03  0.19273665382E+03  0.12500000000E+03 0.  0.
         25    1    1    2    0    0 -0.11479269019E+03 -0.60317586387E+02 -0.87560980759E+03  0.89394245234E+03  0.12500000000E+03 0.  0.
</event>
<event>
 5    0  0.5612316E-005  0.3611205E+03  0.7546771E-02  0.1058141E+00
         21   -1    0    0  502  501  0.00000000000E+00  0.00000000000E+00  0.16834435970E+03  0.16834435970E+03  0.00000000000E+00 0.  1.
         21   -1    0    0  501  502 -0.00000000000E+00 -0.00000000000E+00 -0.77465053310E+03  0.77465053310E+03  0.00000000000E+00 0.  1.
         25    1    1    2    0    0  0.38414866536E+02  0.43565314624E+02 -0.47683410893E+03  0.49635612824E+03  0.12500000000E+03 0.  0.
         25    1    1    2    0    0 -0.13601532441E+03 -0.71570431981E+02  0.51191782513E+02  0.20461694408E+03  0.12500000000E+03 0.  0.
         25    1    1    2    0    0  0.97600457873E+02  0.28005117357E+02 -0.18066384699E+03  0.24202182047E+03  0.12500000000E+03 0.  0.
</event>
<event>
 5    0  0.5612316E-005  0.2292416E+03  0.7546771E-02  0.1127175E+00
         21   -1    0    0  502  501  0.00000000000E+00  0.00000000000E+00  0.89350554390E+03  0.89350554390E+03  0.00000000000E+00 0.  1.
         21   -1    0    0  501  502 -0.00000000000E+00 -0.00000000000E+00 -0.58815214287E+02  0.58815214287E+02  0.00000000000E+00 0.  1.
         25    1    1    2    0    0  0.21311069038E+02 -0.39406321613E+02  0.56205670647E+03  0.57752901324E+03  0.12500000000E+03 0.  0.
         25    1    1    2    0    0 -0.27301804041E+02  0.90331995710E+01  0.12998373124E+03  0.18261368400E+03  0.12500000000E+03 0.  0.
         25    1    1    2    0    0  0.59907350030E+01  0.30373122042E+02  0.14264989191E+03  0.19217806095E+03  0.12500000000E+03 0.  0.
</event>
<event>
 5    0  0.5612316E-005  0.2427465E+03  0.7546771E-02  0.1117977E+00
         21   -1    0    0  502  501  0.00000000000E+00  0.00000000000E+00  0.37041816131E+03  0.37041816131E+03  0.00000000000E+00 0.  1.
         21   -1    0    0  501  502 -0.00000000000E+00 -0.00000000000E+00 -0.15907935482E+03  0.15907935482E+03  0.00000000000E+00 0.  1.
         25    1    1    2    0    0  0.70110813404E+02  0.36868893176E+02  0.20016989490E+03  0.24893338118E+03  0.12500000000E+03 0.  0.
         25    1    1    2    0    0 -0.33954755194E+02 -0.67536238996E+02  0.14792502398E+02  0.14682604369E+03  0.12500000000E+03 0.  0.
         25    1    1    2    0    0 -0.36156058210E+02  0.30667345820E+02 -0.36235908056E+01  0.13373809127E+03  0.12500000000E+03 0.  0.
</event>
<event>
 5    0  0.5612316E-005  0.3127331E+03  0.7546771E-02  0.1079043E+00
         21   -1    0    0  502  501  0.00000000000E+00  0.00000000000E+00  0.20383735893E+03  0.20383735893E+03  0.00000000000E+00 0. -1.
         21   -1    0    0  501  502 -0.00000000000E+00 -0.00000000000E+00 -0.47980412552E+03  0.47980412552E+03  0.00000000000E+00 0. -1.
         25    1    1    2    0    0 -0.86909402731E+01  0.26604954563E+02 -0.15158449139E+03  0.19845960314E+03  0.12500000000E+03 0.  0.
         25    1    1    2    0    0 -0.78606793733E+02 -0.14952247541E+03  0.57539562430E+02  0.21788024214E+03  0.12500000000E+03 0.  0.
         25    1    1    2    0    0  0.87297734006E+02  0.12291752084E+03 -0.18192183763E+03  0.26730163917E+03  0.12500000000E+03 0.  0.
</event>
<event>
 5    0  0.5612316E-005  0.2191301E+03  0.7546771E-02  0.1134533E+00
         21   -1    0    0  502  501  0.00000000000E+00  0.00000000000E+00  0.10404669076E+03  0.10404669076E+03  0.00000000000E+00 0. -1.
         21   -1    0    0  501  502 -0.00000000000E+00 -0.00000000000E+00 -0.46150449487E+03  0.46150449487E+03  0.00000000000E+00 0. -1.
         25    1    1    2    0    0 -0.43556916810E+02  0.92041160530E+02 -0.16756885643E+03  0.23253623777E+03  0.12500000000E+03 0.  0.
         25    1    1    2    0    0  0.22308429998E+02 -0.61392499328E+02 -0.78073628738E+02  0.16120544819E+03  0.12500000000E+03 0.  0.
         25    1    1    2    0    0  0.21248486812E+02 -0.30648661201E+02 -0.11181531894E+03  0.17180949966E+03  0.12500000000E+03 0.  0.
</event>
<event>
 5    0  0.5612316E-005  0.2737244E+03  0.7546771E-02  0.1099167E+00
         21   -1    0    0  502  501  0.00000000000E+00  0.00000000000E+00  0.70684612899E+03  0.70684612899E+03  0.00000000000E+00 0. -1.
         21   -1    0    0  501  502 -0.00000000000E+00 -0.00000000000E+00 -0.10599912328E+03  0.10599912328E+03  0.00000000000E+00 0. -1.
         25    1    1    2    0    0 -0.95638706746E+02 -0.54721222019E+02  0.35143061864E+03  0.38893399708E+03  0.12500000000E+03 0.  0.
         25    1    1    2    0    0 -0.34397900663E+02 -0.26607046795E+02  0.15755463189E+03  0.20576591685E+03  0.12500000000E+03 0.  0.
         25    1    1    2    0    0  0.13003660741E+03  0.81328268813E+02  0.91861755176E+02  0.21814533834E+03  0.12500000000E+03 0.  0.
</event>
<event>
 5    0  0.5905425E-005  0.3478193E+03  0.7546771E-02  0.1063514E+00
         21   -1    0    0  502  501  0.00000000000E+00  0.00000000000E+00  0.22060906089E+03  0.22060906089E+03  0.00000000000E+00 0. -1.
         21   -1    0    0  501  502 -0.00000000000E+00 -0.00000000000E+00 -0.54838308873E+03  0.54838308873E+03  0.00000000000E+00 0. -1.
         25    1    1    2    0    0  0.12918437502E+03  0.18182676172E+03 -0.14825946268E+03  0.29555954104E+03  0.12500000000E+03 0.  0.
         25    1    1    2    0    0  0.18170674006E+02 -0.12082120296E+03 -0.20477419968E+03  0.26923114481E+03  0.12500000000E+03 0.  0.
         25    1    1    2    0    0 -0.14735504903E+03 -0.61005558758E+02  0.25259634519E+02  0.20420146378E+03  0.12500000000E+03 0.  0.
</event>
<event>
 5    0  0.5612316E-005  0.3459908E+03  0.7546771E-02  0.1064273E+00
         21   -1    0    0  502  501  0.00000000000E+00  0.00000000000E+00  0.99546457434E+03  0.99546457434E+03  0.00000000000E+00 0. -1.
         21   -1    0    0  501  502 -0.00000000000E+00 -0.00000000000E+00 -0.12025505772E+03  0.12025505772E+03  0.00000000000E+00 0. -1.
         25    1    1    2    0    0 -0.17802256585E+03 -0.17921978215E+03  0.44351054294E+03  0.52548869252E+03  0.12500000000E+03 0.  0.
         25    1    1    2    0    0  0.13650792735E+03  0.16553114687E+03  0.36631531846E+03  0.44254591553E+03  0.12500000000E+03 0.  0.
         25    1    1    2    0    0  0.41514638502E+02  0.13688635284E+02  0.65383655226E+02  0.14768502401E+03  0.12500000000E+03 0.  0.
</event>
<event>
 5    0  0.5612316E-005  0.3106747E+03  0.7546771E-02  0.1080023E+00
         21   -1    0    0  502  501  0.00000000000E+00  0.00000000000E+00  0.10622353797E+04  0.10622353797E+04  0.00000000000E+00 0. -1.
         21   -1    0    0  501  502 -0.00000000000E+00 -0.00000000000E+00 -0.90863798490E+02  0.90863798490E+02  0.00000000000E+00 0. -1.
         25    1    1    2    0    0  0.98080956866E+02 -0.15994646324E+03  0.32646668412E+03  0.39674707440E+03  0.12500000000E+03 0.  0.
         25    1    1    2    0    0  0.24545929786E+02  0.95028220630E+02  0.11978802168E+03  0.19901516405E+03  0.12500000000E+03 0.  0.
         25    1    1    2    0    0 -0.12262688665E+03  0.64918242615E+02  0.52511687542E+03  0.55733693974E+03  0.12500000000E+03 0.  0.
</event>
<event>
 5    0  0.5612316E-005  0.2906870E+03  0.7546771E-02  0.1089991E+00
         21   -1    0    0  502  501  0.00000000000E+00  0.00000000000E+00  0.20367742711E+03  0.20367742711E+03  0.00000000000E+00 0. -1.
         21   -1    0    0  501  502 -0.00000000000E+00 -0.00000000000E+00 -0.41486642591E+03  0.41486642591E+03  0.00000000000E+00 0. -1.
         25    1    1    2    0    0  0.56853068029E+02  0.99177588217E+01 -0.15478634095E+03  0.20715801850E+03  0.12500000000E+03 0.  0.
         25    1    1    2    0    0  0.49113237309E+02  0.34587293574E+02 -0.16057303894E+03  0.21217231627E+03  0.12500000000E+03 0.  0.
         25    1    1    2    0    0 -0.10596630534E+03 -0.44505052396E+02  0.10417038109E+03  0.19921351825E+03  0.12500000000E+03 0.  0.
</event>
<event>
 5    0  0.5612316E-005  0.2171352E+03  0.7546771E-02  0.1136037E+00
         21   -1    0    0  502  501  0.00000000000E+00  0.00000000000E+00  0.13697935923E+04  0.13697935923E+04  0.00000000000E+00 0. -1.
         21   -1    0    0  501  502 -0.00000000000E+00 -0.00000000000E+00 -0.34419555812E+02  0.34419555812E+02  0.00000000000E+00 0. -1.
         25    1    1    2    0    0 -0.58420581706E+01  0.69762572164E+02  0.33141537021E+03  0.36105691204E+03  0.12500000000E+03 0.  0.
         25    1    1    2    0    0  0.12545504712E+02  0.21021358256E+02  0.50282996436E+03  0.51871211693E+03  0.12500000000E+03 0.  0.
         25    1    1    2    0    0 -0.67034465416E+01 -0.90783930420E+02  0.50112870190E+03  0.52444411913E+03  0.12500000000E+03 0.  0.
</event>
<event>
 5    0  0.5612316E-005  0.3142798E+03  0.7546771E-02  0.1078312E+00
         21   -1    0    0  502  501  0.00000000000E+00  0.00000000000E+00  0.27777882688E+03  0.27777882688E+03  0.00000000000E+00 0.  1.
         21   -1    0    0  501  502 -0.00000000000E+00 -0.00000000000E+00 -0.35557719392E+03  0.35557719392E+03  0.00000000000E+00 0.  1.
         25    1    1    2    0    0 -0.21715405730E+02  0.16033408544E+03 -0.11603414537E+03  0.23509040961E+03  0.12500000000E+03 0.  0.
         25    1    1    2    0    0  0.79611954319E+02 -0.11807212627E+02  0.10828016106E+03  0.18392136042E+03  0.12500000000E+03 0.  0.
         25    1    1    2    0    0 -0.57896548589E+02 -0.14852687281E+03 -0.70044382732E+02  0.21434425077E+03  0.12500000000E+03 0.  0.
</event>
<event>
 5    0  0.5612316E-005  0.3632362E+03  0.7546771E-02  0.1057310E+00
         21   -1    0    0  502  501  0.00000000000E+00  0.00000000000E+00  0.20642131462E+03  0.20642131462E+03  0.00000000000E+00 0. -1.
         21   -1    0    0  501  502 -0.00000000000E+00 -0.00000000000E+00 -0.63918074022E+03  0.63918074022E+03  0.00000000000E+00 0. -1.
         25    1    1    2    0    0 -0.20143970231E+03 -0.37924366773E+02 -0.27382918649E+02  0.24164237107E+03  0.12500000000E+03 0.  0.
         25    1    1    2    0    0  0.97109082410E+02  0.15267921799E+03 -0.10541339210E+03  0.24388132508E+03  0.12500000000E+03 0.  0.
         25    1    1    2    0    0  0.10433061990E+03 -0.11475485121E+03 -0.29996311485E+03  0.36007835869E+03  0.12500000000E+03 0.  0.
</event>
<event>
 5    0  0.6045374E-005  0.3370903E+03  0.7546771E-02  0.1068042E+00
         21   -1    0    0  502  501  0.00000000000E+00  0.00000000000E+00  0.12153638277E+03  0.12153638277E+03  0.00000000000E+00 0. -1.
         21   -1    0    0  501  502 -0.00000000000E+00 -0.00000000000E+00 -0.93494528760E+03  0.93494528760E+03  0.00000000000E+00 0. -1.
         25    1    1    2    0    0  0.18139673220E+02  0.14074300879E+03 -0.35671702353E+03  0.40374456919E+03  0.12500000000E+03 0.  0.
         25    1    1    2    0    0  0.22832914235E+00 -0.14111256035E+03 -0.48751074967E+03  0.52268971472E+03  0.12500000000E+03 0.  0.
         25    1    1    2    0    0 -0.18368002363E+02  0.36955156415E+00  0.30818868381E+02  0.13004738647E+03  0.12500000000E+03 0.  0.
</event>
<event>
 5    0  0.6833944E-005  0.3451733E+03  0.7546771E-02  0.1064614E+00
         21   -1    0    0  502  501  0.00000000000E+00  0.00000000000E+00  0.50374285324E+03  0.50374285324E+03  0.00000000000E+00 0. -1.
         21   -1    0    0  501  502 -0.00000000000E+00 -0.00000000000E+00 -0.23651868076E+03  0.23651868076E+03  0.00000000000E+00 0. -1.
         25    1    1    2    0    0  0.91968161347E+02 -0.10929766645E+03  0.41504388729E+02  0.19429806195E+03  0.12500000000E+03 0.  0.
         25    1    1    2    0    0 -0.15169929218E+03  0.17090515992E+03 -0.15628894156E+02  0.26094158593E+03  0.12500000000E+03 0.  0.
         25    1    1    2    0    0  0.59731130835E+02 -0.61607493465E+02  0.24134867790E+03  0.28502188612E+03  0.12500000000E+03 0.  0.
</event>
<event>
 5    0  0.5612316E-005  0.2703735E+03  0.7546771E-02  0.1101066E+00
         21   -1    0    0  502  501  0.00000000000E+00  0.00000000000E+00  0.10192172420E+04  0.10192172420E+04  0.00000000000E+00 0.  1.
         21   -1    0    0  501  502 -0.00000000000E+00 -0.00000000000E+00 -0.71723517266E+02  0.71723517266E+02  0.00000000000E+00 0.  1.
         25    1    1    2    0    0  0.10147485758E+03 -0.31694894431E+02  0.66285438849E+03  0.68286356866E+03  0.12500000000E+03 0.  0.
         25    1    1    2    0    0 -0.91122998048E+02 -0.21496766870E+02  0.15141710087E+03  0.21752620577E+03  0.12500000000E+03 0.  0.
         25    1    1    2    0    0 -0.10351859533E+02  0.53191661302E+02  0.13322223537E+03  0.19055098485E+03  0.12500000000E+03 0.  0.
</event>
<event>
 5    0  0.5612316E-005  0.3119423E+03  0.7546771E-02  0.1079419E+00
         21   -1    0    0  502  501  0.00000000000E+00  0.00000000000E+00  0.19329159057E+03  0.19329159057E+03  0.00000000000E+00 0. -1.
         21   -1    0    0  501  502 -0.00000000000E+00 -0.00000000000E+00 -0.50342598799E+03  0.50342598799E+03  0.00000000000E+00 0. -1.
         25    1    1    2    0    0 -0.11626759343E+03 -0.34499982437E+02 -0.19047717094E+03  0.25809873056E+03  0.12500000000E+03 0.  0.
         25    1    1    2    0    0  0.21539261279E+03  0.29428943883E+02 -0.22536447156E+02  0.25177953021E+03  0.12500000000E+03 0.  0.
         25    1    1    2    0    0 -0.99125019362E+02  0.50710385545E+01 -0.97120779327E+02  0.18683931779E+03  0.12500000000E+03 0.  0.
</event>
<event>
 5    0  0.5612316E-005  0.5130898E+03  0.7546771E-02  0.1010418E+00
         21   -1    0    0  502  501  0.00000000000E+00  0.00000000000E+00  0.82051650864E+03  0.82051650864E+03  0.00000000000E+00 0. -1.
         21   -1    0    0  501  502 -0.00000000000E+00 -0.00000000000E+00 -0.32084811146E+03  0.32084811146E+03  0.00000000000E+00 0. -1.
         25    1    1    2    0    0  0.10844600113E+03 -0.12182972983E+02 -0.19133073310E+03  0.25326154351E+03  0.12500000000E+03 0.  0.
         25    1    1    2    0    0  0.76030433671E+01 -0.12882907890E+03  0.19079079270E+02  0.18067581217E+03  0.12500000000E+03 0.  0.
         25    1    1    2    0    0 -0.11604904450E+03  0.14101205188E+03  0.67192005101E+03  0.70742726443E+03  0.12500000000E+03 0.  0.
</event>
<event>
 5    0  0.5612316E-005  0.2523030E+03  0.7546771E-02  0.1111858E+00
         21   -1    0    0  502  501  0.00000000000E+00  0.00000000000E+00  0.51660278218E+02  0.51660278218E+02  0.00000000000E+00 0. -1.
         21   -1    0    0  501  502 -0.00000000000E+00 -0.00000000000E+00 -0.12322196607E+04  0.12322196607E+04  0.00000000000E+00 0. -1.
         25    1    1    2    0    0 -0.23512748815E+02 -0.11147698131E+03 -0.41214865586E+03  0.44550138187E+03  0.12500000000E+03 0.  0.
         25    1    1    2    0    0  0.33580353501E+02 -0.12733743318E+02 -0.16739715372E+03  0.21198253568E+03  0.12500000000E+03 0.  0.
         25    1    1    2    0    0 -0.10067604686E+02  0.12421072463E+03 -0.60101357288E+03  0.62639602135E+03  0.12500000000E+03 0.  0.
</event>
<event>
 5    0  0.5612316E-005  0.3336338E+03  0.7546771E-02  0.1069540E+00
         21   -1    0    0  502  501  0.00000000000E+00  0.00000000000E+00  0.22417137582E+03  0.22417137582E+03  0.00000000000E+00 0. -1.
         21   -1    0    0  501  502 -0.00000000000E+00 -0.00000000000E+00 -0.49654643950E+03  0.49654643950E+03  0.00000000000E+00 0. -1.
         25    1    1    2    0    0  0.40129667606E+02 -0.13320657705E+02 -0.37622716927E+03  0.39869752074E+03  0.12500000000E+03 0.  0.
         25    1    1    2    0    0 -0.30003513154E+02 -0.63972146987E+02  0.99402273677E+02  0.17463807833E+03  0.12500000000E+03 0.  0.
         25    1    1    2    0    0 -0.10126154452E+02  0.77292804691E+02  0.44498319112E+01  0.14738221624E+03  0.12500000000E+03 0.  0.
</event>
<event>
 5    0  0.5612316E-005  0.3214862E+03  0.7546771E-02  0.1074967E+00
         21   -1    0    0  502  501  0.00000000000E+00  0.00000000000E+00  0.41999725225E+02  0.41999725225E+02  0.00000000000E+00 0. -1.
         21   -1    0    0  501  502 -0.00000000000E+00 -0.00000000000E+00 -0.24608114000E+04  0.24608114000E+04  0.00000000000E+00 0. -1.
         25    1    1    2    0    0 -0.51703554346E+01 -0.41456940128E+02 -0.34406793362E+03  0.36844694789E+03  0.12500000000E+03 0.  0.
         25    1    1    2    0    0  0.21817546871E+03  0.22731906325E+02 -0.11072858119E+04  0.11357042502E+04  0.12500000000E+03 0.  0.
         25    1    1    2    0    0 -0.21300511328E+03  0.18725033803E+02 -0.96745792921E+03  0.99865992708E+03  0.12500000000E+03 0.  0.
</event>
<event>
 5    0  0.5612316E-005  0.2596067E+03  0.7546771E-02  0.1107380E+00
         21   -1    0    0  502  501  0.00000000000E+00  0.00000000000E+00  0.34469078609E+03  0.34469078609E+03  0.00000000000E+00 0.  1.
         21   -1    0    0  501  502 -0.00000000000E+00 -0.00000000000E+00 -0.19552495902E+03  0.19552495902E+03  0.00000000000E+00 0.  1.
         25    1    1    2    0    0  0.76549467894E+02  0.86285881043E+02 -0.13556174344E+02  0.17062779423E+03  0.12500000000E+03 0.  0.
         25    1    1    2    0    0 -0.36578416135E+02  0.49836750537E+02  0.95037079729E+02  0.16875641841E+03  0.12500000000E+03 0.  0.
         25    1    1    2    0    0 -0.39971051759E+02 -0.13612263158E+03  0.67684921690E+02  0.20083153246E+03  0.12500000000E+03 0.  0.
</event>
<event>
 5    0  0.5612316E-005  0.4045284E+03  0.7546771E-02  0.1042223E+00
         21   -1    0    0  502  501  0.00000000000E+00  0.00000000000E+00  0.14787643257E+04  0.14787643257E+04  0.00000000000E+00 0.  1.
         21   -1    0    0  501  502 -0.00000000000E+00 -0.00000000000E+00 -0.11066212906E+03  0.11066212906E+03  0.00000000000E+00 0.  1.
         25    1    1    2    0    0  0.88145769956E+01  0.53492526138E+02  0.59755285041E+03  0.61288951382E+03  0.12500000000E+03 0.  0.
         25    1    1    2    0    0  0.81944176139E+02  0.15380543041E+03  0.63443798459E+02  0.22365391566E+03  0.12500000000E+03 0.  0.
         25    1    1    2    0    0 -0.90758753134E+02 -0.20729795655E+03  0.70710554782E+03  0.75288302532E+03  0.12500000000E+03 0.  0.
</event>
<event>
 5    0  0.5612316E-005  0.2535437E+03  0.7546771E-02  0.1111086E+00
         21   -1    0    0  502  501  0.00000000000E+00  0.00000000000E+00  0.34067557862E+03  0.34067557862E+03  0.00000000000E+00 0. -1.
         21   -1    0    0  501  502 -0.00000000000E+00 -0.00000000000E+00 -0.18869687067E+03  0.18869687067E+03  0.00000000000E+00 0. -1.
         25    1    1    2    0    0 -0.11938376830E+02  0.36310350135E+02  0.12220664215E+02  0.13128332340E+03  0.12500000000E+03 0.  0.
         25    1    1    2    0    0  0.65818642678E+01 -0.84793825873E+02 -0.55599897390E+02  0.16108898917E+03  0.12500000000E+03 0.  0.
         25    1    1    2    0    0  0.53565125624E+01  0.48483475739E+02  0.19535794113E+03  0.23700013673E+03  0.12500000000E+03 0.  0.
</event>
<event>
 5    0  0.5612316E-005  0.3641671E+03  0.7546771E-02  0.1056946E+00
         21   -1    0    0  502  501  0.00000000000E+00  0.00000000000E+00  0.28648443134E+03  0.28648443134E+03  0.00000000000E+00 0.  1.
         21   -1    0    0  501  502 -0.00000000000E+00 -0.00000000000E+00 -0.46291400311E+03  0.46291400311E+03  0.00000000000E+00 0.  1.
         25    1    1    2    0    0 -0.81430252787E+02  0.19085317345E+03  0.14485240246E+02  0.24267394188E+03  0.12500000000E+03 0.  0.
         25    1    1    2    0    0  0.71800991579E+02 -0.27231465219E+03 -0.17993944157E+03  0.35681067084E+03  0.12500000000E+03 0.  0.
         25    1    1    2    0    0  0.96292612076E+01  0.81461478740E+02 -0.10975370440E+02  0.14991382173E+03  0.12500000000E+03 0.  0.
</event>
<event>
 5    0  0.5612316E-005  0.3109277E+03  0.7546771E-02  0.1079902E+00
         21   -1    0    0  502  501  0.00000000000E+00  0.00000000000E+00  0.11213468408E+03  0.11213468408E+03  0.00000000000E+00 0.  1.
         21   -1    0    0  501  502 -0.00000000000E+00 -0.00000000000E+00 -0.86214220822E+03  0.86214220822E+03  0.00000000000E+00 0.  1.
         25    1    1    2    0    0  0.13325883468E+03 -0.16996727560E+03 -0.22528696134E+03  0.33619340675E+03  0.12500000000E+03 0.  0.
         25    1    1    2    0    0 -0.65063597476E+01  0.55548525756E+02 -0.12317579167E+03  0.18418807531E+03  0.12500000000E+03 0.  0.
         25    1    1    2    0    0 -0.12675247493E+03  0.11441874984E+03 -0.40154477113E+03  0.45389541024E+03  0.12500000000E+03 0.  0.
</event>
<event>
 5    0  0.5612316E-005  0.4152987E+03  0.7546771E-02  0.1038607E+00
         21   -1    0    0  502  501  0.00000000000E+00  0.00000000000E+00  0.26246405037E+03  0.26246405037E+03  0.00000000000E+00 0.  1.
         21   -1    0    0  501  502 -0.00000000000E+00 -0.00000000000E+00 -0.65713014494E+03  0.65713014494E+03  0.00000000000E+00 0.  1.
         25    1    1    2    0    0  0.61810425220E+01 -0.25877557283E+02 -0.17913213018E+03  0.22004811592E+03  0.12500000000E+03 0.  0.
         25    1    1    2    0    0  0.16355643181E+03 -0.23802903764E+03 -0.17301103062E+03  0.35911884643E+03  0.12500000000E+03 0.  0.
         25    1    1    2    0    0 -0.16973747433E+03  0.26390659492E+03 -0.42522933773E+02  0.34042723295E+03  0.12500000000E+03 0.  0.
</event>
<event>
 5    0  0.5612316E-005  0.2029509E+03  0.7546771E-02  0.1147273E+00
         21   -1    0    0  502  501  0.00000000000E+00  0.00000000000E+00  0.39302510640E+03  0.39302510640E+03  0.00000000000E+00 0.  1.
         21   -1    0    0  501  502 -0.00000000000E+00 -0.00000000000E+00 -0.10480006920E+03  0.10480006920E+03  0.00000000000E+00 0.  1.
         25    1    1    2    0    0  0.54417534710E+01 -0.24121880674E+02  0.54012210201E+02  0.13839724224E+03  0.12500000000E+03 0.  0.
         25    1    1    2    0    0 -0.53282098610E+01  0.45200751806E+02  0.17417241544E+03  0.21916324528E+03  0.12500000000E+03 0.  0.
         25    1    1    2    0    0 -0.11354361003E+00 -0.21078871132E+02  0.60040411563E+02  0.14026468808E+03  0.12500000000E+03 0.  0.
</event>
<event>
 5    0  0.5612316E-005  0.3067004E+03  0.7546771E-02  0.1081938E+00
         21   -1    0    0  502  501  0.00000000000E+00  0.00000000000E+00  0.18722874812E+03  0.18722874812E+03  0.00000000000E+00 0.  1.
         21   -1    0    0  501  502 -0.00000000000E+00 -0.00000000000E+00 -0.50240761149E+03  0.50240761149E+03  0.00000000000E+00 0.  1.
         25    1    1    2    0    0  0.62296313387E+01  0.10611883052E+03 -0.17123382337E+03  0.23716246913E+03  0.12500000000E+03 0.  0.
         25    1    1    2    0    0 -0.10913472534E+03 -0.13378948039E+03 -0.18602409044E+03  0.28291337113E+03  0.12500000000E+03 0.  0.
         25    1    1    2    0    0  0.10290509400E+03  0.27670649870E+02  0.42079050437E+02  0.16956051935E+03  0.12500000000E+03 0.  0.
</event>
<event>
 5    0  0.5612316E-005  0.2878717E+03  0.7546771E-02  0.1091466E+00
         21   -1    0    0  502  501  0.00000000000E+00  0.00000000000E+00  0.17955418735E+02  0.17955418735E+02  0.00000000000E+00 0. -1.
         21   -1    0    0  501  502 -0.00000000000E+00 -0.00000000000E+00 -0.46153266634E+04  0.46153266634E+04  0.00000000000E+00 0. -1.
         25    1    1    2    0    0 -0.69158829575E+02 -0.56397468892E+02 -0.67467475534E+03  0.69193543318E+03  0.12500000000E+03 0.  0.
         25    1    1    2    0    0 -0.67223805454E+02 -0.89028837348E-01 -0.26733224607E+04  0.26770874149E+04  0.12500000000E+03 0.  0.
         25    1    1    2    0    0  0.13638263503E+03  0.56486497729E+02 -0.12493740286E+04  0.12642592340E+04  0.12500000000E+03 0.  0.
</event>
<event>
 5    0  0.5612316E-005  0.3298395E+03  0.7546771E-02  0.1071208E+00
         21   -1    0    0  502  501  0.00000000000E+00  0.00000000000E+00  0.34094568204E+03  0.34094568204E+03  0.00000000000E+00 0.  1.
         21   -1    0    0  501  502 -0.00000000000E+00 -0.00000000000E+00 -0.31909501472E+03  0.31909501472E+03  0.00000000000E+00 0.  1.
         25    1    1    2    0    0 -0.57351110008E+02  0.10637971245E+03 -0.13800683544E+03  0.22198351215E+03  0.12500000000E+03 0.  0.
         25    1    1    2    0    0  0.14513926251E+03 -0.20725459023E+00  0.16373956864E+03  0.25199423568E+03  0.12500000000E+03 0.  0.
         25    1    1    2    0    0 -0.87788152503E+02 -0.10617245786E+03 -0.38820658849E+01  0.18606294893E+03  0.12500000000E+03 0.  0.
</event>
<event>
 5    0  0.5612316E-005  0.3348273E+03  0.7546771E-02  0.1069021E+00
         21   -1    0    0  502  501  0.00000000000E+00  0.00000000000E+00  0.12047678709E+03  0.12047678709E+03  0.00000000000E+00 0.  1.
         21   -1    0    0  501  502 -0.00000000000E+00 -0.00000000000E+00 -0.93054725030E+03  0.93054725030E+03  0.00000000000E+00 0.  1.
         25    1    1    2    0    0  0.17191075281E+03  0.63246155205E+02 -0.53506625645E+03  0.57920141736E+03  0.12500000000E+03 0.  0.
         25    1    1    2    0    0 -0.10728431352E+03 -0.89346371307E+02 -0.32440063705E+02  0.19018426782E+03  0.12500000000E+03 0.  0.
         25    1    1    2    0    0 -0.64626439293E+02  0.26100216102E+02 -0.24256414306E+03  0.28163835221E+03  0.12500000000E+03 0.  0.
</event>
<event>
 5    0  0.5612316E-005  0.2535352E+03  0.7546771E-02  0.1111091E+00
         21   -1    0    0  502  501  0.00000000000E+00  0.00000000000E+00  0.14568067321E+04  0.14568067321E+04  0.00000000000E+00 0. -1.
         21   -1    0    0  501  502 -0.00000000000E+00 -0.00000000000E+00 -0.44123987160E+02  0.44123987160E+02  0.00000000000E+00 0. -1.
         25    1    1    2    0    0  0.13007465453E+03  0.32656070023E+02  0.36078931095E+03  0.40469712323E+03  0.12500000000E+03 0.  0.
         25    1    1    2    0    0 -0.40611525046E+02 -0.29325234517E+02  0.69024795049E+03  0.70326133016E+03  0.12500000000E+03 0.  0.
         25    1    1    2    0    0 -0.89463129479E+02 -0.33308355069E+01  0.36164548351E+03  0.39297226587E+03  0.12500000000E+03 0.  0.
</event>
<event>
 5    0  0.5612316E-005  0.2912048E+03  0.7546771E-02  0.1089722E+00
         21   -1    0    0  502  501  0.00000000000E+00  0.00000000000E+00  0.28743950937E+02  0.28743950937E+02  0.00000000000E+00 0. -1.
         21   -1    0    0  501  502 -0.00000000000E+00 -0.00000000000E+00 -0.29501948592E+04  0.29501948592E+04  0.00000000000E+00 0. -1.
         25    1    1    2    0    0 -0.68381855408E+02 -0.70623513687E+02 -0.50966860235E+03  0.53390152937E+03  0.12500000000E+03 0.  0.
         25    1    1    2    0    0 -0.37255968967E+02  0.97314550827E+02 -0.19023212147E+04  0.19092692667E+04  0.12500000000E+03 0.  0.
         25    1    1    2    0    0  0.10563782437E+03 -0.26691037139E+02 -0.50946109122E+03  0.53576801404E+03  0.12500000000E+03 0.  0.
</event>
<event>
 5    0  0.5612316E-005  0.3616675E+03  0.7546771E-02  0.1057926E+00
         21   -1    0    0  502  501  0.00000000000E+00  0.00000000000E+00  0.32124292616E+04  0.32124292616E+04  0.00000000000E+00 0.  1.
         21   -1    0    0  501  502 -0.00000000000E+00 -0.00000000000E+00 -0.40717891301E+02  0.40717891301E+02  0.00000000000E+00 0.  1.
         25    1    1    2    0    0 -0.33913839281E+01  0.12726158351E+03  0.10180593776E+04  0.10335748200E+04  0.12500000000E+03 0.  0.
         25    1    1    2    0    0 -0.47013766551E+02  0.16555008769E+03  0.94847466311E+03  0.97203205314E+03  0.12500000000E+03 0.  0.
         25    1    1    2    0    0  0.50405150479E+02 -0.29281167119E+03  0.12051773296E+04  0.12475402798E+04  0.12500000000E+03 0.  0.
</event>
<event>
 5    0  0.5612316E-005  0.2783756E+03  0.7546771E-02  0.1096579E+00
         21   -1    0    0  502  501  0.00000000000E+00  0.00000000000E+00  0.19307638979E+03  0.19307638979E+03  0.00000000000E+00 0.  1.
         21   -1    0    0  501  502 -0.00000000000E+00 -0.00000000000E+00 -0.40135903398E+03  0.40135903398E+03  0.00000000000E+00 0.  1.
         25    1    1    2    0    0 -0.99082982114E+02  0.25804375786E+02 -0.20615825528E+03  0.26193420810E+03  0.12500000000E+03 0.  0.
         25    1    1    2    0    0 -0.49545041154E+02  0.65721891889E+01 -0.13447510432E+02  0.13529131646E+03  0.12500000000E+03 0.  0.
         25    1    1    2    0    0  0.14862802327E+03 -0.32376564975E+02  0.11323121528E+02  0.19720989920E+03  0.12500000000E+03 0.  0.
</event>
<event>
 5    0  0.5612316E-005  0.3171131E+03  0.7546771E-02  0.1076986E+00
         21   -1    0    0  502  501  0.00000000000E+00  0.00000000000E+00  0.41896414288E+02  0.41896414288E+02  0.00000000000E+00 0.  1.
         21   -1    0    0  501  502 -0.00000000000E+00 -0.00000000000E+00 -0.24002219460E+04  0.24002219460E+04  0.00000000000E+00 0.  1.
         25    1    1    2    0    0  0.26232307955E+02  0.38535181191E+02 -0.36742557702E+03  0.39089595651E+03  0.12500000000E+03 0.  0.
         25    1    1    2    0    0 -0.22018706482E+03  0.23959665450E+02 -0.10678700574E+04  0.10977376137E+04  0.12500000000E+03 0.  0.
         25    1    1    2    0    0  0.19395475687E+03 -0.62494846641E+02 -0.92302989728E+03  0.95348479004E+03  0.12500000000E+03 0.  0.
</event>
<event>
 5    0  0.5612316E-005  0.3232334E+03  0.7546771E-02  0.1074171E+00
         21   -1    0    0  502  501  0.00000000000E+00  0.00000000000E+00  0.14642515225E+03  0.14642515225E+03  0.00000000000E+00 0. -1.
         21   -1    0    0  501  502 -0.00000000000E+00 -0.00000000000E+00 -0.71353724066E+03  0.71353724066E+03  0.00000000000E+00 0. -1.
         25    1    1    2    0    0 -0.15242053125E+03 -0.82661478298E+02 -0.36160396005E+03  0.42005637986E+03  0.12500000000E+03 0.  0.
         25    1    1    2    0    0  0.13103842395E+03  0.10945350128E+02  0.77974905737E+01  0.18159479646E+03  0.12500000000E+03 0.  0.
         25    1    1    2    0    0  0.21382107296E+02  0.71716128171E+02 -0.21330561893E+03  0.25831121660E+03  0.12500000000E+03 0.  0.
</event>
<event>
 5    0  0.5612316E-005  0.2253010E+03  0.7546771E-02  0.1129992E+00
         21   -1    0    0  502  501  0.00000000000E+00  0.00000000000E+00  0.90530474463E+02  0.90530474463E+02  0.00000000000E+00 0. -1.
         21   -1    0    0  501  502 -0.00000000000E+00 -0.00000000000E+00 -0.56070102181E+03  0.56070102181E+03  0.00000000000E+00 0. -1.
         25    1    1    2    0    0  0.92348222163E+01  0.62388984347E+02 -0.21013527144E+03  0.25250643479E+03  0.12500000000E+03 0.  0.
         25    1    1    2    0    0 -0.35860806397E+02  0.63365203760E+01 -0.41976469909E+02  0.13679609992E+03  0.12500000000E+03 0.  0.
         25    1    1    2    0    0  0.26625984181E+02 -0.68725504723E+02 -0.21805880600E+03  0.26192896157E+03  0.12500000000E+03 0.  0.
</event>
<event>
 5    0  0.5612316E-005  0.3148542E+03  0.7546771E-02  0.1078042E+00
         21   -1    0    0  502  501  0.00000000000E+00  0.00000000000E+00  0.84764836974E+02  0.84764836974E+02  0.00000000000E+00 0. -1.
         21   -1    0    0  501  502 -0.00000000000E+00 -0.00000000000E+00 -0.11695080685E+04  0.11695080685E+04  0.00000000000E+00 0. -1.
         25    1    1    2    0    0 -0.88461785380E+02  0.13054095564E+01 -0.47125605300E+03  0.49551433789E+03  0.12500000000E+03 0.  0.
         25    1    1    2    0    0  0.39672470431E+02 -0.34112053325E+02 -0.58682562709E+01  0.13563544346E+03  0.12500000000E+03 0.  0.
         25    1    1    2    0    0  0.48789314949E+02  0.32806643769E+02 -0.60761892225E+03  0.62312312411E+03  0.12500000000E+03 0.  0.
</event>
<event>
 5    0  0.5612316E-005  0.6717930E+03  0.7546771E-02  0.9766724E-01
         21   -1    0    0  502  501  0.00000000000E+00  0.00000000000E+00  0.25501497880E+03  0.25501497880E+03  0.00000000000E+00 0. -1.
         21   -1    0    0  501  502 -0.00000000000E+00 -0.00000000000E+00 -0.17697228872E+04  0.17697228872E+04  0.00000000000E+00 0. -1.
         25    1    1    2    0    0  0.19994943640E+02  0.16266353414E+03 -0.25788454379E+03  0.33013430757E+03  0.12500000000E+03 0.  0.
         25    1    1    2    0    0 -0.65275460808E+02  0.36671026311E+03 -0.10320766056E+04  0.11043298523E+04  0.12500000000E+03 0.  0.
         25    1    1    2    0    0  0.45280517167E+02 -0.52937379725E+03 -0.22474675899E+03  0.59027370611E+03  0.12500000000E+03 0.  0.
</event>
<event>
 5    0  0.5612316E-005  0.3840084E+03  0.7546771E-02  0.1049462E+00
         21   -1    0    0  502  501  0.00000000000E+00  0.00000000000E+00  0.43714043548E+02  0.43714043548E+02  0.00000000000E+00 0. -1.
         21   -1    0    0  501  502 -0.00000000000E+00 -0.00000000000E+00 -0.33733419401E+04  0.33733419401E+04  0.00000000000E+00 0. -1.
         25    1    1    2    0    0  0.49492270368E+02 -0.11209642840E+03 -0.18722079150E+03  0.25630395794E+03  0.12500000000E+03 0.  0.
         25    1    1    2    0    0 -0.60653229597E+02 -0.14718958046E+02 -0.19584645498E+04  0.19634418389E+04  0.12500000000E+03 0.  0.
         25    1    1    2    0    0  0.11160959229E+02  0.12681538645E+03 -0.11839425553E+04  0.11973101868E+04  0.12500000000E+03 0.  0.
</event>
<event>
 5    0  0.5612316E-005  0.3342749E+03  0.7546771E-02  0.1069261E+00
         21   -1    0    0  502  501  0.00000000000E+00  0.00000000000E+00  0.66710408042E+03  0.66710408042E+03  0.00000000000E+00 0.  1.
         21   -1    0    0  501  502 -0.00000000000E+00 -0.00000000000E+00 -0.16749967495E+03  0.16749967495E+03  0.00000000000E+00 0. -1.
         25    1    1    2    0    0 -0.14975977341E+02 -0.22871687627E+02  0.44599821417E+03  0.46399008722E+03  0.12500000000E+03 0.  0.
         25    1    1    2    0    0  0.88054503371E+02  0.11607938908E+03  0.49995956388E+02  0.19837493740E+03  0.12500000000E+03 0.  0.
         25    1    1    2    0    0 -0.73078526030E+02 -0.93207701449E+02  0.36102349191E+01  0.17223873076E+03  0.12500000000E+03 0.  0.
</event>
<event>
 5    0  0.5612316E-005  0.2664722E+03  0.7546771E-02  0.1103316E+00
         21   -1    0    0  502  501  0.00000000000E+00  0.00000000000E+00  0.40908675641E+02  0.40908675641E+02  0.00000000000E+00 0. -1.
         21   -1    0    0  501  502 -0.00000000000E+00 -0.00000000000E+00 -0.17357543608E+04  0.17357543608E+04  0.00000000000E+00 0. -1.
         25    1    1    2    0    0  0.52749061097E+02 -0.11752279108E+02 -0.12377472722E+04  0.12452164026E+04  0.12500000000E+03 0.  0.
         25    1    1    2    0    0  0.12171828309E+02  0.11569492504E+02 -0.26243382725E+03  0.29116751235E+03  0.12500000000E+03 0.  0.
         25    1    1    2    0    0 -0.64920889407E+02  0.18278660436E+00 -0.19466458576E+03  0.24027912152E+03  0.12500000000E+03 0.  0.
</event>
<event>
 5    0  0.5612316E-005  0.3356128E+03  0.7546771E-02  0.1068680E+00
         21   -1    0    0  502  501  0.00000000000E+00  0.00000000000E+00  0.66398946100E+02  0.66398946100E+02  0.00000000000E+00 0. -1.
         21   -1    0    0  501  502 -0.00000000000E+00 -0.00000000000E+00 -0.16963518724E+04  0.16963518724E+04  0.00000000000E+00 0. -1.
         25    1    1    2    0    0 -0.12666999921E+03  0.13207273098E+03 -0.89728149496E+03  0.92424432710E+03  0.12500000000E+03 0.  0.
         25    1    1    2    0    0  0.16983016592E+03 -0.23147684221E+02 -0.25891919523E+03  0.33472712797E+03  0.12500000000E+03 0.  0.
         25    1    1    2    0    0 -0.43160166708E+02 -0.10892504676E+03 -0.47375223609E+03  0.50377936342E+03  0.12500000000E+03 0.  0.
</event>
<event>
 5    0  0.5612316E-005  0.2308499E+03  0.7546771E-02  0.1126043E+00
         21   -1    0    0  502  501  0.00000000000E+00  0.00000000000E+00  0.89572620014E+03  0.89572620014E+03  0.00000000000E+00 0. -1.
         21   -1    0    0  501  502 -0.00000000000E+00 -0.00000000000E+00 -0.59495519924E+02  0.59495519924E+02  0.00000000000E+00 0. -1.
         25    1    1    2    0    0  0.34911236222E+02 -0.79830936115E+02  0.43616110788E+03  0.46201004838E+03  0.12500000000E+03 0.  0.
         25    1    1    2    0    0 -0.21338177968E+02  0.30936693401E+02  0.29375288486E+03  0.32144696950E+03  0.12500000000E+03 0.  0.
         25    1    1    2    0    0 -0.13573058254E+02  0.48894242714E+02  0.10631668748E+03  0.17176470218E+03  0.12500000000E+03 0.  0.
</event>
<event>
 5    0  0.5612316E-005  0.3357172E+03  0.7546771E-02  0.1068635E+00
         21   -1    0    0  502  501  0.00000000000E+00  0.00000000000E+00  0.16871163831E+04  0.16871163831E+04  0.00000000000E+00 0. -1.
         21   -1    0    0  501  502 -0.00000000000E+00 -0.00000000000E+00 -0.66803960553E+02  0.66803960553E+02  0.00000000000E+00 0. -1.
         25    1    1    2    0    0 -0.75195707294E+02  0.19899686444E+03  0.34764101733E+03  0.42630203305E+03  0.12500000000E+03 0.  0.
         25    1    1    2    0    0  0.40695060505E+02 -0.87012047732E+02  0.28959800830E+03  0.32972593288E+03  0.12500000000E+03 0.  0.
         25    1    1    2    0    0  0.34500646789E+02 -0.11198481670E+03  0.98307339693E+03  0.99789237774E+03  0.12500000000E+03 0.  0.
</event>
<event>
 5    0  0.5612316E-005  0.3297670E+03  0.7546771E-02  0.1071240E+00
         21   -1    0    0  502  501  0.00000000000E+00  0.00000000000E+00  0.62566072788E+03  0.62566072788E+03  0.00000000000E+00 0.  1.
         21   -1    0    0  501  502 -0.00000000000E+00 -0.00000000000E+00 -0.17381032817E+03  0.17381032817E+03  0.00000000000E+00 0.  1.
         25    1    1    2    0    0 -0.56929473106E+01  0.78685130122E+01 -0.88115928343E+02  0.15324405363E+03  0.12500000000E+03 0.  0.
         25    1    1    2    0    0  0.12345556180E+03  0.26049467839E+02  0.30916731596E+03  0.35655193139E+03  0.12500000000E+03 0.  0.
         25    1    1    2    0    0 -0.11776261449E+03 -0.33917980852E+02  0.23079901208E+03  0.28967507103E+03  0.12500000000E+03 0.  0.
</event>
<event>
 5    0  0.5612316E-005  0.3531509E+03  0.7546771E-02  0.1061329E+00
         21   -1    0    0  502  501  0.00000000000E+00  0.00000000000E+00  0.50609935845E+03  0.50609935845E+03  0.00000000000E+00 0. -1.
         21   -1    0    0  501  502 -0.00000000000E+00 -0.00000000000E+00 -0.24642505220E+03  0.24642505220E+03  0.00000000000E+00 0. -1.
         25    1    1    2    0    0  0.25602735489E+03  0.59160325022E+02  0.19943028392E+03  0.35277101447E+03  0.12500000000E+03 0.  0.
         25    1    1    2    0    0 -0.15165032809E+03 -0.10654146436E+03  0.54297403363E+02  0.23004806813E+03  0.12500000000E+03 0.  0.
         25    1    1    2    0    0 -0.10437702681E+03  0.47381139342E+02  0.59466189738E+01  0.16970532805E+03  0.12500000000E+03 0.  0.
</event>
<event>
 5    0  0.5612316E-005  0.3052435E+03  0.7546771E-02  0.1082648E+00
         21   -1    0    0  502  501  0.00000000000E+00  0.00000000000E+00  0.65147585621E+02  0.65147585621E+02  0.00000000000E+00 0. -1.
         21   -1    0    0  501  502 -0.00000000000E+00 -0.00000000000E+00 -0.14301924295E+04  0.14301924295E+04  0.00000000000E+00 0. -1.
         25    1    1    2    0    0 -0.43072323253E+02 -0.34165087342E+02 -0.76048647175E+03  0.77264943664E+03  0.12500000000E+03 0.  0.
         25    1    1    2    0    0  0.11456575147E+03  0.66829748071E+02 -0.12522316845E+03  0.22112749389E+03  0.12500000000E+03 0.  0.
         25    1    1    2    0    0 -0.71493428219E+02 -0.32664660728E+02 -0.47933520370E+03  0.50156308461E+03  0.12500000000E+03 0.  0.
</event>
<event>
 5    0  0.5612316E-005  0.2956444E+03  0.7546771E-02  0.1087438E+00
         21   -1    0    0  502  501  0.00000000000E+00  0.00000000000E+00  0.13430506144E+03  0.13430506144E+03  0.00000000000E+00 0. -1.
         21   -1    0    0  501  502 -0.00000000000E+00 -0.00000000000E+00 -0.65079898267E+03  0.65079898267E+03  0.00000000000E+00 0. -1.
         25    1    1    2    0    0 -0.66985922809E+02 -0.12017530872E+03 -0.18451661985E+03  0.26191716569E+03  0.12500000000E+03 0.  0.
         25    1    1    2    0    0 -0.24314425747E+02  0.65769091481E+02 -0.32924587345E+03  0.35908858221E+03  0.12500000000E+03 0.  0.
         25    1    1    2    0    0  0.91300348556E+02  0.54406217235E+02 -0.27314279373E+01  0.16409829621E+03  0.12500000000E+03 0.  0.
</event>
<event>
 5    0  0.5612316E-005  0.3570842E+03  0.7546771E-02  0.1059744E+00
         21   -1    0    0  502  501  0.00000000000E+00  0.00000000000E+00  0.28500245661E+03  0.28500245661E+03  0.00000000000E+00 0.  1.
         21   -1    0    0  501  502 -0.00000000000E+00 -0.00000000000E+00 -0.44739658170E+03  0.44739658170E+03  0.00000000000E+00 0.  1.
         25    1    1    2    0    0  0.12498021994E+03  0.32140880303E+02  0.18001420163E+03  0.25432892944E+03  0.12500000000E+03 0.  0.
         25    1    1    2    0    0 -0.21385988396E+02 -0.90715869463E+02 -0.12114000971E+03  0.19745032647E+03  0.12500000000E+03 0.  0.
         25    1    1    2    0    0 -0.10359423154E+03  0.58574989160E+02 -0.22126831701E+03  0.28061978240E+03  0.12500000000E+03 0.  0.
</event>
<event>
 5    0  0.5612316E-005  0.2784032E+03  0.7546771E-02  0.1096564E+00
         21   -1    0    0  502  501  0.00000000000E+00  0.00000000000E+00  0.69229927540E+02  0.69229927540E+02  0.00000000000E+00 0.  1.
         21   -1    0    0  501  502 -0.00000000000E+00 -0.00000000000E+00 -0.11195786164E+04  0.11195786164E+04  0.00000000000E+00 0.  1.
         25    1    1    2    0    0  0.16716543876E+02 -0.22472522212E+01 -0.16668743271E+03  0.20903156031E+03  0.12500000000E+03 0.  0.
         25    1    1    2    0    0  0.97000412773E+02 -0.20617714814E+01 -0.74360033447E+03  0.76024981973E+03  0.12500000000E+03 0.  0.
         25    1    1    2    0    0 -0.11371695665E+03  0.43090237026E+01 -0.14006092172E+03  0.21952716394E+03  0.12500000000E+03 0.  0.
</event>
<event>
 5    0  0.5612316E-005  0.2719554E+03  0.7546771E-02  0.1100166E+00
         21   -1    0    0  502  501  0.00000000000E+00  0.00000000000E+00  0.17714708897E+04  0.17714708897E+04  0.00000000000E+00 0. -1.
         21   -1    0    0  501  502 -0.00000000000E+00 -0.00000000000E+00 -0.41750457347E+02  0.41750457347E+02  0.00000000000E+00 0. -1.
         25    1    1    2    0    0 -0.56989837092E+02 -0.76638689121E+02  0.28960887072E+03  0.32957492047E+03  0.12500000000E+03 0.  0.
         25    1    1    2    0    0  0.66303106016E+02 -0.54339104787E+02  0.93014629601E+03  0.94241496813E+03  0.12500000000E+03 0.  0.
         25    1    1    2    0    0 -0.93132689239E+01  0.13097779391E+03  0.50996526567E+03  0.54123145850E+03  0.12500000000E+03 0.  0.
</event>
<event>
 5    0  0.5612316E-005  0.2320470E+03  0.7546771E-02  0.1125207E+00
         21   -1    0    0  502  501  0.00000000000E+00  0.00000000000E+00  0.21658834468E+03  0.21658834468E+03  0.00000000000E+00 0.  1.
         21   -1    0    0  501  502 -0.00000000000E+00 -0.00000000000E+00 -0.24860890855E+03  0.24860890855E+03  0.00000000000E+00 0.  1.
         25    1    1    2    0    0 -0.79515130447E+02 -0.21503719100E+02  0.19836898685E+02  0.15100850458E+03  0.12500000000E+03 0.  0.
         25    1    1    2    0    0  0.56810609334E+02 -0.58205151595E+02  0.15191930878E+02  0.14990356823E+03  0.12500000000E+03 0.  0.
         25    1    1    2    0    0  0.22704521112E+02  0.79708870695E+02 -0.67049393426E+02  0.16428518042E+03  0.12500000000E+03 0.  0.
</event>
<event>
 5    0  0.5612316E-005  0.2447020E+03  0.7546771E-02  0.1116700E+00
         21   -1    0    0  502  501  0.00000000000E+00  0.00000000000E+00  0.40852605469E+03  0.40852605469E+03  0.00000000000E+00 0. -1.
         21   -1    0    0  501  502 -0.00000000000E+00 -0.00000000000E+00 -0.14657347662E+03  0.14657347662E+03  0.00000000000E+00 0. -1.
         25    1    1    2    0    0 -0.10455509528E+02  0.65373226417E+02  0.59190626550E+02  0.15333462324E+03  0.12500000000E+03 0.  0.
         25    1    1    2    0    0 -0.12390545841E+02  0.79729993923E+02  0.54347000346E+02  0.15839505675E+03  0.12500000000E+03 0.  0.
         25    1    1    2    0    0  0.22846055369E+02 -0.14510322034E+03  0.14841495118E+03  0.24336985132E+03  0.12500000000E+03 0.  0.
</event>
<event>
 5    0  0.6029901E-005  0.3292064E+03  0.7546771E-02  0.1071489E+00
         21   -1    0    0  502  501  0.00000000000E+00  0.00000000000E+00  0.34244358772E+03  0.34244358772E+03  0.00000000000E+00 0. -1.
         21   -1    0    0  501  502 -0.00000000000E+00 -0.00000000000E+00 -0.31648086061E+03  0.31648086061E+03  0.00000000000E+00 0. -1.
         25    1    1    2    0    0 -0.12457901997E+03  0.13365346838E+03  0.19908999671E+02  0.22227134339E+03  0.12500000000E+03 0.  0.
         25    1    1    2    0    0  0.11670462794E+03 -0.15438022961E+03  0.12549241336E+03  0.26234818712E+03  0.12500000000E+03 0.  0.
         25    1    1    2    0    0  0.78743920312E+01  0.20726761229E+02 -0.11943868592E+03  0.17430491782E+03  0.12500000000E+03 0.  0.
</event>
<event>
 5    0  0.5612316E-005  0.3829062E+03  0.7546771E-02  0.1049865E+00
         21   -1    0    0  502  501  0.00000000000E+00  0.00000000000E+00  0.17192821533E+04  0.17192821533E+04  0.00000000000E+00 0. -1.
         21   -1    0    0  501  502 -0.00000000000E+00 -0.00000000000E+00 -0.85278117207E+02  0.85278117207E+02  0.00000000000E+00 0. -1.
         25    1    1    2    0    0  0.43329654959E+02  0.19606344812E+03  0.42942776820E+03  0.49025660912E+03  0.12500000000E+03 0.  0.
         25    1    1    2    0    0  0.68720968532E+02 -0.23494436903E+03  0.10411395802E+04  0.10768092001E+04  0.12500000000E+03 0.  0.
         25    1    1    2    0    0 -0.11205062349E+03  0.38880920913E+02  0.16343668769E+03  0.23749446124E+03  0.12500000000E+03 0.  0.
</event>
<event>
 5    0  0.5612316E-005  0.4673624E+03  0.7546771E-02  0.1022667E+00
         21   -1    0    0  502  501  0.00000000000E+00  0.00000000000E+00  0.23628218846E+03  0.23628218846E+03  0.00000000000E+00 0.  1.
         21   -1    0    0  501  502 -0.00000000000E+00 -0.00000000000E+00 -0.92443536598E+03  0.92443536598E+03  0.00000000000E+00 0.  1.
         25    1    1    2    0    0 -0.11156541035E+03 -0.27233926644E+03 -0.52341084551E+03  0.61335098437E+03  0.12500000000E+03 0.  0.
         25    1    1    2    0    0  0.13007570939E+03  0.26069887957E+03  0.26189763073E+02  0.31811082922E+03  0.12500000000E+03 0.  0.
         25    1    1    2    0    0 -0.18510299037E+02  0.11640386875E+02 -0.19093209508E+03  0.22925574085E+03  0.12500000000E+03 0.  0.
</event>
<event>
 5    0  0.5612316E-005  0.2508661E+03  0.7546771E-02  0.1112759E+00
         21   -1    0    0  502  501  0.00000000000E+00  0.00000000000E+00  0.10272367074E+03  0.10272367074E+03  0.00000000000E+00 0. -1.
         21   -1    0    0  501  502 -0.00000000000E+00 -0.00000000000E+00 -0.61265140528E+03  0.61265140528E+03  0.00000000000E+00 0. -1.
         25    1    1    2    0    0 -0.19423677547E+01 -0.14799092903E+03 -0.28874510034E+03  0.34771226731E+03  0.12500000000E+03 0.  0.
         25    1    1    2    0    0  0.22063045233E+02  0.78923297034E+02 -0.11262097755E+03  0.18714740010E+03  0.12500000000E+03 0.  0.
         25    1    1    2    0    0 -0.20120677478E+02  0.69067631997E+02 -0.10856165666E+03  0.18051540862E+03  0.12500000000E+03 0.  0.
</event>
<event>
 5    0  0.5612316E-005  0.3928259E+03  0.7546771E-02  0.1046293E+00
         21   -1    0    0  502  501  0.00000000000E+00  0.00000000000E+00  0.86506682936E+02  0.86506682936E+02  0.00000000000E+00 0. -1.
         21   -1    0    0  501  502 -0.00000000000E+00 -0.00000000000E+00 -0.17838180684E+04  0.17838180684E+04  0.00000000000E+00 0. -1.
         25    1    1    2    0    0  0.14989883284E+02 -0.87221208719E+02 -0.11460015241E+04  0.11561906111E+04  0.12500000000E+03 0.  0.
         25    1    1    2    0    0 -0.88249382192E+02  0.14979052898E+03 -0.10057808229E+03  0.23657156774E+03  0.12500000000E+03 0.  0.
         25    1    1    2    0    0  0.73259498908E+02 -0.62569320257E+02 -0.45073177905E+03  0.47756257251E+03  0.12500000000E+03 0.  0.
</event>
<event>
 5    0  0.5612316E-005  0.4410714E+03  0.7546771E-02  0.1030419E+00
         21   -1    0    0  502  501  0.00000000000E+00  0.00000000000E+00  0.84955864332E+02  0.84955864332E+02  0.00000000000E+00 0.  1.
         21   -1    0    0  501  502 -0.00000000000E+00 -0.00000000000E+00 -0.22899420495E+04  0.22899420495E+04  0.00000000000E+00 0.  1.
         25    1    1    2    0    0  0.18574879829E+03 -0.11582959468E+03 -0.58092936459E+03  0.63326379789E+03  0.12500000000E+03 0.  0.
         25    1    1    2    0    0 -0.56801193167E+02  0.23254806727E+03 -0.31388300354E+03  0.41406825410E+03  0.12500000000E+03 0.  0.
         25    1    1    2    0    0 -0.12894760512E+03 -0.11671847259E+03 -0.13101738171E+04  0.13275658619E+04  0.12500000000E+03 0.  0.
</event>
<event>
 5    0  0.5612316E-005  0.3020494E+03  0.7546771E-02  0.1084221E+00
         21   -1    0    0  502  501  0.00000000000E+00  0.00000000000E+00  0.64497708321E+03  0.64497708321E+03  0.00000000000E+00 0.  1.
         21   -1    0    0  501  502 -0.00000000000E+00 -0.00000000000E+00 -0.14145286946E+03  0.14145286946E+03  0.00000000000E+00 0.  1.
         25    1    1    2    0    0  0.11374451079E+03  0.62636646826E+02  0.44409922381E+03  0.47928100719E+03  0.12500000000E+03 0.  0.
         25    1    1    2    0    0 -0.94163347146E+02 -0.62744141844E+02  0.30550511336E+01  0.16863539551E+03  0.12500000000E+03 0.  0.
         25    1    1    2    0    0 -0.19581163646E+02  0.10749501800E+00  0.56369938806E+02  0.13851354997E+03  0.12500000000E+03 0.  0.
</event>
<event>
 5    0  0.5612316E-005  0.2591712E+03  0.7546771E-02  0.1107642E+00
         21   -1    0    0  502  501  0.00000000000E+00  0.00000000000E+00  0.24168152465E+03  0.24168152465E+03  0.00000000000E+00 0.  1.
         21   -1    0    0  501  502 -0.00000000000E+00 -0.00000000000E+00 -0.27792663347E+03  0.27792663347E+03  0.00000000000E+00 0.  1.
         25    1    1    2    0    0 -0.21868536688E+01  0.10076135386E+03  0.56820992046E+02  0.17032691478E+03  0.12500000000E+03 0.  0.
         25    1    1    2    0    0 -0.46511193368E+02  0.36057269424E+02 -0.46158502859E+01  0.13823792483E+03  0.12500000000E+03 0.  0.
         25    1    1    2    0    0  0.48698047037E+02 -0.13681862328E+03 -0.88450250585E+02  0.21104331852E+03  0.12500000000E+03 0.  0.
</event>
<event>
 5    0  0.5612316E-005  0.4016517E+03  0.7546771E-02  0.1043209E+00
         21   -1    0    0  502  501  0.00000000000E+00  0.00000000000E+00  0.61311381249E+03  0.61311381249E+03  0.00000000000E+00 0. -1.
         21   -1    0    0  501  502 -0.00000000000E+00 -0.00000000000E+00 -0.26312255922E+03  0.26312255922E+03  0.00000000000E+00 0. -1.
         25    1    1    2    0    0  0.54310863726E+02 -0.14836865127E+03  0.23970020968E+03  0.31311997240E+03  0.12500000000E+03 0.  0.
         25    1    1    2    0    0 -0.25831870697E+03  0.78110781322E+02  0.99158931884E+02  0.31350812159E+03  0.12500000000E+03 0.  0.
         25    1    1    2    0    0  0.20400784324E+03  0.70257869953E+02  0.11132111715E+02  0.24960827772E+03  0.12500000000E+03 0.  0.
</event>
<event>
 5    0  0.5943740E-005  0.2683049E+03  0.7546771E-02  0.1102254E+00
         21   -1    0    0  502  501  0.00000000000E+00  0.00000000000E+00  0.68413991089E+03  0.68413991089E+03  0.00000000000E+00 0. -1.
         21   -1    0    0  501  502 -0.00000000000E+00 -0.00000000000E+00 -0.10522336202E+03  0.10522336202E+03  0.00000000000E+00 0. -1.
         25    1    1    2    0    0 -0.58103495229E+02 -0.29923304930E+02  0.15709402924E+03  0.21112781521E+03  0.12500000000E+03 0.  0.
         25    1    1    2    0    0  0.16989451800E+03  0.67172802537E+02  0.20593253451E+03  0.30234010884E+03  0.12500000000E+03 0.  0.
         25    1    1    2    0    0 -0.11179102277E+03 -0.37249497608E+02  0.21588998512E+03  0.27589534885E+03  0.12500000000E+03 0.  0.
</event>
<event>
 5    0  0.5612316E-005  0.2165465E+03  0.7546771E-02  0.1136484E+00
         21   -1    0    0  502  501  0.00000000000E+00  0.00000000000E+00  0.32016380220E+02  0.32016380220E+02  0.00000000000E+00 0. -1.
         21   -1    0    0  501  502 -0.00000000000E+00 -0.00000000000E+00 -0.14646373688E+04  0.14646373688E+04  0.00000000000E+00 0. -1.
         25    1    1    2    0    0  0.43862066326E+02 -0.51605567520E+02 -0.56797561229E+03  0.58549834467E+03  0.12500000000E+03 0.  0.
         25    1    1    2    0    0 -0.19176969400E+02  0.43463676086E+02 -0.25131321349E+03  0.28467556721E+03  0.12500000000E+03 0.  0.
         25    1    1    2    0    0 -0.24685096926E+02  0.81418914341E+01 -0.61333216280E+03  0.62647983714E+03  0.12500000000E+03 0.  0.
</event>
<event>
 5    0  0.5612316E-005  0.2361252E+03  0.7546771E-02  0.1122401E+00
         21   -1    0    0  502  501  0.00000000000E+00  0.00000000000E+00  0.28265413069E+03  0.28265413069E+03  0.00000000000E+00 0.  1.
         21   -1    0    0  501  502 -0.00000000000E+00 -0.00000000000E+00 -0.19725552857E+03  0.19725552857E+03  0.00000000000E+00 0.  1.
         25    1    1    2    0    0  0.30159305649E+01  0.10279031242E+03  0.22922312779E+02  0.16347897904E+03  0.12500000000E+03 0.  0.
         25    1    1    2    0    0  0.72925804595E+01 -0.12952352371E+03  0.53254587832E+02  0.18785786130E+03  0.12500000000E+03 0.  0.
         25    1    1    2    0    0 -0.10308511024E+02  0.26733211295E+02  0.92217015097E+01  0.12857281892E+03  0.12500000000E+03 0.  0.
</event>
<event>
 5    0  0.5612316E-005  0.3133725E+03  0.7546771E-02  0.1078741E+00
         21   -1    0    0  502  501  0.00000000000E+00  0.00000000000E+00  0.50450662976E+03  0.50450662976E+03  0.00000000000E+00 0.  1.
         21   -1    0    0  501  502 -0.00000000000E+00 -0.00000000000E+00 -0.19465019424E+03  0.19465019424E+03  0.00000000000E+00 0.  1.
         25    1    1    2    0    0 -0.21175361596E+03  0.26926105672E+02  0.97455532803E+02  0.26587062627E+03  0.12500000000E+03 0.  0.
         25    1    1    2    0    0  0.16601919673E+03  0.13651772444E+02  0.20758705430E+03  0.29405123650E+03  0.12500000000E+03 0.  0.
         25    1    1    2    0    0  0.45734419228E+02 -0.40577878115E+02  0.48138484210E+01  0.13923496124E+03  0.12500000000E+03 0.  0.
</event>
<event>
 5    0  0.5612316E-005  0.5068999E+03  0.7546771E-02  0.1011993E+00
         21   -1    0    0  502  501  0.00000000000E+00  0.00000000000E+00  0.39994889393E+03  0.39994889393E+03  0.00000000000E+00 0.  1.
         21   -1    0    0  501  502 -0.00000000000E+00 -0.00000000000E+00 -0.64245089734E+03  0.64245089734E+03  0.00000000000E+00 0.  1.
         25    1    1    2    0    0 -0.64174916935E+02 -0.12587654672E+03  0.18042690928E+03  0.26104059946E+03  0.12500000000E+03 0.  0.
         25    1    1    2    0    0  0.71745174209E+02 -0.22807539368E+03 -0.10545668688E+03  0.28967545294E+03  0.12500000000E+03 0.  0.
         25    1    1    2    0    0 -0.75702572746E+01  0.35395194040E+03 -0.31747222581E+03  0.49168373887E+03  0.12500000000E+03 0.  0.
</event>
<event>
 5    0  0.5612316E-005  0.4980333E+03  0.7546771E-02  0.1014294E+00
         21   -1    0    0  502  501  0.00000000000E+00  0.00000000000E+00  0.71458931183E+03  0.71458931183E+03  0.00000000000E+00 0. -1.
         21   -1    0    0  501  502 -0.00000000000E+00 -0.00000000000E+00 -0.34710449192E+03  0.34710449192E+03  0.00000000000E+00 0. -1.
         25    1    1    2    0    0 -0.19058951810E+03 -0.82140082855E+02  0.42179101028E+03  0.48641958634E+03  0.12500000000E+03 0.  0.
         25    1    1    2    0    0  0.27664096642E+03  0.77820711314E+02 -0.19432539326E+03  0.36874604523E+03  0.12500000000E+03 0.  0.
         25    1    1    2    0    0 -0.86051448313E+02  0.43193715410E+01  0.14001920288E+03  0.20652817218E+03  0.12500000000E+03 0.  0.
</event>
<event>
 5    0  0.5612316E-005  0.2925781E+03  0.7546771E-02  0.1089011E+00
         21   -1    0    0  502  501  0.00000000000E+00  0.00000000000E+00  0.77928882814E+03  0.77928882814E+03  0.00000000000E+00 0. -1.
         21   -1    0    0  501  502 -0.00000000000E+00 -0.00000000000E+00 -0.10984624010E+03  0.10984624010E+03  0.00000000000E+00 0. -1.
         25    1    1    2    0    0 -0.45751890326E+02  0.12192832023E+03  0.37334415679E+03  0.41469339294E+03  0.12500000000E+03 0.  0.
         25    1    1    2    0    0  0.26662217169E+02 -0.10421086130E+03  0.14865097896E+02  0.16558003676E+03  0.12500000000E+03 0.  0.
         25    1    1    2    0    0  0.19089673157E+02 -0.17717458930E+02  0.28123333336E+03  0.30886163854E+03  0.12500000000E+03 0.  0.
</event>
<event>
 5    0  0.5612316E-005  0.2544999E+03  0.7546771E-02  0.1110494E+00
         21   -1    0    0  502  501  0.00000000000E+00  0.00000000000E+00  0.32389065275E+03  0.32389065275E+03  0.00000000000E+00 0.  1.
         21   -1    0    0  501  502 -0.00000000000E+00 -0.00000000000E+00 -0.19997548253E+03  0.19997548253E+03  0.00000000000E+00 0.  1.
         25    1    1    2    0    0  0.13600485888E+01 -0.32919977660E+02  0.97349292517E+02  0.16182539793E+03  0.12500000000E+03 0.  0.
         25    1    1    2    0    0  0.11534870331E+03 -0.37689622893E+02 -0.53158525981E+01  0.17429598193E+03  0.12500000000E+03 0.  0.
         25    1    1    2    0    0 -0.11670875190E+03  0.70609600554E+02  0.31881730293E+02  0.18774475542E+03  0.12500000000E+03 0.  0.
</event>
<event>
 5    0  0.5612316E-005  0.2150432E+03  0.7546771E-02  0.1137633E+00
         21   -1    0    0  502  501  0.00000000000E+00  0.00000000000E+00  0.20525116549E+03  0.20525116549E+03  0.00000000000E+00 0.  1.
         21   -1    0    0  501  502 -0.00000000000E+00 -0.00000000000E+00 -0.22530240333E+03  0.22530240333E+03  0.00000000000E+00 0.  1.
         25    1    1    2    0    0 -0.70728548437E+02  0.35266240672E+00 -0.39799370428E+02  0.14903570653E+03  0.12500000000E+03 0.  0.
         25    1    1    2    0    0  0.10949995103E+02  0.44151964122E+02 -0.84208394015E+01  0.13328619158E+03  0.12500000000E+03 0.  0.
         25    1    1    2    0    0  0.59778553333E+02 -0.44504626528E+02  0.28168971986E+02  0.14823167072E+03  0.12500000000E+03 0.  0.
</event>
<event>
 5    0  0.7829187E-005  0.7554142E+03  0.7546771E-02  0.9626894E-01
         21   -1    0    0  502  501  0.00000000000E+00  0.00000000000E+00  0.11559608692E+04  0.11559608692E+04  0.00000000000E+00 0. -1.
         21   -1    0    0  501  502 -0.00000000000E+00 -0.00000000000E+00 -0.49365911069E+03  0.49365911069E+03  0.00000000000E+00 0. -1.
         25    1    1    2    0    0  0.37931173379E+03 -0.30882841071E+03  0.35817553813E+03  0.61900492305E+03  0.12500000000E+03 0.  0.
         25    1    1    2    0    0 -0.23422054731E+03 -0.25806427455E+03  0.27113066805E+02  0.37123651892E+03  0.12500000000E+03 0.  0.
         25    1    1    2    0    0 -0.14509118647E+03  0.56689268526E+03  0.27701315354E+03  0.65937853789E+03  0.12500000000E+03 0.  0.
</event>
<event>
 5    0  0.5612316E-005  0.2480713E+03  0.7546771E-02  0.1114530E+00
         21   -1    0    0  502  501  0.00000000000E+00  0.00000000000E+00  0.58313974019E+02  0.58313974019E+02  0.00000000000E+00 0.  1.
         21   -1    0    0  501  502 -0.00000000000E+00 -0.00000000000E+00 -0.10553106097E+04  0.10553106097E+04  0.00000000000E+00 0.  1.
         25    1    1    2    0    0  0.56900720839E+02  0.33236718658E+02 -0.92948599879E+02  0.16913548923E+03  0.12500000000E+03 0.  0.
         25    1    1    2    0    0 -0.38700216830E+02  0.14980134401E+02 -0.34401912956E+03  0.36836974999E+03  0.12500000000E+03 0.  0.
         25    1    1    2    0    0 -0.18200504009E+02 -0.48216853059E+02 -0.56002890625E+03  0.57611934450E+03  0.12500000000E+03 0.  0.
</event>
<event>
 5    0  0.5612316E-005  0.3455810E+03  0.7546771E-02  0.1064444E+00
         21   -1    0    0  502  501  0.00000000000E+00  0.00000000000E+00  0.12484411694E+04  0.12484411694E+04  0.00000000000E+00 0. -1.
         21   -1    0    0  501  502 -0.00000000000E+00 -0.00000000000E+00 -0.95660262691E+02  0.95660262691E+02  0.00000000000E+00 0. -1.
         25    1    1    2    0    0  0.85686403149E+01  0.11359497877E+03  0.93877260676E+03  0.95388481905E+03  0.12500000000E+03 0.  0.
         25    1    1    2    0    0  0.22264119603E+02  0.22360384770E+02  0.41003125796E+02  0.13528464123E+03  0.12500000000E+03 0.  0.
         25    1    1    2    0    0 -0.30832759918E+02 -0.13595536354E+03  0.17300517410E+03  0.25493197176E+03  0.12500000000E+03 0.  0.
</event>
<event>
 5    0  0.5612316E-005  0.2310409E+03  0.7546771E-02  0.1125909E+00
         21   -1    0    0  502  501  0.00000000000E+00  0.00000000000E+00  0.15100890842E+04  0.15100890842E+04  0.00000000000E+00 0. -1.
         21   -1    0    0  501  502 -0.00000000000E+00 -0.00000000000E+00 -0.35348835599E+02  0.35348835599E+02  0.00000000000E+00 0. -1.
         25    1    1    2    0    0 -0.80564126685E+02 -0.30915144070E+02  0.40015878346E+03  0.42801679479E+03  0.12500000000E+03 0.  0.
         25    1    1    2    0    0  0.72023392274E+02 -0.15827740306E+02  0.78697880590E+03  0.80024904082E+03  0.12500000000E+03 0.  0.
         25    1    1    2    0    0  0.85407344108E+01  0.46742884376E+02  0.28760265919E+03  0.31717208414E+03  0.12500000000E+03 0.  0.
</event>
<event>
 5    0  0.5612316E-005  0.2360246E+03  0.7546771E-02  0.1122470E+00
         21   -1    0    0  502  501  0.00000000000E+00  0.00000000000E+00  0.72956049303E+02  0.72956049303E+02  0.00000000000E+00 0.  1.
         21   -1    0    0  501  502 -0.00000000000E+00 -0.00000000000E+00 -0.76357746022E+03  0.76357746022E+03  0.00000000000E+00 0.  1.
         25    1    1    2    0    0  0.30247073313E+02  0.50302530385E+02 -0.31583839801E+03  0.34470875194E+03  0.12500000000E+03 0.  0.
         25    1    1    2    0    0  0.65461856532E+02 -0.70118477081E+02 -0.21585037168E+03  0.26724190997E+03  0.12500000000E+03 0.  0.
         25    1    1    2    0    0 -0.95708929845E+02  0.19815946696E+02 -0.15893264123E+03  0.22458284762E+03  0.12500000000E+03 0.  0.
</event>
<event>
 5    0  0.5612316E-005  0.2669259E+03  0.7546771E-02  0.1103052E+00
         21   -1    0    0  502  501  0.00000000000E+00  0.00000000000E+00  0.10510610361E+03  0.10510610361E+03  0.00000000000E+00 0.  1.
         21   -1    0    0  501  502 -0.00000000000E+00 -0.00000000000E+00 -0.67788101327E+03  0.67788101327E+03  0.00000000000E+00 0.  1.
         25    1    1    2    0    0 -0.69596748688E+02  0.93473522360E+02 -0.16520542293E+03  0.23769484340E+03  0.12500000000E+03 0.  0.
         25    1    1    2    0    0 -0.51352396698E+02 -0.12661405440E+03 -0.20645694487E+03  0.27734032794E+03  0.12500000000E+03 0.  0.
         25    1    1    2    0    0  0.12094914539E+03  0.33140532036E+02 -0.20111254185E+03  0.26795194555E+03  0.12500000000E+03 0.  0.
</event>
<event>
 5    0  0.5612316E-005  0.3273084E+03  0.7546771E-02  0.1072334E+00
         21   -1    0    0  502  501  0.00000000000E+00  0.00000000000E+00  0.46229078591E+03  0.46229078591E+03  0.00000000000E+00 0.  1.
         21   -1    0    0  501  502 -0.00000000000E+00 -0.00000000000E+00 -0.23173898362E+03  0.23173898362E+03  0.00000000000E+00 0.  1.
         25    1    1    2    0    0  0.11679149322E+03  0.11205300558E+03  0.21916363055E+03  0.29975627751E+03  0.12500000000E+03 0.  0.
         25    1    1    2    0    0 -0.16198250076E+03 -0.37163241873E+02 -0.72424375077E+02  0.22020383104E+03  0.12500000000E+03 0.  0.
         25    1    1    2    0    0  0.45191007540E+02 -0.74889763711E+02  0.83812546815E+02  0.17406966098E+03  0.12500000000E+03 0.  0.
</event>
<event>
 5    0  0.5612316E-005  0.4683023E+03  0.7546771E-02  0.1022400E+00
         21   -1    0    0  502  501  0.00000000000E+00  0.00000000000E+00  0.26236299375E+04  0.26236299375E+04  0.00000000000E+00 0.  1.
         21   -1    0    0  501  502 -0.00000000000E+00 -0.00000000000E+00 -0.83589176588E+02  0.83589176588E+02  0.00000000000E+00 0.  1.
         25    1    1    2    0    0 -0.21019150088E+02  0.42693880716E+02  0.48485192457E+02  0.14226871057E+03  0.12500000000E+03 0.  0.
         25    1    1    2    0    0 -0.84845031866E+02  0.16335311731E+03  0.19516861687E+04  0.19643285930E+04  0.12500000000E+03 0.  0.
         25    1    1    2    0    0  0.10586418195E+03 -0.20604699803E+03  0.53986939978E+03  0.60062181049E+03  0.12500000000E+03 0.  0.
</event>
<event>
 5    0  0.5612316E-005  0.2625792E+03  0.7546771E-02  0.1105603E+00
         21   -1    0    0  502  501  0.00000000000E+00  0.00000000000E+00  0.28683687606E+03  0.28683687606E+03  0.00000000000E+00 0. -1.
         21   -1    0    0  501  502 -0.00000000000E+00 -0.00000000000E+00 -0.24037301431E+03  0.24037301431E+03  0.00000000000E+00 0. -1.
         25    1    1    2    0    0  0.69451776880E+02  0.78402109987E+02  0.15774532852E+02  0.16384222914E+03  0.12500000000E+03 0.  0.
         25    1    1    2    0    0 -0.37021410554E+02  0.56260233660E+02  0.89379688558E+02  0.16777820913E+03  0.12500000000E+03 0.  0.
         25    1    1    2    0    0 -0.32430366326E+02 -0.13466234365E+03 -0.58690359666E+02  0.19558945210E+03  0.12500000000E+03 0.  0.
</event>
<event>
 5    0  0.5612316E-005  0.2289555E+03  0.7546771E-02  0.1127377E+00
         21   -1    0    0  502  501  0.00000000000E+00  0.00000000000E+00  0.46006250872E+03  0.46006250872E+03  0.00000000000E+00 0. -1.
         21   -1    0    0  501  502 -0.00000000000E+00 -0.00000000000E+00 -0.11394242569E+03  0.11394242569E+03  0.00000000000E+00 0. -1.
         25    1    1    2    0    0  0.34465387089E+02  0.30132426602E+01  0.82609311475E+02  0.15377334256E+03  0.12500000000E+03 0.  0.
         25    1    1    2    0    0 -0.11580878600E+03 -0.22306145074E+02  0.17717712448E+03  0.24683187084E+03  0.12500000000E+03 0.  0.
         25    1    1    2    0    0  0.81343398912E+02  0.19292902414E+02  0.86333647081E+02  0.17339972102E+03  0.12500000000E+03 0.  0.
</event>
<event>
 5    0  0.5612316E-005  0.3475853E+03  0.7546771E-02  0.1063611E+00
         21   -1    0    0  502  501  0.00000000000E+00  0.00000000000E+00  0.11588758973E+04  0.11588758973E+04  0.00000000000E+00 0.  1.
         21   -1    0    0  501  502 -0.00000000000E+00 -0.00000000000E+00 -0.10425235185E+03  0.10425235185E+03  0.00000000000E+00 0.  1.
         25    1    1    2    0    0  0.17426666783E+02 -0.19899802506E+03  0.51654229182E+03  0.56775420908E+03  0.12500000000E+03 0.  0.
         25    1    1    2    0    0 -0.13062853542E+03  0.57432604330E+02  0.37870826278E+03  0.42356494969E+03  0.12500000000E+03 0.  0.
         25    1    1    2    0    0  0.11320186864E+03  0.14156542073E+03  0.15937299089E+03  0.27180909042E+03  0.12500000000E+03 0.  0.
</event>
<event>
 5    0  0.5612316E-005  0.5572289E+03  0.7546771E-02  0.9998344E-01
         21   -1    0    0  502  501  0.00000000000E+00  0.00000000000E+00  0.33933401991E+03  0.33933401991E+03  0.00000000000E+00 0.  1.
         21   -1    0    0  501  502 -0.00000000000E+00 -0.00000000000E+00 -0.91503965975E+03  0.91503965975E+03  0.00000000000E+00 0. -1.
         25    1    1    2    0    0  0.46590256996E+03  0.88512028112E+02 -0.27700472740E+03  0.56325500692E+03  0.12500000000E+03 0.  0.
         25    1    1    2    0    0 -0.55992996740E+02  0.95547015773E+01  0.32022988252E+02  0.14098574319E+03  0.12500000000E+03 0.  0.
         25    1    1    2    0    0 -0.40990957322E+03 -0.98066729689E+02 -0.33072390069E+03  0.55013292956E+03  0.12500000000E+03 0.  0.
</event>
<event>
 5    0  0.5612316E-005  0.2196912E+03  0.7546771E-02  0.1134113E+00
         21   -1    0    0  502  501  0.00000000000E+00  0.00000000000E+00  0.71743246004E+03  0.71743246004E+03  0.00000000000E+00 0. -1.
         21   -1    0    0  501  502 -0.00000000000E+00 -0.00000000000E+00 -0.67273563985E+02  0.67273563985E+02  0.00000000000E+00 0. -1.
         25    1    1    2    0    0  0.31075950568E+02  0.60305945470E+02  0.14962836272E+03  0.20643683948E+03  0.12500000000E+03 0.  0.
         25    1    1    2    0    0  0.11167614002E+02 -0.76473767457E+02  0.18786854099E+03  0.23852157430E+03  0.12500000000E+03 0.  0.
         25    1    1    2    0    0 -0.42243564570E+02  0.16167821987E+02  0.31266199235E+03  0.33974761025E+03  0.12500000000E+03 0.  0.
</event>
<event>
 5    0  0.5612316E-005  0.2513956E+03  0.7546771E-02  0.1112426E+00
         21   -1    0    0  502  501  0.00000000000E+00  0.00000000000E+00  0.21375352157E+03  0.21375352157E+03  0.00000000000E+00 0.  1.
         21   -1    0    0  501  502 -0.00000000000E+00 -0.00000000000E+00 -0.29566655337E+03  0.29566655337E+03  0.00000000000E+00 0.  1.
         25    1    1    2    0    0  0.18389444862E+02  0.36952502436E+02  0.56186678912E+02  0.14312792182E+03  0.12500000000E+03 0.  0.
         25    1    1    2    0    0  0.93914335253E+01  0.63525385619E+02  0.16885991864E+02  0.14154084344E+03  0.12500000000E+03 0.  0.
         25    1    1    2    0    0 -0.27780878387E+02 -0.10047788806E+03 -0.15498570258E+03  0.22475130966E+03  0.12500000000E+03 0.  0.
</event>
<event>
 5    0  0.5612316E-005  0.2898973E+03  0.7546771E-02  0.1090403E+00
         21   -1    0    0  502  501  0.00000000000E+00  0.00000000000E+00  0.74171767965E+02  0.74171767965E+02  0.00000000000E+00 0.  1.
         21   -1    0    0  501  502 -0.00000000000E+00 -0.00000000000E+00 -0.11330514739E+04  0.11330514739E+04  0.00000000000E+00 0.  1.
         25    1    1    2    0    0 -0.21264958585E+02 -0.12715965038E+03 -0.29375053759E+03  0.34429079785E+03  0.12500000000E+03 0.  0.
         25    1    1    2    0    0  0.28108145842E+01 -0.84460702106E+02 -0.32968165581E+03  0.36256931069E+03  0.12500000000E+03 0.  0.
         25    1    1    2    0    0  0.18454144001E+02  0.21162035249E+03 -0.43544751256E+03  0.50036313334E+03  0.12500000000E+03 0.  0.
</event>
<event>
 5    0  0.5612316E-005  0.3808483E+03  0.7546771E-02  0.1050621E+00
         21   -1    0    0  502  501  0.00000000000E+00  0.00000000000E+00  0.70880490316E+03  0.70880490316E+03  0.00000000000E+00 0. -1.
         21   -1    0    0  501  502 -0.00000000000E+00 -0.00000000000E+00 -0.20463379174E+03  0.20463379174E+03  0.00000000000E+00 0. -1.
         25    1    1    2    0    0 -0.42728869803E+02  0.23339318400E+03  0.47997468403E+03  0.54981708956E+03  0.12500000000E+03 0.  0.
         25    1    1    2    0    0 -0.21746271595E+02 -0.15608985487E+03  0.27956914698E+02  0.20308503687E+03  0.12500000000E+03 0.  0.
         25    1    1    2    0    0  0.64475141398E+02 -0.77303329129E+02 -0.37604873115E+01  0.16053656847E+03  0.12500000000E+03 0.  0.
</event>
<event>
 5    0  0.5612316E-005  0.3888961E+03  0.7546771E-02  0.1047694E+00
         21   -1    0    0  502  501  0.00000000000E+00  0.00000000000E+00  0.91371759143E+02  0.91371759143E+02  0.00000000000E+00 0.  1.
         21   -1    0    0  501  502 -0.00000000000E+00 -0.00000000000E+00 -0.16552181663E+04  0.16552181663E+04  0.00000000000E+00 0.  1.
         25    1    1    2    0    0  0.21923159044E+03  0.18329006273E+03 -0.54482053078E+03  0.62778352009E+03  0.12500000000E+03 0.  0.
         25    1    1    2    0    0 -0.72829810166E+02 -0.14172663452E+03 -0.23407528961E+03  0.30952683468E+03  0.12500000000E+03 0.  0.
         25    1    1    2    0    0 -0.14640178028E+03 -0.41563428216E+02 -0.78495058677E+03  0.80927957067E+03  0.12500000000E+03 0.  0.
</event>
<event>
 5    0  0.5612316E-005  0.2273117E+03  0.7546771E-02  0.1128546E+00
         21   -1    0    0  502  501  0.00000000000E+00  0.00000000000E+00  0.14967350151E+03  0.14967350151E+03  0.00000000000E+00 0. -1.
         21   -1    0    0  501  502 -0.00000000000E+00 -0.00000000000E+00 -0.34522202119E+03  0.34522202119E+03  0.00000000000E+00 0. -1.
         25    1    1    2    0    0 -0.20080401190E+02 -0.43588234300E+02 -0.44573096585E+02  0.14112022400E+03  0.12500000000E+03 0.  0.
         25    1    1    2    0    0  0.30857311753E+02 -0.67296533829E+02 -0.10765975138E+03  0.18082206508E+03  0.12500000000E+03 0.  0.
         25    1    1    2    0    0 -0.10776910563E+02  0.11088476813E+03 -0.43315671714E+02  0.17295323362E+03  0.12500000000E+03 0.  0.
</event>
<event>
 5    0  0.5612316E-005  0.2563152E+03  0.7546771E-02  0.1109378E+00
         21   -1    0    0  502  501  0.00000000000E+00  0.00000000000E+00  0.24677553169E+03  0.24677553169E+03  0.00000000000E+00 0.  1.
         21   -1    0    0  501  502 -0.00000000000E+00 -0.00000000000E+00 -0.26622369906E+03  0.26622369906E+03  0.00000000000E+00 0.  1.
         25    1    1    2    0    0  0.26296514092E+02  0.72827575349E+02 -0.11391151768E+02  0.14747922133E+03  0.12500000000E+03 0.  0.
         25    1    1    2    0    0 -0.10664307325E+03  0.43631890853E+02 -0.38440632760E+02  0.17429621114E+03  0.12500000000E+03 0.  0.
         25    1    1    2    0    0  0.80346559154E+02 -0.11645946620E+03  0.30383617158E+02  0.19122379828E+03  0.12500000000E+03 0.  0.
</event>
<event>
 5    0  0.5612316E-005  0.2366549E+03  0.7546771E-02  0.1122042E+00
         21   -1    0    0  502  501  0.00000000000E+00  0.00000000000E+00  0.54528431218E+03  0.54528431218E+03  0.00000000000E+00 0. -1.
         21   -1    0    0  501  502 -0.00000000000E+00 -0.00000000000E+00 -0.10270887166E+03  0.10270887166E+03  0.00000000000E+00 0. -1.
         25    1    1    2    0    0 -0.89421876708E+02 -0.67750168123E+02  0.77845465726E+02  0.18512502221E+03  0.12500000000E+03 0.  0.
         25    1    1    2    0    0  0.58822898745E+02  0.44611209747E+02  0.24912081497E+03  0.28833396245E+03  0.12500000000E+03 0.  0.
         25    1    1    2    0    0  0.30598977962E+02  0.23138958376E+02  0.11560915983E+03  0.17453419918E+03  0.12500000000E+03 0.  0.
</event>
<event>
 5    0  0.5612316E-005  0.2656861E+03  0.7546771E-02  0.1103774E+00
         21   -1    0    0  502  501  0.00000000000E+00  0.00000000000E+00  0.12860434000E+04  0.12860434000E+04  0.00000000000E+00 0.  1.
         21   -1    0    0  501  502 -0.00000000000E+00 -0.00000000000E+00 -0.54888578242E+02  0.54888578242E+02  0.00000000000E+00 0.  1.
         25    1    1    2    0    0  0.42661851452E+02  0.16741467058E+03  0.47781775491E+03  0.52324230754E+03  0.12500000000E+03 0.  0.
         25    1    1    2    0    0 -0.55112581004E+02 -0.50773645693E+02  0.31743354252E+03  0.34929130192E+03  0.12500000000E+03 0.  0.
         25    1    1    2    0    0  0.12450729552E+02 -0.11664102489E+03  0.43590352435E+03  0.46839836880E+03  0.12500000000E+03 0.  0.
</event>
<event>
 5    0  0.5612316E-005  0.3062427E+03  0.7546771E-02  0.1082161E+00
         21   -1    0    0  502  501  0.00000000000E+00  0.00000000000E+00  0.18981083537E+03  0.18981083537E+03  0.00000000000E+00 0.  1.
         21   -1    0    0  501  502 -0.00000000000E+00 -0.00000000000E+00 -0.49409490980E+03  0.49409490980E+03  0.00000000000E+00 0.  1.
         25    1    1    2    0    0 -0.49755502715E+02 -0.47070642588E+02 -0.48432455809E+02  0.15053889271E+03  0.12500000000E+03 0.  0.
         25    1    1    2    0    0  0.91657588354E+02 -0.42017053921E+02  0.66549063129E+02  0.17383993824E+03  0.12500000000E+03 0.  0.
         25    1    1    2    0    0 -0.41902085639E+02  0.89087696509E+02 -0.32240068175E+03  0.35952691421E+03  0.12500000000E+03 0.  0.
</event>
<event>
 5    0  0.5612316E-005  0.2453152E+03  0.7546771E-02  0.1116302E+00
         21   -1    0    0  502  501  0.00000000000E+00  0.00000000000E+00  0.91351370915E+03  0.91351370915E+03  0.00000000000E+00 0.  1.
         21   -1    0    0  501  502 -0.00000000000E+00 -0.00000000000E+00 -0.65877003027E+02  0.65877003027E+02  0.00000000000E+00 0.  1.
         25    1    1    2    0    0 -0.40952302270E+02  0.35779931186E+02  0.78734505649E+02  0.15742114508E+03  0.12500000000E+03 0.  0.
         25    1    1    2    0    0 -0.14921057154E+02 -0.63694876869E+02  0.28067064040E+03  0.31413481767E+03  0.12500000000E+03 0.  0.
         25    1    1    2    0    0  0.55873359423E+02  0.27914945683E+02  0.48823156007E+03  0.50783474944E+03  0.12500000000E+03 0.  0.
</event>
<event>
 5    0  0.5612316E-005  0.4752585E+03  0.7546771E-02  0.1020446E+00
         21   -1    0    0  502  501  0.00000000000E+00  0.00000000000E+00  0.21649739774E+04  0.21649739774E+04  0.00000000000E+00 0. -1.
         21   -1    0    0  501  502 -0.00000000000E+00 -0.00000000000E+00 -0.10432950441E+03  0.10432950441E+03  0.00000000000E+00 0. -1.
         25    1    1    2    0    0  0.17105120650E+03  0.76544575133E+02  0.18586009840E+03  0.29203863341E+03  0.12500000000E+03 0.  0.
         25    1    1    2    0    0  0.11773934482E+03  0.36637176683E+02  0.13036932633E+04  0.13154641617E+04  0.12500000000E+03 0.  0.
         25    1    1    2    0    0 -0.28879055132E+03 -0.11318175182E+03  0.57109111125E+03  0.66180068663E+03  0.12500000000E+03 0.  0.
</event>
<event>
 5    0  0.5612316E-005  0.3395547E+03  0.7546771E-02  0.1066986E+00
         21   -1    0    0  502  501  0.00000000000E+00  0.00000000000E+00  0.13557744979E+04  0.13557744979E+04  0.00000000000E+00 0.  1.
         21   -1    0    0  501  502 -0.00000000000E+00 -0.00000000000E+00 -0.85041723204E+02  0.85041723204E+02  0.00000000000E+00 0.  1.
         25    1    1    2    0    0  0.25762278861E+02  0.16628466825E+03  0.85268639245E+03  0.87807366990E+03  0.12500000000E+03 0.  0.
         25    1    1    2    0    0  0.80973851034E+02 -0.20537984177E+02  0.11933737406E+03  0.19195046807E+03  0.12500000000E+03 0.  0.
         25    1    1    2    0    0 -0.10673612990E+03 -0.14574668407E+03  0.29870900821E+03  0.37079208316E+03  0.12500000000E+03 0.  0.
</event>
<event>
 5    0  0.5612316E-005  0.3117691E+03  0.7546771E-02  0.1079501E+00
         21   -1    0    0  502  501  0.00000000000E+00  0.00000000000E+00  0.12857383607E+03  0.12857383607E+03  0.00000000000E+00 0.  1.
         21   -1    0    0  501  502 -0.00000000000E+00 -0.00000000000E+00 -0.75598564997E+03  0.75598564997E+03  0.00000000000E+00 0.  1.
         25    1    1    2    0    0  0.60895272432E+02 -0.18523308859E+02 -0.88811277583E+02  0.16602346280E+03  0.12500000000E+03 0.  0.
         25    1    1    2    0    0 -0.16666606545E+03  0.10334524324E+03 -0.12126929710E+03  0.26227668423E+03  0.12500000000E+03 0.  0.
         25    1    1    2    0    0  0.10577079301E+03 -0.84821934385E+02 -0.41733123921E+03  0.45625933901E+03  0.12500000000E+03 0.  0.
</event>
<event>
 5    0  0.5612316E-005  0.5147525E+03  0.7546771E-02  0.1009998E+00
         21   -1    0    0  502  501  0.00000000000E+00  0.00000000000E+00  0.38385026740E+03  0.38385026740E+03  0.00000000000E+00 0.  1.
         21   -1    0    0  501  502 -0.00000000000E+00 -0.00000000000E+00 -0.69029564058E+03  0.69029564058E+03  0.00000000000E+00 0.  1.
         25    1    1    2    0    0 -0.18516167562E+03 -0.36828001147E+02 -0.55025776733E+02  0.23301069480E+03  0.12500000000E+03 0.  0.
         25    1    1    2    0    0  0.45890710523E+01 -0.29882063077E+03  0.64803907229E+02  0.33036249082E+03  0.12500000000E+03 0.  0.
         25    1    1    2    0    0  0.18057260457E+03  0.33564863192E+03 -0.31622350367E+03  0.51077272236E+03  0.12500000000E+03 0.  0.
</event>
<event>
 5    0  0.5612316E-005  0.6542496E+03  0.7546771E-02  0.9798838E-01
         21   -1    0    0  502  501  0.00000000000E+00  0.00000000000E+00  0.38413228508E+04  0.38413228508E+04  0.00000000000E+00 0.  1.
         21   -1    0    0  501  502 -0.00000000000E+00 -0.00000000000E+00 -0.11143101160E+03  0.11143101160E+03  0.00000000000E+00 0.  1.
         25    1    1    2    0    0 -0.45066300860E+03 -0.36998854803E+03  0.17088283114E+04  0.18098916738E+04  0.12500000000E+03 0.  0.
         25    1    1    2    0    0  0.45919037394E+03  0.32308214335E+03  0.15549793302E+04  0.16579576557E+04  0.12500000000E+03 0.  0.
         25    1    1    2    0    0 -0.85273653436E+01  0.46906404682E+02  0.46608419759E+03  0.48490453287E+03  0.12500000000E+03 0.  0.
</event>
<event>
 5    0  0.5612316E-005  0.2620383E+03  0.7546771E-02  0.1105925E+00
         21   -1    0    0  502  501  0.00000000000E+00  0.00000000000E+00  0.18601901178E+03  0.18601901178E+03  0.00000000000E+00 0.  1.
         21   -1    0    0  501  502 -0.00000000000E+00 -0.00000000000E+00 -0.36912389195E+03  0.36912389195E+03  0.00000000000E+00 0.  1.
         25    1    1    2    0    0  0.42893098955E+01  0.12935082285E+03 -0.89248804752E+02  0.20084915409E+03  0.12500000000E+03 0.  0.
         25    1    1    2    0    0 -0.75963953215E+02 -0.54279410844E+02  0.17977665239E+02  0.15705086143E+03  0.12500000000E+03 0.  0.
         25    1    1    2    0    0  0.71674643320E+02 -0.75071412002E+02 -0.11183374067E+03  0.19724288820E+03  0.12500000000E+03 0.  0.
</event>
<event>
 5    0  0.5612316E-005  0.2279827E+03  0.7546771E-02  0.1128068E+00
         21   -1    0    0  502  501  0.00000000000E+00  0.00000000000E+00  0.22271067970E+03  0.22271067970E+03  0.00000000000E+00 0.  1.
         21   -1    0    0  501  502 -0.00000000000E+00 -0.00000000000E+00 -0.23337954279E+03  0.23337954279E+03  0.00000000000E+00 0.  1.
         25    1    1    2    0    0 -0.38022305073E+02  0.14178947382E+02  0.21634153041E+02  0.13319074596E+03  0.12500000000E+03 0.  0.
         25    1    1    2    0    0 -0.29275944975E+02  0.32129396109E+02  0.62149173903E+02  0.14620840901E+03  0.12500000000E+03 0.  0.
         25    1    1    2    0    0  0.67298250048E+02 -0.46308343491E+02 -0.94452190040E+02  0.17669106752E+03  0.12500000000E+03 0.  0.
</event>
<event>
 5    0  0.5612316E-005  0.4473092E+03  0.7546771E-02  0.1028527E+00
         21   -1    0    0  502  501  0.00000000000E+00  0.00000000000E+00  0.89051444802E+03  0.89051444802E+03  0.00000000000E+00 0.  1.
         21   -1    0    0  501  502 -0.00000000000E+00 -0.00000000000E+00 -0.22468536506E+03  0.22468536506E+03  0.00000000000E+00 0.  1.
         25    1    1    2    0    0  0.29592428450E+03 -0.22769406862E+03  0.35847747960E+03  0.53249119657E+03  0.12500000000E+03 0.  0.
         25    1    1    2    0    0 -0.11797576622E+03  0.90155220580E+02  0.25443863186E+03  0.32001603490E+03  0.12500000000E+03 0.  0.
         25    1    1    2    0    0 -0.17794851828E+03  0.13753884804E+03  0.52912971491E+02  0.26269258161E+03  0.12500000000E+03 0.  0.
</event>
<event>
 5    0  0.5612316E-005  0.2375097E+03  0.7546771E-02  0.1121463E+00
         21   -1    0    0  502  501  0.00000000000E+00  0.00000000000E+00  0.52958211684E+03  0.52958211684E+03  0.00000000000E+00 0.  1.
         21   -1    0    0  501  502 -0.00000000000E+00 -0.00000000000E+00 -0.10651958123E+03  0.10651958123E+03  0.00000000000E+00 0.  1.
         25    1    1    2    0    0 -0.17911164688E+02 -0.94453747192E+02  0.52844986055E+02  0.16631269564E+03  0.12500000000E+03 0.  0.
         25    1    1    2    0    0  0.62421622163E+01  0.29683070285E+02  0.26187514072E+03  0.29175955611E+03  0.12500000000E+03 0.  0.
         25    1    1    2    0    0  0.11669002471E+02  0.64770676907E+02  0.10834240884E+03  0.17802944632E+03  0.12500000000E+03 0.  0.
</event>
<event>
 5    0  0.5612316E-005  0.3334187E+03  0.7546771E-02  0.1069634E+00
         21   -1    0    0  502  501  0.00000000000E+00  0.00000000000E+00  0.17113563348E+04  0.17113563348E+04  0.00000000000E+00 0. -1.
         21   -1    0    0  501  502 -0.00000000000E+00 -0.00000000000E+00 -0.64959002343E+02  0.64959002343E+02  0.00000000000E+00 0. -1.
         25    1    1    2    0    0  0.10950436201E+01  0.13016776866E+03  0.51721945480E+03  0.54780088676E+03  0.12500000000E+03 0.  0.
         25    1    1    2    0    0 -0.17066123872E+03 -0.31679996626E+02  0.78143111112E+03  0.81017804340E+03  0.12500000000E+03 0.  0.
         25    1    1    2    0    0  0.16956619510E+03 -0.98487772034E+02  0.34774676654E+03  0.41833640697E+03  0.12500000000E+03 0.  0.
</event>
<event>
 5    0  0.5612316E-005  0.2700110E+03  0.7546771E-02  0.1101273E+00
         21   -1    0    0  502  501  0.00000000000E+00  0.00000000000E+00  0.25957884346E+03  0.25957884346E+03  0.00000000000E+00 0. -1.
         21   -1    0    0  501  502 -0.00000000000E+00 -0.00000000000E+00 -0.28086236624E+03  0.28086236624E+03  0.00000000000E+00 0. -1.
         25    1    1    2    0    0  0.37631465102E+02  0.72499392635E+01 -0.17879233493E+03  0.22149579638E+03  0.12500000000E+03 0.  0.
         25    1    1    2    0    0  0.11454517246E+02  0.82748852522E+00  0.13173405775E+03  0.18196360261E+03  0.12500000000E+03 0.  0.
         25    1    1    2    0    0 -0.49085982348E+02 -0.80774277887E+01  0.25774754403E+02  0.13698181072E+03  0.12500000000E+03 0.  0.
</event>
<event>
 5    0  0.5612316E-005  0.3210000E+03  0.7546771E-02  0.1075190E+00
         21   -1    0    0  502  501  0.00000000000E+00  0.00000000000E+00  0.18719388741E+03  0.18719388741E+03  0.00000000000E+00 0. -1.
         21   -1    0    0  501  502 -0.00000000000E+00 -0.00000000000E+00 -0.55045079510E+03  0.55045079510E+03  0.00000000000E+00 0. -1.
         25    1    1    2    0    0 -0.63145552140E+02  0.85757346189E+02 -0.15372112939E+03  0.22493747754E+03  0.12500000000E+03 0.  0.
         25    1    1    2    0    0 -0.23382973999E+02 -0.71468217027E+02  0.93574116346E+02  0.17330777469E+03  0.12500000000E+03 0.  0.
         25    1    1    2    0    0  0.86528526140E+02 -0.14289129162E+02 -0.30310989464E+03  0.33939943029E+03  0.12500000000E+03 0.  0.
</event>
<event>
 5    0  0.5612316E-005  0.2591569E+03  0.7546771E-02  0.1107651E+00
         21   -1    0    0  502  501  0.00000000000E+00  0.00000000000E+00  0.59793035653E+03  0.59793035653E+03  0.00000000000E+00 0.  1.
         21   -1    0    0  501  502 -0.00000000000E+00 -0.00000000000E+00 -0.11232464626E+03  0.11232464626E+03  0.00000000000E+00 0.  1.
         25    1    1    2    0    0  0.52293685409E+02  0.66407481562E+02  0.26922868448E+03  0.30863192915E+03  0.12500000000E+03 0.  0.
         25    1    1    2    0    0  0.44444990929E+02  0.19795595140E+02  0.20703069127E+02  0.13572339473E+03  0.12500000000E+03 0.  0.
         25    1    1    2    0    0 -0.96738676338E+02 -0.86203076702E+02  0.19567395666E+03  0.26589967891E+03  0.12500000000E+03 0.  0.
</event>
<event>
 5    0  0.5612316E-005  0.2472617E+03  0.7546771E-02  0.1115048E+00
         21   -1    0    0  502  501  0.00000000000E+00  0.00000000000E+00  0.14467793537E+03  0.14467793537E+03  0.00000000000E+00 0.  1.
         21   -1    0    0  501  502 -0.00000000000E+00 -0.00000000000E+00 -0.42258241844E+03  0.42258241844E+03  0.00000000000E+00 0.  1.
         25    1    1    2    0    0 -0.63871491309E+02 -0.88377620298E+02 -0.45779815372E+02  0.17207836200E+03  0.12500000000E+03 0.  0.
         25    1    1    2    0    0  0.80020037646E+02 -0.18795250253E+02 -0.14437333769E+03  0.20790653788E+03  0.12500000000E+03 0.  0.
         25    1    1    2    0    0 -0.16148546337E+02  0.10717287055E+03 -0.87751330010E+02  0.18727545394E+03  0.12500000000E+03 0.  0.
</event>
<event>
 5    0  0.5612316E-005  0.2886877E+03  0.7546771E-02  0.1091036E+00
         21   -1    0    0  502  501  0.00000000000E+00  0.00000000000E+00  0.36918925849E+03  0.36918925849E+03  0.00000000000E+00 0.  1.
         21   -1    0    0  501  502 -0.00000000000E+00 -0.00000000000E+00 -0.22573950797E+03  0.22573950797E+03  0.00000000000E+00 0.  1.
         25    1    1    2    0    0 -0.11634764249E+03 -0.36508017894E+02  0.12004783412E+03  0.21191057492E+03  0.12500000000E+03 0.  0.
         25    1    1    2    0    0 -0.28642964355E+02  0.74768796090E+02 -0.72852158549E+02  0.16535788243E+03  0.12500000000E+03 0.  0.
         25    1    1    2    0    0  0.14499060685E+03 -0.38260778196E+02  0.96254074945E+02  0.21766030912E+03  0.12500000000E+03 0.  0.
</event>
<event>
 5    0  0.5612316E-005  0.2913809E+03  0.7546771E-02  0.1089630E+00
         21   -1    0    0  502  501  0.00000000000E+00  0.00000000000E+00  0.57536745675E+02  0.57536745675E+02  0.00000000000E+00 0.  1.
         21   -1    0    0  501  502 -0.00000000000E+00 -0.00000000000E+00 -0.14756284244E+04  0.14756284244E+04  0.00000000000E+00 0.  1.
         25    1    1    2    0    0  0.78666527958E+01 -0.13004250850E+03 -0.29225851629E+03  0.34353017129E+03  0.12500000000E+03 0.  0.
         25    1    1    2    0    0 -0.10365115162E+03  0.15233433665E+03 -0.72427007809E+03  0.75772122668E+03  0.12500000000E+03 0.  0.
         25    1    1    2    0    0  0.95784498823E+02 -0.22291828156E+02 -0.40156308431E+03  0.43191377206E+03  0.12500000000E+03 0.  0.
</event>
<event>
 5    0  0.5612316E-005  0.4865766E+03  0.7546771E-02  0.1017343E+00
         21   -1    0    0  502  501  0.00000000000E+00  0.00000000000E+00  0.74196003601E+03  0.74196003601E+03  0.00000000000E+00 0.  1.
         21   -1    0    0  501  502 -0.00000000000E+00 -0.00000000000E+00 -0.31909640288E+03  0.31909640288E+03  0.00000000000E+00 0.  1.
         25    1    1    2    0    0 -0.15880433533E+03 -0.41639050559E+02  0.84948837310E+02  0.22314554087E+03  0.12500000000E+03 0.  0.
         25    1    1    2    0    0  0.26453445629E+03  0.22111054723E+03  0.44139067959E+03  0.57386329791E+03  0.12500000000E+03 0.  0.
         25    1    1    2    0    0 -0.10573012096E+03 -0.17947149667E+03 -0.10347588378E+03  0.26404760010E+03  0.12500000000E+03 0.  0.
</event>
<event>
 5    0  0.5612316E-005  0.3524789E+03  0.7546771E-02  0.1061602E+00
         21   -1    0    0  502  501  0.00000000000E+00  0.00000000000E+00  0.64239516708E+03  0.64239516708E+03  0.00000000000E+00 0.  1.
         21   -1    0    0  501  502 -0.00000000000E+00 -0.00000000000E+00 -0.19340336605E+03  0.19340336605E+03  0.00000000000E+00 0.  1.
         25    1    1    2    0    0  0.68047763752E+02 -0.38962516115E+02 -0.55100294992E+00  0.14755974864E+03  0.12500000000E+03 0.  0.
         25    1    1    2    0    0 -0.19615012729E+03  0.17301779704E+03  0.31112414523E+03  0.42524494620E+03  0.12500000000E+03 0.  0.
         25    1    1    2    0    0  0.12810236354E+03 -0.13405528092E+03  0.13841865875E+03  0.26299383829E+03  0.12500000000E+03 0.  0.
</event>
<event>
 5    0  0.5612316E-005  0.2739388E+03  0.7546771E-02  0.1099046E+00
         21   -1    0    0  502  501  0.00000000000E+00  0.00000000000E+00  0.11173061884E+04  0.11173061884E+04  0.00000000000E+00 0. -1.
         21   -1    0    0  501  502 -0.00000000000E+00 -0.00000000000E+00 -0.67163739425E+02  0.67163739425E+02  0.00000000000E+00 0. -1.
         25    1    1    2    0    0  0.15539307611E+03 -0.22951200328E+02  0.48889118147E+03  0.52850104353E+03  0.12500000000E+03 0.  0.
         25    1    1    2    0    0 -0.13868063068E+03  0.77368838365E+02  0.34184915048E+03  0.39711975040E+03  0.12500000000E+03 0.  0.
         25    1    1    2    0    0 -0.16712445430E+02 -0.54417638037E+02  0.21940211705E+03  0.25884913392E+03  0.12500000000E+03 0.  0.
</event>
<event>
 5    0  0.6366151E-005  0.3828039E+03  0.7546771E-02  0.1049902E+00
         21   -1    0    0  502  501  0.00000000000E+00  0.00000000000E+00  0.49736027478E+03  0.49736027478E+03  0.00000000000E+00 0.  1.
         21   -1    0    0  501  502 -0.00000000000E+00 -0.00000000000E+00 -0.29463314353E+03  0.29463314353E+03  0.00000000000E+00 0.  1.
         25    1    1    2    0    0  0.34281471988E+02 -0.84182496672E+02 -0.12655989408E+03  0.19976065393E+03  0.12500000000E+03 0.  0.
         25    1    1    2    0    0 -0.11809017277E+03  0.15991134711E+03  0.14589731457E+02  0.23527598285E+03  0.12500000000E+03 0.  0.
         25    1    1    2    0    0  0.83808700786E+02 -0.75728850441E+02  0.31469729387E+03  0.35695678154E+03  0.12500000000E+03 0.  0.
</event>
<event>
 5    0  0.5612316E-005  0.2800504E+03  0.7546771E-02  0.1095661E+00
         21   -1    0    0  502  501  0.00000000000E+00  0.00000000000E+00  0.37062566841E+03  0.37062566841E+03  0.00000000000E+00 0. -1.
         21   -1    0    0  501  502 -0.00000000000E+00 -0.00000000000E+00 -0.21161033116E+03  0.21161033116E+03  0.00000000000E+00 0. -1.
         25    1    1    2    0    0  0.23915727498E+02 -0.92578262267E+02  0.17098524112E+03  0.23238685278E+03  0.12500000000E+03 0.  0.
         25    1    1    2    0    0 -0.10214563390E+03 -0.64384135946E+01  0.36718967785E+02  0.16567578667E+03  0.12500000000E+03 0.  0.
         25    1    1    2    0    0  0.78229906402E+02  0.99016675861E+02 -0.48688871645E+02  0.18417336012E+03  0.12500000000E+03 0.  0.
</event>
<event>
 5    0  0.5612316E-005  0.2756122E+03  0.7546771E-02  0.1098110E+00
         21   -1    0    0  502  501  0.00000000000E+00  0.00000000000E+00  0.16472205484E+03  0.16472205484E+03  0.00000000000E+00 0.  1.
         21   -1    0    0  501  502 -0.00000000000E+00 -0.00000000000E+00 -0.46115295570E+03  0.46115295570E+03  0.00000000000E+00 0.  1.
         25    1    1    2    0    0 -0.13541451761E+03 -0.70219700673E+02 -0.12264452225E+03  0.23223818975E+03  0.12500000000E+03 0.  0.
         25    1    1    2    0    0  0.14978665956E+03  0.91292254037E+02 -0.15341284352E+03  0.26444436009E+03  0.12500000000E+03 0.  0.
         25    1    1    2    0    0 -0.14372141946E+02 -0.21072553363E+02 -0.20373535090E+02  0.12919246070E+03  0.12500000000E+03 0.  0.
</event>
<event>
 5    0  0.5612316E-005  0.2234939E+03  0.7546771E-02  0.1131305E+00
         21   -1    0    0  502  501  0.00000000000E+00  0.00000000000E+00  0.50422815983E+03  0.50422815983E+03  0.00000000000E+00 0.  1.
         21   -1    0    0  501  502 -0.00000000000E+00 -0.00000000000E+00 -0.99061344650E+02  0.99061344650E+02  0.00000000000E+00 0.  1.
         25    1    1    2    0    0  0.11580459181E+02  0.16600116071E+02  0.45603237977E+02  0.13458947285E+03  0.12500000000E+03 0.  0.
         25    1    1    2    0    0 -0.22070267352E+02 -0.41763129615E+02  0.29827377163E+03  0.32683864297E+03  0.12500000000E+03 0.  0.
         25    1    1    2    0    0  0.10489808171E+02  0.25163013544E+02  0.61289805579E+02  0.14186138867E+03  0.12500000000E+03 0.  0.
</event>
<event>
 5    0  0.5612316E-005  0.2717803E+03  0.7546771E-02  0.1100265E+00
         21   -1    0    0  502  501  0.00000000000E+00  0.00000000000E+00  0.33606834430E+02  0.33606834430E+02  0.00000000000E+00 0.  1.
         21   -1    0    0  501  502 -0.00000000000E+00 -0.00000000000E+00 -0.21979013770E+04  0.21979013770E+04  0.00000000000E+00 0.  1.
         25    1    1    2    0    0  0.37115961382E+02  0.84348002352E+01 -0.36859641850E+03  0.39107168163E+03  0.12500000000E+03 0.  0.
         25    1    1    2    0    0 -0.93097069663E+02  0.10505101508E+03 -0.13055895320E+04  0.13190495844E+04  0.12500000000E+03 0.  0.
         25    1    1    2    0    0  0.55981108281E+02 -0.11348581532E+03 -0.49010859203E+03  0.52138694532E+03  0.12500000000E+03 0.  0.
</event>
<event>
 5    0  0.5612316E-005  0.4833913E+03  0.7546771E-02  0.1018207E+00
         21   -1    0    0  502  501  0.00000000000E+00  0.00000000000E+00  0.25899993461E+03  0.25899993461E+03  0.00000000000E+00 0. -1.
         21   -1    0    0  501  502 -0.00000000000E+00 -0.00000000000E+00 -0.90218981518E+03  0.90218981518E+03  0.00000000000E+00 0. -1.
         25    1    1    2    0    0 -0.15885617499E+03 -0.34757146010E+03 -0.50931443573E+03  0.64889706322E+03  0.12500000000E+03 0.  0.
         25    1    1    2    0    0  0.16272733333E+03  0.24947294563E+03 -0.34542255559E+02  0.32486166753E+03  0.12500000000E+03 0.  0.
         25    1    1    2    0    0 -0.38711583354E+01  0.98098514471E+02 -0.99333189282E+02  0.18743101905E+03  0.12500000000E+03 0.  0.
</event>
<event>
 5    0  0.5612316E-005  0.2708304E+03  0.7546771E-02  0.1100805E+00
         21   -1    0    0  502  501  0.00000000000E+00  0.00000000000E+00  0.19045634849E+03  0.19045634849E+03  0.00000000000E+00 0.  1.
         21   -1    0    0  501  502 -0.00000000000E+00 -0.00000000000E+00 -0.38512281604E+03  0.38512281604E+03  0.00000000000E+00 0.  1.
         25    1    1    2    0    0 -0.10798686265E+03  0.18446772870E+02 -0.97168382939E+01  0.16649583443E+03  0.12500000000E+03 0.  0.
         25    1    1    2    0    0 -0.16551591816E+02 -0.42230776024E+02 -0.18887998331E+03  0.23099359673E+03  0.12500000000E+03 0.  0.
         25    1    1    2    0    0  0.12453845447E+03  0.23784003154E+02  0.39303540630E+01  0.17808973337E+03  0.12500000000E+03 0.  0.
</event>
<event>
 5    0  0.5612316E-005  0.3844429E+03  0.7546771E-02  0.1049304E+00
         21   -1    0    0  502  501  0.00000000000E+00  0.00000000000E+00  0.78046111485E+03  0.78046111485E+03  0.00000000000E+00 0. -1.
         21   -1    0    0  501  502 -0.00000000000E+00 -0.00000000000E+00 -0.18937050274E+03  0.18937050274E+03  0.00000000000E+00 0. -1.
         25    1    1    2    0    0 -0.17543723104E+03  0.19517734488E+03  0.21201644316E+03  0.35978936916E+03  0.12500000000E+03 0.  0.
         25    1    1    2    0    0  0.13255120475E+03 -0.11737586892E+03  0.40032101694E+03  0.45522393730E+03  0.12500000000E+03 0.  0.
         25    1    1    2    0    0  0.42886026287E+02 -0.77801475963E+02 -0.21246847980E+02  0.15481831113E+03  0.12500000000E+03 0.  0.
</event>
<event>
 5    0  0.5612316E-005  0.2090526E+03  0.7546771E-02  0.1142318E+00
         21   -1    0    0  502  501  0.00000000000E+00  0.00000000000E+00  0.18703606244E+03  0.18703606244E+03  0.00000000000E+00 0. -1.
         21   -1    0    0  501  502 -0.00000000000E+00 -0.00000000000E+00 -0.23366079317E+03  0.23366079317E+03  0.00000000000E+00 0. -1.
         25    1    1    2    0    0  0.62164002147E+02  0.19288965124E+01  0.27126857822E+00  0.13961789782E+03  0.12500000000E+03 0.  0.
         25    1    1    2    0    0 -0.41684922209E+02 -0.10139334111E+01 -0.74589161770E+02  0.15141731689E+03  0.12500000000E+03 0.  0.
         25    1    1    2    0    0 -0.20479079938E+02 -0.91496310133E+00  0.27693162463E+02  0.12966164090E+03  0.12500000000E+03 0.  0.
</event>
<event>
 5    0  0.5612316E-005  0.4683089E+03  0.7546771E-02  0.1022399E+00
         21   -1    0    0  502  501  0.00000000000E+00  0.00000000000E+00  0.14723052645E+03  0.14723052645E+03  0.00000000000E+00 0.  1.
         21   -1    0    0  501  502 -0.00000000000E+00 -0.00000000000E+00 -0.14895907586E+04  0.14895907586E+04  0.00000000000E+00 0.  1.
         25    1    1    2    0    0  0.21509688646E+03  0.59500009242E+01 -0.38740275382E+03  0.46044322858E+03  0.12500000000E+03 0.  0.
         25    1    1    2    0    0 -0.52306405221E+01  0.15957009001E+03 -0.83261787180E+03  0.85695244540E+03  0.12500000000E+03 0.  0.
         25    1    1    2    0    0 -0.20986624594E+03 -0.16552009094E+03 -0.12233960655E+03  0.31942561109E+03  0.12500000000E+03 0.  0.
</event>
<event>
 5    0  0.5612316E-005  0.5987785E+03  0.7546771E-02  0.9907944E-01
         21   -1    0    0  502  501  0.00000000000E+00  0.00000000000E+00  0.36576435795E+03  0.36576435795E+03  0.00000000000E+00 0.  1.
         21   -1    0    0  501  502 -0.00000000000E+00 -0.00000000000E+00 -0.98023681149E+03  0.98023681149E+03  0.00000000000E+00 0.  1.
         25    1    1    2    0    0  0.87666671871E+02 -0.19355075081E+03  0.17212997099E+03  0.30066769931E+03  0.12500000000E+03 0.  0.
         25    1    1    2    0    0 -0.16563813412E+03 -0.68486830199E+02 -0.17091242319E+02  0.21918838462E+03  0.12500000000E+03 0.  0.
         25    1    1    2    0    0  0.77971462251E+02  0.26203758101E+03 -0.76951118220E+03  0.82614508552E+03  0.12500000000E+03 0.  0.
</event>
<event>
 5    0  0.5612316E-005  0.2206879E+03  0.7546771E-02  0.1133371E+00
         21   -1    0    0  502  501  0.00000000000E+00  0.00000000000E+00  0.97158127746E+03  0.97158127746E+03  0.00000000000E+00 0. -1.
         21   -1    0    0  501  502 -0.00000000000E+00 -0.00000000000E+00 -0.50127733178E+02  0.50127733178E+02  0.00000000000E+00 0. -1.
         25    1    1    2    0    0 -0.22439718851E+02  0.10274996943E+00  0.39001169220E+03  0.41016785782E+03  0.12500000000E+03 0.  0.
         25    1    1    2    0    0  0.40937768064E+02  0.75967742685E+01  0.11044003315E+03  0.17191745913E+03  0.12500000000E+03 0.  0.
         25    1    1    2    0    0 -0.18498049212E+02 -0.76995242379E+01  0.42100181894E+03  0.43962369368E+03  0.12500000000E+03 0.  0.
</event>
<event>
 5    0  0.6745314E-005  0.3321347E+03  0.7546771E-02  0.1070196E+00
         21   -1    0    0  502  501  0.00000000000E+00  0.00000000000E+00  0.11658518673E+04  0.11658518673E+04  0.00000000000E+00 0. -1.
         21   -1    0    0  501  502 -0.00000000000E+00 -0.00000000000E+00 -0.94620458205E+02  0.94620458205E+02  0.00000000000E+00 0. -1.
         25    1    1    2    0    0 -0.11063750178E+03  0.90386877081E+02  0.51014794654E+03  0.54432193756E+03  0.12500000000E+03 0.  0.
         25    1    1    2    0    0  0.13071548963E+03  0.90250622963E+02  0.38136976394E+03  0.43162438650E+03  0.12500000000E+03 0.  0.
         25    1    1    2    0    0 -0.20077987851E+02 -0.18063750004E+03  0.17971369856E+03  0.28452600139E+03  0.12500000000E+03 0.  0.
</event>
<event>
 5    0  0.5612316E-005  0.3207313E+03  0.7546771E-02  0.1075313E+00
         21   -1    0    0  502  501  0.00000000000E+00  0.00000000000E+00  0.19623791271E+03  0.19623791271E+03  0.00000000000E+00 0.  1.
         21   -1    0    0  501  502 -0.00000000000E+00 -0.00000000000E+00 -0.52420320976E+03  0.52420320976E+03  0.00000000000E+00 0.  1.
         25    1    1    2    0    0  0.96255318046E+02  0.16160274502E+01  0.76983027378E+02  0.17555365078E+03  0.12500000000E+03 0.  0.
         25    1    1    2    0    0 -0.51198517517E+02  0.12007240867E+03 -0.16419656484E+03  0.24418063688E+03  0.12500000000E+03 0.  0.
         25    1    1    2    0    0 -0.45056800529E+02 -0.12168843612E+03 -0.24075175959E+03  0.30070683482E+03  0.12500000000E+03 0.  0.
</event>
<event>
 5    0  0.5612316E-005  0.3937275E+03  0.7546771E-02  0.1045974E+00
         21   -1    0    0  502  501  0.00000000000E+00  0.00000000000E+00  0.96966957916E+03  0.96966957916E+03  0.00000000000E+00 0.  1.
         21   -1    0    0  501  502 -0.00000000000E+00 -0.00000000000E+00 -0.15987029169E+03  0.15987029169E+03  0.00000000000E+00 0.  1.
         25    1    1    2    0    0  0.15421956967E+03 -0.17936090924E+03  0.24229842861E+03  0.36095365345E+03  0.12500000000E+03 0.  0.
         25    1    1    2    0    0 -0.26553496203E+03  0.10016132705E+03  0.45909230448E+03  0.55401430625E+03  0.12500000000E+03 0.  0.
         25    1    1    2    0    0  0.11131539235E+03  0.79199582195E+02  0.10840855438E+03  0.21457191116E+03  0.12500000000E+03 0.  0.
</event>
<event>
 5    0  0.5612316E-005  0.3511243E+03  0.7546771E-02  0.1062155E+00
         21   -1    0    0  502  501  0.00000000000E+00  0.00000000000E+00  0.63811046991E+03  0.63811046991E+03  0.00000000000E+00 0.  1.
         21   -1    0    0  501  502 -0.00000000000E+00 -0.00000000000E+00 -0.19320837112E+03  0.19320837112E+03  0.00000000000E+00 0.  1.
         25    1    1    2    0    0 -0.27610132778E+02  0.32426955832E+02  0.20155296727E+01  0.13207153083E+03  0.12500000000E+03 0.  0.
         25    1    1    2    0    0 -0.14382557667E+03 -0.19129996212E+03  0.27553088669E+03  0.38577680274E+03  0.12500000000E+03 0.  0.
         25    1    1    2    0    0  0.17143570945E+03  0.15887300629E+03  0.16735568243E+03  0.31347050745E+03  0.12500000000E+03 0.  0.
</event>
<event>
 5    0  0.5612316E-005  0.2309710E+03  0.7546771E-02  0.1125958E+00
         21   -1    0    0  502  501  0.00000000000E+00  0.00000000000E+00  0.62916087302E+02  0.62916087302E+02  0.00000000000E+00 0.  1.
         21   -1    0    0  501  502 -0.00000000000E+00 -0.00000000000E+00 -0.84791662872E+03  0.84791662872E+03  0.00000000000E+00 0.  1.
         25    1    1    2    0    0 -0.51481404965E+02  0.38724741850E+02 -0.23620014006E+03  0.27489170023E+03  0.12500000000E+03 0.  0.
         25    1    1    2    0    0  0.32376708541E+02  0.54756540959E+02 -0.14103055699E+03  0.19889984424E+03  0.12500000000E+03 0.  0.
         25    1    1    2    0    0  0.19104696424E+02 -0.93481282808E+02 -0.40776984437E+03  0.43704117156E+03  0.12500000000E+03 0.  0.
</event>
<event>
 5    0  0.5612316E-005  0.3081336E+03  0.7546771E-02  0.1081244E+00
         21   -1    0    0  502  501  0.00000000000E+00  0.00000000000E+00  0.14960336068E+04  0.14960336068E+04  0.00000000000E+00 0. -1.
         21   -1    0    0  501  502 -0.00000000000E+00 -0.00000000000E+00 -0.63465376747E+02  0.63465376747E+02  0.00000000000E+00 0. -1.
         25    1    1    2    0    0  0.72281963106E+02  0.68541081984E+01  0.78852687113E+02  0.16466452944E+03  0.12500000000E+03 0.  0.
         25    1    1    2    0    0 -0.79733974703E+02 -0.18097626185E+00  0.31020635494E+03  0.34381757098E+03  0.12500000000E+03 0.  0.
         25    1    1    2    0    0  0.74520115967E+01 -0.66731319366E+01  0.10435091880E+04  0.10510168831E+04  0.12500000000E+03 0.  0.
</event>
<event>
 5    0  0.5612316E-005  0.2654149E+03  0.7546771E-02  0.1103933E+00
         21   -1    0    0  502  501  0.00000000000E+00  0.00000000000E+00  0.55655686607E+02  0.55655686607E+02  0.00000000000E+00 0.  1.
         21   -1    0    0  501  502 -0.00000000000E+00 -0.00000000000E+00 -0.12657303890E+04  0.12657303890E+04  0.00000000000E+00 0.  1.
         25    1    1    2    0    0  0.51647952846E+02  0.83148287636E+02 -0.20524760857E+03  0.25948550941E+03  0.12500000000E+03 0.  0.
         25    1    1    2    0    0 -0.71598213245E+02  0.55015627527E+02 -0.50909575282E+03  0.53193656479E+03  0.12500000000E+03 0.  0.
         25    1    1    2    0    0  0.19950260399E+02 -0.13816391516E+03 -0.49573134100E+03  0.52996400141E+03  0.12500000000E+03 0.  0.
</event>
<event>
 5    0  0.5612316E-005  0.2292158E+03  0.7546771E-02  0.1127193E+00
         21   -1    0    0  502  501  0.00000000000E+00  0.00000000000E+00  0.15659878201E+03  0.15659878201E+03  0.00000000000E+00 0. -1.
         21   -1    0    0  501  502 -0.00000000000E+00 -0.00000000000E+00 -0.33550637779E+03  0.33550637779E+03  0.00000000000E+00 0. -1.
         25    1    1    2    0    0  0.19223876024E+02 -0.62430835817E+02 -0.16711454531E+02  0.14202619259E+03  0.12500000000E+03 0.  0.
         25    1    1    2    0    0  0.45703697889E+02  0.50229227332E+02 -0.10395822627E+02  0.14263546686E+03  0.12500000000E+03 0.  0.
         25    1    1    2    0    0 -0.64927573912E+02  0.12201608485E+02 -0.15180031862E+03  0.20744350035E+03  0.12500000000E+03 0.  0.
</event>
<event>
 5    0  0.5612316E-005  0.3058423E+03  0.7546771E-02  0.1082356E+00
         21   -1    0    0  502  501  0.00000000000E+00  0.00000000000E+00  0.15605923293E+03  0.15605923293E+03  0.00000000000E+00 0. -1.
         21   -1    0    0  501  502 -0.00000000000E+00 -0.00000000000E+00 -0.59938476298E+03  0.59938476298E+03  0.00000000000E+00 0. -1.
         25    1    1    2    0    0 -0.22928594868E+01  0.10220999254E+03 -0.40179042742E+02  0.16640761778E+03  0.12500000000E+03 0.  0.
         25    1    1    2    0    0  0.86535452613E+02 -0.96140613540E+02 -0.24620954660E+02  0.18155603416E+03  0.12500000000E+03 0.  0.
         25    1    1    2    0    0 -0.84242593126E+02 -0.60693789950E+01 -0.37852553265E+03  0.40748034397E+03  0.12500000000E+03 0.  0.
</event>
<event>
 5    0  0.5612316E-005  0.3023264E+03  0.7546771E-02  0.1084083E+00
         21   -1    0    0  502  501  0.00000000000E+00  0.00000000000E+00  0.13503848189E+03  0.13503848189E+03  0.00000000000E+00 0. -1.
         21   -1    0    0  501  502 -0.00000000000E+00 -0.00000000000E+00 -0.67685334432E+03  0.67685334432E+03  0.00000000000E+00 0. -1.
         25    1    1    2    0    0 -0.13349050525E+03  0.10972297075E+03 -0.22882875097E+03  0.31280416010E+03  0.12500000000E+03 0.  0.
         25    1    1    2    0    0  0.22074044918E+02 -0.40713751871E+02  0.47180952046E+01  0.13338715633E+03  0.12500000000E+03 0.  0.
         25    1    1    2    0    0  0.11141646033E+03 -0.69009218883E+02 -0.31770420667E+03  0.36570050979E+03  0.12500000000E+03 0.  0.
</event>
<event>
 5    0  0.5612316E-005  0.3757584E+03  0.7546771E-02  0.1052513E+00
         21   -1    0    0  502  501  0.00000000000E+00  0.00000000000E+00  0.19366237474E+03  0.19366237474E+03  0.00000000000E+00 0.  1.
         21   -1    0    0  501  502 -0.00000000000E+00 -0.00000000000E+00 -0.72907507050E+03  0.72907507050E+03  0.00000000000E+00 0.  1.
         25    1    1    2    0    0 -0.22542299055E+03 -0.11046118933E+03 -0.16849915241E+03  0.32716076076E+03  0.12500000000E+03 0.  0.
         25    1    1    2    0    0  0.84047947144E+02 -0.63456493658E+01 -0.34011073816E+03  0.37202773942E+03  0.12500000000E+03 0.  0.
         25    1    1    2    0    0  0.14137504341E+03  0.11680683870E+03 -0.26802805185E+02  0.22354894505E+03  0.12500000000E+03 0.  0.
</event>
<event>
 5    0  0.5612316E-005  0.3848286E+03  0.7546771E-02  0.1049163E+00
         21   -1    0    0  502  501  0.00000000000E+00  0.00000000000E+00  0.11836281532E+03  0.11836281532E+03  0.00000000000E+00 0.  1.
         21   -1    0    0  501  502 -0.00000000000E+00 -0.00000000000E+00 -0.12511785789E+04  0.12511785789E+04  0.00000000000E+00 0.  1.
         25    1    1    2    0    0 -0.62327487134E+02 -0.88376827875E+02 -0.28267122788E+03  0.32744954181E+03  0.12500000000E+03 0.  0.
         25    1    1    2    0    0 -0.14308936992E+03  0.98056376108E+02 -0.68924078439E+02  0.22464449530E+03  0.12500000000E+03 0.  0.
         25    1    1    2    0    0  0.20541685706E+03 -0.96795482333E+01 -0.78122045727E+03  0.81744735713E+03  0.12500000000E+03 0.  0.
</event>
<event>
 5    0  0.5612316E-005  0.2851307E+03  0.7546771E-02  0.1092919E+00
         21   -1    0    0  502  501  0.00000000000E+00  0.00000000000E+00  0.10522228984E+03  0.10522228984E+03  0.00000000000E+00 0.  1.
         21   -1    0    0  501  502 -0.00000000000E+00 -0.00000000000E+00 -0.77264529027E+03  0.77264529027E+03  0.00000000000E+00 0.  1.
         25    1    1    2    0    0  0.11517214290E+03  0.12319614729E+03 -0.34620395003E+03  0.40487539839E+03  0.12500000000E+03 0.  0.
         25    1    1    2    0    0 -0.94563034839E+02 -0.13294331558E+03 -0.26148629125E+03  0.33259009791E+03  0.12500000000E+03 0.  0.
         25    1    1    2    0    0 -0.20609108057E+02  0.97471682911E+01 -0.59732759153E+02  0.14040208382E+03  0.12500000000E+03 0.  0.
</event>
<event>
 5    0  0.5612316E-005  0.3455350E+03  0.7546771E-02  0.1064463E+00
         21   -1    0    0  502  501  0.00000000000E+00  0.00000000000E+00  0.23013787781E+03  0.23013787781E+03  0.00000000000E+00 0.  1.
         21   -1    0    0  501  502 -0.00000000000E+00 -0.00000000000E+00 -0.51879523859E+03  0.51879523859E+03  0.00000000000E+00 0.  1.
         25    1    1    2    0    0 -0.98394083664E+02  0.20437156171E+03 -0.23463279893E+03  0.34946628059E+03  0.12500000000E+03 0.  0.
         25    1    1    2    0    0  0.12835738711E+03 -0.99949036558E+02  0.40005910465E+02  0.20902368671E+03  0.12500000000E+03 0.  0.
         25    1    1    2    0    0 -0.29963303450E+02 -0.10442252515E+03 -0.94030472326E+02  0.19044314910E+03  0.12500000000E+03 0.  0.
</event>
<event>
 5    0  0.5612316E-005  0.2792714E+03  0.7546771E-02  0.1096088E+00
         21   -1    0    0  502  501  0.00000000000E+00  0.00000000000E+00  0.62674620179E+02  0.62674620179E+02  0.00000000000E+00 0.  1.
         21   -1    0    0  501  502 -0.00000000000E+00 -0.00000000000E+00 -0.12444031120E+04  0.12444031120E+04  0.00000000000E+00 0.  1.
         25    1    1    2    0    0 -0.16641575600E+03  0.30976197246E+02 -0.39096985897E+03  0.44400017935E+03  0.12500000000E+03 0.  0.
         25    1    1    2    0    0  0.11706576064E+03 -0.62428970708E+02 -0.28084240856E+03  0.33481222669E+03  0.12500000000E+03 0.  0.
         25    1    1    2    0    0  0.49349995361E+02  0.31452773463E+02 -0.50991622432E+03  0.52826532617E+03  0.12500000000E+03 0.  0.
</event>
<event>
 5    0  0.5612316E-005  0.2780986E+03  0.7546771E-02  0.1096732E+00
         21   -1    0    0  502  501  0.00000000000E+00  0.00000000000E+00  0.33828095073E+03  0.33828095073E+03  0.00000000000E+00 0.  1.
         21   -1    0    0  501  502 -0.00000000000E+00 -0.00000000000E+00 -0.22862315471E+03  0.22862315471E+03  0.00000000000E+00 0.  1.
         25    1    1    2    0    0 -0.16489512224E+03  0.35775634517E+02  0.30991486421E+02  0.21226344385E+03  0.12500000000E+03 0.  0.
         25    1    1    2    0    0  0.14174378140E+03 -0.71059159970E+02  0.17250131101E+01  0.20191255397E+03  0.12500000000E+03 0.  0.
         25    1    1    2    0    0  0.23151340841E+02  0.35283525453E+02  0.76941296492E+02  0.15272810762E+03  0.12500000000E+03 0.  0.
</event>
<event>
 5    0  0.5612316E-005  0.2450509E+03  0.7546771E-02  0.1116473E+00
         21   -1    0    0  502  501  0.00000000000E+00  0.00000000000E+00  0.52049240244E+03  0.52049240244E+03  0.00000000000E+00 0.  1.
         21   -1    0    0  501  502 -0.00000000000E+00 -0.00000000000E+00 -0.11537141622E+03  0.11537141622E+03  0.00000000000E+00 0.  1.
         25    1    1    2    0    0 -0.71333143975E+02  0.21774019999E+02  0.10548898499E+03  0.17976498917E+03  0.12500000000E+03 0.  0.
         25    1    1    2    0    0  0.16307429117E+02  0.82812297580E+02  0.21951182287E+03  0.26633484423E+03  0.12500000000E+03 0.  0.
         25    1    1    2    0    0  0.55025714858E+02 -0.10458631758E+03  0.80120178363E+02  0.18976398526E+03  0.12500000000E+03 0.  0.
</event>
<event>
 5    0  0.5612316E-005  0.9280482E+03  0.7546771E-02  0.9391183E-01
         21   -1    0    0  502  501  0.00000000000E+00  0.00000000000E+00  0.30278267747E+03  0.30278267747E+03  0.00000000000E+00 0.  1.
         21   -1    0    0  501  502 -0.00000000000E+00 -0.00000000000E+00 -0.28445269309E+04  0.28445269309E+04  0.00000000000E+00 0.  1.
         25    1    1    2    0    0 -0.82326424504E+02 -0.20662922635E+03 -0.40704623362E+03  0.48040078440E+03  0.12500000000E+03 0.  0.
         25    1    1    2    0    0 -0.26731039161E+03 -0.57098571958E+03 -0.48316992622E+03  0.80408812640E+03  0.12500000000E+03 0.  0.
         25    1    1    2    0    0  0.34963681612E+03  0.77761494592E+03 -0.16515280936E+04  0.18628206976E+04  0.12500000000E+03 0.  0.
</event>
<event>
 5    0  0.5612316E-005  0.3801380E+03  0.7546771E-02  0.1050883E+00
         21   -1    0    0  502  501  0.00000000000E+00  0.00000000000E+00  0.19353480598E+03  0.19353480598E+03  0.00000000000E+00 0. -1.
         21   -1    0    0  501  502 -0.00000000000E+00 -0.00000000000E+00 -0.74666118297E+03  0.74666118297E+03  0.00000000000E+00 0. -1.
         25    1    1    2    0    0 -0.65089669510E+02 -0.76793169630E+02  0.90352845293E+02  0.18418059787E+03  0.12500000000E+03 0.  0.
         25    1    1    2    0    0  0.41142573029E+02  0.12735842365E+03 -0.57388510147E+03  0.60239687007E+03  0.12500000000E+03 0.  0.
         25    1    1    2    0    0  0.23947096481E+02 -0.50565254017E+02 -0.69594120821E+02  0.15361852101E+03  0.12500000000E+03 0.  0.
</event>
<event>
 5    0  0.5612316E-005  0.2211413E+03  0.7546771E-02  0.1133035E+00
         21   -1    0    0  502  501  0.00000000000E+00  0.00000000000E+00  0.40967088769E+02  0.40967088769E+02  0.00000000000E+00 0. -1.
         21   -1    0    0  501  502 -0.00000000000E+00 -0.00000000000E+00 -0.11937262666E+04  0.11937262666E+04  0.00000000000E+00 0. -1.
         25    1    1    2    0    0 -0.76158943619E+00  0.83657934813E+02 -0.33055982004E+03  0.36317216950E+03  0.12500000000E+03 0.  0.
         25    1    1    2    0    0  0.25720892405E+02  0.13784448173E+02 -0.34856449880E+03  0.37144822673E+03  0.12500000000E+03 0.  0.
         25    1    1    2    0    0 -0.24959302969E+02 -0.97442382987E+02 -0.47363485898E+03  0.50007295912E+03  0.12500000000E+03 0.  0.
</event>
<event>
 5    0  0.5968592E-005  0.2909896E+03  0.7546771E-02  0.1089834E+00
         21   -1    0    0  502  501  0.00000000000E+00  0.00000000000E+00  0.23915288808E+03  0.23915288808E+03  0.00000000000E+00 0. -1.
         21   -1    0    0  501  502 -0.00000000000E+00 -0.00000000000E+00 -0.35406204150E+03  0.35406204150E+03  0.00000000000E+00 0. -1.
         25    1    1    2    0    0  0.38829539382E+02  0.98230792548E+02 -0.43740052270E+02  0.16939661716E+03  0.12500000000E+03 0.  0.
         25    1    1    2    0    0  0.29885908368E+02 -0.20238236153E+03 -0.58305269315E+02  0.24673121450E+03  0.12500000000E+03 0.  0.
         25    1    1    2    0    0 -0.68715447750E+02  0.10415156898E+03 -0.12863831835E+02  0.17708709792E+03  0.12500000000E+03 0.  0.
</event>
<event>
 5    0  0.5612316E-005  0.2522221E+03  0.7546771E-02  0.1111908E+00
         21   -1    0    0  502  501  0.00000000000E+00  0.00000000000E+00  0.88072743741E+03  0.88072743741E+03  0.00000000000E+00 0. -1.
         21   -1    0    0  501  502 -0.00000000000E+00 -0.00000000000E+00 -0.72231206573E+02  0.72231206573E+02  0.00000000000E+00 0. -1.
         25    1    1    2    0    0  0.49903408813E+02 -0.54371410642E+02  0.65561067639E+02  0.15927917032E+03  0.12500000000E+03 0.  0.
         25    1    1    2    0    0 -0.17070001059E+02 -0.36731776619E+01  0.23991965084E+03  0.27109281811E+03  0.12500000000E+03 0.  0.
         25    1    1    2    0    0 -0.32833407754E+02  0.58044588304E+02  0.50301551236E+03  0.52258665557E+03  0.12500000000E+03 0.  0.
</event>
<event>
 5    0  0.5612316E-005  0.4279861E+03  0.7546771E-02  0.1034498E+00
         21   -1    0    0  502  501  0.00000000000E+00  0.00000000000E+00  0.44226198089E+03  0.44226198089E+03  0.00000000000E+00 0.  1.
         21   -1    0    0  501  502 -0.00000000000E+00 -0.00000000000E+00 -0.41417102170E+03  0.41417102170E+03  0.00000000000E+00 0.  1.
         25    1    1    2    0    0 -0.23073957026E+03  0.86344126096E+02 -0.49384542066E+01  0.27630679638E+03  0.12500000000E+03 0.  0.
         25    1    1    2    0    0 -0.90088059708E+02  0.87295173525E+02 -0.53336684617E+02  0.18494893281E+03  0.12500000000E+03 0.  0.
         25    1    1    2    0    0  0.32082762997E+03 -0.17363929962E+03  0.86366098009E+02  0.39517727340E+03  0.12500000000E+03 0.  0.
</event>
<event>
 5    0  0.5612316E-005  0.2817291E+03  0.7546771E-02  0.1094748E+00
         21   -1    0    0  502  501  0.00000000000E+00  0.00000000000E+00  0.43069824552E+03  0.43069824552E+03  0.00000000000E+00 0.  1.
         21   -1    0    0  501  502 -0.00000000000E+00 -0.00000000000E+00 -0.18428520264E+03  0.18428520264E+03  0.00000000000E+00 0.  1.
         25    1    1    2    0    0 -0.42850452726E+02  0.13822549664E+01 -0.22892213268E+01  0.13216774365E+03  0.12500000000E+03 0.  0.
         25    1    1    2    0    0 -0.39914843966E+02 -0.12138944528E+03  0.22792610453E+03  0.28966170151E+03  0.12500000000E+03 0.  0.
         25    1    1    2    0    0  0.82765296692E+02  0.12000719032E+03  0.20776159682E+02  0.19315400300E+03  0.12500000000E+03 0.  0.
</event>
<event>
 5    0  0.5612316E-005  0.2624378E+03  0.7546771E-02  0.1105687E+00
         21   -1    0    0  502  501  0.00000000000E+00  0.00000000000E+00  0.53662507318E+03  0.53662507318E+03  0.00000000000E+00 0.  1.
         21   -1    0    0  501  502 -0.00000000000E+00 -0.00000000000E+00 -0.12834584818E+03  0.12834584818E+03  0.00000000000E+00 0. -1.
         25    1    1    2    0    0 -0.11373042204E+03 -0.12044511572E+03  0.15113269225E+03  0.25672499969E+03  0.12500000000E+03 0.  0.
         25    1    1    2    0    0  0.89039913634E+02  0.11081853834E+03  0.15457796688E+03  0.24439354022E+03  0.12500000000E+03 0.  0.
         25    1    1    2    0    0  0.24690508409E+02  0.96265773787E+01  0.10256856588E+03  0.16385238144E+03  0.12500000000E+03 0.  0.
</event>
<event>
 5    0  0.5612316E-005  0.2972133E+03  0.7546771E-02  0.1086642E+00
         21   -1    0    0  502  501  0.00000000000E+00  0.00000000000E+00  0.86023584906E+02  0.86023584906E+02  0.00000000000E+00 0.  1.
         21   -1    0    0  501  502 -0.00000000000E+00 -0.00000000000E+00 -0.10268782721E+04  0.10268782721E+04  0.00000000000E+00 0.  1.
         25    1    1    2    0    0  0.80824686676E+02  0.33051666822E+02 -0.45361245583E+03  0.47855438848E+03  0.12500000000E+03 0.  0.
         25    1    1    2    0    0  0.84144493714E+01 -0.56130677698E+02 -0.45561700040E+03  0.47585008878E+03  0.12500000000E+03 0.  0.
         25    1    1    2    0    0 -0.89239136048E+02  0.23079010876E+02 -0.31625230943E+02  0.15849737972E+03  0.12500000000E+03 0.  0.
</event>
<event>
 5    0  0.5612316E-005  0.3348024E+03  0.7546771E-02  0.1069031E+00
         21   -1    0    0  502  501  0.00000000000E+00  0.00000000000E+00  0.77200372711E+03  0.77200372711E+03  0.00000000000E+00 0.  1.
         21   -1    0    0  501  502 -0.00000000000E+00 -0.00000000000E+00 -0.14519703604E+03  0.14519703604E+03  0.00000000000E+00 0.  1.
         25    1    1    2    0    0 -0.14033173506E+03  0.43229217235E+02  0.27358797974E+03  0.33471950010E+03  0.12500000000E+03 0.  0.
         25    1    1    2    0    0  0.13754334424E+03 -0.10311279550E+03  0.10521384266E+02  0.21280535629E+03  0.12500000000E+03 0.  0.
         25    1    1    2    0    0  0.27883908166E+01  0.59883578262E+02  0.34269732705E+03  0.36967590676E+03  0.12500000000E+03 0.  0.
</event>
<event>
 5    0  0.5612316E-005  0.2368983E+03  0.7546771E-02  0.1121876E+00
         21   -1    0    0  502  501  0.00000000000E+00  0.00000000000E+00  0.35024604359E+03  0.35024604359E+03  0.00000000000E+00 0.  1.
         21   -1    0    0  501  502 -0.00000000000E+00 -0.00000000000E+00 -0.16023255960E+03  0.16023255960E+03  0.00000000000E+00 0.  1.
         25    1    1    2    0    0 -0.25431950561E+02  0.10069369090E+03  0.10929758102E+03  0.19584934187E+03  0.12500000000E+03 0.  0.
         25    1    1    2    0    0  0.27076551027E+02 -0.11412595790E+03  0.13209860777E+02  0.17192258229E+03  0.12500000000E+03 0.  0.
         25    1    1    2    0    0 -0.16446004657E+01  0.13432267001E+02  0.67506042191E+02  0.14270667903E+03  0.12500000000E+03 0.  0.
</event>
<event>
 5    0  0.5612316E-005  0.5826485E+03  0.7546771E-02  0.9942073E-01
         21   -1    0    0  502  501  0.00000000000E+00  0.00000000000E+00  0.32553317215E+03  0.32553317215E+03  0.00000000000E+00 0.  1.
         21   -1    0    0  501  502 -0.00000000000E+00 -0.00000000000E+00 -0.10428408472E+04  0.10428408472E+04  0.00000000000E+00 0.  1.
         25    1    1    2    0    0 -0.92306335612E+02  0.14310217585E+02 -0.59804482613E+03  0.61806784093E+03  0.12500000000E+03 0.  0.
         25    1    1    2    0    0  0.12430560779E+03 -0.56761222055E+02  0.27598701498E+03  0.33236659413E+03  0.12500000000E+03 0.  0.
         25    1    1    2    0    0 -0.31999272176E+02  0.42451004470E+02 -0.39524986385E+03  0.41793958424E+03  0.12500000000E+03 0.  0.
</event>
<event>
 5    0  0.5612316E-005  0.2955543E+03  0.7546771E-02  0.1087484E+00
         21   -1    0    0  502  501  0.00000000000E+00  0.00000000000E+00  0.22940516011E+03  0.22940516011E+03  0.00000000000E+00 0. -1.
         21   -1    0    0  501  502 -0.00000000000E+00 -0.00000000000E+00 -0.38077771754E+03  0.38077771754E+03  0.00000000000E+00 0. -1.
         25    1    1    2    0    0  0.45211453230E+02  0.94826228473E+02  0.12622256567E+03  0.20638126173E+03  0.12500000000E+03 0.  0.
         25    1    1    2    0    0 -0.16896185167E+02 -0.90520900414E+02 -0.99733193562E+02  0.18452973848E+03  0.12500000000E+03 0.  0.
         25    1    1    2    0    0 -0.28315268063E+02 -0.43053280584E+01 -0.17786192954E+03  0.21927187744E+03  0.12500000000E+03 0.  0.
</event>
<event>
 5    0  0.5612316E-005  0.2572590E+03  0.7546771E-02  0.1108801E+00
         21   -1    0    0  502  501  0.00000000000E+00  0.00000000000E+00  0.92982970042E+02  0.92982970042E+02  0.00000000000E+00 0. -1.
         21   -1    0    0  501  502 -0.00000000000E+00 -0.00000000000E+00 -0.71176709327E+03  0.71176709327E+03  0.00000000000E+00 0. -1.
         25    1    1    2    0    0  0.33838264620E+02 -0.66131737984E+02 -0.31690864889E+03  0.34867538867E+03  0.12500000000E+03 0.  0.
         25    1    1    2    0    0 -0.85360943656E+02 -0.26681695005E+02 -0.23090825180E+03  0.27738425388E+03  0.12500000000E+03 0.  0.
         25    1    1    2    0    0  0.51522679037E+02  0.92813432989E+02 -0.70967222534E+02  0.17869042076E+03  0.12500000000E+03 0.  0.
</event>
<event>
 5    0  0.5722643E-005  0.2694858E+03  0.7546771E-02  0.1101574E+00
         21   -1    0    0  502  501  0.00000000000E+00  0.00000000000E+00  0.48821053200E+03  0.48821053200E+03  0.00000000000E+00 0.  1.
         21   -1    0    0  501  502 -0.00000000000E+00 -0.00000000000E+00 -0.14875266573E+03  0.14875266573E+03  0.00000000000E+00 0.  1.
         25    1    1    2    0    0 -0.38994532261E+02 -0.13280698834E+03  0.65865601375E+02  0.19779167612E+03  0.12500000000E+03 0.  0.
         25    1    1    2    0    0  0.71558919919E+02  0.13347323300E+03  0.23093494148E+03  0.30313648765E+03  0.12500000000E+03 0.  0.
         25    1    1    2    0    0 -0.32564387658E+02 -0.66624466476E+00  0.42657323417E+02  0.13603503397E+03  0.12500000000E+03 0.  0.
</event>
<event>
 5    0  0.5612316E-005  0.3493039E+03  0.7546771E-02  0.1062901E+00
         21   -1    0    0  502  501  0.00000000000E+00  0.00000000000E+00  0.18563589672E+04  0.18563589672E+04  0.00000000000E+00 0.  1.
         21   -1    0    0  501  502 -0.00000000000E+00 -0.00000000000E+00 -0.65727149425E+02  0.65727149425E+02  0.00000000000E+00 0.  1.
         25    1    1    2    0    0  0.10342734891E+03  0.19255843190E+02  0.11006489567E+03  0.19699564782E+03  0.12500000000E+03 0.  0.
         25    1    1    2    0    0  0.15260224796E+02 -0.12359465224E+03  0.99514084093E+03  0.10106625578E+04  0.12500000000E+03 0.  0.
         25    1    1    2    0    0 -0.11868757370E+03  0.10433880905E+03  0.68542608113E+03  0.71442791093E+03  0.12500000000E+03 0.  0.
</event>
<event>
 5    0  0.5612316E-005  0.4465889E+03  0.7546771E-02  0.1028744E+00
         21   -1    0    0  502  501  0.00000000000E+00  0.00000000000E+00  0.76824627327E+02  0.76824627327E+02  0.00000000000E+00 0. -1.
         21   -1    0    0  501  502 -0.00000000000E+00 -0.00000000000E+00 -0.25960643231E+04  0.25960643231E+04  0.00000000000E+00 0. -1.
         25    1    1    2    0    0  0.25435222198E+03  0.10471151587E+03 -0.17914325470E+04  0.18167319904E+04  0.12500000000E+03 0.  0.
         25    1    1    2    0    0 -0.18594269742E+03 -0.53881779012E+02 -0.64227405019E+03  0.68236272493E+03  0.12500000000E+03 0.  0.
         25    1    1    2    0    0 -0.68409524562E+02 -0.50829736862E+02 -0.85533098537E+02  0.17379423508E+03  0.12500000000E+03 0.  0.
</event>
<event>
 5    0  0.5612316E-005  0.3446051E+03  0.7546771E-02  0.1064851E+00
         21   -1    0    0  502  501  0.00000000000E+00  0.00000000000E+00  0.46227698554E+03  0.46227698554E+03  0.00000000000E+00 0.  1.
         21   -1    0    0  501  502 -0.00000000000E+00 -0.00000000000E+00 -0.25688638725E+03  0.25688638725E+03  0.00000000000E+00 0.  1.
         25    1    1    2    0    0 -0.14710974681E+03 -0.20842901985E+03  0.74312665215E+02  0.29365167484E+03  0.12500000000E+03 0.  0.
         25    1    1    2    0    0  0.68708404550E+02  0.53643761055E+02 -0.33057319152E+02  0.15593679587E+03  0.12500000000E+03 0.  0.
         25    1    1    2    0    0  0.78401342263E+02  0.15478525880E+03  0.16413525223E+03  0.26957490209E+03  0.12500000000E+03 0.  0.
</event>
<event>
 5    0  0.5612316E-005  0.4006900E+03  0.7546771E-02  0.1043541E+00
         21   -1    0    0  502  501  0.00000000000E+00  0.00000000000E+00  0.59806613479E+03  0.59806613479E+03  0.00000000000E+00 0.  1.
         21   -1    0    0  501  502 -0.00000000000E+00 -0.00000000000E+00 -0.26845265052E+03  0.26845265052E+03  0.00000000000E+00 0.  1.
         25    1    1    2    0    0  0.20377286465E+03  0.32479983582E+02  0.63612175636E+01  0.24133751219E+03  0.12500000000E+03 0.  0.
         25    1    1    2    0    0 -0.24841949829E+03 -0.16890411443E+03  0.12019523540E+03  0.34686127143E+03  0.12500000000E+03 0.  0.
         25    1    1    2    0    0  0.44646633644E+02  0.13642413085E+03  0.20305703131E+03  0.27832000169E+03  0.12500000000E+03 0.  0.
</event>
<event>
 5    0  0.5612316E-005  0.3208063E+03  0.7546771E-02  0.1075279E+00
         21   -1    0    0  502  501  0.00000000000E+00  0.00000000000E+00  0.31743056554E+02  0.31743056554E+02  0.00000000000E+00 0. -1.
         21   -1    0    0  501  502 -0.00000000000E+00 -0.00000000000E+00 -0.32421783346E+04  0.32421783346E+04  0.00000000000E+00 0. -1.
         25    1    1    2    0    0 -0.15356294879E+03 -0.64764173142E+02 -0.10020175799E+04  0.10234452637E+04  0.12500000000E+03 0.  0.
         25    1    1    2    0    0  0.16888254559E+03  0.12325629438E+03 -0.82790582371E+03  0.86299854069E+03  0.12500000000E+03 0.  0.
         25    1    1    2    0    0 -0.15319596798E+02 -0.58492121237E+02 -0.13805118745E+04  0.13874775868E+04  0.12500000000E+03 0.  0.
</event>
<event>
 5    0  0.5612316E-005  0.2426353E+03  0.7546771E-02  0.1118050E+00
         21   -1    0    0  502  501  0.00000000000E+00  0.00000000000E+00  0.28267407418E+03  0.28267407418E+03  0.00000000000E+00 0. -1.
         21   -1    0    0  501  502 -0.00000000000E+00 -0.00000000000E+00 -0.20826776353E+03  0.20826776353E+03  0.00000000000E+00 0. -1.
         25    1    1    2    0    0  0.31946726685E+02 -0.22519759354E+02  0.23406715109E+02  0.13304362901E+03  0.12500000000E+03 0.  0.
         25    1    1    2    0    0 -0.68471586710E+02 -0.20827461861E+02 -0.82865983701E+02  0.16617434402E+03  0.12500000000E+03 0.  0.
         25    1    1    2    0    0  0.36524860025E+02  0.43347221215E+02  0.13386557924E+03  0.19172386469E+03  0.12500000000E+03 0.  0.
</event>
<event>
 5    0  0.5895649E-005  0.3692174E+03  0.7546771E-02  0.1054993E+00
         21   -1    0    0  502  501  0.00000000000E+00  0.00000000000E+00  0.47051299128E+03  0.47051299128E+03  0.00000000000E+00 0. -1.
         21   -1    0    0  501  502 -0.00000000000E+00 -0.00000000000E+00 -0.28972945197E+03  0.28972945197E+03  0.00000000000E+00 0. -1.
         25    1    1    2    0    0 -0.24615003897E+02  0.20224968820E+02  0.29609546512E+03  0.32297441423E+03  0.12500000000E+03 0.  0.
         25    1    1    2    0    0  0.79551761365E+02  0.14432995331E+03 -0.40786692598E+02  0.21082735224E+03  0.12500000000E+03 0.  0.
         25    1    1    2    0    0 -0.54936757468E+02 -0.16455492213E+03 -0.74525233206E+02  0.22644067678E+03  0.12500000000E+03 0.  0.
</event>
<event>
 5    0  0.5612316E-005  0.3891370E+03  0.7546771E-02  0.1047607E+00
         21   -1    0    0  502  501  0.00000000000E+00  0.00000000000E+00  0.17289897699E+03  0.17289897699E+03  0.00000000000E+00 0.  1.
         21   -1    0    0  501  502 -0.00000000000E+00 -0.00000000000E+00 -0.87581557489E+03  0.87581557489E+03  0.00000000000E+00 0.  1.
         25    1    1    2    0    0  0.66021012207E+02  0.12606060605E+03 -0.48411317422E+03  0.51984672347E+03  0.12500000000E+03 0.  0.
         25    1    1    2    0    0 -0.68134629333E+02 -0.11250272253E+03  0.84773421229E+02  0.20027661680E+03  0.12500000000E+03 0.  0.
         25    1    1    2    0    0  0.21136171255E+01 -0.13557883521E+02 -0.30357684491E+03  0.32859121161E+03  0.12500000000E+03 0.  0.
</event>
<event>
 5    0  0.5612316E-005  0.2628354E+03  0.7546771E-02  0.1105452E+00
         21   -1    0    0  502  501  0.00000000000E+00  0.00000000000E+00  0.52051342473E+03  0.52051342473E+03  0.00000000000E+00 0.  1.
         21   -1    0    0  501  502 -0.00000000000E+00 -0.00000000000E+00 -0.13271983537E+03  0.13271983537E+03  0.00000000000E+00 0.  1.
         25    1    1    2    0    0 -0.26742229734E+02  0.81524332504E+02  0.70791977558E+02  0.16732563380E+03  0.12500000000E+03 0.  0.
         25    1    1    2    0    0 -0.11189033351E+03 -0.94707892728E+01  0.13799584031E+03  0.21743273564E+03  0.12500000000E+03 0.  0.
         25    1    1    2    0    0  0.13863256325E+03 -0.72053543231E+02  0.17900577149E+03  0.26847489066E+03  0.12500000000E+03 0.  0.
</event>
<event>
 5    0  0.5612316E-005  0.4323824E+03  0.7546771E-02  0.1033110E+00
         21   -1    0    0  502  501  0.00000000000E+00  0.00000000000E+00  0.84294905445E+03  0.84294905445E+03  0.00000000000E+00 0.  1.
         21   -1    0    0  501  502 -0.00000000000E+00 -0.00000000000E+00 -0.22178632213E+03  0.22178632213E+03  0.00000000000E+00 0.  1.
         25    1    1    2    0    0  0.27816111643E+03  0.16197113236E+03  0.44462721627E+03  0.56296235741E+03  0.12500000000E+03 0.  0.
         25    1    1    2    0    0 -0.15674740605E+03  0.36671054465E+02  0.97699604571E+02  0.22601930952E+03  0.12500000000E+03 0.  0.
         25    1    1    2    0    0 -0.12141371038E+03 -0.19864218683E+03  0.78835911481E+02  0.27575370966E+03  0.12500000000E+03 0.  0.
</event>
<event>
 5    0  0.5612316E-005  0.3066427E+03  0.7546771E-02  0.1081966E+00
         21   -1    0    0  502  501  0.00000000000E+00  0.00000000000E+00  0.46106948720E+03  0.46106948720E+03  0.00000000000E+00 0. -1.
         21   -1    0    0  501  502 -0.00000000000E+00 -0.00000000000E+00 -0.20393830393E+03  0.20393830393E+03  0.00000000000E+00 0. -1.
         25    1    1    2    0    0  0.22730354494E+03 -0.47448825250E+02  0.13730262264E+03  0.29731347555E+03  0.12500000000E+03 0.  0.
         25    1    1    2    0    0 -0.11489366590E+03  0.19537277888E+02  0.94862168700E+02  0.19546378371E+03  0.12500000000E+03 0.  0.
         25    1    1    2    0    0 -0.11240987904E+03  0.27911547362E+02  0.24966391931E+02  0.17223053187E+03  0.12500000000E+03 0.  0.
</event>
<event>
 5    0  0.5612316E-005  0.2789998E+03  0.7546771E-02  0.1096236E+00
         21   -1    0    0  502  501  0.00000000000E+00  0.00000000000E+00  0.77733388523E+02  0.77733388523E+02  0.00000000000E+00 0.  1.
         21   -1    0    0  501  502 -0.00000000000E+00 -0.00000000000E+00 -0.10013827958E+04  0.10013827958E+04  0.00000000000E+00 0.  1.
         25    1    1    2    0    0 -0.16842087691E+03 -0.12436573125E+02 -0.18682445077E+03  0.28115589187E+03  0.12500000000E+03 0.  0.
         25    1    1    2    0    0  0.70271828732E+02 -0.13885369202E+02 -0.38255483828E+03  0.40878372972E+03  0.12500000000E+03 0.  0.
         25    1    1    2    0    0  0.98149048178E+02  0.26321942327E+02 -0.35427011818E+03  0.38917656268E+03  0.12500000000E+03 0.  0.
</event>
<event>
 5    0  0.5612316E-005  0.3175639E+03  0.7546771E-02  0.1076776E+00
         21   -1    0    0  502  501  0.00000000000E+00  0.00000000000E+00  0.45781661477E+03  0.45781661477E+03  0.00000000000E+00 0. -1.
         21   -1    0    0  501  502 -0.00000000000E+00 -0.00000000000E+00 -0.22027779493E+03  0.22027779493E+03  0.00000000000E+00 0. -1.
         25    1    1    2    0    0 -0.10442608492E+03  0.60848302878E+02  0.22551276864E+03  0.28476013063E+03  0.12500000000E+03 0.  0.
         25    1    1    2    0    0 -0.27215527354E+02 -0.44840249543E+02 -0.10952728037E+03  0.17427724480E+03  0.12500000000E+03 0.  0.
         25    1    1    2    0    0  0.13164161227E+03 -0.16008053335E+02  0.12155333157E+03  0.21905703428E+03  0.12500000000E+03 0.  0.
</event>
<event>
 5    0  0.5612316E-005  0.2518098E+03  0.7546771E-02  0.1112166E+00
         21   -1    0    0  502  501  0.00000000000E+00  0.00000000000E+00  0.45361830111E+02  0.45361830111E+02  0.00000000000E+00 0.  1.
         21   -1    0    0  501  502 -0.00000000000E+00 -0.00000000000E+00 -0.13978313367E+04  0.13978313367E+04  0.00000000000E+00 0.  1.
         25    1    1    2    0    0  0.69634684296E+02 -0.13797456459E+02 -0.53160095504E+03  0.55069404796E+03  0.12500000000E+03 0.  0.
         25    1    1    2    0    0 -0.11148585511E+02  0.11613898724E+03 -0.31749316416E+03  0.36060985096E+03  0.12500000000E+03 0.  0.
         25    1    1    2    0    0 -0.58486098785E+02 -0.10234153078E+03 -0.50337538740E+03  0.53188926791E+03  0.12500000000E+03 0.  0.
</event>
<event>
 5    0  0.5612316E-005  0.2966683E+03  0.7546771E-02  0.1086918E+00
         21   -1    0    0  502  501  0.00000000000E+00  0.00000000000E+00  0.20495987014E+04  0.20495987014E+04  0.00000000000E+00 0. -1.
         21   -1    0    0  501  502 -0.00000000000E+00 -0.00000000000E+00 -0.42941135731E+02  0.42941135731E+02  0.00000000000E+00 0. -1.
         25    1    1    2    0    0  0.10813689122E+03  0.14585601300E+03  0.63754175092E+03  0.67457545756E+03  0.12500000000E+03 0.  0.
         25    1    1    2    0    0 -0.11047656818E+03 -0.17236952667E+03  0.94836796181E+03  0.97823469415E+03  0.12500000000E+03 0.  0.
         25    1    1    2    0    0  0.23396769528E+01  0.26513513668E+02  0.42074785293E+03  0.43972968542E+03  0.12500000000E+03 0.  0.
</event>
<event>
 5    0  0.5612316E-005  0.2768502E+03  0.7546771E-02  0.1097422E+00
         21   -1    0    0  502  501  0.00000000000E+00  0.00000000000E+00  0.21433048105E+03  0.21433048105E+03  0.00000000000E+00 0.  1.
         21   -1    0    0  501  502 -0.00000000000E+00 -0.00000000000E+00 -0.35760669755E+03  0.35760669755E+03  0.00000000000E+00 0.  1.
         25    1    1    2    0    0 -0.18066933514E+02  0.84797560233E+02 -0.10965435817E+03  0.18752631435E+03  0.12500000000E+03 0.  0.
         25    1    1    2    0    0 -0.78593705733E+02  0.55451959879E+02  0.36330127151E+02  0.16185415835E+03  0.12500000000E+03 0.  0.
         25    1    1    2    0    0  0.96660639248E+02 -0.14024952011E+03 -0.69951985476E+02  0.22255670591E+03  0.12500000000E+03 0.  0.
</event>
<event>
 5    0  0.5612316E-005  0.5071182E+03  0.7546771E-02  0.1011937E+00
         21   -1    0    0  502  501  0.00000000000E+00  0.00000000000E+00  0.15683892032E+03  0.15683892032E+03  0.00000000000E+00 0. -1.
         21   -1    0    0  501  502 -0.00000000000E+00 -0.00000000000E+00 -0.16397007683E+04  0.16397007683E+04  0.00000000000E+00 0. -1.
         25    1    1    2    0    0 -0.12949495071E+03 -0.19706348352E+03 -0.12695571718E+03  0.29554308133E+03  0.12500000000E+03 0.  0.
         25    1    1    2    0    0  0.33206511570E+03  0.57065560494E+02 -0.64533837626E+03  0.73865441116E+03  0.12500000000E+03 0.  0.
         25    1    1    2    0    0 -0.20257016499E+03  0.13999792303E+03 -0.71056775453E+03  0.76234219611E+03  0.12500000000E+03 0.  0.
</event>
<event>
 5    0  0.5612316E-005  0.3582952E+03  0.7546771E-02  0.1059261E+00
         21   -1    0    0  502  501  0.00000000000E+00  0.00000000000E+00  0.55500658209E+03  0.55500658209E+03  0.00000000000E+00 0. -1.
         21   -1    0    0  501  502 -0.00000000000E+00 -0.00000000000E+00 -0.23130435976E+03  0.23130435976E+03  0.00000000000E+00 0. -1.
         25    1    1    2    0    0  0.25188639088E+03 -0.76311027374E+02  0.26807009145E+02  0.29259826136E+03  0.12500000000E+03 0.  0.
         25    1    1    2    0    0 -0.14522762012E+03  0.11456815787E+03  0.19632672727E+03  0.29729801258E+03  0.12500000000E+03 0.  0.
         25    1    1    2    0    0 -0.10665877076E+03 -0.38257130495E+02  0.10056848592E+03  0.19641466792E+03  0.12500000000E+03 0.  0.
</event>
<event>
 5    0  0.5612316E-005  0.2741913E+03  0.7546771E-02  0.1098905E+00
         21   -1    0    0  502  501  0.00000000000E+00  0.00000000000E+00  0.15933153643E+03  0.15933153643E+03  0.00000000000E+00 0.  1.
         21   -1    0    0  501  502 -0.00000000000E+00 -0.00000000000E+00 -0.47185164509E+03  0.47185164509E+03  0.00000000000E+00 0.  1.
         25    1    1    2    0    0  0.10893715470E+03 -0.48553370008E+02  0.93155089773E+01  0.17302170997E+03  0.12500000000E+03 0.  0.
         25    1    1    2    0    0  0.32420143087E+02  0.22672085859E+02 -0.94686985681E+02  0.16172728407E+03  0.12500000000E+03 0.  0.
         25    1    1    2    0    0 -0.14135729779E+03  0.25881284148E+02 -0.22714863196E+03  0.29643418748E+03  0.12500000000E+03 0.  0.
</event>
<event>
 5    0  0.6303894E-005  0.2953870E+03  0.7546771E-02  0.1087570E+00
         21   -1    0    0  502  501  0.00000000000E+00  0.00000000000E+00  0.21613646887E+03  0.21613646887E+03  0.00000000000E+00 0. -1.
         21   -1    0    0  501  502 -0.00000000000E+00 -0.00000000000E+00 -0.40369617542E+03  0.40369617542E+03  0.00000000000E+00 0. -1.
         25    1    1    2    0    0  0.18817958530E+03 -0.90507432969E+02 -0.91947633963E+02  0.26015864225E+03  0.12500000000E+03 0.  0.
         25    1    1    2    0    0 -0.12426763414E+03  0.19220905387E+02 -0.97226650154E+02  0.20221253571E+03  0.12500000000E+03 0.  0.
         25    1    1    2    0    0 -0.63911951159E+02  0.71286527582E+02  0.16145775637E+01  0.15746146632E+03  0.12500000000E+03 0.  0.
</event>
<event>
 5    0  0.5612316E-005  0.2272597E+03  0.7546771E-02  0.1128583E+00
         21   -1    0    0  502  501  0.00000000000E+00  0.00000000000E+00  0.65656670373E+03  0.65656670373E+03  0.00000000000E+00 0.  1.
         21   -1    0    0  501  502 -0.00000000000E+00 -0.00000000000E+00 -0.78662202606E+02  0.78662202606E+02  0.00000000000E+00 0.  1.
         25    1    1    2    0    0 -0.22851676514E+02  0.56182670547E+02  0.80256329884E+02  0.16045176869E+03  0.12500000000E+03 0.  0.
         25    1    1    2    0    0 -0.14418213018E+02 -0.70312930421E+02  0.17661305662E+03  0.22796702573E+03  0.12500000000E+03 0.  0.
         25    1    1    2    0    0  0.37269889532E+02  0.14130259874E+02  0.32103511462E+03  0.34681011192E+03  0.12500000000E+03 0.  0.
</event>
<event>
 5    0  0.5865651E-005  0.2907905E+03  0.7546771E-02  0.1089937E+00
         21   -1    0    0  502  501  0.00000000000E+00  0.00000000000E+00  0.20513324507E+03  0.20513324507E+03  0.00000000000E+00 0.  1.
         21   -1    0    0  501  502 -0.00000000000E+00 -0.00000000000E+00 -0.41221550679E+03  0.41221550679E+03  0.00000000000E+00 0.  1.
         25    1    1    2    0    0  0.23423449164E+02  0.74167558942E+02  0.17336829931E+01  0.14723277633E+03  0.12500000000E+03 0.  0.
         25    1    1    2    0    0 -0.11540400483E+03 -0.69283287230E+02 -0.24928699052E+03  0.30965668387E+03  0.12500000000E+03 0.  0.
         25    1    1    2    0    0  0.91980555668E+02 -0.48842717123E+01  0.40471045814E+02  0.16045929166E+03  0.12500000000E+03 0.  0.
</event>
<event>
 5    0  0.5612316E-005  0.3449237E+03  0.7546771E-02  0.1064718E+00
         21   -1    0    0  502  501  0.00000000000E+00  0.00000000000E+00  0.17897309898E+03  0.17897309898E+03  0.00000000000E+00 0. -1.
         21   -1    0    0  501  502 -0.00000000000E+00 -0.00000000000E+00 -0.66475003785E+03  0.66475003785E+03  0.00000000000E+00 0. -1.
         25    1    1    2    0    0  0.28460551094E+02 -0.43023801668E+02 -0.10762893588E+03  0.17282950650E+03  0.12500000000E+03 0.  0.
         25    1    1    2    0    0  0.34444405700E+02 -0.17379910683E+03 -0.46105126255E+01  0.21688430890E+03  0.12500000000E+03 0.  0.
         25    1    1    2    0    0 -0.62904956793E+02  0.21682290850E+03 -0.37353749036E+03  0.45400932143E+03  0.12500000000E+03 0.  0.
</event>
<event>
 5    0  0.5612316E-005  0.4467369E+03  0.7546771E-02  0.1028700E+00
         21   -1    0    0  502  501  0.00000000000E+00  0.00000000000E+00  0.62855214180E+03  0.62855214180E+03  0.00000000000E+00 0.  1.
         21   -1    0    0  501  502 -0.00000000000E+00 -0.00000000000E+00 -0.31751357862E+03  0.31751357862E+03  0.00000000000E+00 0.  1.
         25    1    1    2    0    0  0.14255632074E+02  0.23948024704E+03 -0.22905721693E+02  0.27148422395E+03  0.12500000000E+03 0.  0.
         25    1    1    2    0    0  0.96426818029E+02  0.11272868593E+03  0.82923741501E+02  0.21096737845E+03  0.12500000000E+03 0.  0.
         25    1    1    2    0    0 -0.11068245010E+03 -0.35220893297E+03  0.25102054337E+03  0.46361411801E+03  0.12500000000E+03 0.  0.
</event>
<event>
 5    0  0.5612316E-005  0.3138492E+03  0.7546771E-02  0.1078515E+00
         21   -1    0    0  502  501  0.00000000000E+00  0.00000000000E+00  0.95651489574E+03  0.95651489574E+03  0.00000000000E+00 0. -1.
         21   -1    0    0  501  502 -0.00000000000E+00 -0.00000000000E+00 -0.10297940422E+03  0.10297940422E+03  0.00000000000E+00 0. -1.
         25    1    1    2    0    0 -0.16320571939E+03 -0.11816878034E+03  0.26487697120E+03  0.35550636754E+03  0.12500000000E+03 0.  0.
         25    1    1    2    0    0  0.58956599979E+02  0.24393363640E+02  0.44756812352E+03  0.46905558525E+03  0.12500000000E+03 0.  0.
         25    1    1    2    0    0  0.10424911941E+03  0.93775416703E+02  0.14109039680E+03  0.23493234717E+03  0.12500000000E+03 0.  0.
</event>
<event>
 5    0  0.5612316E-005  0.2804695E+03  0.7546771E-02  0.1095433E+00
         21   -1    0    0  502  501  0.00000000000E+00  0.00000000000E+00  0.72224837730E+03  0.72224837730E+03  0.00000000000E+00 0.  1.
         21   -1    0    0  501  502 -0.00000000000E+00 -0.00000000000E+00 -0.10891426661E+03  0.10891426661E+03  0.00000000000E+00 0.  1.
         25    1    1    2    0    0  0.98908989190E+02  0.84540855217E+01  0.32874972363E+02  0.16297307604E+03  0.12500000000E+03 0.  0.
         25    1    1    2    0    0 -0.83940997547E+01 -0.88847633676E+02  0.31997992936E+03  0.35493170909E+03  0.12500000000E+03 0.  0.
         25    1    1    2    0    0 -0.90514889436E+02  0.80393548154E+02  0.26047920896E+03  0.31325785879E+03  0.12500000000E+03 0.  0.
</event>
<event>
 5    0  0.5612316E-005  0.2748615E+03  0.7546771E-02  0.1098529E+00
         21   -1    0    0  502  501  0.00000000000E+00  0.00000000000E+00  0.11760245899E+04  0.11760245899E+04  0.00000000000E+00 0.  1.
         21   -1    0    0  501  502 -0.00000000000E+00 -0.00000000000E+00 -0.64240884493E+02  0.64240884493E+02  0.00000000000E+00 0.  1.
         25    1    1    2    0    0 -0.10328123501E+03  0.10126323599E+03  0.43775864428E+03  0.47768073764E+03  0.12500000000E+03 0.  0.
         25    1    1    2    0    0  0.28929751872E+02  0.22477093944E+02  0.44871205655E+03  0.46723619294E+03  0.12500000000E+03 0.  0.
         25    1    1    2    0    0  0.74351483136E+02 -0.12374032994E+03  0.22531300452E+03  0.29534854376E+03  0.12500000000E+03 0.  0.
</event>
<event>
 5    0  0.5612316E-005  0.3277419E+03  0.7546771E-02  0.1072140E+00
         21   -1    0    0  502  501  0.00000000000E+00  0.00000000000E+00  0.51616552463E+03  0.51616552463E+03  0.00000000000E+00 0.  1.
         21   -1    0    0  501  502 -0.00000000000E+00 -0.00000000000E+00 -0.20810138358E+03  0.20810138358E+03  0.00000000000E+00 0.  1.
         25    1    1    2    0    0  0.10609799518E+03  0.22459187405E+03  0.69099471802E+02  0.28652754051E+03  0.12500000000E+03 0.  0.
         25    1    1    2    0    0 -0.73515646226E+02 -0.17191893229E+03  0.17114971223E+03  0.28262677424E+03  0.12500000000E+03 0.  0.
         25    1    1    2    0    0 -0.32582348949E+02 -0.52672941757E+02  0.67814957022E+02  0.15511259347E+03  0.12500000000E+03 0.  0.
</event>
<event>
 5    0  0.5612316E-005  0.4571371E+03  0.7546771E-02  0.1025615E+00
         21   -1    0    0  502  501  0.00000000000E+00  0.00000000000E+00  0.23718879780E+03  0.23718879780E+03  0.00000000000E+00 0.  1.
         21   -1    0    0  501  502 -0.00000000000E+00 -0.00000000000E+00 -0.88104634103E+03  0.88104634103E+03  0.00000000000E+00 0.  1.
         25    1    1    2    0    0 -0.61370765223E+02  0.19089896304E+02  0.56358307628E+02  0.15143333122E+03  0.12500000000E+03 0.  0.
         25    1    1    2    0    0  0.78808510714E+02 -0.27826489762E+03 -0.15741731003E+03  0.35220355493E+03  0.12500000000E+03 0.  0.
         25    1    1    2    0    0 -0.17437745490E+02  0.25917500132E+03 -0.54279854083E+03  0.61459825269E+03  0.12500000000E+03 0.  0.
</event>
<event>
 5    0  0.5612316E-005  0.3008137E+03  0.7546771E-02  0.1084835E+00
         21   -1    0    0  502  501  0.00000000000E+00  0.00000000000E+00  0.38385371329E+02  0.38385371329E+02  0.00000000000E+00 0.  1.
         21   -1    0    0  501  502 -0.00000000000E+00 -0.00000000000E+00 -0.23573795108E+04  0.23573795108E+04  0.00000000000E+00 0.  1.
         25    1    1    2    0    0  0.10514069249E+02  0.78794325021E+00 -0.27601375180E+03  0.30318271337E+03  0.12500000000E+03 0.  0.
         25    1    1    2    0    0  0.58286664559E+02 -0.16865968644E+03 -0.12807760181E+04  0.12991749819E+04  0.12500000000E+03 0.  0.
         25    1    1    2    0    0 -0.68800733807E+02  0.16787174319E+03 -0.76220436956E+03  0.79340718683E+03  0.12500000000E+03 0.  0.
</event>
<event>
 5    0  0.5612316E-005  0.3124131E+03  0.7546771E-02  0.1079195E+00
         21   -1    0    0  502  501  0.00000000000E+00  0.00000000000E+00  0.10772696861E+03  0.10772696861E+03  0.00000000000E+00 0.  1.
         21   -1    0    0  501  502 -0.00000000000E+00 -0.00000000000E+00 -0.90601197454E+03  0.90601197454E+03  0.00000000000E+00 0.  1.
         25    1    1    2    0    0 -0.34091997741E+02 -0.46117327946E+02 -0.63112838266E+03  0.64593893492E+03  0.12500000000E+03 0.  0.
         25    1    1    2    0    0  0.11776081884E+03  0.26689551241E+02 -0.68160776608E+02  0.18668378095E+03  0.12500000000E+03 0.  0.
         25    1    1    2    0    0 -0.83668821103E+02  0.19427776705E+02 -0.98995846664E+02  0.18111622729E+03  0.12500000000E+03 0.  0.
</event>
<event>
 5    0  0.5612316E-005  0.2709382E+03  0.7546771E-02  0.1100744E+00
         21   -1    0    0  502  501  0.00000000000E+00  0.00000000000E+00  0.80466514158E+03  0.80466514158E+03  0.00000000000E+00 0. -1.
         21   -1    0    0  501  502 -0.00000000000E+00 -0.00000000000E+00 -0.91227382479E+02  0.91227382479E+02  0.00000000000E+00 0. -1.
         25    1    1    2    0    0 -0.13912603624E+03 -0.46527887466E+02  0.10966912172E+03  0.22175034280E+03  0.12500000000E+03 0.  0.
         25    1    1    2    0    0  0.49778740416E+02  0.40350240346E+02  0.35377134598E+03  0.38063792524E+03  0.12500000000E+03 0.  0.
         25    1    1    2    0    0  0.89347295826E+02  0.61776471193E+01  0.24999729140E+03  0.29350425602E+03  0.12500000000E+03 0.  0.
</event>
<event>
 5    0  0.5612316E-005  0.2494390E+03  0.7546771E-02  0.1113660E+00
         21   -1    0    0  502  501  0.00000000000E+00  0.00000000000E+00  0.14752255120E+04  0.14752255120E+04  0.00000000000E+00 0. -1.
         21   -1    0    0  501  502 -0.00000000000E+00 -0.00000000000E+00 -0.42176476347E+02  0.42176476347E+02  0.00000000000E+00 0. -1.
         25    1    1    2    0    0 -0.67621320931E+02 -0.11917789813E+02  0.65323599353E+03  0.66862316741E+03  0.12500000000E+03 0.  0.
         25    1    1    2    0    0  0.19003043680E+02 -0.96584009255E+02  0.43574184247E+03  0.46388095433E+03  0.12500000000E+03 0.  0.
         25    1    1    2    0    0  0.48618277250E+02  0.10850179907E+03  0.34407119966E+03  0.38489786661E+03  0.12500000000E+03 0.  0.
</event>
<event>
 5    0  0.5612316E-005  0.3013867E+03  0.7546771E-02  0.1084549E+00
         21   -1    0    0  502  501  0.00000000000E+00  0.00000000000E+00  0.34651484844E+03  0.34651484844E+03  0.00000000000E+00 0.  1.
         21   -1    0    0  501  502 -0.00000000000E+00 -0.00000000000E+00 -0.26213586833E+03  0.26213586833E+03  0.00000000000E+00 0.  1.
         25    1    1    2    0    0  0.14857640784E+03 -0.13539253924E+03  0.14622025247E+01  0.23671338510E+03  0.12500000000E+03 0.  0.
         25    1    1    2    0    0 -0.16281707074E+03  0.11375091851E+03  0.60190839987E+02  0.24227382691E+03  0.12500000000E+03 0.  0.
         25    1    1    2    0    0  0.14240662900E+02  0.21641620731E+02  0.22725937601E+02  0.12966350476E+03  0.12500000000E+03 0.  0.
</event>
<event>
 5    0  0.5612316E-005  0.2510060E+03  0.7546771E-02  0.1112671E+00
         21   -1    0    0  502  501  0.00000000000E+00  0.00000000000E+00  0.20159524056E+03  0.20159524056E+03  0.00000000000E+00 0. -1.
         21   -1    0    0  501  502 -0.00000000000E+00 -0.00000000000E+00 -0.31252730400E+03  0.31252730400E+03  0.00000000000E+00 0. -1.
         25    1    1    2    0    0 -0.55686301908E+02 -0.91171282395E+02 -0.48240657533E+02  0.17136314654E+03  0.12500000000E+03 0.  0.
         25    1    1    2    0    0  0.85452497023E+02  0.13179107552E+03 -0.53168851072E+02  0.20766064519E+03  0.12500000000E+03 0.  0.
         25    1    1    2    0    0 -0.29766195115E+02 -0.40619793127E+02 -0.95225548297E+01  0.13509875283E+03  0.12500000000E+03 0.  0.
</event>
<event>
 5    0  0.5612316E-005  0.2976875E+03  0.7546771E-02  0.1086402E+00
         21   -1    0    0  502  501  0.00000000000E+00  0.00000000000E+00  0.19422684941E+04  0.19422684941E+04  0.00000000000E+00 0. -1.
         21   -1    0    0  501  502 -0.00000000000E+00 -0.00000000000E+00 -0.45625944448E+02  0.45625944448E+02  0.00000000000E+00 0. -1.
         25    1    1    2    0    0 -0.10362011069E+03  0.53696109277E+02  0.67615678438E+03  0.69744777335E+03  0.12500000000E+03 0.  0.
         25    1    1    2    0    0  0.11479819539E+03 -0.10802641242E+02  0.20508515045E+03  0.26642117344E+03  0.12500000000E+03 0.  0.
         25    1    1    2    0    0 -0.11178084701E+02 -0.42893468035E+02  0.10154006149E+04  0.10240254918E+04  0.12500000000E+03 0.  0.
</event>
<event>
 5    0  0.5612316E-005  0.3173425E+03  0.7546771E-02  0.1076879E+00
         21   -1    0    0  502  501  0.00000000000E+00  0.00000000000E+00  0.23539797900E+03  0.23539797900E+03  0.00000000000E+00 0. -1.
         21   -1    0    0  501  502 -0.00000000000E+00 -0.00000000000E+00 -0.42781272571E+03  0.42781272571E+03  0.00000000000E+00 0. -1.
         25    1    1    2    0    0  0.73114839178E+02 -0.11893892481E+03 -0.23201866611E+03  0.29824471323E+03  0.12500000000E+03 0.  0.
         25    1    1    2    0    0  0.27903052756E+02 -0.30450465885E+02  0.59844901321E+02  0.14461059242E+03  0.12500000000E+03 0.  0.
         25    1    1    2    0    0 -0.10101789193E+03  0.14938939070E+03 -0.20240981917E+02  0.22035539905E+03  0.12500000000E+03 0.  0.
</event>
<event>
 5    0  0.5612316E-005  0.3603418E+03  0.7546771E-02  0.1058449E+00
         21   -1    0    0  502  501  0.00000000000E+00  0.00000000000E+00  0.12757633784E+04  0.12757633784E+04  0.00000000000E+00 0. -1.
         21   -1    0    0  501  502 -0.00000000000E+00 -0.00000000000E+00 -0.10177923518E+03  0.10177923518E+03  0.00000000000E+00 0. -1.
         25    1    1    2    0    0 -0.38145748965E+02 -0.58468655261E+02  0.53808056951E+03  0.55680282066E+03  0.12500000000E+03 0.  0.
         25    1    1    2    0    0 -0.16077093575E+03 -0.85475404850E+02  0.40478350673E+03  0.46111606558E+03  0.12500000000E+03 0.  0.
         25    1    1    2    0    0  0.19891668471E+03  0.14394406011E+03  0.23112006694E+03  0.35962372731E+03  0.12500000000E+03 0.  0.
</event>
<event>
 5    0  0.5612316E-005  0.2406588E+03  0.7546771E-02  0.1119355E+00
         21   -1    0    0  502  501  0.00000000000E+00  0.00000000000E+00  0.86127747966E+02  0.86127747966E+02  0.00000000000E+00 0.  1.
         21   -1    0    0  501  502 -0.00000000000E+00 -0.00000000000E+00 -0.67245074529E+03  0.67245074529E+03  0.00000000000E+00 0.  1.
         25    1    1    2    0    0  0.51908702794E+02 -0.83208853683E+02 -0.39277324505E+03  0.42369098265E+03  0.12500000000E+03 0.  0.
         25    1    1    2    0    0 -0.14265340871E+02  0.64148765351E+02 -0.10542796043E+03  0.17623455645E+03  0.12500000000E+03 0.  0.
         25    1    1    2    0    0 -0.37643361923E+02  0.19060088332E+02 -0.88121791857E+02  0.15865295416E+03  0.12500000000E+03 0.  0.
</event>
<event>
 5    0  0.7227816E-005  0.4573129E+03  0.7546771E-02  0.1025563E+00
         21   -1    0    0  502  501  0.00000000000E+00  0.00000000000E+00  0.68302086160E+03  0.68302086160E+03  0.00000000000E+00 0.  1.
         21   -1    0    0  501  502 -0.00000000000E+00 -0.00000000000E+00 -0.30619130072E+03  0.30619130072E+03  0.00000000000E+00 0.  1.
         25    1    1    2    0    0 -0.19707886212E+03  0.19291291030E+03  0.30333964977E+03  0.42859702749E+03  0.12500000000E+03 0.  0.
         25    1    1    2    0    0 -0.37163567456E+02 -0.23978402647E+03 -0.23795360200E+02  0.27398673191E+03  0.12500000000E+03 0.  0.
         25    1    1    2    0    0  0.23424242958E+03  0.46871116171E+02  0.97285271313E+02  0.28662840292E+03  0.12500000000E+03 0.  0.
</event>
<event>
 5    0  0.5612316E-005  0.3671299E+03  0.7546771E-02  0.1055796E+00
         21   -1    0    0  502  501  0.00000000000E+00  0.00000000000E+00  0.26431777656E+03  0.26431777656E+03  0.00000000000E+00 0.  1.
         21   -1    0    0  501  502 -0.00000000000E+00 -0.00000000000E+00 -0.50993307897E+03  0.50993307897E+03  0.00000000000E+00 0.  1.
         25    1    1    2    0    0 -0.33833510976E+02  0.18031094219E+03 -0.30884017754E+03  0.38034720664E+03  0.12500000000E+03 0.  0.
         25    1    1    2    0    0  0.43573645854E+02 -0.42037011906E+02 -0.78501581344E+02  0.15954081376E+03  0.12500000000E+03 0.  0.
         25    1    1    2    0    0 -0.97401348780E+01 -0.13827393029E+03  0.14172645646E+03  0.23436283512E+03  0.12500000000E+03 0.  0.
</event>
<event>
 5    0  0.5612316E-005  0.5121142E+03  0.7546771E-02  0.1010664E+00
         21   -1    0    0  502  501  0.00000000000E+00  0.00000000000E+00  0.65499841485E+03  0.65499841485E+03  0.00000000000E+00 0.  1.
         21   -1    0    0  501  502 -0.00000000000E+00 -0.00000000000E+00 -0.40039944987E+03  0.40039944987E+03  0.00000000000E+00 0.  1.
         25    1    1    2    0    0 -0.20703758685E+03 -0.18210253008E+03  0.27501142874E+03  0.40900144226E+03  0.12500000000E+03 0.  0.
         25    1    1    2    0    0 -0.31167595734E+02  0.16750037432E+03  0.20553427534E+03  0.29478319620E+03  0.12500000000E+03 0.  0.
         25    1    1    2    0    0  0.23820518258E+03  0.14602155759E+02 -0.22594673911E+03  0.35161322625E+03  0.12500000000E+03 0.  0.
</event>
<event>
 5    0  0.5612316E-005  0.3078686E+03  0.7546771E-02  0.1081372E+00
         21   -1    0    0  502  501  0.00000000000E+00  0.00000000000E+00  0.55548808014E+02  0.55548808014E+02  0.00000000000E+00 0. -1.
         21   -1    0    0  501  502 -0.00000000000E+00 -0.00000000000E+00 -0.17063029482E+04  0.17063029482E+04  0.00000000000E+00 0. -1.
         25    1    1    2    0    0  0.39383043890E+02 -0.68565651937E+02 -0.76199937691E+03  0.77622182602E+03  0.12500000000E+03 0.  0.
         25    1    1    2    0    0  0.14862783882E+03  0.42994722656E+02 -0.41614656865E+03  0.46123936004E+03  0.12500000000E+03 0.  0.
         25    1    1    2    0    0 -0.18801088271E+03  0.25570929281E+02 -0.47260819460E+03  0.52439057014E+03  0.12500000000E+03 0.  0.
</event>
<event>
 5    0  0.5612316E-005  0.2818248E+03  0.7546771E-02  0.1094696E+00
         21   -1    0    0  502  501  0.00000000000E+00  0.00000000000E+00  0.92569868615E+03  0.92569868615E+03  0.00000000000E+00 0. -1.
         21   -1    0    0  501  502 -0.00000000000E+00 -0.00000000000E+00 -0.85800274831E+02  0.85800274831E+02  0.00000000000E+00 0. -1.
         25    1    1    2    0    0  0.12345741491E+03 -0.41858753578E+02  0.98432843949E+02  0.20568887504E+03  0.12500000000E+03 0.  0.
         25    1    1    2    0    0 -0.14832277667E+01  0.50914409373E+02  0.24929423217E+03  0.28349090151E+03  0.12500000000E+03 0.  0.
         25    1    1    2    0    0 -0.12197418714E+03 -0.90556557949E+01  0.49217133520E+03  0.52231918443E+03  0.12500000000E+03 0.  0.
</event>
<event>
 5    0  0.5664152E-005  0.2978977E+03  0.7546771E-02  0.1086296E+00
         21   -1    0    0  502  501  0.00000000000E+00  0.00000000000E+00  0.19143902442E+03  0.19143902442E+03  0.00000000000E+00 0. -1.
         21   -1    0    0  501  502 -0.00000000000E+00 -0.00000000000E+00 -0.46355764990E+03  0.46355764990E+03  0.00000000000E+00 0. -1.
         25    1    1    2    0    0 -0.50614606815E+02 -0.42060716847E+01 -0.21490436183E+03  0.25374872255E+03  0.12500000000E+03 0.  0.
         25    1    1    2    0    0 -0.93767654047E+02 -0.56814371779E+02  0.50355476867E+02  0.17372656629E+03  0.12500000000E+03 0.  0.
         25    1    1    2    0    0  0.14438226086E+03  0.61020443464E+02 -0.10756974051E+03  0.22752138547E+03  0.12500000000E+03 0.  0.
</event>
<event>
 5    0  0.5612316E-005  0.2453096E+03  0.7546771E-02  0.1116305E+00
         21   -1    0    0  502  501  0.00000000000E+00  0.00000000000E+00  0.28574781064E+02  0.28574781064E+02  0.00000000000E+00 0.  1.
         21   -1    0    0  501  502 -0.00000000000E+00 -0.00000000000E+00 -0.21059409969E+04  0.21059409969E+04  0.00000000000E+00 0.  1.
         25    1    1    2    0    0  0.91368441406E+02 -0.23841202784E+02 -0.81432978656E+03  0.82926147645E+03  0.12500000000E+03 0.  0.
         25    1    1    2    0    0  0.23158648240E+02  0.31762798640E+02 -0.29987242519E+03  0.32725169175E+03  0.12500000000E+03 0.  0.
         25    1    1    2    0    0 -0.11452708965E+03 -0.79215958568E+01 -0.96316400409E+03  0.97800260978E+03  0.12500000000E+03 0.  0.
</event>
<event>
 5    0  0.5612316E-005  0.3160428E+03  0.7546771E-02  0.1077485E+00
         21   -1    0    0  502  501  0.00000000000E+00  0.00000000000E+00  0.12641809580E+04  0.12641809580E+04  0.00000000000E+00 0. -1.
         21   -1    0    0  501  502 -0.00000000000E+00 -0.00000000000E+00 -0.79010087112E+02  0.79010087112E+02  0.00000000000E+00 0. -1.
         25    1    1    2    0    0  0.65041699257E+02 -0.68283201903E+02  0.68932128223E+02  0.17108377073E+03  0.12500000000E+03 0.  0.
         25    1    1    2    0    0  0.36901719901E+02 -0.61714592506E+02  0.56839544567E+03  0.58640328317E+03  0.12500000000E+03 0.  0.
         25    1    1    2    0    0 -0.10194341916E+03  0.12999779441E+03  0.54784329702E+03  0.58570399123E+03  0.12500000000E+03 0.  0.
</event>
<event>
 5    0  0.5612316E-005  0.2374014E+03  0.7546771E-02  0.1121536E+00
         21   -1    0    0  502  501  0.00000000000E+00  0.00000000000E+00  0.57023181511E+03  0.57023181511E+03  0.00000000000E+00 0.  1.
         21   -1    0    0  501  502 -0.00000000000E+00 -0.00000000000E+00 -0.98835981033E+02  0.98835981033E+02  0.00000000000E+00 0.  1.
         25    1    1    2    0    0  0.22569417448E+02 -0.10139902129E+03  0.11149796013E+03  0.19709879562E+03  0.12500000000E+03 0.  0.
         25    1    1    2    0    0 -0.48118561754E+01 -0.98671981555E+01  0.91979460350E+02  0.15558192917E+03  0.12500000000E+03 0.  0.
         25    1    1    2    0    0 -0.17757561272E+02  0.11126621944E+03  0.26791841360E+03  0.31638707135E+03  0.12500000000E+03 0.  0.
</event>
<event>
 5    0  0.5612316E-005  0.2711630E+03  0.7546771E-02  0.1100616E+00
         21   -1    0    0  502  501  0.00000000000E+00  0.00000000000E+00  0.26632635272E+02  0.26632635272E+02  0.00000000000E+00 0. -1.
         21   -1    0    0  501  502 -0.00000000000E+00 -0.00000000000E+00 -0.27608752034E+04  0.27608752034E+04  0.00000000000E+00 0. -1.
         25    1    1    2    0    0 -0.13852286837E+03 -0.69209553797E+02 -0.74947006752E+03  0.77544111930E+03  0.12500000000E+03 0.  0.
         25    1    1    2    0    0  0.11191773797E+03 -0.20512440786E+02 -0.12065994864E+04  0.12183815744E+04  0.12500000000E+03 0.  0.
         25    1    1    2    0    0  0.26605130398E+02  0.89721994583E+02 -0.77817301417E+03  0.79368514491E+03  0.12500000000E+03 0.  0.
</event>
<event>
 5    0  0.5612316E-005  0.2238629E+03  0.7546771E-02  0.1131035E+00
         21   -1    0    0  502  501  0.00000000000E+00  0.00000000000E+00  0.19245965096E+03  0.19245965096E+03  0.00000000000E+00 0. -1.
         21   -1    0    0  501  502 -0.00000000000E+00 -0.00000000000E+00 -0.26039008960E+03  0.26039008960E+03  0.00000000000E+00 0. -1.
         25    1    1    2    0    0  0.31866187594E+02  0.47133290013E+02  0.59101993266E+02  0.14951604110E+03  0.12500000000E+03 0.  0.
         25    1    1    2    0    0 -0.29897225621E+02 -0.36500181541E+02 -0.13786944477E+02  0.13431748654E+03  0.12500000000E+03 0.  0.
         25    1    1    2    0    0 -0.19689619728E+01 -0.10633108472E+02 -0.11324548743E+03  0.16901621292E+03  0.12500000000E+03 0.  0.
</event>
<event>
 5    0  0.5612316E-005  0.3460903E+03  0.7546771E-02  0.1064231E+00
         21   -1    0    0  502  501  0.00000000000E+00  0.00000000000E+00  0.31463590427E+03  0.31463590427E+03  0.00000000000E+00 0.  1.
         21   -1    0    0  501  502 -0.00000000000E+00 -0.00000000000E+00 -0.38068918397E+03  0.38068918397E+03  0.00000000000E+00 0.  1.
         25    1    1    2    0    0 -0.53822253263E+02 -0.11427938462E+02  0.18674192213E+03  0.23135465892E+03  0.12500000000E+03 0.  0.
         25    1    1    2    0    0  0.84577100941E+02 -0.80367021036E+02 -0.25360457412E+03  0.30586340757E+03  0.12500000000E+03 0.  0.
         25    1    1    2    0    0 -0.30754847678E+02  0.91794959498E+02  0.80937228996E+00  0.15810702176E+03  0.12500000000E+03 0.  0.
</event>
<event>
 5    0  0.5612316E-005  0.2933860E+03  0.7546771E-02  0.1088594E+00
         21   -1    0    0  502  501  0.00000000000E+00  0.00000000000E+00  0.11572882932E+03  0.11572882932E+03  0.00000000000E+00 0.  1.
         21   -1    0    0  501  502 -0.00000000000E+00 -0.00000000000E+00 -0.74376751969E+03  0.74376751969E+03  0.00000000000E+00 0.  1.
         25    1    1    2    0    0 -0.38587288386E+02 -0.82810739552E+01 -0.84649420725E+02  0.15603871135E+03  0.12500000000E+03 0.  0.
         25    1    1    2    0    0 -0.11756948219E+02  0.46424140854E+02 -0.54721933245E+03  0.56335372946E+03  0.12500000000E+03 0.  0.
         25    1    1    2    0    0  0.50344236605E+02 -0.38143066898E+02  0.38300628133E+01  0.14010390820E+03  0.12500000000E+03 0.  0.
</event>
<event>
 5    0  0.5612316E-005  0.2591232E+03  0.7546771E-02  0.1107671E+00
         21   -1    0    0  502  501  0.00000000000E+00  0.00000000000E+00  0.13545013679E+03  0.13545013679E+03  0.00000000000E+00 0.  1.
         21   -1    0    0  501  502 -0.00000000000E+00 -0.00000000000E+00 -0.49571631740E+03  0.49571631740E+03  0.00000000000E+00 0.  1.
         25    1    1    2    0    0  0.98029664705E+02  0.23941301249E+02 -0.31390401791E+03  0.35262406827E+03  0.12500000000E+03 0.  0.
         25    1    1    2    0    0 -0.71832687795E+02  0.19220710476E+01 -0.19513398887E+02  0.14549708633E+03  0.12500000000E+03 0.  0.
         25    1    1    2    0    0 -0.26196976910E+02 -0.25863372296E+02 -0.26848763814E+02  0.13304529959E+03  0.12500000000E+03 0.  0.
</event>
<event>
 5    0  0.5612316E-005  0.3958490E+03  0.7546771E-02  0.1045227E+00
         21   -1    0    0  502  501  0.00000000000E+00  0.00000000000E+00  0.10712986812E+04  0.10712986812E+04  0.00000000000E+00 0. -1.
         21   -1    0    0  501  502 -0.00000000000E+00 -0.00000000000E+00 -0.14626773313E+03  0.14626773313E+03  0.00000000000E+00 0.  1.
         25    1    1    2    0    0 -0.76303549936E+02  0.14543493437E+01  0.21921234189E+03  0.26363497056E+03  0.12500000000E+03 0.  0.
         25    1    1    2    0    0 -0.94852967894E+02 -0.20298373135E+03  0.58256685470E+03  0.63655999003E+03  0.12500000000E+03 0.  0.
         25    1    1    2    0    0  0.17115651783E+03  0.20152938200E+03  0.12325175147E+03  0.31737145374E+03  0.12500000000E+03 0.  0.
</event>
<event>
 5    0  0.5612316E-005  0.2770873E+03  0.7546771E-02  0.1097291E+00
         21   -1    0    0  502  501  0.00000000000E+00  0.00000000000E+00  0.16904051624E+03  0.16904051624E+03  0.00000000000E+00 0.  1.
         21   -1    0    0  501  502 -0.00000000000E+00 -0.00000000000E+00 -0.45419494573E+03  0.45419494573E+03  0.00000000000E+00 0.  1.
         25    1    1    2    0    0  0.14158850051E+02 -0.32018058260E+02 -0.75587593525E+01  0.13002985785E+03  0.12500000000E+03 0.  0.
         25    1    1    2    0    0  0.94702155538E+02  0.50826748613E+02  0.51283909207E+01  0.16493379590E+03  0.12500000000E+03 0.  0.
         25    1    1    2    0    0 -0.10886100559E+03 -0.18808690353E+02 -0.28272406106E+03  0.32827180822E+03  0.12500000000E+03 0.  0.
</event>
<event>
 5    0  0.5612316E-005  0.5758840E+03  0.7546771E-02  0.9956742E-01
         21   -1    0    0  502  501  0.00000000000E+00  0.00000000000E+00  0.97709446504E+03  0.97709446504E+03  0.00000000000E+00 0. -1.
         21   -1    0    0  501  502 -0.00000000000E+00 -0.00000000000E+00 -0.33941694031E+03  0.33941694031E+03  0.00000000000E+00 0. -1.
         25    1    1    2    0    0 -0.17876708020E+03 -0.45292065135E+03  0.13239482562E+03  0.51985399415E+03  0.12500000000E+03 0.  0.
         25    1    1    2    0    0 -0.46452865531E+02  0.62126572978E+02  0.10434575324E+03  0.18036245731E+03  0.12500000000E+03 0.  0.
         25    1    1    2    0    0  0.22521994573E+03  0.39079407837E+03  0.40093694587E+03  0.61629495390E+03  0.12500000000E+03 0.  0.
</event>
<event>
 5    0  0.5612316E-005  0.2870264E+03  0.7546771E-02  0.1091912E+00
         21   -1    0    0  502  501  0.00000000000E+00  0.00000000000E+00  0.47204669121E+03  0.47204669121E+03  0.00000000000E+00 0. -1.
         21   -1    0    0  501  502 -0.00000000000E+00 -0.00000000000E+00 -0.17452546514E+03  0.17452546514E+03  0.00000000000E+00 0. -1.
         25    1    1    2    0    0  0.12309146057E+02 -0.73037708038E+02  0.14153550710E+03  0.20283816614E+03  0.12500000000E+03 0.  0.
         25    1    1    2    0    0 -0.62921462669E+02 -0.87826205828E+02 -0.24337491643E+02  0.16700259397E+03  0.12500000000E+03 0.  0.
         25    1    1    2    0    0  0.50612316612E+02  0.16086391387E+03  0.18032321061E+03  0.27673139624E+03  0.12500000000E+03 0.  0.
</event>
<event>
 5    0  0.5612316E-005  0.2335620E+03  0.7546771E-02  0.1124157E+00
         21   -1    0    0  502  501  0.00000000000E+00  0.00000000000E+00  0.11814384812E+04  0.11814384812E+04  0.00000000000E+00 0.  1.
         21   -1    0    0  501  502 -0.00000000000E+00 -0.00000000000E+00 -0.46173544095E+02  0.46173544095E+02  0.00000000000E+00 0.  1.
         25    1    1    2    0    0  0.25790477150E+02  0.22103630705E+02  0.17013793757E+03  0.21383553728E+03  0.12500000000E+03 0.  0.
         25    1    1    2    0    0  0.59482256009E+02 -0.64139508656E+02  0.44246769757E+03  0.46803277529E+03  0.12500000000E+03 0.  0.
         25    1    1    2    0    0 -0.85272733159E+02  0.42035877951E+02  0.52265930198E+03  0.54574371275E+03  0.12500000000E+03 0.  0.
</event>
<event>
 5    0  0.5612316E-005  0.2291923E+03  0.7546771E-02  0.1127210E+00
         21   -1    0    0  502  501  0.00000000000E+00  0.00000000000E+00  0.27413202231E+03  0.27413202231E+03  0.00000000000E+00 0. -1.
         21   -1    0    0  501  502 -0.00000000000E+00 -0.00000000000E+00 -0.19161973015E+03  0.19161973015E+03  0.00000000000E+00 0. -1.
         25    1    1    2    0    0 -0.38816198399E+02  0.78588143904E+00 -0.65300900943E+02  0.14627550216E+03  0.12500000000E+03 0.  0.
         25    1    1    2    0    0  0.13846412898E+02 -0.20656770694E+02  0.57532562176E+01  0.12757948614E+03  0.12500000000E+03 0.  0.
         25    1    1    2    0    0  0.24969785501E+02  0.19870889254E+02  0.14205993689E+03  0.19189676416E+03  0.12500000000E+03 0.  0.
</event>
<event>
 5    0  0.5612316E-005  0.2648731E+03  0.7546771E-02  0.1104250E+00
         21   -1    0    0  502  501  0.00000000000E+00  0.00000000000E+00  0.77665213373E+02  0.77665213373E+02  0.00000000000E+00 0. -1.
         21   -1    0    0  501  502 -0.00000000000E+00 -0.00000000000E+00 -0.90333591405E+03  0.90333591405E+03  0.00000000000E+00 0. -1.
         25    1    1    2    0    0  0.13782163418E+03 -0.46610753386E+01 -0.18353258751E+03  0.26139192633E+03  0.12500000000E+03 0.  0.
         25    1    1    2    0    0 -0.10620302043E+03 -0.65384544964E+02 -0.31615021404E+03  0.36211901097E+03  0.12500000000E+03 0.  0.
         25    1    1    2    0    0 -0.31618613750E+02  0.70045620302E+02 -0.32598789912E+03  0.35749019012E+03  0.12500000000E+03 0.  0.
</event>
<event>
 5    0  0.5612316E-005  0.2624284E+03  0.7546771E-02  0.1105693E+00
         21   -1    0    0  502  501  0.00000000000E+00  0.00000000000E+00  0.20199597452E+03  0.20199597452E+03  0.00000000000E+00 0. -1.
         21   -1    0    0  501  502 -0.00000000000E+00 -0.00000000000E+00 -0.34094088235E+03  0.34094088235E+03  0.00000000000E+00 0. -1.
         25    1    1    2    0    0  0.49756101074E+01  0.43181107248E+02 -0.12009066705E+03  0.17870683544E+03  0.12500000000E+03 0.  0.
         25    1    1    2    0    0 -0.10396182751E+01  0.67755301388E+02  0.86686636777E+02  0.16652757930E+03  0.12500000000E+03 0.  0.
         25    1    1    2    0    0 -0.39359918322E+01 -0.11093640864E+03 -0.10554087756E+03  0.19770244214E+03  0.12500000000E+03 0.  0.
</event>
<event>
 5    0  0.5612316E-005  0.2934440E+03  0.7546771E-02  0.1088565E+00
         21   -1    0    0  502  501  0.00000000000E+00  0.00000000000E+00  0.15877346654E+03  0.15877346654E+03  0.00000000000E+00 0.  1.
         21   -1    0    0  501  502 -0.00000000000E+00 -0.00000000000E+00 -0.54234100047E+03  0.54234100047E+03  0.00000000000E+00 0.  1.
         25    1    1    2    0    0  0.81601722543E+02  0.32827311252E+02 -0.39542875032E+03  0.42394029069E+03  0.12500000000E+03 0.  0.
         25    1    1    2    0    0 -0.70826384999E+02  0.39840661276E+00  0.28036436926E+02  0.14638161543E+03  0.12500000000E+03 0.  0.
         25    1    1    2    0    0 -0.10775337545E+02 -0.33225717864E+02 -0.16175220528E+02  0.13079256090E+03  0.12500000000E+03 0.  0.
</event>
<event>
 5    0  0.5612316E-005  0.3752048E+03  0.7546771E-02  0.1052720E+00
         21   -1    0    0  502  501  0.00000000000E+00  0.00000000000E+00  0.27410104033E+04  0.27410104033E+04  0.00000000000E+00 0. -1.
         21   -1    0    0  501  502 -0.00000000000E+00 -0.00000000000E+00 -0.51360136408E+02  0.51360136408E+02  0.00000000000E+00 0. -1.
         25    1    1    2    0    0 -0.21649620871E+02 -0.11836913478E+02  0.28343456013E+03  0.31075548021E+03  0.12500000000E+03 0.  0.
         25    1    1    2    0    0 -0.19965434956E+03  0.13638246744E+03  0.16850922877E+04  0.17069338167E+04  0.12500000000E+03 0.  0.
         25    1    1    2    0    0  0.22130397043E+03 -0.12454555396E+03  0.72112341908E+03  0.77468124276E+03  0.12500000000E+03 0.  0.
</event>
<event>
 5    0  0.5612316E-005  0.3542444E+03  0.7546771E-02  0.1060886E+00
         21   -1    0    0  502  501  0.00000000000E+00  0.00000000000E+00  0.89056600516E+02  0.89056600516E+02  0.00000000000E+00 0.  1.
         21   -1    0    0  501  502 -0.00000000000E+00 -0.00000000000E+00 -0.14090934091E+04  0.14090934091E+04  0.00000000000E+00 0.  1.
         25    1    1    2    0    0  0.10123355561E+03  0.25392020485E+03 -0.80366693213E+03  0.85803801839E+03  0.12500000000E+03 0.  0.
         25    1    1    2    0    0 -0.67777041789E+02 -0.15865218850E+03 -0.24443164217E+03  0.32424693060E+03  0.12500000000E+03 0.  0.
         25    1    1    2    0    0 -0.33456513819E+02 -0.95268016343E+02 -0.27193823428E+03  0.31586506062E+03  0.12500000000E+03 0.  0.
</event>
<event>
 5    0  0.5612316E-005  0.6148173E+03  0.7546771E-02  0.9875133E-01
         21   -1    0    0  502  501  0.00000000000E+00  0.00000000000E+00  0.43974186157E+03  0.43974186157E+03  0.00000000000E+00 0.  1.
         21   -1    0    0  501  502 -0.00000000000E+00 -0.00000000000E+00 -0.85959603232E+03  0.85959603232E+03  0.00000000000E+00 0.  1.
         25    1    1    2    0    0  0.26808938646E+02  0.99469455165E+02  0.11459399297E+03  0.19841792995E+03  0.12500000000E+03 0.  0.
         25    1    1    2    0    0  0.64097578815E+02 -0.40413334996E+03 -0.61570087163E+03  0.74976318093E+03  0.12500000000E+03 0.  0.
         25    1    1    2    0    0 -0.90906517462E+02  0.30466389480E+03  0.81252707901E+02  0.35115678301E+03  0.12500000000E+03 0.  0.
</event>
<event>
 5    0  0.5612316E-005  0.3455634E+03  0.7546771E-02  0.1064451E+00
         21   -1    0    0  502  501  0.00000000000E+00  0.00000000000E+00  0.71807990468E+03  0.71807990468E+03  0.00000000000E+00 0. -1.
         21   -1    0    0  501  502 -0.00000000000E+00 -0.00000000000E+00 -0.16629633588E+03  0.16629633588E+03  0.00000000000E+00 0. -1.
         25    1    1    2    0    0 -0.60643310625E+02  0.85452689895E+01 -0.20765898762E+02  0.14073682992E+03  0.12500000000E+03 0.  0.
         25    1    1    2    0    0  0.21851521331E+02  0.72868097005E+02 -0.44603305767E+01  0.14639721000E+03  0.12500000000E+03 0.  0.
         25    1    1    2    0    0  0.38791789294E+02 -0.81413365994E+02  0.57700979814E+03  0.59724220065E+03  0.12500000000E+03 0.  0.
</event>
<event>
 5    0  0.5612316E-005  0.2540646E+03  0.7546771E-02  0.1110763E+00
         21   -1    0    0  502  501  0.00000000000E+00  0.00000000000E+00  0.12110611531E+03  0.12110611531E+03  0.00000000000E+00 0. -1.
         21   -1    0    0  501  502 -0.00000000000E+00 -0.00000000000E+00 -0.53299395059E+03  0.53299395059E+03  0.00000000000E+00 0. -1.
         25    1    1    2    0    0  0.11617963163E+02  0.59286464090E+02  0.28502064906E+02  0.14172942389E+03  0.12500000000E+03 0.  0.
         25    1    1    2    0    0  0.15761783268E+02 -0.21191753865E+02 -0.23277457998E+03  0.26553065610E+03  0.12500000000E+03 0.  0.
         25    1    1    2    0    0 -0.27379746431E+02 -0.38094710225E+02 -0.20761532020E+03  0.24683998591E+03  0.12500000000E+03 0.  0.
</event>
<event>
 5    0  0.5612316E-005  0.2780468E+03  0.7546771E-02  0.1096761E+00
         21   -1    0    0  502  501  0.00000000000E+00  0.00000000000E+00  0.12058852140E+03  0.12058852140E+03  0.00000000000E+00 0. -1.
         21   -1    0    0  501  502 -0.00000000000E+00 -0.00000000000E+00 -0.64110610798E+03  0.64110610798E+03  0.00000000000E+00 0. -1.
         25    1    1    2    0    0 -0.56258979466E+02 -0.83748686227E+01 -0.56583840729E+02  0.14853263017E+03  0.12500000000E+03 0.  0.
         25    1    1    2    0    0  0.75013352075E+01 -0.76048140237E+02 -0.42554210009E+03  0.45005629494E+03  0.12500000000E+03 0.  0.
         25    1    1    2    0    0  0.48757644258E+02  0.84423008860E+02 -0.38391645761E+02  0.16310570426E+03  0.12500000000E+03 0.  0.
</event>
<event>
 5    0  0.5612316E-005  0.2876139E+03  0.7546771E-02  0.1091602E+00
         21   -1    0    0  502  501  0.00000000000E+00  0.00000000000E+00  0.22354980256E+03  0.22354980256E+03  0.00000000000E+00 0. -1.
         21   -1    0    0  501  502 -0.00000000000E+00 -0.00000000000E+00 -0.37003721957E+03  0.37003721957E+03  0.00000000000E+00 0. -1.
         25    1    1    2    0    0  0.46909937947E+02 -0.11146540988E+03  0.97539759102E+02  0.19940933901E+03  0.12500000000E+03 0.  0.
         25    1    1    2    0    0  0.36907328941E+02  0.15948620445E+02 -0.10361086798E+03  0.16726243268E+03  0.12500000000E+03 0.  0.
         25    1    1    2    0    0 -0.83817266888E+02  0.95516789435E+02 -0.14041630813E+03  0.22691525044E+03  0.12500000000E+03 0.  0.
</event>
<event>
 5    0  0.5612316E-005  0.3314078E+03  0.7546771E-02  0.1070516E+00
         21   -1    0    0  502  501  0.00000000000E+00  0.00000000000E+00  0.67542840628E+03  0.67542840628E+03  0.00000000000E+00 0.  1.
         21   -1    0    0  501  502 -0.00000000000E+00 -0.00000000000E+00 -0.16260953187E+03  0.16260953187E+03  0.00000000000E+00 0.  1.
         25    1    1    2    0    0  0.21568363850E+02 -0.20275079744E+03  0.15281431304E+03  0.28381383767E+03  0.12500000000E+03 0.  0.
         25    1    1    2    0    0 -0.10457029828E+03  0.76369129083E+02  0.29862231884E+03  0.34866528429E+03  0.12500000000E+03 0.  0.
         25    1    1    2    0    0  0.83001934433E+02  0.12638166836E+03  0.61382242535E+02  0.20555881619E+03  0.12500000000E+03 0.  0.
</event>
<event>
 5    0  0.5612316E-005  0.2837542E+03  0.7546771E-02  0.1093656E+00
         21   -1    0    0  502  501  0.00000000000E+00  0.00000000000E+00  0.15269611238E+03  0.15269611238E+03  0.00000000000E+00 0.  1.
         21   -1    0    0  501  502 -0.00000000000E+00 -0.00000000000E+00 -0.52729856999E+03  0.52729856999E+03  0.00000000000E+00 0.  1.
         25    1    1    2    0    0 -0.96441813232E+02 -0.34078116956E+02 -0.17058307907E+03  0.23491685393E+03  0.12500000000E+03 0.  0.
         25    1    1    2    0    0 -0.42127861339E+02 -0.95513760713E+02 -0.49145728719E+02  0.17011154528E+03  0.12500000000E+03 0.  0.
         25    1    1    2    0    0  0.13856967457E+03  0.12959187767E+03 -0.15487364982E+03  0.27496628316E+03  0.12500000000E+03 0.  0.
</event>
<event>
 5    0  0.5856014E-005  0.4342507E+03  0.7546771E-02  0.1032526E+00
         21   -1    0    0  502  501  0.00000000000E+00  0.00000000000E+00  0.50920904077E+03  0.50920904077E+03  0.00000000000E+00 0. -1.
         21   -1    0    0  501  502 -0.00000000000E+00 -0.00000000000E+00 -0.37032670324E+03  0.37032670324E+03  0.00000000000E+00 0.  1.
         25    1    1    2    0    0 -0.21076062783E+03  0.93986556193E+02 -0.15974518911E+03  0.30724101359E+03  0.12500000000E+03 0.  0.
         25    1    1    2    0    0 -0.46763095660E+02 -0.80736744429E+02  0.22953561602E+03  0.27751902284E+03  0.12500000000E+03 0.  0.
         25    1    1    2    0    0  0.25752372349E+03 -0.13249811764E+02  0.69091910627E+02  0.29477570759E+03  0.12500000000E+03 0.  0.
</event>
<event>
 5    0  0.5612316E-005  0.5115984E+03  0.7546771E-02  0.1010795E+00
         21   -1    0    0  502  501  0.00000000000E+00  0.00000000000E+00  0.82714178124E+03  0.82714178124E+03  0.00000000000E+00 0. -1.
         21   -1    0    0  501  502 -0.00000000000E+00 -0.00000000000E+00 -0.31643059043E+03  0.31643059043E+03  0.00000000000E+00 0. -1.
         25    1    1    2    0    0 -0.14006557655E+03 -0.17798584382E+03  0.53908866111E+02  0.26425081302E+03  0.12500000000E+03 0.  0.
         25    1    1    2    0    0  0.16345558824E+03  0.42338624537E+03  0.33210329264E+03  0.57610002524E+03  0.12500000000E+03 0.  0.
         25    1    1    2    0    0 -0.23390011692E+02 -0.24540040155E+03  0.12469903206E+03  0.30322153341E+03  0.12500000000E+03 0.  0.
</event>
<event>
 5    0  0.5612316E-005  0.2522009E+03  0.7546771E-02  0.1111922E+00
         21   -1    0    0  502  501  0.00000000000E+00  0.00000000000E+00  0.62911626909E+02  0.62911626909E+02  0.00000000000E+00 0. -1.
         21   -1    0    0  501  502 -0.00000000000E+00 -0.00000000000E+00 -0.10110262280E+04  0.10110262280E+04  0.00000000000E+00 0. -1.
         25    1    1    2    0    0 -0.63924707287E+02  0.10455141136E+03 -0.47389750134E+03  0.50519422759E+03  0.12500000000E+03 0.  0.
         25    1    1    2    0    0  0.68975475290E+02 -0.97813864458E+02 -0.35899547871E+03  0.39853220949E+03  0.12500000000E+03 0.  0.
         25    1    1    2    0    0 -0.50507680030E+01 -0.67375468982E+01 -0.11522162100E+03  0.17021141778E+03  0.12500000000E+03 0.  0.
</event>
<event>
 5    0  0.5612316E-005  0.2688304E+03  0.7546771E-02  0.1101951E+00
         21   -1    0    0  502  501  0.00000000000E+00  0.00000000000E+00  0.13613021694E+04  0.13613021694E+04  0.00000000000E+00 0. -1.
         21   -1    0    0  501  502 -0.00000000000E+00 -0.00000000000E+00 -0.53088731859E+02  0.53088731859E+02  0.00000000000E+00 0. -1.
         25    1    1    2    0    0  0.57918896938E+02  0.47263574728E+02  0.47775947688E+03  0.49946727807E+03  0.12500000000E+03 0.  0.
         25    1    1    2    0    0 -0.52458875654E+02 -0.13101546072E+02  0.90109843201E+02  0.16330452531E+03  0.12500000000E+03 0.  0.
         25    1    1    2    0    0 -0.54600212836E+01 -0.34162028656E+02  0.74034411749E+03  0.75161909790E+03  0.12500000000E+03 0.  0.
</event>
<event>
 5    0  0.5612316E-005  0.2807346E+03  0.7546771E-02  0.1095288E+00
         21   -1    0    0  502  501  0.00000000000E+00  0.00000000000E+00  0.35966058810E+03  0.35966058810E+03  0.00000000000E+00 0. -1.
         21   -1    0    0  501  502 -0.00000000000E+00 -0.00000000000E+00 -0.21912854827E+03  0.21912854827E+03  0.00000000000E+00 0. -1.
         25    1    1    2    0    0 -0.52711459290E+02 -0.86338921952E+02  0.49112481659E+02  0.16813668023E+03  0.12500000000E+03 0.  0.
         25    1    1    2    0    0  0.11069059636E+03  0.82035363511E+02  0.16996927274E+03  0.25198563980E+03  0.12500000000E+03 0.  0.
         25    1    1    2    0    0 -0.57979137066E+02  0.43035584407E+01 -0.78549714561E+02  0.15866681634E+03  0.12500000000E+03 0.  0.
</event>
<event>
 5    0  0.5612316E-005  0.2792653E+03  0.7546771E-02  0.1096091E+00
         21   -1    0    0  502  501  0.00000000000E+00  0.00000000000E+00  0.37274514094E+03  0.37274514094E+03  0.00000000000E+00 0. -1.
         21   -1    0    0  501  502 -0.00000000000E+00 -0.00000000000E+00 -0.20922909693E+03  0.20922909693E+03  0.00000000000E+00 0. -1.
         25    1    1    2    0    0  0.89258934058E+02  0.54497488917E+02 -0.62493910740E+02  0.17454977080E+03  0.12500000000E+03 0.  0.
         25    1    1    2    0    0 -0.15479378864E+02 -0.69406489708E+02  0.66473867385E+01  0.14396548105E+03  0.12500000000E+03 0.  0.
         25    1    1    2    0    0 -0.73779555195E+02  0.14909000791E+02  0.21936256801E+03  0.26345898602E+03  0.12500000000E+03 0.  0.
</event>
<event>
 5    0  0.5944386E-005  0.3528421E+03  0.7546771E-02  0.1061455E+00
         21   -1    0    0  502  501  0.00000000000E+00  0.00000000000E+00  0.18565221276E+03  0.18565221276E+03  0.00000000000E+00 0. -1.
         21   -1    0    0  501  502 -0.00000000000E+00 -0.00000000000E+00 -0.67059543027E+03  0.67059543027E+03  0.00000000000E+00 0. -1.
         25    1    1    2    0    0 -0.64105579327E+02  0.54821615711E+02 -0.39690321503E+03  0.42458461695E+03  0.12500000000E+03 0.  0.
         25    1    1    2    0    0 -0.96436203598E+02  0.51428266298E+02  0.37233620145E+02  0.17016506812E+03  0.12500000000E+03 0.  0.
         25    1    1    2    0    0  0.16054178292E+03 -0.10624988201E+03 -0.12527362262E+03  0.26149795796E+03  0.12500000000E+03 0.  0.
</event>
<event>
 5    0  0.5612316E-005  0.2693206E+03  0.7546771E-02  0.1101669E+00
         21   -1    0    0  502  501  0.00000000000E+00  0.00000000000E+00  0.35782729236E+02  0.35782729236E+02  0.00000000000E+00 0.  1.
         21   -1    0    0  501  502 -0.00000000000E+00 -0.00000000000E+00 -0.20270555208E+04  0.20270555208E+04  0.00000000000E+00 0.  1.
         25    1    1    2    0    0 -0.22334099673E+02 -0.14875667782E+02 -0.14280920214E+04  0.14338033055E+04  0.12500000000E+03 0.  0.
         25    1    1    2    0    0  0.54609606355E+02  0.49845116795E+02 -0.26379711638E+03  0.30113230213E+03  0.12500000000E+03 0.  0.
         25    1    1    2    0    0 -0.32275506681E+02 -0.34969449013E+02 -0.29938365381E+03  0.32790264236E+03  0.12500000000E+03 0.  0.
</event>
<event>
 5    0  0.5612316E-005  0.2946838E+03  0.7546771E-02  0.1087929E+00
         21   -1    0    0  502  501  0.00000000000E+00  0.00000000000E+00  0.22051248050E+03  0.22051248050E+03  0.00000000000E+00 0.  1.
         21   -1    0    0  501  502 -0.00000000000E+00 -0.00000000000E+00 -0.39380321142E+03  0.39380321142E+03  0.00000000000E+00 0.  1.
         25    1    1    2    0    0  0.24791966675E+02  0.97752626590E+02  0.60479467353E+02  0.17161871573E+03  0.12500000000E+03 0.  0.
         25    1    1    2    0    0 -0.12575610297E+03 -0.11651732663E+03 -0.15505516904E+03  0.26278887017E+03  0.12500000000E+03 0.  0.
         25    1    1    2    0    0  0.10096413629E+03  0.18764700041E+02 -0.78715029237E+02  0.17990810602E+03  0.12500000000E+03 0.  0.
</event>
<event>
 5    0  0.5612316E-005  0.2224403E+03  0.7546771E-02  0.1132077E+00
         21   -1    0    0  502  501  0.00000000000E+00  0.00000000000E+00  0.54440994759E+03  0.54440994759E+03  0.00000000000E+00 0.  1.
         21   -1    0    0  501  502 -0.00000000000E+00 -0.00000000000E+00 -0.90886825059E+02  0.90886825059E+02  0.00000000000E+00 0.  1.
         25    1    1    2    0    0 -0.51389941507E+02 -0.51704206015E+02  0.20473667974E+03  0.25071170503E+03  0.12500000000E+03 0.  0.
         25    1    1    2    0    0  0.33924834459E+02  0.75199974948E+02  0.72205098280E+02  0.16626637316E+03  0.12500000000E+03 0.  0.
         25    1    1    2    0    0  0.17465107048E+02 -0.23495768933E+02  0.17658134451E+03  0.21831869446E+03  0.12500000000E+03 0.  0.
</event>
<event>
 5    0  0.5612316E-005  0.3419105E+03  0.7546771E-02  0.1065985E+00
         21   -1    0    0  502  501  0.00000000000E+00  0.00000000000E+00  0.17901441418E+03  0.17901441418E+03  0.00000000000E+00 0.  1.
         21   -1    0    0  501  502 -0.00000000000E+00 -0.00000000000E+00 -0.65303578771E+03  0.65303578771E+03  0.00000000000E+00 0.  1.
         25    1    1    2    0    0 -0.13019172186E+03 -0.90504517333E+02 -0.51164006885E+02  0.20828756011E+03  0.12500000000E+03 0.  0.
         25    1    1    2    0    0  0.24120128768E+03  0.74768837587E+02 -0.32204112029E+03  0.42790644235E+03  0.12500000000E+03 0.  0.
         25    1    1    2    0    0 -0.11100956582E+03  0.15735679746E+02 -0.10081624637E+03  0.19585619942E+03  0.12500000000E+03 0.  0.
</event>
<event>
 5    0  0.5612316E-005  0.3629020E+03  0.7546771E-02  0.1057441E+00
         21   -1    0    0  502  501  0.00000000000E+00  0.00000000000E+00  0.14475253976E+03  0.14475253976E+03  0.00000000000E+00 0. -1.
         21   -1    0    0  501  502 -0.00000000000E+00 -0.00000000000E+00 -0.90981373867E+03  0.90981373867E+03  0.00000000000E+00 0. -1.
         25    1    1    2    0    0 -0.19672936586E+03  0.13260415809E+03 -0.47509484684E+03  0.54555148210E+03  0.12500000000E+03 0.  0.
         25    1    1    2    0    0  0.23271755757E+02  0.39172252938E+02 -0.15201134957E+03  0.20201111458E+03  0.12500000000E+03 0.  0.
         25    1    1    2    0    0  0.17345761010E+03 -0.17177641103E+03 -0.13795500250E+03  0.30700368174E+03  0.12500000000E+03 0.  0.
</event>
<event>
 5    0  0.5612316E-005  0.2908174E+03  0.7546771E-02  0.1089923E+00
         21   -1    0    0  502  501  0.00000000000E+00  0.00000000000E+00  0.37933342283E+03  0.37933342283E+03  0.00000000000E+00 0. -1.
         21   -1    0    0  501  502 -0.00000000000E+00 -0.00000000000E+00 -0.22295624148E+03  0.22295624148E+03  0.00000000000E+00 0. -1.
         25    1    1    2    0    0 -0.19328622036E+02 -0.98833807814E+02  0.13352418430E+03  0.20879517473E+03  0.12500000000E+03 0.  0.
         25    1    1    2    0    0  0.68042373214E+02  0.16477966102E+03 -0.55531480321E+02  0.22470168345E+03  0.12500000000E+03 0.  0.
         25    1    1    2    0    0 -0.48713751178E+02 -0.65945853206E+02  0.78384477372E+02  0.16879280613E+03  0.12500000000E+03 0.  0.
</event>
<event>
 5    0  0.5612316E-005  0.3231040E+03  0.7546771E-02  0.1074230E+00
         21   -1    0    0  502  501  0.00000000000E+00  0.00000000000E+00  0.10243139578E+04  0.10243139578E+04  0.00000000000E+00 0. -1.
         21   -1    0    0  501  502 -0.00000000000E+00 -0.00000000000E+00 -0.10191816748E+03  0.10191816748E+03  0.00000000000E+00 0. -1.
         25    1    1    2    0    0 -0.14451212606E+03  0.81381086026E+02  0.31680793817E+03  0.37881249376E+03  0.12500000000E+03 0.  0.
         25    1    1    2    0    0 -0.65708634503E+02 -0.10312720434E+03  0.15225685797E+03  0.23186201871E+03  0.12500000000E+03 0.  0.
         25    1    1    2    0    0  0.21022076057E+03  0.21746118315E+02  0.45333099421E+03  0.51555761283E+03  0.12500000000E+03 0.  0.
</event>
<event>
 5    0  0.5612316E-005  0.2913695E+03  0.7546771E-02  0.1089636E+00
         21   -1    0    0  502  501  0.00000000000E+00  0.00000000000E+00  0.30368733949E+03  0.30368733949E+03  0.00000000000E+00 0. -1.
         21   -1    0    0  501  502 -0.00000000000E+00 -0.00000000000E+00 -0.27955124075E+03  0.27955124075E+03  0.00000000000E+00 0. -1.
         25    1    1    2    0    0 -0.42963967899E+02 -0.25588508311E+02  0.66957624752E+02  0.15036288707E+03  0.12500000000E+03 0.  0.
         25    1    1    2    0    0  0.48297189097E+02 -0.10981010210E+03  0.99668638730E+02  0.19987424683E+03  0.12500000000E+03 0.  0.
         25    1    1    2    0    0 -0.53332211974E+01  0.13539861041E+03 -0.14249016474E+03  0.23300144634E+03  0.12500000000E+03 0.  0.
</event>
<event>
 5    0  0.5612316E-005  0.2586547E+03  0.7546771E-02  0.1107954E+00
         21   -1    0    0  502  501  0.00000000000E+00  0.00000000000E+00  0.16173155606E+03  0.16173155606E+03  0.00000000000E+00 0. -1.
         21   -1    0    0  501  502 -0.00000000000E+00 -0.00000000000E+00 -0.41366228977E+03  0.41366228977E+03  0.00000000000E+00 0. -1.
         25    1    1    2    0    0  0.34879256573E+02 -0.19619288595E+02 -0.40922169173E+01  0.13131346185E+03  0.12500000000E+03 0.  0.
         25    1    1    2    0    0 -0.67161471010E+02 -0.66714090481E+02 -0.63096861511E+01  0.15692751574E+03  0.12500000000E+03 0.  0.
         25    1    1    2    0    0  0.32282214437E+02  0.86333379076E+02 -0.24152883064E+03  0.28715286824E+03  0.12500000000E+03 0.  0.
</event>
<event>
 5    0  0.5612316E-005  0.3926902E+03  0.7546771E-02  0.1046341E+00
         21   -1    0    0  502  501  0.00000000000E+00  0.00000000000E+00  0.61242481290E+03  0.61242481290E+03  0.00000000000E+00 0.  1.
         21   -1    0    0  501  502 -0.00000000000E+00 -0.00000000000E+00 -0.25179509092E+03  0.25179509092E+03  0.00000000000E+00 0.  1.
         25    1    1    2    0    0  0.87859904545E+02  0.10639100023E+03  0.12280707130E+03  0.22303583685E+03  0.12500000000E+03 0.  0.
         25    1    1    2    0    0  0.10658518579E+03  0.13314399599E+03 -0.30475895833E+02  0.21363872712E+03  0.12500000000E+03 0.  0.
         25    1    1    2    0    0 -0.19444509034E+03 -0.23953499621E+03  0.26829854652E+03  0.42754533985E+03  0.12500000000E+03 0.  0.
</event>
<event>
 5    0  0.5612316E-005  0.2332531E+03  0.7546771E-02  0.1124371E+00
         21   -1    0    0  502  501  0.00000000000E+00  0.00000000000E+00  0.17459815914E+04  0.17459815914E+04  0.00000000000E+00 0. -1.
         21   -1    0    0  501  502 -0.00000000000E+00 -0.00000000000E+00 -0.31161286053E+02  0.31161286053E+02  0.00000000000E+00 0. -1.
         25    1    1    2    0    0 -0.45615284981E+02  0.15229972445E+02  0.41170838650E+03  0.43294514872E+03  0.12500000000E+03 0.  0.
         25    1    1    2    0    0  0.58334257949E+02  0.67400031216E+02  0.39626431690E+03  0.42496595006E+03  0.12500000000E+03 0.  0.
         25    1    1    2    0    0 -0.12718972969E+02 -0.82630003661E+02  0.90684760195E+03  0.91923177868E+03  0.12500000000E+03 0.  0.
</event>
<event>
 5    0  0.5612316E-005  0.2476502E+03  0.7546771E-02  0.1114799E+00
         21   -1    0    0  502  501  0.00000000000E+00  0.00000000000E+00  0.13282657043E+04  0.13282657043E+04  0.00000000000E+00 0.  1.
         21   -1    0    0  501  502 -0.00000000000E+00 -0.00000000000E+00 -0.46173471803E+02  0.46173471803E+02  0.00000000000E+00 0.  1.
         25    1    1    2    0    0  0.12929123929E+03 -0.15664936243E+02  0.64446707809E+03  0.66927156635E+03  0.12500000000E+03 0.  0.
         25    1    1    2    0    0 -0.97676882417E+02  0.37999577575E+01  0.24642629287E+03  0.29309747671E+03  0.12500000000E+03 0.  0.
         25    1    1    2    0    0 -0.31614356874E+02  0.11864978485E+02  0.39119886154E+03  0.41207013304E+03  0.12500000000E+03 0.  0.
</event>
<event>
 5    0  0.5612316E-005  0.2563196E+03  0.7546771E-02  0.1109375E+00
         21   -1    0    0  502  501  0.00000000000E+00  0.00000000000E+00  0.51165214128E+02  0.51165214128E+02  0.00000000000E+00 0.  1.
         21   -1    0    0  501  502 -0.00000000000E+00 -0.00000000000E+00 -0.12840699624E+04  0.12840699624E+04  0.00000000000E+00 0.  1.
         25    1    1    2    0    0 -0.53094464219E+02 -0.34886445238E+02 -0.12414423683E+03  0.18727754198E+03  0.12500000000E+03 0.  0.
         25    1    1    2    0    0  0.67418761930E+02  0.52456855370E+02 -0.39582103882E+03  0.42378804362E+03  0.12500000000E+03 0.  0.
         25    1    1    2    0    0 -0.14324297711E+02 -0.17570410133E+02 -0.71293947261E+03  0.72416959092E+03  0.12500000000E+03 0.  0.
</event>
<event>
 5    0  0.5612316E-005  0.3539814E+03  0.7546771E-02  0.1060993E+00
         21   -1    0    0  502  501  0.00000000000E+00  0.00000000000E+00  0.23004511303E+03  0.23004511303E+03  0.00000000000E+00 0. -1.
         21   -1    0    0  501  502 -0.00000000000E+00 -0.00000000000E+00 -0.54468803570E+03  0.54468803570E+03  0.00000000000E+00 0. -1.
         25    1    1    2    0    0 -0.98546844532E+02  0.94142310643E+02 -0.12459705142E+03  0.22298807242E+03  0.12500000000E+03 0.  0.
         25    1    1    2    0    0  0.15430961075E+03 -0.12633293317E+03  0.78919792339E+02  0.24824342810E+03  0.12500000000E+03 0.  0.
         25    1    1    2    0    0 -0.55762766214E+02  0.32190622525E+02 -0.26896566359E+03  0.30350164820E+03  0.12500000000E+03 0.  0.
</event>
<event>
 5    0  0.5612316E-005  0.3088460E+03  0.7546771E-02  0.1080900E+00
         21   -1    0    0  502  501  0.00000000000E+00  0.00000000000E+00  0.62144721280E+03  0.62144721280E+03  0.00000000000E+00 0.  1.
         21   -1    0    0  501  502 -0.00000000000E+00 -0.00000000000E+00 -0.15348989270E+03  0.15348989270E+03  0.00000000000E+00 0.  1.
         25    1    1    2    0    0 -0.15894059979E+02 -0.21463522087E+03  0.10964341191E+03  0.27196980891E+03  0.12500000000E+03 0.  0.
         25    1    1    2    0    0 -0.27344354679E+02  0.12297535342E+03  0.25865438066E+03  0.31368414036E+03  0.12500000000E+03 0.  0.
         25    1    1    2    0    0  0.43238414657E+02  0.91659867456E+02  0.99659527531E+02  0.18928315623E+03  0.12500000000E+03 0.  0.
</event>
<event>
 5    0  0.5612316E-005  0.2235033E+03  0.7546771E-02  0.1131298E+00
         21   -1    0    0  502  501  0.00000000000E+00  0.00000000000E+00  0.29647487763E+03  0.29647487763E+03  0.00000000000E+00 0.  1.
         21   -1    0    0  501  502 -0.00000000000E+00 -0.00000000000E+00 -0.16849233207E+03  0.16849233207E+03  0.00000000000E+00 0.  1.
         25    1    1    2    0    0 -0.97505367586E+01 -0.24622456661E+02  0.37726465350E+02  0.13322771681E+03  0.12500000000E+03 0.  0.
         25    1    1    2    0    0  0.40782782413E+02  0.94242243961E+02  0.40153707331E+01  0.16182076223E+03  0.12500000000E+03 0.  0.
         25    1    1    2    0    0 -0.31032245655E+02 -0.69619787300E+02  0.86240709480E+02  0.16991873065E+03  0.12500000000E+03 0.  0.
</event>
<event>
 5    0  0.5612316E-005  0.2357244E+03  0.7546771E-02  0.1122674E+00
         21   -1    0    0  502  501  0.00000000000E+00  0.00000000000E+00  0.18722945887E+04  0.18722945887E+04  0.00000000000E+00 0. -1.
         21   -1    0    0  501  502 -0.00000000000E+00 -0.00000000000E+00 -0.29678028270E+02  0.29678028270E+02  0.00000000000E+00 0. -1.
         25    1    1    2    0    0  0.22899044625E+02  0.25885587966E+02  0.93709459947E+03  0.94602627779E+03  0.12500000000E+03 0.  0.
         25    1    1    2    0    0 -0.12918135913E+02 -0.56199650663E+02  0.22866568715E+03  0.26690499330E+03  0.12500000000E+03 0.  0.
         25    1    1    2    0    0 -0.99809087127E+01  0.30314062698E+02  0.67685627383E+03  0.68904134590E+03  0.12500000000E+03 0.  0.
</event>
<event>
 5    0  0.5612316E-005  0.3613900E+03  0.7546771E-02  0.1058035E+00
         21   -1    0    0  502  501  0.00000000000E+00  0.00000000000E+00  0.46164208989E+03  0.46164208989E+03  0.00000000000E+00 0. -1.
         21   -1    0    0  501  502 -0.00000000000E+00 -0.00000000000E+00 -0.28290909009E+03  0.28290909009E+03  0.00000000000E+00 0. -1.
         25    1    1    2    0    0  0.10951982583E+03  0.63298402293E+02  0.52135619382E+02  0.18532242927E+03  0.12500000000E+03 0.  0.
         25    1    1    2    0    0  0.14428366842E+03 -0.48699253371E+02  0.18468534419E+03  0.27004271997E+03  0.12500000000E+03 0.  0.
         25    1    1    2    0    0 -0.25380349425E+03 -0.14599148922E+02 -0.58087963771E+02  0.28918603074E+03  0.12500000000E+03 0.  0.
</event>
<event>
 5    0  0.6055285E-005  0.4396384E+03  0.7546771E-02  0.1030858E+00
         21   -1    0    0  502  501  0.00000000000E+00  0.00000000000E+00  0.40981612162E+03  0.40981612162E+03  0.00000000000E+00 0.  1.
         21   -1    0    0  501  502 -0.00000000000E+00 -0.00000000000E+00 -0.47163080773E+03  0.47163080773E+03  0.00000000000E+00 0.  1.
         25    1    1    2    0    0 -0.15644881968E+02 -0.24874915608E+03 -0.10604591776E+02  0.27903111359E+03  0.12500000000E+03 0.  0.
         25    1    1    2    0    0  0.80108220070E+02  0.28631034415E+02 -0.23752277463E+03  0.28156550130E+03  0.12500000000E+03 0.  0.
         25    1    1    2    0    0 -0.64463338102E+02  0.22011812167E+03  0.18631268030E+03  0.32085031446E+03  0.12500000000E+03 0.  0.
</event>
<event>
 5    0  0.5612316E-005  0.2414725E+03  0.7546771E-02  0.1118816E+00
         21   -1    0    0  502  501  0.00000000000E+00  0.00000000000E+00  0.91550844730E+02  0.91550844730E+02  0.00000000000E+00 0.  1.
         21   -1    0    0  501  502 -0.00000000000E+00 -0.00000000000E+00 -0.63690266473E+03  0.63690266473E+03  0.00000000000E+00 0.  1.
         25    1    1    2    0    0  0.96577716483E+01  0.38718846430E+02 -0.16354391425E+03  0.20967602035E+03  0.12500000000E+03 0.  0.
         25    1    1    2    0    0  0.84757755291E+02 -0.27654658843E+02 -0.68108518902E+02  0.16796555476E+03  0.12500000000E+03 0.  0.
         25    1    1    2    0    0 -0.94415526940E+02 -0.11064187587E+02 -0.31369938684E+03  0.35081193435E+03  0.12500000000E+03 0.  0.
</event>
<event>
 5    0  0.5612316E-005  0.3393775E+03  0.7546771E-02  0.1067061E+00
         21   -1    0    0  502  501  0.00000000000E+00  0.00000000000E+00  0.13886663800E+04  0.13886663800E+04  0.00000000000E+00 0. -1.
         21   -1    0    0  501  502 -0.00000000000E+00 -0.00000000000E+00 -0.82940798790E+02  0.82940798790E+02  0.00000000000E+00 0. -1.
         25    1    1    2    0    0 -0.90566796990E+02  0.59765491880E+02  0.40874252706E+03  0.44098720181E+03  0.12500000000E+03 0.  0.
         25    1    1    2    0    0  0.14280428379E+02 -0.16175485467E+03  0.80338407037E+03  0.82910766983E+03  0.12500000000E+03 0.  0.
         25    1    1    2    0    0  0.76286368611E+02  0.10198936279E+03  0.93598983736E+02  0.20151230710E+03  0.12500000000E+03 0.  0.
</event>
<event>
 5    0  0.5612316E-005  0.2837832E+03  0.7546771E-02  0.1093640E+00
         21   -1    0    0  502  501  0.00000000000E+00  0.00000000000E+00  0.10557676491E+03  0.10557676491E+03  0.00000000000E+00 0.  1.
         21   -1    0    0  501  502 -0.00000000000E+00 -0.00000000000E+00 -0.76279016312E+03  0.76279016312E+03  0.00000000000E+00 0.  1.
         25    1    1    2    0    0 -0.13106879369E+03 -0.67176946604E+02 -0.41509681786E+03  0.45784510375E+03  0.12500000000E+03 0.  0.
         25    1    1    2    0    0  0.99493691776E+02  0.13292006587E+02 -0.40733698757E+02  0.16540830196E+03  0.12500000000E+03 0.  0.
         25    1    1    2    0    0  0.31575101911E+02  0.53884940017E+02 -0.20138288160E+03  0.24511352231E+03  0.12500000000E+03 0.  0.
</event>
<event>
 5    0  0.5612316E-005  0.3304586E+03  0.7546771E-02  0.1070934E+00
         21   -1    0    0  502  501  0.00000000000E+00  0.00000000000E+00  0.15511162412E+03  0.15511162412E+03  0.00000000000E+00 0. -1.
         21   -1    0    0  501  502 -0.00000000000E+00 -0.00000000000E+00 -0.70402754784E+03  0.70402754784E+03  0.00000000000E+00 0. -1.
         25    1    1    2    0    0  0.69477206594E+02 -0.13750257484E+03 -0.36095088865E+03  0.41187933225E+03  0.12500000000E+03 0.  0.
         25    1    1    2    0    0  0.49517560213E+02  0.17305846209E+03 -0.15390041485E+03  0.26779013754E+03  0.12500000000E+03 0.  0.
         25    1    1    2    0    0 -0.11899476681E+03 -0.35555887252E+02 -0.34064620218E+02  0.17946970217E+03  0.12500000000E+03 0.  0.
</event>
<event>
 5    0  0.5612316E-005  0.3512242E+03  0.7546771E-02  0.1062114E+00
         21   -1    0    0  502  501  0.00000000000E+00  0.00000000000E+00  0.40616258047E+03  0.40616258047E+03  0.00000000000E+00 0. -1.
         21   -1    0    0  501  502 -0.00000000000E+00 -0.00000000000E+00 -0.30371682367E+03  0.30371682367E+03  0.00000000000E+00 0. -1.
         25    1    1    2    0    0 -0.14580266123E+03 -0.37926161068E+02  0.86217076988E+02  0.21390463782E+03  0.12500000000E+03 0.  0.
         25    1    1    2    0    0  0.11570713401E+03  0.78305230400E+02 -0.17870124224E+03  0.25899610797E+03  0.12500000000E+03 0.  0.
         25    1    1    2    0    0  0.30095527228E+02 -0.40379069331E+02  0.19492992205E+03  0.23697865834E+03  0.12500000000E+03 0.  0.
</event>
<event>
 5    0  0.5612316E-005  0.2369953E+03  0.7546771E-02  0.1121811E+00
         21   -1    0    0  502  501  0.00000000000E+00  0.00000000000E+00  0.25203599160E+03  0.25203599160E+03  0.00000000000E+00 0.  1.
         21   -1    0    0  501  502 -0.00000000000E+00 -0.00000000000E+00 -0.22285210324E+03  0.22285210324E+03  0.00000000000E+00 0.  1.
         25    1    1    2    0    0  0.62493777832E+02 -0.15986758418E+02  0.90011434666E+02  0.16699732657E+03  0.12500000000E+03 0.  0.
         25    1    1    2    0    0 -0.44320323361E+02 -0.63106730966E+02  0.12792795182E+00  0.14687330228E+03  0.12500000000E+03 0.  0.
         25    1    1    2    0    0 -0.18173454471E+02  0.79093489384E+02 -0.60955474261E+02  0.16101746599E+03  0.12500000000E+03 0.  0.
</event>
<event>
 5    0  0.5612316E-005  0.4684718E+03  0.7546771E-02  0.1022352E+00
         21   -1    0    0  502  501  0.00000000000E+00  0.00000000000E+00  0.17117980032E+03  0.17117980032E+03  0.00000000000E+00 0.  1.
         21   -1    0    0  501  502 -0.00000000000E+00 -0.00000000000E+00 -0.12820777771E+04  0.12820777771E+04  0.00000000000E+00 0.  1.
         25    1    1    2    0    0 -0.11201378578E+02  0.65118042992E+01 -0.19163692165E+03  0.22916715344E+03  0.12500000000E+03 0.  0.
         25    1    1    2    0    0 -0.13934393667E+03  0.25279366601E+03 -0.80610123801E+02  0.32472197696E+03  0.12500000000E+03 0.  0.
         25    1    1    2    0    0  0.15054531525E+03 -0.25930547031E+03 -0.83865093128E+03  0.89936844697E+03  0.12500000000E+03 0.  0.
</event>
<event>
 5    0  0.5612316E-005  0.2386472E+03  0.7546771E-02  0.1120697E+00
         21   -1    0    0  502  501  0.00000000000E+00  0.00000000000E+00  0.47784247166E+02  0.47784247166E+02  0.00000000000E+00 0.  1.
         21   -1    0    0  501  502 -0.00000000000E+00 -0.00000000000E+00 -0.11918676259E+04  0.11918676259E+04  0.00000000000E+00 0.  1.
         25    1    1    2    0    0 -0.23146428409E+02  0.11594372238E+02 -0.11572436718E+03  0.17230007479E+03  0.12500000000E+03 0.  0.
         25    1    1    2    0    0  0.26359679578E+02  0.16690622071E+02 -0.28165414574E+03  0.30972159657E+03  0.12500000000E+03 0.  0.
         25    1    1    2    0    0 -0.32132511694E+01 -0.28284994309E+02 -0.74670486580E+03  0.75763020168E+03  0.12500000000E+03 0.  0.
</event>
<event>
 5    0  0.5612316E-005  0.3924241E+03  0.7546771E-02  0.1046435E+00
         21   -1    0    0  502  501  0.00000000000E+00  0.00000000000E+00  0.68920611385E+03  0.68920611385E+03  0.00000000000E+00 0. -1.
         21   -1    0    0  501  502 -0.00000000000E+00 -0.00000000000E+00 -0.22344064390E+03  0.22344064390E+03  0.00000000000E+00 0. -1.
         25    1    1    2    0    0 -0.73557293239E+02 -0.16549601448E+03  0.30084917315E+03  0.37273962921E+03  0.12500000000E+03 0.  0.
         25    1    1    2    0    0 -0.12161646240E+03 -0.54252616805E+02  0.49752899333E+01  0.18271196968E+03  0.12500000000E+03 0.  0.
         25    1    1    2    0    0  0.19517375563E+03  0.21974863128E+03  0.15994100687E+03  0.35719515886E+03  0.12500000000E+03 0.  0.
</event>
<event>
 5    0  0.5612316E-005  0.2465210E+03  0.7546771E-02  0.1115523E+00
         21   -1    0    0  502  501  0.00000000000E+00  0.00000000000E+00  0.78273129362E+02  0.78273129362E+02  0.00000000000E+00 0.  1.
         21   -1    0    0  501  502 -0.00000000000E+00 -0.00000000000E+00 -0.77641706864E+03  0.77641706864E+03  0.00000000000E+00 0.  1.
         25    1    1    2    0    0 -0.35405171196E+02 -0.83838512245E+02 -0.20537743711E+03  0.25707452997E+03  0.12500000000E+03 0.  0.
         25    1    1    2    0    0  0.79142119296E+02  0.68788012297E+02 -0.40862807263E+03  0.43999678115E+03  0.12500000000E+03 0.  0.
         25    1    1    2    0    0 -0.43736948100E+02  0.15050499948E+02 -0.84138429535E+02  0.15761888688E+03  0.12500000000E+03 0.  0.
</event>
<event>
 5    0  0.5612316E-005  0.2418209E+03  0.7546771E-02  0.1118586E+00
         21   -1    0    0  502  501  0.00000000000E+00  0.00000000000E+00  0.68745400167E+03  0.68745400167E+03  0.00000000000E+00 0. -1.
         21   -1    0    0  501  502 -0.00000000000E+00 -0.00000000000E+00 -0.85063677250E+02  0.85063677250E+02  0.00000000000E+00 0. -1.
         25    1    1    2    0    0 -0.88717064639E+02 -0.49676137520E+01  0.36726135134E+03  0.39799660166E+03  0.12500000000E+03 0.  0.
         25    1    1    2    0    0 -0.89946122357E+01 -0.24022834294E+02  0.79204576968E+02  0.15018776458E+03  0.12500000000E+03 0.  0.
         25    1    1    2    0    0  0.97711676874E+02  0.28990448046E+02  0.15592439612E+03  0.22433331268E+03  0.12500000000E+03 0.  0.
</event>
<event>
 5    0  0.5612316E-005  0.4021960E+03  0.7546771E-02  0.1043022E+00
         21   -1    0    0  502  501  0.00000000000E+00  0.00000000000E+00  0.24471521268E+03  0.24471521268E+03  0.00000000000E+00 0. -1.
         21   -1    0    0  501  502 -0.00000000000E+00 -0.00000000000E+00 -0.66101982338E+03  0.66101982338E+03  0.00000000000E+00 0. -1.
         25    1    1    2    0    0  0.24803770626E+03 -0.24429621175E+03 -0.20525023510E+03  0.42303191583E+03  0.12500000000E+03 0.  0.
         25    1    1    2    0    0 -0.16515112931E+03  0.15990398523E+03 -0.11773154207E+03  0.28693186648E+03  0.12500000000E+03 0.  0.
         25    1    1    2    0    0 -0.82886576949E+02  0.84392226517E+02 -0.93322833528E+02  0.19577125374E+03  0.12500000000E+03 0.  0.
</event>
<event>
 5    0  0.5612316E-005  0.3504682E+03  0.7546771E-02  0.1062423E+00
         21   -1    0    0  502  501  0.00000000000E+00  0.00000000000E+00  0.36954213461E+03  0.36954213461E+03  0.00000000000E+00 0.  1.
         21   -1    0    0  501  502 -0.00000000000E+00 -0.00000000000E+00 -0.33237869767E+03  0.33237869767E+03  0.00000000000E+00 0.  1.
         25    1    1    2    0    0 -0.41416113352E+02 -0.14376265959E+03  0.11639633564E+03  0.22705969190E+03  0.12500000000E+03 0.  0.
         25    1    1    2    0    0 -0.15833383253E+03  0.32807144840E+02 -0.66698674339E+01  0.20448813758E+03  0.12500000000E+03 0.  0.
         25    1    1    2    0    0  0.19974994589E+03  0.11095551475E+03 -0.72563031264E+02  0.27037300280E+03  0.12500000000E+03 0.  0.
</event>
<event>
 5    0  0.5612316E-005  0.2878693E+03  0.7546771E-02  0.1091467E+00
         21   -1    0    0  502  501  0.00000000000E+00  0.00000000000E+00  0.16408423000E+04  0.16408423000E+04  0.00000000000E+00 0.  1.
         21   -1    0    0  501  502 -0.00000000000E+00 -0.00000000000E+00 -0.50503763212E+02  0.50503763212E+02  0.00000000000E+00 0.  1.
         25    1    1    2    0    0 -0.12460991845E+03 -0.17527380414E+02  0.34695705088E+03  0.38966528713E+03  0.12500000000E+03 0.  0.
         25    1    1    2    0    0 -0.33411886885E+02  0.27320691790E+02  0.20546453038E+03  0.24434288946E+03  0.12500000000E+03 0.  0.
         25    1    1    2    0    0  0.15802180534E+03 -0.97933113759E+01  0.10379169555E+04  0.10573378866E+04  0.12500000000E+03 0.  0.
</event>
<event>
 5    0  0.7338648E-005  0.3410930E+03  0.7546771E-02  0.1066331E+00
         21   -1    0    0  502  501  0.00000000000E+00  0.00000000000E+00  0.61383603111E+03  0.61383603111E+03  0.00000000000E+00 0. -1.
         21   -1    0    0  501  502 -0.00000000000E+00 -0.00000000000E+00 -0.18953665419E+03  0.18953665419E+03  0.00000000000E+00 0. -1.
         25    1    1    2    0    0 -0.13926561082E+03  0.12216434095E+03  0.14225031029E+03  0.26491354691E+03  0.12500000000E+03 0.  0.
         25    1    1    2    0    0 -0.26044046864E+02 -0.96295376360E+02  0.28810290324E+03  0.32951384605E+03  0.12500000000E+03 0.  0.
         25    1    1    2    0    0  0.16530965768E+03 -0.25868964594E+02 -0.60538366099E+01  0.20894529234E+03  0.12500000000E+03 0.  0.
</event>
<event>
 5    0  0.5612316E-005  0.3257844E+03  0.7546771E-02  0.1073018E+00
         21   -1    0    0  502  501  0.00000000000E+00  0.00000000000E+00  0.90557852979E+02  0.90557852979E+02  0.00000000000E+00 0. -1.
         21   -1    0    0  501  502 -0.00000000000E+00 -0.00000000000E+00 -0.11720182921E+04  0.11720182921E+04  0.00000000000E+00 0. -1.
         25    1    1    2    0    0  0.58244529896E+02  0.53435212696E+02 -0.57157932837E+03  0.59040297750E+03  0.12500000000E+03 0.  0.
         25    1    1    2    0    0 -0.17032565922E+03 -0.51751619977E+02 -0.43898412791E+03  0.48991950861E+03  0.12500000000E+03 0.  0.
         25    1    1    2    0    0  0.11208112933E+03 -0.16835927189E+01 -0.70896982855E+02  0.18225365899E+03  0.12500000000E+03 0.  0.
</event>
<event>
 5    0  0.5612316E-005  0.4787379E+03  0.7546771E-02  0.1019483E+00
         21   -1    0    0  502  501  0.00000000000E+00  0.00000000000E+00  0.20466664247E+03  0.20466664247E+03  0.00000000000E+00 0. -1.
         21   -1    0    0  501  502 -0.00000000000E+00 -0.00000000000E+00 -0.11198210056E+04  0.11198210056E+04  0.00000000000E+00 0. -1.
         25    1    1    2    0    0 -0.39079579444E+02  0.12092071980E+03  0.83150424571E+02  0.19669272257E+03  0.12500000000E+03 0.  0.
         25    1    1    2    0    0  0.35608645142E+02 -0.16041261701E+03 -0.97246223028E+03  0.99413679774E+03  0.12500000000E+03 0.  0.
         25    1    1    2    0    0  0.34709343021E+01  0.39491897201E+02 -0.25842557381E+02  0.13365812770E+03  0.12500000000E+03 0.  0.
</event>
<event>
 5    0  0.5612316E-005  0.2841546E+03  0.7546771E-02  0.1093441E+00
         21   -1    0    0  502  501  0.00000000000E+00  0.00000000000E+00  0.10147341053E+04  0.10147341053E+04  0.00000000000E+00 0.  1.
         21   -1    0    0  501  502 -0.00000000000E+00 -0.00000000000E+00 -0.79571405520E+02  0.79571405520E+02  0.00000000000E+00 0.  1.
         25    1    1    2    0    0  0.11721382223E+03 -0.50276806976E+02  0.35565860565E+03  0.39797598070E+03  0.12500000000E+03 0.  0.
         25    1    1    2    0    0 -0.48164445894E+02  0.12527109766E+03  0.46110479400E+03  0.49624116396E+03  0.12500000000E+03 0.  0.
         25    1    1    2    0    0 -0.69049376334E+02 -0.74994290681E+02  0.11839930016E+03  0.20008836619E+03  0.12500000000E+03 0.  0.
</event>
<event>
 5    0  0.5612316E-005  0.2626836E+03  0.7546771E-02  0.1105541E+00
         21   -1    0    0  502  501  0.00000000000E+00  0.00000000000E+00  0.65958924924E+03  0.65958924924E+03  0.00000000000E+00 0. -1.
         21   -1    0    0  501  502 -0.00000000000E+00 -0.00000000000E+00 -0.10461465012E+03  0.10461465012E+03  0.00000000000E+00 0. -1.
         25    1    1    2    0    0  0.44480989035E+02  0.45934771399E+02  0.26222009350E+03  0.29744400993E+03  0.12500000000E+03 0.  0.
         25    1    1    2    0    0 -0.87957564610E+02 -0.19602715373E+02  0.29386414784E+03  0.33181611927E+03  0.12500000000E+03 0.  0.
         25    1    1    2    0    0  0.43476575575E+02 -0.26332056026E+02 -0.11096422275E+01  0.13494377016E+03  0.12500000000E+03 0.  0.
</event>
<event>
 5    0  0.5612316E-005  0.3051564E+03  0.7546771E-02  0.1082691E+00
         21   -1    0    0  502  501  0.00000000000E+00  0.00000000000E+00  0.10442800506E+04  0.10442800506E+04  0.00000000000E+00 0.  1.
         21   -1    0    0  501  502 -0.00000000000E+00 -0.00000000000E+00 -0.89171865152E+02  0.89171865152E+02  0.00000000000E+00 0.  1.
         25    1    1    2    0    0  0.15423789938E+03 -0.78515039985E+02  0.34130906130E+03  0.40258019876E+03  0.12500000000E+03 0.  0.
         25    1    1    2    0    0 -0.12223114613E+03  0.43926384216E+02  0.11344189147E+03  0.21298836366E+03  0.12500000000E+03 0.  0.
         25    1    1    2    0    0 -0.32006753251E+02  0.34588655769E+02  0.50035723269E+03  0.51788335334E+03  0.12500000000E+03 0.  0.
</event>
<event>
 5    0  0.5612316E-005  0.3095474E+03  0.7546771E-02  0.1080563E+00
         21   -1    0    0  502  501  0.00000000000E+00  0.00000000000E+00  0.30536074353E+03  0.30536074353E+03  0.00000000000E+00 0.  1.
         21   -1    0    0  501  502 -0.00000000000E+00 -0.00000000000E+00 -0.31379150562E+03  0.31379150562E+03  0.00000000000E+00 0.  1.
         25    1    1    2    0    0  0.40313827439E+02 -0.14551477190E+03 -0.15556099953E+03  0.25024783335E+03  0.12500000000E+03 0.  0.
         25    1    1    2    0    0 -0.49682758200E+02 -0.98103476062E+01  0.86812136855E+02  0.16039316222E+03  0.12500000000E+03 0.  0.
         25    1    1    2    0    0  0.93689307605E+01  0.15532511951E+03  0.60318100576E+02  0.20851125358E+03  0.12500000000E+03 0.  0.
</event>
<event>
 5    0  0.5612316E-005  0.2598803E+03  0.7546771E-02  0.1107215E+00
         21   -1    0    0  502  501  0.00000000000E+00  0.00000000000E+00  0.12157383274E+04  0.12157383274E+04  0.00000000000E+00 0.  1.
         21   -1    0    0  501  502 -0.00000000000E+00 -0.00000000000E+00 -0.55552879176E+02  0.55552879176E+02  0.00000000000E+00 0.  1.
         25    1    1    2    0    0  0.15338183815E+02 -0.42845055745E+02  0.46702709761E+03  0.48560299483E+03  0.12500000000E+03 0.  0.
         25    1    1    2    0    0 -0.97798925375E+02  0.11178531421E+03  0.27869415348E+03  0.33964101263E+03  0.12500000000E+03 0.  0.
         25    1    1    2    0    0  0.82460741560E+02 -0.68940258463E+02  0.41446419717E+03  0.44604719915E+03  0.12500000000E+03 0.  0.
</event>
<event>
 5    0  0.5612316E-005  0.4492301E+03  0.7546771E-02  0.1027952E+00
         21   -1    0    0  502  501  0.00000000000E+00  0.00000000000E+00  0.90477177360E+03  0.90477177360E+03  0.00000000000E+00 0.  1.
         21   -1    0    0  501  502 -0.00000000000E+00 -0.00000000000E+00 -0.22304813419E+03  0.22304813419E+03  0.00000000000E+00 0.  1.
         25    1    1    2    0    0  0.34955374972E+02 -0.13302037341E+03 -0.43228135124E+02  0.19081396607E+03  0.12500000000E+03 0.  0.
         25    1    1    2    0    0 -0.25115068502E+02 -0.20034740740E+03  0.29261844822E+03  0.37685594934E+03  0.12500000000E+03 0.  0.
         25    1    1    2    0    0 -0.98403064694E+01  0.33336778081E+03  0.43233332632E+03  0.56014999238E+03  0.12500000000E+03 0.  0.
</event>
<event>
 5    0  0.5612316E-005  0.3766535E+03  0.7546771E-02  0.1052178E+00
         21   -1    0    0  502  501  0.00000000000E+00  0.00000000000E+00  0.39306153094E+03  0.39306153094E+03  0.00000000000E+00 0. -1.
         21   -1    0    0  501  502 -0.00000000000E+00 -0.00000000000E+00 -0.36093045134E+03  0.36093045134E+03  0.00000000000E+00 0. -1.
         25    1    1    2    0    0  0.57733342669E+02  0.29836458075E+03 -0.55835689767E+02  0.33331244525E+03  0.12500000000E+03 0.  0.
         25    1    1    2    0    0 -0.27463316399E+02 -0.22364769275E+03  0.24083883876E+02  0.25880022737E+03  0.12500000000E+03 0.  0.
         25    1    1    2    0    0 -0.30270026270E+02 -0.74716887999E+02  0.63882885490E+02  0.16187930968E+03  0.12500000000E+03 0.  0.
</event>
<event>
 5    0  0.5612316E-005  0.4876650E+03  0.7546771E-02  0.1017050E+00
         21   -1    0    0  502  501  0.00000000000E+00  0.00000000000E+00  0.44514609647E+03  0.44514609647E+03  0.00000000000E+00 0.  1.
         21   -1    0    0  501  502 -0.00000000000E+00 -0.00000000000E+00 -0.53424522958E+03  0.53424522958E+03  0.00000000000E+00 0.  1.
         25    1    1    2    0    0  0.25622175116E+03 -0.72992785313E+02  0.29587727026E+03  0.41730790974E+03  0.12500000000E+03 0.  0.
         25    1    1    2    0    0 -0.73882259025E+02  0.68355674631E+02 -0.26684028296E+03  0.31138372318E+03  0.12500000000E+03 0.  0.
         25    1    1    2    0    0 -0.18233949213E+03  0.46371106820E+01 -0.11813612041E+03  0.25069969312E+03  0.12500000000E+03 0.  0.
</event>
<event>
 5    0  0.5612316E-005  0.2285305E+03  0.7546771E-02  0.1127678E+00
         21   -1    0    0  502  501  0.00000000000E+00  0.00000000000E+00  0.11790674041E+03  0.11790674041E+03  0.00000000000E+00 0. -1.
         21   -1    0    0  501  502 -0.00000000000E+00 -0.00000000000E+00 -0.44294480492E+03  0.44294480492E+03  0.00000000000E+00 0. -1.
         25    1    1    2    0    0 -0.28503282712E+02 -0.47824449399E+02 -0.50299298664E+02  0.14578969282E+03  0.12500000000E+03 0.  0.
         25    1    1    2    0    0 -0.53853567110E+02  0.79698923005E+02 -0.12964535501E+03  0.20416915314E+03  0.12500000000E+03 0.  0.
         25    1    1    2    0    0  0.82356849823E+02 -0.31874473606E+02 -0.14509341084E+03  0.21089269937E+03  0.12500000000E+03 0.  0.
</event>
<event>
 5    0  0.5612316E-005  0.2786063E+03  0.7546771E-02  0.1096453E+00
         21   -1    0    0  502  501  0.00000000000E+00  0.00000000000E+00  0.17612066310E+03  0.17612066310E+03  0.00000000000E+00 0. -1.
         21   -1    0    0  501  502 -0.00000000000E+00 -0.00000000000E+00 -0.44072885086E+03  0.44072885086E+03  0.00000000000E+00 0. -1.
         25    1    1    2    0    0 -0.34762602363E+02  0.12141076480E+03 -0.26014407811E+03  0.31503801946E+03  0.12500000000E+03 0.  0.
         25    1    1    2    0    0  0.24592115348E+02 -0.12046956635E+03  0.96615005966E+01  0.17560191670E+03  0.12500000000E+03 0.  0.
         25    1    1    2    0    0  0.10170487015E+02 -0.94119844887E+00 -0.14125610249E+02  0.12620957779E+03  0.12500000000E+03 0.  0.
</event>
