<event>
 6    0  0.1704145E+002  0.1102242E+03  0.7546771E-02  0.1260155E+00
         21   -1    0    0  503  501  0.00000000000E+00  0.00000000000E+00  0.66605741128E+03  0.66605741128E+03  0.00000000000E+00 0. -1.
         21   -1    0    0  505  502 -0.00000000000E+00 -0.00000000000E+00 -0.70572884712E+02  0.70572884712E+02  0.00000000000E+00 0.  1.
         21    1    1    2  503  506 -0.31067265334E+02 -0.24362619112E+02 -0.34518941035E+01  0.39631146315E+02  0.00000000000E+00 0.  1.
         21    1    1    2  504  502  0.44588842196E+02 -0.37767529434E+02 -0.23030133450E+00  0.58434614456E+02  0.00000000000E+00 0.  1.
         21    1    1    2  505  501 -0.14074808185E+01  0.10821927896E+03  0.57506690219E+03  0.58516265716E+03  0.00000000000E+00 0. -1.
         21    1    1    2  506  504 -0.12114096043E+02 -0.46089130412E+02  0.24099819815E+02  0.53401878059E+02  0.00000000000E+00 0.  1.
<scales pt_clust_3="34.06560" pt_clust_4="58.43416" pt_clust_5="103.67563" pt_clust_6="34.06560"></scales>
<clustering>
<clus scale="   34.066">  3  6 -1 -1</clus>
<clus scale="   58.434">  2  4  1 -1</clus>
<clus scale="  103.676">  1  5  2 -1</clus>
<clus scale="  103.676">  1  3  2 -1</clus>
</clustering>
</event>
<event>
 6    0  0.1704145E+002  0.2542256E+03  0.7546771E-02  0.1110663E+00
         21   -1    0    0  503  501  0.00000000000E+00  0.00000000000E+00  0.66575589178E+03  0.66575589178E+03  0.00000000000E+00 0. -1.
         21   -1    0    0  501  502 -0.00000000000E+00 -0.00000000000E+00 -0.11115503878E+04  0.11115503878E+04  0.00000000000E+00 0.  1.
         21    1    1    2  503  505 -0.12697202521E+02  0.37010919410E+02  0.52574784353E+03  0.52720187982E+03  0.00000000000E+00 0. -1.
         21    1    1    2  504  502 -0.20299606737E+03  0.14719148283E+03 -0.83931628192E+03  0.87597063712E+03  0.00000000000E+00 0.  1.
         21    1    1    2  505  506  0.40663461576E+02  0.39791166663E+02 -0.55983285682E+02  0.79818433507E+02  0.00000000000E+00 0. -1.
         21    1    1    2  506  504  0.17502980832E+03 -0.22399356891E+03 -0.76242771988E+02  0.29431532918E+03  0.00000000000E+00 0. -1.
<scales pt_clust_3="39.12834" pt_clust_4="254.22558" pt_clust_5="58.41003" pt_clust_6="14000.00000"></scales>
<clustering>
<clus scale="   39.128">  1  3  2 -1</clus>
<clus scale="   58.410">  1  5  2 -1</clus>
<clus scale="  254.226">  2  4  1 -1</clus>
<clus scale="   39.128">  1  3  2 -1</clus>
</clustering>
</event>
<event>
 6    0  0.1704145E+002  0.1401428E+03  0.7546771E-02  0.1213137E+00
         21   -1    0    0  503  501  0.00000000000E+00  0.00000000000E+00  0.23856510401E+03  0.23856510401E+03  0.00000000000E+00 0.  1.
         21   -1    0    0  506  502 -0.00000000000E+00 -0.00000000000E+00 -0.52623319932E+03  0.52623319932E+03  0.00000000000E+00 0. -1.
         21    1    1    2  503  504 -0.11207592589E+03  0.15070074527E+02  0.19260743055E+03  0.22335116435E+03  0.00000000000E+00 0.  1.
         21    1    1    2  504  505  0.35511298016E+02 -0.45738110318E+02 -0.20878732975E+03  0.21666835507E+03  0.00000000000E+00 0. -1.
         21    1    1    2  505  502  0.11405496777E+03 -0.14040095887E+02 -0.21381113637E+03  0.24273619838E+03  0.00000000000E+00 0. -1.
         21    1    1    2  506  501 -0.37490339889E+02  0.44708131678E+02 -0.57677059729E+02  0.82042585541E+02  0.00000000000E+00 0. -1.
<scales pt_clust_3="114.54442" pt_clust_4="57.31641" pt_clust_5="57.31641" pt_clust_6="58.34674"></scales>
<clustering>
<clus scale="   57.316">  4  5 -1 -1</clus>
<clus scale="   58.347">  2  6  1 -1</clus>
<clus scale="  114.544">  1  3  2 -1</clus>
<clus scale="  114.544">  1  3  2 -1</clus>
</clustering>
</event>
<event>
 6    0  0.1704145E+002  0.1042976E+03  0.7546771E-02  0.1271510E+00
         21   -1    0    0  506  501  0.00000000000E+00  0.00000000000E+00  0.39635209419E+03  0.39635209419E+03  0.00000000000E+00 0. -1.
         21   -1    0    0  503  502 -0.00000000000E+00 -0.00000000000E+00 -0.17844282681E+03  0.17844282681E+03  0.00000000000E+00 0. -1.
         21    1    1    2  503  504  0.36475123602E+02 -0.32624605343E+02  0.17034064171E+02  0.51816588635E+02  0.00000000000E+00 0. -1.
         21    1    1    2  504  501  0.21872777366E+02  0.30890415712E+02  0.18275274705E+03  0.18663119441E+03  0.00000000000E+00 0.  1.
         21    1    1    2  505  502 -0.48049416675E+02 -0.95484660231E+02 -0.12408438959E+03  0.16377729550E+03  0.00000000000E+00 0. -1.
         21    1    1    2  506  505 -0.10298484294E+02  0.97218849863E+02  0.14220684575E+03  0.17256984245E+03  0.00000000000E+00 0. -1.
<scales pt_clust_3="48.62504" pt_clust_4="37.85018" pt_clust_5="104.29764" pt_clust_6="14000.00000"></scales>
<clustering>
<clus scale="   37.850">  1  4  2 -1</clus>
<clus scale="   48.625">  1  3  2 -1</clus>
<clus scale="  104.298">  2  5  1 -1</clus>
<clus scale="   37.850">  1  3  2 -1</clus>
</clustering>
</event>
<event>
 6    0  0.1704145E+002  0.1126605E+03  0.7546771E-02  0.1255721E+00
         21   -1    0    0  506  501  0.00000000000E+00  0.00000000000E+00  0.54382804856E+03  0.54382804856E+03  0.00000000000E+00 0. -1.
         21   -1    0    0  504  502 -0.00000000000E+00 -0.00000000000E+00 -0.15610745059E+03  0.15610745059E+03  0.00000000000E+00 0.  1.
         21    1    1    2  503  502  0.28306467253E+02  0.46334293099E+02 -0.33024290062E+02  0.63550975912E+02  0.00000000000E+00 0.  1.
         21    1    1    2  504  501 -0.18844604930E+02  0.48698158559E+02 -0.37647640903E+01  0.52352681217E+02  0.00000000000E+00 0.  1.
         21    1    1    2  505  503 -0.52989028428E+02  0.17264685317E+02 -0.61690859023E+02  0.83136445557E+02  0.00000000000E+00 0.  1.
         21    1    1    2  506  505  0.43527166105E+02 -0.11229713697E+03  0.48620051115E+03  0.50089539647E+03  0.00000000000E+00 0. -1.
<scales pt_clust_3="68.08337" pt_clust_4="52.21714" pt_clust_5="112.66050" pt_clust_6="14000.00000"></scales>
<clustering>
<clus scale="   52.217">  2  4  1 -1</clus>
<clus scale="   68.083">  2  3  1 -1</clus>
<clus scale="  112.661">  2  5  1 -1</clus>
<clus scale="  112.661">  1  3  2 -1</clus>
</clustering>
</event>
<event>
 6    0  0.1704145E+002  0.1788334E+03  0.7546771E-02  0.1168937E+00
         21   -1    0    0  506  501  0.00000000000E+00  0.00000000000E+00  0.67038782377E+03  0.67038782377E+03  0.00000000000E+00 0.  1.
         21   -1    0    0  503  502 -0.00000000000E+00 -0.00000000000E+00 -0.53883837895E+03  0.53883837895E+03  0.00000000000E+00 0.  1.
         21    1    1    2  503  501  0.12785706703E+03 -0.11184172453E+03 -0.61545197066E+02  0.18067598683E+03  0.00000000000E+00 0. -1.
         21    1    1    2  504  505 -0.38425551603E+02  0.38469479403E+02 -0.91208339360E+02  0.10618561593E+03  0.00000000000E+00 0.  1.
         21    1    1    2  505  502 -0.12172043842E+03  0.26984988886E+02 -0.30544730593E+03  0.32991227842E+03  0.00000000000E+00 0.  1.
         21    1    1    2  506  504  0.32288922995E+02  0.46387256240E+02  0.58975028716E+03  0.59245232154E+03  0.00000000000E+00 0.  1.
<scales pt_clust_3="170.48965" pt_clust_4="35.65279" pt_clust_5="35.65279" pt_clust_6="56.51860"></scales>
<clustering>
<clus scale="   35.653">  4  5 -1 -1</clus>
<clus scale="   56.519">  1  6  2 -1</clus>
<clus scale="  170.490">  1  3  2 -1</clus>
<clus scale="   56.519">  1  3  2 -1</clus>
</clustering>
</event>
<event>
 6    0  0.2005275E+002  0.9527334E+02  0.7546771E-02  0.1290562E+00
         21   -1    0    0  505  501  0.00000000000E+00  0.00000000000E+00  0.12305049792E+04  0.12305049792E+04  0.00000000000E+00 0. -1.
         21   -1    0    0  504  502 -0.00000000000E+00 -0.00000000000E+00 -0.78663796740E+03  0.78663796740E+03  0.00000000000E+00 0.  1.
         21    1    1    2  503  501 -0.10529262398E+02 -0.34854801641E+02  0.10348264386E+04  0.10354667936E+04  0.00000000000E+00 0. -1.
         21    1    1    2  504  503  0.60331430342E+02  0.70313906509E+02  0.14294764850E+03  0.17034657950E+03  0.00000000000E+00 0. -1.
         21    1    1    2  505  506 -0.18879336456E+02  0.54842810593E+02  0.12092404391E+02  0.59248539751E+02  0.00000000000E+00 0. -1.
         21    1    1    2  506  502 -0.30922831488E+02 -0.90301915460E+02 -0.74599947977E+03  0.75208103371E+03  0.00000000000E+00 0.  1.
<scales pt_clust_3="36.41047" pt_clust_4="14000.00000" pt_clust_5="52.75320" pt_clust_6="95.27334"></scales>
<clustering>
<clus scale="   36.410">  1  3  2 -1</clus>
<clus scale="   52.753">  1  5  2 -1</clus>
<clus scale="   95.273">  2  6  1 -1</clus>
<clus scale="   36.410">  1  3  2 -1</clus>
</clustering>
</event>
<event>
 6    0  0.1704145E+002  0.1408153E+03  0.7546771E-02  0.1212236E+00
         21   -1    0    0  506  501  0.00000000000E+00  0.00000000000E+00  0.89984537383E+03  0.89984537383E+03  0.00000000000E+00 0. -1.
         21   -1    0    0  504  502 -0.00000000000E+00 -0.00000000000E+00 -0.99041591429E+02  0.99041591429E+02  0.00000000000E+00 0.  1.
         21    1    1    2  503  505  0.61291676758E+02 -0.36799007759E+00  0.25833777070E+02  0.66514578058E+02  0.00000000000E+00 0.  1.
         21    1    1    2  504  503  0.46862607089E+02 -0.23652954012E+02 -0.32470053291E+01  0.52593813518E+02  0.00000000000E+00 0.  1.
         21    1    1    2  505  501 -0.10124489113E+03  0.97971431325E+02  0.79183245772E+03  0.80426834479E+03  0.00000000000E+00 0. -1.
         21    1    1    2  506  502 -0.69093927160E+01 -0.73950487235E+02 -0.13615447052E+02  0.75510228899E+02  0.00000000000E+00 0.  1.
<scales pt_clust_3="34.65511" pt_clust_4="34.65511" pt_clust_5="135.74479" pt_clust_6="74.27257"></scales>
<clustering>
<clus scale="   34.655">  3  4 -1 -1</clus>
<clus scale="   74.273">  2  6  1 -1</clus>
<clus scale="  135.745">  1  5  2 -1</clus>
<clus scale="  135.745">  1  3  2 -1</clus>
</clustering>
</event>
<event>
 6    0  0.1704145E+002  0.1104381E+03  0.7546771E-02  0.1259761E+00
         21   -1    0    0  503  501  0.00000000000E+00  0.00000000000E+00  0.36328395687E+03  0.36328395687E+03  0.00000000000E+00 0. -1.
         21   -1    0    0  505  502 -0.00000000000E+00 -0.00000000000E+00 -0.14721312879E+03  0.14721312879E+03  0.00000000000E+00 0.  1.
         21    1    1    2  503  506 -0.70992538781E+02  0.35042371957E+02  0.58000202474E+02  0.98142406135E+02  0.00000000000E+00 0.  1.
         21    1    1    2  504  501 -0.50356842002E+02 -0.23363329942E+02  0.21116143887E+03  0.21833646051E+03  0.00000000000E+00 0. -1.
         21    1    1    2  505  504  0.14287226503E+03 -0.42342757587E+02 -0.39443991895E+02  0.15414675388E+03  0.00000000000E+00 0.  1.
         21    1    1    2  506  502 -0.21522884243E+02  0.30663715572E+02 -0.13646821372E+02  0.39871465139E+02  0.00000000000E+00 0.  1.
<scales pt_clust_3="14000.00000" pt_clust_4="55.72062" pt_clust_5="110.43812" pt_clust_6="37.46329"></scales>
<clustering>
<clus scale="   37.463">  2  6  1 -1</clus>
<clus scale="   55.721">  1  4  2 -1</clus>
<clus scale="  110.438">  2  5  1 -1</clus>
<clus scale="   55.721">  1  3  2 -1</clus>
</clustering>
</event>
<event>
 6    0  0.1704145E+002  0.9506431E+02  0.7546771E-02  0.1291031E+00
         21   -1    0    0  506  501  0.00000000000E+00  0.00000000000E+00  0.45480726914E+03  0.45480726914E+03  0.00000000000E+00 0. -1.
         21   -1    0    0  505  502 -0.00000000000E+00 -0.00000000000E+00 -0.17829252880E+04  0.17829252880E+04  0.00000000000E+00 0.  1.
         21    1    1    2  503  502  0.38733787909E+02  0.33958776960E+02 -0.88725298484E+03  0.88874707536E+03  0.00000000000E+00 0.  1.
         21    1    1    2  504  501 -0.16547599456E+03  0.27284487231E+02 -0.21147399961E+03  0.26990368750E+03  0.00000000000E+00 0.  1.
         21    1    1    2  505  504  0.44202426245E+02 -0.71646327549E+02 -0.64741222746E+03  0.65286265248E+03  0.00000000000E+00 0.  1.
         21    1    1    2  506  503  0.82539780402E+02  0.10403063358E+02  0.41802119300E+03  0.42621914184E+03  0.00000000000E+00 0. -1.
<scales pt_clust_3="51.51218" pt_clust_4="95.06431" pt_clust_5="14000.00000" pt_clust_6="83.38835"></scales>
<clustering>
<clus scale="   51.512">  2  3  1 -1</clus>
<clus scale="   83.388">  1  6  2 -1</clus>
<clus scale="   95.064">  1  4  2 -1</clus>
<clus scale="   83.388">  1  3  2 -1</clus>
</clustering>
</event>
<event>
 6    0  0.1704145E+002  0.2982403E+03  0.7546771E-02  0.1086124E+00
         21   -1    0    0  504  501  0.00000000000E+00  0.00000000000E+00  0.49705131844E+03  0.49705131844E+03  0.00000000000E+00 0. -1.
         21   -1    0    0  501  502 -0.00000000000E+00 -0.00000000000E+00 -0.43893628738E+03  0.43893628738E+03  0.00000000000E+00 0. -1.
         21    1    1    2  503  506 -0.54239214312E+01  0.35915368131E+02 -0.85157921796E+01  0.37307523478E+02  0.00000000000E+00 0.  1.
         21    1    1    2  504  503  0.82725047860E+02 -0.24705952591E+03  0.40309306486E+03  0.47996443809E+03  0.00000000000E+00 0. -1.
         21    1    1    2  505  502 -0.98825881431E+02  0.18038724125E+03 -0.31271331293E+03  0.37429363838E+03  0.00000000000E+00 0. -1.
         21    1    1    2  506  505  0.21524755002E+02  0.30756916531E+02 -0.23748928691E+02  0.44422005880E+02  0.00000000000E+00 0.  1.
<scales pt_clust_3="30.06592" pt_clust_4="260.54144" pt_clust_5="72.08354" pt_clust_6="72.08354"></scales>
<clustering>
<clus scale="   30.066">  3  6 -1 -1</clus>
<clus scale="   72.084">  3  5 -1 -1</clus>
<clus scale="  260.541">  1  4  2 -1</clus>
<clus scale="  260.541">  1  3  2 -1</clus>
</clustering>
</event>
<event>
 6    0  0.1704145E+002  0.1416181E+03  0.7546771E-02  0.1211168E+00
         21   -1    0    0  503  501  0.00000000000E+00  0.00000000000E+00  0.56715510398E+03  0.56715510398E+03  0.00000000000E+00 0.  1.
         21   -1    0    0  501  502 -0.00000000000E+00 -0.00000000000E+00 -0.14365977055E+03  0.14365977055E+03  0.00000000000E+00 0. -1.
         21    1    1    2  503  506 -0.59210256612E+01  0.32823885402E+02  0.41294463478E+03  0.41428943673E+03  0.00000000000E+00 0.  1.
         21    1    1    2  504  505  0.56632612800E+02 -0.51772103821E+02 -0.68438323614E+02  0.10281735119E+03  0.00000000000E+00 0. -1.
         21    1    1    2  505  502  0.40512707120E+02 -0.43941077608E+02  0.39688432324E+01  0.59898659887E+02  0.00000000000E+00 0. -1.
         21    1    1    2  506  504 -0.91224294260E+02  0.62889296027E+02  0.75020179027E+02  0.13380942672E+03  0.00000000000E+00 0. -1.
<scales pt_clust_3="33.35365" pt_clust_4="52.20724" pt_clust_5="52.20724" pt_clust_6="127.80349"></scales>
<clustering>
<clus scale="   33.354">  1  3  2 -1</clus>
<clus scale="   52.207">  4  5 -1 -1</clus>
<clus scale="  127.803">  1  6  2 -1</clus>
<clus scale="   33.354">  1  3  2 -1</clus>
</clustering>
</event>
<event>
 6    0  0.1704145E+002  0.1798597E+03  0.7546771E-02  0.1167939E+00
         21   -1    0    0  503  501  0.00000000000E+00  0.00000000000E+00  0.15940133672E+03  0.15940133672E+03  0.00000000000E+00 0.  1.
         21   -1    0    0  504  502 -0.00000000000E+00 -0.00000000000E+00 -0.29114300176E+03  0.29114300176E+03  0.00000000000E+00 0.  1.
         21    1    1    2  503  506 -0.21421315425E+02 -0.36016184851E+02  0.35244346418E+02  0.54755842430E+02  0.00000000000E+00 0.  1.
         21    1    1    2  504  505  0.86004835719E+01  0.90061139950E+02 -0.29257134532E+02  0.95083948003E+02  0.00000000000E+00 0.  1.
         21    1    1    2  505  501  0.72635972488E+01  0.10498071227E+03 -0.76968493354E+02  0.13037583658E+03  0.00000000000E+00 0.  1.
         21    1    1    2  506  502  0.55572346039E+01 -0.15902566737E+03 -0.60760383579E+02  0.17032871147E+03  0.00000000000E+00 0.  1.
<scales pt_clust_3="41.90511" pt_clust_4="32.85065" pt_clust_5="32.85065" pt_clust_6="176.33568"></scales>
<clustering>
<clus scale="   32.851">  4  5 -1 -1</clus>
<clus scale="   41.905">  1  3  2 -1</clus>
<clus scale="  176.336">  2  6  1 -1</clus>
<clus scale="   41.905">  1  3  2 -1</clus>
</clustering>
</event>
<event>
 6    0  0.1704145E+002  0.1557099E+03  0.7546771E-02  0.1193627E+00
         21   -1    0    0  504  501  0.00000000000E+00  0.00000000000E+00  0.18281578393E+03  0.18281578393E+03  0.00000000000E+00 0.  1.
         21   -1    0    0  505  502 -0.00000000000E+00 -0.00000000000E+00 -0.22122416700E+03  0.22122416700E+03  0.00000000000E+00 0.  1.
         21    1    1    2  503  501  0.12226413551E+03 -0.68372039190E+02  0.65017295476E+02  0.15443608156E+03  0.00000000000E+00 0.  1.
         21    1    1    2  504  502 -0.11342701625E+02 -0.45586132633E+02 -0.56952176838E+02  0.73826166195E+02  0.00000000000E+00 0.  1.
         21    1    1    2  505  506 -0.33644446054E+02  0.30795242049E+02 -0.42254185918E+02  0.62174849503E+02  0.00000000000E+00 0.  1.
         21    1    1    2  506  503 -0.77276987833E+02  0.83162929773E+02 -0.42193157930E+01  0.11360285367E+03  0.00000000000E+00 0.  1.
<scales pt_clust_3="144.21368" pt_clust_4="46.97608" pt_clust_5="37.21939" pt_clust_6="37.21939"></scales>
<clustering>
<clus scale="   37.219">  5  6 -1 -1</clus>
<clus scale="   46.976">  2  4  1 -1</clus>
<clus scale="  144.214">  1  3  2 -1</clus>
<clus scale="  144.214">  1  3  2 -1</clus>
</clustering>
</event>
<event>
 6    0  0.1704145E+002  0.1209793E+03  0.7546771E-02  0.1241490E+00
         21   -1    0    0  503  501  0.00000000000E+00  0.00000000000E+00  0.57337595609E+03  0.57337595609E+03  0.00000000000E+00 0.  1.
         21   -1    0    0  506  502 -0.00000000000E+00 -0.00000000000E+00 -0.62686499787E+02  0.62686499787E+02  0.00000000000E+00 0.  1.
         21    1    1    2  503  504  0.28588288249E+02 -0.50309176293E+02  0.33237976711E+03  0.33737903466E+03  0.00000000000E+00 0.  1.
         21    1    1    2  504  505  0.50052555729E+02 -0.12932273196E+02  0.67072577601E+02  0.84683131089E+02  0.00000000000E+00 0.  1.
         21    1    1    2  505  502  0.45985509428E+02  0.25600798794E+02  0.32042114506E+02  0.61617895763E+02  0.00000000000E+00 0.  1.
         21    1    1    2  506  501 -0.12462635341E+03  0.37640650695E+02  0.79194997079E+02  0.15238239436E+03  0.00000000000E+00 0.  1.
<scales pt_clust_3="57.86453" pt_clust_4="46.44824" pt_clust_5="46.44824" pt_clust_6="111.53266"></scales>
<clustering>
<clus scale="   46.448">  4  5 -1 -1</clus>
<clus scale="   57.865">  1  3  2 -1</clus>
<clus scale="  111.533">  1  6  2 -1</clus>
<clus scale="   57.865">  1  3  2 -1</clus>
</clustering>
</event>
<event>
 6    0  0.1704145E+002  0.1151246E+03  0.7546771E-02  0.1251364E+00
         21   -1    0    0  506  501  0.00000000000E+00  0.00000000000E+00  0.17709825624E+04  0.17709825624E+04  0.00000000000E+00 0.  1.
         21   -1    0    0  505  502 -0.00000000000E+00 -0.00000000000E+00 -0.18318490852E+03  0.18318490852E+03  0.00000000000E+00 0. -1.
         21    1    1    2  503  504 -0.58162709857E+02 -0.26948386221E+02 -0.64327065715E+02  0.90813477641E+02  0.00000000000E+00 0.  1.
         21    1    1    2  504  501  0.57374199513E+02  0.89670865687E+02  0.17176083405E+04  0.17209041444E+04  0.00000000000E+00 0.  1.
         21    1    1    2  505  503 -0.29522698127E+02 -0.57012859688E+02 -0.84568547021E+02  0.10617859963E+03  0.00000000000E+00 0. -1.
         21    1    1    2  506  502  0.30311208470E+02 -0.57096197776E+01  0.19084926159E+02  0.36271249267E+02  0.00000000000E+00 0.  1.
<scales pt_clust_3="40.64376" pt_clust_4="106.56412" pt_clust_5="40.64376" pt_clust_6="30.84427"></scales>
<clustering>
<clus scale="   30.844">  2  6  1 -1</clus>
<clus scale="   40.644">  3  5 -1 -1</clus>
<clus scale="  106.564">  1  4  2 -1</clus>
<clus scale="  106.564">  1  3  2 -1</clus>
</clustering>
</event>
<event>
 6    0  0.1704145E+002  0.2159374E+03  0.7546771E-02  0.1136949E+00
         21   -1    0    0  506  501  0.00000000000E+00  0.00000000000E+00  0.11221684259E+04  0.11221684259E+04  0.00000000000E+00 0.  1.
         21   -1    0    0  505  502 -0.00000000000E+00 -0.00000000000E+00 -0.17022976963E+03  0.17022976963E+03  0.00000000000E+00 0.  1.
         21    1    1    2  503  504 -0.88549468469E+02 -0.57532764823E+02 -0.59410383443E+02  0.12116361275E+03  0.00000000000E+00 0.  1.
         21    1    1    2  504  501  0.20336322705E+03  0.65325659231E+02  0.10172122728E+04  0.10393963882E+04  0.00000000000E+00 0.  1.
         21    1    1    2  505  503 -0.78514246880E+02 -0.73615042844E+01 -0.34032463207E+02  0.85888807539E+02  0.00000000000E+00 0.  1.
         21    1    1    2  506  502 -0.36299511696E+02 -0.43139012312E+00  0.28169230188E+02  0.45949387115E+02  0.00000000000E+00 0. -1.
<scales pt_clust_3="38.87426" pt_clust_4="211.21406" pt_clust_5="38.87426" pt_clust_6="36.30207"></scales>
<clustering>
<clus scale="   36.302">  2  6  1 -1</clus>
<clus scale="   38.874">  3  5 -1 -1</clus>
<clus scale="  211.214">  1  4  2 -1</clus>
<clus scale="  211.214">  1  3  2 -1</clus>
</clustering>
</event>
<event>
 6    0  0.1704145E+002  0.9110210E+02  0.7546771E-02  0.1300205E+00
         21   -1    0    0  503  501  0.00000000000E+00  0.00000000000E+00  0.70280306986E+02  0.70280306986E+02  0.00000000000E+00 0.  1.
         21   -1    0    0  504  502 -0.00000000000E+00 -0.00000000000E+00 -0.79774176431E+03  0.79774176431E+03  0.00000000000E+00 0.  1.
         21    1    1    2  503  505 -0.54757614313E+02 -0.50972090213E+02  0.32996790987E+02  0.81763919435E+02  0.00000000000E+00 0.  1.
         21    1    1    2  504  501 -0.49877405368E+02  0.55446423059E+02 -0.19360770515E+03  0.20747531152E+03  0.00000000000E+00 0.  1.
         21    1    1    2  505  506  0.68798717318E+02  0.12666434575E+02 -0.25533022664E+03  0.26473992276E+03  0.00000000000E+00 0.  1.
         21    1    1    2  506  502  0.35836302362E+02 -0.17140767421E+02 -0.31152031653E+03  0.31404291758E+03  0.00000000000E+00 0.  1.
<scales pt_clust_3="74.82019" pt_clust_4="74.57923" pt_clust_5="39.16747" pt_clust_6="39.16747"></scales>
<clustering>
<clus scale="   39.167">  5  6 -1 -1</clus>
<clus scale="   74.579">  2  4  1 -1</clus>
<clus scale="   74.820">  1  3  2 -1</clus>
<clus scale="   74.820">  1  3  2 -1</clus>
</clustering>
</event>
<event>
 6    0  0.1704145E+002  0.1042989E+03  0.7546771E-02  0.1271507E+00
         21   -1    0    0  506  501  0.00000000000E+00  0.00000000000E+00  0.11985929047E+04  0.11985929047E+04  0.00000000000E+00 0.  1.
         21   -1    0    0  504  502 -0.00000000000E+00 -0.00000000000E+00 -0.57442338334E+02  0.57442338334E+02  0.00000000000E+00 0.  1.
         21    1    1    2  503  505 -0.70902884381E+00  0.56794999419E+02  0.91714489784E+02  0.10787827546E+03  0.00000000000E+00 0. -1.
         21    1    1    2  504  501 -0.28630381236E+02 -0.87000855032E+02  0.29385990764E+02  0.96189313123E+02  0.00000000000E+00 0.  1.
         21    1    1    2  505  502 -0.37419311093E+02  0.53519980750E+02  0.58058575072E+02  0.87380726259E+02  0.00000000000E+00 0.  1.
         21    1    1    2  506  503  0.66758721173E+02 -0.23314125137E+02  0.96199151071E+03  0.96458692815E+03  0.00000000000E+00 0.  1.
<scales pt_clust_3="42.44109" pt_clust_4="93.84736" pt_clust_5="42.44109" pt_clust_6="70.71262"></scales>
<clustering>
<clus scale="   42.441">  3  5 -1 -1</clus>
<clus scale="   70.713">  1  6  2 -1</clus>
<clus scale="   93.847">  2  4  1 -1</clus>
<clus scale="   70.713">  1  3  2 -1</clus>
</clustering>
</event>
<event>
 6    0  0.1704145E+002  0.2994068E+03  0.7546771E-02  0.1085538E+00
         21   -1    0    0  506  501  0.00000000000E+00  0.00000000000E+00  0.32205609173E+03  0.32205609173E+03  0.00000000000E+00 0.  1.
         21   -1    0    0  505  502 -0.00000000000E+00 -0.00000000000E+00 -0.12874299078E+04  0.12874299078E+04  0.00000000000E+00 0.  1.
         21    1    1    2  503  502  0.15122985076E+03 -0.12922400875E+03  0.61759388308E+01  0.19901621647E+03  0.00000000000E+00 0.  1.
         21    1    1    2  504  501  0.12912252278E+02 -0.28115175646E+02  0.14619724267E+03  0.14943501305E+03  0.00000000000E+00 0.  1.
         21    1    1    2  505  504 -0.20661962064E+03  0.21525108552E+03 -0.11457392897E+04  0.11839523712E+04  0.00000000000E+00 0.  1.
         21    1    1    2  506  503  0.42477517606E+02 -0.57911901125E+02  0.27992292059E+02  0.77082398825E+02  0.00000000000E+00 0.  1.
<scales pt_clust_3="30.16713" pt_clust_4="30.93848" pt_clust_5="295.16750" pt_clust_6="30.16713"></scales>
<clustering>
<clus scale="   30.167">  3  6 -1 -1</clus>
<clus scale="   30.938">  1  4  2 -1</clus>
<clus scale="  295.168">  2  5  1 -1</clus>
<clus scale="   30.938">  1  3  2 -1</clus>
</clustering>
</event>
<event>
 6    0  0.1704145E+002  0.2465801E+03  0.7546771E-02  0.1115485E+00
         21   -1    0    0  503  501  0.00000000000E+00  0.00000000000E+00  0.57170180611E+03  0.57170180611E+03  0.00000000000E+00 0.  1.
         21   -1    0    0  506  502 -0.00000000000E+00 -0.00000000000E+00 -0.44530855161E+03  0.44530855161E+03  0.00000000000E+00 0.  1.
         21    1    1    2  503  502  0.19332812999E+03 -0.11346358474E+03  0.51221774920E+03  0.55912143002E+03  0.00000000000E+00 0.  1.
         21    1    1    2  504  505 -0.48328956316E+02  0.64117382805E+02 -0.12950255346E+03  0.15237335118E+03  0.00000000000E+00 0. -1.
         21    1    1    2  505  501 -0.80225762514E+02  0.30666224838E+02 -0.82553237304E+02  0.11912861665E+03  0.00000000000E+00 0.  1.
         21    1    1    2  506  504 -0.64773411166E+02  0.18679977095E+02 -0.17376870394E+03  0.18638695986E+03  0.00000000000E+00 0.  1.
<scales pt_clust_3="224.16456" pt_clust_4="62.27907" pt_clust_5="62.27907" pt_clust_6="51.32542"></scales>
<clustering>
<clus scale="   51.325">  4  6 -1 -1</clus>
<clus scale="   62.279">  4  5 -1 -1</clus>
<clus scale="  224.165">  1  3  2 -1</clus>
<clus scale="  224.165">  1  3  2 -1</clus>
</clustering>
</event>
<event>
 6    0  0.1704145E+002  0.1065431E+03  0.7546771E-02  0.1267109E+00
         21   -1    0    0  505  501  0.00000000000E+00  0.00000000000E+00  0.39636493920E+03  0.39636493920E+03  0.00000000000E+00 0. -1.
         21   -1    0    0  506  502 -0.00000000000E+00 -0.00000000000E+00 -0.96577904135E+03  0.96577904135E+03  0.00000000000E+00 0. -1.
         21    1    1    2  503  504 -0.94449508073E+02 -0.55985401324E+01 -0.30758029062E+03  0.32180380421E+03  0.00000000000E+00 0. -1.
         21    1    1    2  504  502 -0.16390468470E+02 -0.28451783720E+02 -0.12725113927E+03  0.13141919152E+03  0.00000000000E+00 0.  1.
         21    1    1    2  505  503  0.91722721812E+02  0.24538005215E+01  0.38106319426E+03  0.39195438108E+03  0.00000000000E+00 0. -1.
         21    1    1    2  506  501  0.19117254731E+02  0.31596523331E+02 -0.51564586652E+03  0.51696660373E+03  0.00000000000E+00 0. -1.
<scales pt_clust_3="31.65715" pt_clust_4="31.65715" pt_clust_5="91.99808" pt_clust_6="36.92979"></scales>
<clustering>
<clus scale="   31.657">  3  4 -1 -1</clus>
<clus scale="   36.930">  2  6  1 -1</clus>
<clus scale="   91.998">  1  5  2 -1</clus>
<clus scale="   91.998">  1  3  2 -1</clus>
</clustering>
</event>
<event>
 6    0  0.1704145E+002  0.1163001E+03  0.7546771E-02  0.1249329E+00
         21   -1    0    0  506  501  0.00000000000E+00  0.00000000000E+00  0.13394837731E+03  0.13394837731E+03  0.00000000000E+00 0. -1.
         21   -1    0    0  505  502 -0.00000000000E+00 -0.00000000000E+00 -0.19103613272E+04  0.19103613272E+04  0.00000000000E+00 0. -1.
         21    1    1    2  503  501  0.10659736918E+02 -0.43939416681E+02 -0.48097269608E+02  0.66012496341E+02  0.00000000000E+00 0. -1.
         21    1    1    2  504  502 -0.82644943791E+02  0.76760785789E+02 -0.20533965479E+03  0.23427927523E+03  0.00000000000E+00 0. -1.
         21    1    1    2  505  503  0.10989046943E+03 -0.42581995408E+02 -0.16278329986E+04  0.16320935675E+04  0.00000000000E+00 0. -1.
         21    1    1    2  506  504 -0.37905262558E+02  0.97606263003E+01  0.10485697316E+03  0.11192436543E+03  0.00000000000E+00 0. -1.
<scales pt_clust_3="40.60343" pt_clust_4="14000.00000" pt_clust_5="116.30006" pt_clust_6="39.14178"></scales>
<clustering>
<clus scale="   39.142">  1  6  2 -1</clus>
<clus scale="   40.603">  1  3  2 -1</clus>
<clus scale="  116.300">  2  5  1 -1</clus>
<clus scale="   39.142">  1  3  2 -1</clus>
</clustering>
</event>
<event>
 6    0  0.1704145E+002  0.9774704E+02  0.7546771E-02  0.1285106E+00
         21   -1    0    0  503  501  0.00000000000E+00  0.00000000000E+00  0.30245260751E+03  0.30245260751E+03  0.00000000000E+00 0.  1.
         21   -1    0    0  506  502 -0.00000000000E+00 -0.00000000000E+00 -0.14682921133E+03  0.14682921133E+03  0.00000000000E+00 0.  1.
         21    1    1    2  503  505  0.29106243275E+02 -0.94346799246E+02  0.22071627246E+03  0.24179364106E+03  0.00000000000E+00 0.  1.
         21    1    1    2  504  502  0.10450616230E+02 -0.36503295941E+02 -0.82993532447E+01  0.38866248319E+02  0.00000000000E+00 0. -1.
         21    1    1    2  505  504 -0.62013963753E+02  0.74797531136E+02 -0.45089407996E+02  0.10711422444E+03  0.00000000000E+00 0.  1.
         21    1    1    2  506  501  0.22457104248E+02  0.56052564051E+02 -0.11704115042E+02  0.61507705020E+02  0.00000000000E+00 0.  1.
<scales pt_clust_3="97.74704" pt_clust_4="37.96980" pt_clust_5="14000.00000" pt_clust_6="51.93616"></scales>
<clustering>
<clus scale="   37.970">  2  4  1 -1</clus>
<clus scale="   51.936">  2  6  1 -1</clus>
<clus scale="   97.747">  1  3  2 -1</clus>
<clus scale="   97.747">  1  3  2 -1</clus>
</clustering>
</event>
<event>
 6    0  0.1704145E+002  0.2282992E+03  0.7546771E-02  0.1127843E+00
         21   -1    0    0  502  501  0.00000000000E+00  0.00000000000E+00  0.31075541912E+04  0.31075541912E+04  0.00000000000E+00 0. -1.
         21   -1    0    0  506  502 -0.00000000000E+00 -0.00000000000E+00 -0.75941007791E+02  0.75941007791E+02  0.00000000000E+00 0.  1.
         21    1    1    2  503  504 -0.16471382773E+03 -0.35852392166E+02  0.68270869214E+03  0.70321205720E+03  0.00000000000E+00 0. -1.
         21    1    1    2  504  501 -0.31405251694E+02  0.11009635732E+02  0.20689101710E+04  0.20691778071E+04  0.00000000000E+00 0. -1.
         21    1    1    2  505  503 -0.19310262639E+02 -0.34296480326E+02  0.14464187589E+03  0.14990132443E+03  0.00000000000E+00 0. -1.
         21    1    1    2  506  505  0.21542934206E+03  0.59139236761E+02  0.13535244437E+03  0.26120401020E+03  0.00000000000E+00 0.  1.
<scales pt_clust_3="32.44227" pt_clust_4="33.27915" pt_clust_5="32.44227" pt_clust_6="218.20355"></scales>
<clustering>
<clus scale="   32.442">  3  5 -1 -1</clus>
<clus scale="   33.279">  1  4  2 -1</clus>
<clus scale="  218.204">  2  6  1 -1</clus>
<clus scale="   33.279">  1  3  2 -1</clus>
</clustering>
</event>
<event>
 6    0  0.1704145E+002  0.1637490E+03  0.7546771E-02  0.1184528E+00
         21   -1    0    0  504  501  0.00000000000E+00  0.00000000000E+00  0.65368698739E+03  0.65368698739E+03  0.00000000000E+00 0. -1.
         21   -1    0    0  503  502 -0.00000000000E+00 -0.00000000000E+00 -0.81292570774E+02  0.81292570774E+02  0.00000000000E+00 0.  1.
         21    1    1    2  503  505 -0.79861398278E+02  0.15226708981E+02  0.27718163156E+02  0.85895239507E+02  0.00000000000E+00 0.  1.
         21    1    1    2  504  502  0.12887675331E+02 -0.49456382987E+02  0.31591122005E+03  0.32001863219E+03  0.00000000000E+00 0. -1.
         21    1    1    2  505  506 -0.82833726844E+02  0.24654996415E+02  0.83127332999E+02  0.11991433877E+03  0.00000000000E+00 0.  1.
         21    1    1    2  506  501  0.14980744979E+03  0.95746775916E+01  0.14563770041E+03  0.20915134770E+03  0.00000000000E+00 0. -1.
<scales pt_clust_3="43.48994" pt_clust_4="51.10798" pt_clust_5="43.48994" pt_clust_6="157.49010"></scales>
<clustering>
<clus scale="   43.490">  3  5 -1 -1</clus>
<clus scale="   51.108">  1  4  2 -1</clus>
<clus scale="  157.490">  1  6  2 -1</clus>
<clus scale="   51.108">  1  3  2 -1</clus>
</clustering>
</event>
<event>
 6    0  0.1704145E+002  0.1815541E+03  0.7546771E-02  0.1166307E+00
         21   -1    0    0  503  501  0.00000000000E+00  0.00000000000E+00  0.26775694233E+04  0.26775694233E+04  0.00000000000E+00 0.  1.
         21   -1    0    0  505  502 -0.00000000000E+00 -0.00000000000E+00 -0.62617828667E+03  0.62617828667E+03  0.00000000000E+00 0.  1.
         21    1    1    2  503  506  0.79011614874E+02  0.16303028177E+03  0.26130167583E+04  0.26192896531E+04  0.00000000000E+00 0.  1.
         21    1    1    2  504  501  0.55164478514E+02 -0.21789832487E+02 -0.10934689264E+03  0.12439718413E+03  0.00000000000E+00 0.  1.
         21    1    1    2  505  504 -0.13504512212E+02  0.30442251505E+02 -0.29736975787E+03  0.29922880112E+03  0.00000000000E+00 0.  1.
         21    1    1    2  506  502 -0.12067158118E+03 -0.17168270078E+03 -0.15490897110E+03  0.26083207161E+03  0.00000000000E+00 0.  1.
<scales pt_clust_3="14000.00000" pt_clust_4="51.52534" pt_clust_5="33.30319" pt_clust_6="181.55412"></scales>
<clustering>
<clus scale="   33.303">  2  5  1 -1</clus>
<clus scale="   51.525">  2  4  1 -1</clus>
<clus scale="  181.554">  2  6  1 -1</clus>
<clus scale="  181.554">  1  3  2 -1</clus>
</clustering>
</event>
<event>
 6    0  0.1704145E+002  0.8732639E+02  0.7546771E-02  0.1309458E+00
         21   -1    0    0  503  501  0.00000000000E+00  0.00000000000E+00  0.27619253054E+03  0.27619253054E+03  0.00000000000E+00 0. -1.
         21   -1    0    0  504  502 -0.00000000000E+00 -0.00000000000E+00 -0.53988795368E+03  0.53988795368E+03  0.00000000000E+00 0. -1.
         21    1    1    2  503  505  0.29085404058E+02  0.38752979446E+02  0.21625815569E+03  0.22161981872E+03  0.00000000000E+00 0. -1.
         21    1    1    2  504  506  0.11290053737E+03  0.10694326481E+02 -0.93867972127E+02  0.14721445632E+03  0.00000000000E+00 0. -1.
         21    1    1    2  505  502 -0.81862689932E+02  0.13562298173E+02 -0.33743324204E+03  0.34748615623E+03  0.00000000000E+00 0. -1.
         21    1    1    2  506  501 -0.60123251498E+02 -0.63009604099E+02 -0.48652364661E+02  0.99760052959E+02  0.00000000000E+00 0. -1.
<scales pt_clust_3="48.45363" pt_clust_4="87.32639" pt_clust_5="14000.00000" pt_clust_6="65.66596"></scales>
<clustering>
<clus scale="   48.454">  1  3  2 -1</clus>
<clus scale="   65.666">  1  6  2 -1</clus>
<clus scale="   87.326">  1  4  2 -1</clus>
<clus scale="   48.454">  1  3  2 -1</clus>
</clustering>
</event>
<event>
 6    0  0.1704145E+002  0.1547834E+03  0.7546771E-02  0.1194715E+00
         21   -1    0    0  503  501  0.00000000000E+00  0.00000000000E+00  0.22312291357E+04  0.22312291357E+04  0.00000000000E+00 0. -1.
         21   -1    0    0  501  502 -0.00000000000E+00 -0.00000000000E+00 -0.16378451334E+03  0.16378451334E+03  0.00000000000E+00 0.  1.
         21    1    1    2  503  506  0.12432605449E+03  0.85025506591E+02  0.21613158424E+04  0.21665577480E+04  0.00000000000E+00 0. -1.
         21    1    1    2  504  505 -0.29115615497E+02 -0.39971415574E+02 -0.12220877466E+01  0.49466419187E+02  0.00000000000E+00 0.  1.
         21    1    1    2  505  502 -0.32868325647E+02 -0.35037497997E+02 -0.10425378741E+03  0.11479026652E+03  0.00000000000E+00 0.  1.
         21    1    1    2  506  504 -0.62342113348E+02 -0.10016593020E+02  0.11604655092E+02  0.64199215355E+02  0.00000000000E+00 0. -1.
<scales pt_clust_3="148.35480" pt_clust_4="39.06702" pt_clust_5="48.04116" pt_clust_6="39.06702"></scales>
<clustering>
<clus scale="   39.067">  4  6 -1 -1</clus>
<clus scale="   48.041">  2  5  1 -1</clus>
<clus scale="  148.355">  1  3  2 -1</clus>
<clus scale="  148.355">  1  3  2 -1</clus>
</clustering>
</event>
<event>
 6    0  0.1704145E+002  0.8247641E+02  0.7546771E-02  0.1322167E+00
         21   -1    0    0  506  501  0.00000000000E+00  0.00000000000E+00  0.31162036453E+03  0.31162036453E+03  0.00000000000E+00 0.  1.
         21   -1    0    0  504  502 -0.00000000000E+00 -0.00000000000E+00 -0.39078720555E+03  0.39078720555E+03  0.00000000000E+00 0. -1.
         21    1    1    2  503  505 -0.35265220103E+02  0.36691188810E+01  0.23960383927E+03  0.24221291868E+03  0.00000000000E+00 0.  1.
         21    1    1    2  504  503  0.11255360672E+03 -0.72866938359E+02 -0.12690917106E+03  0.18461809985E+03  0.00000000000E+00 0.  1.
         21    1    1    2  505  501 -0.29591585309E+02  0.14213670308E+02  0.28519347669E+02  0.43486130389E+02  0.00000000000E+00 0.  1.
         21    1    1    2  506  502 -0.47696801304E+02  0.54984149170E+02 -0.22038085690E+03  0.23209042117E+03  0.00000000000E+00 0. -1.
<scales pt_clust_3="63.21303" pt_clust_4="82.47641" pt_clust_5="32.82819" pt_clust_6="14000.00000"></scales>
<clustering>
<clus scale="   32.828">  1  5  2 -1</clus>
<clus scale="   63.213">  1  3  2 -1</clus>
<clus scale="   82.476">  1  4  2 -1</clus>
<clus scale="   32.828">  1  3  2 -1</clus>
</clustering>
</event>
<event>
 6    0  0.1704145E+002  0.2056797E+03  0.7546771E-02  0.1145034E+00
         21   -1    0    0  506  501  0.00000000000E+00  0.00000000000E+00  0.52059268352E+03  0.52059268352E+03  0.00000000000E+00 0. -1.
         21   -1    0    0  503  502 -0.00000000000E+00 -0.00000000000E+00 -0.46317329962E+03  0.46317329962E+03  0.00000000000E+00 0.  1.
         21    1    1    2  503  501  0.14170735469E+02 -0.19081516373E+03  0.46057178805E+03  0.49873601073E+03  0.00000000000E+00 0. -1.
         21    1    1    2  504  502 -0.28103211356E+02 -0.22346988119E+02 -0.22264031831E+02  0.42247668336E+02  0.00000000000E+00 0.  1.
         21    1    1    2  505  504 -0.15494730138E+02  0.11908161253E+03 -0.26294934598E+03  0.28907244015E+03  0.00000000000E+00 0.  1.
         21    1    1    2  506  505  0.29427206025E+02  0.94080539317E+02 -0.11793902634E+03  0.15370986392E+03  0.00000000000E+00 0.  1.
<scales pt_clust_3="192.23982" pt_clust_4="35.90513" pt_clust_5="65.94274" pt_clust_6="65.94274"></scales>
<clustering>
<clus scale="   35.905">  2  4  1 -1</clus>
<clus scale="   65.943">  5  6 -1 -1</clus>
<clus scale="  192.240">  1  3  2 -1</clus>
<clus scale="  192.240">  1  3  2 -1</clus>
</clustering>
</event>
<event>
 6    0  0.1704145E+002  0.1841980E+03  0.7546771E-02  0.1163801E+00
         21   -1    0    0  505  501  0.00000000000E+00  0.00000000000E+00  0.15714237048E+03  0.15714237048E+03  0.00000000000E+00 0.  1.
         21   -1    0    0  506  502 -0.00000000000E+00 -0.00000000000E+00 -0.18286530604E+04  0.18286530604E+04  0.00000000000E+00 0. -1.
         21    1    1    2  503  501  0.17683034616E+03 -0.47408989555E+02  0.84191054963E+02  0.20150612236E+03  0.00000000000E+00 0.  1.
         21    1    1    2  504  502 -0.74170594873E+01 -0.29735352301E+02 -0.38319382117E+03  0.38441736242E+03  0.00000000000E+00 0.  1.
         21    1    1    2  505  504  0.72015121801E+01 -0.54588435189E+02 -0.26504572991E+03  0.27070463236E+03  0.00000000000E+00 0.  1.
         21    1    1    2  506  503 -0.17661479885E+03  0.13173277704E+03 -0.11074621938E+04  0.11291673137E+04  0.00000000000E+00 0. -1.
<scales pt_clust_3="184.19804" pt_clust_4="30.64643" pt_clust_5="60.38313" pt_clust_6="14000.00000"></scales>
<clustering>
<clus scale="   30.646">  2  4  1 -1</clus>
<clus scale="   60.383">  2  5  1 -1</clus>
<clus scale="  184.198">  1  3  2 -1</clus>
<clus scale="  184.198">  1  3  2 -1</clus>
</clustering>
</event>
<event>
 6    0  0.1704145E+002  0.1473650E+03  0.7546771E-02  0.1203749E+00
         21   -1    0    0  504  501  0.00000000000E+00  0.00000000000E+00  0.29491922870E+03  0.29491922870E+03  0.00000000000E+00 0. -1.
         21   -1    0    0  505  502 -0.00000000000E+00 -0.00000000000E+00 -0.12458643979E+04  0.12458643979E+04  0.00000000000E+00 0.  1.
         21    1    1    2  503  501 -0.11899207793E+03  0.83250552140E+02  0.22805190063E+03  0.27036537948E+03  0.00000000000E+00 0. -1.
         21    1    1    2  504  506  0.20170378055E+03 -0.64232709649E+01 -0.20420166224E+03  0.28709578952E+03  0.00000000000E+00 0.  1.
         21    1    1    2  505  503 -0.37724855417E+02 -0.52022226288E+02 -0.74924205481E+03  0.75199277486E+03  0.00000000000E+00 0.  1.
         21    1    1    2  506  502 -0.44986847197E+02 -0.24805054888E+02 -0.22555335280E+03  0.23132968276E+03  0.00000000000E+00 0.  1.
<scales pt_clust_3="147.36496" pt_clust_4="14000.00000" pt_clust_5="99.87052" pt_clust_6="51.37224"></scales>
<clustering>
<clus scale="   51.372">  2  6  1 -1</clus>
<clus scale="   99.871">  2  5  1 -1</clus>
<clus scale="  147.365">  1  3  2 -1</clus>
<clus scale="  147.365">  1  3  2 -1</clus>
</clustering>
</event>
<event>
 6    0  0.1704145E+002  0.1151749E+03  0.7546771E-02  0.1251276E+00
         21   -1    0    0  504  501  0.00000000000E+00  0.00000000000E+00  0.29200236485E+03  0.29200236485E+03  0.00000000000E+00 0.  1.
         21   -1    0    0  506  502 -0.00000000000E+00 -0.00000000000E+00 -0.75529971566E+03  0.75529971566E+03  0.00000000000E+00 0.  1.
         21    1    1    2  503  502  0.68155977989E+02  0.44109580362E+02 -0.58504583457E+03  0.59065177640E+03  0.00000000000E+00 0.  1.
         21    1    1    2  504  503  0.22791988510E+02 -0.20217670189E+02 -0.39766654286E+01  0.30725279430E+02  0.00000000000E+00 0.  1.
         21    1    1    2  505  501 -0.10488685308E+03 -0.63096436773E+02  0.25891330838E+03  0.28638874548E+03  0.00000000000E+00 0.  1.
         21    1    1    2  506  505  0.13938886577E+02  0.39204526600E+02 -0.13318815918E+03  0.13953627920E+03  0.00000000000E+00 0. -1.
<scales pt_clust_3="115.17492" pt_clust_4="30.46685" pt_clust_5="14000.00000" pt_clust_6="41.47996"></scales>
<clustering>
<clus scale="   30.467">  1  4  2 -1</clus>
<clus scale="   41.480">  2  6  1 -1</clus>
<clus scale="  115.175">  2  3  1 -1</clus>
<clus scale="   30.467">  1  3  2 -1</clus>
</clustering>
</event>
<event>
 6    0  0.1704145E+002  0.2985645E+03  0.7546771E-02  0.1085960E+00
         21   -1    0    0  504  501  0.00000000000E+00  0.00000000000E+00  0.24382380304E+03  0.24382380304E+03  0.00000000000E+00 0.  1.
         21   -1    0    0  503  502 -0.00000000000E+00 -0.00000000000E+00 -0.78162635085E+03  0.78162635085E+03  0.00000000000E+00 0.  1.
         21    1    1    2  503  501  0.28483267261E+03 -0.98984046109E+02  0.74864890497E+02  0.31069638653E+03  0.00000000000E+00 0.  1.
         21    1    1    2  504  505 -0.97261578290E+02  0.80109864198E+02 -0.22369388135E+03  0.25674181098E+03  0.00000000000E+00 0.  1.
         21    1    1    2  505  506 -0.13450700137E+03  0.79284479460E+02 -0.20889289470E+03  0.26079571231E+03  0.00000000000E+00 0. -1.
         21    1    1    2  506  502 -0.53064092954E+02 -0.60410297549E+02 -0.18008066226E+03  0.19721624408E+03  0.00000000000E+00 0. -1.
<scales pt_clust_3="295.88883" pt_clust_4="35.82751" pt_clust_5="35.82751" pt_clust_6="80.40648"></scales>
<clustering>
<clus scale="   35.828">  4  5 -1 -1</clus>
<clus scale="   80.406">  2  6  1 -1</clus>
<clus scale="  295.889">  1  3  2 -1</clus>
<clus scale="  295.889">  1  3  2 -1</clus>
</clustering>
</event>
<event>
 6    0  0.1704145E+002  0.9999858E+02  0.7546771E-02  0.1280299E+00
         21   -1    0    0  504  501  0.00000000000E+00  0.00000000000E+00  0.10146458972E+03  0.10146458972E+03  0.00000000000E+00 0. -1.
         21   -1    0    0  505  502 -0.00000000000E+00 -0.00000000000E+00 -0.17606263247E+04  0.17606263247E+04  0.00000000000E+00 0. -1.
         21    1    1    2  503  502  0.46431462863E+02 -0.54340843230E+02 -0.21301762707E+03  0.22468937987E+03  0.00000000000E+00 0. -1.
         21    1    1    2  504  506 -0.77561746779E+02 -0.13309300440E+02  0.70845241990E+02  0.10588678083E+03  0.00000000000E+00 0. -1.
         21    1    1    2  505  501 -0.37090291862E+02  0.72617441893E+02 -0.13284646042E+04  0.13309647581E+04  0.00000000000E+00 0. -1.
         21    1    1    2  506  503  0.68220575778E+02 -0.49672982233E+01 -0.18852474569E+03  0.20054999563E+03  0.00000000000E+00 0.  1.
<scales pt_clust_3="52.94973" pt_clust_4="78.69537" pt_clust_5="84.08336" pt_clust_6="52.94973"></scales>
<clustering>
<clus scale="   52.950">  3  6 -1 -1</clus>
<clus scale="   78.695">  1  4  2 -1</clus>
<clus scale="   84.083">  2  5  1 -1</clus>
<clus scale="   78.695">  1  3  2 -1</clus>
</clustering>
</event>
<event>
 6    0  0.1704145E+002  0.1002276E+03  0.7546771E-02  0.1279818E+00
         21   -1    0    0  506  501  0.00000000000E+00  0.00000000000E+00  0.11237141246E+04  0.11237141246E+04  0.00000000000E+00 0. -1.
         21   -1    0    0  503  502 -0.00000000000E+00 -0.00000000000E+00 -0.87448917786E+02  0.87448917786E+02  0.00000000000E+00 0. -1.
         21    1    1    2  503  504 -0.21938582110E+02  0.71629365134E+02 -0.22264473847E+02  0.78152249681E+02  0.00000000000E+00 0. -1.
         21    1    1    2  504  501  0.46297637134E+01  0.82589498041E+02  0.90520449398E+03  0.90897614700E+03  0.00000000000E+00 0. -1.
         21    1    1    2  505  502 -0.14370819624E+02 -0.76037176068E+02  0.89094183290E+02  0.11800824589E+03  0.00000000000E+00 0. -1.
         21    1    1    2  506  505  0.31679638020E+02 -0.78181687107E+02  0.64231003422E+02  0.10602639985E+03  0.00000000000E+00 0. -1.
<scales pt_clust_3="74.91373" pt_clust_4="86.28852" pt_clust_5="48.83595" pt_clust_6="48.83595"></scales>
<clustering>
<clus scale="   48.836">  5  6 -1 -1</clus>
<clus scale="   74.914">  2  3  1 -1</clus>
<clus scale="   86.289">  1  4  2 -1</clus>
<clus scale="   86.289">  1  3  2 -1</clus>
</clustering>
</event>
<event>
 6    0  0.1704145E+002  0.9874288E+02  0.7546771E-02  0.1282962E+00
         21   -1    0    0  505  501  0.00000000000E+00  0.00000000000E+00  0.79719365414E+02  0.79719365414E+02  0.00000000000E+00 0.  1.
         21   -1    0    0  503  502 -0.00000000000E+00 -0.00000000000E+00 -0.17558137232E+04  0.17558137232E+04  0.00000000000E+00 0.  1.
         21    1    1    2  503  504  0.22276328664E+02 -0.81795375515E+02 -0.81913531004E+03  0.82351039728E+03  0.00000000000E+00 0.  1.
         21    1    1    2  504  501 -0.26923299861E+02 -0.26630646146E+02  0.63025617901E+02  0.73527436385E+02  0.00000000000E+00 0.  1.
         21    1    1    2  505  506  0.29046417328E+02 -0.20332532928E+02 -0.69998956439E+02  0.78466299502E+02  0.00000000000E+00 0.  1.
         21    1    1    2  506  502 -0.24399446131E+02  0.12875855459E+03 -0.84998570926E+03  0.86002895550E+03  0.00000000000E+00 0.  1.
<scales pt_clust_3="98.74288" pt_clust_4="45.02605" pt_clust_5="35.45569" pt_clust_6="14000.00000"></scales>
<clustering>
<clus scale="   35.456">  1  5  2 -1</clus>
<clus scale="   45.026">  1  4  2 -1</clus>
<clus scale="   98.743">  2  3  1 -1</clus>
<clus scale="   35.456">  1  3  2 -1</clus>
</clustering>
</event>
<event>
 6    0  0.1704145E+002  0.9768355E+02  0.7546771E-02  0.1285244E+00
         21   -1    0    0  503  501  0.00000000000E+00  0.00000000000E+00  0.11443411225E+03  0.11443411225E+03  0.00000000000E+00 0. -1.
         21   -1    0    0  506  502 -0.00000000000E+00 -0.00000000000E+00 -0.20155696940E+04  0.20155696940E+04  0.00000000000E+00 0.  1.
         21    1    1    2  503  505 -0.19362735916E+02  0.85529290823E+02  0.89286718706E+02  0.12514908417E+03  0.00000000000E+00 0. -1.
         21    1    1    2  504  501 -0.43996002382E+02 -0.65653691569E+02 -0.12890515004E+04  0.12914719610E+04  0.00000000000E+00 0.  1.
         21    1    1    2  505  502  0.57679793823E+02  0.20781179990E+02 -0.17528503828E+03  0.18569776709E+03  0.00000000000E+00 0. -1.
         21    1    1    2  506  504  0.56789444762E+01 -0.40656779245E+02 -0.52608576181E+03  0.52768499399E+03  0.00000000000E+00 0. -1.
<scales pt_clust_3="87.76926" pt_clust_4="30.90370" pt_clust_5="61.30918" pt_clust_6="30.90370"></scales>
<clustering>
<clus scale="   30.904">  4  6 -1 -1</clus>
<clus scale="   61.309">  2  5  1 -1</clus>
<clus scale="   87.769">  1  3  2 -1</clus>
<clus scale="   87.769">  1  3  2 -1</clus>
</clustering>
</event>
<event>
 6    0  0.1704145E+002  0.1080901E+03  0.7546771E-02  0.1264148E+00
         21   -1    0    0  504  501  0.00000000000E+00  0.00000000000E+00  0.14732797038E+03  0.14732797038E+03  0.00000000000E+00 0.  1.
         21   -1    0    0  505  502 -0.00000000000E+00 -0.00000000000E+00 -0.46649969402E+03  0.46649969402E+03  0.00000000000E+00 0.  1.
         21    1    1    2  503  506  0.40228726192E+02  0.23127006281E+02 -0.53076198862E+02  0.70500295859E+02  0.00000000000E+00 0.  1.
         21    1    1    2  504  503  0.83216850597E+02  0.62857210551E+02  0.85952691493E+02  0.13514413904E+03  0.00000000000E+00 0.  1.
         21    1    1    2  505  501 -0.15320457580E+03 -0.58470212181E+02 -0.30326307919E+03  0.34475919561E+03  0.00000000000E+00 0.  1.
         21    1    1    2  506  502  0.29758999013E+02 -0.27514004651E+02 -0.48785137083E+02  0.63424033886E+02  0.00000000000E+00 0.  1.
<scales pt_clust_3="48.57287" pt_clust_4="14000.00000" pt_clust_5="108.09015" pt_clust_6="40.52923"></scales>
<clustering>
<clus scale="   40.529">  2  6  1 -1</clus>
<clus scale="   48.573">  2  3  1 -1</clus>
<clus scale="  108.090">  2  5  1 -1</clus>
<clus scale="  108.090">  1  3  2 -1</clus>
</clustering>
</event>
<event>
 6    0  0.1704145E+002  0.1065664E+03  0.7546771E-02  0.1267064E+00
         21   -1    0    0  505  501  0.00000000000E+00  0.00000000000E+00  0.83653882105E+02  0.83653882105E+02  0.00000000000E+00 0.  1.
         21   -1    0    0  503  502 -0.00000000000E+00 -0.00000000000E+00 -0.15945673979E+04  0.15945673979E+04  0.00000000000E+00 0. -1.
         21    1    1    2  503  504 -0.42267432130E+02 -0.53573985374E+02 -0.52988509141E+03  0.53426109518E+03  0.00000000000E+00 0. -1.
         21    1    1    2  504  501  0.38489008330E+02  0.24617704803E+02  0.62806934707E+02  0.77666892556E+02  0.00000000000E+00 0.  1.
         21    1    1    2  505  506 -0.22893487744E+02  0.11166088005E+03 -0.37801337049E+03  0.39482448275E+03  0.00000000000E+00 0.  1.
         21    1    1    2  506  502  0.26671911543E+02 -0.82704599477E+02 -0.66582198856E+03  0.67146880947E+03  0.00000000000E+00 0. -1.
<scales pt_clust_3="61.24923" pt_clust_4="45.68846" pt_clust_5="14000.00000" pt_clust_6="106.56641"></scales>
<clustering>
<clus scale="   45.688">  1  4  2 -1</clus>
<clus scale="   61.249">  2  3  1 -1</clus>
<clus scale="  106.566">  2  6  1 -1</clus>
<clus scale="   45.688">  1  3  2 -1</clus>
</clustering>
</event>
<event>
 6    0  0.1704145E+002  0.1503241E+03  0.7546771E-02  0.1200075E+00
         21   -1    0    0  505  501  0.00000000000E+00  0.00000000000E+00  0.53265370216E+03  0.53265370216E+03  0.00000000000E+00 0.  1.
         21   -1    0    0  506  502 -0.00000000000E+00 -0.00000000000E+00 -0.22917773891E+04  0.22917773891E+04  0.00000000000E+00 0.  1.
         21    1    1    2  503  502  0.73813540944E+02 -0.53394816309E+02 -0.12502383100E+04  0.12535530611E+04  0.00000000000E+00 0.  1.
         21    1    1    2  504  503  0.75744614525E+02  0.15561533544E+02 -0.86162323452E+03  0.86508612648E+03  0.00000000000E+00 0.  1.
         21    1    1    2  505  504 -0.76321605734E+02  0.98654049304E+01  0.51757357492E+03  0.52326352746E+03  0.00000000000E+00 0.  1.
         21    1    1    2  506  501 -0.73236549735E+02  0.27967877835E+02 -0.16483571731E+03  0.18252837617E+03  0.00000000000E+00 0.  1.
<scales pt_clust_3="64.31870" pt_clust_4="64.31870" pt_clust_5="76.95657" pt_clust_6="133.12970"></scales>
<clustering>
<clus scale="   64.319">  3  4 -1 -1</clus>
<clus scale="   76.957">  1  5  2 -1</clus>
<clus scale="  133.130">  1  6  2 -1</clus>
<clus scale="   76.957">  1  3  2 -1</clus>
</clustering>
</event>
<event>
 6    0  0.1704145E+002  0.1223276E+03  0.7546771E-02  0.1239306E+00
         21   -1    0    0  504  501  0.00000000000E+00  0.00000000000E+00  0.22582095289E+03  0.22582095289E+03  0.00000000000E+00 0. -1.
         21   -1    0    0  505  502 -0.00000000000E+00 -0.00000000000E+00 -0.73620303307E+03  0.73620303307E+03  0.00000000000E+00 0.  1.
         21    1    1    2  503  506  0.72053019033E+02  0.67938253004E+02 -0.30064949729E+02  0.10349466158E+03  0.00000000000E+00 0.  1.
         21    1    1    2  504  503  0.88319227176E+01  0.37708120045E+02  0.17554533228E+03  0.17976670677E+03  0.00000000000E+00 0. -1.
         21    1    1    2  505  501 -0.42764647508E+02 -0.11239373867E+03 -0.59193813421E+03  0.60402973627E+03  0.00000000000E+00 0.  1.
         21    1    1    2  506  502 -0.38120294242E+02  0.67473656178E+01 -0.63924328527E+02  0.74732881341E+02  0.00000000000E+00 0.  1.
<scales pt_clust_3="14000.00000" pt_clust_4="38.72208" pt_clust_5="122.32756" pt_clust_6="38.71284"></scales>
<clustering>
<clus scale="   38.713">  2  6  1 -1</clus>
<clus scale="   38.722">  1  4  2 -1</clus>
<clus scale="  122.328">  2  5  1 -1</clus>
<clus scale="   38.722">  1  3  2 -1</clus>
</clustering>
</event>
<event>
 6    0  0.1704145E+002  0.9988733E+02  0.7546771E-02  0.1280533E+00
         21   -1    0    0  506  501  0.00000000000E+00  0.00000000000E+00  0.42869801051E+03  0.42869801051E+03  0.00000000000E+00 0.  1.
         21   -1    0    0  504  502 -0.00000000000E+00 -0.00000000000E+00 -0.42839460769E+03  0.42839460769E+03  0.00000000000E+00 0.  1.
         21    1    1    2  503  501  0.16457015513E+03  0.19745660902E+02 -0.14349896848E+03  0.21923772722E+03  0.00000000000E+00 0.  1.
         21    1    1    2  504  503 -0.29739332047E+02 -0.30979192552E+02 -0.20873906709E+03  0.21311062003E+03  0.00000000000E+00 0.  1.
         21    1    1    2  505  502 -0.39945711304E+02  0.33922148725E+02 -0.63866394472E+01  0.52793571475E+02  0.00000000000E+00 0.  1.
         21    1    1    2  506  505 -0.94885111777E+02 -0.22688617075E+02  0.35892807784E+03  0.37195069948E+03  0.00000000000E+00 0.  1.
<scales pt_clust_3="14000.00000" pt_clust_4="42.94343" pt_clust_5="53.08312" pt_clust_6="99.88733"></scales>
<clustering>
<clus scale="   42.943">  2  4  1 -1</clus>
<clus scale="   53.083">  2  5  1 -1</clus>
<clus scale="   99.887">  1  6  2 -1</clus>
<clus scale="   99.887">  1  3  2 -1</clus>
</clustering>
</event>
<event>
 6    0  0.1704145E+002  0.1017631E+03  0.7546771E-02  0.1276631E+00
         21   -1    0    0  505  501  0.00000000000E+00  0.00000000000E+00  0.44094729767E+03  0.44094729767E+03  0.00000000000E+00 0.  1.
         21   -1    0    0  503  502 -0.00000000000E+00 -0.00000000000E+00 -0.10145073035E+04  0.10145073035E+04  0.00000000000E+00 0. -1.
         21    1    1    2  503  506  0.71525403391E+02 -0.23988160275E+02 -0.77058037832E+03  0.77426444747E+03  0.00000000000E+00 0. -1.
         21    1    1    2  504  502  0.44815865170E+02 -0.86339656078E+01 -0.12287980290E+03  0.13108185647E+03  0.00000000000E+00 0. -1.
         21    1    1    2  505  504 -0.30304561088E+02  0.42125524907E+02  0.41689129782E+03  0.42010865317E+03  0.00000000000E+00 0.  1.
         21    1    1    2  506  501 -0.86036707473E+02 -0.95033990238E+01 -0.96991122439E+02  0.12999964407E+03  0.00000000000E+00 0.  1.
<scales pt_clust_3="14000.00000" pt_clust_4="45.63997" pt_clust_5="51.83330" pt_clust_6="101.76313"></scales>
<clustering>
<clus scale="   45.640">  2  4  1 -1</clus>
<clus scale="   51.833">  1  5  2 -1</clus>
<clus scale="  101.763">  1  6  2 -1</clus>
<clus scale="   51.833">  1  3  2 -1</clus>
</clustering>
</event>
<event>
 6    0  0.1704145E+002  0.2238040E+03  0.7546771E-02  0.1131078E+00
         21   -1    0    0  503  501  0.00000000000E+00  0.00000000000E+00  0.16482283784E+04  0.16482283784E+04  0.00000000000E+00 0. -1.
         21   -1    0    0  501  502 -0.00000000000E+00 -0.00000000000E+00 -0.74010396995E+02  0.74010396995E+02  0.00000000000E+00 0. -1.
         21    1    1    2  503  506  0.11297134570E+03 -0.51284971176E+01  0.87580521590E+03  0.88307621564E+03  0.00000000000E+00 0. -1.
         21    1    1    2  504  505  0.34791035476E+02 -0.93775557928E+02  0.18992145914E+03  0.21464955638E+03  0.00000000000E+00 0. -1.
         21    1    1    2  505  502 -0.19157761809E+03  0.16024828637E+03  0.24278189843E+03  0.34831673409E+03  0.00000000000E+00 0. -1.
         21    1    1    2  506  504  0.43815236918E+02 -0.61344231323E+02  0.26570940795E+03  0.27619626931E+03  0.00000000000E+00 0. -1.
<scales pt_clust_3="113.08769" pt_clust_4="48.25117" pt_clust_5="216.79293" pt_clust_6="48.25117"></scales>
<clustering>
<clus scale="   48.251">  4  6 -1 -1</clus>
<clus scale="  113.088">  1  3  2 -1</clus>
<clus scale="  216.793">  2  5  1 -1</clus>
<clus scale="  113.088">  1  3  2 -1</clus>
</clustering>
</event>
<event>
 6    0  0.1704145E+002  0.2016975E+03  0.7546771E-02  0.1148315E+00
         21   -1    0    0  504  501  0.00000000000E+00  0.00000000000E+00  0.18086970624E+03  0.18086970624E+03  0.00000000000E+00 0.  1.
         21   -1    0    0  506  502 -0.00000000000E+00 -0.00000000000E+00 -0.34594782511E+03  0.34594782511E+03  0.00000000000E+00 0.  1.
         21    1    1    2  503  501  0.34349905373E+02  0.87123383915E+02 -0.76111150899E+02  0.12067852881E+03  0.00000000000E+00 0.  1.
         21    1    1    2  504  505 -0.46730500448E+02 -0.18917481716E+03  0.62190616406E+02  0.20454467455E+03  0.00000000000E+00 0.  1.
         21    1    1    2  505  502  0.33501824767E+02  0.51834481181E+01 -0.32422402382E+02  0.46908981798E+02  0.00000000000E+00 0. -1.
         21    1    1    2  506  503 -0.21121229692E+02  0.96867985123E+02 -0.11873518199E+03  0.15468534619E+03  0.00000000000E+00 0. -1.
<scales pt_clust_3="61.83794" pt_clust_4="191.96229" pt_clust_5="33.90045" pt_clust_6="61.83794"></scales>
<clustering>
<clus scale="   33.900">  2  5  1 -1</clus>
<clus scale="   61.838">  3  6 -1 -1</clus>
<clus scale="  191.962">  1  4  2 -1</clus>
<clus scale="  191.962">  1  3  2 -1</clus>
</clustering>
</event>
<event>
 6    0  0.1704145E+002  0.1126799E+03  0.7546771E-02  0.1255686E+00
         21   -1    0    0  506  501  0.00000000000E+00  0.00000000000E+00  0.27482069168E+03  0.27482069168E+03  0.00000000000E+00 0.  1.
         21   -1    0    0  503  502 -0.00000000000E+00 -0.00000000000E+00 -0.14735367607E+04  0.14735367607E+04  0.00000000000E+00 0.  1.
         21    1    1    2  503  504 -0.62083790979E+02 -0.67803920324E+02 -0.58420765322E+03  0.59139694858E+03  0.00000000000E+00 0.  1.
         21    1    1    2  504  505  0.16021521391E+03  0.25516998208E+02 -0.81764552873E+03  0.83358517418E+03  0.00000000000E+00 0.  1.
         21    1    1    2  505  501 -0.82176883998E+02  0.77369698230E+02  0.24299694902E+03  0.26793026649E+03  0.00000000000E+00 0.  1.
         21    1    1    2  506  502 -0.15954538937E+02 -0.35082776114E+02 -0.39859836140E+02  0.55445063167E+02  0.00000000000E+00 0.  1.
<scales pt_clust_3="107.15438" pt_clust_4="14000.00000" pt_clust_5="112.67992" pt_clust_6="38.54022"></scales>
<clustering>
<clus scale="   38.540">  2  6  1 -1</clus>
<clus scale="  107.154">  2  3  1 -1</clus>
<clus scale="  112.680">  1  5  2 -1</clus>
<clus scale="  112.680">  1  3  2 -1</clus>
</clustering>
</event>
<event>
 6    0  0.1704145E+002  0.1341399E+03  0.7546771E-02  0.1221439E+00
         21   -1    0    0  506  501  0.00000000000E+00  0.00000000000E+00  0.79273693048E+02  0.79273693048E+02  0.00000000000E+00 0.  1.
         21   -1    0    0  505  502 -0.00000000000E+00 -0.00000000000E+00 -0.37537471613E+03  0.37537471613E+03  0.00000000000E+00 0.  1.
         21    1    1    2  503  504  0.79373566574E+02 -0.14860149376E+02 -0.11200939585E+03  0.13808364084E+03  0.00000000000E+00 0.  1.
         21    1    1    2  504  501  0.19669887023E+01  0.40118055967E+02  0.17921189839E+02  0.43982911504E+02  0.00000000000E+00 0.  1.
         21    1    1    2  505  503  0.43425446083E+02 -0.79908533767E-01 -0.14172011223E+02  0.45679554014E+02  0.00000000000E+00 0.  1.
         21    1    1    2  506  502 -0.12476600136E+03 -0.25177998057E+02 -0.18784080585E+03  0.22690230282E+03  0.00000000000E+00 0.  1.
<scales pt_clust_3="36.98994" pt_clust_4="40.16625" pt_clust_5="36.98994" pt_clust_6="124.29457"></scales>
<clustering>
<clus scale="   36.990">  3  5 -1 -1</clus>
<clus scale="   40.166">  1  4  2 -1</clus>
<clus scale="  124.295">  2  6  1 -1</clus>
<clus scale="   40.166">  1  3  2 -1</clus>
</clustering>
</event>
<event>
 6    0  0.1704145E+002  0.1346105E+03  0.7546771E-02  0.1220771E+00
         21   -1    0    0  502  501  0.00000000000E+00  0.00000000000E+00  0.35427526733E+02  0.35427526733E+02  0.00000000000E+00 0. -1.
         21   -1    0    0  506  502 -0.00000000000E+00 -0.00000000000E+00 -0.10721336617E+04  0.10721336617E+04  0.00000000000E+00 0. -1.
         21    1    1    2  503  505 -0.55541954891E+02  0.28743360342E+02 -0.21931564374E+03  0.22805797751E+03  0.00000000000E+00 0. -1.
         21    1    1    2  504  501  0.10996610348E+01  0.34586458716E+02 -0.19981975748E+01  0.34661580669E+02  0.00000000000E+00 0. -1.
         21    1    1    2  505  504  0.97590798913E+02 -0.99770036891E+02 -0.36244563825E+03  0.38838751909E+03  0.00000000000E+00 0. -1.
         21    1    1    2  506  503 -0.43148505057E+02  0.36440217833E+02 -0.45294665542E+03  0.45645411119E+03  0.00000000000E+00 0. -1.
<scales pt_clust_3="48.17274" pt_clust_4="34.60394" pt_clust_5="124.45279" pt_clust_6="48.17274"></scales>
<clustering>
<clus scale="   34.604">  1  4  2 -1</clus>
<clus scale="   48.173">  3  6 -1 -1</clus>
<clus scale="  124.453">  1  5  2 -1</clus>
<clus scale="   34.604">  1  3  2 -1</clus>
</clustering>
</event>
<event>
 6    0  0.1704145E+002  0.8189943E+02  0.7546771E-02  0.1323746E+00
         21   -1    0    0  506  501  0.00000000000E+00  0.00000000000E+00  0.85176131303E+03  0.85176131303E+03  0.00000000000E+00 0. -1.
         21   -1    0    0  505  502 -0.00000000000E+00 -0.00000000000E+00 -0.15879488211E+03  0.15879488211E+03  0.00000000000E+00 0.  1.
         21    1    1    2  503  502 -0.12710316206E+02 -0.96584299439E+02 -0.63274745941E+02  0.11616269845E+03  0.00000000000E+00 0.  1.
         21    1    1    2  504  501 -0.21229815120E+02  0.70610105651E+02 -0.34192559561E+02  0.81274985078E+02  0.00000000000E+00 0.  1.
         21    1    1    2  505  504 -0.25060612088E+02  0.17615229525E+02  0.12790223640E+02  0.33195186552E+02  0.00000000000E+00 0. -1.
         21    1    1    2  506  503  0.59000743414E+02  0.83589642625E+01  0.77764351279E+03  0.77992332507E+03  0.00000000000E+00 0. -1.
<scales pt_clust_3="14000.00000" pt_clust_4="81.89943" pt_clust_5="30.63218" pt_clust_6="59.41876"></scales>
<clustering>
<clus scale="   30.632">  2  5  1 -1</clus>
<clus scale="   59.419">  1  6  2 -1</clus>
<clus scale="   81.899">  1  4  2 -1</clus>
<clus scale="   59.419">  1  3  2 -1</clus>
</clustering>
</event>
<event>
 6    0  0.1704145E+002  0.1168331E+03  0.7546771E-02  0.1248415E+00
         21   -1    0    0  505  501  0.00000000000E+00  0.00000000000E+00  0.18624364556E+04  0.18624364556E+04  0.00000000000E+00 0. -1.
         21   -1    0    0  506  502 -0.00000000000E+00 -0.00000000000E+00 -0.61259954757E+02  0.61259954757E+02  0.00000000000E+00 0.  1.
         21    1    1    2  503  502  0.43517402376E+02 -0.39574027089E+02 -0.11113468904E+02  0.59861315728E+02  0.00000000000E+00 0.  1.
         21    1    1    2  504  503  0.54793405281E+02 -0.32649382597E+01  0.17119819444E+02  0.57498393907E+02  0.00000000000E+00 0.  1.
         21    1    1    2  505  504 -0.67898258736E+02  0.83592014983E+02  0.16291044102E+04  0.16326600926E+04  0.00000000000E+00 0. -1.
         21    1    1    2  506  501 -0.30412548920E+02 -0.40753049635E+02  0.16606574010E+03  0.17367660816E+03  0.00000000000E+00 0.  1.
<scales pt_clust_3="45.68991" pt_clust_4="45.68991" pt_clust_5="106.83141" pt_clust_6="50.85011"></scales>
<clustering>
<clus scale="   45.690">  3  4 -1 -1</clus>
<clus scale="   50.850">  1  6  2 -1</clus>
<clus scale="  106.831">  1  5  2 -1</clus>
<clus scale="   50.850">  1  3  2 -1</clus>
</clustering>
</event>
<event>
 6    0  0.1704145E+002  0.3279250E+03  0.7546771E-02  0.1072059E+00
         21   -1    0    0  506  501  0.00000000000E+00  0.00000000000E+00  0.78715746218E+03  0.78715746218E+03  0.00000000000E+00 0.  1.
         21   -1    0    0  503  502 -0.00000000000E+00 -0.00000000000E+00 -0.23569471928E+03  0.23569471928E+03  0.00000000000E+00 0.  1.
         21    1    1    2  503  504  0.33558432371E+02  0.26156473205E+01 -0.54816844588E+02  0.64326483230E+02  0.00000000000E+00 0.  1.
         21    1    1    2  504  505  0.12388383140E+03  0.42793744101E+02  0.27855019439E+02  0.13399406825E+03  0.00000000000E+00 0. -1.
         21    1    1    2  505  501  0.14577104782E+03  0.94377604362E+02  0.21215895578E+02  0.17494697715E+03  0.00000000000E+00 0.  1.
         21    1    1    2  506  502 -0.30321331159E+03 -0.13978699578E+03  0.55720867247E+03  0.64958465283E+03  0.00000000000E+00 0.  1.
<scales pt_clust_3="33.66021" pt_clust_4="33.72320" pt_clust_5="33.72320" pt_clust_6="325.61929"></scales>
<clustering>
<clus scale="   33.660">  2  3  1 -1</clus>
<clus scale="   33.723">  4  5 -1 -1</clus>
<clus scale="  325.619">  1  6  2 -1</clus>
<clus scale="  325.619">  1  3  2 -1</clus>
</clustering>
</event>
<event>
 6    0  0.1704145E+002  0.1510680E+03  0.7546771E-02  0.1199167E+00
         21   -1    0    0  503  501  0.00000000000E+00  0.00000000000E+00  0.18605838724E+04  0.18605838724E+04  0.00000000000E+00 0. -1.
         21   -1    0    0  501  502 -0.00000000000E+00 -0.00000000000E+00 -0.17446528840E+03  0.17446528840E+03  0.00000000000E+00 0.  1.
         21    1    1    2  503  506  0.14772134741E+03 -0.34772285816E+02  0.17307085460E+04  0.17373493544E+04  0.00000000000E+00 0. -1.
         21    1    1    2  504  505 -0.65531601639E+02  0.15365992583E+01  0.59289759353E+02  0.88385674828E+02  0.00000000000E+00 0. -1.
         21    1    1    2  505  502  0.29652570307E+02 -0.19393624785E+02  0.14388242961E+02  0.38241458440E+02  0.00000000000E+00 0. -1.
         21    1    1    2  506  504 -0.11184231608E+03  0.52629311342E+02 -0.11826796431E+03  0.17107267304E+03  0.00000000000E+00 0.  1.
<scales pt_clust_3="14000.00000" pt_clust_4="62.87788" pt_clust_5="35.43145" pt_clust_6="151.06802"></scales>
<clustering>
<clus scale="   35.431">  2  5  1 -1</clus>
<clus scale="   62.878">  2  4  1 -1</clus>
<clus scale="  151.068">  2  6  1 -1</clus>
<clus scale="  151.068">  1  3  2 -1</clus>
</clustering>
</event>
<event>
 6    0  0.1704145E+002  0.1963872E+03  0.7546771E-02  0.1152823E+00
         21   -1    0    0  506  501  0.00000000000E+00  0.00000000000E+00  0.82654352191E+03  0.82654352191E+03  0.00000000000E+00 0.  1.
         21   -1    0    0  504  502 -0.00000000000E+00 -0.00000000000E+00 -0.16582715842E+03  0.16582715842E+03  0.00000000000E+00 0.  1.
         21    1    1    2  503  505  0.30717492444E+02  0.31421008700E+02  0.19717409539E+01  0.43985587323E+02  0.00000000000E+00 0. -1.
         21    1    1    2  504  503  0.41255598500E+02  0.14044791116E+03 -0.81440461368E+02  0.16751175751E+03  0.00000000000E+00 0.  1.
         21    1    1    2  505  501 -0.11423847372E+03 -0.15869055004E+03  0.66949075122E+03  0.69746038276E+03  0.00000000000E+00 0.  1.
         21    1    1    2  506  502  0.42265382776E+02 -0.13178369821E+02  0.70694332680E+02  0.83412952744E+02  0.00000000000E+00 0.  1.
<scales pt_clust_3="33.31241" pt_clust_4="33.31241" pt_clust_5="186.73815" pt_clust_6="44.27225"></scales>
<clustering>
<clus scale="   33.312">  3  4 -1 -1</clus>
<clus scale="   44.272">  1  6  2 -1</clus>
<clus scale="  186.738">  1  5  2 -1</clus>
<clus scale="   44.272">  1  3  2 -1</clus>
</clustering>
</event>
<event>
 6    0  0.1704145E+002  0.1279025E+03  0.7546771E-02  0.1230602E+00
         21   -1    0    0  505  501  0.00000000000E+00  0.00000000000E+00  0.20703707163E+03  0.20703707163E+03  0.00000000000E+00 0.  1.
         21   -1    0    0  503  502 -0.00000000000E+00 -0.00000000000E+00 -0.94007026212E+03  0.94007026212E+03  0.00000000000E+00 0.  1.
         21    1    1    2  503  501  0.23602961728E+02 -0.15304112381E+03 -0.26007855564E+03  0.30268719907E+03  0.00000000000E+00 0.  1.
         21    1    1    2  504  502 -0.38552907829E+02  0.11467523380E+03 -0.62130735292E+03  0.63297674739E+03  0.00000000000E+00 0.  1.
         21    1    1    2  505  506  0.34090905764E+02  0.59676211677E+01  0.16622145706E+03  0.16978626312E+03  0.00000000000E+00 0.  1.
         21    1    1    2  506  504 -0.19140959662E+02  0.32398268838E+02 -0.17868738991E+02  0.41657124164E+02  0.00000000000E+00 0. -1.
<scales pt_clust_3="14000.00000" pt_clust_4="127.90249" pt_clust_5="34.60928" pt_clust_6="35.31848"></scales>
<clustering>
<clus scale="   34.609">  1  5  2 -1</clus>
<clus scale="   35.318">  1  6  2 -1</clus>
<clus scale="  127.902">  2  4  1 -1</clus>
<clus scale="   34.609">  1  3  2 -1</clus>
</clustering>
</event>
<event>
 6    0  0.1704145E+002  0.1748442E+03  0.7546771E-02  0.1172888E+00
         21   -1    0    0  503  501  0.00000000000E+00  0.00000000000E+00  0.19410841140E+03  0.19410841140E+03  0.00000000000E+00 0.  1.
         21   -1    0    0  504  502 -0.00000000000E+00 -0.00000000000E+00 -0.58395389147E+03  0.58395389147E+03  0.00000000000E+00 0.  1.
         21    1    1    2  503  502 -0.70164071428E+02 -0.15517065932E+03  0.22667451783E+02  0.17179855589E+03  0.00000000000E+00 0.  1.
         21    1    1    2  504  505 -0.17881246139E+02  0.24226547588E+02 -0.56531483359E+02  0.64050551772E+02  0.00000000000E+00 0.  1.
         21    1    1    2  505  506  0.60973753308E+02  0.15018450641E+03 -0.43083773031E+03  0.46031981754E+03  0.00000000000E+00 0.  1.
         21    1    1    2  506  501  0.27071564259E+02 -0.19240394671E+02  0.74856281821E+02  0.81893377673E+02  0.00000000000E+00 0. -1.
<scales pt_clust_3="174.84424" pt_clust_4="30.11087" pt_clust_5="14000.00000" pt_clust_6="33.02021"></scales>
<clustering>
<clus scale="   30.111">  2  4  1 -1</clus>
<clus scale="   33.020">  1  6  2 -1</clus>
<clus scale="  174.844">  1  3  2 -1</clus>
<clus scale="   33.020">  1  3  2 -1</clus>
</clustering>
</event>
<event>
 6    0  0.1704145E+002  0.2127004E+03  0.7546771E-02  0.1139445E+00
         21   -1    0    0  504  501  0.00000000000E+00  0.00000000000E+00  0.35671432902E+03  0.35671432902E+03  0.00000000000E+00 0. -1.
         21   -1    0    0  506  502 -0.00000000000E+00 -0.00000000000E+00 -0.31140005951E+03  0.31140005951E+03  0.00000000000E+00 0.  1.
         21    1    1    2  503  502 -0.56026880575E+02  0.74769103445E+02 -0.11904056947E+03  0.15132774814E+03  0.00000000000E+00 0.  1.
         21    1    1    2  504  505 -0.58229787412E+02  0.95763161534E+01 -0.35300256679E+02  0.68764250121E+02  0.00000000000E+00 0.  1.
         21    1    1    2  505  503 -0.50216696500E+02  0.14568180469E+02 -0.87914809644E+02  0.10228862226E+03  0.00000000000E+00 0.  1.
         21    1    1    2  506  501  0.16447336449E+03 -0.98913600067E+02  0.28756990530E+03  0.34573376801E+03  0.00000000000E+00 0. -1.
<scales pt_clust_3="48.74359" pt_clust_4="48.74359" pt_clust_5="35.26241" pt_clust_6="191.92547"></scales>
<clustering>
<clus scale="   35.262">  3  5 -1 -1</clus>
<clus scale="   48.744">  3  4 -1 -1</clus>
<clus scale="  191.925">  1  6  2 -1</clus>
<clus scale="  191.925">  1  3  2 -1</clus>
</clustering>
</event>
<event>
 6    0  0.1704145E+002  0.1183156E+03  0.7546771E-02  0.1245902E+00
         21   -1    0    0  503  501  0.00000000000E+00  0.00000000000E+00  0.91612368937E+03  0.91612368937E+03  0.00000000000E+00 0. -1.
         21   -1    0    0  504  502 -0.00000000000E+00 -0.00000000000E+00 -0.48404295520E+02  0.48404295520E+02  0.00000000000E+00 0. -1.
         21    1    1    2  503  506 -0.44059361543E+02 -0.13942387624E+03  0.60470252344E+03  0.62212971835E+03  0.00000000000E+00 0. -1.
         21    1    1    2  504  505 -0.13057240086E+01  0.71216390617E+02  0.10004865521E+03  0.12281373138E+03  0.00000000000E+00 0. -1.
         21    1    1    2  505  501  0.80636586372E+02  0.46800239042E+02  0.14948671385E+03  0.17617831607E+03  0.00000000000E+00 0. -1.
         21    1    1    2  506  502 -0.35271500821E+02  0.21407246581E+02  0.13481501358E+02  0.43406219084E+02  0.00000000000E+00 0. -1.
<scales pt_clust_3="118.31560" pt_clust_4="79.62323" pt_clust_5="14000.00000" pt_clust_6="41.25953"></scales>
<clustering>
<clus scale="   41.260">  2  6  1 -1</clus>
<clus scale="   79.623">  2  4  1 -1</clus>
<clus scale="  118.316">  1  3  2 -1</clus>
<clus scale="  118.316">  1  3  2 -1</clus>
</clustering>
</event>
<event>
 6    0  0.1704145E+002  0.1543114E+03  0.7546771E-02  0.1195273E+00
         21   -1    0    0  506  501  0.00000000000E+00  0.00000000000E+00  0.12477647697E+03  0.12477647697E+03  0.00000000000E+00 0.  1.
         21   -1    0    0  504  502 -0.00000000000E+00 -0.00000000000E+00 -0.43211704597E+03  0.43211704597E+03  0.00000000000E+00 0.  1.
         21    1    1    2  503  502 -0.15632923853E+03 -0.16427020995E+02 -0.22162376359E+03  0.27170898113E+03  0.00000000000E+00 0.  1.
         21    1    1    2  504  505  0.69519167537E+02  0.24240991373E+02 -0.96131423542E+02  0.12108588237E+03  0.00000000000E+00 0.  1.
         21    1    1    2  505  501  0.12410590235E+03 -0.87509675019E+01  0.18891467039E+02  0.12584014446E+03  0.00000000000E+00 0.  1.
         21    1    1    2  506  503 -0.37295831363E+02  0.93699712432E+00 -0.84768489056E+01  0.38258514974E+02  0.00000000000E+00 0. -1.
<scales pt_clust_3="35.80978" pt_clust_4="73.62432" pt_clust_5="135.68004" pt_clust_6="35.80978"></scales>
<clustering>
<clus scale="   35.810">  3  6 -1 -1</clus>
<clus scale="   73.624">  2  4  1 -1</clus>
<clus scale="  135.680">  1  5  2 -1</clus>
<clus scale="  135.680">  1  3  2 -1</clus>
</clustering>
</event>
<event>
 6    0  0.1704145E+002  0.1510798E+03  0.7546771E-02  0.1199152E+00
         21   -1    0    0  504  501  0.00000000000E+00  0.00000000000E+00  0.13355728749E+03  0.13355728749E+03  0.00000000000E+00 0. -1.
         21   -1    0    0  505  502 -0.00000000000E+00 -0.00000000000E+00 -0.93787472269E+03  0.93787472269E+03  0.00000000000E+00 0. -1.
         21    1    1    2  503  502  0.98394700540E+02 -0.17691942417E+03 -0.20264188396E+03  0.28643626320E+03  0.00000000000E+00 0. -1.
         21    1    1    2  504  503 -0.41659929017E+02 -0.40890061439E+02 -0.41613255330E+02  0.71688282371E+02  0.00000000000E+00 0. -1.
         21    1    1    2  505  506 -0.48615574943E+02  0.13279329155E+03 -0.60184217045E+03  0.61823258612E+03  0.00000000000E+00 0. -1.
         21    1    1    2  506  501 -0.81191965794E+01  0.85016194057E+02  0.41779874528E+02  0.95074878494E+02  0.00000000000E+00 0. -1.
<scales pt_clust_3="14000.00000" pt_clust_4="58.37420" pt_clust_5="151.07984" pt_clust_6="69.32525"></scales>
<clustering>
<clus scale="   58.374">  1  4  2 -1</clus>
<clus scale="   69.325">  1  6  2 -1</clus>
<clus scale="  151.080">  2  5  1 -1</clus>
<clus scale="   58.374">  1  3  2 -1</clus>
</clustering>
</event>
<event>
 6    0  0.1704145E+002  0.1233439E+03  0.7546771E-02  0.1237680E+00
         21   -1    0    0  506  501  0.00000000000E+00  0.00000000000E+00  0.19620924376E+03  0.19620924376E+03  0.00000000000E+00 0.  1.
         21   -1    0    0  505  502 -0.00000000000E+00 -0.00000000000E+00 -0.68268116998E+03  0.68268116998E+03  0.00000000000E+00 0.  1.
         21    1    1    2  503  504  0.93204376510E+02  0.14916905503E+02 -0.28870234586E+03  0.30374103177E+03  0.00000000000E+00 0.  1.
         21    1    1    2  504  502  0.21656827748E+02  0.38417356588E+02 -0.16073545137E+03  0.16667572350E+03  0.00000000000E+00 0.  1.
         21    1    1    2  505  501 -0.59216183864E+01 -0.61899038717E+02 -0.20157714965E+03  0.21095000313E+03  0.00000000000E+00 0.  1.
         21    1    1    2  506  503 -0.10893958587E+03  0.85647766266E+01  0.16454302067E+03  0.19752365535E+03  0.00000000000E+00 0.  1.
<scales pt_clust_3="39.02710" pt_clust_4="39.02710" pt_clust_5="62.18164" pt_clust_6="109.33334"></scales>
<clustering>
<clus scale="   39.027">  3  4 -1 -1</clus>
<clus scale="   62.182">  2  5  1 -1</clus>
<clus scale="  109.333">  1  6  2 -1</clus>
<clus scale="  109.333">  1  3  2 -1</clus>
</clustering>
</event>
<event>
 6    0  0.1704145E+002  0.1546683E+03  0.7546771E-02  0.1194851E+00
         21   -1    0    0  504  501  0.00000000000E+00  0.00000000000E+00  0.36583794739E+03  0.36583794739E+03  0.00000000000E+00 0.  1.
         21   -1    0    0  503  502 -0.00000000000E+00 -0.00000000000E+00 -0.32300454844E+03  0.32300454844E+03  0.00000000000E+00 0. -1.
         21    1    1    2  503  501 -0.76486707311E+02  0.50797161167E+02  0.29384377451E+03  0.30785504998E+03  0.00000000000E+00 0.  1.
         21    1    1    2  504  505 -0.41914110309E+01  0.66695281362E+02  0.17779091396E+02  0.69151461107E+02  0.00000000000E+00 0.  1.
         21    1    1    2  505  506  0.42075745324E+02 -0.16205279043E+02 -0.47891216510E+02  0.65776500608E+02  0.00000000000E+00 0. -1.
         21    1    1    2  506  502  0.38602373018E+02 -0.10128716349E+03 -0.22089825044E+03  0.24605948414E+03  0.00000000000E+00 0. -1.
<scales pt_clust_3="138.71488" pt_clust_4="66.82685" pt_clust_5="44.12408" pt_clust_6="44.12408"></scales>
<clustering>
<clus scale="   44.124">  5  6 -1 -1</clus>
<clus scale="   66.827">  1  4  2 -1</clus>
<clus scale="  138.715">  1  3  2 -1</clus>
<clus scale="   66.827">  1  3  2 -1</clus>
</clustering>
</event>
<event>
 6    0  0.1704145E+002  0.1541243E+03  0.7546771E-02  0.1195495E+00
         21   -1    0    0  503  501  0.00000000000E+00  0.00000000000E+00  0.34308613160E+03  0.34308613160E+03  0.00000000000E+00 0. -1.
         21   -1    0    0  506  502 -0.00000000000E+00 -0.00000000000E+00 -0.43930420864E+03  0.43930420864E+03  0.00000000000E+00 0. -1.
         21    1    1    2  503  502  0.11853144149E+03 -0.81270563887E+02  0.30888181734E+03  0.34067959179E+03  0.00000000000E+00 0. -1.
         21    1    1    2  504  505 -0.81975994505E+02  0.51030834970E+02 -0.23563541357E+03  0.25465321109E+03  0.00000000000E+00 0. -1.
         21    1    1    2  505  501 -0.97445786030E+01  0.43797084743E+02 -0.69919011895E+02  0.83077130840E+02  0.00000000000E+00 0.  1.
         21    1    1    2  506  504 -0.26810868386E+02 -0.13557355826E+02 -0.99545468917E+02  0.10398040653E+03  0.00000000000E+00 0. -1.
<scales pt_clust_3="143.04206" pt_clust_4="36.25087" pt_clust_5="36.25087" pt_clust_6="30.04371"></scales>
<clustering>
<clus scale="   30.044">  2  6  1 -1</clus>
<clus scale="   36.251">  4  5 -1 -1</clus>
<clus scale="  143.042">  1  3  2 -1</clus>
<clus scale="  143.042">  1  3  2 -1</clus>
</clustering>
</event>
<event>
 6    0  0.1704145E+002  0.1063374E+03  0.7546771E-02  0.1267507E+00
         21   -1    0    0  505  501  0.00000000000E+00  0.00000000000E+00  0.22448577998E+03  0.22448577998E+03  0.00000000000E+00 0.  1.
         21   -1    0    0  506  502 -0.00000000000E+00 -0.00000000000E+00 -0.13392078673E+03  0.13392078673E+03  0.00000000000E+00 0.  1.
         21    1    1    2  503  502  0.14010899957E+02 -0.51673849398E+02 -0.44307528485E+01  0.53722654439E+02  0.00000000000E+00 0.  1.
         21    1    1    2  504  501 -0.57331126370E+02  0.77818075701E+02 -0.61370307962E+01  0.96851298926E+02  0.00000000000E+00 0.  1.
         21    1    1    2  505  503  0.46269000889E+02 -0.74617750029E+02  0.12576463013E+03  0.15337982676E+03  0.00000000000E+00 0.  1.
         21    1    1    2  506  504 -0.29487744766E+01  0.48473523726E+02 -0.24631853245E+02  0.54452786592E+02  0.00000000000E+00 0.  1.
<scales pt_clust_3="53.53963" pt_clust_4="34.45612" pt_clust_5="94.57633" pt_clust_6="34.45612"></scales>
<clustering>
<clus scale="   34.456">  4  6 -1 -1</clus>
<clus scale="   53.540">  2  3  1 -1</clus>
<clus scale="   94.576">  1  5  2 -1</clus>
<clus scale="   94.576">  1  3  2 -1</clus>
</clustering>
</event>
<event>
 6    0  0.1704145E+002  0.3034256E+03  0.7546771E-02  0.1083541E+00
         21   -1    0    0  504  501  0.00000000000E+00  0.00000000000E+00  0.65448404249E+03  0.65448404249E+03  0.00000000000E+00 0.  1.
         21   -1    0    0  505  502 -0.00000000000E+00 -0.00000000000E+00 -0.94450485374E+03  0.94450485374E+03  0.00000000000E+00 0. -1.
         21    1    1    2  503  506  0.19736795144E+03  0.97696260009E+02 -0.73989390319E+02  0.23232110829E+03  0.00000000000E+00 0.  1.
         21    1    1    2  504  502 -0.25465088869E+03 -0.23082808402E+03 -0.65064493763E+03  0.73584476240E+03  0.00000000000E+00 0. -1.
         21    1    1    2  505  503 -0.63833145109E+02  0.24538377022E+02 -0.71661329184E+02  0.99056289360E+02  0.00000000000E+00 0.  1.
         21    1    1    2  506  501  0.12111608236E+03  0.10859344699E+03  0.50627484588E+03  0.53176673618E+03  0.00000000000E+00 0.  1.
<scales pt_clust_3="303.42565" pt_clust_4="14000.00000" pt_clust_5="68.38715" pt_clust_6="162.21079"></scales>
<clustering>
<clus scale="   68.387">  2  5  1 -1</clus>
<clus scale="  162.211">  1  6  2 -1</clus>
<clus scale="  303.426">  1  3  2 -1</clus>
<clus scale="  162.211">  1  3  2 -1</clus>
</clustering>
</event>
<event>
 6    0  0.1704145E+002  0.1388739E+03  0.7546771E-02  0.1214852E+00
         21   -1    0    0  505  501  0.00000000000E+00  0.00000000000E+00  0.24698542035E+04  0.24698542035E+04  0.00000000000E+00 0. -1.
         21   -1    0    0  503  502 -0.00000000000E+00 -0.00000000000E+00 -0.63175826665E+02  0.63175826665E+02  0.00000000000E+00 0.  1.
         21    1    1    2  503  501  0.14041277496E+03 -0.95225874623E+00  0.12160223030E+03  0.18575186831E+03  0.00000000000E+00 0.  1.
         21    1    1    2  504  506 -0.48613895216E+02 -0.80886892718E+01  0.35926261236E+02  0.60987162162E+02  0.00000000000E+00 0. -1.
         21    1    1    2  505  504 -0.23324356759E+02 -0.38190749392E+02  0.21731673708E+04  0.21736280686E+04  0.00000000000E+00 0. -1.
         21    1    1    2  506  502 -0.68474522984E+02  0.47231697410E+02  0.75982514489E+02  0.11266293111E+03  0.00000000000E+00 0.  1.
<scales pt_clust_3="129.98867" pt_clust_4="37.62051" pt_clust_5="44.74996" pt_clust_6="37.62051"></scales>
<clustering>
<clus scale="   37.621">  4  6 -1 -1</clus>
<clus scale="   44.750">  1  5  2 -1</clus>
<clus scale="  129.989">  1  3  2 -1</clus>
<clus scale="   44.750">  1  3  2 -1</clus>
</clustering>
</event>
<event>
 6    0  0.1704145E+002  0.9676101E+02  0.7546771E-02  0.1287258E+00
         21   -1    0    0  504  501  0.00000000000E+00  0.00000000000E+00  0.16967968887E+03  0.16967968887E+03  0.00000000000E+00 0.  1.
         21   -1    0    0  506  502 -0.00000000000E+00 -0.00000000000E+00 -0.17850005364E+04  0.17850005364E+04  0.00000000000E+00 0.  1.
         21    1    1    2  503  501  0.13066115810E+03 -0.54753133412E+02 -0.14190980325E+04  0.14261519798E+04  0.00000000000E+00 0.  1.
         21    1    1    2  504  505 -0.80243870182E+02  0.53263088218E+02  0.13900942334E+03  0.16911432537E+03  0.00000000000E+00 0.  1.
         21    1    1    2  505  502 -0.69917557608E+02  0.38067470241E+02 -0.15237954826E+03  0.17192185399E+03  0.00000000000E+00 0.  1.
         21    1    1    2  506  503  0.19500269695E+02 -0.36577425046E+02 -0.18285269018E+03  0.18749206609E+03  0.00000000000E+00 0.  1.
<scales pt_clust_3="14000.00000" pt_clust_4="96.76101" pt_clust_5="76.13550" pt_clust_6="41.45080"></scales>
<clustering>
<clus scale="   41.451">  2  6  1 -1</clus>
<clus scale="   76.136">  2  5  1 -1</clus>
<clus scale="   96.761">  1  4  2 -1</clus>
<clus scale="   96.761">  1  3  2 -1</clus>
</clustering>
</event>
<event>
 6    0  0.1704145E+002  0.1506207E+03  0.7546771E-02  0.1199712E+00
         21   -1    0    0  506  501  0.00000000000E+00  0.00000000000E+00  0.18615396704E+04  0.18615396704E+04  0.00000000000E+00 0.  1.
         21   -1    0    0  503  502 -0.00000000000E+00 -0.00000000000E+00 -0.76817551236E+02  0.76817551236E+02  0.00000000000E+00 0. -1.
         21    1    1    2  503  505  0.80094233229E+02  0.64130291594E+02  0.26010799841E+02  0.10585056544E+03  0.00000000000E+00 0. -1.
         21    1    1    2  504  502 -0.42265840085E+02 -0.85407044488E+02  0.19617814573E+03  0.21809775182E+03  0.00000000000E+00 0. -1.
         21    1    1    2  505  501  0.92490585704E+02  0.50390698895E+02  0.98210691347E+02  0.14401066236E+03  0.00000000000E+00 0. -1.
         21    1    1    2  506  504 -0.13031897885E+03 -0.29113946002E+02  0.14643224822E+04  0.14703982420E+04  0.00000000000E+00 0.  1.
<scales pt_clust_3="63.19138" pt_clust_4="95.29305" pt_clust_5="63.19138" pt_clust_6="136.33608"></scales>
<clustering>
<clus scale="   63.191">  3  5 -1 -1</clus>
<clus scale="   95.293">  2  4  1 -1</clus>
<clus scale="  136.336">  1  6  2 -1</clus>
<clus scale="  136.336">  1  3  2 -1</clus>
</clustering>
</event>
<event>
 6    0  0.1704145E+002  0.4151914E+03  0.7546771E-02  0.1038643E+00
         21   -1    0    0  503  501  0.00000000000E+00  0.00000000000E+00  0.20616642980E+03  0.20616642980E+03  0.00000000000E+00 0.  1.
         21   -1    0    0  505  502 -0.00000000000E+00 -0.00000000000E+00 -0.94843458725E+03  0.94843458725E+03  0.00000000000E+00 0.  1.
         21    1    1    2  503  502 -0.81013304825E+02 -0.37702745334E+03 -0.11507944829E+03  0.40243774121E+03  0.00000000000E+00 0.  1.
         21    1    1    2  504  506  0.50901987100E+02  0.10437162122E+03 -0.12946112528E+03  0.17390983459E+03  0.00000000000E+00 0.  1.
         21    1    1    2  505  504  0.42518808596E+02  0.22805993168E+03 -0.47040953967E+03  0.52450387657E+03  0.00000000000E+00 0.  1.
         21    1    1    2  506  501 -0.12407490870E+02  0.44595900436E+02 -0.27318044203E+02  0.53749564690E+02  0.00000000000E+00 0. -1.
<scales pt_clust_3="385.63306" pt_clust_4="95.03169" pt_clust_5="95.03169" pt_clust_6="37.75544"></scales>
<clustering>
<clus scale="   37.755">  4  6 -1 -1</clus>
<clus scale="   95.032">  4  5 -1 -1</clus>
<clus scale="  385.633">  1  3  2 -1</clus>
<clus scale="  385.633">  1  3  2 -1</clus>
</clustering>
</event>
<event>
 6    0  0.1824851E+002  0.3439944E+03  0.7546771E-02  0.1065107E+00
         21   -1    0    0  505  501  0.00000000000E+00  0.00000000000E+00  0.45460410686E+03  0.45460410686E+03  0.00000000000E+00 0.  1.
         21   -1    0    0  504  502 -0.00000000000E+00 -0.00000000000E+00 -0.14737335495E+04  0.14737335495E+04  0.00000000000E+00 0.  1.
         21    1    1    2  503  506 -0.10027620529E+03 -0.30066196089E+03  0.12134670375E+03  0.33937877745E+03  0.00000000000E+00 0.  1.
         21    1    1    2  504  503  0.11909981915E+03  0.30378958096E+03 -0.13333441462E+04  0.13726906019E+04  0.00000000000E+00 0.  1.
         21    1    1    2  505  502 -0.25815917038E+02  0.40810023026E+02  0.13430155583E+03  0.14271940110E+03  0.00000000000E+00 0.  1.
         21    1    1    2  506  501  0.69923031710E+01 -0.43937643102E+02  0.58566443977E+02  0.73548875893E+02  0.00000000000E+00 0. -1.
<scales pt_clust_3="38.73706" pt_clust_4="328.08903" pt_clust_5="48.28995" pt_clust_6="38.73706"></scales>
<clustering>
<clus scale="   38.737">  3  6 -1 -1</clus>
<clus scale="   48.290">  1  5  2 -1</clus>
<clus scale="  328.089">  2  4  1 -1</clus>
<clus scale="   48.290">  1  3  2 -1</clus>
</clustering>
</event>
<event>
 6    0  0.1704145E+002  0.3483815E+03  0.7546771E-02  0.1063281E+00
         21   -1    0    0  506  501  0.00000000000E+00  0.00000000000E+00  0.26514220406E+04  0.26514220406E+04  0.00000000000E+00 0.  1.
         21   -1    0    0  503  502 -0.00000000000E+00 -0.00000000000E+00 -0.68629142481E+03  0.68629142481E+03  0.00000000000E+00 0. -1.
         21    1    1    2  503  505 -0.51882959218E+02 -0.66536906163E+02 -0.59409474017E+02  0.10319150615E+03  0.00000000000E+00 0. -1.
         21    1    1    2  504  502  0.30757148820E+03  0.15038410167E+03 -0.24513305600E+03  0.42107696866E+03  0.00000000000E+00 0. -1.
         21    1    1    2  505  501 -0.25122502772E+03 -0.44801264037E+02 -0.21181691445E+03  0.33164374418E+03  0.00000000000E+00 0. -1.
         21    1    1    2  506  504 -0.44635012627E+01 -0.39045931472E+02  0.24814900603E+04  0.24818012465E+04  0.00000000000E+00 0.  1.
<scales pt_clust_3="62.01697" pt_clust_4="331.84691" pt_clust_5="62.01697" pt_clust_6="39.30022"></scales>
<clustering>
<clus scale="   39.300">  1  6  2 -1</clus>
<clus scale="   62.017">  3  5 -1 -1</clus>
<clus scale="  331.847">  1  4  2 -1</clus>
<clus scale="   39.300">  1  3  2 -1</clus>
</clustering>
</event>
<event>
 6    0  0.1704145E+002  0.1380992E+03  0.7546771E-02  0.1215910E+00
         21   -1    0    0  506  501  0.00000000000E+00  0.00000000000E+00  0.59189566622E+02  0.59189566622E+02  0.00000000000E+00 0.  1.
         21   -1    0    0  505  502 -0.00000000000E+00 -0.00000000000E+00 -0.86938477365E+03  0.86938477365E+03  0.00000000000E+00 0.  1.
         21    1    1    2  503  501 -0.49483947198E+02 -0.42182628650E+02 -0.87532876993E+01  0.65609871480E+02  0.00000000000E+00 0.  1.
         21    1    1    2  504  502  0.39972615918E+02 -0.25594131797E+02 -0.12468866890E+03  0.13341714192E+03  0.00000000000E+00 0.  1.
         21    1    1    2  505  503 -0.85730008051E+02  0.86276751648E+02 -0.57967694906E+03  0.59229948288E+03  0.00000000000E+00 0.  1.
         21    1    1    2  506  504  0.95241339331E+02 -0.18499991201E+02 -0.97076301375E+02  0.13724784399E+03  0.00000000000E+00 0.  1.
<scales pt_clust_3="65.02334" pt_clust_4="43.41445" pt_clust_5="123.36399" pt_clust_6="43.41445"></scales>
<clustering>
<clus scale="   43.414">  4  6 -1 -1</clus>
<clus scale="   65.023">  1  3  2 -1</clus>
<clus scale="  123.364">  2  5  1 -1</clus>
<clus scale="   65.023">  1  3  2 -1</clus>
</clustering>
</event>
<event>
 6    0  0.1704145E+002  0.1739069E+03  0.7546771E-02  0.1173834E+00
         21   -1    0    0  505  501  0.00000000000E+00  0.00000000000E+00  0.54349357968E+03  0.54349357968E+03  0.00000000000E+00 0. -1.
         21   -1    0    0  506  502 -0.00000000000E+00 -0.00000000000E+00 -0.18850662524E+04  0.18850662524E+04  0.00000000000E+00 0. -1.
         21    1    1    2  503  502 -0.26123150393E+01  0.42476315441E+02 -0.38331115984E+02  0.57274217724E+02  0.00000000000E+00 0.  1.
         21    1    1    2  504  501 -0.11493020191E+03 -0.12710639394E+02  0.17218374163E+02  0.11690587698E+03  0.00000000000E+00 0. -1.
         21    1    1    2  505  503  0.83342185331E+02 -0.16075534214E+03  0.44671892248E+03  0.48202281646E+03  0.00000000000E+00 0. -1.
         21    1    1    2  506  504  0.34200331614E+02  0.13098966609E+03 -0.17671788533E+04  0.17723569209E+04  0.00000000000E+00 0. -1.
<scales pt_clust_3="42.55657" pt_clust_4="115.58045" pt_clust_5="173.90693" pt_clust_6="14000.00000"></scales>
<clustering>
<clus scale="   42.557">  2  3  1 -1</clus>
<clus scale="  115.580">  1  4  2 -1</clus>
<clus scale="  173.907">  1  5  2 -1</clus>
<clus scale="  115.580">  1  3  2 -1</clus>
</clustering>
</event>
<event>
 6    0  0.1704145E+002  0.1331989E+03  0.7546771E-02  0.1222785E+00
         21   -1    0    0  505  501  0.00000000000E+00  0.00000000000E+00  0.90887537616E+03  0.90887537616E+03  0.00000000000E+00 0. -1.
         21   -1    0    0  504  502 -0.00000000000E+00 -0.00000000000E+00 -0.55774876440E+03  0.55774876440E+03  0.00000000000E+00 0. -1.
         21    1    1    2  503  506 -0.24052023236E+02  0.10419685890E+03  0.14388250102E+03  0.17926979480E+03  0.00000000000E+00 0. -1.
         21    1    1    2  504  501 -0.59580343635E+02  0.22248331078E+02  0.75806680278E+01  0.64048982125E+02  0.00000000000E+00 0. -1.
         21    1    1    2  505  503 -0.22491126288E+02 -0.41539929008E+02  0.70165397887E+03  0.70324229290E+03  0.00000000000E+00 0. -1.
         21    1    1    2  506  502  0.10612349316E+03 -0.84905260975E+02 -0.50199053616E+03  0.52006307073E+03  0.00000000000E+00 0. -1.
<scales pt_clust_3="14000.00000" pt_clust_4="65.24008" pt_clust_5="47.23787" pt_clust_6="133.19889"></scales>
<clustering>
<clus scale="   47.238">  1  5  2 -1</clus>
<clus scale="   65.240">  1  4  2 -1</clus>
<clus scale="  133.199">  2  6  1 -1</clus>
<clus scale="   47.238">  1  3  2 -1</clus>
</clustering>
</event>
<event>
 6    0  0.1704145E+002  0.1577164E+03  0.7546771E-02  0.1191299E+00
         21   -1    0    0  506  501  0.00000000000E+00  0.00000000000E+00  0.17558332044E+03  0.17558332044E+03  0.00000000000E+00 0.  1.
         21   -1    0    0  503  502 -0.00000000000E+00 -0.00000000000E+00 -0.76067835727E+03  0.76067835727E+03  0.00000000000E+00 0.  1.
         21    1    1    2  503  504 -0.13116790917E+03 -0.52210552989E+02 -0.43091057645E+03  0.45344777774E+03  0.00000000000E+00 0.  1.
         21    1    1    2  504  501 -0.29365168366E+02 -0.26024351550E+02 -0.13633184564E+02  0.41538460590E+02  0.00000000000E+00 0.  1.
         21    1    1    2  505  502  0.22606023888E+03  0.45711643866E+02 -0.23000196961E+03  0.32572026650E+03  0.00000000000E+00 0.  1.
         21    1    1    2  506  505 -0.65527161344E+02  0.32523260673E+02  0.89450693793E+02  0.11555517288E+03  0.00000000000E+00 0.  1.
<scales pt_clust_3="14000.00000" pt_clust_4="39.23748" pt_clust_5="157.71641" pt_clust_6="85.66113"></scales>
<clustering>
<clus scale="   39.237">  1  4  2 -1</clus>
<clus scale="   85.661">  1  6  2 -1</clus>
<clus scale="  157.716">  1  5  2 -1</clus>
<clus scale="   39.237">  1  3  2 -1</clus>
</clustering>
</event>
<event>
 6    0  0.1704145E+002  0.1183653E+03  0.7546771E-02  0.1245818E+00
         21   -1    0    0  503  501  0.00000000000E+00  0.00000000000E+00  0.76641575326E+02  0.76641575326E+02  0.00000000000E+00 0.  1.
         21   -1    0    0  506  502 -0.00000000000E+00 -0.00000000000E+00 -0.13940713995E+04  0.13940713995E+04  0.00000000000E+00 0.  1.
         21    1    1    2  503  504  0.10349788894E+03  0.69389715089E+02  0.10685828980E+02  0.12506371383E+03  0.00000000000E+00 0.  1.
         21    1    1    2  504  502 -0.36025405250E+02 -0.78148118547E+02 -0.39734674240E+03  0.40655798105E+03  0.00000000000E+00 0.  1.
         21    1    1    2  505  501 -0.32381306176E+02  0.22672906401E+02 -0.10094154756E+03  0.10840574568E+03  0.00000000000E+00 0.  1.
         21    1    1    2  506  505 -0.35091177514E+02 -0.13914502943E+02 -0.82982736319E+03  0.83068553426E+03  0.00000000000E+00 0.  1.
<scales pt_clust_3="118.36530" pt_clust_4="14000.00000" pt_clust_5="43.77783" pt_clust_6="37.74923"></scales>
<clustering>
<clus scale="   37.749">  2  6  1 -1</clus>
<clus scale="   43.778">  2  5  1 -1</clus>
<clus scale="  118.365">  1  3  2 -1</clus>
<clus scale="  118.365">  1  3  2 -1</clus>
</clustering>
</event>
<event>
 6    0  0.1704145E+002  0.1152742E+03  0.7546771E-02  0.1251103E+00
         21   -1    0    0  505  501  0.00000000000E+00  0.00000000000E+00  0.13349846733E+04  0.13349846733E+04  0.00000000000E+00 0.  1.
         21   -1    0    0  504  502 -0.00000000000E+00 -0.00000000000E+00 -0.32855486385E+03  0.32855486385E+03  0.00000000000E+00 0.  1.
         21    1    1    2  503  502  0.13498177435E+02  0.41675797039E+02 -0.52659108365E+02  0.68498573319E+02  0.00000000000E+00 0.  1.
         21    1    1    2  504  501 -0.17529885864E+02 -0.87036206075E+02 -0.37142806260E+02  0.96240252094E+02  0.00000000000E+00 0. -1.
         21    1    1    2  505  506 -0.37885786128E+02 -0.17849059460E+02  0.12900195684E+04  0.12906991936E+04  0.00000000000E+00 0.  1.
         21    1    1    2  506  503  0.41917494556E+02  0.63209468496E+02 -0.19378784426E+03  0.20810151811E+03  0.00000000000E+00 0.  1.
<scales pt_clust_3="31.33242" pt_clust_4="107.64960" pt_clust_5="41.87985" pt_clust_6="31.33242"></scales>
<clustering>
<clus scale="   31.332">  3  6 -1 -1</clus>
<clus scale="   41.880">  1  5  2 -1</clus>
<clus scale="  107.650">  1  4  2 -1</clus>
<clus scale="   41.880">  1  3  2 -1</clus>
</clustering>
</event>
<event>
 6    0  0.1704145E+002  0.1902613E+03  0.7546771E-02  0.1158226E+00
         21   -1    0    0  502  501  0.00000000000E+00  0.00000000000E+00  0.89704561759E+02  0.89704561759E+02  0.00000000000E+00 0. -1.
         21   -1    0    0  506  502 -0.00000000000E+00 -0.00000000000E+00 -0.99365766676E+03  0.99365766676E+03  0.00000000000E+00 0. -1.
         21    1    1    2  503  501 -0.19828799626E+03 -0.42986242511E+02 -0.68345411514E+02  0.21409587054E+03  0.00000000000E+00 0. -1.
         21    1    1    2  504  505  0.71225059662E+02  0.18168075909E+02 -0.25385551452E+03  0.26428339024E+03  0.00000000000E+00 0. -1.
         21    1    1    2  505  503  0.48500577874E+02  0.39830600328E+02 -0.11125719208E+03  0.12773780006E+03  0.00000000000E+00 0. -1.
         21    1    1    2  506  504  0.78562358728E+02 -0.15012433726E+02 -0.47049498689E+03  0.47724516767E+03  0.00000000000E+00 0. -1.
<scales pt_clust_3="183.09587" pt_clust_4="47.79277" pt_clust_5="47.79277" pt_clust_6="79.98386"></scales>
<clustering>
<clus scale="   47.793">  4  5 -1 -1</clus>
<clus scale="   79.984">  2  6  1 -1</clus>
<clus scale="  183.096">  1  3  2 -1</clus>
<clus scale="  183.096">  1  3  2 -1</clus>
</clustering>
</event>
<event>
 6    0  0.1704145E+002  0.1451058E+03  0.7546771E-02  0.1206619E+00
         21   -1    0    0  504  501  0.00000000000E+00  0.00000000000E+00  0.10584317864E+04  0.10584317864E+04  0.00000000000E+00 0. -1.
         21   -1    0    0  505  502 -0.00000000000E+00 -0.00000000000E+00 -0.21792528395E+03  0.21792528395E+03  0.00000000000E+00 0. -1.
         21    1    1    2  503  506  0.95842802461E+02 -0.77380724929E+02 -0.56915402061E+02  0.13569444486E+03  0.00000000000E+00 0. -1.
         21    1    1    2  504  503 -0.12129099766E+03  0.81900769735E+02  0.99104356083E+03  0.10017916858E+04  0.00000000000E+00 0. -1.
         21    1    1    2  505  501 -0.27689466548E+02  0.18701237011E+02 -0.62294898480E+01  0.33988959490E+02  0.00000000000E+00 0. -1.
         21    1    1    2  506  502  0.53137661750E+02 -0.23221281816E+02 -0.87392166447E+02  0.10488198025E+03  0.00000000000E+00 0. -1.
<scales pt_clust_3="145.10582" pt_clust_4="14000.00000" pt_clust_5="33.41321" pt_clust_6="42.12240"></scales>
<clustering>
<clus scale="   33.413">  2  5  1 -1</clus>
<clus scale="   42.122">  2  6  1 -1</clus>
<clus scale="  145.106">  2  3  1 -1</clus>
<clus scale="  145.106">  1  3  2 -1</clus>
</clustering>
</event>
<event>
 6    0  0.1704145E+002  0.2947657E+03  0.7546771E-02  0.1087887E+00
         21   -1    0    0  505  501  0.00000000000E+00  0.00000000000E+00  0.36162945053E+04  0.36162945053E+04  0.00000000000E+00 0. -1.
         21   -1    0    0  506  502 -0.00000000000E+00 -0.00000000000E+00 -0.52343121364E+02  0.52343121364E+02  0.00000000000E+00 0. -1.
         21    1    1    2  503  502 -0.19262980022E+03  0.12378585993E+03  0.45867939325E+03  0.51265579568E+03  0.00000000000E+00 0. -1.
         21    1    1    2  504  501  0.41502405812E+02  0.47076284985E+02  0.16594711279E+04  0.16606574152E+04  0.00000000000E+00 0. -1.
         21    1    1    2  505  503 -0.68051367789E+02  0.11459437305E+02  0.11327063286E+03  0.13263688638E+03  0.00000000000E+00 0.  1.
         21    1    1    2  506  504  0.21917876219E+03 -0.18232158222E+03  0.13325302299E+04  0.13626875294E+04  0.00000000000E+00 0. -1.
<scales pt_clust_3="30.21842" pt_clust_4="62.75848" pt_clust_5="30.21842" pt_clust_6="289.58067"></scales>
<clustering>
<clus scale="   30.218">  3  5 -1 -1</clus>
<clus scale="   62.758">  1  4  2 -1</clus>
<clus scale="  289.581">  1  6  2 -1</clus>
<clus scale="   62.758">  1  3  2 -1</clus>
</clustering>
</event>
<event>
 6    0  0.1704145E+002  0.1140867E+03  0.7546771E-02  0.1253184E+00
         21   -1    0    0  503  501  0.00000000000E+00  0.00000000000E+00  0.75273662952E+02  0.75273662952E+02  0.00000000000E+00 0. -1.
         21   -1    0    0  505  502 -0.00000000000E+00 -0.00000000000E+00 -0.13457781836E+04  0.13457781836E+04  0.00000000000E+00 0. -1.
         21    1    1    2  503  504 -0.44677416547E+02 -0.11152139486E+03  0.19391453610E+02  0.12169273411E+03  0.00000000000E+00 0. -1.
         21    1    1    2  504  506 -0.16821428714E+02  0.57505303276E+02 -0.56019843276E+03  0.56339338338E+03  0.00000000000E+00 0. -1.
         21    1    1    2  505  501  0.24126306204E+02  0.20382893958E+02 -0.49180500122E+03  0.49281812085E+03  0.00000000000E+00 0. -1.
         21    1    1    2  506  502  0.37372539056E+02  0.33633197631E+02 -0.23789254029E+03  0.24314760822E+03  0.00000000000E+00 0. -1.
<scales pt_clust_3="114.08668" pt_clust_4="14000.00000" pt_clust_5="31.58387" pt_clust_6="59.17533"></scales>
<clustering>
<clus scale="   31.584">  2  5  1 -1</clus>
<clus scale="   59.175">  2  6  1 -1</clus>
<clus scale="  114.087">  1  3  2 -1</clus>
<clus scale="  114.087">  1  3  2 -1</clus>
</clustering>
</event>
<event>
 6    0  0.1704145E+002  0.1281099E+03  0.7546771E-02  0.1230288E+00
         21   -1    0    0  503  501  0.00000000000E+00  0.00000000000E+00  0.26872907535E+03  0.26872907535E+03  0.00000000000E+00 0.  1.
         21   -1    0    0  504  502 -0.00000000000E+00 -0.00000000000E+00 -0.33379383579E+03  0.33379383579E+03  0.00000000000E+00 0.  1.
         21    1    1    2  503  505 -0.46800492786E+02  0.40215492597E+02 -0.52222749563E+02  0.80838032767E+02  0.00000000000E+00 0.  1.
         21    1    1    2  504  506  0.42384046219E+02  0.54814727816E+02 -0.14002722623E+03  0.15623279376E+03  0.00000000000E+00 0.  1.
         21    1    1    2  505  502 -0.40221585399E+02  0.20422632169E+02 -0.98338867871E+02  0.10819146348E+03  0.00000000000E+00 0.  1.
         21    1    1    2  506  501  0.44638031965E+02 -0.11545285258E+03  0.22552408322E+03  0.25726062112E+03  0.00000000000E+00 0.  1.
<scales pt_clust_3="36.41107" pt_clust_4="69.28969" pt_clust_5="36.41107" pt_clust_6="120.82474"></scales>
<clustering>
<clus scale="   36.411">  3  5 -1 -1</clus>
<clus scale="   69.290">  2  4  1 -1</clus>
<clus scale="  120.825">  1  6  2 -1</clus>
<clus scale="  120.825">  1  3  2 -1</clus>
</clustering>
</event>
<event>
 6    0  0.1704145E+002  0.1714822E+03  0.7546771E-02  0.1176311E+00
         21   -1    0    0  506  501  0.00000000000E+00  0.00000000000E+00  0.48108221948E+03  0.48108221948E+03  0.00000000000E+00 0.  1.
         21   -1    0    0  503  502 -0.00000000000E+00 -0.00000000000E+00 -0.18366906930E+03  0.18366906930E+03  0.00000000000E+00 0.  1.
         21    1    1    2  503  504 -0.14228851411E+03  0.91484749973E+02  0.14154255708E+03  0.22056694265E+03  0.00000000000E+00 0.  1.
         21    1    1    2  504  501 -0.23328939114E+02 -0.57275144709E+02  0.31736945127E+02  0.69511979454E+02  0.00000000000E+00 0.  1.
         21    1    1    2  505  502  0.14936309376E+03 -0.85932166174E+02 -0.60199658597E+02  0.18253128459E+03  0.00000000000E+00 0.  1.
         21    1    1    2  506  505  0.16254359469E+02  0.51722560909E+02  0.18433330657E+03  0.19214108207E+03  0.00000000000E+00 0.  1.
<scales pt_clust_3="14000.00000" pt_clust_4="52.50893" pt_clust_5="171.48218" pt_clust_6="54.21649"></scales>
<clustering>
<clus scale="   54.216">  1  6  2 -1</clus>
<clus scale="   52.509">  1  4  2 -1</clus>
<clus scale="  171.482">  2  5  1 -1</clus>
<clus scale="   54.216">  1  3  2 -1</clus>
</clustering>
</event>
<event>
 6    0  0.1704145E+002  0.1299979E+03  0.7546771E-02  0.1227459E+00
         21   -1    0    0  504  501  0.00000000000E+00  0.00000000000E+00  0.25473360572E+04  0.25473360572E+04  0.00000000000E+00 0. -1.
         21   -1    0    0  506  502 -0.00000000000E+00 -0.00000000000E+00 -0.19667898530E+03  0.19667898530E+03  0.00000000000E+00 0.  1.
         21    1    1    2  503  505 -0.61387715691E+02 -0.22299418019E+02 -0.14064952278E+02  0.66809719086E+02  0.00000000000E+00 0.  1.
         21    1    1    2  504  503  0.72043913910E+02  0.10757783173E+03 -0.72972183204E+02  0.14862117929E+03  0.00000000000E+00 0.  1.
         21    1    1    2  505  502 -0.11430493475E+02 -0.49659787719E+02 -0.30990780478E+02  0.59642092284E+02  0.00000000000E+00 0.  1.
         21    1    1    2  506  501  0.77429525581E+00 -0.35618625995E+02  0.24686849879E+04  0.24689420518E+04  0.00000000000E+00 0. -1.
<scales pt_clust_3="53.33100" pt_clust_4="115.84485" pt_clust_5="53.33100" pt_clust_6="35.62704"></scales>
<clustering>
<clus scale="   35.627">  1  6  2 -1</clus>
<clus scale="   53.331">  3  5 -1 -1</clus>
<clus scale="  115.845">  1  4  2 -1</clus>
<clus scale="   35.627">  1  3  2 -1</clus>
</clustering>
</event>
<event>
 6    0  0.1704145E+002  0.1203886E+03  0.7546771E-02  0.1242457E+00
         21   -1    0    0  506  501  0.00000000000E+00  0.00000000000E+00  0.19879266058E+02  0.19879266058E+02  0.00000000000E+00 0. -1.
         21   -1    0    0  504  502 -0.00000000000E+00 -0.00000000000E+00 -0.28216514157E+04  0.28216514157E+04  0.00000000000E+00 0. -1.
         21    1    1    2  503  502 -0.45060781742E+02  0.92904611712E+01 -0.11461759861E+04  0.11470990270E+04  0.00000000000E+00 0. -1.
         21    1    1    2  504  501  0.20732596465E+02  0.23473188674E+02 -0.23502123278E+01  0.31406283459E+02  0.00000000000E+00 0. -1.
         21    1    1    2  505  503 -0.73352454139E+02 -0.51127544188E+01 -0.89466607124E+03  0.89768262867E+03  0.00000000000E+00 0. -1.
         21    1    1    2  506  505  0.97680639416E+02 -0.27650895427E+02 -0.75857988001E+03  0.76534274262E+03  0.00000000000E+00 0.  1.
<scales pt_clust_3="36.90838" pt_clust_4="31.31822" pt_clust_5="36.90838" pt_clust_6="111.52064"></scales>
<clustering>
<clus scale="   31.318">  1  4  2 -1</clus>
<clus scale="   36.908">  3  5 -1 -1</clus>
<clus scale="  111.521">  1  6  2 -1</clus>
<clus scale="   31.318">  1  3  2 -1</clus>
</clustering>
</event>
<event>
 6    0  0.1704145E+002  0.1767014E+03  0.7546771E-02  0.1171034E+00
         21   -1    0    0  503  501  0.00000000000E+00  0.00000000000E+00  0.10218655380E+04  0.10218655380E+04  0.00000000000E+00 0.  1.
         21   -1    0    0  506  502 -0.00000000000E+00 -0.00000000000E+00 -0.75346010598E+02  0.75346010598E+02  0.00000000000E+00 0. -1.
         21    1    1    2  503  504 -0.52496228533E+02  0.25431403371E+02  0.31689009761E+02  0.66383760267E+02  0.00000000000E+00 0. -1.
         21    1    1    2  504  502 -0.29526009878E+02  0.96361327770E+02  0.14350529068E+02  0.10179994319E+03  0.00000000000E+00 0. -1.
         21    1    1    2  505  501  0.69385385817E+02 -0.15019776343E+03  0.86963403372E+03  0.88523276741E+03  0.00000000000E+00 0.  1.
         21    1    1    2  506  505  0.12636852593E+02  0.28405032289E+02  0.30845954878E+02  0.43795077750E+02  0.00000000000E+00 0. -1.
<scales pt_clust_3="48.35721" pt_clust_4="48.35721" pt_clust_5="163.15144" pt_clust_6="31.08916"></scales>
<clustering>
<clus scale="   31.089">  2  6  1 -1</clus>
<clus scale="   48.357">  3  4 -1 -1</clus>
<clus scale="  163.151">  1  5  2 -1</clus>
<clus scale="  163.151">  1  3  2 -1</clus>
</clustering>
</event>
<event>
 6    0  0.1704145E+002  0.1295856E+03  0.7546771E-02  0.1228072E+00
         21   -1    0    0  504  501  0.00000000000E+00  0.00000000000E+00  0.41127132847E+03  0.41127132847E+03  0.00000000000E+00 0.  1.
         21   -1    0    0  506  502 -0.00000000000E+00 -0.00000000000E+00 -0.70644453630E+03  0.70644453630E+03  0.00000000000E+00 0.  1.
         21    1    1    2  503  502 -0.68169355941E+02  0.43699495376E+01 -0.46544768575E+02  0.82659379565E+02  0.00000000000E+00 0.  1.
         21    1    1    2  504  503  0.42009010444E+01  0.13027790787E+03  0.36628051635E+03  0.38878194082E+03  0.00000000000E+00 0.  1.
         21    1    1    2  505  501 -0.22083101408E+02 -0.10587253157E+03 -0.33209773454E+03  0.34926431480E+03  0.00000000000E+00 0.  1.
         21    1    1    2  506  505  0.86051556305E+02 -0.28775325835E+02 -0.28281122107E+03  0.29701022959E+03  0.00000000000E+00 0.  1.
<scales pt_clust_3="68.30928" pt_clust_4="129.58562" pt_clust_5="14000.00000" pt_clust_6="61.41693"></scales>
<clustering>
<clus scale="   68.309">  2  3  1 -1</clus>
<clus scale="   61.417">  2  6  1 -1</clus>
<clus scale="  129.586">  1  4  2 -1</clus>
<clus scale="  129.586">  1  3  2 -1</clus>
</clustering>
</event>
<event>
 6    0  0.1704145E+002  0.9269399E+02  0.7546771E-02  0.1296456E+00
         21   -1    0    0  503  501  0.00000000000E+00  0.00000000000E+00  0.11104959371E+03  0.11104959371E+03  0.00000000000E+00 0. -1.
         21   -1    0    0  504  502 -0.00000000000E+00 -0.00000000000E+00 -0.13935667232E+04  0.13935667232E+04  0.00000000000E+00 0. -1.
         21    1    1    2  503  506  0.76263805254E+02 -0.53217649797E+02  0.85777327617E+02  0.12651496423E+03  0.00000000000E+00 0. -1.
         21    1    1    2  504  501 -0.13337253242E+02 -0.31101124137E+02 -0.40993272413E+03  0.41132712111E+03  0.00000000000E+00 0.  1.
         21    1    1    2  505  502  0.92937619432E+01  0.42793498066E+02 -0.30740569456E+03  0.31050912794E+03  0.00000000000E+00 0. -1.
         21    1    1    2  506  505 -0.72220313956E+02  0.41525275868E+02 -0.65095603846E+03  0.65626510367E+03  0.00000000000E+00 0. -1.
<scales pt_clust_3="92.69399" pt_clust_4="33.84025" pt_clust_5="33.40957" pt_clust_6="14000.00000"></scales>
<clustering>
<clus scale="   33.840">  2  4  1 -1</clus>
<clus scale="   33.410">  2  5  1 -1</clus>
<clus scale="   92.694">  1  3  2 -1</clus>
<clus scale="   92.694">  1  3  2 -1</clus>
</clustering>
</event>
<event>
 6    0  0.1704145E+002  0.1163627E+03  0.7546771E-02  0.1249221E+00
         21   -1    0    0  506  501  0.00000000000E+00  0.00000000000E+00  0.24801838665E+04  0.24801838665E+04  0.00000000000E+00 0.  1.
         21   -1    0    0  503  502 -0.00000000000E+00 -0.00000000000E+00 -0.19645186136E+03  0.19645186136E+03  0.00000000000E+00 0.  1.
         21    1    1    2  503  501 -0.44757533356E+02  0.78380437155E+02 -0.15363966813E+03  0.17819056468E+03  0.00000000000E+00 0.  1.
         21    1    1    2  504  502 -0.48938509650E+02 -0.35204942502E+01  0.11833548631E+02  0.50471818669E+02  0.00000000000E+00 0. -1.
         21    1    1    2  505  504  0.99279260580E+02  0.22437057722E+02  0.21990895225E+04  0.22014437356E+04  0.00000000000E+00 0.  1.
         21    1    1    2  506  505 -0.55832175738E+01 -0.97297000626E+02  0.22644860210E+03  0.24652960886E+03  0.00000000000E+00 0.  1.
<scales pt_clust_3="116.36268" pt_clust_4="49.06497" pt_clust_5="14000.00000" pt_clust_6="97.85408"></scales>
<clustering>
<clus scale="   49.065">  2  4  1 -1</clus>
<clus scale="   97.854">  1  6  2 -1</clus>
<clus scale="  116.363">  2  3  1 -1</clus>
<clus scale="   97.854">  1  3  2 -1</clus>
</clustering>
</event>
<event>
 6    0  0.1704145E+002  0.1208534E+03  0.7546771E-02  0.1241696E+00
         21   -1    0    0  504  501  0.00000000000E+00  0.00000000000E+00  0.54234517653E+03  0.54234517653E+03  0.00000000000E+00 0. -1.
         21   -1    0    0  505  502 -0.00000000000E+00 -0.00000000000E+00 -0.83309125917E+02  0.83309125917E+02  0.00000000000E+00 0. -1.
         21    1    1    2  503  506  0.37860841873E+02 -0.21537526547E+02  0.27992408039E+02  0.51777246981E+02  0.00000000000E+00 0. -1.
         21    1    1    2  504  502 -0.78889745628E+02 -0.15933995104E+02  0.88770614713E+02  0.11982364625E+03  0.00000000000E+00 0. -1.
         21    1    1    2  505  503  0.87052865799E+02 -0.48238760524E+01 -0.17470743722E+02  0.88919616003E+02  0.00000000000E+00 0. -1.
         21    1    1    2  506  501 -0.46023962044E+02  0.42295397704E+02  0.35974377159E+03  0.36513379321E+03  0.00000000000E+00 0. -1.
<scales pt_clust_3="41.13281" pt_clust_4="105.91978" pt_clust_5="41.13281" pt_clust_6="62.50685"></scales>
<clustering>
<clus scale="   41.133">  3  5 -1 -1</clus>
<clus scale="   62.507">  1  6  2 -1</clus>
<clus scale="  105.920">  1  4  2 -1</clus>
<clus scale="   62.507">  1  3  2 -1</clus>
</clustering>
</event>
<event>
 6    0  0.1704145E+002  0.1482611E+03  0.7546771E-02  0.1202626E+00
         21   -1    0    0  505  501  0.00000000000E+00  0.00000000000E+00  0.71036342136E+03  0.71036342136E+03  0.00000000000E+00 0. -1.
         21   -1    0    0  506  502 -0.00000000000E+00 -0.00000000000E+00 -0.61361943433E+02  0.61361943433E+02  0.00000000000E+00 0. -1.
         21    1    1    2  503  502  0.53153512714E+02 -0.15678545855E+02  0.33650538703E+02  0.64834184417E+02  0.00000000000E+00 0. -1.
         21    1    1    2  504  501 -0.94029019601E+02  0.10186290848E+03  0.51503850040E+03  0.53336869569E+03  0.00000000000E+00 0. -1.
         21    1    1    2  505  503  0.71743942332E+02 -0.78181491094E+02  0.92312336660E+02  0.14064532097E+03  0.00000000000E+00 0. -1.
         21    1    1    2  506  504 -0.30868435445E+02 -0.80028715341E+01  0.80001021728E+01  0.32877163722E+02  0.00000000000E+00 0. -1.
<scales pt_clust_3="31.88059" pt_clust_4="141.54597" pt_clust_5="31.88059" pt_clust_6="31.88897"></scales>
<clustering>
<clus scale="   31.881">  3  5 -1 -1</clus>
<clus scale="   31.889">  2  6  1 -1</clus>
<clus scale="  141.546">  1  4  2 -1</clus>
<clus scale="  141.546">  1  3  2 -1</clus>
</clustering>
</event>
<event>
 6    0  0.1704145E+002  0.8994724E+02  0.7546771E-02  0.1302980E+00
         21   -1    0    0  504  501  0.00000000000E+00  0.00000000000E+00  0.38443988706E+03  0.38443988706E+03  0.00000000000E+00 0.  1.
         21   -1    0    0  505  502 -0.00000000000E+00 -0.00000000000E+00 -0.47258341347E+03  0.47258341347E+03  0.00000000000E+00 0. -1.
         21    1    1    2  503  506 -0.21746745342E+02 -0.33613347292E+02 -0.58133035781E+02  0.70584898514E+02  0.00000000000E+00 0. -1.
         21    1    1    2  504  502 -0.72821594776E+02  0.82845204583E+02 -0.94388327244E+02  0.14517392641E+03  0.00000000000E+00 0. -1.
         21    1    1    2  505  503  0.64125843771E+02 -0.55925270996E+02 -0.28145227046E+03  0.29403254976E+03  0.00000000000E+00 0. -1.
         21    1    1    2  506  501  0.30442496347E+02  0.66934137058E+01  0.34583010707E+03  0.34723192585E+03  0.00000000000E+00 0.  1.
<scales pt_clust_3="36.57359" pt_clust_4="14000.00000" pt_clust_5="89.94724" pt_clust_6="31.16965"></scales>
<clustering>
<clus scale="   31.170">  1  6  2 -1</clus>
<clus scale="   36.574">  1  3  2 -1</clus>
<clus scale="   89.947">  2  5  1 -1</clus>
<clus scale="   31.170">  1  3  2 -1</clus>
</clustering>
</event>
<event>
 6    0  0.1704145E+002  0.1463769E+03  0.7546771E-02  0.1204997E+00
         21   -1    0    0  504  501  0.00000000000E+00  0.00000000000E+00  0.24532057901E+04  0.24532057901E+04  0.00000000000E+00 0.  1.
         21   -1    0    0  506  502 -0.00000000000E+00 -0.00000000000E+00 -0.11736895008E+03  0.11736895008E+03  0.00000000000E+00 0. -1.
         21    1    1    2  503  505 -0.11048002111E+03  0.24961719418E+02  0.16204329159E+03  0.19770420039E+03  0.00000000000E+00 0. -1.
         21    1    1    2  504  503  0.14198698002E+03  0.60297411340E+02  0.22189562046E+04  0.22243117404E+04  0.00000000000E+00 0.  1.
         21    1    1    2  505  502 -0.46130444836E+01 -0.53699626665E+02  0.30755689517E+02  0.62055157086E+02  0.00000000000E+00 0. -1.
         21    1    1    2  506  501 -0.26893914431E+02 -0.31559504093E+02 -0.75918345680E+02  0.86503642368E+02  0.00000000000E+00 0. -1.
<scales pt_clust_3="14000.00000" pt_clust_4="146.37690" pt_clust_5="69.29221" pt_clust_6="41.46426"></scales>
<clustering>
<clus scale="   41.464">  2  6  1 -1</clus>
<clus scale="   69.292">  2  5  1 -1</clus>
<clus scale="  146.377">  1  4  2 -1</clus>
<clus scale="  146.377">  1  3  2 -1</clus>
</clustering>
</event>
<event>
 6    0  0.1704145E+002  0.1152627E+03  0.7546771E-02  0.1251123E+00
         21   -1    0    0  505  501  0.00000000000E+00  0.00000000000E+00  0.34645861764E+03  0.34645861764E+03  0.00000000000E+00 0.  1.
         21   -1    0    0  504  502 -0.00000000000E+00 -0.00000000000E+00 -0.65794894382E+02  0.65794894382E+02  0.00000000000E+00 0.  1.
         21    1    1    2  503  502 -0.65587943707E+02 -0.11578230424E+02  0.14338950926E+02  0.68128109420E+02  0.00000000000E+00 0.  1.
         21    1    1    2  504  501  0.92592063843E+02  0.23503164202E+02  0.17876306538E+03  0.20268675970E+03  0.00000000000E+00 0.  1.
         21    1    1    2  505  506  0.21926865204E+02 -0.37858120594E+02  0.71421770546E+02  0.83756158105E+02  0.00000000000E+00 0. -1.
         21    1    1    2  506  503 -0.48930985340E+02  0.25933186816E+02  0.16139936404E+02  0.57682484793E+02  0.00000000000E+00 0.  1.
<scales pt_clust_3="36.23059" pt_clust_4="108.19800" pt_clust_5="43.74957" pt_clust_6="36.23059"></scales>
<clustering>
<clus scale="   36.231">  3  6 -1 -1</clus>
<clus scale="   43.750">  1  5  2 -1</clus>
<clus scale="  108.198">  1  4  2 -1</clus>
<clus scale="   43.750">  1  3  2 -1</clus>
</clustering>
</event>
<event>
 6    0  0.1704145E+002  0.1561007E+03  0.7546771E-02  0.1193171E+00
         21   -1    0    0  503  501  0.00000000000E+00  0.00000000000E+00  0.33472895808E+03  0.33472895808E+03  0.00000000000E+00 0. -1.
         21   -1    0    0  506  502 -0.00000000000E+00 -0.00000000000E+00 -0.24244453990E+03  0.24244453990E+03  0.00000000000E+00 0.  1.
         21    1    1    2  503  502  0.11055675803E+02 -0.35738157315E+02  0.23788729981E+03  0.24081073744E+03  0.00000000000E+00 0.  1.
         21    1    1    2  504  505 -0.33875640311E+02 -0.44456511897E+02 -0.39422305595E+02  0.68396334953E+02  0.00000000000E+00 0.  1.
         21    1    1    2  505  501  0.18093563362E+02  0.16012222808E+03 -0.95167753406E+02  0.18714541472E+03  0.00000000000E+00 0. -1.
         21    1    1    2  506  504  0.47264011458E+01 -0.79927558871E+02 -0.11012822635E+02  0.80821010865E+02  0.00000000000E+00 0.  1.
<scales pt_clust_3="37.40914" pt_clust_4="46.49236" pt_clust_5="144.79781" pt_clust_6="46.49236"></scales>
<clustering>
<clus scale="   37.409">  1  3  2 -1</clus>
<clus scale="   46.492">  4  6 -1 -1</clus>
<clus scale="  144.798">  1  5  2 -1</clus>
<clus scale="   37.409">  1  3  2 -1</clus>
</clustering>
</event>
<event>
 6    0  0.1704145E+002  0.1358567E+03  0.7546771E-02  0.1219015E+00
         21   -1    0    0  505  501  0.00000000000E+00  0.00000000000E+00  0.37604176135E+03  0.37604176135E+03  0.00000000000E+00 0.  1.
         21   -1    0    0  503  502 -0.00000000000E+00 -0.00000000000E+00 -0.88299704025E+02  0.88299704025E+02  0.00000000000E+00 0.  1.
         21    1    1    2  503  504  0.17800111787E+02 -0.53972465375E+02  0.32285969383E+02  0.65362487845E+02  0.00000000000E+00 0. -1.
         21    1    1    2  504  506  0.56732311526E+02  0.55844049671E+02  0.10028060937E+03  0.12803637635E+03  0.00000000000E+00 0.  1.
         21    1    1    2  505  502 -0.97999475669E+02 -0.54221540555E+02  0.71944508154E+01  0.11223026692E+03  0.00000000000E+00 0.  1.
         21    1    1    2  506  501  0.23467052355E+02  0.52349956260E+02  0.14798102776E+03  0.15871233425E+03  0.00000000000E+00 0.  1.
<scales pt_clust_3="56.83195" pt_clust_4="42.04595" pt_clust_5="126.50664" pt_clust_6="42.04595"></scales>
<clustering>
<clus scale="   42.046">  4  6 -1 -1</clus>
<clus scale="   56.832">  2  3  1 -1</clus>
<clus scale="  126.507">  2  5  1 -1</clus>
<clus scale="  135.857">  1  3  2 -1</clus>
</clustering>
</event>
<event>
 6    0  0.1704145E+002  0.9882591E+02  0.7546771E-02  0.1282784E+00
         21   -1    0    0  506  501  0.00000000000E+00  0.00000000000E+00  0.11460060896E+03  0.11460060896E+03  0.00000000000E+00 0. -1.
         21   -1    0    0  505  502 -0.00000000000E+00 -0.00000000000E+00 -0.51582723023E+03  0.51582723023E+03  0.00000000000E+00 0.  1.
         21    1    1    2  503  501 -0.92350290552E+02  0.39115547574E+02  0.75665260381E+02  0.12563372897E+03  0.00000000000E+00 0. -1.
         21    1    1    2  504  502  0.47331092240E+01  0.33298072518E+02 -0.11743548316E+03  0.12215668897E+03  0.00000000000E+00 0.  1.
         21    1    1    2  505  503  0.18173990026E+02 -0.31349900506E+02 -0.43861734229E+02  0.56894304677E+02  0.00000000000E+00 0. -1.
         21    1    1    2  506  504  0.69443191302E+02 -0.41063719587E+02 -0.31559466426E+03  0.32574311657E+03  0.00000000000E+00 0.  1.
<scales pt_clust_3="98.82591" pt_clust_4="33.63278" pt_clust_5="32.98057" pt_clust_6="14000.00000"></scales>
<clustering>
<clus scale="   33.633">  2  4  1 -1</clus>
<clus scale="   32.981">  2  5  1 -1</clus>
<clus scale="   98.826">  1  3  2 -1</clus>
<clus scale="   98.826">  1  3  2 -1</clus>
</clustering>
</event>
<event>
 6    0  0.1704145E+002  0.1197854E+03  0.7546771E-02  0.1243452E+00
         21   -1    0    0  506  501  0.00000000000E+00  0.00000000000E+00  0.33957377411E+02  0.33957377411E+02  0.00000000000E+00 0.  1.
         21   -1    0    0  504  502 -0.00000000000E+00 -0.00000000000E+00 -0.38474843564E+04  0.38474843564E+04  0.00000000000E+00 0.  1.
         21    1    1    2  503  502 -0.88322797200E+02  0.51929835441E+02 -0.56748990050E+03  0.57666490399E+03  0.00000000000E+00 0.  1.
         21    1    1    2  504  501 -0.39486250875E+02 -0.87412880440E-01 -0.61380601726E+03  0.61507479096E+03  0.00000000000E+00 0. -1.
         21    1    1    2  505  503  0.13864984529E+03  0.69382248953E+02 -0.25180484485E+04  0.25228170098E+04  0.00000000000E+00 0.  1.
         21    1    1    2  506  505 -0.10840797214E+02 -0.12122467151E+03 -0.11418261271E+03  0.16688502903E+03  0.00000000000E+00 0.  1.
<scales pt_clust_3="108.53135" pt_clust_4="39.48635" pt_clust_5="14000.00000" pt_clust_6="119.78538"></scales>
<clustering>
<clus scale="   39.486">  2  4  1 -1</clus>
<clus scale="  108.531">  2  3  1 -1</clus>
<clus scale="  119.785">  1  6  2 -1</clus>
<clus scale="  119.785">  1  3  2 -1</clus>
</clustering>
</event>
<event>
 6    0  0.1704145E+002  0.6541740E+02  0.7546771E-02  0.1376408E+00
         21   -1    0    0  505  501  0.00000000000E+00  0.00000000000E+00  0.23405305607E+02  0.23405305607E+02  0.00000000000E+00 0. -1.
         21   -1    0    0  506  502 -0.00000000000E+00 -0.00000000000E+00 -0.77898267572E+03  0.77898267572E+03  0.00000000000E+00 0. -1.
         21    1    1    2  503  501 -0.59596013076E+01  0.30164533254E+02 -0.59129319513E+02  0.66646022689E+02  0.00000000000E+00 0. -1.
         21    1    1    2  504  502  0.39759374730E+02  0.38372648407E+02 -0.31543465445E+03  0.32023786355E+03  0.00000000000E+00 0. -1.
         21    1    1    2  505  504 -0.83938534511E+02 -0.78019006830E+02 -0.27090716856E+03  0.29414849477E+03  0.00000000000E+00 0. -1.
         21    1    1    2  506  503  0.50138761088E+02  0.94818251686E+01 -0.11010622760E+03  0.12135560031E+03  0.00000000000E+00 0. -1.
<scales pt_clust_3="30.74762" pt_clust_4="65.41740" pt_clust_5="14000.00000" pt_clust_6="51.71038"></scales>
<clustering>
<clus scale="   30.748">  1  3  2 -1</clus>
<clus scale="   51.710">  1  6  2 -1</clus>
<clus scale="   65.417">  2  4  1 -1</clus>
<clus scale="   30.748">  1  3  2 -1</clus>
</clustering>
</event>
<event>
 6    0  0.1704145E+002  0.2624665E+03  0.7546771E-02  0.1105670E+00
         21   -1    0    0  505  501  0.00000000000E+00  0.00000000000E+00  0.70045574541E+03  0.70045574541E+03  0.00000000000E+00 0.  1.
         21   -1    0    0  506  502 -0.00000000000E+00 -0.00000000000E+00 -0.20975168192E+03  0.20975168192E+03  0.00000000000E+00 0.  1.
         21    1    1    2  503  501  0.75935696734E+02 -0.83821243399E+02  0.28307568480E+03  0.30483450299E+03  0.00000000000E+00 0.  1.
         21    1    1    2  504  503  0.67621273449E+02 -0.36424098848E+02  0.40528287724E+02  0.86844076975E+02  0.00000000000E+00 0. -1.
         21    1    1    2  505  502 -0.29015958629E+03  0.12968820722E+03  0.18934136613E+03  0.36994833361E+03  0.00000000000E+00 0.  1.
         21    1    1    2  506  504  0.14660261611E+03 -0.94428649713E+01 -0.22241275170E+02  0.14858051376E+03  0.00000000000E+00 0.  1.
<scales pt_clust_3="113.10274" pt_clust_4="60.90414" pt_clust_5="248.58394" pt_clust_6="60.90414"></scales>
<clustering>
<clus scale="   60.904">  4  6 -1 -1</clus>
<clus scale="  113.103">  1  3  2 -1</clus>
<clus scale="  248.584">  1  5  2 -1</clus>
<clus scale="  113.103">  1  3  2 -1</clus>
</clustering>
</event>
<event>
 6    0  0.1704145E+002  0.1481319E+03  0.7546771E-02  0.1202788E+00
         21   -1    0    0  503  501  0.00000000000E+00  0.00000000000E+00  0.25305797687E+03  0.25305797687E+03  0.00000000000E+00 0.  1.
         21   -1    0    0  505  502 -0.00000000000E+00 -0.00000000000E+00 -0.12839470959E+04  0.12839470959E+04  0.00000000000E+00 0. -1.
         21    1    1    2  503  502 -0.22258056591E+02 -0.20243825598E+02  0.19391653563E+03  0.19623673547E+03  0.00000000000E+00 0.  1.
         21    1    1    2  504  506 -0.17159456108E+03  0.48921339753E+02 -0.18276032458E+03  0.25541990352E+03  0.00000000000E+00 0.  1.
         21    1    1    2  505  504  0.14456069779E+03 -0.22778167735E+01 -0.10112102744E+04  0.10214936137E+04  0.00000000000E+00 0. -1.
         21    1    1    2  506  501  0.49291919886E+02 -0.26399697381E+02 -0.30835055693E+02  0.63854820080E+02  0.00000000000E+00 0.  1.
<scales pt_clust_3="30.08710" pt_clust_4="148.13186" pt_clust_5="14000.00000" pt_clust_6="53.66167"></scales>
<clustering>
<clus scale="   30.087">  1  3  2 -1</clus>
<clus scale="   53.662">  1  6  2 -1</clus>
<clus scale="  148.132">  1  4  2 -1</clus>
<clus scale="   30.087">  1  3  2 -1</clus>
</clustering>
</event>
<event>
 6    0  0.1704145E+002  0.1356788E+03  0.7546771E-02  0.1219265E+00
         21   -1    0    0  503  501  0.00000000000E+00  0.00000000000E+00  0.16198672925E+04  0.16198672925E+04  0.00000000000E+00 0.  1.
         21   -1    0    0  505  502 -0.00000000000E+00 -0.00000000000E+00 -0.10397283273E+03  0.10397283273E+03  0.00000000000E+00 0. -1.
         21    1    1    2  503  504  0.34782319943E+02 -0.37533096180E+02 -0.26185337686E+02  0.57482301617E+02  0.00000000000E+00 0. -1.
         21    1    1    2  504  502  0.54582035551E+02  0.76796627822E+01 -0.35098282891E+02  0.65345736565E+02  0.00000000000E+00 0. -1.
         21    1    1    2  505  506  0.26588639087E+02 -0.22520788280E+02  0.23261928312E+02  0.41895810555E+02  0.00000000000E+00 0.  1.
         21    1    1    2  506  501 -0.11595299458E+03  0.52374221677E+02  0.15539161521E+04  0.15591162765E+04  0.00000000000E+00 0.  1.
<scales pt_clust_3="48.68801" pt_clust_4="48.68801" pt_clust_5="34.84454" pt_clust_6="126.31271"></scales>
<clustering>
<clus scale="   34.845">  2  5  1 -1</clus>
<clus scale="   48.688">  3  4 -1 -1</clus>
<clus scale="  126.313">  1  6  2 -1</clus>
<clus scale="  126.313">  1  3  2 -1</clus>
</clustering>
</event>
<event>
 6    0  0.1704145E+002  0.1204177E+03  0.7546771E-02  0.1242410E+00
         21   -1    0    0  505  501  0.00000000000E+00  0.00000000000E+00  0.73717191913E+03  0.73717191913E+03  0.00000000000E+00 0. -1.
         21   -1    0    0  504  502 -0.00000000000E+00 -0.00000000000E+00 -0.41604760707E+03  0.41604760707E+03  0.00000000000E+00 0.  1.
         21    1    1    2  503  501  0.66603430026E+02 -0.92891945284E+02  0.71049827901E+03  0.71963375050E+03  0.00000000000E+00 0. -1.
         21    1    1    2  504  506 -0.61948385450E+02  0.56855368138E+02 -0.13791502550E+03  0.16152612670E+03  0.00000000000E+00 0.  1.
         21    1    1    2  505  502  0.22768542133E+02 -0.26276375979E+02 -0.10363425476E+03  0.10931108455E+03  0.00000000000E+00 0. -1.
         21    1    1    2  506  503 -0.27423586709E+02  0.62312953124E+02 -0.14782468669E+03  0.16274856444E+03  0.00000000000E+00 0. -1.
<scales pt_clust_3="114.81277" pt_clust_4="32.67285" pt_clust_5="34.76858" pt_clust_6="32.67285"></scales>
<clustering>
<clus scale="   32.673">  4  6 -1 -1</clus>
<clus scale="   34.769">  2  5  1 -1</clus>
<clus scale="  114.813">  1  3  2 -1</clus>
<clus scale="  114.813">  1  3  2 -1</clus>
</clustering>
</event>
<event>
 6    0  0.1704145E+002  0.7057722E+02  0.7546771E-02  0.1358141E+00
         21   -1    0    0  504  501  0.00000000000E+00  0.00000000000E+00  0.65225190444E+03  0.65225190444E+03  0.00000000000E+00 0. -1.
         21   -1    0    0  506  502 -0.00000000000E+00 -0.00000000000E+00 -0.28023303762E+03  0.28023303762E+03  0.00000000000E+00 0. -1.
         21    1    1    2  503  501 -0.57275018742E+02  0.63572576809E+02 -0.10577352862E+03  0.13605123906E+03  0.00000000000E+00 0. -1.
         21    1    1    2  504  505  0.67557431168E+02 -0.20257219497E+02  0.59306439116E+03  0.59724344576E+03  0.00000000000E+00 0. -1.
         21    1    1    2  505  502  0.32782359806E+02 -0.51580760261E+02  0.13985975252E+02  0.62696614321E+02  0.00000000000E+00 0. -1.
         21    1    1    2  506  503 -0.43064772232E+02  0.82654029492E+01 -0.12925797097E+03  0.13649364290E+03  0.00000000000E+00 0. -1.
<scales pt_clust_3="70.57722" pt_clust_4="14000.00000" pt_clust_5="56.39310" pt_clust_6="43.85079"></scales>
<clustering>
<clus scale="   43.851">  2  6  1 -1</clus>
<clus scale="   56.393">  2  5  1 -1</clus>
<clus scale="   70.577">  2  3  1 -1</clus>
<clus scale="   70.577">  1  3  2 -1</clus>
</clustering>
</event>
<event>
 6    0  0.1704145E+002  0.6909186E+02  0.7546771E-02  0.1363209E+00
         21   -1    0    0  503  501  0.00000000000E+00  0.00000000000E+00  0.28321710568E+03  0.28321710568E+03  0.00000000000E+00 0.  1.
         21   -1    0    0  506  502 -0.00000000000E+00 -0.00000000000E+00 -0.13505093853E+04  0.13505093853E+04  0.00000000000E+00 0.  1.
         21    1    1    2  503  505  0.62896041565E+02 -0.28520565244E+02  0.26729603323E+03  0.27607336718E+03  0.00000000000E+00 0.  1.
         21    1    1    2  504  502  0.60514510049E+02  0.21981420146E+02 -0.15705834881E+03  0.16974249229E+03  0.00000000000E+00 0. -1.
         21    1    1    2  505  504 -0.92867343192E+02 -0.19474832353E+02 -0.10485577518E+04  0.10528423298E+04  0.00000000000E+00 0.  1.
         21    1    1    2  506  501 -0.30543208422E+02  0.26013977452E+02 -0.12897221232E+03  0.13506830181E+03  0.00000000000E+00 0.  1.
<scales pt_clust_3="14000.00000" pt_clust_4="61.90137" pt_clust_5="69.09186" pt_clust_6="40.12000"></scales>
<clustering>
<clus scale="   40.120">  2  6  1 -1</clus>
<clus scale="   61.901">  2  4  1 -1</clus>
<clus scale="   69.092">  2  5  1 -1</clus>
<clus scale="   69.092">  1  3  2 -1</clus>
</clustering>
</event>
<event>
 6    0  0.1704145E+002  0.1572509E+03  0.7546771E-02  0.1191836E+00
         21   -1    0    0  505  501  0.00000000000E+00  0.00000000000E+00  0.93828233923E+03  0.93828233923E+03  0.00000000000E+00 0.  1.
         21   -1    0    0  506  502 -0.00000000000E+00 -0.00000000000E+00 -0.16386283621E+03  0.16386283621E+03  0.00000000000E+00 0.  1.
         21    1    1    2  503  501  0.18406856717E+02  0.16193174560E+03  0.77001939578E+03  0.78707723413E+03  0.00000000000E+00 0.  1.
         21    1    1    2  504  503 -0.93979248897E+02 -0.11114966766E+03 -0.30009310703E+02  0.14861664299E+03  0.00000000000E+00 0.  1.
         21    1    1    2  505  502  0.46697367266E+02 -0.15061953850E+02  0.84984525227E+02  0.98131932068E+02  0.00000000000E+00 0. -1.
         21    1    1    2  506  504  0.28875024915E+02 -0.35720124085E+02 -0.50575107288E+02  0.68319366256E+02  0.00000000000E+00 0.  1.
<scales pt_clust_3="14000.00000" pt_clust_4="157.25090" pt_clust_5="51.51110" pt_clust_6="45.93141"></scales>
<clustering>
<clus scale="   45.931">  2  6  1 -1</clus>
<clus scale="   51.511">  1  5  2 -1</clus>
<clus scale="  157.251">  2  4  1 -1</clus>
<clus scale="   51.511">  1  3  2 -1</clus>
</clustering>
</event>
<event>
 6    0  0.1704145E+002  0.1313106E+03  0.7546771E-02  0.1225524E+00
         21   -1    0    0  504  501  0.00000000000E+00  0.00000000000E+00  0.12600650753E+03  0.12600650753E+03  0.00000000000E+00 0. -1.
         21   -1    0    0  505  502 -0.00000000000E+00 -0.00000000000E+00 -0.24698046646E+03  0.24698046646E+03  0.00000000000E+00 0. -1.
         21    1    1    2  503  506  0.15682079219E+02 -0.60908369576E+02 -0.12611264053E+02  0.64146715224E+02  0.00000000000E+00 0. -1.
         21    1    1    2  504  502  0.38747620993E+02  0.15538635165E+03 -0.32712805799E+02  0.16345159551E+03  0.00000000000E+00 0. -1.
         21    1    1    2  505  503 -0.28353332376E+02 -0.55647075863E+02 -0.76311217845E+02  0.98609890366E+02  0.00000000000E+00 0. -1.
         21    1    1    2  506  501 -0.26076367835E+02 -0.38830906212E+02  0.66132876561E+00  0.46778772883E+02  0.00000000000E+00 0.  1.
<scales pt_clust_3="39.57249" pt_clust_4="123.03161" pt_clust_5="62.45405" pt_clust_6="39.57249"></scales>
<clustering>
<clus scale="   39.572">  3  6 -1 -1</clus>
<clus scale="   62.454">  2  5  1 -1</clus>
<clus scale="  123.032">  2  4  1 -1</clus>
<clus scale="  131.311">  1  3  2 -1</clus>
</clustering>
</event>
<event>
 6    0  0.1704145E+002  0.1134986E+03  0.7546771E-02  0.1254225E+00
         21   -1    0    0  506  501  0.00000000000E+00  0.00000000000E+00  0.50864557436E+03  0.50864557436E+03  0.00000000000E+00 0.  1.
         21   -1    0    0  505  502 -0.00000000000E+00 -0.00000000000E+00 -0.87738127045E+03  0.87738127045E+03  0.00000000000E+00 0.  1.
         21    1    1    2  503  501 -0.33204806808E+02  0.59992013106E+02 -0.49696715142E+02  0.84683908315E+02  0.00000000000E+00 0.  1.
         21    1    1    2  504  502  0.40599042472E+02 -0.11365381037E+03 -0.67023599372E+03  0.68101524076E+03  0.00000000000E+00 0.  1.
         21    1    1    2  505  503  0.29700799618E+02 -0.53528080620E+02 -0.12051437710E+03  0.13517066250E+03  0.00000000000E+00 0.  1.
         21    1    1    2  506  504 -0.37095035282E+02  0.10718987789E+03  0.47171138987E+03  0.48515703324E+03  0.00000000000E+00 0.  1.
<scales pt_clust_3="63.08069" pt_clust_4="14000.00000" pt_clust_5="61.21595" pt_clust_6="113.49859"></scales>
<clustering>
<clus scale="   61.216">  2  5  1 -1</clus>
<clus scale="   63.081">  2  3  1 -1</clus>
<clus scale="  113.499">  1  6  2 -1</clus>
<clus scale="  113.499">  1  3  2 -1</clus>
</clustering>
</event>
<event>
 6    0  0.1704145E+002  0.1929412E+03  0.7546771E-02  0.1155835E+00
         21   -1    0    0  505  501  0.00000000000E+00  0.00000000000E+00  0.29550466264E+03  0.29550466264E+03  0.00000000000E+00 0.  1.
         21   -1    0    0  501  502 -0.00000000000E+00 -0.00000000000E+00 -0.16118090013E+03  0.16118090013E+03  0.00000000000E+00 0.  1.
         21    1    1    2  503  504 -0.50819411168E+02 -0.29429933042E+02 -0.26422961221E+02  0.64396478087E+02  0.00000000000E+00 0.  1.
         21    1    1    2  504  506 -0.37913247142E+02  0.96859648311E+01  0.14664487511E+02  0.41788508199E+02  0.00000000000E+00 0.  1.
         21    1    1    2  505  503  0.16994886928E+03 -0.16596766147E+00  0.19093111612E+03  0.25561169148E+03  0.00000000000E+00 0.  1.
         21    1    1    2  506  502 -0.81216210970E+02  0.19909935872E+02 -0.44848879905E+02  0.94888885015E+02  0.00000000000E+00 0.  1.
<scales pt_clust_3="45.14855" pt_clust_4="35.55777" pt_clust_5="169.94895" pt_clust_6="45.14855"></scales>
<clustering>
<clus scale="   35.558">  4  6 -1 -1</clus>
<clus scale="   45.149">  3  4 -1 -1</clus>
<clus scale="  169.949">  1  5  2 -1</clus>
<clus scale="  169.949">  1  3  2 -1</clus>
</clustering>
</event>
<event>
 6    0  0.1704145E+002  0.7309959E+02  0.7546771E-02  0.1349859E+00
         21   -1    0    0  506  501  0.00000000000E+00  0.00000000000E+00  0.50573631059E+03  0.50573631059E+03  0.00000000000E+00 0. -1.
         21   -1    0    0  503  502 -0.00000000000E+00 -0.00000000000E+00 -0.75760485304E+02  0.75760485304E+02  0.00000000000E+00 0. -1.
         21    1    1    2  503  504  0.58954140217E+02 -0.26157250868E+02 -0.31209469093E+01  0.64571919062E+02  0.00000000000E+00 0. -1.
         21    1    1    2  504  501  0.41749001239E+02 -0.46470569302E+02  0.51275960318E+02  0.80819038736E+02  0.00000000000E+00 0. -1.
         21    1    1    2  505  502 -0.97472946281E+02  0.29925758125E+02  0.75669662172E+02  0.12697410771E+03  0.00000000000E+00 0. -1.
         21    1    1    2  506  505 -0.32301951750E+01  0.42702062045E+02  0.30615114971E+03  0.30913173038E+03  0.00000000000E+00 0. -1.
<scales pt_clust_3="73.09959" pt_clust_4="51.89592" pt_clust_5="14000.00000" pt_clust_6="42.82406"></scales>
<clustering>
<clus scale="   42.824">  1  6  2 -1</clus>
<clus scale="   51.896">  1  4  2 -1</clus>
<clus scale="   73.100">  2  3  1 -1</clus>
<clus scale="   42.824">  1  3  2 -1</clus>
</clustering>
</event>
<event>
 6    0  0.1704145E+002  0.1662373E+03  0.7546771E-02  0.1181830E+00
         21   -1    0    0  502  501  0.00000000000E+00  0.00000000000E+00  0.23619831347E+03  0.23619831347E+03  0.00000000000E+00 0.  1.
         21   -1    0    0  505  502 -0.00000000000E+00 -0.00000000000E+00 -0.78149073156E+03  0.78149073156E+03  0.00000000000E+00 0.  1.
         21    1    1    2  503  504 -0.50742125358E+01  0.55163469877E+02 -0.17858775352E+03  0.18698219634E+03  0.00000000000E+00 0.  1.
         21    1    1    2  504  506  0.10646826178E+03  0.34457852272E+02 -0.18052762003E+03  0.21239834261E+03  0.00000000000E+00 0.  1.
         21    1    1    2  505  503  0.44233023880E+02  0.11228323429E+02 -0.36427224489E+03  0.36711974074E+03  0.00000000000E+00 0.  1.
         21    1    1    2  506  501 -0.14562707313E+03 -0.10084964558E+03  0.17809520035E+03  0.25118876533E+03  0.00000000000E+00 0.  1.
<scales pt_clust_3="61.79375" pt_clust_4="166.23728" pt_clust_5="45.63590" pt_clust_6="14000.00000"></scales>
<clustering>
<clus scale="   45.636">  2  5  1 -1</clus>
<clus scale="   61.794">  2  3  1 -1</clus>
<clus scale="  166.237">  2  4  1 -1</clus>
<clus scale="  166.237">  1  3  2 -1</clus>
</clustering>
</event>
<event>
 6    0  0.1704145E+002  0.1389808E+03  0.7546771E-02  0.1214707E+00
         21   -1    0    0  503  501  0.00000000000E+00  0.00000000000E+00  0.25837186751E+03  0.25837186751E+03  0.00000000000E+00 0.  1.
         21   -1    0    0  506  502 -0.00000000000E+00 -0.00000000000E+00 -0.69037262507E+03  0.69037262507E+03  0.00000000000E+00 0.  1.
         21    1    1    2  503  502  0.56359205739E+02  0.56219636504E+02  0.22130219229E+03  0.23518432753E+03  0.00000000000E+00 0.  1.
         21    1    1    2  504  505 -0.39674184953E+02  0.12111569789E+02 -0.12095534954E+03  0.12787074590E+03  0.00000000000E+00 0.  1.
         21    1    1    2  505  501 -0.63728395088E+02  0.59310250680E+02 -0.10070632801E+03  0.13311941510E+03  0.00000000000E+00 0.  1.
         21    1    1    2  506  504  0.47043374302E+02 -0.12764145697E+03 -0.43164127231E+03  0.45257000405E+03  0.00000000000E+00 0.  1.
<scales pt_clust_3="79.60532" pt_clust_4="38.97969" pt_clust_5="38.97969" pt_clust_6="126.99157"></scales>
<clustering>
<clus scale="   38.980">  4  5 -1 -1</clus>
<clus scale="   79.605">  1  3  2 -1</clus>
<clus scale="  126.992">  2  6  1 -1</clus>
<clus scale="   79.605">  1  3  2 -1</clus>
</clustering>
</event>
<event>
 6    0  0.1704145E+002  0.1641011E+03  0.7546771E-02  0.1184143E+00
         21   -1    0    0  502  501  0.00000000000E+00  0.00000000000E+00  0.34623217358E+03  0.34623217358E+03  0.00000000000E+00 0.  1.
         21   -1    0    0  505  502 -0.00000000000E+00 -0.00000000000E+00 -0.40886622619E+03  0.40886622619E+03  0.00000000000E+00 0. -1.
         21    1    1    2  503  504  0.57297462481E+02  0.42180245650E+00 -0.88342375588E+02  0.10529744749E+03  0.00000000000E+00 0. -1.
         21    1    1    2  504  506  0.64036737546E+02 -0.13982975177E+02 -0.50162878217E+02  0.82538122715E+02  0.00000000000E+00 0. -1.
         21    1    1    2  505  503  0.10607513726E+02 -0.90560932654E+02 -0.21376052643E+03  0.23239484617E+03  0.00000000000E+00 0.  1.
         21    1    1    2  506  501 -0.13194171375E+03  0.10412210537E+03  0.28963172762E+03  0.33486798339E+03  0.00000000000E+00 0.  1.
<scales pt_clust_3="32.28863" pt_clust_4="32.28863" pt_clust_5="91.18005" pt_clust_6="160.42625"></scales>
<clustering>
<clus scale="   32.289">  3  4 -1 -1</clus>
<clus scale="   91.180">  2  5  1 -1</clus>
<clus scale="  160.426">  1  6  2 -1</clus>
<clus scale="  160.426">  1  3  2 -1</clus>
</clustering>
</event>
<event>
 6    0  0.1704145E+002  0.8574162E+02  0.7546771E-02  0.1313504E+00
         21   -1    0    0  506  501  0.00000000000E+00  0.00000000000E+00  0.29118169863E+03  0.29118169863E+03  0.00000000000E+00 0. -1.
         21   -1    0    0  505  502 -0.00000000000E+00 -0.00000000000E+00 -0.10528063823E+04  0.10528063823E+04  0.00000000000E+00 0. -1.
         21    1    1    2  503  502  0.50333036770E+02 -0.91758058571E+02 -0.48961888059E+03  0.50067914289E+03  0.00000000000E+00 0. -1.
         21    1    1    2  504  501  0.46938267519E+02  0.71406697365E+02  0.26871514760E+03  0.28197508389E+03  0.00000000000E+00 0. -1.
         21    1    1    2  505  504  0.59769987979E+01  0.38848655666E+02 -0.23133620122E+03  0.23465161528E+03  0.00000000000E+00 0. -1.
         21    1    1    2  506  503 -0.10324830309E+03 -0.18497294459E+02 -0.30938474950E+03  0.32668223891E+03  0.00000000000E+00 0. -1.
<scales pt_clust_3="82.64626" pt_clust_4="85.74162" pt_clust_5="39.30576" pt_clust_6="14000.00000"></scales>
<clustering>
<clus scale="   39.306">  2  5  1 -1</clus>
<clus scale="   85.742">  1  4  2 -1</clus>
<clus scale="   82.646">  2  3  1 -1</clus>
<clus scale="   85.742">  1  3  2 -1</clus>
</clustering>
</event>
<event>
 6    0  0.2079573E+002  0.1349046E+03  0.7546771E-02  0.1220354E+00
         21   -1    0    0  506  501  0.00000000000E+00  0.00000000000E+00  0.28938385975E+03  0.28938385975E+03  0.00000000000E+00 0.  1.
         21   -1    0    0  504  502 -0.00000000000E+00 -0.00000000000E+00 -0.25750731095E+04  0.25750731095E+04  0.00000000000E+00 0. -1.
         21    1    1    2  503  502 -0.37099714494E+02  0.62926025735E+02 -0.72509010591E+02  0.10292536202E+03  0.00000000000E+00 0. -1.
         21    1    1    2  504  505  0.68425073538E+02 -0.11176990359E+03 -0.24133308692E+04  0.24168865067E+04  0.00000000000E+00 0. -1.
         21    1    1    2  505  501 -0.32695176931E+02 -0.53663381554E+01  0.26102544347E+03  0.26311984782E+03  0.00000000000E+00 0.  1.
         21    1    1    2  506  503  0.13698178878E+01  0.54210216007E+02 -0.60874813431E+02  0.81525252718E+02  0.00000000000E+00 0. -1.
<scales pt_clust_3="30.25741" pt_clust_4="130.25354" pt_clust_5="33.13265" pt_clust_6="30.25741"></scales>
<clustering>
<clus scale="   30.257">  3  6 -1 -1</clus>
<clus scale="   33.133">  1  5  2 -1</clus>
<clus scale="  130.254">  2  4  1 -1</clus>
<clus scale="   33.133">  1  3  2 -1</clus>
</clustering>
</event>
<event>
 6    0  0.1704145E+002  0.9743901E+02  0.7546771E-02  0.1285775E+00
         21   -1    0    0  505  501  0.00000000000E+00  0.00000000000E+00  0.50910312619E+03  0.50910312619E+03  0.00000000000E+00 0. -1.
         21   -1    0    0  504  502 -0.00000000000E+00 -0.00000000000E+00 -0.76735377135E+03  0.76735377135E+03  0.00000000000E+00 0. -1.
         21    1    1    2  503  502 -0.10606494008E+03  0.16770965086E+02 -0.40812627696E+03  0.42201669959E+03  0.00000000000E+00 0. -1.
         21    1    1    2  504  506 -0.11148420132E+02 -0.58146884442E+02 -0.18237327089E+03  0.19174294609E+03  0.00000000000E+00 0. -1.
         21    1    1    2  505  503  0.38084645252E+02  0.70927656111E+01  0.48539612889E+03  0.48693957476E+03  0.00000000000E+00 0. -1.
         21    1    1    2  506  501  0.79128714961E+02  0.34283153745E+02 -0.15314722620E+03  0.17575767709E+03  0.00000000000E+00 0. -1.
<scales pt_clust_3="14000.00000" pt_clust_4="56.79810" pt_clust_5="38.73948" pt_clust_6="97.43901"></scales>
<clustering>
<clus scale="   38.739">  1  5  2 -1</clus>
<clus scale="   56.798">  2  4  1 -1</clus>
<clus scale="   97.439">  1  6  2 -1</clus>
<clus scale="   38.739">  1  3  2 -1</clus>
</clustering>
</event>
<event>
 6    0  0.1704145E+002  0.2171910E+03  0.7546771E-02  0.1135995E+00
         21   -1    0    0  504  501  0.00000000000E+00  0.00000000000E+00  0.34585165590E+03  0.34585165590E+03  0.00000000000E+00 0.  1.
         21   -1    0    0  503  502 -0.00000000000E+00 -0.00000000000E+00 -0.23836113185E+03  0.23836113185E+03  0.00000000000E+00 0.  1.
         21    1    1    2  503  501  0.98693617775E+02  0.15969448715E+03  0.29302647915E+02  0.19000369625E+03  0.00000000000E+00 0.  1.
         21    1    1    2  504  505  0.27620073389E+02  0.13078772136E+02  0.15167751613E+03  0.15472553647E+03  0.00000000000E+00 0.  1.
         21    1    1    2  505  506 -0.11746877062E+03 -0.13556554543E+03 -0.30516214926E+02  0.18195650181E+03  0.00000000000E+00 0.  1.
         21    1    1    2  506  502 -0.88449205417E+01 -0.37207713852E+02 -0.42973425074E+02  0.57527053219E+02  0.00000000000E+00 0.  1.
<scales pt_clust_3="202.54881" pt_clust_4="30.56015" pt_clust_5="37.00501" pt_clust_6="37.00501"></scales>
<clustering>
<clus scale="   30.560">  1  4  2 -1</clus>
<clus scale="   37.005">  5  6 -1 -1</clus>
<clus scale="  202.549">  1  3  2 -1</clus>
<clus scale="   30.560">  1  3  2 -1</clus>
</clustering>
</event>
<event>
 6    0  0.1704145E+002  0.1122022E+03  0.7546771E-02  0.1256545E+00
         21   -1    0    0  506  501  0.00000000000E+00  0.00000000000E+00  0.24048951391E+04  0.24048951391E+04  0.00000000000E+00 0. -1.
         21   -1    0    0  504  502 -0.00000000000E+00 -0.00000000000E+00 -0.64164077628E+02  0.64164077628E+02  0.00000000000E+00 0. -1.
         21    1    1    2  503  501 -0.67290472808E+02  0.65448529841E+01  0.18494100458E+04  0.18506453902E+04  0.00000000000E+00 0. -1.
         21    1    1    2  504  505  0.61949628697E+02  0.17216169103E+02  0.24032402152E+02  0.68641891928E+02  0.00000000000E+00 0. -1.
         21    1    1    2  505  503 -0.13485155036E+03 -0.23772398763E+02  0.15120061585E+03  0.20398944534E+03  0.00000000000E+00 0. -1.
         21    1    1    2  506  502  0.14019239447E+03  0.11376675814E-01  0.31608799767E+03  0.34578248924E+03  0.00000000000E+00 0. -1.
<scales pt_clust_3="66.72365" pt_clust_4="64.29738" pt_clust_5="14000.00000" pt_clust_6="112.20217"></scales>
<clustering>
<clus scale="   64.297">  2  4  1 -1</clus>
<clus scale="   66.724">  1  3  2 -1</clus>
<clus scale="  112.202">  1  6  2 -1</clus>
<clus scale="   66.724">  1  3  2 -1</clus>
</clustering>
</event>
<event>
 6    0  0.1704145E+002  0.1337132E+03  0.7546771E-02  0.1222048E+00
         21   -1    0    0  504  501  0.00000000000E+00  0.00000000000E+00  0.12699340679E+04  0.12699340679E+04  0.00000000000E+00 0.  1.
         21   -1    0    0  505  502 -0.00000000000E+00 -0.00000000000E+00 -0.11410004763E+03  0.11410004763E+03  0.00000000000E+00 0.  1.
         21    1    1    2  503  506 -0.11902277089E+03  0.10918174284E+02 -0.11152325749E+02  0.12004166314E+03  0.00000000000E+00 0.  1.
         21    1    1    2  504  502  0.30208667669E+01  0.69788128300E+02  0.83730236099E+02  0.10904247303E+03  0.00000000000E+00 0.  1.
         21    1    1    2  505  503  0.26597629872E+02  0.22661365016E+02 -0.21990164552E+02  0.41286059587E+02  0.00000000000E+00 0.  1.
         21    1    1    2  506  501  0.89404274249E+02 -0.10336766760E+03  0.11052462745E+04  0.11136639198E+04  0.00000000000E+00 0.  1.
<scales pt_clust_3="14000.00000" pt_clust_4="73.60966" pt_clust_5="34.94240" pt_clust_6="133.71318"></scales>
<clustering>
<clus scale="   34.942">  2  5  1 -1</clus>
<clus scale="   73.610">  2  4  1 -1</clus>
<clus scale="  133.713">  1  6  2 -1</clus>
<clus scale="  133.713">  1  3  2 -1</clus>
</clustering>
</event>
<event>
 6    0  0.1704145E+002  0.1783590E+03  0.7546771E-02  0.1169401E+00
         21   -1    0    0  504  501  0.00000000000E+00  0.00000000000E+00  0.13802063934E+03  0.13802063934E+03  0.00000000000E+00 0. -1.
         21   -1    0    0  501  502 -0.00000000000E+00 -0.00000000000E+00 -0.28010179561E+03  0.28010179561E+03  0.00000000000E+00 0. -1.
         21    1    1    2  503  505  0.30604133698E+02 -0.56542298247E+02  0.77254807717E+00  0.64298066230E+02  0.00000000000E+00 0.  1.
         21    1    1    2  504  503 -0.15496748406E+03  0.46831882580E+02 -0.35192560897E+02  0.16567034341E+03  0.00000000000E+00 0. -1.
         21    1    1    2  505  506  0.10597952209E+03 -0.25197680925E+02 -0.54092415919E+02  0.12162471659E+03  0.00000000000E+00 0. -1.
         21    1    1    2  506  502  0.18383828272E+02  0.34908096591E+02 -0.53568727535E+02  0.66529308724E+02  0.00000000000E+00 0.  1.
<scales pt_clust_3="58.64275" pt_clust_4="159.44956" pt_clust_5="58.64275" pt_clust_6="39.45301"></scales>
<clustering>
<clus scale="   39.453">  2  6  1 -1</clus>
<clus scale="   58.643">  3  5 -1 -1</clus>
<clus scale="  159.450">  1  4  2 -1</clus>
<clus scale="  159.450">  1  3  2 -1</clus>
</clustering>
</event>
<event>
 6    0  0.1704145E+002  0.2333580E+03  0.7546771E-02  0.1124298E+00
         21   -1    0    0  506  501  0.00000000000E+00  0.00000000000E+00  0.37217935532E+02  0.37217935532E+02  0.00000000000E+00 0. -1.
         21   -1    0    0  504  502 -0.00000000000E+00 -0.00000000000E+00 -0.17116576553E+04  0.17116576553E+04  0.00000000000E+00 0. -1.
         21    1    1    2  503  502  0.27825412158E+02  0.14406595613E+02 -0.26693827474E+03  0.26877099189E+03  0.00000000000E+00 0. -1.
         21    1    1    2  504  501 -0.22628447162E+03  0.46243303692E+02 -0.60041558363E+03  0.64330550930E+03  0.00000000000E+00 0. -1.
         21    1    1    2  505  503  0.11908065871E+03 -0.47691871129E+02 -0.62043560285E+03  0.63355746001E+03  0.00000000000E+00 0. -1.
         21    1    1    2  506  505  0.79378400751E+02 -0.12958028176E+02 -0.18665025859E+03  0.20324162967E+03  0.00000000000E+00 0. -1.
<scales pt_clust_3="31.33374" pt_clust_4="220.62464" pt_clust_5="59.36588" pt_clust_6="59.36588"></scales>
<clustering>
<clus scale="   31.334">  2  3  1 -1</clus>
<clus scale="   59.366">  5  6 -1 -1</clus>
<clus scale="  220.625">  1  4  2 -1</clus>
<clus scale="  220.625">  1  3  2 -1</clus>
</clustering>
</event>
<event>
 6    0  0.1704145E+002  0.1661139E+03  0.7546771E-02  0.1181962E+00
         21   -1    0    0  505  501  0.00000000000E+00  0.00000000000E+00  0.13435606342E+04  0.13435606342E+04  0.00000000000E+00 0. -1.
         21   -1    0    0  506  502 -0.00000000000E+00 -0.00000000000E+00 -0.44845234739E+02  0.44845234739E+02  0.00000000000E+00 0. -1.
         21    1    1    2  503  501 -0.15974192703E+02 -0.44583567390E+02  0.21105449951E+03  0.21630273017E+03  0.00000000000E+00 0. -1.
         21    1    1    2  504  502  0.59524539057E+01  0.19615555891E+03  0.46710832490E+03  0.50665828938E+03  0.00000000000E+00 0. -1.
         21    1    1    2  505  504 -0.40047708549E+02 -0.66836628919E+01  0.36638040173E+03  0.36862323460E+03  0.00000000000E+00 0. -1.
         21    1    1    2  506  503  0.50069447346E+02 -0.14488832863E+03  0.25417217336E+03  0.29682161485E+03  0.00000000000E+00 0. -1.
<scales pt_clust_3="52.27276" pt_clust_4="14000.00000" pt_clust_5="40.60160" pt_clust_6="166.11390"></scales>
<clustering>
<clus scale="   40.602">  1  5  2 -1</clus>
<clus scale="   52.273">  1  3  2 -1</clus>
<clus scale="  166.114">  2  6  1 -1</clus>
<clus scale="   40.602">  1  3  2 -1</clus>
</clustering>
</event>
<event>
 6    0  0.1704145E+002  0.1961331E+03  0.7546771E-02  0.1153043E+00
         21   -1    0    0  506  501  0.00000000000E+00  0.00000000000E+00  0.34453632840E+03  0.34453632840E+03  0.00000000000E+00 0. -1.
         21   -1    0    0  503  502 -0.00000000000E+00 -0.00000000000E+00 -0.60390375346E+03  0.60390375346E+03  0.00000000000E+00 0. -1.
         21    1    1    2  503  504  0.19307467584E+03 -0.24877069872E+02 -0.28618837517E+03  0.34612206682E+03  0.00000000000E+00 0. -1.
         21    1    1    2  504  501 -0.20110571080E+03 -0.29047169150E+02 -0.15534793628E+03  0.25577377946E+03  0.00000000000E+00 0. -1.
         21    1    1    2  505  502 -0.14817707549E+02  0.76260649983E+02 -0.62555999665E+02  0.99742189102E+02  0.00000000000E+00 0.  1.
         21    1    1    2  506  505  0.22848742510E+02 -0.22336410961E+02  0.24472488606E+03  0.24680204648E+03  0.00000000000E+00 0. -1.
<scales pt_clust_3="196.13312" pt_clust_4="14000.00000" pt_clust_5="72.81944" pt_clust_6="31.95278"></scales>
<clustering>
<clus scale="   31.953">  1  6  2 -1</clus>
<clus scale="   72.819">  1  5  2 -1</clus>
<clus scale="  196.133">  2  3  1 -1</clus>
<clus scale="   31.953">  1  3  2 -1</clus>
</clustering>
</event>
<event>
 6    0  0.1704145E+002  0.1160976E+03  0.7546771E-02  0.1249677E+00
         21   -1    0    0  503  501  0.00000000000E+00  0.00000000000E+00  0.21170350091E+03  0.21170350091E+03  0.00000000000E+00 0.  1.
         21   -1    0    0  504  502 -0.00000000000E+00 -0.00000000000E+00 -0.11560102016E+03  0.11560102016E+03  0.00000000000E+00 0.  1.
         21    1    1    2  503  502 -0.40160231858E+02 -0.17048641526E+02 -0.13772585505E+02  0.45751333448E+02  0.00000000000E+00 0.  1.
         21    1    1    2  504  505  0.15168584723E+02  0.64086676512E+02 -0.45875855720E+01  0.66016922150E+02  0.00000000000E+00 0.  1.
         21    1    1    2  505  506  0.40945765265E+02  0.56515109763E+02  0.15662621358E+02  0.71525037802E+02  0.00000000000E+00 0.  1.
         21    1    1    2  506  501 -0.15954118129E+02 -0.10355314475E+03  0.98800030477E+02  0.14401122767E+03  0.00000000000E+00 0.  1.
<scales pt_clust_3="43.62912" pt_clust_4="32.24076" pt_clust_5="32.24076" pt_clust_6="111.25250"></scales>
<clustering>
<clus scale="   32.241">  4  5 -1 -1</clus>
<clus scale="   43.629">  2  3  1 -1</clus>
<clus scale="  111.253">  1  6  2 -1</clus>
<clus scale="  111.253">  1  3  2 -1</clus>
</clustering>
</event>
<event>
 6    0  0.1704145E+002  0.1256141E+03  0.7546771E-02  0.1234113E+00
         21   -1    0    0  505  501  0.00000000000E+00  0.00000000000E+00  0.89978478614E+02  0.89978478614E+02  0.00000000000E+00 0. -1.
         21   -1    0    0  503  502 -0.00000000000E+00 -0.00000000000E+00 -0.83069882651E+03  0.83069882651E+03  0.00000000000E+00 0.  1.
         21    1    1    2  503  506 -0.37165466004E+02 -0.10034433680E+03 -0.25426494918E+03  0.27586395591E+03  0.00000000000E+00 0. -1.
         21    1    1    2  504  502  0.95216010568E+02 -0.63610732122E+02 -0.21464682178E+03  0.24328105559E+03  0.00000000000E+00 0. -1.
         21    1    1    2  505  504 -0.24997743159E+02 -0.19203439586E+02  0.32209841110E+02  0.45068094250E+02  0.00000000000E+00 0. -1.
         21    1    1    2  506  501 -0.33052801406E+02  0.18315850851E+03 -0.30401841805E+03  0.35646419937E+03  0.00000000000E+00 0.  1.
<scales pt_clust_3="14000.00000" pt_clust_4="111.99762" pt_clust_5="31.52236" pt_clust_6="125.61412"></scales>
<clustering>
<clus scale="   31.522">  1  5  2 -1</clus>
<clus scale="  111.998">  1  4  2 -1</clus>
<clus scale="  125.614">  1  6  2 -1</clus>
<clus scale="   31.522">  1  3  2 -1</clus>
</clustering>
</event>
<event>
 6    0  0.1704145E+002  0.6980378E+02  0.7546771E-02  0.1360762E+00
         21   -1    0    0  504  501  0.00000000000E+00  0.00000000000E+00  0.12653166542E+02  0.12653166542E+02  0.00000000000E+00 0.  1.
         21   -1    0    0  506  502 -0.00000000000E+00 -0.00000000000E+00 -0.14465364833E+04  0.14465364833E+04  0.00000000000E+00 0.  1.
         21    1    1    2  503  502 -0.45640674330E+01 -0.34365217666E+02 -0.34091085998E+03  0.34266895591E+03  0.00000000000E+00 0.  1.
         21    1    1    2  504  503 -0.67204497784E+01 -0.51801075639E+02 -0.14378378899E+03  0.15297808294E+03  0.00000000000E+00 0.  1.
         21    1    1    2  505  501  0.70051325322E+02  0.79698157291E+02 -0.57416646339E+03  0.58388878405E+03  0.00000000000E+00 0.  1.
         21    1    1    2  506  505 -0.58766808111E+02  0.64681360142E+01 -0.37502220444E+03  0.37965382698E+03  0.00000000000E+00 0.  1.
<scales pt_clust_3="34.66697" pt_clust_4="56.89138" pt_clust_5="69.80378" pt_clust_6="14000.00000"></scales>
<clustering>
<clus scale="   34.667">  2  3  1 -1</clus>
<clus scale="   56.891">  1  4  2 -1</clus>
<clus scale="   69.804">  1  5  2 -1</clus>
<clus scale="   56.891">  1  3  2 -1</clus>
</clustering>
</event>
<event>
 6    0  0.1704145E+002  0.1520707E+03  0.7546771E-02  0.1197951E+00
         21   -1    0    0  506  501  0.00000000000E+00  0.00000000000E+00  0.84701832120E+03  0.84701832120E+03  0.00000000000E+00 0. -1.
         21   -1    0    0  505  502 -0.00000000000E+00 -0.00000000000E+00 -0.90502634552E+03  0.90502634552E+03  0.00000000000E+00 0.  1.
         21    1    1    2  503  502 -0.53930842690E+02 -0.15522230749E+02 -0.35126467937E+03  0.35571948276E+03  0.00000000000E+00 0.  1.
         21    1    1    2  504  503 -0.30395670709E+02 -0.86648556705E+02 -0.44844683723E+03  0.45775149918E+03  0.00000000000E+00 0.  1.
         21    1    1    2  505  501  0.83171780791E+02  0.16352990099E+03 -0.10599776965E+02  0.18377140395E+03  0.00000000000E+00 0.  1.
         21    1    1    2  506  504  0.11547326079E+01 -0.61359113536E+02  0.75230326925E+03  0.75480228083E+03  0.00000000000E+00 0. -1.
<scales pt_clust_3="53.29063" pt_clust_4="53.29063" pt_clust_5="135.93676" pt_clust_6="61.36998"></scales>
<clustering>
<clus scale="   53.291">  3  4 -1 -1</clus>
<clus scale="   61.370">  1  6  2 -1</clus>
<clus scale="  135.937">  1  5  2 -1</clus>
<clus scale="   61.370">  1  3  2 -1</clus>
</clustering>
</event>
<event>
 6    0  0.1704145E+002  0.1187174E+03  0.7546771E-02  0.1245228E+00
         21   -1    0    0  504  501  0.00000000000E+00  0.00000000000E+00  0.59222374464E+03  0.59222374464E+03  0.00000000000E+00 0.  1.
         21   -1    0    0  503  502 -0.00000000000E+00 -0.00000000000E+00 -0.23440433811E+03  0.23440433811E+03  0.00000000000E+00 0.  1.
         21    1    1    2  503  505  0.87292998876E+02 -0.73682543118E+02 -0.16776185657E+03  0.20296114242E+03  0.00000000000E+00 0.  1.
         21    1    1    2  504  506  0.57366107762E+02  0.24871178013E+02  0.35740096003E+03  0.36282901214E+03  0.00000000000E+00 0.  1.
         21    1    1    2  505  501 -0.69477417103E+01 -0.34619750352E+02  0.49541226873E+02  0.60836924555E+02  0.00000000000E+00 0.  1.
         21    1    1    2  506  502 -0.13771136493E+03  0.83431115456E+02  0.11863907619E+03  0.20000100364E+03  0.00000000000E+00 0.  1.
<scales pt_clust_3="118.71744" pt_clust_4="52.73324" pt_clust_5="35.31003" pt_clust_6="14000.00000"></scales>
<clustering>
<clus scale="   35.310">  1  5  2 -1</clus>
<clus scale="   52.733">  1  4  2 -1</clus>
<clus scale="  118.717">  2  3  1 -1</clus>
<clus scale="   35.310">  1  3  2 -1</clus>
</clustering>
</event>
<event>
 6    0  0.1704145E+002  0.1203521E+03  0.7546771E-02  0.1242517E+00
         21   -1    0    0  504  501  0.00000000000E+00  0.00000000000E+00  0.11348339085E+03  0.11348339085E+03  0.00000000000E+00 0.  1.
         21   -1    0    0  503  502 -0.00000000000E+00 -0.00000000000E+00 -0.62364426082E+03  0.62364426082E+03  0.00000000000E+00 0. -1.
         21    1    1    2  503  501  0.17393004183E+02  0.10621845124E+03  0.68280034273E+02  0.12746387354E+03  0.00000000000E+00 0.  1.
         21    1    1    2  504  506  0.52352525625E+02 -0.66674944815E+02 -0.21313748232E+03  0.22937724730E+03  0.00000000000E+00 0. -1.
         21    1    1    2  505  502 -0.60737931464E+02  0.43107635204E+01 -0.21524384797E+03  0.22369084266E+03  0.00000000000E+00 0. -1.
         21    1    1    2  506  505 -0.90075983442E+01 -0.43854269943E+02 -0.15005957396E+03  0.15659568818E+03  0.00000000000E+00 0. -1.
<scales pt_clust_3="107.31779" pt_clust_4="39.58787" pt_clust_5="60.89071" pt_clust_6="39.58787"></scales>
<clustering>
<clus scale="   39.588">  4  6 -1 -1</clus>
<clus scale="   60.891">  2  5  1 -1</clus>
<clus scale="  107.318">  1  3  2 -1</clus>
<clus scale="  107.318">  1  3  2 -1</clus>
</clustering>
</event>
<event>
 6    0  0.3145119E+002  0.1603622E+03  0.7546771E-02  0.1188288E+00
         21   -1    0    0  504  501  0.00000000000E+00  0.00000000000E+00  0.12272410958E+04  0.12272410958E+04  0.00000000000E+00 0. -1.
         21   -1    0    0  503  502 -0.00000000000E+00 -0.00000000000E+00 -0.74514335802E+03  0.74514335802E+03  0.00000000000E+00 0. -1.
         21    1    1    2  503  506  0.13139643120E+03  0.29765830448E+02 -0.65903707341E+03  0.67266699854E+03  0.00000000000E+00 0. -1.
         21    1    1    2  504  505 -0.49178687662E+02 -0.32269885183E+02  0.10904469936E+04  0.10920322956E+04  0.00000000000E+00 0. -1.
         21    1    1    2  505  502  0.33716202069E+02  0.10155380323E+01 -0.45774955611E+02  0.56860884276E+02  0.00000000000E+00 0. -1.
         21    1    1    2  506  501 -0.11593394561E+03  0.14885167029E+01  0.96462773155E+02  0.15082427534E+03  0.00000000000E+00 0. -1.
<scales pt_clust_3="14000.00000" pt_clust_4="58.78798" pt_clust_5="33.73149" pt_clust_6="160.36225"></scales>
<clustering>
<clus scale="   33.731">  2  5  1 -1</clus>
<clus scale="   58.788">  1  4  2 -1</clus>
<clus scale="  160.362">  1  6  2 -1</clus>
<clus scale="   58.788">  1  3  2 -1</clus>
</clustering>
</event>
<event>
 6    0  0.1704145E+002  0.1212057E+03  0.7546771E-02  0.1241121E+00
         21   -1    0    0  504  501  0.00000000000E+00  0.00000000000E+00  0.23847961956E+03  0.23847961956E+03  0.00000000000E+00 0. -1.
         21   -1    0    0  503  502 -0.00000000000E+00 -0.00000000000E+00 -0.36601757742E+03  0.36601757742E+03  0.00000000000E+00 0. -1.
         21    1    1    2  503  505 -0.86799132706E+02  0.17995122526E+02 -0.28999665872E+03  0.30324243757E+03  0.00000000000E+00 0. -1.
         21    1    1    2  504  506  0.11016324342E+03 -0.56886802666E+02  0.17853553025E+03  0.21736371381E+03  0.00000000000E+00 0. -1.
         21    1    1    2  505  501  0.13216203469E+02  0.34480425730E+02  0.10581938313E+02  0.38412826127E+02  0.00000000000E+00 0. -1.
         21    1    1    2  506  502 -0.36580314182E+02  0.44112544099E+01 -0.26658767701E+02  0.45478219473E+02  0.00000000000E+00 0.  1.
<scales pt_clust_3="121.20574" pt_clust_4="14000.00000" pt_clust_5="36.57914" pt_clust_6="36.84533"></scales>
<clustering>
<clus scale="   36.845">  2  6  1 -1</clus>
<clus scale="   36.579">  1  5  2 -1</clus>
<clus scale="  121.206">  2  3  1 -1</clus>
<clus scale="   36.579">  1  3  2 -1</clus>
</clustering>
</event>
<event>
 6    0  0.1704145E+002  0.1192350E+03  0.7546771E-02  0.1244364E+00
         21   -1    0    0  503  501  0.00000000000E+00  0.00000000000E+00  0.55278183133E+03  0.55278183133E+03  0.00000000000E+00 0. -1.
         21   -1    0    0  504  502 -0.00000000000E+00 -0.00000000000E+00 -0.16366969614E+03  0.16366969614E+03  0.00000000000E+00 0. -1.
         21    1    1    2  503  506 -0.19498242704E+02 -0.25798077376E+02  0.98962070814E+00  0.32352768258E+02  0.00000000000E+00 0.  1.
         21    1    1    2  504  505  0.42636440080E+02  0.45554398958E+01 -0.45172335452E+01  0.43116394263E+02  0.00000000000E+00 0. -1.
         21    1    1    2  505  501  0.37124169565E+02  0.99290391562E+02  0.49064002223E+03  0.50196057339E+03  0.00000000000E+00 0. -1.
         21    1    1    2  506  502 -0.60262366942E+02 -0.78047754082E+02 -0.98000274200E+02  0.13902179156E+03  0.00000000000E+00 0. -1.
<scales pt_clust_3="30.37017" pt_clust_4="42.87911" pt_clust_5="106.79202" pt_clust_6="30.37017"></scales>
<clustering>
<clus scale="   30.370">  3  6 -1 -1</clus>
<clus scale="   42.879">  2  4  1 -1</clus>
<clus scale="  106.792">  1  5  2 -1</clus>
<clus scale="  106.792">  1  3  2 -1</clus>
</clustering>
</event>
<event>
 6    0  0.1704145E+002  0.1063832E+03  0.7546771E-02  0.1267418E+00
         21   -1    0    0  505  501  0.00000000000E+00  0.00000000000E+00  0.21839498789E+04  0.21839498789E+04  0.00000000000E+00 0. -1.
         21   -1    0    0  504  502 -0.00000000000E+00 -0.00000000000E+00 -0.13353863176E+03  0.13353863176E+03  0.00000000000E+00 0. -1.
         21    1    1    2  503  502 -0.66205514309E+02  0.75416342152E+02 -0.35025294473E+02  0.10629000913E+03  0.00000000000E+00 0. -1.
         21    1    1    2  504  506  0.98335665855E+02 -0.57931535337E+02  0.19106806105E+02  0.11571964399E+03  0.00000000000E+00 0. -1.
         21    1    1    2  505  503  0.10224001600E+03  0.10808578466E+02  0.17178020463E+04  0.17208758574E+04  0.00000000000E+00 0. -1.
         21    1    1    2  506  501 -0.13437016755E+03 -0.28293385280E+02  0.34852768923E+03  0.37460300017E+03  0.00000000000E+00 0. -1.
<scales pt_clust_3="100.35335" pt_clust_4="47.47527" pt_clust_5="106.38325" pt_clust_6="14000.00000"></scales>
<clustering>
<clus scale="  100.353">  2  3  1 -1</clus>
<clus scale="   47.475">  2  4  1 -1</clus>
<clus scale="  106.383">  1  5  2 -1</clus>
<clus scale="  106.383">  1  3  2 -1</clus>
</clustering>
</event>
<event>
 6    0  0.1704145E+002  0.2222250E+03  0.7546771E-02  0.1132235E+00
         21   -1    0    0  505  501  0.00000000000E+00  0.00000000000E+00  0.42848771461E+03  0.42848771461E+03  0.00000000000E+00 0. -1.
         21   -1    0    0  504  502 -0.00000000000E+00 -0.00000000000E+00 -0.56053877606E+03  0.56053877606E+03  0.00000000000E+00 0. -1.
         21    1    1    2  503  502  0.88552370331E+02  0.20716286308E+02 -0.19941022452E+03  0.21916916858E+03  0.00000000000E+00 0. -1.
         21    1    1    2  504  501  0.84295814453E+02 -0.60221850398E+02 -0.11746559469E+03  0.15662254479E+03  0.00000000000E+00 0. -1.
         21    1    1    2  505  506 -0.22465134846E+03 -0.64780221510E+01  0.36026302940E+03  0.42461705511E+03  0.00000000000E+00 0. -1.
         21    1    1    2  506  503  0.51803163677E+02  0.45983586241E+02 -0.17543827164E+03  0.18861772220E+03  0.00000000000E+00 0. -1.
<scales pt_clust_3="35.23725" pt_clust_4="103.59757" pt_clust_5="218.52632" pt_clust_6="35.23725"></scales>
<clustering>
<clus scale="   35.237">  3  6 -1 -1</clus>
<clus scale="  103.598">  2  4  1 -1</clus>
<clus scale="  218.526">  1  5  2 -1</clus>
<clus scale="  218.526">  1  3  2 -1</clus>
</clustering>
</event>
<event>
 6    0  0.1704145E+002  0.2093264E+03  0.7546771E-02  0.1142101E+00
         21   -1    0    0  506  501  0.00000000000E+00  0.00000000000E+00  0.13241365636E+03  0.13241365636E+03  0.00000000000E+00 0.  1.
         21   -1    0    0  503  502 -0.00000000000E+00 -0.00000000000E+00 -0.48253247121E+03  0.48253247121E+03  0.00000000000E+00 0.  1.
         21    1    1    2  503  505  0.30560045568E+02  0.23756503889E+02 -0.87884025594E+02  0.96030671230E+02  0.00000000000E+00 0.  1.
         21    1    1    2  504  502 -0.55044893276E+02  0.79793998379E+02 -0.13658774406E+03  0.16749099761E+03  0.00000000000E+00 0.  1.
         21    1    1    2  505  501  0.31319229713E+02 -0.20408542208E+03 -0.23280455419E+02  0.20778289934E+03  0.00000000000E+00 0.  1.
         21    1    1    2  506  504 -0.68343820055E+01  0.10053491981E+03 -0.10236658979E+03  0.14364155939E+03  0.00000000000E+00 0.  1.
<scales pt_clust_3="38.70772" pt_clust_4="55.44202" pt_clust_5="201.14870" pt_clust_6="55.44202"></scales>
<clustering>
<clus scale="   38.708">  2  3  1 -1</clus>
<clus scale="   55.442">  4  6 -1 -1</clus>
<clus scale="  201.149">  1  5  2 -1</clus>
<clus scale="  201.149">  1  3  2 -1</clus>
</clustering>
</event>
<event>
 6    0  0.1704145E+002  0.1237271E+03  0.7546771E-02  0.1237072E+00
         21   -1    0    0  505  501  0.00000000000E+00  0.00000000000E+00  0.13627343152E+03  0.13627343152E+03  0.00000000000E+00 0. -1.
         21   -1    0    0  504  502 -0.00000000000E+00 -0.00000000000E+00 -0.74075484837E+03  0.74075484837E+03  0.00000000000E+00 0. -1.
         21    1    1    2  503  502 -0.18961855262E+02  0.37619932531E+02 -0.22259117622E+03  0.22654280613E+03  0.00000000000E+00 0. -1.
         21    1    1    2  504  501 -0.97308588819E+02 -0.55831585436E+02  0.10085026096E+03  0.15085391121E+03  0.00000000000E+00 0. -1.
         21    1    1    2  505  506  0.69619080143E+02 -0.11357846193E+02 -0.21578276385E+03  0.22701986293E+03  0.00000000000E+00 0. -1.
         21    1    1    2  506  503  0.46651363939E+02  0.29569499098E+02 -0.26695773774E+03  0.27261169963E+03  0.00000000000E+00 0. -1.
<scales pt_clust_3="42.12851" pt_clust_4="112.09624" pt_clust_5="52.26938" pt_clust_6="52.26938"></scales>
<clustering>
<clus scale="   42.129">  2  3  1 -1</clus>
<clus scale="   52.269">  5  6 -1 -1</clus>
<clus scale="  112.096">  1  4  2 -1</clus>
<clus scale="  112.096">  1  3  2 -1</clus>
</clustering>
</event>
<event>
 6    0  0.1704145E+002  0.1446190E+03  0.7546771E-02  0.1207246E+00
         21   -1    0    0  502  501  0.00000000000E+00  0.00000000000E+00  0.80810305642E+02  0.80810305642E+02  0.00000000000E+00 0. -1.
         21   -1    0    0  505  502 -0.00000000000E+00 -0.00000000000E+00 -0.55150005873E+03  0.55150005873E+03  0.00000000000E+00 0. -1.
         21    1    1    2  503  506 -0.13196529546E+03 -0.10791202222E+03 -0.71043930424E+02  0.18468103258E+03  0.00000000000E+00 0. -1.
         21    1    1    2  504  503  0.56969458630E+02  0.52169826219E+02 -0.22320976849E+03  0.23619866794E+03  0.00000000000E+00 0. -1.
         21    1    1    2  505  504  0.22617629668E+02  0.55195905710E+02 -0.12246614476E+03  0.13622078326E+03  0.00000000000E+00 0. -1.
         21    1    1    2  506  501  0.52378207157E+02  0.54629029141E+00 -0.53969909408E+02  0.75209880598E+02  0.00000000000E+00 0. -1.
<scales pt_clust_3="139.89904" pt_clust_4="32.20222" pt_clust_5="32.20222" pt_clust_6="52.38106"></scales>
<clustering>
<clus scale="   32.202">  4  5 -1 -1</clus>
<clus scale="   52.381">  1  6  2 -1</clus>
<clus scale="  139.899">  1  3  2 -1</clus>
<clus scale="   52.381">  1  3  2 -1</clus>
</clustering>
</event>
<event>
 6    0  0.1704145E+002  0.1901420E+03  0.7546771E-02  0.1158333E+00
         21   -1    0    0  506  501  0.00000000000E+00  0.00000000000E+00  0.11972537616E+04  0.11972537616E+04  0.00000000000E+00 0. -1.
         21   -1    0    0  503  502 -0.00000000000E+00 -0.00000000000E+00 -0.27488038711E+03  0.27488038711E+03  0.00000000000E+00 0.  1.
         21    1    1    2  503  504 -0.63298869003E+02 -0.48904818576E+02 -0.34350456342E+01  0.80063897204E+02  0.00000000000E+00 0.  1.
         21    1    1    2  504  501  0.43690091204E+02  0.17766847963E+03  0.11290286099E+04  0.11437571922E+04  0.00000000000E+00 0. -1.
         21    1    1    2  505  502  0.15499182559E+01 -0.80638726918E+02 -0.16692512749E+03  0.18538879339E+03  0.00000000000E+00 0.  1.
         21    1    1    2  506  505  0.18058859543E+02 -0.48124934134E+02 -0.36295062292E+02  0.62924265909E+02  0.00000000000E+00 0.  1.
<scales pt_clust_3="79.99018" pt_clust_4="180.99072" pt_clust_5="46.52459" pt_clust_6="46.52459"></scales>
<clustering>
<clus scale="   46.525">  5  6 -1 -1</clus>
<clus scale="   79.990">  2  3  1 -1</clus>
<clus scale="  180.991">  1  4  2 -1</clus>
<clus scale="  180.991">  1  3  2 -1</clus>
</clustering>
</event>
<event>
 6    0  0.1704145E+002  0.1192471E+03  0.7546771E-02  0.1244344E+00
         21   -1    0    0  506  501  0.00000000000E+00  0.00000000000E+00  0.76815915112E+03  0.76815915112E+03  0.00000000000E+00 0.  1.
         21   -1    0    0  505  502 -0.00000000000E+00 -0.00000000000E+00 -0.80140764401E+03  0.80140764401E+03  0.00000000000E+00 0.  1.
         21    1    1    2  503  502  0.41187635356E+02  0.25768128303E+02 -0.21532726985E+02  0.53142036787E+02  0.00000000000E+00 0.  1.
         21    1    1    2  504  503  0.89924331199E+02  0.59635056825E+02 -0.27033311773E+03  0.29107167483E+03  0.00000000000E+00 0.  1.
         21    1    1    2  505  501 -0.12735227513E+02 -0.68214254601E+02 -0.47601473381E+03  0.48104614889E+03  0.00000000000E+00 0.  1.
         21    1    1    2  506  504 -0.11837673904E+03 -0.17188930527E+02  0.73463208564E+03  0.74430693463E+03  0.00000000000E+00 0.  1.
<scales pt_clust_3="48.58413" pt_clust_4="14000.00000" pt_clust_5="53.68863" pt_clust_6="119.24706"></scales>
<clustering>
<clus scale="   48.584">  2  3  1 -1</clus>
<clus scale="   53.689">  2  5  1 -1</clus>
<clus scale="  119.247">  1  6  2 -1</clus>
<clus scale="  119.247">  1  3  2 -1</clus>
</clustering>
</event>
<event>
 6    0  0.1704145E+002  0.2022853E+03  0.7546771E-02  0.1147825E+00
         21   -1    0    0  506  501  0.00000000000E+00  0.00000000000E+00  0.59052432007E+03  0.59052432007E+03  0.00000000000E+00 0. -1.
         21   -1    0    0  503  502 -0.00000000000E+00 -0.00000000000E+00 -0.31878914663E+03  0.31878914663E+03  0.00000000000E+00 0. -1.
         21    1    1    2  503  505  0.11522194099E+03 -0.13786184379E+03 -0.10564888064E+03  0.20843145069E+03  0.00000000000E+00 0. -1.
         21    1    1    2  504  502 -0.15808399629E+03  0.19151211821E+03 -0.42707972013E+02  0.25197502293E+03  0.00000000000E+00 0. -1.
         21    1    1    2  505  501  0.48998546613E+02 -0.18058654649E+02  0.36721997180E+02  0.63839467845E+02  0.00000000000E+00 0.  1.
         21    1    1    2  506  504 -0.61364913058E+01 -0.35591619771E+02  0.38337002891E+03  0.38506752524E+03  0.00000000000E+00 0. -1.
<scales pt_clust_3="202.28528" pt_clust_4="14000.00000" pt_clust_5="54.50859" pt_clust_6="36.11675"></scales>
<clustering>
<clus scale="   36.117">  1  6  2 -1</clus>
<clus scale="   54.509">  1  5  2 -1</clus>
<clus scale="  202.285">  2  3  1 -1</clus>
<clus scale="   36.117">  1  3  2 -1</clus>
</clustering>
</event>
<event>
 6    0  0.1704145E+002  0.9707637E+02  0.7546771E-02  0.1286567E+00
         21   -1    0    0  505  501  0.00000000000E+00  0.00000000000E+00  0.29165702428E+03  0.29165702428E+03  0.00000000000E+00 0. -1.
         21   -1    0    0  503  502 -0.00000000000E+00 -0.00000000000E+00 -0.37518039093E+03  0.37518039093E+03  0.00000000000E+00 0. -1.
         21    1    1    2  503  501 -0.19013241937E+02 -0.11993120150E+03 -0.32404862147E+03  0.34605274965E+03  0.00000000000E+00 0. -1.
         21    1    1    2  504  506  0.28618499758E+02  0.75214256745E+02  0.10415270479E+03  0.13162062476E+03  0.00000000000E+00 0. -1.
         21    1    1    2  505  504 -0.31779761084E+02  0.23838486664E+02  0.15045328173E+03  0.15560982181E+03  0.00000000000E+00 0. -1.
         21    1    1    2  506  502  0.22174503263E+02  0.20878458091E+02 -0.14080731700E+02  0.33554218996E+02  0.00000000000E+00 0. -1.
<scales pt_clust_3="97.07637" pt_clust_4="14000.00000" pt_clust_5="39.68928" pt_clust_6="30.45683"></scales>
<clustering>
<clus scale="   30.457">  2  6  1 -1</clus>
<clus scale="   39.689">  1  5  2 -1</clus>
<clus scale="   97.076">  2  3  1 -1</clus>
<clus scale="   39.689">  1  3  2 -1</clus>
</clustering>
</event>
<event>
 6    0  0.1704145E+002  0.1210385E+03  0.7546771E-02  0.1241394E+00
         21   -1    0    0  504  501  0.00000000000E+00  0.00000000000E+00  0.35781164145E+03  0.35781164145E+03  0.00000000000E+00 0. -1.
         21   -1    0    0  503  502 -0.00000000000E+00 -0.00000000000E+00 -0.68456657373E+03  0.68456657373E+03  0.00000000000E+00 0. -1.
         21    1    1    2  503  505 -0.46296752582E+02 -0.17418492651E+02 -0.86113109204E+02  0.99308915827E+02  0.00000000000E+00 0.  1.
         21    1    1    2  504  502  0.24591347732E+02  0.10383142343E+03 -0.24314061843E+03  0.26552412170E+03  0.00000000000E+00 0. -1.
         21    1    1    2  505  506 -0.57087675148E+02 -0.48109205066E+02 -0.32760989492E+03  0.33600854382E+03  0.00000000000E+00 0. -1.
         21    1    1    2  506  501  0.78793079998E+02 -0.38303725712E+02  0.33010869028E+03  0.34153663384E+03  0.00000000000E+00 0. -1.
<scales pt_clust_3="47.12939" pt_clust_4="106.29186" pt_clust_5="47.12939" pt_clust_6="87.61007"></scales>
<clustering>
<clus scale="   47.129">  3  5 -1 -1</clus>
<clus scale="   87.610">  1  6  2 -1</clus>
<clus scale="  106.292">  1  4  2 -1</clus>
<clus scale="   87.610">  1  3  2 -1</clus>
</clustering>
</event>
<event>
 6    0  0.1704145E+002  0.1329357E+03  0.7546771E-02  0.1223164E+00
         21   -1    0    0  506  501  0.00000000000E+00  0.00000000000E+00  0.31293801423E+03  0.31293801423E+03  0.00000000000E+00 0.  1.
         21   -1    0    0  504  502 -0.00000000000E+00 -0.00000000000E+00 -0.88813217269E+03  0.88813217269E+03  0.00000000000E+00 0.  1.
         21    1    1    2  503  502 -0.35062360088E+02 -0.67414037412E+02 -0.38306421373E+03  0.39052812110E+03  0.00000000000E+00 0.  1.
         21    1    1    2  504  505 -0.25201293893E+02  0.20100948397E+02 -0.46145413128E+02  0.56289896901E+02  0.00000000000E+00 0.  1.
         21    1    1    2  505  501  0.99392051725E+02  0.76727983139E+02  0.28974487804E+03  0.31578166143E+03  0.00000000000E+00 0.  1.
         21    1    1    2  506  503 -0.39128397744E+02 -0.29414894125E+02 -0.43572940965E+03  0.43847050749E+03  0.00000000000E+00 0.  1.
<scales pt_clust_3="37.99284" pt_clust_4="32.23590" pt_clust_5="125.44429" pt_clust_6="37.99284"></scales>
<clustering>
<clus scale="   32.236">  2  4  1 -1</clus>
<clus scale="   37.993">  3  6 -1 -1</clus>
<clus scale="  125.444">  1  5  2 -1</clus>
<clus scale="  125.444">  1  3  2 -1</clus>
</clustering>
</event>
<event>
 6    0  0.1704145E+002  0.1224998E+03  0.7546771E-02  0.1239029E+00
         21   -1    0    0  505  501  0.00000000000E+00  0.00000000000E+00  0.29011797275E+04  0.29011797275E+04  0.00000000000E+00 0. -1.
         21   -1    0    0  503  502 -0.00000000000E+00 -0.00000000000E+00 -0.38100420635E+03  0.38100420635E+03  0.00000000000E+00 0. -1.
         21    1    1    2  503  504 -0.78609406763E+02  0.31146311223E+01 -0.14538082956E+03  0.16530192184E+03  0.00000000000E+00 0. -1.
         21    1    1    2  504  501 -0.38887940354E+00 -0.71201782734E+02 -0.21020016740E+03  0.22193232181E+03  0.00000000000E+00 0. -1.
         21    1    1    2  505  506  0.70039024993E+02  0.10097823019E+03  0.28489070259E+04  0.28515562962E+04  0.00000000000E+00 0. -1.
         21    1    1    2  506  502  0.89592611728E+01 -0.32891078574E+02  0.26849492131E+02  0.43393393947E+02  0.00000000000E+00 0. -1.
<scales pt_clust_3="75.62114" pt_clust_4="122.49975" pt_clust_5="14000.00000" pt_clust_6="34.08946"></scales>
<clustering>
<clus scale="   34.089">  2  6  1 -1</clus>
<clus scale="   75.621">  2  3  1 -1</clus>
<clus scale="  122.500">  2  4  1 -1</clus>
<clus scale="  122.500">  1  3  2 -1</clus>
</clustering>
</event>
<event>
 6    0  0.1704145E+002  0.1407504E+03  0.7546771E-02  0.1212323E+00
         21   -1    0    0  505  501  0.00000000000E+00  0.00000000000E+00  0.53826713009E+03  0.53826713009E+03  0.00000000000E+00 0. -1.
         21   -1    0    0  504  502 -0.00000000000E+00 -0.00000000000E+00 -0.41619834815E+03  0.41619834815E+03  0.00000000000E+00 0.  1.
         21    1    1    2  503  506 -0.38716912208E+02  0.20569694878E+02 -0.47977596735E+02  0.64992010484E+02  0.00000000000E+00 0. -1.
         21    1    1    2  504  501  0.10117673739E+03 -0.79626705018E+02  0.51013778729E+03  0.52613468462E+03  0.00000000000E+00 0. -1.
         21    1    1    2  505  503 -0.86976527034E+02  0.41740553092E+02 -0.28027414728E+03  0.29641320426E+03  0.00000000000E+00 0.  1.
         21    1    1    2  506  502  0.24516701854E+02  0.17316457048E+02 -0.59817261328E+02  0.66925578872E+02  0.00000000000E+00 0.  1.
<scales pt_clust_3="39.10580" pt_clust_4="128.94788" pt_clust_5="39.10580" pt_clust_6="30.01547"></scales>
<clustering>
<clus scale="   30.015">  2  6  1 -1</clus>
<clus scale="   39.106">  3  5 -1 -1</clus>
<clus scale="  128.948">  1  4  2 -1</clus>
<clus scale="  128.948">  1  3  2 -1</clus>
</clustering>
</event>
<event>
 6    0  0.1704145E+002  0.5482724E+02  0.7546771E-02  0.1420918E+00
         21   -1    0    0  503  501  0.00000000000E+00  0.00000000000E+00  0.72678429257E+03  0.72678429257E+03  0.00000000000E+00 0. -1.
         21   -1    0    0  505  502 -0.00000000000E+00 -0.00000000000E+00 -0.68029800686E+02  0.68029800686E+02  0.00000000000E+00 0. -1.
         21    1    1    2  503  504 -0.22119898577E+02 -0.48414571708E+02  0.56371371941E+03  0.56622117420E+03  0.00000000000E+00 0. -1.
         21    1    1    2  504  502 -0.23788209653E+02 -0.44999368942E+02  0.50632958581E+02  0.71794976275E+02  0.00000000000E+00 0.  1.
         21    1    1    2  505  506 -0.31059422857E+02  0.33803842117E+01  0.15483238246E+02  0.34868974923E+02  0.00000000000E+00 0.  1.
         21    1    1    2  506  501  0.76967531087E+02  0.90033556438E+02  0.28924575653E+02  0.12192896786E+03  0.00000000000E+00 0. -1.
<scales pt_clust_3="54.82724" pt_clust_4="53.25199" pt_clust_5="31.24284" pt_clust_6="14000.00000"></scales>
<clustering>
<clus scale="   31.243">  2  5  1 -1</clus>
<clus scale="   53.252">  2  4  1 -1</clus>
<clus scale="   54.827">  1  3  2 -1</clus>
<clus scale="   54.827">  1  3  2 -1</clus>
</clustering>
</event>
<event>
 6    0  0.1704145E+002  0.1653148E+03  0.7546771E-02  0.1182824E+00
         21   -1    0    0  506  501  0.00000000000E+00  0.00000000000E+00  0.77939612509E+03  0.77939612509E+03  0.00000000000E+00 0.  1.
         21   -1    0    0  504  502 -0.00000000000E+00 -0.00000000000E+00 -0.60024304545E+02  0.60024304545E+02  0.00000000000E+00 0.  1.
         21    1    1    2  503  501 -0.66809078213E+02 -0.21737764432E+02  0.26128544613E+03  0.27056619836E+03  0.00000000000E+00 0.  1.
         21    1    1    2  504  503 -0.86504729667E+02 -0.98376015448E+02  0.15440431770E+03  0.20248852312E+03  0.00000000000E+00 0.  1.
         21    1    1    2  505  502  0.20196733214E+02  0.51143673455E+02  0.78689137254E+02  0.95997727519E+02  0.00000000000E+00 0. -1.
         21    1    1    2  506  505  0.13311707467E+03  0.68970106426E+02  0.22499291946E+03  0.27036798064E+03  0.00000000000E+00 0.  1.
<scales pt_clust_3="70.25655" pt_clust_4="152.51359" pt_clust_5="38.62941" pt_clust_6="38.62941"></scales>
<clustering>
<clus scale="   38.629">  5  6 -1 -1</clus>
<clus scale="   70.257">  1  3  2 -1</clus>
<clus scale="  152.514">  2  4  1 -1</clus>
<clus scale="   70.257">  1  3  2 -1</clus>
</clustering>
</event>
<event>
 6    0  0.1704145E+002  0.1636647E+03  0.7546771E-02  0.1184620E+00
         21   -1    0    0  506  501  0.00000000000E+00  0.00000000000E+00  0.20405160198E+04  0.20405160198E+04  0.00000000000E+00 0. -1.
         21   -1    0    0  505  502 -0.00000000000E+00 -0.00000000000E+00 -0.16798557355E+03  0.16798557355E+03  0.00000000000E+00 0. -1.
         21    1    1    2  503  501  0.11824920952E+03 -0.34783352186E+02 -0.94129043769E+02  0.15509040596E+03  0.00000000000E+00 0. -1.
         21    1    1    2  504  502 -0.13663933234E+03  0.10325999335E+02  0.19854719285E+03  0.24124245313E+03  0.00000000000E+00 0. -1.
         21    1    1    2  505  503  0.24758628079E+02 -0.30596436361E+02 -0.36609644507E+01  0.39528903894E+02  0.00000000000E+00 0.  1.
         21    1    1    2  506  504 -0.63685052571E+01  0.55053789212E+02  0.17717732617E+04  0.17726398304E+04  0.00000000000E+00 0. -1.
<scales pt_clust_3="33.84863" pt_clust_4="152.30926" pt_clust_5="33.84863" pt_clust_6="55.42091"></scales>
<clustering>
<clus scale="   33.849">  3  5 -1 -1</clus>
<clus scale="   55.421">  1  6  2 -1</clus>
<clus scale="  152.309">  1  4  2 -1</clus>
<clus scale="   55.421">  1  3  2 -1</clus>
</clustering>
</event>
<event>
 6    0  0.1704145E+002  0.1820686E+03  0.7546771E-02  0.1165816E+00
         21   -1    0    0  503  501  0.00000000000E+00  0.00000000000E+00  0.10075557229E+04  0.10075557229E+04  0.00000000000E+00 0. -1.
         21   -1    0    0  505  502 -0.00000000000E+00 -0.00000000000E+00 -0.12243605044E+03  0.12243605044E+03  0.00000000000E+00 0.  1.
         21    1    1    2  503  504  0.29700814732E+02 -0.29513721943E+02  0.71264548419E+03  0.71387448779E+03  0.00000000000E+00 0. -1.
         21    1    1    2  504  506 -0.36120108256E+02  0.95426785522E+02  0.60546897727E+01  0.10221346723E+03  0.00000000000E+00 0.  1.
         21    1    1    2  505  501  0.72092972769E+02 -0.13354304332E+03  0.15828479858E+03  0.21928342072E+03  0.00000000000E+00 0.  1.
         21    1    1    2  506  502 -0.65673679244E+02  0.67629979742E+02  0.81346999646E+01  0.94620397636E+02  0.00000000000E+00 0.  1.
<scales pt_clust_3="41.87121" pt_clust_4="38.36083" pt_clust_5="177.64076" pt_clust_6="38.36083"></scales>
<clustering>
<clus scale="   38.361">  4  6 -1 -1</clus>
<clus scale="   41.871">  1  3  2 -1</clus>
<clus scale="  177.641">  1  5  2 -1</clus>
<clus scale="   41.871">  1  3  2 -1</clus>
</clustering>
</event>
<event>
 6    0  0.1704145E+002  0.1111576E+03  0.7546771E-02  0.1258441E+00
         21   -1    0    0  506  501  0.00000000000E+00  0.00000000000E+00  0.98204909844E+02  0.98204909844E+02  0.00000000000E+00 0.  1.
         21   -1    0    0  503  502 -0.00000000000E+00 -0.00000000000E+00 -0.88900731078E+03  0.88900731078E+03  0.00000000000E+00 0. -1.
         21    1    1    2  503  505 -0.43404719054E+02 -0.17738332975E+02 -0.52239146718E+03  0.52449162345E+03  0.00000000000E+00 0. -1.
         21    1    1    2  504  502 -0.30237905017E+02  0.34635053775E+02 -0.91533919935E+02  0.10243230129E+03  0.00000000000E+00 0. -1.
         21    1    1    2  505  501 -0.43916000861E+02 -0.47964962554E+02 -0.22143459959E+03  0.23078677314E+03  0.00000000000E+00 0. -1.
         21    1    1    2  506  504  0.11755862493E+03  0.31068241754E+02  0.44557585761E+02  0.12950152273E+03  0.00000000000E+00 0.  1.
<scales pt_clust_3="63.59767" pt_clust_4="45.97736" pt_clust_5="111.15761" pt_clust_6="14000.00000"></scales>
<clustering>
<clus scale="   45.977">  2  4  1 -1</clus>
<clus scale="   63.598">  2  3  1 -1</clus>
<clus scale="  111.158">  2  5  1 -1</clus>
<clus scale="  111.158">  1  3  2 -1</clus>
</clustering>
</event>
<event>
 6    0  0.1704145E+002  0.1028270E+03  0.7546771E-02  0.1274461E+00
         21   -1    0    0  505  501  0.00000000000E+00  0.00000000000E+00  0.88374651297E+03  0.88374651297E+03  0.00000000000E+00 0. -1.
         21   -1    0    0  503  502 -0.00000000000E+00 -0.00000000000E+00 -0.15369524249E+03  0.15369524249E+03  0.00000000000E+00 0.  1.
         21    1    1    2  503  504 -0.25020308522E+01  0.64735303494E+02  0.75181895619E+01  0.65218424169E+02  0.00000000000E+00 0.  1.
         21    1    1    2  504  501 -0.77304349942E+01  0.86170434785E+02  0.79246292308E+03  0.79717161760E+03  0.00000000000E+00 0. -1.
         21    1    1    2  505  506  0.53125263072E+01 -0.78668814083E+02 -0.70639894327E+01  0.79163787123E+02  0.00000000000E+00 0.  1.
         21    1    1    2  506  502  0.49199395391E+01 -0.72236924196E+02 -0.62865852721E+02  0.95887926564E+02  0.00000000000E+00 0.  1.
<scales pt_clust_3="64.78364" pt_clust_4="87.73663" pt_clust_5="51.38740" pt_clust_6="51.38740"></scales>
<clustering>
<clus scale="   51.387">  5  6 -1 -1</clus>
<clus scale="   64.784">  2  3  1 -1</clus>
<clus scale="   87.737">  1  4  2 -1</clus>
<clus scale="   87.737">  1  3  2 -1</clus>
</clustering>
</event>
<event>
 6    0  0.1704145E+002  0.1561850E+03  0.7546771E-02  0.1193072E+00
         21   -1    0    0  503  501  0.00000000000E+00  0.00000000000E+00  0.27985122031E+03  0.27985122031E+03  0.00000000000E+00 0.  1.
         21   -1    0    0  504  502 -0.00000000000E+00 -0.00000000000E+00 -0.14708301888E+03  0.14708301888E+03  0.00000000000E+00 0.  1.
         21    1    1    2  503  505 -0.10043619670E+03 -0.42481434183E+02  0.47887716626E+00  0.10905196551E+03  0.00000000000E+00 0.  1.
         21    1    1    2  504  506  0.16263414746E+02 -0.28077263768E+02 -0.18381051641E+02  0.37292016026E+02  0.00000000000E+00 0.  1.
         21    1    1    2  505  502 -0.21638202547E+02 -0.29414719284E+02 -0.30924500611E+02  0.47851460354E+02  0.00000000000E+00 0. -1.
         21    1    1    2  506  501  0.10581098450E+03  0.99973417235E+02  0.18159487652E+03  0.23273879731E+03  0.00000000000E+00 0.  1.
<scales pt_clust_3="37.47324" pt_clust_4="32.44736" pt_clust_5="37.47324" pt_clust_6="144.12922"></scales>
<clustering>
<clus scale="   32.447">  2  4  1 -1</clus>
<clus scale="   37.473">  3  5 -1 -1</clus>
<clus scale="  144.129">  1  6  2 -1</clus>
<clus scale="  144.129">  1  3  2 -1</clus>
</clustering>
</event>
<event>
 6    0  0.1704145E+002  0.1310601E+03  0.7546771E-02  0.1225891E+00
         21   -1    0    0  504  501  0.00000000000E+00  0.00000000000E+00  0.27602493320E+03  0.27602493320E+03  0.00000000000E+00 0. -1.
         21   -1    0    0  505  502 -0.00000000000E+00 -0.00000000000E+00 -0.61169799587E+03  0.61169799587E+03  0.00000000000E+00 0. -1.
         21    1    1    2  503  501  0.58769281103E+02  0.19758932626E+02 -0.25468116723E+03  0.26211970693E+03  0.00000000000E+00 0. -1.
         21    1    1    2  504  506 -0.11934598732E+03 -0.19060409171E+02  0.25095751703E+03  0.27854342434E+03  0.00000000000E+00 0. -1.
         21    1    1    2  505  503  0.32836295840E+02 -0.22581838384E+02 -0.28764039639E+03  0.29038794635E+03  0.00000000000E+00 0. -1.
         21    1    1    2  506  502  0.27740410374E+02  0.21883314929E+02 -0.44309016085E+02  0.56671851446E+02  0.00000000000E+00 0. -1.
<scales pt_clust_3="41.48289" pt_clust_4="120.10112" pt_clust_5="41.48289" pt_clust_6="35.33284"></scales>
<clustering>
<clus scale="   35.333">  2  6  1 -1</clus>
<clus scale="   41.483">  3  5 -1 -1</clus>
<clus scale="  120.101">  1  4  2 -1</clus>
<clus scale="  120.101">  1  3  2 -1</clus>
</clustering>
</event>
<event>
 6    0  0.1704145E+002  0.1393210E+03  0.7546771E-02  0.1214245E+00
         21   -1    0    0  504  501  0.00000000000E+00  0.00000000000E+00  0.65285431371E+03  0.65285431371E+03  0.00000000000E+00 0.  1.
         21   -1    0    0  505  502 -0.00000000000E+00 -0.00000000000E+00 -0.73655221935E+03  0.73655221935E+03  0.00000000000E+00 0. -1.
         21    1    1    2  503  502  0.15233075219E+02 -0.42250773653E+02 -0.39802084583E+02  0.60011502164E+02  0.00000000000E+00 0. -1.
         21    1    1    2  504  503 -0.27665287075E+02  0.68649728886E+02  0.60774944287E+03  0.61223977222E+03  0.00000000000E+00 0.  1.
         21    1    1    2  505  506  0.63048260600E+02 -0.11948999488E+03 -0.56306031385E+03  0.57904219110E+03  0.00000000000E+00 0. -1.
         21    1    1    2  506  501 -0.50616048744E+02  0.93091039648E+02 -0.88584950084E+02  0.13811306757E+03  0.00000000000E+00 0. -1.
<scales pt_clust_3="44.91297" pt_clust_4="73.86779" pt_clust_5="139.32103" pt_clust_6="14000.00000"></scales>
<clustering>
<clus scale="   44.913">  2  3  1 -1</clus>
<clus scale="   73.868">  1  4  2 -1</clus>
<clus scale="  139.321">  2  5  1 -1</clus>
<clus scale="   73.868">  1  3  2 -1</clus>
</clustering>
</event>
<event>
 6    0  0.1704145E+002  0.6876307E+02  0.7546771E-02  0.1364351E+00
         21   -1    0    0  503  501  0.00000000000E+00  0.00000000000E+00  0.89784433348E+02  0.89784433348E+02  0.00000000000E+00 0.  1.
         21   -1    0    0  505  502 -0.00000000000E+00 -0.00000000000E+00 -0.16393471300E+04  0.16393471300E+04  0.00000000000E+00 0.  1.
         21    1    1    2  503  506 -0.45172843958E+02 -0.21086323367E+02  0.71744778400E+02  0.87364363970E+02  0.00000000000E+00 0.  1.
         21    1    1    2  504  502 -0.53774449625E+02 -0.70400064909E+00 -0.84120752245E+03  0.84292483822E+03  0.00000000000E+00 0.  1.
         21    1    1    2  505  501  0.47182936929E+02 -0.57256310593E+02 -0.26707351849E+03  0.27718726327E+03  0.00000000000E+00 0.  1.
         21    1    1    2  506  504  0.51764356653E+02  0.79046634609E+02 -0.51302643411E+03  0.52165509789E+03  0.00000000000E+00 0.  1.
<scales pt_clust_3="49.85197" pt_clust_4="57.61923" pt_clust_5="14000.00000" pt_clust_6="68.76307"></scales>
<clustering>
<clus scale="   49.852">  1  3  2 -1</clus>
<clus scale="   57.619">  2  4  1 -1</clus>
<clus scale="   68.763">  2  6  1 -1</clus>
<clus scale="   49.852">  1  3  2 -1</clus>
</clustering>
</event>
<event>
 6    0  0.2050287E+002  0.2210643E+03  0.7546771E-02  0.1133092E+00
         21   -1    0    0  504  501  0.00000000000E+00  0.00000000000E+00  0.12056024746E+04  0.12056024746E+04  0.00000000000E+00 0.  1.
         21   -1    0    0  505  502 -0.00000000000E+00 -0.00000000000E+00 -0.29239014688E+03  0.29239014688E+03  0.00000000000E+00 0. -1.
         21    1    1    2  503  502  0.64368688605E+02  0.78371205080E+01  0.10580708671E+03  0.12409628572E+03  0.00000000000E+00 0. -1.
         21    1    1    2  504  506  0.11141462228E+02 -0.35238008657E+02  0.49123913912E+03  0.49262738580E+03  0.00000000000E+00 0.  1.
         21    1    1    2  505  501 -0.19504219901E+03  0.51508376649E+02 -0.23906560054E+03  0.31280494501E+03  0.00000000000E+00 0. -1.
         21    1    1    2  506  503  0.11953204818E+03 -0.24107488499E+02  0.55523170247E+03  0.56846400499E+03  0.00000000000E+00 0.  1.
<scales pt_clust_3="64.07785" pt_clust_4="36.95740" pt_clust_5="200.71410" pt_clust_6="64.07785"></scales>
<clustering>
<clus scale="   36.957">  1  4  2 -1</clus>
<clus scale="   64.078">  3  6 -1 -1</clus>
<clus scale="  200.714">  2  5  1 -1</clus>
<clus scale="   36.957">  1  3  2 -1</clus>
</clustering>
</event>
<event>
 6    0  0.1704145E+002  0.3634735E+03  0.7546771E-02  0.1057217E+00
         21   -1    0    0  504  501  0.00000000000E+00  0.00000000000E+00  0.26392967823E+03  0.26392967823E+03  0.00000000000E+00 0.  1.
         21   -1    0    0  506  502 -0.00000000000E+00 -0.00000000000E+00 -0.73167472449E+03  0.73167472449E+03  0.00000000000E+00 0.  1.
         21    1    1    2  503  505 -0.16172997908E+03  0.10715358155E+03 -0.13307241420E+03  0.23525888633E+03  0.00000000000E+00 0.  1.
         21    1    1    2  504  502  0.35589215316E+03 -0.83777760899E+02 -0.69425924658E+01  0.36568584535E+03  0.00000000000E+00 0.  1.
         21    1    1    2  505  501 -0.11941497097E+03  0.35133886029E+02 -0.19881575759E+03  0.23456775291E+03  0.00000000000E+00 0.  1.
         21    1    1    2  506  503 -0.74747203104E+02 -0.58509706682E+02 -0.12891428201E+03  0.16009191814E+03  0.00000000000E+00 0.  1.
<scales pt_clust_3="85.14462" pt_clust_4="347.58295" pt_clust_5="85.14462" pt_clust_6="94.92381"></scales>
<clustering>
<clus scale="   85.145">  3  5 -1 -1</clus>
<clus scale="   94.924">  2  6  1 -1</clus>
<clus scale="  347.583">  1  4  2 -1</clus>
<clus scale="  347.583">  1  3  2 -1</clus>
</clustering>
</event>
<event>
 6    0  0.1704145E+002  0.1284135E+03  0.7546771E-02  0.1229829E+00
         21   -1    0    0  505  501  0.00000000000E+00  0.00000000000E+00  0.53909508075E+03  0.53909508075E+03  0.00000000000E+00 0.  1.
         21   -1    0    0  506  502 -0.00000000000E+00 -0.00000000000E+00 -0.29260127594E+03  0.29260127594E+03  0.00000000000E+00 0.  1.
         21    1    1    2  503  501 -0.26883649233E+02 -0.30148466754E+02  0.46623901062E+03  0.46798555071E+03  0.00000000000E+00 0.  1.
         21    1    1    2  504  502 -0.43037621876E+02  0.36283141326E+02 -0.26098489097E+02  0.62047033566E+02  0.00000000000E+00 0.  1.
         21    1    1    2  505  504 -0.38632968097E+02  0.56183623883E+02  0.33474615548E+01  0.68266472851E+02  0.00000000000E+00 0.  1.
         21    1    1    2  506  503  0.10855423921E+03 -0.62318298455E+02 -0.19699417827E+03  0.23339729956E+03  0.00000000000E+00 0.  1.
<scales pt_clust_3="40.39382" pt_clust_4="32.04465" pt_clust_5="32.04465" pt_clust_6="123.47553"></scales>
<clustering>
<clus scale="   32.045">  4  5 -1 -1</clus>
<clus scale="   40.394">  1  3  2 -1</clus>
<clus scale="  123.476">  2  6  1 -1</clus>
<clus scale="   40.394">  1  3  2 -1</clus>
</clustering>
</event>
<event>
 6    0  0.1704145E+002  0.1855149E+03  0.7546771E-02  0.1162570E+00
         21   -1    0    0  506  501  0.00000000000E+00  0.00000000000E+00  0.41335025875E+03  0.41335025875E+03  0.00000000000E+00 0.  1.
         21   -1    0    0  503  502 -0.00000000000E+00 -0.00000000000E+00 -0.68876602855E+03  0.68876602855E+03  0.00000000000E+00 0.  1.
         21    1    1    2  503  501 -0.53729469540E+02 -0.46362726885E+02 -0.21918245192E+03  0.23038512445E+03  0.00000000000E+00 0.  1.
         21    1    1    2  504  502  0.45942040891E+02 -0.10272757481E+03 -0.37308504718E+03  0.38968715424E+03  0.00000000000E+00 0.  1.
         21    1    1    2  505  504  0.29014453641E+02 -0.27236838294E+02 -0.56206363566E+02  0.68868274159E+02  0.00000000000E+00 0. -1.
         21    1    1    2  506  505 -0.21227024992E+02  0.17632713999E+03  0.37305809286E+03  0.41317573445E+03  0.00000000000E+00 0.  1.
<scales pt_clust_3="70.96730" pt_clust_4="35.04401" pt_clust_5="35.04401" pt_clust_6="175.90631"></scales>
<clustering>
<clus scale="   35.044">  4  5 -1 -1</clus>
<clus scale="   70.967">  2  3  1 -1</clus>
<clus scale="  175.906">  1  6  2 -1</clus>
<clus scale="  175.906">  1  3  2 -1</clus>
</clustering>
</event>
<event>
 6    0  0.1704145E+002  0.1528515E+03  0.7546771E-02  0.1197012E+00
         21   -1    0    0  505  501  0.00000000000E+00  0.00000000000E+00  0.19120920130E+03  0.19120920130E+03  0.00000000000E+00 0.  1.
         21   -1    0    0  504  502 -0.00000000000E+00 -0.00000000000E+00 -0.24371806261E+04  0.24371806261E+04  0.00000000000E+00 0.  1.
         21    1    1    2  503  506 -0.35823511083E+02  0.80003692657E+02 -0.28510775506E+03  0.29827897475E+03  0.00000000000E+00 0.  1.
         21    1    1    2  504  503 -0.42310828810E+02  0.39407185484E+00 -0.65390542387E+03  0.65527296975E+03  0.00000000000E+00 0.  1.
         21    1    1    2  505  502 -0.20582845078E+02  0.46825950857E+02 -0.14551185833E+04  0.14560173127E+04  0.00000000000E+00 0.  1.
         21    1    1    2  506  501  0.98717184972E+02 -0.12722371537E+03  0.14816033747E+03  0.21882057024E+03  0.00000000000E+00 0.  1.
<scales pt_clust_3="14000.00000" pt_clust_4="42.31266" pt_clust_5="72.54240" pt_clust_6="152.85152"></scales>
<clustering>
<clus scale="   42.313">  2  4  1 -1</clus>
<clus scale="   72.542">  2  5  1 -1</clus>
<clus scale="  152.852">  1  6  2 -1</clus>
<clus scale="  152.852">  1  3  2 -1</clus>
</clustering>
</event>
<event>
 6    0  0.1704145E+002  0.1132702E+03  0.7546771E-02  0.1254631E+00
         21   -1    0    0  503  501  0.00000000000E+00  0.00000000000E+00  0.25458400664E+02  0.25458400664E+02  0.00000000000E+00 0. -1.
         21   -1    0    0  504  502 -0.00000000000E+00 -0.00000000000E+00 -0.85326228185E+03  0.85326228185E+03  0.00000000000E+00 0.  1.
         21    1    1    2  503  502  0.19890819299E+02 -0.44447514069E+02 -0.15550546554E+03  0.16295145293E+03  0.00000000000E+00 0. -1.
         21    1    1    2  504  506  0.68045389494E+02  0.36801920699E+02 -0.27912604535E+03  0.28964789934E+03  0.00000000000E+00 0. -1.
         21    1    1    2  505  501 -0.10072848516E+03 -0.27042943850E+02 -0.16660607902E+03  0.19655822064E+03  0.00000000000E+00 0.  1.
         21    1    1    2  506  505  0.12792276369E+02  0.34688537220E+02 -0.22656629128E+03  0.22956310961E+03  0.00000000000E+00 0. -1.
<scales pt_clust_3="48.69524" pt_clust_4="32.49733" pt_clust_5="103.05544" pt_clust_6="32.49733"></scales>
<clustering>
<clus scale="   32.497">  4  6 -1 -1</clus>
<clus scale="   48.695">  2  3  1 -1</clus>
<clus scale="  103.055">  1  5  2 -1</clus>
<clus scale="  103.055">  1  3  2 -1</clus>
</clustering>
</event>
<event>
 6    0  0.1704145E+002  0.1172432E+03  0.7546771E-02  0.1247715E+00
         21   -1    0    0  504  501  0.00000000000E+00  0.00000000000E+00  0.51140001558E+02  0.51140001558E+02  0.00000000000E+00 0.  1.
         21   -1    0    0  505  502 -0.00000000000E+00 -0.00000000000E+00 -0.58293194552E+03  0.58293194552E+03  0.00000000000E+00 0.  1.
         21    1    1    2  503  501  0.10157707154E+02 -0.31737919326E+02  0.12694069356E+02  0.35659696221E+02  0.00000000000E+00 0.  1.
         21    1    1    2  504  506 -0.74977099204E+02 -0.55433684409E+01 -0.27289154478E+03  0.28305845607E+03  0.00000000000E+00 0.  1.
         21    1    1    2  505  503  0.10338006128E+03  0.12165410700E+02 -0.13041653988E+03  0.16686493988E+03  0.00000000000E+00 0.  1.
         21    1    1    2  506  502 -0.38560669226E+02  0.25115877066E+02 -0.14117792866E+03  0.14848885491E+03  0.00000000000E+00 0. -1.
<scales pt_clust_3="33.32378" pt_clust_4="30.35798" pt_clust_5="110.63598" pt_clust_6="30.35798"></scales>
<clustering>
<clus scale="   30.358">  4  6 -1 -1</clus>
<clus scale="   33.324">  1  3  2 -1</clus>
<clus scale="  110.636">  1  5  2 -1</clus>
<clus scale="   33.324">  1  3  2 -1</clus>
</clustering>
</event>
<event>
 6    0  0.1704145E+002  0.1246150E+03  0.7546771E-02  0.1235672E+00
         21   -1    0    0  506  501  0.00000000000E+00  0.00000000000E+00  0.25985342613E+03  0.25985342613E+03  0.00000000000E+00 0.  1.
         21   -1    0    0  504  502 -0.00000000000E+00 -0.00000000000E+00 -0.30211119111E+03  0.30211119111E+03  0.00000000000E+00 0. -1.
         21    1    1    2  503  501  0.10313690853E+03  0.16983385203E+02  0.18577845656E+03  0.21316494129E+03  0.00000000000E+00 0.  1.
         21    1    1    2  504  505 -0.59128900735E+02  0.47629215102E+02 -0.80198402783E+02  0.11043800452E+03  0.00000000000E+00 0. -1.
         21    1    1    2  505  503 -0.10107076536E+03 -0.61610836299E+01 -0.10596947589E+03  0.14657008011E+03  0.00000000000E+00 0. -1.
         21    1    1    2  506  502  0.57062757563E+02 -0.58451516675E+02 -0.41868342867E+02  0.91791591318E+02  0.00000000000E+00 0.  1.
<scales pt_clust_3="107.32078" pt_clust_4="54.84206" pt_clust_5="54.84206" pt_clust_6="81.68683"></scales>
<clustering>
<clus scale="   54.842">  4  5 -1 -1</clus>
<clus scale="   81.687">  2  6  1 -1</clus>
<clus scale="  107.321">  1  3  2 -1</clus>
<clus scale="  107.321">  1  3  2 -1</clus>
</clustering>
</event>
<event>
 6    0  0.1704145E+002  0.9443219E+02  0.7546771E-02  0.1292460E+00
         21   -1    0    0  505  501  0.00000000000E+00  0.00000000000E+00  0.82171033917E+03  0.82171033917E+03  0.00000000000E+00 0. -1.
         21   -1    0    0  503  502 -0.00000000000E+00 -0.00000000000E+00 -0.55759729641E+02  0.55759729641E+02  0.00000000000E+00 0. -1.
         21    1    1    2  503  501  0.27318982803E+02  0.41453080972E+02  0.55730085088E+03  0.55950775074E+03  0.00000000000E+00 0. -1.
         21    1    1    2  504  502 -0.31406660043E+02 -0.11940078657E+02  0.50525127727E+02  0.60677279975E+02  0.00000000000E+00 0. -1.
         21    1    1    2  505  506  0.85444156196E+02 -0.86651727583E+01  0.15007986085E+03  0.17291545240E+03  0.00000000000E+00 0. -1.
         21    1    1    2  506  504 -0.81356478957E+02 -0.20847829557E+02  0.80447700760E+01  0.84369585699E+02  0.00000000000E+00 0. -1.
<scales pt_clust_3="49.05414" pt_clust_4="33.59976" pt_clust_5="14000.00000" pt_clust_6="94.43219"></scales>
<clustering>
<clus scale="   33.600">  2  4  1 -1</clus>
<clus scale="   49.054">  1  3  2 -1</clus>
<clus scale="   94.432">  2  6  1 -1</clus>
<clus scale="   49.054">  1  3  2 -1</clus>
</clustering>
</event>
<event>
 6    0  0.1704145E+002  0.8347917E+02  0.7546771E-02  0.1319458E+00
         21   -1    0    0  503  501  0.00000000000E+00  0.00000000000E+00  0.98336352048E+03  0.98336352048E+03  0.00000000000E+00 0. -1.
         21   -1    0    0  505  502 -0.00000000000E+00 -0.00000000000E+00 -0.17442245272E+03  0.17442245272E+03  0.00000000000E+00 0. -1.
         21    1    1    2  503  502 -0.34863217493E+02  0.24518634990E+01 -0.14928070402E+02  0.38003984719E+02  0.00000000000E+00 0. -1.
         21    1    1    2  504  501 -0.39129816270E+02 -0.22121952817E+02  0.90865827001E+03  0.90976940759E+03  0.00000000000E+00 0. -1.
         21    1    1    2  505  506 -0.36464693690E+02  0.51250857768E+02 -0.70118129039E+02  0.94195946451E+02  0.00000000000E+00 0. -1.
         21    1    1    2  506  504  0.11045772745E+03 -0.31580768449E+02 -0.14671002817E+02  0.11581663444E+03  0.00000000000E+00 0. -1.
<scales pt_clust_3="34.94933" pt_clust_4="45.05972" pt_clust_5="14000.00000" pt_clust_6="83.47917"></scales>
<clustering>
<clus scale="   34.949">  2  3  1 -1</clus>
<clus scale="   45.060">  1  4  2 -1</clus>
<clus scale="   83.479">  1  6  2 -1</clus>
<clus scale="   45.060">  1  3  2 -1</clus>
</clustering>
</event>
<event>
 6    0  0.1704145E+002  0.1239945E+03  0.7546771E-02  0.1236649E+00
         21   -1    0    0  506  501  0.00000000000E+00  0.00000000000E+00  0.22390758726E+02  0.22390758726E+02  0.00000000000E+00 0. -1.
         21   -1    0    0  503  502 -0.00000000000E+00 -0.00000000000E+00 -0.11700428904E+04  0.11700428904E+04  0.00000000000E+00 0. -1.
         21    1    1    2  503  501 -0.84534813962E+01 -0.33310578621E+02 -0.20733246085E+03  0.21016137923E+03  0.00000000000E+00 0. -1.
         21    1    1    2  504  505 -0.52698951330E+02 -0.13952339364E+02 -0.13108991664E+03  0.14197328442E+03  0.00000000000E+00 0. -1.
         21    1    1    2  505  502  0.10646362071E+03  0.89066485444E+02 -0.71027576808E+03  0.72371196487E+03  0.00000000000E+00 0. -1.
         21    1    1    2  506  504 -0.45311187986E+02 -0.41803567458E+02 -0.98953986072E+02  0.11658702058E+03  0.00000000000E+00 0. -1.
<scales pt_clust_3="34.36650" pt_clust_4="32.82538" pt_clust_5="118.97946" pt_clust_6="32.82538"></scales>
<clustering>
<clus scale="   32.825">  4  6 -1 -1</clus>
<clus scale="   34.366">  2  3  1 -1</clus>
<clus scale="  118.979">  2  5  1 -1</clus>
<clus scale="  123.995">  1  3  2 -1</clus>
</clustering>
</event>
<event>
 6    0  0.1704145E+002  0.1310074E+03  0.7546771E-02  0.1225969E+00
         21   -1    0    0  503  501  0.00000000000E+00  0.00000000000E+00  0.63188511908E+03  0.63188511908E+03  0.00000000000E+00 0. -1.
         21   -1    0    0  506  502 -0.00000000000E+00 -0.00000000000E+00 -0.40177519822E+03  0.40177519822E+03  0.00000000000E+00 0. -1.
         21    1    1    2  503  504  0.96178226871E+02  0.88527633355E+02  0.56440948261E+03  0.57934916696E+03  0.00000000000E+00 0. -1.
         21    1    1    2  504  502 -0.17108109966E+03 -0.24104313573E+02 -0.28795101371E+03  0.33580581724E+03  0.00000000000E+00 0. -1.
         21    1    1    2  505  501  0.29897500911E+02 -0.44174885603E+02 -0.40268479504E+01  0.53492958258E+02  0.00000000000E+00 0. -1.
         21    1    1    2  506  505  0.45005371882E+02 -0.20248434178E+02 -0.42321700088E+02  0.65012374847E+02  0.00000000000E+00 0. -1.
<scales pt_clust_3="14000.00000" pt_clust_4="131.00742" pt_clust_5="109.06570" pt_clust_6="44.43910"></scales>
<clustering>
<clus scale="   44.439">  5  6 -1 -1</clus>
<clus scale="  109.066">  2  5  1 -1</clus>
<clus scale="  131.007">  2  4  1 -1</clus>
<clus scale="  131.007">  1  3  2 -1</clus>
</clustering>
</event>
<event>
 6    0  0.1704145E+002  0.9016539E+02  0.7546771E-02  0.1302452E+00
         21   -1    0    0  503  501  0.00000000000E+00  0.00000000000E+00  0.28178889415E+03  0.28178889415E+03  0.00000000000E+00 0.  1.
         21   -1    0    0  504  502 -0.00000000000E+00 -0.00000000000E+00 -0.40916811387E+03  0.40916811387E+03  0.00000000000E+00 0.  1.
         21    1    1    2  503  506 -0.76466044487E+02 -0.15480463545E+02  0.24883490707E+03  0.26077866417E+03  0.00000000000E+00 0.  1.
         21    1    1    2  504  501  0.32688823095E+02 -0.68626283390E+02 -0.59822104994E+02  0.96730606186E+02  0.00000000000E+00 0. -1.
         21    1    1    2  505  502  0.73455254486E+01  0.59466411762E+02 -0.20840438792E+03  0.21684695012E+03  0.00000000000E+00 0.  1.
         21    1    1    2  506  505  0.36431695943E+02  0.24640335174E+02 -0.10798763387E+03  0.11660078754E+03  0.00000000000E+00 0.  1.
<scales pt_clust_3="77.69624" pt_clust_4="76.01399" pt_clust_5="39.19689" pt_clust_6="39.19689"></scales>
<clustering>
<clus scale="   39.197">  5  6 -1 -1</clus>
<clus scale="   76.014">  2  4  1 -1</clus>
<clus scale="   77.696">  1  3  2 -1</clus>
<clus scale="   77.696">  1  3  2 -1</clus>
</clustering>
</event>
<event>
 6    0  0.1704145E+002  0.1811521E+03  0.7546771E-02  0.1166693E+00
         21   -1    0    0  502  501  0.00000000000E+00  0.00000000000E+00  0.30003647610E+03  0.30003647610E+03  0.00000000000E+00 0. -1.
         21   -1    0    0  503  502 -0.00000000000E+00 -0.00000000000E+00 -0.33400735439E+03  0.33400735439E+03  0.00000000000E+00 0. -1.
         21    1    1    2  503  505  0.69773488557E+02  0.33164311470E+02 -0.41450409618E+02  0.87671818266E+02  0.00000000000E+00 0. -1.
         21    1    1    2  504  506  0.42260766241E+02 -0.24926342276E+02 -0.98203456441E+02  0.10977802038E+03  0.00000000000E+00 0. -1.
         21    1    1    2  505  504  0.63701540772E+02  0.32689530453E+02 -0.12480081139E+03  0.14388097241E+03  0.00000000000E+00 0. -1.
         21    1    1    2  506  501 -0.17573579557E+03 -0.40927499647E+02  0.23048379915E+03  0.29271301943E+03  0.00000000000E+00 0. -1.
<scales pt_clust_3="77.25420" pt_clust_4="47.72417" pt_clust_5="47.72417" pt_clust_6="171.73342"></scales>
<clustering>
<clus scale="   47.724">  4  5 -1 -1</clus>
<clus scale="   77.254">  2  3  1 -1</clus>
<clus scale="  171.733">  1  6  2 -1</clus>
<clus scale="  171.733">  1  3  2 -1</clus>
</clustering>
</event>
<event>
 6    0  0.1704145E+002  0.1202522E+03  0.7546771E-02  0.1242682E+00
         21   -1    0    0  506  501  0.00000000000E+00  0.00000000000E+00  0.10869314687E+03  0.10869314687E+03  0.00000000000E+00 0.  1.
         21   -1    0    0  504  502 -0.00000000000E+00 -0.00000000000E+00 -0.60950442742E+03  0.60950442742E+03  0.00000000000E+00 0.  1.
         21    1    1    2  503  505  0.76865409305E+02 -0.60750316458E+02 -0.30784993196E+02  0.10269667913E+03  0.00000000000E+00 0.  1.
         21    1    1    2  504  503 -0.87940001710E+02  0.43854105698E+02 -0.34461016355E+03  0.35834730543E+03  0.00000000000E+00 0.  1.
         21    1    1    2  505  501  0.15402972955E+02 -0.67559388241E+02  0.33629952898E+02  0.77022699558E+02  0.00000000000E+00 0.  1.
         21    1    1    2  506  502 -0.43283805499E+01  0.84455599001E+02 -0.15904607670E+03  0.18013089018E+03  0.00000000000E+00 0.  1.
<scales pt_clust_3="120.25218" pt_clust_4="14000.00000" pt_clust_5="69.29302" pt_clust_6="71.12113"></scales>
<clustering>
<clus scale="   69.293">  1  5  2 -1</clus>
<clus scale="   71.121">  2  6  1 -1</clus>
<clus scale="  120.252">  1  3  2 -1</clus>
<clus scale="   69.293">  1  3  2 -1</clus>
</clustering>
</event>
<event>
 6    0  0.1704145E+002  0.2060893E+03  0.7546771E-02  0.1144701E+00
         21   -1    0    0  506  501  0.00000000000E+00  0.00000000000E+00  0.14157006229E+04  0.14157006229E+04  0.00000000000E+00 0.  1.
         21   -1    0    0  505  502 -0.00000000000E+00 -0.00000000000E+00 -0.16048565050E+03  0.16048565050E+03  0.00000000000E+00 0.  1.
         21    1    1    2  503  504 -0.40467970608E+02 -0.50975638747E+02  0.90262308379E+02  0.11128098088E+03  0.00000000000E+00 0. -1.
         21    1    1    2  504  501  0.98722944399E+02  0.86723650767E+02  0.11089069326E+04  0.11166654810E+04  0.00000000000E+00 0.  1.
         21    1    1    2  505  503 -0.15458734957E+03 -0.13490242796E+03  0.40403163030E+02  0.20911319733E+03  0.00000000000E+00 0.  1.
         21    1    1    2  506  502  0.96332375774E+02  0.99154415936E+02  0.15642568390E+02  0.13912661416E+03  0.00000000000E+00 0.  1.
<scales pt_clust_3="64.17261" pt_clust_4="131.40476" pt_clust_5="64.17261" pt_clust_6="171.72963"></scales>
<clustering>
<clus scale="   64.173">  3  5 -1 -1</clus>
<clus scale="  131.405">  1  4  2 -1</clus>
<clus scale="  171.730">  2  6  1 -1</clus>
<clus scale="  131.405">  1  3  2 -1</clus>
</clustering>
</event>
<event>
 6    0  0.1704145E+002  0.1262727E+03  0.7546771E-02  0.1233094E+00
         21   -1    0    0  506  501  0.00000000000E+00  0.00000000000E+00  0.87514291390E+03  0.87514291390E+03  0.00000000000E+00 0. -1.
         21   -1    0    0  505  502 -0.00000000000E+00 -0.00000000000E+00 -0.67828402686E+02  0.67828402686E+02  0.00000000000E+00 0.  1.
         21    1    1    2  503  502  0.13795880852E+01  0.60393896018E+02 -0.11139282579E+02  0.61428084423E+02  0.00000000000E+00 0.  1.
         21    1    1    2  504  503  0.67525171760E+01  0.64610690633E+02  0.20199762067E+02  0.68030641772E+02  0.00000000000E+00 0.  1.
         21    1    1    2  505  501  0.17451854288E+01 -0.90937394498E+02  0.73807501808E+03  0.74365811211E+03  0.00000000000E+00 0. -1.
         21    1    1    2  506  504 -0.98772906900E+01 -0.34067192154E+02  0.60179013636E+02  0.69854478273E+02  0.00000000000E+00 0. -1.
<scales pt_clust_3="30.26787" pt_clust_4="30.26787" pt_clust_5="122.30941" pt_clust_6="35.47019"></scales>
<clustering>
<clus scale="   30.268">  3  4 -1 -1</clus>
<clus scale="   35.470">  1  6  2 -1</clus>
<clus scale="  122.309">  1  5  2 -1</clus>
<clus scale="   35.470">  1  3  2 -1</clus>
</clustering>
</event>
<event>
 6    0  0.1704145E+002  0.2089753E+03  0.7546771E-02  0.1142380E+00
         21   -1    0    0  506  501  0.00000000000E+00  0.00000000000E+00  0.21878553296E+03  0.21878553296E+03  0.00000000000E+00 0.  1.
         21   -1    0    0  505  502 -0.00000000000E+00 -0.00000000000E+00 -0.26335755398E+03  0.26335755398E+03  0.00000000000E+00 0.  1.
         21    1    1    2  503  501  0.35238291958E+01 -0.43618747853E+02 -0.13133821325E+02  0.45689274442E+02  0.00000000000E+00 0. -1.
         21    1    1    2  504  503  0.10067441915E+03 -0.12747162454E+03  0.78257243617E+02  0.18030127541E+03  0.00000000000E+00 0.  1.
         21    1    1    2  505  504 -0.56499990728E+02  0.17294091245E+03 -0.73390807410E+02  0.19618108666E+03  0.00000000000E+00 0.  1.
         21    1    1    2  506  502 -0.47698257621E+02 -0.18505400585E+01 -0.36304635896E+02  0.59971450425E+02  0.00000000000E+00 0.  1.
<scales pt_clust_3="42.49048" pt_clust_4="42.49048" pt_clust_5="192.27371" pt_clust_6="47.73414"></scales>
<clustering>
<clus scale="   42.490">  3  4 -1 -1</clus>
<clus scale="   47.734">  2  6  1 -1</clus>
<clus scale="  192.274">  2  5  1 -1</clus>
<clus scale="  208.975">  1  3  2 -1</clus>
</clustering>
</event>
<event>
 6    0  0.1704145E+002  0.3306823E+03  0.7546771E-02  0.1070835E+00
         21   -1    0    0  504  501  0.00000000000E+00  0.00000000000E+00  0.20708245875E+04  0.20708245875E+04  0.00000000000E+00 0.  1.
         21   -1    0    0  506  502 -0.00000000000E+00 -0.00000000000E+00 -0.51344347649E+02  0.51344347649E+02  0.00000000000E+00 0.  1.
         21    1    1    2  503  502  0.20285404633E+03 -0.17349034371E+03  0.83515627442E+03  0.87677515144E+03  0.00000000000E+00 0.  1.
         21    1    1    2  504  503  0.52710887573E+02 -0.21254017327E+01  0.20813864136E+03  0.21471993160E+03  0.00000000000E+00 0.  1.
         21    1    1    2  505  501 -0.11667010109E+02  0.52037872766E+02  0.22625426291E+03  0.23245440588E+03  0.00000000000E+00 0.  1.
         21    1    1    2  506  505 -0.24389792379E+03  0.12357787268E+03  0.74993106116E+03  0.79821944623E+03  0.00000000000E+00 0.  1.
<scales pt_clust_3="320.77599" pt_clust_4="36.50531" pt_clust_5="50.73407" pt_clust_6="50.73407"></scales>
<clustering>
<clus scale="   36.505">  3  4 -1 -1</clus>
<clus scale="   50.734">  5  6 -1 -1</clus>
<clus scale="  320.776">  1  3  2 -1</clus>
<clus scale="  320.776">  1  3  2 -1</clus>
</clustering>
</event>
<event>
 6    0  0.1704145E+002  0.9923634E+02  0.7546771E-02  0.1281910E+00
         21   -1    0    0  506  501  0.00000000000E+00  0.00000000000E+00  0.54392202412E+02  0.54392202412E+02  0.00000000000E+00 0.  1.
         21   -1    0    0  503  502 -0.00000000000E+00 -0.00000000000E+00 -0.43107082285E+03  0.43107082285E+03  0.00000000000E+00 0.  1.
         21    1    1    2  503  505 -0.26243762552E+02  0.27401660243E+02 -0.85799852492E+02  0.93814714969E+02  0.00000000000E+00 0. -1.
         21    1    1    2  504  502 -0.52962908033E+02 -0.77631487582E+02 -0.51314216672E+02  0.10707411603E+03  0.00000000000E+00 0.  1.
         21    1    1    2  505  501  0.10748907699E+03  0.35342755817E+02 -0.21918642928E+03  0.24666921746E+03  0.00000000000E+00 0.  1.
         21    1    1    2  506  504 -0.28282406403E+02  0.14887071522E+02 -0.20378121990E+02  0.37904976801E+02  0.00000000000E+00 0.  1.
<scales pt_clust_3="40.61400" pt_clust_4="99.23634" pt_clust_5="14000.00000" pt_clust_6="31.96122"></scales>
<clustering>
<clus scale="   31.961">  1  6  2 -1</clus>
<clus scale="   40.614">  2  3  1 -1</clus>
<clus scale="   99.236">  1  4  2 -1</clus>
<clus scale="   31.961">  1  3  2 -1</clus>
</clustering>
</event>
<event>
 6    0  0.1704145E+002  0.2098682E+03  0.7546771E-02  0.1141670E+00
         21   -1    0    0  506  501  0.00000000000E+00  0.00000000000E+00  0.53457697865E+02  0.53457697865E+02  0.00000000000E+00 0. -1.
         21   -1    0    0  505  502 -0.00000000000E+00 -0.00000000000E+00 -0.21881698628E+04  0.21881698628E+04  0.00000000000E+00 0. -1.
         21    1    1    2  503  504  0.12100430454E+02 -0.19126812854E+03 -0.13218894234E+04  0.13357101351E+04  0.00000000000E+00 0. -1.
         21    1    1    2  504  501 -0.45804832545E+02 -0.33017935566E+02 -0.81641134686E+02  0.99265007058E+02  0.00000000000E+00 0. -1.
         21    1    1    2  505  503  0.60724459361E+02 -0.77575064794E+01 -0.37979052765E+03  0.38469271342E+03  0.00000000000E+00 0. -1.
         21    1    1    2  506  502 -0.27020057271E+02  0.23204357059E+03 -0.35139107926E+03  0.42195970510E+03  0.00000000000E+00 0. -1.
<scales pt_clust_3="14000.00000" pt_clust_4="56.46474" pt_clust_5="58.99120" pt_clust_6="209.86816"></scales>
<clustering>
<clus scale="   56.465">  1  4  2 -1</clus>
<clus scale="   58.991">  2  5  1 -1</clus>
<clus scale="  209.868">  1  6  2 -1</clus>
<clus scale="   56.465">  1  3  2 -1</clus>
</clustering>
</event>
<event>
 6    0  0.1704145E+002  0.8734718E+02  0.7546771E-02  0.1309406E+00
         21   -1    0    0  505  501  0.00000000000E+00  0.00000000000E+00  0.28077129593E+03  0.28077129593E+03  0.00000000000E+00 0. -1.
         21   -1    0    0  506  502 -0.00000000000E+00 -0.00000000000E+00 -0.10285181729E+04  0.10285181729E+04  0.00000000000E+00 0.  1.
         21    1    1    2  503  502 -0.10778976829E+02  0.56051392373E+02 -0.12710173008E+03  0.13932980557E+03  0.00000000000E+00 0. -1.
         21    1    1    2  504  503 -0.11710658150E+02 -0.10312356040E+03 -0.76861890785E+03  0.77559437448E+03  0.00000000000E+00 0.  1.
         21    1    1    2  505  504  0.47717747131E+01  0.87066574006E+02  0.25993046199E+03  0.27416637870E+03  0.00000000000E+00 0. -1.
         21    1    1    2  506  501  0.17717860266E+02 -0.39994405979E+02 -0.11195670107E+03  0.12019891013E+03  0.00000000000E+00 0. -1.
<scales pt_clust_3="50.87612" pt_clust_4="87.34718" pt_clust_5="14000.00000" pt_clust_6="43.74329"></scales>
<clustering>
<clus scale="   43.743">  2  6  1 -1</clus>
<clus scale="   50.876">  2  3  1 -1</clus>
<clus scale="   87.347">  2  4  1 -1</clus>
<clus scale="   87.347">  1  3  2 -1</clus>
</clustering>
</event>
<event>
 6    0  0.1704145E+002  0.1437591E+03  0.7546771E-02  0.1208358E+00
         21   -1    0    0  505  501  0.00000000000E+00  0.00000000000E+00  0.16646321189E+04  0.16646321189E+04  0.00000000000E+00 0.  1.
         21   -1    0    0  504  502 -0.00000000000E+00 -0.00000000000E+00 -0.16684203652E+02  0.16684203652E+02  0.00000000000E+00 0.  1.
         21    1    1    2  503  501  0.36813791141E+02  0.94445103204E+01  0.19541487666E+03  0.19907643762E+03  0.00000000000E+00 0.  1.
         21    1    1    2  504  506 -0.53678165165E+02  0.72261231779E+02  0.52328863418E+03  0.53097459986E+03  0.00000000000E+00 0.  1.
         21    1    1    2  505  502  0.24900270867E+02 -0.13651663982E+03  0.51637966555E+03  0.53470064094E+03  0.00000000000E+00 0.  1.
         21    1    1    2  506  503 -0.80358968424E+01  0.54810897716E+02  0.41286473882E+03  0.41656464410E+03  0.00000000000E+00 0.  1.
<scales pt_clust_3="38.00597" pt_clust_4="30.29679" pt_clust_5="138.47441" pt_clust_6="30.29679"></scales>
<clustering>
<clus scale="   30.297">  4  6 -1 -1</clus>
<clus scale="   38.006">  1  3  2 -1</clus>
<clus scale="  138.474">  2  5  1 -1</clus>
<clus scale="   38.006">  1  3  2 -1</clus>
</clustering>
</event>
<event>
 6    0  0.1704146E+002  0.7400845E+02  0.7546771E-02  0.1346969E+00
         21   -1    0    0  505  501  0.00000000000E+00  0.00000000000E+00  0.17340063659E+03  0.17340063659E+03  0.00000000000E+00 0.  1.
         21   -1    0    0  504  502 -0.00000000000E+00 -0.00000000000E+00 -0.14974130701E+04  0.14974130701E+04  0.00000000000E+00 0.  1.
         21    1    1    2  503  502  0.46705324328E+02  0.29057434150E+02 -0.99786761786E+03  0.99938256167E+03  0.00000000000E+00 0.  1.
         21    1    1    2  504  501  0.17612815943E+02 -0.28665268576E+02 -0.57836290661E+02  0.66909980014E+02  0.00000000000E+00 0.  1.
         21    1    1    2  505  506 -0.13971306736E+02 -0.72913022967E+02  0.15512898229E+03  0.17197821803E+03  0.00000000000E+00 0.  1.
         21    1    1    2  506  503 -0.50346833535E+02  0.72520857392E+02 -0.42343750729E+03  0.43254294698E+03  0.00000000000E+00 0.  1.
<scales pt_clust_3="59.66142" pt_clust_4="33.64385" pt_clust_5="74.00845" pt_clust_6="14000.00000"></scales>
<clustering>
<clus scale="   33.644">  2  4  1 -1</clus>
<clus scale="   59.661">  2  3  1 -1</clus>
<clus scale="   74.008">  1  5  2 -1</clus>
<clus scale="   74.008">  1  3  2 -1</clus>
</clustering>
</event>
<event>
 6    0  0.1704145E+002  0.2106409E+03  0.7546771E-02  0.1141059E+00
         21   -1    0    0  505  501  0.00000000000E+00  0.00000000000E+00  0.15199271269E+04  0.15199271269E+04  0.00000000000E+00 0.  1.
         21   -1    0    0  506  502 -0.00000000000E+00 -0.00000000000E+00 -0.61690504259E+02  0.61690504259E+02  0.00000000000E+00 0.  1.
         21    1    1    2  503  502 -0.19618377337E+03  0.77383177922E+02  0.34542456405E+03  0.40471515738E+03  0.00000000000E+00 0.  1.
         21    1    1    2  504  503 -0.23416786117E+02 -0.44319316346E+02  0.14872909383E+03  0.15694868915E+03  0.00000000000E+00 0.  1.
         21    1    1    2  505  504  0.16927822616E+02  0.25165173711E+02  0.58803806402E+03  0.58881966839E+03  0.00000000000E+00 0. -1.
         21    1    1    2  506  501  0.20267273687E+03 -0.58229035286E+02  0.37604490078E+03  0.43113411629E+03  0.00000000000E+00 0.  1.
<scales pt_clust_3="210.64094" pt_clust_4="45.18005" pt_clust_5="30.32882" pt_clust_6="14000.00000"></scales>
<clustering>
<clus scale="   30.329">  1  5  2 -1</clus>
<clus scale="   45.180">  1  4  2 -1</clus>
<clus scale="  210.641">  2  3  1 -1</clus>
<clus scale="   30.329">  1  3  2 -1</clus>
</clustering>
</event>
<event>
 6    0  0.1704145E+002  0.1384242E+03  0.7546771E-02  0.1215465E+00
         21   -1    0    0  503  501  0.00000000000E+00  0.00000000000E+00  0.78165448750E+03  0.78165448750E+03  0.00000000000E+00 0. -1.
         21   -1    0    0  504  502 -0.00000000000E+00 -0.00000000000E+00 -0.49363468813E+02  0.49363468813E+02  0.00000000000E+00 0. -1.
         21    1    1    2  503  505  0.64713612131E+01  0.30754365793E+02  0.36257603330E+03  0.36393555673E+03  0.00000000000E+00 0. -1.
         21    1    1    2  504  506 -0.60661541219E+02 -0.14360655448E+02  0.85185844727E+02  0.10555888949E+03  0.00000000000E+00 0. -1.
         21    1    1    2  505  502  0.12229327829E+03 -0.29554766906E+00  0.26007668970E+03  0.28739453333E+03  0.00000000000E+00 0. -1.
         21    1    1    2  506  501 -0.68103098282E+02 -0.16098162676E+02  0.24452450954E+02  0.74128976755E+02  0.00000000000E+00 0. -1.
<scales pt_clust_3="31.42785" pt_clust_4="49.01784" pt_clust_5="128.07093" pt_clust_6="49.01784"></scales>
<clustering>
<clus scale="   31.428">  1  3  2 -1</clus>
<clus scale="   49.018">  4  6 -1 -1</clus>
<clus scale="  128.071">  1  5  2 -1</clus>
<clus scale="   31.428">  1  3  2 -1</clus>
</clustering>
</event>
<event>
 6    0  0.3220846E+002  0.1445272E+03  0.7546771E-02  0.1207364E+00
         21   -1    0    0  505  501  0.00000000000E+00  0.00000000000E+00  0.74395437701E+03  0.74395437701E+03  0.00000000000E+00 0.  1.
         21   -1    0    0  503  502 -0.00000000000E+00 -0.00000000000E+00 -0.73643289785E+03  0.73643289785E+03  0.00000000000E+00 0.  1.
         21    1    1    2  503  504 -0.24714198404E+02  0.52837017653E+02 -0.10804453162E+03  0.12278502698E+03  0.00000000000E+00 0.  1.
         21    1    1    2  504  501  0.48751505640E+01  0.31108534426E+02  0.81040205898E+01  0.32514353090E+02  0.00000000000E+00 0. -1.
         21    1    1    2  505  506  0.38527513796E+02 -0.17046863906E+03  0.70229014153E+03  0.72370945075E+03  0.00000000000E+00 0.  1.
         21    1    1    2  506  502 -0.18688465956E+02  0.86523086985E+02 -0.59482815133E+03  0.60137844404E+03  0.00000000000E+00 0.  1.
<scales pt_clust_3="58.59754" pt_clust_4="31.48822" pt_clust_5="14000.00000" pt_clust_6="144.52719"></scales>
<clustering>
<clus scale="   31.488">  1  4  2 -1</clus>
<clus scale="   58.598">  2  3  1 -1</clus>
<clus scale="  144.527">  2  6  1 -1</clus>
<clus scale="   31.488">  1  3  2 -1</clus>
</clustering>
</event>
<event>
 6    0  0.1704145E+002  0.1245597E+03  0.7546771E-02  0.1235759E+00
         21   -1    0    0  504  501  0.00000000000E+00  0.00000000000E+00  0.12226806636E+04  0.12226806636E+04  0.00000000000E+00 0.  1.
         21   -1    0    0  501  502 -0.00000000000E+00 -0.00000000000E+00 -0.11978590220E+03  0.11978590220E+03  0.00000000000E+00 0. -1.
         21    1    1    2  503  505 -0.10550345978E+03  0.92091499193E+01  0.18644693042E+03  0.21442538640E+03  0.00000000000E+00 0.  1.
         21    1    1    2  504  503  0.47420062602E+01 -0.69368040895E+02  0.98131534947E+03  0.98377549615E+03  0.00000000000E+00 0.  1.
         21    1    1    2  505  506  0.14895436751E+02  0.36801899914E+02 -0.23482429402E+02  0.46126764074E+02  0.00000000000E+00 0. -1.
         21    1    1    2  506  502  0.85866016767E+02  0.23356991061E+02 -0.41385089067E+02  0.98138919212E+02  0.00000000000E+00 0. -1.
<scales pt_clust_3="112.61563" pt_clust_4="69.52993" pt_clust_5="35.55132" pt_clust_6="35.55132"></scales>
<clustering>
<clus scale="   35.551">  5  6 -1 -1</clus>
<clus scale="   69.530">  1  4  2 -1</clus>
<clus scale="  112.616">  1  3  2 -1</clus>
<clus scale="   69.530">  1  3  2 -1</clus>
</clustering>
</event>
<event>
 6    0  0.1704145E+002  0.8649035E+02  0.7546771E-02  0.1311580E+00
         21   -1    0    0  503  501  0.00000000000E+00  0.00000000000E+00  0.22586366812E+03  0.22586366812E+03  0.00000000000E+00 0.  1.
         21   -1    0    0  504  502 -0.00000000000E+00 -0.00000000000E+00 -0.29127062202E+03  0.29127062202E+03  0.00000000000E+00 0. -1.
         21    1    1    2  503  505  0.39334659065E+02  0.57807158035E+02  0.16917212973E+03  0.18305215760E+03  0.00000000000E+00 0.  1.
         21    1    1    2  504  506  0.32418479482E+02 -0.15622323052E+01 -0.70977367434E+02  0.78046044548E+02  0.00000000000E+00 0. -1.
         21    1    1    2  505  502 -0.12819098563E+03 -0.25555039771E+02 -0.12623063507E+03  0.18171450708E+03  0.00000000000E+00 0. -1.
         21    1    1    2  506  501  0.56437847081E+02 -0.30689885959E+02 -0.37371081130E+02  0.74321580904E+02  0.00000000000E+00 0. -1.
<scales pt_clust_3="70.46868" pt_clust_4="32.45610" pt_clust_5="14000.00000" pt_clust_6="86.49035"></scales>
<clustering>
<clus scale="   32.456">  2  4  1 -1</clus>
<clus scale="   70.469">  1  3  2 -1</clus>
<clus scale="   86.490">  1  6  2 -1</clus>
<clus scale="   70.469">  1  3  2 -1</clus>
</clustering>
</event>
<event>
 6    0  0.1704145E+002  0.1265081E+03  0.7546771E-02  0.1232731E+00
         21   -1    0    0  506  501  0.00000000000E+00  0.00000000000E+00  0.91090848696E+02  0.91090848696E+02  0.00000000000E+00 0.  1.
         21   -1    0    0  503  502 -0.00000000000E+00 -0.00000000000E+00 -0.10556683930E+04  0.10556683930E+04  0.00000000000E+00 0. -1.
         21    1    1    2  503  501 -0.19189958870E+02 -0.58683554357E+02 -0.55702879755E+01  0.61992275176E+02  0.00000000000E+00 0. -1.
         21    1    1    2  504  505 -0.89549249628E+02  0.23129863098E+02 -0.57929058437E+03  0.58662734322E+03  0.00000000000E+00 0. -1.
         21    1    1    2  505  502 -0.40552325137E+02 -0.43998903015E+02 -0.30908195922E+03  0.31482066650E+03  0.00000000000E+00 0. -1.
         21    1    1    2  506  504  0.14929153363E+03  0.79552594273E+02 -0.70634712706E+02  0.18331895677E+03  0.00000000000E+00 0.  1.
<scales pt_clust_3="64.22350" pt_clust_4="126.50806" pt_clust_5="59.83640" pt_clust_6="14000.00000"></scales>
<clustering>
<clus scale="   59.836">  2  5  1 -1</clus>
<clus scale="   64.223">  1  3  2 -1</clus>
<clus scale="  126.508">  2  4  1 -1</clus>
<clus scale="   64.223">  1  3  2 -1</clus>
</clustering>
</event>
<event>
 6    0  0.1704145E+002  0.1462721E+03  0.7546771E-02  0.1205130E+00
         21   -1    0    0  506  501  0.00000000000E+00  0.00000000000E+00  0.90950225252E+02  0.90950225252E+02  0.00000000000E+00 0.  1.
         21   -1    0    0  505  502 -0.00000000000E+00 -0.00000000000E+00 -0.16881340026E+04  0.16881340026E+04  0.00000000000E+00 0.  1.
         21    1    1    2  503  501 -0.11497154162E+03 -0.96950895030E+02  0.13100062417E+02  0.15096205836E+03  0.00000000000E+00 0.  1.
         21    1    1    2  504  503  0.96183790213E+02  0.31227781432E+02 -0.87110927753E+03  0.87695944560E+03  0.00000000000E+00 0.  1.
         21    1    1    2  505  504 -0.32290682412E+02  0.31406409235E+02 -0.55815768728E+03  0.55997236948E+03  0.00000000000E+00 0.  1.
         21    1    1    2  506  502  0.51078433819E+02  0.34316704363E+02 -0.18101687494E+03  0.19119035439E+03  0.00000000000E+00 0.  1.
<scales pt_clust_3="14000.00000" pt_clust_4="146.27208" pt_clust_5="45.04499" pt_clust_6="60.44286"></scales>
<clustering>
<clus scale="   45.045">  2  5  1 -1</clus>
<clus scale="   60.443">  2  6  1 -1</clus>
<clus scale="  146.272">  2  4  1 -1</clus>
<clus scale="  146.272">  1  3  2 -1</clus>
</clustering>
</event>
<event>
 6    0  0.1704145E+002  0.7366937E+02  0.7546771E-02  0.1348042E+00
         21   -1    0    0  503  501  0.00000000000E+00  0.00000000000E+00  0.87489321500E+02  0.87489321500E+02  0.00000000000E+00 0. -1.
         21   -1    0    0  506  502 -0.00000000000E+00 -0.00000000000E+00 -0.14031839086E+04  0.14031839086E+04  0.00000000000E+00 0.  1.
         21    1    1    2  503  502 -0.10916252233E+02  0.41157157467E+02  0.71047296249E+02  0.82829912941E+02  0.00000000000E+00 0. -1.
         21    1    1    2  504  505 -0.71252448458E+02  0.55568582648E+02 -0.46668327484E+03  0.47535045788E+03  0.00000000000E+00 0.  1.
         21    1    1    2  505  501  0.30797601971E+02 -0.77730367122E+02 -0.35171092367E+03  0.36151220738E+03  0.00000000000E+00 0. -1.
         21    1    1    2  506  504  0.51371098720E+02 -0.18995372994E+02 -0.56834768489E+03  0.57098065195E+03  0.00000000000E+00 0.  1.
<scales pt_clust_3="42.58023" pt_clust_4="14000.00000" pt_clust_5="73.66937" pt_clust_6="51.89410"></scales>
<clustering>
<clus scale="   42.580">  1  3  2 -1</clus>
<clus scale="   51.894">  2  6  1 -1</clus>
<clus scale="   73.669">  1  5  2 -1</clus>
<clus scale="   42.580">  1  3  2 -1</clus>
</clustering>
</event>
<event>
 6    0  0.1704145E+002  0.1408224E+03  0.7546771E-02  0.1212227E+00
         21   -1    0    0  506  501  0.00000000000E+00  0.00000000000E+00  0.43016665278E+03  0.43016665278E+03  0.00000000000E+00 0. -1.
         21   -1    0    0  505  502 -0.00000000000E+00 -0.00000000000E+00 -0.23158284791E+03  0.23158284791E+03  0.00000000000E+00 0. -1.
         21    1    1    2  503  501  0.40693855595E+02  0.44619871897E+02  0.21872030454E+03  0.22690415260E+03  0.00000000000E+00 0. -1.
         21    1    1    2  504  503 -0.12683738837E+03  0.28278853488E+02  0.66316056051E+02  0.14589460557E+03  0.00000000000E+00 0. -1.
         21    1    1    2  505  504  0.10026862811E+03 -0.11103811494E+03 -0.15105950004E+03  0.21260816849E+03  0.00000000000E+00 0. -1.
         21    1    1    2  506  502 -0.14125095334E+02  0.38139389557E+02  0.64606944328E+02  0.76342574029E+02  0.00000000000E+00 0. -1.
<scales pt_clust_3="75.35157" pt_clust_4="14000.00000" pt_clust_5="140.82243" pt_clust_6="40.67101"></scales>
<clustering>
<clus scale="   40.671">  1  6  2 -1</clus>
<clus scale="   75.352">  1  3  2 -1</clus>
<clus scale="  140.822">  2  5  1 -1</clus>
<clus scale="   40.671">  1  3  2 -1</clus>
</clustering>
</event>
<event>
 6    0  0.1704145E+002  0.1049975E+03  0.7546771E-02  0.1270125E+00
         21   -1    0    0  504  501  0.00000000000E+00  0.00000000000E+00  0.16104782738E+03  0.16104782738E+03  0.00000000000E+00 0.  1.
         21   -1    0    0  501  502 -0.00000000000E+00 -0.00000000000E+00 -0.68605806723E+03  0.68605806723E+03  0.00000000000E+00 0. -1.
         21    1    1    2  503  505 -0.11729529799E+03  0.17524773688E+02 -0.17959022724E+03  0.21521606433E+03  0.00000000000E+00 0. -1.
         21    1    1    2  504  503  0.15335699436E+02  0.31203699789E+02  0.13056308475E+03  0.13511318832E+03  0.00000000000E+00 0.  1.
         21    1    1    2  505  506  0.65097813184E+02 -0.72338703295E+02 -0.35582873687E+03  0.36889660239E+03  0.00000000000E+00 0. -1.
         21    1    1    2  506  502  0.36861785373E+02  0.23610229818E+02 -0.12015436050E+03  0.12788003957E+03  0.00000000000E+00 0.  1.
<scales pt_clust_3="14000.00000" pt_clust_4="34.76859" pt_clust_5="104.99751" pt_clust_6="47.91119"></scales>
<clustering>
<clus scale="   34.769">  1  4  2 -1</clus>
<clus scale="   47.911">  2  6  1 -1</clus>
<clus scale="  104.998">  2  5  1 -1</clus>
<clus scale="   34.769">  1  3  2 -1</clus>
</clustering>
</event>
<event>
 6    0  0.1704145E+002  0.1068469E+03  0.7546771E-02  0.1266523E+00
         21   -1    0    0  504  501  0.00000000000E+00  0.00000000000E+00  0.84649752593E+02  0.84649752593E+02  0.00000000000E+00 0.  1.
         21   -1    0    0  505  502 -0.00000000000E+00 -0.00000000000E+00 -0.10434559109E+04  0.10434559109E+04  0.00000000000E+00 0.  1.
         21    1    1    2  503  502  0.58003438391E+02  0.56479444829E+02 -0.72667496606E+03  0.73117086434E+03  0.00000000000E+00 0.  1.
         21    1    1    2  504  503 -0.33920944910E+02 -0.13112737992E+03 -0.62666217425E+02  0.14923831638E+03  0.00000000000E+00 0.  1.
         21    1    1    2  505  506 -0.62114629827E+02  0.51200593536E+02 -0.18389791959E+03  0.20074404810E+03  0.00000000000E+00 0. -1.
         21    1    1    2  506  501  0.38032136347E+02  0.23447341559E+02  0.14432944821E+02  0.46952434628E+02  0.00000000000E+00 0. -1.
<scales pt_clust_3="106.84689" pt_clust_4="14000.00000" pt_clust_5="78.52155" pt_clust_6="44.67909"></scales>
<clustering>
<clus scale="   44.679">  1  6  2 -1</clus>
<clus scale="   78.522">  2  5  1 -1</clus>
<clus scale="  106.847">  2  3  1 -1</clus>
<clus scale="   44.679">  1  3  2 -1</clus>
</clustering>
</event>
<event>
 6    0  0.1704145E+002  0.9249896E+02  0.7546771E-02  0.1296911E+00
         21   -1    0    0  504  501  0.00000000000E+00  0.00000000000E+00  0.27361130774E+03  0.27361130774E+03  0.00000000000E+00 0. -1.
         21   -1    0    0  503  502 -0.00000000000E+00 -0.00000000000E+00 -0.51073667178E+03  0.51073667178E+03  0.00000000000E+00 0. -1.
         21    1    1    2  503  505  0.58493051682E+02  0.84233167348E+02 -0.17573484673E+03  0.20346842490E+03  0.00000000000E+00 0. -1.
         21    1    1    2  504  506 -0.55849079173E+02  0.29441287750E+01 -0.75834360570E+02  0.94226523770E+02  0.00000000000E+00 0. -1.
         21    1    1    2  505  501  0.43909442942E+02 -0.14031869389E+02  0.24032347165E+03  0.24470452297E+03  0.00000000000E+00 0. -1.
         21    1    1    2  506  502 -0.46553415451E+02 -0.73145426734E+02 -0.22587962839E+03  0.24194850787E+03  0.00000000000E+00 0. -1.
<scales pt_clust_3="92.49896" pt_clust_4="42.88114" pt_clust_5="46.09699" pt_clust_6="14000.00000"></scales>
<clustering>
<clus scale="   46.097">  1  5  2 -1</clus>
<clus scale="   42.881">  1  4  2 -1</clus>
<clus scale="   92.499">  1  3  2 -1</clus>
<clus scale="   46.097">  1  3  2 -1</clus>
</clustering>
</event>
<event>
 6    0  0.1704145E+002  0.8804545E+02  0.7546771E-02  0.1307655E+00
         21   -1    0    0  505  501  0.00000000000E+00  0.00000000000E+00  0.84639732184E+03  0.84639732184E+03  0.00000000000E+00 0.  1.
         21   -1    0    0  503  502 -0.00000000000E+00 -0.00000000000E+00 -0.20297842834E+03  0.20297842834E+03  0.00000000000E+00 0.  1.
         21    1    1    2  503  501 -0.41336043212E+02  0.98521758833E+02 -0.55976708886E+02  0.12061756659E+03  0.00000000000E+00 0.  1.
         21    1    1    2  504  502  0.40617945959E+02 -0.66907655774E+02 -0.70420158551E+02  0.10528746680E+03  0.00000000000E+00 0.  1.
         21    1    1    2  505  506 -0.25099276476E+02  0.20881169455E+02  0.76398297137E+03  0.76468031063E+03  0.00000000000E+00 0.  1.
         21    1    1    2  506  504  0.25817373729E+02 -0.52495272515E+02  0.58327895711E+01  0.58790406163E+02  0.00000000000E+00 0.  1.
<scales pt_clust_3="88.04545" pt_clust_4="14000.00000" pt_clust_5="32.64961" pt_clust_6="47.05414"></scales>
<clustering>
<clus scale="   32.650">  1  5  2 -1</clus>
<clus scale="   47.054">  1  6  2 -1</clus>
<clus scale="   88.045">  1  3  2 -1</clus>
<clus scale="   32.650">  1  3  2 -1</clus>
</clustering>
</event>
<event>
 6    0  0.1704145E+002  0.1373042E+03  0.7546771E-02  0.1217003E+00
         21   -1    0    0  505  501  0.00000000000E+00  0.00000000000E+00  0.18462477786E+04  0.18462477786E+04  0.00000000000E+00 0.  1.
         21   -1    0    0  503  502 -0.00000000000E+00 -0.00000000000E+00 -0.22964174121E+02  0.22964174121E+02  0.00000000000E+00 0. -1.
         21    1    1    2  503  504 -0.14228947885E+02 -0.28112833130E+02  0.47519507208E+02  0.57016645900E+02  0.00000000000E+00 0. -1.
         21    1    1    2  504  506 -0.45171386240E+02  0.30527045982E+02  0.13591423280E+03  0.14644122831E+03  0.00000000000E+00 0. -1.
         21    1    1    2  505  502  0.25477592392E+02  0.13637564825E+03  0.10350913427E+04  0.10443474101E+04  0.00000000000E+00 0.  1.
         21    1    1    2  506  501  0.33922741733E+02 -0.13878986110E+03  0.60475852180E+03  0.62140666849E+03  0.00000000000E+00 0. -1.
<scales pt_clust_3="31.50864" pt_clust_4="54.13623" pt_clust_5="137.30417" pt_clust_6="14000.00000"></scales>
<clustering>
<clus scale="   31.509">  2  3  1 -1</clus>
<clus scale="   54.136">  2  4  1 -1</clus>
<clus scale="  137.304">  1  5  2 -1</clus>
<clus scale="  137.304">  1  3  2 -1</clus>
</clustering>
</event>
<event>
 6    0  0.1704145E+002  0.1375869E+03  0.7546771E-02  0.1216613E+00
         21   -1    0    0  505  501  0.00000000000E+00  0.00000000000E+00  0.40017220899E+03  0.40017220899E+03  0.00000000000E+00 0. -1.
         21   -1    0    0  504  502 -0.00000000000E+00 -0.00000000000E+00 -0.29109654568E+03  0.29109654568E+03  0.00000000000E+00 0. -1.
         21    1    1    2  503  502  0.70616782521E+01  0.34265232894E+02 -0.18576880372E+02  0.39611538336E+02  0.00000000000E+00 0. -1.
         21    1    1    2  504  501  0.45480671918E+02 -0.10622746806E+03 -0.15582274991E+03  0.19399354597E+03  0.00000000000E+00 0. -1.
         21    1    1    2  505  506  0.31402960553E+02 -0.17926546301E+02  0.32564323337E+03  0.32764465879E+03  0.00000000000E+00 0. -1.
         21    1    1    2  506  503 -0.83945310723E+02  0.89888781468E+02 -0.42167939780E+02  0.13001901158E+03  0.00000000000E+00 0. -1.
<scales pt_clust_3="32.70080" pt_clust_4="123.17010" pt_clust_5="36.15947" pt_clust_6="32.70080"></scales>
<clustering>
<clus scale="   32.701">  3  6 -1 -1</clus>
<clus scale="   36.159">  1  5  2 -1</clus>
<clus scale="  123.170">  2  4  1 -1</clus>
<clus scale="   36.159">  1  3  2 -1</clus>
</clustering>
</event>
<event>
 6    0  0.1704145E+002  0.1012679E+03  0.7546771E-02  0.1277652E+00
         21   -1    0    0  505  501  0.00000000000E+00  0.00000000000E+00  0.72314173341E+03  0.72314173341E+03  0.00000000000E+00 0.  1.
         21   -1    0    0  504  502 -0.00000000000E+00 -0.00000000000E+00 -0.22979516549E+03  0.22979516549E+03  0.00000000000E+00 0. -1.
         21    1    1    2  503  501 -0.26828831583E+02 -0.98548453928E+02  0.56385014905E+01  0.10229064803E+03  0.00000000000E+00 0. -1.
         21    1    1    2  504  503 -0.64455990809E+02 -0.40975530302E+02 -0.10676412862E+03  0.13127127635E+03  0.00000000000E+00 0. -1.
         21    1    1    2  505  506  0.50739239679E+02  0.27557988743E+02  0.59747247002E+03  0.60025600007E+03  0.00000000000E+00 0.  1.
         21    1    1    2  506  502  0.40545582714E+02  0.11196599549E+03 -0.30002749730E+01  0.11911897444E+03  0.00000000000E+00 0.  1.
<scales pt_clust_3="14000.00000" pt_clust_4="70.69924" pt_clust_5="57.74005" pt_clust_6="101.26786"></scales>
<clustering>
<clus scale="   57.740">  1  5  2 -1</clus>
<clus scale="   70.699">  2  4  1 -1</clus>
<clus scale="  101.268">  2  6  1 -1</clus>
<clus scale="   57.740">  1  3  2 -1</clus>
</clustering>
</event>
<event>
 6    0  0.1704145E+002  0.1591433E+03  0.7546771E-02  0.1189667E+00
         21   -1    0    0  505  501  0.00000000000E+00  0.00000000000E+00  0.19956856662E+04  0.19956856662E+04  0.00000000000E+00 0.  1.
         21   -1    0    0  506  502 -0.00000000000E+00 -0.00000000000E+00 -0.28533398031E+02  0.28533398031E+02  0.00000000000E+00 0. -1.
         21    1    1    2  503  502 -0.43301100760E+02  0.16453314967E+02  0.11036453548E+03  0.11969138479E+03  0.00000000000E+00 0. -1.
         21    1    1    2  504  503 -0.29403977987E+02 -0.42689677652E+02  0.10849537464E+03  0.12024245847E+03  0.00000000000E+00 0.  1.
         21    1    1    2  505  504 -0.74319393240E+02 -0.29244558415E+02  0.97522473095E+02  0.12605256510E+03  0.00000000000E+00 0. -1.
         21    1    1    2  506  501  0.14702447199E+03  0.55480921100E+02  0.16507698850E+04  0.16582326559E+04  0.00000000000E+00 0.  1.
<scales pt_clust_3="46.32167" pt_clust_4="38.50887" pt_clust_5="38.50887" pt_clust_6="151.79516"></scales>
<clustering>
<clus scale="   38.509">  4  5 -1 -1</clus>
<clus scale="   46.322">  2  3  1 -1</clus>
<clus scale="  151.795">  1  6  2 -1</clus>
<clus scale="  151.795">  1  3  2 -1</clus>
</clustering>
</event>
<event>
 6    0  0.1704145E+002  0.1766239E+03  0.7546771E-02  0.1171111E+00
         21   -1    0    0  505  501  0.00000000000E+00  0.00000000000E+00  0.40870978170E+03  0.40870978170E+03  0.00000000000E+00 0.  1.
         21   -1    0    0  504  502 -0.00000000000E+00 -0.00000000000E+00 -0.13060656250E+03  0.13060656250E+03  0.00000000000E+00 0. -1.
         21    1    1    2  503  502 -0.52106080365E+02  0.50739907327E+02  0.79740582551E+01  0.73165342968E+02  0.00000000000E+00 0. -1.
         21    1    1    2  504  501 -0.39822583478E+02 -0.13855767072E+02  0.21640591377E+02  0.47393413373E+02  0.00000000000E+00 0. -1.
         21    1    1    2  505  506  0.85950491198E+02 -0.13568020277E+03  0.27304417261E+03  0.31678024647E+03  0.00000000000E+00 0.  1.
         21    1    1    2  506  503  0.59781726450E+01  0.98796062511E+02 -0.24555603044E+02  0.10197734139E+03  0.00000000000E+00 0. -1.
<scales pt_clust_3="70.83984" pt_clust_4="42.16421" pt_clust_5="159.01193" pt_clust_6="70.83984"></scales>
<clustering>
<clus scale="   42.164">  2  4  1 -1</clus>
<clus scale="   70.840">  3  6 -1 -1</clus>
<clus scale="  159.012">  1  5  2 -1</clus>
<clus scale="  159.012">  1  3  2 -1</clus>
</clustering>
</event>
<event>
 6    0  0.1704145E+002  0.9208947E+02  0.7546771E-02  0.1297869E+00
         21   -1    0    0  503  501  0.00000000000E+00  0.00000000000E+00  0.13729283693E+04  0.13729283693E+04  0.00000000000E+00 0. -1.
         21   -1    0    0  504  502 -0.00000000000E+00 -0.00000000000E+00 -0.10706389081E+03  0.10706389081E+03  0.00000000000E+00 0.  1.
         21    1    1    2  503  502  0.18830808801E+02 -0.36155449395E+02  0.41378168781E+02  0.58085873780E+02  0.00000000000E+00 0. -1.
         21    1    1    2  504  506 -0.34064311865E+02  0.47526386273E+02 -0.12964117941E+02  0.59893264137E+02  0.00000000000E+00 0.  1.
         21    1    1    2  505  501  0.69815287670E+02  0.60219991991E+02  0.12646211210E+04  0.12679776030E+04  0.00000000000E+00 0. -1.
         21    1    1    2  506  505 -0.54581784606E+02 -0.71590928869E+02 -0.27170693355E+02  0.94035519271E+02  0.00000000000E+00 0.  1.
<scales pt_clust_3="40.76538" pt_clust_4="43.63157" pt_clust_5="92.08947" pt_clust_6="14000.00000"></scales>
<clustering>
<clus scale="   40.765">  2  3  1 -1</clus>
<clus scale="   43.632">  2  4  1 -1</clus>
<clus scale="   92.089">  1  5  2 -1</clus>
<clus scale="   92.089">  1  3  2 -1</clus>
</clustering>
</event>
<event>
 6    0  0.1704145E+002  0.2900505E+03  0.7546771E-02  0.1090323E+00
         21   -1    0    0  503  501  0.00000000000E+00  0.00000000000E+00  0.73197143064E+02  0.73197143064E+02  0.00000000000E+00 0.  1.
         21   -1    0    0  506  502 -0.00000000000E+00 -0.00000000000E+00 -0.11517044270E+04  0.11517044270E+04  0.00000000000E+00 0.  1.
         21    1    1    2  503  505 -0.28716581878E+02 -0.81336109014E+02 -0.93352725683E+02  0.12710206960E+03  0.00000000000E+00 0.  1.
         21    1    1    2  504  502 -0.10350214703E+03 -0.13287537711E+03 -0.24585987332E+03  0.29801952552E+03  0.00000000000E+00 0.  1.
         21    1    1    2  505  504  0.21798250406E+02 -0.25704121131E+02 -0.40185504000E+02  0.52447500375E+02  0.00000000000E+00 0.  1.
         21    1    1    2  506  501  0.11042047850E+03  0.23991560726E+03 -0.69910918090E+03  0.74733247453E+03  0.00000000000E+00 0.  1.
<scales pt_clust_3="69.03568" pt_clust_4="69.03568" pt_clust_5="33.66225" pt_clust_6="264.10638"></scales>
<clustering>
<clus scale="   33.662">  3  5 -1 -1</clus>
<clus scale="   69.036">  3  4 -1 -1</clus>
<clus scale="  264.106">  2  6  1 -1</clus>
<clus scale="  290.051">  1  3  2 -1</clus>
</clustering>
</event>
<event>
 6    0  0.1704145E+002  0.1081357E+03  0.7546771E-02  0.1264062E+00
         21   -1    0    0  505  501  0.00000000000E+00  0.00000000000E+00  0.12507886516E+04  0.12507886516E+04  0.00000000000E+00 0.  1.
         21   -1    0    0  506  502 -0.00000000000E+00 -0.00000000000E+00 -0.77730976827E+03  0.77730976827E+03  0.00000000000E+00 0. -1.
         21    1    1    2  503  501  0.99717576399E+02  0.40704277014E+02  0.12161817468E+04  0.12209416344E+04  0.00000000000E+00 0.  1.
         21    1    1    2  504  502 -0.27612280565E+02 -0.13853686380E+02 -0.27222085467E+03  0.27396816673E+03  0.00000000000E+00 0. -1.
         21    1    1    2  505  504 -0.13543446644E+03 -0.84274376476E+02 -0.24824651098E+03  0.29507794808E+03  0.00000000000E+00 0. -1.
         21    1    1    2  506  503  0.63329170602E+02  0.57423785842E+02 -0.22223549782E+03  0.23811067074E+03  0.00000000000E+00 0. -1.
<scales pt_clust_3="14000.00000" pt_clust_4="30.89276" pt_clust_5="108.13574" pt_clust_6="72.00082"></scales>
<clustering>
<clus scale="   30.893">  2  4  1 -1</clus>
<clus scale="   72.001">  2  6  1 -1</clus>
<clus scale="  108.136">  2  5  1 -1</clus>
<clus scale="  108.136">  1  3  2 -1</clus>
</clustering>
</event>
<event>
 6    0  0.1704145E+002  0.2282207E+03  0.7546771E-02  0.1127898E+00
         21   -1    0    0  505  501  0.00000000000E+00  0.00000000000E+00  0.52792789419E+03  0.52792789419E+03  0.00000000000E+00 0.  1.
         21   -1    0    0  506  502 -0.00000000000E+00 -0.00000000000E+00 -0.83978804672E+03  0.83978804672E+03  0.00000000000E+00 0.  1.
         21    1    1    2  503  502 -0.18017854638E+02 -0.71905618710E+02 -0.35064223160E+03  0.35839229298E+03  0.00000000000E+00 0.  1.
         21    1    1    2  504  503  0.16424094352E+03  0.29188635183E+03 -0.35849418462E+03  0.49060249726E+03  0.00000000000E+00 0.  1.
         21    1    1    2  505  504 -0.13534445373E+03 -0.17528620128E+03  0.41421728029E+03  0.46970131872E+03  0.00000000000E+00 0.  1.
         21    1    1    2  506  501 -0.10878635158E+02 -0.44694531845E+02 -0.16941016607E+02  0.49019831940E+02  0.00000000000E+00 0.  1.
<scales pt_clust_3="94.34080" pt_clust_4="14000.00000" pt_clust_5="228.22070" pt_clust_6="45.99941"></scales>
<clustering>
<clus scale="   45.999">  2  6  1 -1</clus>
<clus scale="   94.341">  2  3  1 -1</clus>
<clus scale="  228.221">  1  5  2 -1</clus>
<clus scale="  228.221">  1  3  2 -1</clus>
</clustering>
</event>
<event>
 6    0  0.1704145E+002  0.1442676E+03  0.7546771E-02  0.1207699E+00
         21   -1    0    0  504  501  0.00000000000E+00  0.00000000000E+00  0.29786320101E+04  0.29786320101E+04  0.00000000000E+00 0.  1.
         21   -1    0    0  505  502 -0.00000000000E+00 -0.00000000000E+00 -0.11761431823E+03  0.11761431823E+03  0.00000000000E+00 0.  1.
         21    1    1    2  503  501 -0.14512017859E+03  0.53144741422E+00  0.13024149289E+03  0.19499485927E+03  0.00000000000E+00 0.  1.
         21    1    1    2  504  506  0.51418441934E+02 -0.81410970463E+01  0.26301427251E+04  0.26306578812E+04  0.00000000000E+00 0.  1.
         21    1    1    2  505  503  0.12862503628E+03 -0.83032360087E+02  0.50021006211E+02  0.16106170818E+03  0.00000000000E+00 0.  1.
         21    1    1    2  506  502 -0.34923299621E+02  0.90642009719E+02  0.50612467694E+02  0.10953187969E+03  0.00000000000E+00 0. -1.
<scales pt_clust_3="144.26763" pt_clust_4="52.05894" pt_clust_5="14000.00000" pt_clust_6="91.72644"></scales>
<clustering>
<clus scale="   52.059">  1  4  2 -1</clus>
<clus scale="   91.726">  1  6  2 -1</clus>
<clus scale="  144.268">  1  3  2 -1</clus>
<clus scale="   52.059">  1  3  2 -1</clus>
</clustering>
</event>
<event>
 6    0  0.1704145E+002  0.1181292E+03  0.7546771E-02  0.1246216E+00
         21   -1    0    0  502  501  0.00000000000E+00  0.00000000000E+00  0.23643874818E+03  0.23643874818E+03  0.00000000000E+00 0. -1.
         21   -1    0    0  504  502 -0.00000000000E+00 -0.00000000000E+00 -0.16229006267E+04  0.16229006267E+04  0.00000000000E+00 0. -1.
         21    1    1    2  503  505  0.43124601201E+02 -0.14644171478E+02 -0.38500546995E+03  0.38768981787E+03  0.00000000000E+00 0. -1.
         21    1    1    2  504  503  0.24972125004E+02 -0.40774822961E+02 -0.75811836393E+03  0.75962467505E+03  0.00000000000E+00 0. -1.
         21    1    1    2  505  506  0.39042880648E+02  0.26623428592E+02 -0.46328142642E+03  0.46568533748E+03  0.00000000000E+00 0. -1.
         21    1    1    2  506  501 -0.10713960685E+03  0.28795565846E+02  0.21994338179E+03  0.24633954446E+03  0.00000000000E+00 0. -1.
<scales pt_clust_3="41.22587" pt_clust_4="47.81415" pt_clust_5="41.22587" pt_clust_6="110.41289"></scales>
<clustering>
<clus scale="   41.226">  3  5 -1 -1</clus>
<clus scale="   47.814">  2  4  1 -1</clus>
<clus scale="  110.413">  1  6  2 -1</clus>
<clus scale="  110.413">  1  3  2 -1</clus>
</clustering>
</event>
<event>
 6    0  0.1704145E+002  0.8379996E+02  0.7546771E-02  0.1318601E+00
         21   -1    0    0  506  501  0.00000000000E+00  0.00000000000E+00  0.21427358958E+04  0.21427358958E+04  0.00000000000E+00 0. -1.
         21   -1    0    0  503  502 -0.00000000000E+00 -0.00000000000E+00 -0.58486757884E+02  0.58486757884E+02  0.00000000000E+00 0.  1.
         21    1    1    2  503  501  0.42969019882E+02 -0.72538105516E+01  0.65223776999E+02  0.78441669559E+02  0.00000000000E+00 0.  1.
         21    1    1    2  504  505 -0.67919409612E+02  0.44975124941E+02  0.16933619882E+03  0.18791103293E+03  0.00000000000E+00 0. -1.
         21    1    1    2  505  502  0.62879411679E+02  0.11191780288E+02 -0.17842285858E+02  0.66313072043E+02  0.00000000000E+00 0.  1.
         21    1    1    2  506  504 -0.37929021949E+02 -0.48913094677E+02  0.18675314480E+04  0.18685568792E+04  0.00000000000E+00 0. -1.
<scales pt_clust_3="43.57699" pt_clust_4="83.79996" pt_clust_5="14000.00000" pt_clust_6="61.69348"></scales>
<clustering>
<clus scale="   43.577">  2  3  1 -1</clus>
<clus scale="   61.693">  1  6  2 -1</clus>
<clus scale="   83.800">  1  4  2 -1</clus>
<clus scale="   61.693">  1  3  2 -1</clus>
</clustering>
</event>
<event>
 6    0  0.1704145E+002  0.1759678E+03  0.7546771E-02  0.1171764E+00
         21   -1    0    0  504  501  0.00000000000E+00  0.00000000000E+00  0.12186788270E+04  0.12186788270E+04  0.00000000000E+00 0.  1.
         21   -1    0    0  505  502 -0.00000000000E+00 -0.00000000000E+00 -0.25985150913E+03  0.25985150913E+03  0.00000000000E+00 0. -1.
         21    1    1    2  503  501  0.37573855585E+02  0.10110686208E+02  0.40236019838E+02  0.55972831726E+02  0.00000000000E+00 0.  1.
         21    1    1    2  504  502  0.46541821566E+02 -0.60551373299E+02  0.10255603153E+04  0.10284000050E+04  0.00000000000E+00 0.  1.
         21    1    1    2  505  506 -0.12477913569E+03  0.12880718047E+03 -0.19813860102E+03  0.26724525750E+03  0.00000000000E+00 0. -1.
         21    1    1    2  506  503  0.40663458536E+02 -0.78366493383E+02  0.91169583745E+02  0.12691224191E+03  0.00000000000E+00 0.  1.
<scales pt_clust_3="38.91042" pt_clust_4="175.96775" pt_clust_5="14000.00000" pt_clust_6="89.13471"></scales>
<clustering>
<clus scale="   38.910">  1  3  2 -1</clus>
<clus scale="   89.135">  1  6  2 -1</clus>
<clus scale="  175.968">  1  4  2 -1</clus>
<clus scale="   38.910">  1  3  2 -1</clus>
</clustering>
</event>
<event>
 6    0  0.1704145E+002  0.1985835E+03  0.7546771E-02  0.1150940E+00
         21   -1    0    0  505  501  0.00000000000E+00  0.00000000000E+00  0.51991766795E+03  0.51991766795E+03  0.00000000000E+00 0.  1.
         21   -1    0    0  504  502 -0.00000000000E+00 -0.00000000000E+00 -0.30548579051E+03  0.30548579051E+03  0.00000000000E+00 0. -1.
         21    1    1    2  503  506 -0.96747134068E+02  0.40040307579E+02 -0.15766678037E+03  0.18926713347E+03  0.00000000000E+00 0. -1.
         21    1    1    2  504  503 -0.49841303208E+02  0.75476310052E+02 -0.85094285457E+02  0.12418480705E+03  0.00000000000E+00 0. -1.
         21    1    1    2  505  502  0.19619533798E+02  0.30817458435E+02  0.67279597600E+02  0.76558383630E+02  0.00000000000E+00 0. -1.
         21    1    1    2  506  501  0.12696890348E+03 -0.14633407607E+03  0.38991334566E+03  0.43539313430E+03  0.00000000000E+00 0.  1.
<scales pt_clust_3="62.54906" pt_clust_4="62.54906" pt_clust_5="36.53275" pt_clust_6="186.94514"></scales>
<clustering>
<clus scale="   36.533">  1  5  2 -1</clus>
<clus scale="   62.549">  3  4 -1 -1</clus>
<clus scale="  186.945">  1  6  2 -1</clus>
<clus scale="   36.533">  1  3  2 -1</clus>
</clustering>
</event>
<event>
 6    0  0.1704145E+002  0.1025970E+03  0.7546771E-02  0.1274928E+00
         21   -1    0    0  504  501  0.00000000000E+00  0.00000000000E+00  0.14981802849E+03  0.14981802849E+03  0.00000000000E+00 0. -1.
         21   -1    0    0  506  502 -0.00000000000E+00 -0.00000000000E+00 -0.16725782685E+04  0.16725782685E+04  0.00000000000E+00 0. -1.
         21    1    1    2  503  501 -0.31268564669E+02 -0.65989228870E+02 -0.88844509340E+02  0.11500281867E+03  0.00000000000E+00 0. -1.
         21    1    1    2  504  505 -0.30019558847E+02  0.56286209430E+01  0.12819559944E+03  0.13178378885E+03  0.00000000000E+00 0. -1.
         21    1    1    2  505  502 -0.51537084571E+02  0.44261268374E+02 -0.26750167586E+03  0.27599325635E+03  0.00000000000E+00 0.  1.
         21    1    1    2  506  503  0.11282520809E+03  0.16099339553E+02 -0.12946096543E+04  0.12996164331E+04  0.00000000000E+00 0. -1.
<scales pt_clust_3="14000.00000" pt_clust_4="30.54268" pt_clust_5="73.66923" pt_clust_6="102.59702"></scales>
<clustering>
<clus scale="   30.543">  1  4  2 -1</clus>
<clus scale="   73.669">  1  5  2 -1</clus>
<clus scale="  102.597">  2  6  1 -1</clus>
<clus scale="   30.543">  1  3  2 -1</clus>
</clustering>
</event>
<event>
 6    0  0.1704145E+002  0.1154421E+03  0.7546771E-02  0.1250811E+00
         21   -1    0    0  504  501  0.00000000000E+00  0.00000000000E+00  0.87689512121E+02  0.87689512121E+02  0.00000000000E+00 0. -1.
         21   -1    0    0  503  502 -0.00000000000E+00 -0.00000000000E+00 -0.23338767203E+04  0.23338767203E+04  0.00000000000E+00 0.  1.
         21    1    1    2  503  505  0.12009734183E+02  0.64364447533E+02 -0.40853493174E+03  0.41374848190E+03  0.00000000000E+00 0.  1.
         21    1    1    2  504  506  0.36047179575E+02 -0.11005798429E+03  0.36265071977E+02  0.12135614738E+03  0.00000000000E+00 0. -1.
         21    1    1    2  505  501 -0.30195955288E+02  0.95776932752E+02 -0.17320168802E+04  0.17349257880E+04  0.00000000000E+00 0.  1.
         21    1    1    2  506  502 -0.17860958471E+02 -0.50083395990E+02 -0.14190046828E+03  0.15153581520E+03  0.00000000000E+00 0. -1.
<scales pt_clust_3="55.62679" pt_clust_4="115.44213" pt_clust_5="14000.00000" pt_clust_6="53.17293"></scales>
<clustering>
<clus scale="   53.173">  2  6  1 -1</clus>
<clus scale="   55.627">  2  3  1 -1</clus>
<clus scale="  115.442">  1  4  2 -1</clus>
<clus scale="  115.442">  1  3  2 -1</clus>
</clustering>
</event>
<event>
 6    0  0.1704145E+002  0.1307692E+03  0.7546771E-02  0.1226319E+00
         21   -1    0    0  504  501  0.00000000000E+00  0.00000000000E+00  0.11869490104E+04  0.11869490104E+04  0.00000000000E+00 0.  1.
         21   -1    0    0  505  502 -0.00000000000E+00 -0.00000000000E+00 -0.53837163521E+03  0.53837163521E+03  0.00000000000E+00 0.  1.
         21    1    1    2  503  501  0.19672828169E+02 -0.13003789305E+03  0.11623897171E+04  0.11698062781E+04  0.00000000000E+00 0.  1.
         21    1    1    2  504  502  0.55714322599E-01  0.30764187809E+02 -0.85844369391E+01  0.31939488305E+02  0.00000000000E+00 0. -1.
         21    1    1    2  505  506 -0.41702860171E+02  0.42096582212E+02 -0.12369075692E+03  0.13715193811E+03  0.00000000000E+00 0.  1.
         21    1    1    2  506  503  0.21974317679E+02  0.57177123032E+02 -0.38153714808E+03  0.38642294109E+03  0.00000000000E+00 0.  1.
<scales pt_clust_3="130.76923" pt_clust_4="30.76424" pt_clust_5="64.97734" pt_clust_6="14000.00000"></scales>
<clustering>
<clus scale="   30.764">  2  4  1 -1</clus>
<clus scale="   64.977">  2  5  1 -1</clus>
<clus scale="  130.769">  1  3  2 -1</clus>
<clus scale="  130.769">  1  3  2 -1</clus>
</clustering>
</event>
<event>
 6    0  0.1704145E+002  0.1885535E+03  0.7546771E-02  0.1159772E+00
         21   -1    0    0  505  501  0.00000000000E+00  0.00000000000E+00  0.92825474563E+03  0.92825474563E+03  0.00000000000E+00 0. -1.
         21   -1    0    0  506  502 -0.00000000000E+00 -0.00000000000E+00 -0.57464994600E+02  0.57464994600E+02  0.00000000000E+00 0. -1.
         21    1    1    2  503  501 -0.28782192699E+00 -0.33485865489E+02  0.11455756506E+03  0.11935167255E+03  0.00000000000E+00 0. -1.
         21    1    1    2  504  503 -0.20073924418E+02 -0.59643903653E+02  0.53611893209E+02  0.82671595957E+02  0.00000000000E+00 0.  1.
         21    1    1    2  505  502  0.11126901206E+03  0.16877662858E+03  0.57595943070E+03  0.61040610188E+03  0.00000000000E+00 0. -1.
         21    1    1    2  506  504 -0.90907265711E+02 -0.75646859438E+02  0.12666086206E+03  0.17329036984E+03  0.00000000000E+00 0. -1.
<scales pt_clust_3="33.48710" pt_clust_4="35.85782" pt_clust_5="182.08403" pt_clust_6="35.85782"></scales>
<clustering>
<clus scale="   33.487">  1  3  2 -1</clus>
<clus scale="   35.858">  4  6 -1 -1</clus>
<clus scale="  182.084">  1  5  2 -1</clus>
<clus scale="   33.487">  1  3  2 -1</clus>
</clustering>
</event>
<event>
 6    0  0.1704145E+002  0.9600453E+02  0.7546771E-02  0.1288930E+00
         21   -1    0    0  503  501  0.00000000000E+00  0.00000000000E+00  0.49730408520E+03  0.49730408520E+03  0.00000000000E+00 0.  1.
         21   -1    0    0  505  502 -0.00000000000E+00 -0.00000000000E+00 -0.17896446078E+04  0.17896446078E+04  0.00000000000E+00 0. -1.
         21    1    1    2  503  504  0.99100787386E+01 -0.36518268407E+02 -0.24841198626E+03  0.25127735375E+03  0.00000000000E+00 0. -1.
         21    1    1    2  504  502  0.33593382925E+02 -0.83319005629E+01 -0.31242210533E+03  0.31433343418E+03  0.00000000000E+00 0.  1.
         21    1    1    2  505  506 -0.65223030882E+02 -0.48797698306E+02 -0.12203832781E+04  0.12230987714E+04  0.00000000000E+00 0. -1.
         21    1    1    2  506  501  0.21719569219E+02  0.93647867276E+02  0.48887684708E+03  0.49823913369E+03  0.00000000000E+00 0.  1.
<scales pt_clust_3="41.00950" pt_clust_4="34.61121" pt_clust_5="96.00453" pt_clust_6="14000.00000"></scales>
<clustering>
<clus scale="   34.611">  2  4  1 -1</clus>
<clus scale="   41.010">  2  3  1 -1</clus>
<clus scale="   96.005">  2  5  1 -1</clus>
<clus scale="   96.005">  1  3  2 -1</clus>
</clustering>
</event>
<event>
 6    0  0.1704145E+002  0.1084216E+03  0.7546771E-02  0.1263521E+00
         21   -1    0    0  504  501  0.00000000000E+00  0.00000000000E+00  0.84269812465E+02  0.84269812465E+02  0.00000000000E+00 0. -1.
         21   -1    0    0  505  502 -0.00000000000E+00 -0.00000000000E+00 -0.49638355002E+03  0.49638355002E+03  0.00000000000E+00 0. -1.
         21    1    1    2  503  506 -0.36956264764E+02 -0.48754890306E+02 -0.99626414383E+02  0.11691119398E+03  0.00000000000E+00 0. -1.
         21    1    1    2  504  502  0.31582706288E+02  0.12866776861E+03 -0.40375836703E+02  0.13850296100E+03  0.00000000000E+00 0. -1.
         21    1    1    2  505  503 -0.57762467068E+02  0.59997059085E+00 -0.17456786381E+03  0.18387713735E+03  0.00000000000E+00 0. -1.
         21    1    1    2  506  501  0.63136025544E+02 -0.80512848894E+02 -0.97543622664E+02  0.14136207016E+03  0.00000000000E+00 0. -1.
<scales pt_clust_3="74.62650" pt_clust_4="108.42160" pt_clust_5="57.76558" pt_clust_6="14000.00000"></scales>
<clustering>
<clus scale="   57.766">  2  5  1 -1</clus>
<clus scale="   74.627">  2  3  1 -1</clus>
<clus scale="  108.422">  1  4  2 -1</clus>
<clus scale="  108.422">  1  3  2 -1</clus>
</clustering>
</event>
<event>
 6    0  0.1704145E+002  0.1673850E+03  0.7546771E-02  0.1180603E+00
         21   -1    0    0  504  501  0.00000000000E+00  0.00000000000E+00  0.50040238198E+03  0.50040238198E+03  0.00000000000E+00 0. -1.
         21   -1    0    0  505  502 -0.00000000000E+00 -0.00000000000E+00 -0.66096656726E+03  0.66096656726E+03  0.00000000000E+00 0.  1.
         21    1    1    2  503  506 -0.11002776452E+03  0.28663576804E+02 -0.27153622821E+03  0.29438008226E+03  0.00000000000E+00 0.  1.
         21    1    1    2  504  502 -0.12199895683E+02 -0.30945570301E+02 -0.27880856840E+02  0.43402856520E+02  0.00000000000E+00 0. -1.
         21    1    1    2  505  503 -0.47618588615E+02 -0.13990280477E+02 -0.32530064056E+03  0.32906498549E+03  0.00000000000E+00 0.  1.
         21    1    1    2  506  501  0.16984624882E+03  0.16272273974E+02  0.46415354033E+03  0.49452102497E+03  0.00000000000E+00 0. -1.
<scales pt_clust_3="167.38496" pt_clust_4="33.26358" pt_clust_5="61.86379" pt_clust_6="14000.00000"></scales>
<clustering>
<clus scale="   33.264">  2  4  1 -1</clus>
<clus scale="   61.864">  2  5  1 -1</clus>
<clus scale="  167.385">  2  3  1 -1</clus>
<clus scale="  167.385">  1  3  2 -1</clus>
</clustering>
</event>
<event>
 6    0  0.1704145E+002  0.9393166E+02  0.7546771E-02  0.1293601E+00
         21   -1    0    0  503  501  0.00000000000E+00  0.00000000000E+00  0.51291793812E+02  0.51291793812E+02  0.00000000000E+00 0.  1.
         21   -1    0    0  505  502 -0.00000000000E+00 -0.00000000000E+00 -0.40720504171E+03  0.40720504171E+03  0.00000000000E+00 0.  1.
         21    1    1    2  503  504 -0.52118070291E+02  0.14547246078E+02 -0.31978805018E+02  0.62853477149E+02  0.00000000000E+00 0.  1.
         21    1    1    2  504  502  0.13271138337E+02  0.90856876840E+02 -0.12370745651E+03  0.15406047507E+03  0.00000000000E+00 0.  1.
         21    1    1    2  505  506  0.99812712369E+01 -0.96377869083E+02 -0.18223283053E+03  0.20639070702E+03  0.00000000000E+00 0.  1.
         21    1    1    2  506  501  0.28865660716E+02 -0.90262538346E+01 -0.17994155843E+02  0.35192176281E+02  0.00000000000E+00 0. -1.
<scales pt_clust_3="43.18078" pt_clust_4="93.93166" pt_clust_5="14000.00000" pt_clust_6="30.24400"></scales>
<clustering>
<clus scale="   30.244">  1  6  2 -1</clus>
<clus scale="   43.181">  1  3  2 -1</clus>
<clus scale="   93.932">  1  4  2 -1</clus>
<clus scale="   30.244">  1  3  2 -1</clus>
</clustering>
</event>
<event>
 6    0  0.1704145E+002  0.1309587E+03  0.7546771E-02  0.1226040E+00
         21   -1    0    0  504  501  0.00000000000E+00  0.00000000000E+00  0.23487401208E+03  0.23487401208E+03  0.00000000000E+00 0.  1.
         21   -1    0    0  505  502 -0.00000000000E+00 -0.00000000000E+00 -0.35246558994E+03  0.35246558994E+03  0.00000000000E+00 0.  1.
         21    1    1    2  503  506 -0.20833263075E+02  0.48204286975E+02 -0.35188878410E+02  0.63213410737E+02  0.00000000000E+00 0.  1.
         21    1    1    2  504  503  0.35239178848E+01  0.42420565853E+02  0.18320838024E+03  0.18808836485E+03  0.00000000000E+00 0.  1.
         21    1    1    2  505  501  0.33929229055E+02 -0.14361962870E+03 -0.16698907922E+03  0.22285228944E+03  0.00000000000E+00 0.  1.
         21    1    1    2  506  502 -0.16619883865E+02  0.52994775868E+02 -0.98622000464E+02  0.11318553699E+03  0.00000000000E+00 0.  1.
<scales pt_clust_3="38.49487" pt_clust_4="42.56668" pt_clust_5="124.83159" pt_clust_6="38.49487"></scales>
<clustering>
<clus scale="   38.495">  3  6 -1 -1</clus>
<clus scale="   42.567">  1  4  2 -1</clus>
<clus scale="  124.832">  1  5  2 -1</clus>
<clus scale="   42.567">  1  3  2 -1</clus>
</clustering>
</event>
<event>
 6    0  0.1704145E+002  0.1360064E+03  0.7546771E-02  0.1218806E+00
         21   -1    0    0  505  501  0.00000000000E+00  0.00000000000E+00  0.11256622161E+03  0.11256622161E+03  0.00000000000E+00 0. -1.
         21   -1    0    0  503  502 -0.00000000000E+00 -0.00000000000E+00 -0.28024259815E+03  0.28024259815E+03  0.00000000000E+00 0. -1.
         21    1    1    2  503  501 -0.69122078990E+02 -0.94022684588E+02  0.11573497880E+02  0.11726923243E+03  0.00000000000E+00 0. -1.
         21    1    1    2  504  506 -0.17840312122E+01  0.40276420156E+02 -0.87590104912E+02  0.96423022492E+02  0.00000000000E+00 0. -1.
         21    1    1    2  505  504  0.42609180199E+02 -0.35611267801E+02 -0.13685776072E+02  0.57192701443E+02  0.00000000000E+00 0.  1.
         21    1    1    2  506  502  0.28296930004E+02  0.89357532234E+02 -0.77973993430E+02  0.12192386340E+03  0.00000000000E+00 0. -1.
<scales pt_clust_3="125.46613" pt_clust_4="34.42993" pt_clust_5="55.53111" pt_clust_6="34.42993"></scales>
<clustering>
<clus scale="   34.430">  4  6 -1 -1</clus>
<clus scale="   55.531">  1  5  2 -1</clus>
<clus scale="  125.466">  1  3  2 -1</clus>
<clus scale="   55.531">  1  3  2 -1</clus>
</clustering>
</event>
<event>
 6    0  0.1704145E+002  0.2482581E+03  0.7546771E-02  0.1114411E+00
         21   -1    0    0  505  501  0.00000000000E+00  0.00000000000E+00  0.95730328821E+03  0.95730328821E+03  0.00000000000E+00 0. -1.
         21   -1    0    0  501  502 -0.00000000000E+00 -0.00000000000E+00 -0.22937155111E+03  0.22937155111E+03  0.00000000000E+00 0. -1.
         21    1    1    2  503  502  0.36501752837E+02  0.91047082401E+02 -0.93059382414E+02  0.13521093828E+03  0.00000000000E+00 0. -1.
         21    1    1    2  504  503  0.50592450271E+01  0.93146342656E+02 -0.49983418117E+02  0.10583089907E+03  0.00000000000E+00 0. -1.
         21    1    1    2  505  506 -0.20871067450E+02 -0.22483868453E+03  0.87123773660E+03  0.90002401589E+03  0.00000000000E+00 0. -1.
         21    1    1    2  506  504 -0.20689930414E+02  0.40645259469E+02 -0.26319896030E+00  0.45608986083E+02  0.00000000000E+00 0.  1.
<scales pt_clust_3="65.90089" pt_clust_4="65.90089" pt_clust_5="225.80530" pt_clust_6="33.27624"></scales>
<clustering>
<clus scale="   33.276">  4  6 -1 -1</clus>
<clus scale="   65.901">  3  4 -1 -1</clus>
<clus scale="  225.805">  1  5  2 -1</clus>
<clus scale="  225.805">  1  3  2 -1</clus>
</clustering>
</event>
<event>
 6    0  0.1704145E+002  0.7571567E+02  0.7546771E-02  0.1341669E+00
         21   -1    0    0  504  501  0.00000000000E+00  0.00000000000E+00  0.19399523666E+03  0.19399523666E+03  0.00000000000E+00 0.  1.
         21   -1    0    0  503  502 -0.00000000000E+00 -0.00000000000E+00 -0.91474850725E+03  0.91474850725E+03  0.00000000000E+00 0. -1.
         21    1    1    2  503  505 -0.15167538631E+02  0.67755651770E+02 -0.52922122077E+03  0.53375648294E+03  0.00000000000E+00 0. -1.
         21    1    1    2  504  502  0.13234666990E+02 -0.61886479264E+02  0.17021799721E+03  0.18160192538E+03  0.00000000000E+00 0.  1.
         21    1    1    2  505  506  0.58357669581E+02  0.33711512944E+02 -0.27199474249E+03  0.28021995583E+03  0.00000000000E+00 0. -1.
         21    1    1    2  506  501 -0.56424797940E+02 -0.39580685450E+02 -0.89755304541E+02  0.11316537976E+03  0.00000000000E+00 0.  1.
<scales pt_clust_3="61.49786" pt_clust_4="63.28580" pt_clust_5="14000.00000" pt_clust_6="75.71567"></scales>
<clustering>
<clus scale="   63.286">  1  4  2 -1</clus>
<clus scale="   61.498">  2  3  1 -1</clus>
<clus scale="   75.716">  1  6  2 -1</clus>
<clus scale="   63.286">  1  3  2 -1</clus>
</clustering>
</event>
<event>
 6    0  0.1704145E+002  0.1135477E+03  0.7546771E-02  0.1254138E+00
         21   -1    0    0  503  501  0.00000000000E+00  0.00000000000E+00  0.34287144893E+03  0.34287144893E+03  0.00000000000E+00 0. -1.
         21   -1    0    0  504  502 -0.00000000000E+00 -0.00000000000E+00 -0.32930987305E+03  0.32930987305E+03  0.00000000000E+00 0.  1.
         21    1    1    2  503  506  0.38691570454E+02 -0.28518086742E+02 -0.12151379275E+02  0.49577968030E+02  0.00000000000E+00 0.  1.
         21    1    1    2  504  505  0.44085512032E+02  0.63293325100E+02 -0.22554743700E+03  0.23837202795E+03  0.00000000000E+00 0.  1.
         21    1    1    2  505  501 -0.11352326981E+03  0.33206876395E+01  0.29654119784E+03  0.31754565305E+03  0.00000000000E+00 0. -1.
         21    1    1    2  506  502  0.30746187326E+02 -0.38095925997E+02 -0.45280805690E+02  0.66685672948E+02  0.00000000000E+00 0.  1.
<scales pt_clust_3="30.69706" pt_clust_4="77.13350" pt_clust_5="109.23974" pt_clust_6="30.69706"></scales>
<clustering>
<clus scale="   30.697">  3  6 -1 -1</clus>
<clus scale="   77.134">  2  4  1 -1</clus>
<clus scale="  109.240">  1  5  2 -1</clus>
<clus scale="  109.240">  1  3  2 -1</clus>
</clustering>
</event>
<event>
 6    0  0.1704145E+002  0.1763009E+03  0.7546771E-02  0.1171432E+00
         21   -1    0    0  502  501  0.00000000000E+00  0.00000000000E+00  0.62530719324E+03  0.62530719324E+03  0.00000000000E+00 0.  1.
         21   -1    0    0  505  502 -0.00000000000E+00 -0.00000000000E+00 -0.38632302734E+03  0.38632302734E+03  0.00000000000E+00 0.  1.
         21    1    1    2  503  506  0.82345818936E+02  0.16948870249E+03  0.52799389509E+02  0.19569115897E+03  0.00000000000E+00 0.  1.
         21    1    1    2  504  503 -0.50440700208E+02 -0.79582519407E+02 -0.12023778146E+03  0.15275721169E+03  0.00000000000E+00 0. -1.
         21    1    1    2  505  504 -0.73488614068E+02 -0.14976301093E+02 -0.16647147926E+03  0.18258592333E+03  0.00000000000E+00 0.  1.
         21    1    1    2  506  501  0.41583495340E+02 -0.74929881990E+02  0.47289403712E+03  0.48059592658E+03  0.00000000000E+00 0.  1.
<scales pt_clust_3="158.52135" pt_clust_4="68.83679" pt_clust_5="68.83679" pt_clust_6="85.69524"></scales>
<clustering>
<clus scale="   68.837">  4  5 -1 -1</clus>
<clus scale="   85.695">  1  6  2 -1</clus>
<clus scale="  158.521">  1  3  2 -1</clus>
<clus scale="   85.695">  1  3  2 -1</clus>
</clustering>
</event>
<event>
 6    0  0.1704145E+002  0.5527237E+02  0.7546771E-02  0.1418815E+00
         21   -1    0    0  505  501  0.00000000000E+00  0.00000000000E+00  0.86184349181E+02  0.86184349181E+02  0.00000000000E+00 0.  1.
         21   -1    0    0  503  502 -0.00000000000E+00 -0.00000000000E+00 -0.76846553290E+03  0.76846553290E+03  0.00000000000E+00 0. -1.
         21    1    1    2  503  506 -0.97991827021E+01  0.43542403325E+02 -0.20364976922E+03  0.20848307695E+03  0.00000000000E+00 0.  1.
         21    1    1    2  504  502  0.44508271760E+02  0.15779821182E+02 -0.13459388532E+03  0.14263766325E+03  0.00000000000E+00 0. -1.
         21    1    1    2  505  504 -0.55406299557E+02 -0.10880556552E+03 -0.40460404660E+03  0.42262624580E+03  0.00000000000E+00 0. -1.
         21    1    1    2  506  501  0.20697210500E+02  0.49483341010E+02  0.60566517428E+02  0.80902896075E+02  0.00000000000E+00 0.  1.
<scales pt_clust_3="44.63143" pt_clust_4="49.74636" pt_clust_5="14000.00000" pt_clust_6="55.27237"></scales>
<clustering>
<clus scale="   44.631">  2  3  1 -1</clus>
<clus scale="   49.746">  2  4  1 -1</clus>
<clus scale="   55.272">  1  6  2 -1</clus>
<clus scale="   55.272">  1  3  2 -1</clus>
</clustering>
</event>
<event>
 6    0  0.1704145E+002  0.1140357E+03  0.7546771E-02  0.1253274E+00
         21   -1    0    0  504  501  0.00000000000E+00  0.00000000000E+00  0.49242392938E+03  0.49242392938E+03  0.00000000000E+00 0. -1.
         21   -1    0    0  503  502 -0.00000000000E+00 -0.00000000000E+00 -0.32245264315E+03  0.32245264315E+03  0.00000000000E+00 0. -1.
         21    1    1    2  503  506  0.19137940473E+02 -0.40806328799E+02 -0.18393375479E+02  0.48679908557E+02  0.00000000000E+00 0. -1.
         21    1    1    2  504  505 -0.68976808984E+02 -0.80223075134E+02 -0.19578116074E+03  0.22253944563E+03  0.00000000000E+00 0. -1.
         21    1    1    2  505  502 -0.63175519622E+02  0.98770019888E+02 -0.23906892397E+02  0.11965869217E+03  0.00000000000E+00 0.  1.
         21    1    1    2  506  501  0.11301438813E+03  0.22259384045E+02  0.40805271484E+03  0.42399852617E+03  0.00000000000E+00 0. -1.
<scales pt_clust_3="45.07125" pt_clust_4="14000.00000" pt_clust_5="106.15320" pt_clust_6="114.03568"></scales>
<clustering>
<clus scale="   45.071">  2  3  1 -1</clus>
<clus scale="  106.153">  2  5  1 -1</clus>
<clus scale="  114.036">  1  6  2 -1</clus>
<clus scale="  114.036">  1  3  2 -1</clus>
</clustering>
</event>
<event>
 6    0  0.1704145E+002  0.2897405E+03  0.7546771E-02  0.1090485E+00
         21   -1    0    0  503  501  0.00000000000E+00  0.00000000000E+00  0.69074223096E+03  0.69074223096E+03  0.00000000000E+00 0. -1.
         21   -1    0    0  504  502 -0.00000000000E+00 -0.00000000000E+00 -0.25063781909E+03  0.25063781909E+03  0.00000000000E+00 0. -1.
         21    1    1    2  503  505 -0.22295660590E+03  0.16250468313E+03  0.52252270886E+03  0.59088696163E+03  0.00000000000E+00 0. -1.
         21    1    1    2  504  501 -0.11265233494E+02 -0.30567928483E+02  0.26182979949E+02  0.41795360705E+02  0.00000000000E+00 0.  1.
         21    1    1    2  505  506  0.76751205763E+02  0.94528375046E+01 -0.28737042365E+02  0.82498008017E+02  0.00000000000E+00 0. -1.
         21    1    1    2  506  502  0.15747063363E+03 -0.14138959215E+03 -0.79864234574E+02  0.22619971969E+03  0.00000000000E+00 0. -1.
<scales pt_clust_3="269.66028" pt_clust_4="32.57766" pt_clust_5="63.61179" pt_clust_6="63.61179"></scales>
<clustering>
<clus scale="   32.578">  1  4  2 -1</clus>
<clus scale="   63.612">  5  6 -1 -1</clus>
<clus scale="  269.660">  1  3  2 -1</clus>
<clus scale="   32.578">  1  3  2 -1</clus>
</clustering>
</event>
<event>
 6    0  0.1704145E+002  0.1247271E+03  0.7546771E-02  0.1235496E+00
         21   -1    0    0  503  501  0.00000000000E+00  0.00000000000E+00  0.34705517654E+03  0.34705517654E+03  0.00000000000E+00 0.  1.
         21   -1    0    0  504  502 -0.00000000000E+00 -0.00000000000E+00 -0.73938462500E+03  0.73938462500E+03  0.00000000000E+00 0.  1.
         21    1    1    2  503  502 -0.20471431625E+02 -0.30145527487E+02 -0.11248567799E+03  0.11824068713E+03  0.00000000000E+00 0.  1.
         21    1    1    2  504  506  0.48651526784E+02  0.36032560575E+02 -0.18539604859E+03  0.19503079580E+03  0.00000000000E+00 0.  1.
         21    1    1    2  505  501 -0.65853038441E+02 -0.93887079315E+02  0.32411182485E+03  0.34380209619E+03  0.00000000000E+00 0.  1.
         21    1    1    2  506  505  0.37672943282E+02  0.88000046227E+02 -0.41855954673E+03  0.42936622242E+03  0.00000000000E+00 0.  1.
<scales pt_clust_3="36.43943" pt_clust_4="39.92575" pt_clust_5="115.25442" pt_clust_6="39.92575"></scales>
<clustering>
<clus scale="   36.439">  2  3  1 -1</clus>
<clus scale="   39.926">  4  6 -1 -1</clus>
<clus scale="  115.254">  1  5  2 -1</clus>
<clus scale="  115.254">  1  3  2 -1</clus>
</clustering>
</event>
<event>
 6    0  0.1704145E+002  0.1550218E+03  0.7546771E-02  0.1194435E+00
         21   -1    0    0  503  501  0.00000000000E+00  0.00000000000E+00  0.24201323068E+03  0.24201323068E+03  0.00000000000E+00 0. -1.
         21   -1    0    0  504  502 -0.00000000000E+00 -0.00000000000E+00 -0.60743930888E+03  0.60743930888E+03  0.00000000000E+00 0.  1.
         21    1    1    2  503  506 -0.82015869842E+02  0.95994946380E+02 -0.24340283087E+03  0.27420169714E+03  0.00000000000E+00 0.  1.
         21    1    1    2  504  505  0.62992464025E+02  0.24929876032E+01 -0.11893383641E+03  0.13460877740E+03  0.00000000000E+00 0.  1.
         21    1    1    2  505  501  0.42815870004E+02 -0.13460274376E+03  0.19337823790E+03  0.23947075029E+03  0.00000000000E+00 0. -1.
         21    1    1    2  506  502 -0.23792464187E+02  0.36114809779E+02 -0.19646764881E+03  0.20117131473E+03  0.00000000000E+00 0.  1.
<scales pt_clust_3="36.29111" pt_clust_4="63.04178" pt_clust_5="142.07986" pt_clust_6="36.29111"></scales>
<clustering>
<clus scale="   36.291">  3  6 -1 -1</clus>
<clus scale="   63.042">  2  4  1 -1</clus>
<clus scale="  142.080">  1  5  2 -1</clus>
<clus scale="  142.080">  1  3  2 -1</clus>
</clustering>
</event>
<event>
 6    0  0.1704145E+002  0.2418265E+03  0.7546771E-02  0.1118582E+00
         21   -1    0    0  506  501  0.00000000000E+00  0.00000000000E+00  0.13170302707E+03  0.13170302707E+03  0.00000000000E+00 0. -1.
         21   -1    0    0  503  502 -0.00000000000E+00 -0.00000000000E+00 -0.16233701340E+04  0.16233701340E+04  0.00000000000E+00 0. -1.
         21    1    1    2  503  504  0.22106931577E+03  0.58676861897E+02 -0.34632671055E+03  0.41503831984E+03  0.00000000000E+00 0. -1.
         21    1    1    2  504  501  0.53342465734E+01 -0.42219473226E+02  0.80208002570E+02  0.90797917279E+02  0.00000000000E+00 0. -1.
         21    1    1    2  505  502 -0.25456486410E+02 -0.26497614662E+02 -0.11892571534E+03  0.12447281652E+03  0.00000000000E+00 0. -1.
         21    1    1    2  506  505 -0.20094707593E+03  0.10040225990E+02 -0.11066226837E+04  0.11247641075E+04  0.00000000000E+00 0. -1.
<scales pt_clust_3="226.68364" pt_clust_4="42.55512" pt_clust_5="35.99550" pt_clust_6="35.99550"></scales>
<clustering>
<clus scale="   35.996">  5  6 -1 -1</clus>
<clus scale="   42.555">  1  4  2 -1</clus>
<clus scale="  226.684">  1  3  2 -1</clus>
<clus scale="   42.555">  1  3  2 -1</clus>
</clustering>
</event>
<event>
 6    0  0.1704145E+002  0.1399979E+03  0.7546771E-02  0.1213332E+00
         21   -1    0    0  504  501  0.00000000000E+00  0.00000000000E+00  0.80019152177E+03  0.80019152177E+03  0.00000000000E+00 0. -1.
         21   -1    0    0  505  502 -0.00000000000E+00 -0.00000000000E+00 -0.59398836727E+02  0.59398836727E+02  0.00000000000E+00 0. -1.
         21    1    1    2  503  502 -0.22306382392E+01  0.16038985107E+03  0.10889482952E+03  0.19387615627E+03  0.00000000000E+00 0. -1.
         21    1    1    2  504  503  0.10222672582E+02 -0.60811501832E+02  0.45020582328E+03  0.45440931451E+03  0.00000000000E+00 0. -1.
         21    1    1    2  505  506  0.17965686162E+01 -0.55774784190E+02  0.61695982435E+02  0.83189232830E+02  0.00000000000E+00 0. -1.
         21    1    1    2  506  501 -0.97886029589E+01 -0.43803565050E+02  0.11999604981E+03  0.12811565490E+03  0.00000000000E+00 0. -1.
<scales pt_clust_3="133.94543" pt_clust_4="61.66475" pt_clust_5="36.51839" pt_clust_6="36.51839"></scales>
<clustering>
<clus scale="   36.518">  5  6 -1 -1</clus>
<clus scale="   61.665">  1  4  2 -1</clus>
<clus scale="  133.945">  2  3  1 -1</clus>
<clus scale="   61.665">  1  3  2 -1</clus>
</clustering>
</event>
<event>
 6    0  0.1704145E+002  0.1012655E+03  0.7546771E-02  0.1277657E+00
         21   -1    0    0  504  501  0.00000000000E+00  0.00000000000E+00  0.47844879788E+03  0.47844879788E+03  0.00000000000E+00 0. -1.
         21   -1    0    0  505  502 -0.00000000000E+00 -0.00000000000E+00 -0.17588552866E+03  0.17588552866E+03  0.00000000000E+00 0.  1.
         21    1    1    2  503  501  0.10128294208E+03  0.92848383924E+01  0.95186309970E+02  0.13930138616E+03  0.00000000000E+00 0.  1.
         21    1    1    2  504  506 -0.92862706793E+02  0.51522922791E+02  0.31866970182E+03  0.33589949798E+03  0.00000000000E+00 0. -1.
         21    1    1    2  505  503 -0.30914621092E+02  0.32105924715E+02 -0.39879210978E+02  0.59806819572E+02  0.00000000000E+00 0. -1.
         21    1    1    2  506  502  0.22494385802E+02 -0.92913685899E+02 -0.71413531589E+02  0.11932662282E+03  0.00000000000E+00 0.  1.
<scales pt_clust_3="101.26549" pt_clust_4="14000.00000" pt_clust_5="44.57022" pt_clust_6="68.62660"></scales>
<clustering>
<clus scale="   44.570">  2  5  1 -1</clus>
<clus scale="   68.627">  2  6  1 -1</clus>
<clus scale="  101.265">  2  3  1 -1</clus>
<clus scale="  101.265">  1  3  2 -1</clus>
</clustering>
</event>
<event>
 6    0  0.1704145E+002  0.1166640E+03  0.7546771E-02  0.1248704E+00
         21   -1    0    0  505  501  0.00000000000E+00  0.00000000000E+00  0.40999145406E+03  0.40999145406E+03  0.00000000000E+00 0. -1.
         21   -1    0    0  504  502 -0.00000000000E+00 -0.00000000000E+00 -0.26388880109E+03  0.26388880109E+03  0.00000000000E+00 0.  1.
         21    1    1    2  503  501  0.14886607266E+02 -0.74939047561E+02  0.31967363332E+03  0.32867720299E+03  0.00000000000E+00 0. -1.
         21    1    1    2  504  506 -0.91098554474E+02  0.65898603895E+02 -0.14558288284E+03  0.18394550388E+03  0.00000000000E+00 0.  1.
         21    1    1    2  505  502 -0.13820804888E+02  0.55507514360E+02 -0.14801731210E+02  0.59086293207E+02  0.00000000000E+00 0.  1.
         21    1    1    2  506  503  0.90032752095E+02 -0.46467070694E+02 -0.13186366297E+02  0.10217125508E+03  0.00000000000E+00 0. -1.
<scales pt_clust_3="75.26998" pt_clust_4="116.66398" pt_clust_5="57.20226" pt_clust_6="14000.00000"></scales>
<clustering>
<clus scale="   57.202">  2  5  1 -1</clus>
<clus scale="   75.270">  1  3  2 -1</clus>
<clus scale="  116.664">  2  4  1 -1</clus>
<clus scale="   75.270">  1  3  2 -1</clus>
</clustering>
</event>
<event>
 6    0  0.2406754E+002  0.3435266E+03  0.7546771E-02  0.1065304E+00
         21   -1    0    0  506  501  0.00000000000E+00  0.00000000000E+00  0.11766305670E+04  0.11766305670E+04  0.00000000000E+00 0.  1.
         21   -1    0    0  505  502 -0.00000000000E+00 -0.00000000000E+00 -0.11451093986E+04  0.11451093986E+04  0.00000000000E+00 0.  1.
         21    1    1    2  503  501  0.25041687225E+02 -0.33084958285E+03  0.11175211379E+04  0.11657366882E+04  0.00000000000E+00 0.  1.
         21    1    1    2  504  503  0.24195274445E+02  0.38630537264E+02 -0.11958652650E+03  0.12797916641E+03  0.00000000000E+00 0.  1.
         21    1    1    2  505  504 -0.61948938041E+02  0.26307917960E+03 -0.95763243192E+03  0.99504180834E+03  0.00000000000E+00 0.  1.
         21    1    1    2  506  502  0.12711976370E+02  0.29139865979E+02 -0.87810110357E+01  0.32982302638E+02  0.00000000000E+00 0. -1.
<scales pt_clust_3="331.19356" pt_clust_4="37.33220" pt_clust_5="37.33220" pt_clust_6="31.79192"></scales>
<clustering>
<clus scale="   31.792">  2  6  1 -1</clus>
<clus scale="   37.332">  4  5 -1 -1</clus>
<clus scale="  331.194">  1  3  2 -1</clus>
<clus scale="  331.194">  1  3  2 -1</clus>
</clustering>
</event>
<event>
 6    0  0.1704145E+002  0.2942355E+03  0.7546771E-02  0.1088158E+00
         21   -1    0    0  505  501  0.00000000000E+00  0.00000000000E+00  0.18919230099E+04  0.18919230099E+04  0.00000000000E+00 0.  1.
         21   -1    0    0  506  502 -0.00000000000E+00 -0.00000000000E+00 -0.16249713792E+03  0.16249713792E+03  0.00000000000E+00 0.  1.
         21    1    1    2  503  502 -0.73101070623E+01 -0.22877200104E+03  0.84654787553E+02  0.24404200291E+03  0.00000000000E+00 0.  1.
         21    1    1    2  504  501  0.42908228855E+02  0.55106443033E+02  0.13969480136E+04  0.13986928143E+04  0.00000000000E+00 0.  1.
         21    1    1    2  505  503 -0.72202679412E+02 -0.58511508634E+02  0.57868141621E+02  0.10947851557E+03  0.00000000000E+00 0.  1.
         21    1    1    2  506  504  0.36604557619E+02  0.23217706664E+03  0.18995492924E+03  0.30220681504E+03  0.00000000000E+00 0.  1.
<scales pt_clust_3="78.20688" pt_clust_4="69.84151" pt_clust_5="78.20688" pt_clust_6="266.01625"></scales>
<clustering>
<clus scale="   69.842">  1  4  2 -1</clus>
<clus scale="   78.207">  3  5 -1 -1</clus>
<clus scale="  266.016">  1  6  2 -1</clus>
<clus scale="   69.842">  1  3  2 -1</clus>
</clustering>
</event>
<event>
 6    0  0.1704145E+002  0.1893116E+03  0.7546771E-02  0.1159084E+00
         21   -1    0    0  505  501  0.00000000000E+00  0.00000000000E+00  0.50803183618E+03  0.50803183618E+03  0.00000000000E+00 0.  1.
         21   -1    0    0  506  502 -0.00000000000E+00 -0.00000000000E+00 -0.12592056407E+03  0.12592056407E+03  0.00000000000E+00 0.  1.
         21    1    1    2  503  504  0.35803636215E+02  0.79483146601E+02  0.59488984887E+02  0.10553866724E+03  0.00000000000E+00 0.  1.
         21    1    1    2  504  502  0.57650961365E+02  0.77681611333E+02  0.35065847296E+02  0.10289645150E+03  0.00000000000E+00 0.  1.
         21    1    1    2  505  503 -0.72524287211E+02  0.41477117293E+02  0.18049285771E+03  0.19889141554E+03  0.00000000000E+00 0.  1.
         21    1    1    2  506  501 -0.20930310369E+02 -0.19864187523E+03  0.10706358222E+03  0.22662586596E+03  0.00000000000E+00 0.  1.
<scales pt_clust_3="31.05298" pt_clust_4="31.05298" pt_clust_5="83.54713" pt_clust_6="186.46401"></scales>
<clustering>
<clus scale="   31.053">  3  4 -1 -1</clus>
<clus scale="   83.547">  1  5  2 -1</clus>
<clus scale="  186.464">  1  6  2 -1</clus>
<clus scale="   83.547">  1  3  2 -1</clus>
</clustering>
</event>
<event>
 6    0  0.1704145E+002  0.1634002E+03  0.7546771E-02  0.1184911E+00
         21   -1    0    0  504  501  0.00000000000E+00  0.00000000000E+00  0.10304269103E+03  0.10304269103E+03  0.00000000000E+00 0. -1.
         21   -1    0    0  506  502 -0.00000000000E+00 -0.00000000000E+00 -0.12787289053E+04  0.12787289053E+04  0.00000000000E+00 0. -1.
         21    1    1    2  503  505 -0.11279474200E+03  0.20306284841E+03 -0.60043910068E+03  0.64380454165E+03  0.00000000000E+00 0. -1.
         21    1    1    2  504  502 -0.19275995799E+01 -0.68013424248E+02 -0.41383566321E+02  0.79637560733E+02  0.00000000000E+00 0. -1.
         21    1    1    2  505  501  0.16482233895E+02 -0.36317407679E+02  0.46630683596E+02  0.61359911892E+02  0.00000000000E+00 0. -1.
         21    1    1    2  506  503  0.98240107684E+02 -0.98732016488E+02 -0.58049423085E+03  0.59696958205E+03  0.00000000000E+00 0. -1.
<scales pt_clust_3="163.40021" pt_clust_4="82.29923" pt_clust_5="39.88255" pt_clust_6="14000.00000"></scales>
<clustering>
<clus scale="   39.883">  1  5  2 -1</clus>
<clus scale="   82.299">  1  4  2 -1</clus>
<clus scale="  163.400">  1  3  2 -1</clus>
<clus scale="   39.883">  1  3  2 -1</clus>
</clustering>
</event>
<event>
 6    0  0.1704145E+002  0.2670196E+03  0.7546771E-02  0.1102998E+00
         21   -1    0    0  503  501  0.00000000000E+00  0.00000000000E+00  0.11608941009E+04  0.11608941009E+04  0.00000000000E+00 0.  1.
         21   -1    0    0  506  502 -0.00000000000E+00 -0.00000000000E+00 -0.16360028649E+03  0.16360028649E+03  0.00000000000E+00 0. -1.
         21    1    1    2  503  502  0.34975212654E+02  0.29790563801E+03  0.92603910916E+03  0.97340611584E+03  0.00000000000E+00 0.  1.
         21    1    1    2  504  505 -0.69822987876E+01 -0.12402820353E+03  0.29886350192E+02  0.12776909523E+03  0.00000000000E+00 0. -1.
         21    1    1    2  505  501 -0.43812549160E+01 -0.46753511844E+02  0.76113993492E+02  0.89433921248E+02  0.00000000000E+00 0.  1.
         21    1    1    2  506  504 -0.23611658951E+02 -0.12712392263E+03 -0.34745638411E+02  0.13388525510E+03  0.00000000000E+00 0. -1.
<scales pt_clust_3="258.59900" pt_clust_4="65.56139" pt_clust_5="46.95835" pt_clust_6="65.56139"></scales>
<clustering>
<clus scale="   46.958">  1  5  2 -1</clus>
<clus scale="   65.561">  4  6 -1 -1</clus>
<clus scale="  258.599">  1  3  2 -1</clus>
<clus scale="   46.958">  1  3  2 -1</clus>
</clustering>
</event>
<event>
 6    0  0.1704145E+002  0.8866939E+02  0.7546771E-02  0.1306106E+00
         21   -1    0    0  504  501  0.00000000000E+00  0.00000000000E+00  0.30342389922E+02  0.30342389922E+02  0.00000000000E+00 0. -1.
         21   -1    0    0  505  502 -0.00000000000E+00 -0.00000000000E+00 -0.16000790260E+04  0.16000790260E+04  0.00000000000E+00 0. -1.
         21    1    1    2  503  506 -0.74774977037E+02 -0.85855254674E+02 -0.41359030540E+03  0.42897478093E+03  0.00000000000E+00 0. -1.
         21    1    1    2  504  503  0.30413162987E+01  0.33042387741E+02  0.67549065374E+01  0.33862630654E+02  0.00000000000E+00 0. -1.
         21    1    1    2  505  501  0.70241789291E+02  0.21985610527E+02 -0.82079926079E+03  0.82409265410E+03  0.00000000000E+00 0. -1.
         21    1    1    2  506  502  0.14918714473E+01  0.30827256405E+02 -0.34210197644E+03  0.34349135026E+03  0.00000000000E+00 0. -1.
<scales pt_clust_3="88.66939" pt_clust_4="33.51446" pt_clust_5="14000.00000" pt_clust_6="30.86333"></scales>
<clustering>
<clus scale="   30.863">  2  6  1 -1</clus>
<clus scale="   33.514">  1  4  2 -1</clus>
<clus scale="   88.669">  1  3  2 -1</clus>
<clus scale="   33.514">  1  3  2 -1</clus>
</clustering>
</event>
<event>
 6    0  0.1704145E+002  0.1111810E+03  0.7546771E-02  0.1258398E+00
         21   -1    0    0  504  501  0.00000000000E+00  0.00000000000E+00  0.55265961939E+03  0.55265961939E+03  0.00000000000E+00 0. -1.
         21   -1    0    0  503  502 -0.00000000000E+00 -0.00000000000E+00 -0.45924658401E+03  0.45924658401E+03  0.00000000000E+00 0.  1.
         21    1    1    2  503  501  0.19010701867E+02  0.50708125368E+02 -0.58085459369E+02  0.79414364910E+02  0.00000000000E+00 0. -1.
         21    1    1    2  504  505  0.11146219806E+03  0.20377742171E+01  0.51446589121E+03  0.52640585801E+03  0.00000000000E+00 0. -1.
         21    1    1    2  505  506 -0.98463097824E+02 -0.79414806660E+02 -0.19062099368E+03  0.22877512186E+03  0.00000000000E+00 0.  1.
         21    1    1    2  506  502 -0.32009802100E+02  0.26668907075E+02 -0.17234640278E+03  0.17731085862E+03  0.00000000000E+00 0.  1.
<scales pt_clust_3="58.25574" pt_clust_4="14000.00000" pt_clust_5="111.18096" pt_clust_6="41.66363"></scales>
<clustering>
<clus scale="   41.664">  2  6  1 -1</clus>
<clus scale="   58.256">  2  3  1 -1</clus>
<clus scale="  111.181">  2  5  1 -1</clus>
<clus scale="  111.181">  1  3  2 -1</clus>
</clustering>
</event>
<event>
 6    0  0.1704145E+002  0.1179084E+03  0.7546771E-02  0.1246588E+00
         21   -1    0    0  503  501  0.00000000000E+00  0.00000000000E+00  0.11355014999E+04  0.11355014999E+04  0.00000000000E+00 0.  1.
         21   -1    0    0  505  502 -0.00000000000E+00 -0.00000000000E+00 -0.16978106720E+03  0.16978106720E+03  0.00000000000E+00 0.  1.
         21    1    1    2  503  502  0.80451602391E-01  0.10452780735E+03  0.70294885167E+02  0.12596602662E+03  0.00000000000E+00 0.  1.
         21    1    1    2  504  501 -0.54456027575E+02  0.35595323143E+02  0.96519974485E+03  0.96738980428E+03  0.00000000000E+00 0.  1.
         21    1    1    2  505  506 -0.12672420298E+02 -0.12219772558E+03 -0.72169326823E+02  0.14248258177E+03  0.00000000000E+00 0.  1.
         21    1    1    2  506  504  0.67047996271E+02 -0.17925404913E+02  0.23951295541E+01  0.69444154475E+02  0.00000000000E+00 0.  1.
<scales pt_clust_3="117.90839" pt_clust_4="65.05756" pt_clust_5="14000.00000" pt_clust_6="56.44847"></scales>
<clustering>
<clus scale="   65.058">  1  4  2 -1</clus>
<clus scale="   56.448">  1  6  2 -1</clus>
<clus scale="  117.908">  1  3  2 -1</clus>
<clus scale="   65.058">  1  3  2 -1</clus>
</clustering>
</event>
<event>
 6    0  0.1704145E+002  0.1754390E+03  0.7546771E-02  0.1172292E+00
         21   -1    0    0  505  501  0.00000000000E+00  0.00000000000E+00  0.10463754002E+03  0.10463754002E+03  0.00000000000E+00 0.  1.
         21   -1    0    0  506  502 -0.00000000000E+00 -0.00000000000E+00 -0.23384254285E+04  0.23384254285E+04  0.00000000000E+00 0.  1.
         21    1    1    2  503  502 -0.15971962267E+01 -0.32266624418E+02 -0.12565572758E+03  0.12974223661E+03  0.00000000000E+00 0.  1.
         21    1    1    2  504  501 -0.14289299999E+03  0.89837111744E+02 -0.30571660448E+03  0.34921591938E+03  0.00000000000E+00 0.  1.
         21    1    1    2  505  503  0.49953547717E+02  0.72460718828E+02  0.52337879833E+02  0.10239710137E+03  0.00000000000E+00 0.  1.
         21    1    1    2  506  504  0.94536648502E+02 -0.13003120615E+03 -0.18547534363E+04  0.18617077112E+04  0.00000000000E+00 0.  1.
<scales pt_clust_3="32.30613" pt_clust_4="175.43898" pt_clust_5="87.70004" pt_clust_6="14000.00000"></scales>
<clustering>
<clus scale="   32.306">  2  3  1 -1</clus>
<clus scale="   87.700">  1  5  2 -1</clus>
<clus scale="  175.439">  1  4  2 -1</clus>
<clus scale="   87.700">  1  3  2 -1</clus>
</clustering>
</event>
<event>
 6    0  0.1704145E+002  0.9992291E+02  0.7546771E-02  0.1280458E+00
         21   -1    0    0  506  501  0.00000000000E+00  0.00000000000E+00  0.61872837691E+03  0.61872837691E+03  0.00000000000E+00 0. -1.
         21   -1    0    0  504  502 -0.00000000000E+00 -0.00000000000E+00 -0.91024465659E+03  0.91024465659E+03  0.00000000000E+00 0. -1.
         21    1    1    2  503  505 -0.14171550589E+03  0.18029002948E+02 -0.82371511091E+02  0.16490420066E+03  0.00000000000E+00 0. -1.
         21    1    1    2  504  501 -0.49545235373E+02 -0.21842251871E+02  0.38973350962E+02  0.66713839645E+02  0.00000000000E+00 0.  1.
         21    1    1    2  505  502  0.63003846600E+02 -0.67248506319E+02 -0.75965209185E+03  0.76522097915E+03  0.00000000000E+00 0. -1.
         21    1    1    2  506  503  0.12825689466E+03  0.71061755242E+02  0.51153397230E+03  0.53213401404E+03  0.00000000000E+00 0. -1.
<scales pt_clust_3="14000.00000" pt_clust_4="54.14623" pt_clust_5="92.06331" pt_clust_6="99.92291"></scales>
<clustering>
<clus scale="   54.146">  1  4  2 -1</clus>
<clus scale="   92.063">  2  5  1 -1</clus>
<clus scale="   99.923">  1  6  2 -1</clus>
<clus scale="   54.146">  1  3  2 -1</clus>
</clustering>
</event>
<event>
 6    0  0.1704145E+002  0.1254748E+03  0.7546771E-02  0.1234329E+00
         21   -1    0    0  505  501  0.00000000000E+00  0.00000000000E+00  0.87174934825E+02  0.87174934825E+02  0.00000000000E+00 0.  1.
         21   -1    0    0  504  502 -0.00000000000E+00 -0.00000000000E+00 -0.69296520583E+03  0.69296520583E+03  0.00000000000E+00 0.  1.
         21    1    1    2  503  502  0.45349454684E+02  0.28776009433E+02 -0.34635347256E+03  0.35049302377E+03  0.00000000000E+00 0.  1.
         21    1    1    2  504  506 -0.22005952091E+02  0.30094717548E+02 -0.16197057331E+03  0.16620595829E+03  0.00000000000E+00 0.  1.
         21    1    1    2  505  503  0.19787207282E+02 -0.11722173542E+03  0.24635843372E+02  0.12140590433E+03  0.00000000000E+00 0.  1.
         21    1    1    2  506  501 -0.43130709876E+02  0.58351008442E+02 -0.12210206851E+03  0.14203525427E+03  0.00000000000E+00 0.  1.
<scales pt_clust_3="53.70877" pt_clust_4="34.00046" pt_clust_5="116.16359" pt_clust_6="34.00046"></scales>
<clustering>
<clus scale="   34.000">  4  6 -1 -1</clus>
<clus scale="   53.709">  2  3  1 -1</clus>
<clus scale="  116.164">  1  5  2 -1</clus>
<clus scale="  116.164">  1  3  2 -1</clus>
</clustering>
</event>
<event>
 6    0  0.1704145E+002  0.1223800E+03  0.7546771E-02  0.1239222E+00
         21   -1    0    0  504  501  0.00000000000E+00  0.00000000000E+00  0.13330474881E+03  0.13330474881E+03  0.00000000000E+00 0. -1.
         21   -1    0    0  505  502 -0.00000000000E+00 -0.00000000000E+00 -0.89800631085E+03  0.89800631085E+03  0.00000000000E+00 0.  1.
         21    1    1    2  503  502 -0.20449932492E+01  0.59265199234E+02 -0.56084079699E+03  0.56396714922E+03  0.00000000000E+00 0.  1.
         21    1    1    2  504  503  0.24537111165E+02  0.39993726842E+02 -0.18935829226E+03  0.19508493242E+03  0.00000000000E+00 0.  1.
         21    1    1    2  505  506 -0.43478823989E+02  0.86587429539E+01 -0.11503647778E+03  0.12328330457E+03  0.00000000000E+00 0.  1.
         21    1    1    2  506  501  0.20986706073E+02 -0.10791766903E+03  0.10053400498E+03  0.14897567345E+03  0.00000000000E+00 0. -1.
<scales pt_clust_3="42.54487" pt_clust_4="42.54487" pt_clust_5="44.33263" pt_clust_6="109.42438"></scales>
<clustering>
<clus scale="   44.333">  2  5  1 -1</clus>
<clus scale="   42.545">  3  4 -1 -1</clus>
<clus scale="  109.424">  1  6  2 -1</clus>
<clus scale="  109.424">  1  3  2 -1</clus>
</clustering>
</event>
<event>
 6    0  0.1704145E+002  0.1004555E+03  0.7546771E-02  0.1279341E+00
         21   -1    0    0  505  501  0.00000000000E+00  0.00000000000E+00  0.62652787793E+03  0.62652787793E+03  0.00000000000E+00 0. -1.
         21   -1    0    0  504  502 -0.00000000000E+00 -0.00000000000E+00 -0.11785993874E+04  0.11785993874E+04  0.00000000000E+00 0.  1.
         21    1    1    2  503  502 -0.69560984869E+02 -0.55873173960E+02 -0.38391449847E+03  0.39414576532E+03  0.00000000000E+00 0.  1.
         21    1    1    2  504  506  0.11082001867E+03  0.29609169496E+02 -0.70539724289E+03  0.71466289237E+03  0.00000000000E+00 0.  1.
         21    1    1    2  505  503  0.11148720188E+02  0.53330279711E+02  0.60444772620E+03  0.60689823398E+03  0.00000000000E+00 0. -1.
         21    1    1    2  506  501 -0.52407753989E+02 -0.27066275247E+02 -0.67207494346E+02  0.89420373686E+02  0.00000000000E+00 0.  1.
<scales pt_clust_3="100.45547" pt_clust_4="14000.00000" pt_clust_5="54.48314" pt_clust_6="46.48959"></scales>
<clustering>
<clus scale="   54.483">  1  5  2 -1</clus>
<clus scale="   46.490">  1  6  2 -1</clus>
<clus scale="  100.455">  1  3  2 -1</clus>
<clus scale="   54.483">  1  3  2 -1</clus>
</clustering>
</event>
<event>
 6    0  0.1704145E+002  0.2163965E+03  0.7546771E-02  0.1136598E+00
         21   -1    0    0  503  501  0.00000000000E+00  0.00000000000E+00  0.70739655086E+03  0.70739655086E+03  0.00000000000E+00 0. -1.
         21   -1    0    0  505  502 -0.00000000000E+00 -0.00000000000E+00 -0.17820210487E+03  0.17820210487E+03  0.00000000000E+00 0. -1.
         21    1    1    2  503  506 -0.24390120895E+02  0.13307363855E+03  0.43354010767E+01  0.13535976868E+03  0.00000000000E+00 0. -1.
         21    1    1    2  504  501 -0.39304386841E+02 -0.37834263788E+02  0.44251649377E+03  0.44586669937E+03  0.00000000000E+00 0. -1.
         21    1    1    2  505  504  0.29395764616E+02 -0.18615318677E+03  0.85955836021E+02  0.20713649043E+03  0.00000000000E+00 0. -1.
         21    1    1    2  506  502  0.34298743121E+02  0.90913812010E+02 -0.36132848763E+01  0.97235697259E+02  0.00000000000E+00 0. -1.
<scales pt_clust_3="52.45874" pt_clust_4="54.55517" pt_clust_5="207.35451" pt_clust_6="52.45874"></scales>
<clustering>
<clus scale="   52.459">  3  6 -1 -1</clus>
<clus scale="   54.555">  1  4  2 -1</clus>
<clus scale="  207.355">  1  5  2 -1</clus>
<clus scale="   54.555">  1  3  2 -1</clus>
</clustering>
</event>
<event>
 6    0  0.1704145E+002  0.3430675E+03  0.7546771E-02  0.1065497E+00
         21   -1    0    0  505  501  0.00000000000E+00  0.00000000000E+00  0.13241273880E+04  0.13241273880E+04  0.00000000000E+00 0. -1.
         21   -1    0    0  504  502 -0.00000000000E+00 -0.00000000000E+00 -0.67362701990E+03  0.67362701990E+03  0.00000000000E+00 0. -1.
         21    1    1    2  503  506  0.97551904797E+02  0.20137231530E+02 -0.25050321738E+03  0.26958068206E+03  0.00000000000E+00 0. -1.
         21    1    1    2  504  501 -0.32349210211E+03  0.90983879840E+01  0.12586089726E+04  0.12995485626E+04  0.00000000000E+00 0. -1.
         21    1    1    2  505  503  0.10064409825E+03 -0.63030167917E+01 -0.10419201895E+03  0.14499979085E+03  0.00000000000E+00 0.  1.
         21    1    1    2  506  502  0.12529609906E+03 -0.22932602723E+02 -0.25341336814E+03  0.28362537238E+03  0.00000000000E+00 0. -1.
<scales pt_clust_3="43.64534" pt_clust_4="323.62003" pt_clust_5="67.00060" pt_clust_6="67.00060"></scales>
<clustering>
<clus scale="   43.645">  3  6 -1 -1</clus>
<clus scale="   67.001">  3  5 -1 -1</clus>
<clus scale="  323.620">  1  4  2 -1</clus>
<clus scale="  323.620">  1  3  2 -1</clus>
</clustering>
</event>
<event>
 6    0  0.1704145E+002  0.1718309E+03  0.7546771E-02  0.1175952E+00
         21   -1    0    0  502  501  0.00000000000E+00  0.00000000000E+00  0.23997727070E+03  0.23997727070E+03  0.00000000000E+00 0.  1.
         21   -1    0    0  504  502 -0.00000000000E+00 -0.00000000000E+00 -0.81764397029E+03  0.81764397029E+03  0.00000000000E+00 0. -1.
         21    1    1    2  503  505  0.32695036242E+02  0.11259316512E+03  0.12422231763E+03  0.17081384728E+03  0.00000000000E+00 0.  1.
         21    1    1    2  504  506 -0.30376442228E+02 -0.11092066296E+03 -0.51261576017E+03  0.52535801059E+03  0.00000000000E+00 0. -1.
         21    1    1    2  505  501 -0.30092928046E+02  0.44577805908E+02  0.74684105885E+02  0.92035214835E+02  0.00000000000E+00 0.  1.
         21    1    1    2  506  503  0.27774334032E+02 -0.46250308066E+02 -0.26395736294E+03  0.26941416829E+03  0.00000000000E+00 0. -1.
<scales pt_clust_3="47.00489" pt_clust_4="169.10648" pt_clust_5="47.00489" pt_clust_6="42.70414"></scales>
<clustering>
<clus scale="   42.704">  4  6 -1 -1</clus>
<clus scale="   47.005">  3  5 -1 -1</clus>
<clus scale="  169.106">  2  4  1 -1</clus>
<clus scale="  171.831">  1  3  2 -1</clus>
</clustering>
</event>
<event>
 6    0  0.1704145E+002  0.3419023E+03  0.7546771E-02  0.1065989E+00
         21   -1    0    0  506  501  0.00000000000E+00  0.00000000000E+00  0.15903477374E+03  0.15903477374E+03  0.00000000000E+00 0. -1.
         21   -1    0    0  501  502 -0.00000000000E+00 -0.00000000000E+00 -0.82435995683E+03  0.82435995683E+03  0.00000000000E+00 0. -1.
         21    1    1    2  503  505 -0.79082270239E+02  0.42322221755E+02 -0.35968303062E+02  0.96637957064E+02  0.00000000000E+00 0. -1.
         21    1    1    2  504  503 -0.16957273909E+03  0.14605807404E+03 -0.30396614378E+03  0.37746959003E+03  0.00000000000E+00 0. -1.
         21    1    1    2  505  502  0.10350918026E+01  0.35525526238E+02 -0.10092728394E+03  0.10700210780E+03  0.00000000000E+00 0. -1.
         21    1    1    2  506  504  0.24761991752E+03 -0.22390582203E+03 -0.22446345231E+03  0.40228507568E+03  0.00000000000E+00 0. -1.
<scales pt_clust_3="68.00972" pt_clust_4="68.00972" pt_clust_5="35.54060" pt_clust_6="324.02330"></scales>
<clustering>
<clus scale="   35.541">  2  5  1 -1</clus>
<clus scale="   68.010">  3  4 -1 -1</clus>
<clus scale="  324.023">  1  6  2 -1</clus>
<clus scale="  324.023">  1  3  2 -1</clus>
</clustering>
</event>
<event>
 6    0  0.1704145E+002  0.2583111E+03  0.7546771E-02  0.1108162E+00
         21   -1    0    0  503  501  0.00000000000E+00  0.00000000000E+00  0.16322660530E+03  0.16322660530E+03  0.00000000000E+00 0.  1.
         21   -1    0    0  504  502 -0.00000000000E+00 -0.00000000000E+00 -0.79380766691E+03  0.79380766691E+03  0.00000000000E+00 0.  1.
         21    1    1    2  503  505  0.93581549156E+02  0.49969278125E+02 -0.11513201871E+03  0.15655611400E+03  0.00000000000E+00 0.  1.
         21    1    1    2  504  501  0.57481361585E+02  0.17135069661E+02  0.64939434754E+02  0.88401627407E+02  0.00000000000E+00 0.  1.
         21    1    1    2  505  506  0.11596652071E+03  0.99853521875E+01 -0.85287506913E+02  0.14429795570E+03  0.00000000000E+00 0.  1.
         21    1    1    2  506  502 -0.26702943145E+03 -0.77089699974E+02 -0.49510097074E+03  0.56777857509E+03  0.00000000000E+00 0.  1.
<scales pt_clust_3="50.87913" pt_clust_4="59.98098" pt_clust_5="50.87913" pt_clust_6="252.75366"></scales>
<clustering>
<clus scale="   50.879">  3  5 -1 -1</clus>
<clus scale="   59.981">  1  4  2 -1</clus>
<clus scale="  252.754">  2  6  1 -1</clus>
<clus scale="   59.981">  1  3  2 -1</clus>
</clustering>
</event>
<event>
 6    0  0.1704145E+002  0.1409442E+03  0.7546771E-02  0.1212064E+00
         21   -1    0    0  506  501  0.00000000000E+00  0.00000000000E+00  0.66874118066E+02  0.66874118066E+02  0.00000000000E+00 0. -1.
         21   -1    0    0  505  502 -0.00000000000E+00 -0.00000000000E+00 -0.27587058040E+04  0.27587058040E+04  0.00000000000E+00 0. -1.
         21    1    1    2  503  501  0.37180275971E+02 -0.35843585845E+02  0.44804024364E+02  0.68370579687E+02  0.00000000000E+00 0. -1.
         21    1    1    2  504  502  0.14205171164E+02  0.45820757332E+02 -0.47228125519E+03  0.47471139938E+03  0.00000000000E+00 0.  1.
         21    1    1    2  505  503  0.11506124745E+03 -0.22725136022E+02 -0.77639841347E+03  0.78520699112E+03  0.00000000000E+00 0. -1.
         21    1    1    2  506  504 -0.16644669459E+03  0.12747964535E+02 -0.14879560416E+04  0.14972909519E+04  0.00000000000E+00 0. -1.
<scales pt_clust_3="51.53354" pt_clust_4="47.97217" pt_clust_5="140.94420" pt_clust_6="14000.00000"></scales>
<clustering>
<clus scale="   47.972">  2  4  1 -1</clus>
<clus scale="   51.534">  1  3  2 -1</clus>
<clus scale="  140.944">  1  5  2 -1</clus>
<clus scale="   51.534">  1  3  2 -1</clus>
</clustering>
</event>
<event>
 6    0  0.1704145E+002  0.1273725E+03  0.7546771E-02  0.1231407E+00
         21   -1    0    0  504  501  0.00000000000E+00  0.00000000000E+00  0.49873610535E+03  0.49873610535E+03  0.00000000000E+00 0.  1.
         21   -1    0    0  505  502 -0.00000000000E+00 -0.00000000000E+00 -0.16165050193E+04  0.16165050193E+04  0.00000000000E+00 0. -1.
         21    1    1    2  503  502 -0.13023302399E+02 -0.70968052867E+02 -0.22196663704E+03  0.23339935495E+03  0.00000000000E+00 0.  1.
         21    1    1    2  504  506  0.11823185384E+03 -0.50117147863E+02  0.47591727732E+03  0.49293788110E+03  0.00000000000E+00 0.  1.
         21    1    1    2  505  501 -0.18714668306E+02  0.10005254246E+03 -0.10554374176E+04  0.10603343306E+04  0.00000000000E+00 0. -1.
         21    1    1    2  506  503 -0.86493883135E+02  0.21032658271E+02 -0.31628213661E+03  0.32856955804E+03  0.00000000000E+00 0.  1.
<scales pt_clust_3="72.15311" pt_clust_4="127.37253" pt_clust_5="54.18025" pt_clust_6="14000.00000"></scales>
<clustering>
<clus scale="   72.153">  2  3  1 -1</clus>
<clus scale="   54.180">  2  5  1 -1</clus>
<clus scale="  127.373">  1  4  2 -1</clus>
<clus scale="  127.373">  1  3  2 -1</clus>
</clustering>
</event>
<event>
 6    0  0.1704145E+002  0.8775365E+02  0.7546771E-02  0.1308385E+00
         21   -1    0    0  503  501  0.00000000000E+00  0.00000000000E+00  0.13826948094E+03  0.13826948094E+03  0.00000000000E+00 0. -1.
         21   -1    0    0  505  502 -0.00000000000E+00 -0.00000000000E+00 -0.31989391456E+03  0.31989391456E+03  0.00000000000E+00 0. -1.
         21    1    1    2  503  504  0.79394307444E+02 -0.25681975712E+02 -0.23660239677E+02  0.86734231261E+02  0.00000000000E+00 0. -1.
         21    1    1    2  504  502  0.27865435601E+02  0.29692437354E+02 -0.98577903313E+02  0.10665705021E+03  0.00000000000E+00 0. -1.
         21    1    1    2  505  506 -0.20639893916E+02  0.41881888242E+02 -0.13379231675E+03  0.14170561670E+03  0.00000000000E+00 0. -1.
         21    1    1    2  506  501 -0.86619849129E+02 -0.45892349884E+02  0.74406026123E+02  0.12306649733E+03  0.00000000000E+00 0. -1.
<scales pt_clust_3="14000.00000" pt_clust_4="40.72006" pt_clust_5="60.77910" pt_clust_6="87.75365"></scales>
<clustering>
<clus scale="   40.720">  2  4  1 -1</clus>
<clus scale="   60.779">  2  5  1 -1</clus>
<clus scale="   87.754">  1  6  2 -1</clus>
<clus scale="   87.754">  1  3  2 -1</clus>
</clustering>
</event>
<event>
 6    0  0.1704145E+002  0.1038415E+03  0.7546771E-02  0.1272419E+00
         21   -1    0    0  503  501  0.00000000000E+00  0.00000000000E+00  0.56899076718E+03  0.56899076718E+03  0.00000000000E+00 0. -1.
         21   -1    0    0  504  502 -0.00000000000E+00 -0.00000000000E+00 -0.15385224973E+03  0.15385224973E+03  0.00000000000E+00 0. -1.
         21    1    1    2  503  506 -0.43715560121E+02  0.40567019156E+01 -0.15777917445E+01  0.43931724914E+02  0.00000000000E+00 0. -1.
         21    1    1    2  504  501  0.85839908133E+02  0.24173680532E+02  0.49591991707E+03  0.50387440975E+03  0.00000000000E+00 0. -1.
         21    1    1    2  505  502  0.31384249087E+02  0.32379493550E+02 -0.64403245026E+02  0.78620485010E+02  0.00000000000E+00 0. -1.
         21    1    1    2  506  505 -0.73508597099E+02 -0.60609875997E+02 -0.14800362849E+02  0.96416397238E+02  0.00000000000E+00 0. -1.
<scales pt_clust_3="33.87086" pt_clust_4="91.06850" pt_clust_5="45.09327" pt_clust_6="33.87086"></scales>
<clustering>
<clus scale="   33.871">  3  6 -1 -1</clus>
<clus scale="   45.093">  2  5  1 -1</clus>
<clus scale="   91.069">  1  4  2 -1</clus>
<clus scale="   91.069">  1  3  2 -1</clus>
</clustering>
</event>
<event>
 6    0  0.1704145E+002  0.1547485E+03  0.7546771E-02  0.1194757E+00
         21   -1    0    0  505  501  0.00000000000E+00  0.00000000000E+00  0.22880040274E+03  0.22880040274E+03  0.00000000000E+00 0.  1.
         21   -1    0    0  504  502 -0.00000000000E+00 -0.00000000000E+00 -0.58650053801E+03  0.58650053801E+03  0.00000000000E+00 0. -1.
         21    1    1    2  503  501  0.25783690687E+02 -0.59433640845E+02 -0.47661302450E+01  0.64960544694E+02  0.00000000000E+00 0.  1.
         21    1    1    2  504  503  0.29010533748E+02 -0.12261783529E+03 -0.72677574220E+02  0.14546055958E+03  0.00000000000E+00 0.  1.
         21    1    1    2  505  506  0.27554191754E+02  0.66689017086E+02  0.14210216082E+03  0.15937277871E+03  0.00000000000E+00 0.  1.
         21    1    1    2  506  502 -0.82348416189E+02  0.11536245905E+03 -0.42235859162E+03  0.44550705777E+03  0.00000000000E+00 0. -1.
<scales pt_clust_3="33.12706" pt_clust_4="33.12706" pt_clust_5="72.15718" pt_clust_6="147.69136"></scales>
<clustering>
<clus scale="   33.127">  3  4 -1 -1</clus>
<clus scale="   72.157">  1  5  2 -1</clus>
<clus scale="  147.691">  2  6  1 -1</clus>
<clus scale="   72.157">  1  3  2 -1</clus>
</clustering>
</event>
<event>
 6    0  0.1704145E+002  0.1688031E+03  0.7546771E-02  0.1179102E+00
         21   -1    0    0  505  501  0.00000000000E+00  0.00000000000E+00  0.15261069085E+03  0.15261069085E+03  0.00000000000E+00 0. -1.
         21   -1    0    0  501  502 -0.00000000000E+00 -0.00000000000E+00 -0.53404923945E+03  0.53404923945E+03  0.00000000000E+00 0. -1.
         21    1    1    2  503  506  0.39856389563E+02 -0.15588494548E+02 -0.89929079753E+02  0.99593033575E+02  0.00000000000E+00 0. -1.
         21    1    1    2  504  503  0.96459259143E+02  0.25532527404E+02 -0.11504006199E+03  0.15228432123E+03  0.00000000000E+00 0. -1.
         21    1    1    2  505  504 -0.16176315207E+03  0.45235907286E+02  0.69232952392E+02  0.18167775421E+03  0.00000000000E+00 0. -1.
         21    1    1    2  506  502  0.25447503365E+02 -0.55179940141E+02 -0.24570235925E+03  0.25310482129E+03  0.00000000000E+00 0. -1.
<scales pt_clust_3="34.33741" pt_clust_4="34.33741" pt_clust_5="160.45392" pt_clust_6="60.76513"></scales>
<clustering>
<clus scale="   34.337">  3  4 -1 -1</clus>
<clus scale="   60.765">  2  6  1 -1</clus>
<clus scale="  160.454">  1  5  2 -1</clus>
<clus scale="  160.454">  1  3  2 -1</clus>
</clustering>
</event>
<event>
 6    0  0.1704145E+002  0.1202923E+03  0.7546771E-02  0.1242616E+00
         21   -1    0    0  504  501  0.00000000000E+00  0.00000000000E+00  0.10461987223E+03  0.10461987223E+03  0.00000000000E+00 0. -1.
         21   -1    0    0  506  502 -0.00000000000E+00 -0.00000000000E+00 -0.25178913425E+03  0.25178913425E+03  0.00000000000E+00 0.  1.
         21    1    1    2  503  502 -0.12714455426E+02  0.34283149785E+02 -0.74931643746E+02  0.83377112989E+02  0.00000000000E+00 0.  1.
         21    1    1    2  504  505  0.27403893230E+02 -0.12979428862E+03 -0.43744529749E+02  0.13968219144E+03  0.00000000000E+00 0. -1.
         21    1    1    2  505  503  0.15723253553E+02  0.66497400904E+02 -0.51377460184E+02  0.85491335492E+02  0.00000000000E+00 0.  1.
         21    1    1    2  506  501 -0.30412691358E+02  0.29013737930E+02  0.22884371656E+02  0.47858366566E+02  0.00000000000E+00 0. -1.
<scales pt_clust_3="35.81281" pt_clust_4="109.87919" pt_clust_5="35.81281" pt_clust_6="42.03247"></scales>
<clustering>
<clus scale="   35.813">  3  5 -1 -1</clus>
<clus scale="   42.032">  1  6  2 -1</clus>
<clus scale="  109.879">  1  4  2 -1</clus>
<clus scale="   42.032">  1  3  2 -1</clus>
</clustering>
</event>
<event>
 6    0  0.1704145E+002  0.1229965E+03  0.7546771E-02  0.1238234E+00
         21   -1    0    0  504  501  0.00000000000E+00  0.00000000000E+00  0.95001608150E+02  0.95001608150E+02  0.00000000000E+00 0. -1.
         21   -1    0    0  503  502 -0.00000000000E+00 -0.00000000000E+00 -0.40482918022E+03  0.40482918022E+03  0.00000000000E+00 0. -1.
         21    1    1    2  503  506  0.74066173775E+01 -0.32652502080E+02 -0.30586189654E+02  0.45349298458E+02  0.00000000000E+00 0. -1.
         21    1    1    2  504  502  0.93354254638E+02  0.51784388274E+02 -0.12396403087E+03  0.16359621230E+03  0.00000000000E+00 0. -1.
         21    1    1    2  505  501  0.22951400064E+02  0.58761443718E+02  0.16611797025E+02  0.65235157953E+02  0.00000000000E+00 0. -1.
         21    1    1    2  506  505 -0.12371227208E+03 -0.77893329912E+02 -0.17188914857E+03  0.22565011967E+03  0.00000000000E+00 0. -1.
<scales pt_clust_3="33.48199" pt_clust_4="14000.00000" pt_clust_5="61.26030" pt_clust_6="122.99652"></scales>
<clustering>
<clus scale="   33.482">  2  3  1 -1</clus>
<clus scale="   61.260">  1  5  2 -1</clus>
<clus scale="  122.997">  1  6  2 -1</clus>
<clus scale="   61.260">  1  3  2 -1</clus>
</clustering>
</event>
<event>
 6    0  0.1704145E+002  0.1077773E+03  0.7546771E-02  0.1264742E+00
         21   -1    0    0  504  501  0.00000000000E+00  0.00000000000E+00  0.15679900400E+04  0.15679900400E+04  0.00000000000E+00 0.  1.
         21   -1    0    0  503  502 -0.00000000000E+00 -0.00000000000E+00 -0.16313507046E+03  0.16313507046E+03  0.00000000000E+00 0.  1.
         21    1    1    2  503  501  0.27979686587E+02 -0.53697754028E+02  0.38209199114E+02  0.71597866910E+02  0.00000000000E+00 0.  1.
         21    1    1    2  504  506 -0.10774501752E+03  0.18137183368E+02  0.14799122066E+04  0.14839400546E+04  0.00000000000E+00 0.  1.
         21    1    1    2  505  502  0.48711009850E+02 -0.16332920151E+02 -0.50563000950E+01  0.51624538080E+02  0.00000000000E+00 0.  1.
         21    1    1    2  506  505  0.31054321088E+02  0.51893490811E+02 -0.10821013614E+03  0.12396265087E+03  0.00000000000E+00 0.  1.
<scales pt_clust_3="65.28122" pt_clust_4="14000.00000" pt_clust_5="51.37632" pt_clust_6="107.77732"></scales>
<clustering>
<clus scale="   51.376">  2  5  1 -1</clus>
<clus scale="   65.281">  2  3  1 -1</clus>
<clus scale="  107.777">  2  6  1 -1</clus>
<clus scale="  107.777">  1  3  2 -1</clus>
</clustering>
</event>
<event>
 6    0  0.1704145E+002  0.1224675E+03  0.7546771E-02  0.1239081E+00
         21   -1    0    0  503  501  0.00000000000E+00  0.00000000000E+00  0.57010349629E+02  0.57010349629E+02  0.00000000000E+00 0. -1.
         21   -1    0    0  505  502 -0.00000000000E+00 -0.00000000000E+00 -0.51952841558E+03  0.51952841558E+03  0.00000000000E+00 0. -1.
         21    1    1    2  503  504 -0.38368033842E+02 -0.74771552849E+02 -0.97250320591E+02  0.12853215937E+03  0.00000000000E+00 0. -1.
         21    1    1    2  504  506  0.24788543171E+02  0.48333752708E+02 -0.84771988189E+02  0.10068224027E+03  0.00000000000E+00 0. -1.
         21    1    1    2  505  501 -0.81635716706E+01 -0.56462084314E+02 -0.32583989406E+01  0.57142173840E+02  0.00000000000E+00 0. -1.
         21    1    1    2  506  502  0.21743062341E+02  0.82899884455E+02 -0.27723735823E+03  0.29018219174E+03  0.00000000000E+00 0. -1.
<scales pt_clust_3="112.52341" pt_clust_4="38.48461" pt_clust_5="57.04920" pt_clust_6="38.48461"></scales>
<clustering>
<clus scale="   38.485">  4  6 -1 -1</clus>
<clus scale="   57.049">  1  5  2 -1</clus>
<clus scale="  112.523">  1  3  2 -1</clus>
<clus scale="   57.049">  1  3  2 -1</clus>
</clustering>
</event>
<event>
 6    0  0.1704145E+002  0.1102663E+03  0.7546771E-02  0.1260078E+00
         21   -1    0    0  502  501  0.00000000000E+00  0.00000000000E+00  0.29686888936E+03  0.29686888936E+03  0.00000000000E+00 0.  1.
         21   -1    0    0  506  502 -0.00000000000E+00 -0.00000000000E+00 -0.46300789118E+03  0.46300789118E+03  0.00000000000E+00 0. -1.
         21    1    1    2  503  501  0.31785867626E+02 -0.49646671799E+01  0.21084067635E+03  0.21328098861E+03  0.00000000000E+00 0.  1.
         21    1    1    2  504  505  0.45238033855E+02 -0.24841050602E+02 -0.27155513869E+03  0.27641590195E+03  0.00000000000E+00 0. -1.
         21    1    1    2  505  503 -0.11302813848E+03  0.64793993065E+02  0.22994139402E+02  0.13229645525E+03  0.00000000000E+00 0. -1.
         21    1    1    2  506  504  0.36004236996E+02 -0.34988275283E+02 -0.12841867888E+03  0.13788343474E+03  0.00000000000E+00 0. -1.
<scales pt_clust_3="32.17125" pt_clust_4="38.24212" pt_clust_5="103.31319" pt_clust_6="38.24212"></scales>
<clustering>
<clus scale="   32.171">  1  3  2 -1</clus>
<clus scale="   38.242">  4  6 -1 -1</clus>
<clus scale="  103.313">  1  5  2 -1</clus>
<clus scale="   32.171">  1  3  2 -1</clus>
</clustering>
</event>
<event>
 6    0  0.1704145E+002  0.9530845E+02  0.7546771E-02  0.1290483E+00
         21   -1    0    0  505  501  0.00000000000E+00  0.00000000000E+00  0.43289291413E+03  0.43289291413E+03  0.00000000000E+00 0. -1.
         21   -1    0    0  503  502 -0.00000000000E+00 -0.00000000000E+00 -0.13433825240E+04  0.13433825240E+04  0.00000000000E+00 0. -1.
         21    1    1    2  503  506  0.39054092305E+02  0.98820923655E+02 -0.73926225880E+03  0.74685974880E+03  0.00000000000E+00 0. -1.
         21    1    1    2  504  501 -0.19188387093E+02 -0.74062359966E+02  0.42207045975E+03  0.42894859874E+03  0.00000000000E+00 0. -1.
         21    1    1    2  505  502 -0.51400892231E+02 -0.31189928015E+02 -0.40502774183E+03  0.40946591432E+03  0.00000000000E+00 0. -1.
         21    1    1    2  506  504  0.31535187019E+02  0.64313643262E+01 -0.18827006897E+03  0.19100117628E+03  0.00000000000E+00 0. -1.
<scales pt_clust_3="31.16184" pt_clust_4="76.66613" pt_clust_5="60.12373" pt_clust_6="31.16184"></scales>
<clustering>
<clus scale="   31.162">  3  6 -1 -1</clus>
<clus scale="   60.124">  2  5  1 -1</clus>
<clus scale="   76.666">  1  4  2 -1</clus>
<clus scale="   76.666">  1  3  2 -1</clus>
</clustering>
</event>
<event>
 6    0  0.1704145E+002  0.1340340E+03  0.7546771E-02  0.1221590E+00
         21   -1    0    0  505  501  0.00000000000E+00  0.00000000000E+00  0.22784907516E+03  0.22784907516E+03  0.00000000000E+00 0.  1.
         21   -1    0    0  504  502 -0.00000000000E+00 -0.00000000000E+00 -0.32681489633E+03  0.32681489633E+03  0.00000000000E+00 0. -1.
         21    1    1    2  503  501  0.14409167339E+02 -0.29871858373E+02  0.17246496096E+03  0.17562492644E+03  0.00000000000E+00 0.  1.
         21    1    1    2  504  506 -0.63396553922E+02  0.28043131131E+02 -0.75872202199E+02  0.10277223029E+03  0.00000000000E+00 0. -1.
         21    1    1    2  505  502  0.81852638647E+02 -0.61004190820E+02 -0.48532098891E+02  0.11303420002E+03  0.00000000000E+00 0.  1.
         21    1    1    2  506  503 -0.32865252064E+02  0.62832918061E+02 -0.14702648105E+03  0.16323261474E+03  0.00000000000E+00 0. -1.
<scales pt_clust_3="33.16552" pt_clust_4="58.35712" pt_clust_5="120.06313" pt_clust_6="58.35712"></scales>
<clustering>
<clus scale="   33.166">  1  3  2 -1</clus>
<clus scale="   58.357">  4  6 -1 -1</clus>
<clus scale="  120.063">  1  5  2 -1</clus>
<clus scale="   33.166">  1  3  2 -1</clus>
</clustering>
</event>
<event>
 6    0  0.1704145E+002  0.1986836E+03  0.7546771E-02  0.1150854E+00
         21   -1    0    0  503  501  0.00000000000E+00  0.00000000000E+00  0.14907884158E+04  0.14907884158E+04  0.00000000000E+00 0.  1.
         21   -1    0    0  504  502 -0.00000000000E+00 -0.00000000000E+00 -0.12021018993E+03  0.12021018993E+03  0.00000000000E+00 0. -1.
         21    1    1    2  503  506 -0.19212123394E+02  0.27981227101E+02  0.69673112306E+03  0.69755739018E+03  0.00000000000E+00 0.  1.
         21    1    1    2  504  505  0.82499580092E+01  0.12683675276E+03 -0.25717506542E+02  0.12968042952E+03  0.00000000000E+00 0. -1.
         21    1    1    2  505  501 -0.15175850996E+02  0.62221645502E+02  0.15891640203E+02  0.65987755309E+02  0.00000000000E+00 0. -1.
         21    1    1    2  506  502  0.26138016381E+02 -0.21703962536E+03  0.68367296911E+03  0.71777303068E+03  0.00000000000E+00 0.  1.
<scales pt_clust_3="33.94193" pt_clust_4="34.96571" pt_clust_5="34.96571" pt_clust_6="192.55321"></scales>
<clustering>
<clus scale="   33.942">  1  3  2 -1</clus>
<clus scale="   34.966">  4  5 -1 -1</clus>
<clus scale="  192.553">  1  6  2 -1</clus>
<clus scale="   33.942">  1  3  2 -1</clus>
</clustering>
</event>
<event>
 6    0  0.1704145E+002  0.1403371E+03  0.7546771E-02  0.1212876E+00
         21   -1    0    0  504  501  0.00000000000E+00  0.00000000000E+00  0.23662535026E+02  0.23662535026E+02  0.00000000000E+00 0. -1.
         21   -1    0    0  503  502 -0.00000000000E+00 -0.00000000000E+00 -0.15978670117E+04  0.15978670117E+04  0.00000000000E+00 0. -1.
         21    1    1    2  503  501  0.37818963970E+01  0.11332810656E+03 -0.17088199550E+03  0.20508100561E+03  0.00000000000E+00 0. -1.
         21    1    1    2  504  506  0.34801647164E+02  0.12874691430E+02 -0.13672389599E+03  0.14166981351E+03  0.00000000000E+00 0. -1.
         21    1    1    2  505  502 -0.25528428690E+02 -0.90981882172E+02 -0.62728159246E+03  0.63435920407E+03  0.00000000000E+00 0. -1.
         21    1    1    2  506  505 -0.13055114871E+02 -0.35220915817E+02 -0.63931699277E+03  0.64041952357E+03  0.00000000000E+00 0. -1.
<scales pt_clust_3="127.75567" pt_clust_4="37.10677" pt_clust_5="36.61676" pt_clust_6="36.61676"></scales>
<clustering>
<clus scale="   36.617">  5  6 -1 -1</clus>
<clus scale="   37.107">  1  4  2 -1</clus>
<clus scale="  127.756">  1  3  2 -1</clus>
<clus scale="   37.107">  1  3  2 -1</clus>
</clustering>
</event>
<event>
 6    0  0.1704145E+002  0.8527496E+02  0.7546771E-02  0.1314715E+00
         21   -1    0    0  504  501  0.00000000000E+00  0.00000000000E+00  0.75989344531E+03  0.75989344531E+03  0.00000000000E+00 0. -1.
         21   -1    0    0  505  502 -0.00000000000E+00 -0.00000000000E+00 -0.38073578175E+03  0.38073578175E+03  0.00000000000E+00 0.  1.
         21    1    1    2  503  506 -0.45333360814E+02  0.37586026287E+02  0.15266734516E+02  0.60834991226E+02  0.00000000000E+00 0.  1.
         21    1    1    2  504  503 -0.46455745524E+02 -0.18316921031E+02  0.68965189781E+03  0.69145743618E+03  0.00000000000E+00 0. -1.
         21    1    1    2  505  501  0.10472470201E+03 -0.67452435922E+02 -0.10779028874E+03  0.16472959865E+03  0.00000000000E+00 0.  1.
         21    1    1    2  506  502 -0.12935595677E+02  0.48183330666E+02 -0.21797068003E+03  0.22360720100E+03  0.00000000000E+00 0.  1.
<scales pt_clust_3="14000.00000" pt_clust_4="49.90537" pt_clust_5="85.27496" pt_clust_6="49.88951"></scales>
<clustering>
<clus scale="   49.890">  2  6  1 -1</clus>
<clus scale="   49.905">  1  4  2 -1</clus>
<clus scale="   85.275">  2  5  1 -1</clus>
<clus scale="   49.905">  1  3  2 -1</clus>
</clustering>
</event>
<event>
 6    0  0.1704145E+002  0.2152204E+03  0.7546771E-02  0.1137497E+00
         21   -1    0    0  503  501  0.00000000000E+00  0.00000000000E+00  0.16796342325E+04  0.16796342325E+04  0.00000000000E+00 0. -1.
         21   -1    0    0  505  502 -0.00000000000E+00 -0.00000000000E+00 -0.24281881777E+03  0.24281881777E+03  0.00000000000E+00 0.  1.
         21    1    1    2  503  504 -0.51768265200E+02 -0.47860278895E+02 -0.13532010335E+03  0.15258469762E+03  0.00000000000E+00 0.  1.
         21    1    1    2  504  506 -0.57944522035E+02 -0.16661692987E+02 -0.50386298270E+02  0.78574542317E+02  0.00000000000E+00 0.  1.
         21    1    1    2  505  501  0.18416248886E+03  0.10397105929E+03  0.15850243704E+04  0.15990709985E+04  0.00000000000E+00 0. -1.
         21    1    1    2  506  502 -0.74449701627E+02 -0.39449087407E+02  0.37497445948E+02  0.92222811832E+02  0.00000000000E+00 0. -1.
<scales pt_clust_3="48.47507" pt_clust_4="48.47507" pt_clust_5="208.73924" pt_clust_6="84.25550"></scales>
<clustering>
<clus scale="   48.475">  3  4 -1 -1</clus>
<clus scale="   84.255">  2  6  1 -1</clus>
<clus scale="  208.739">  1  5  2 -1</clus>
<clus scale="  208.739">  1  3  2 -1</clus>
</clustering>
</event>
<event>
 6    0  0.1704145E+002  0.1458577E+03  0.7546771E-02  0.1205657E+00
         21   -1    0    0  503  501  0.00000000000E+00  0.00000000000E+00  0.15004931135E+03  0.15004931135E+03  0.00000000000E+00 0.  1.
         21   -1    0    0  504  502 -0.00000000000E+00 -0.00000000000E+00 -0.72264511391E+03  0.72264511391E+03  0.00000000000E+00 0.  1.
         21    1    1    2  503  506  0.43771800273E+02  0.54249823313E+02  0.10868177583E+03  0.12911522849E+03  0.00000000000E+00 0.  1.
         21    1    1    2  504  505  0.56511468017E+02 -0.45804819336E+02 -0.19917561521E+03  0.21204375300E+03  0.00000000000E+00 0.  1.
         21    1    1    2  505  501  0.59804012498E+02 -0.19645990638E+02 -0.12156828799E+03  0.13689899015E+03  0.00000000000E+00 0.  1.
         21    1    1    2  506  502 -0.16008728079E+03  0.11200986660E+02 -0.36053367520E+03  0.39463645362E+03  0.00000000000E+00 0.  1.
<scales pt_clust_3="69.70663" pt_clust_4="30.44721" pt_clust_5="30.44721" pt_clust_6="142.13788"></scales>
<clustering>
<clus scale="   30.447">  4  5 -1 -1</clus>
<clus scale="   69.707">  1  3  2 -1</clus>
<clus scale="  142.138">  1  6  2 -1</clus>
<clus scale="   69.707">  1  3  2 -1</clus>
</clustering>
</event>
<event>
 6    0  0.1704145E+002  0.1087332E+03  0.7546771E-02  0.1262934E+00
         21   -1    0    0  503  501  0.00000000000E+00  0.00000000000E+00  0.39773768488E+02  0.39773768488E+02  0.00000000000E+00 0.  1.
         21   -1    0    0  505  502 -0.00000000000E+00 -0.00000000000E+00 -0.99154107377E+03  0.99154107377E+03  0.00000000000E+00 0.  1.
         21    1    1    2  503  504 -0.16266860805E+02  0.73875035711E+02 -0.49922954772E+02  0.90633509669E+02  0.00000000000E+00 0.  1.
         21    1    1    2  504  502 -0.10205577699E+03 -0.57866908105E+02 -0.41038141991E+03  0.42682182522E+03  0.00000000000E+00 0.  1.
         21    1    1    2  505  506  0.18600427400E+02 -0.38305450493E+02 -0.21359303511E+03  0.21779639135E+03  0.00000000000E+00 0.  1.
         21    1    1    2  506  501  0.99722210391E+02  0.22297322887E+02 -0.27786989548E+03  0.29606311602E+03  0.00000000000E+00 0.  1.
<scales pt_clust_3="71.89944" pt_clust_4="108.73323" pt_clust_5="42.58267" pt_clust_6="14000.00000"></scales>
<clustering>
<clus scale="   42.583">  2  5  1 -1</clus>
<clus scale="   71.899">  1  3  2 -1</clus>
<clus scale="  108.733">  2  4  1 -1</clus>
<clus scale="   71.899">  1  3  2 -1</clus>
</clustering>
</event>
<event>
 6    0  0.1704145E+002  0.1356255E+03  0.7546771E-02  0.1219339E+00
         21   -1    0    0  505  501  0.00000000000E+00  0.00000000000E+00  0.41921610795E+03  0.41921610795E+03  0.00000000000E+00 0. -1.
         21   -1    0    0  506  502 -0.00000000000E+00 -0.00000000000E+00 -0.26523114805E+03  0.26523114805E+03  0.00000000000E+00 0. -1.
         21    1    1    2  503  504  0.41435546429E+02 -0.84660685246E+02  0.10324643395E+03  0.13980043726E+03  0.00000000000E+00 0. -1.
         21    1    1    2  504  502  0.74492912643E+00 -0.59167162180E+02  0.27738656252E+02  0.65350907037E+02  0.00000000000E+00 0. -1.
         21    1    1    2  505  503 -0.30642104716E+02  0.20294054803E+02  0.23273036479E+03  0.23561453677E+03  0.00000000000E+00 0. -1.
         21    1    1    2  506  501 -0.11538370839E+02  0.12353379262E+03 -0.20973049509E+03  0.24368137494E+03  0.00000000000E+00 0. -1.
<scales pt_clust_3="42.47721" pt_clust_4="42.47721" pt_clust_5="36.75306" pt_clust_6="126.21387"></scales>
<clustering>
<clus scale="   36.753">  1  5  2 -1</clus>
<clus scale="   42.477">  3  4 -1 -1</clus>
<clus scale="  126.214">  2  6  1 -1</clus>
<clus scale="   36.753">  1  3  2 -1</clus>
</clustering>
</event>
<event>
 6    0  0.1704145E+002  0.1435976E+03  0.7546771E-02  0.1208569E+00
         21   -1    0    0  506  501  0.00000000000E+00  0.00000000000E+00  0.23321108226E+03  0.23321108226E+03  0.00000000000E+00 0.  1.
         21   -1    0    0  504  502 -0.00000000000E+00 -0.00000000000E+00 -0.24326849139E+03  0.24326849139E+03  0.00000000000E+00 0.  1.
         21    1    1    2  503  501  0.11095475345E+03 -0.58836572844E+02  0.47818807061E+02  0.13438503609E+03  0.00000000000E+00 0.  1.
         21    1    1    2  504  503 -0.27400298348E+02  0.15319087838E+03 -0.11893036714E+03  0.19586386546E+03  0.00000000000E+00 0.  1.
         21    1    1    2  505  502 -0.34377645427E+02 -0.63784036716E+02  0.47873463684E+02  0.86845232282E+02  0.00000000000E+00 0.  1.
         21    1    1    2  506  505 -0.49176809672E+02 -0.30570268816E+02  0.13180687261E+02  0.59385439812E+02  0.00000000000E+00 0.  1.
<scales pt_clust_3="125.58941" pt_clust_4="137.28999" pt_clust_5="37.62773" pt_clust_6="37.62773"></scales>
<clustering>
<clus scale="   37.628">  5  6 -1 -1</clus>
<clus scale="  125.589">  1  3  2 -1</clus>
<clus scale="  137.290">  2  4  1 -1</clus>
<clus scale="  125.589">  1  3  2 -1</clus>
</clustering>
</event>
<event>
 6    0  0.1704145E+002  0.6930150E+02  0.7546771E-02  0.1362485E+00
         21   -1    0    0  504  501  0.00000000000E+00  0.00000000000E+00  0.26895963957E+03  0.26895963957E+03  0.00000000000E+00 0. -1.
         21   -1    0    0  505  502 -0.00000000000E+00 -0.00000000000E+00 -0.87295642060E+03  0.87295642060E+03  0.00000000000E+00 0. -1.
         21    1    1    2  503  502  0.75404298218E+02  0.57001362919E+02 -0.57735832108E+03  0.58504495082E+03  0.00000000000E+00 0. -1.
         21    1    1    2  504  503 -0.90507831728E+02 -0.32038177669E+02 -0.35553201399E+02  0.10238233521E+03  0.00000000000E+00 0. -1.
         21    1    1    2  505  506 -0.49578695284E+02 -0.15325887189E+01 -0.21479089022E+03  0.22044392115E+03  0.00000000000E+00 0. -1.
         21    1    1    2  506  501  0.64682228794E+02 -0.23430596531E+02  0.22370563166E+03  0.23404485299E+03  0.00000000000E+00 0. -1.
<scales pt_clust_3="63.90750" pt_clust_4="14000.00000" pt_clust_5="49.60238" pt_clust_6="69.30150"></scales>
<clustering>
<clus scale="   49.602">  2  5  1 -1</clus>
<clus scale="   63.907">  2  3  1 -1</clus>
<clus scale="   69.301">  1  6  2 -1</clus>
<clus scale="   69.301">  1  3  2 -1</clus>
</clustering>
</event>
<event>
 6    0  0.1704145E+002  0.1289177E+03  0.7546771E-02  0.1229071E+00
         21   -1    0    0  506  501  0.00000000000E+00  0.00000000000E+00  0.23597367440E+03  0.23597367440E+03  0.00000000000E+00 0. -1.
         21   -1    0    0  504  502 -0.00000000000E+00 -0.00000000000E+00 -0.27958331816E+03  0.27958331816E+03  0.00000000000E+00 0. -1.
         21    1    1    2  503  505  0.21962471772E+02  0.24338231591E+02  0.76873734606E+01  0.33671878386E+02  0.00000000000E+00 0. -1.
         21    1    1    2  504  501 -0.11590197907E+03 -0.10284244963E+03 -0.18174706571E+03  0.23883432352E+03  0.00000000000E+00 0. -1.
         21    1    1    2  505  502  0.45803667880E+02  0.25460480702E+02 -0.34825704199E+02  0.62920916569E+02  0.00000000000E+00 0. -1.
         21    1    1    2  506  503  0.48135839421E+02  0.53043737341E+02  0.16527575269E+03  0.18012987407E+03  0.00000000000E+00 0. -1.
<scales pt_clust_3="30.85153" pt_clust_4="122.87496" pt_clust_5="30.85153" pt_clust_6="71.62888"></scales>
<clustering>
<clus scale="   30.852">  3  5 -1 -1</clus>
<clus scale="   71.629">  1  6  2 -1</clus>
<clus scale="  122.875">  2  4  1 -1</clus>
<clus scale="   71.629">  1  3  2 -1</clus>
</clustering>
</event>
<event>
 6    0  0.1704145E+002  0.5089886E+03  0.7546771E-02  0.1011459E+00
         21   -1    0    0  506  501  0.00000000000E+00  0.00000000000E+00  0.52012757770E+03  0.52012757770E+03  0.00000000000E+00 0.  1.
         21   -1    0    0  504  502 -0.00000000000E+00 -0.00000000000E+00 -0.10045758443E+04  0.10045758443E+04  0.00000000000E+00 0.  1.
         21    1    1    2  503  505  0.16698220974E+02 -0.15123494107E+03 -0.77512045923E+02  0.17075993455E+03  0.00000000000E+00 0.  1.
         21    1    1    2  504  501 -0.20589344834E+03  0.42793197894E+03  0.24218815761E+02  0.47550440766E+03  0.00000000000E+00 0.  1.
         21    1    1    2  505  502  0.74800482954E+02 -0.30453400807E+03 -0.59741491686E+03  0.67471524157E+03  0.00000000000E+00 0.  1.
         21    1    1    2  506  503  0.11439474441E+03  0.27836970194E+02  0.16625988037E+03  0.20372383827E+03  0.00000000000E+00 0.  1.
<scales pt_clust_3="144.12774" pt_clust_4="464.61261" pt_clust_5="144.12774" pt_clust_6="117.73298"></scales>
<clustering>
<clus scale="  117.733">  1  6  2 -1</clus>
<clus scale="  144.128">  3  5 -1 -1</clus>
<clus scale="  464.613">  1  4  2 -1</clus>
<clus scale="  117.733">  1  3  2 -1</clus>
</clustering>
</event>
<event>
 6    0  0.1704145E+002  0.1464337E+03  0.7546771E-02  0.1204925E+00
         21   -1    0    0  504  501  0.00000000000E+00  0.00000000000E+00  0.73688333942E+03  0.73688333942E+03  0.00000000000E+00 0. -1.
         21   -1    0    0  503  502 -0.00000000000E+00 -0.00000000000E+00 -0.52945416458E+03  0.52945416458E+03  0.00000000000E+00 0.  1.
         21    1    1    2  503  501 -0.95072400152E+01 -0.56701527380E+02 -0.34885841819E+03  0.35356420458E+03  0.00000000000E+00 0.  1.
         21    1    1    2  504  505  0.65749240930E+02  0.13309004875E+03  0.70480012283E+03  0.72026324139E+03  0.00000000000E+00 0. -1.
         21    1    1    2  505  506 -0.13437473620E+02 -0.59072029988E+02 -0.34998445310E+02  0.69964002160E+02  0.00000000000E+00 0. -1.
         21    1    1    2  506  502 -0.42804527294E+02 -0.17316491378E+02 -0.11351408449E+03  0.12254605587E+03  0.00000000000E+00 0.  1.
<scales pt_clust_3="146.43369" pt_clust_4="14000.00000" pt_clust_5="64.12855" pt_clust_6="46.17454"></scales>
<clustering>
<clus scale="   46.175">  2  6  1 -1</clus>
<clus scale="   64.129">  2  5  1 -1</clus>
<clus scale="  146.434">  2  3  1 -1</clus>
<clus scale="  146.434">  1  3  2 -1</clus>
</clustering>
</event>
<event>
 6    0  0.1704145E+002  0.1900218E+03  0.7546771E-02  0.1158442E+00
         21   -1    0    0  506  501  0.00000000000E+00  0.00000000000E+00  0.26925407620E+04  0.26925407620E+04  0.00000000000E+00 0. -1.
         21   -1    0    0  503  502 -0.00000000000E+00 -0.00000000000E+00 -0.19671680880E+03  0.19671680880E+03  0.00000000000E+00 0. -1.
         21    1    1    2  503  501  0.54854809246E+02  0.55137436156E+02 -0.46423365986E+02  0.90577678667E+02  0.00000000000E+00 0. -1.
         21    1    1    2  504  505  0.50412843630E+02 -0.76971148821E+02  0.16972128318E+02  0.93563164190E+02  0.00000000000E+00 0. -1.
         21    1    1    2  505  502  0.28564857476E+02 -0.85155241719E+02 -0.63930899877E+02  0.11024756793E+03  0.00000000000E+00 0. -1.
         21    1    1    2  506  504 -0.13383251035E+03  0.10698895438E+03  0.25892060907E+04  0.25948691600E+04  0.00000000000E+00 0. -1.
<scales pt_clust_3="77.77652" pt_clust_4="78.38226" pt_clust_5="78.38226" pt_clust_6="171.16374"></scales>
<clustering>
<clus scale="   77.777">  2  3  1 -1</clus>
<clus scale="   78.382">  4  5 -1 -1</clus>
<clus scale="  171.164">  1  6  2 -1</clus>
<clus scale="  171.164">  1  3  2 -1</clus>
</clustering>
</event>
<event>
 6    0  0.1704145E+002  0.8469169E+02  0.7546771E-02  0.1316241E+00
         21   -1    0    0  506  501  0.00000000000E+00  0.00000000000E+00  0.10097368338E+03  0.10097368338E+03  0.00000000000E+00 0.  1.
         21   -1    0    0  503  502 -0.00000000000E+00 -0.00000000000E+00 -0.31732910937E+03  0.31732910937E+03  0.00000000000E+00 0.  1.
         21    1    1    2  503  504  0.48998112419E+02 -0.55404717930E+02 -0.22662885494E+03  0.23839281801E+03  0.00000000000E+00 0.  1.
         21    1    1    2  504  501  0.32998457041E+02 -0.38190227259E+02 -0.18715252332E+01  0.50506378131E+02  0.00000000000E+00 0.  1.
         21    1    1    2  505  502 -0.48511804917E+02  0.31494250694E+02  0.15246647686E+00  0.57838622815E+02  0.00000000000E+00 0.  1.
         21    1    1    2  506  505 -0.33484764542E+02  0.62100694495E+02  0.11992487703E+02  0.71564973797E+02  0.00000000000E+00 0.  1.
<scales pt_clust_3="77.83536" pt_clust_4="50.47169" pt_clust_5="30.22451" pt_clust_6="30.22451"></scales>
<clustering>
<clus scale="   30.225">  5  6 -1 -1</clus>
<clus scale="   50.472">  1  4  2 -1</clus>
<clus scale="   77.835">  2  3  1 -1</clus>
<clus scale="   50.472">  1  3  2 -1</clus>
</clustering>
</event>
<event>
 6    0  0.1704145E+002  0.8493404E+02  0.7546771E-02  0.1315605E+00
         21   -1    0    0  505  501  0.00000000000E+00  0.00000000000E+00  0.36878337084E+03  0.36878337084E+03  0.00000000000E+00 0.  1.
         21   -1    0    0  504  502 -0.00000000000E+00 -0.00000000000E+00 -0.30851037654E+03  0.30851037654E+03  0.00000000000E+00 0. -1.
         21    1    1    2  503  506  0.94648876078E+02 -0.13170667822E+02 -0.59575628180E+02  0.11261053107E+03  0.00000000000E+00 0. -1.
         21    1    1    2  504  501 -0.41173027562E+02  0.26175695853E+02 -0.59394448164E+02  0.76864073043E+02  0.00000000000E+00 0.  1.
         21    1    1    2  505  503 -0.61244420999E+02  0.59476033842E+02  0.31898238418E+03  0.33020908395E+03  0.00000000000E+00 0.  1.
         21    1    1    2  506  502  0.77685724831E+01 -0.72481061873E+02 -0.13973931355E+03  0.15761005932E+03  0.00000000000E+00 0. -1.
<scales pt_clust_3="14000.00000" pt_clust_4="48.78919" pt_clust_5="84.93404" pt_clust_6="59.00771"></scales>
<clustering>
<clus scale="   48.789">  2  4  1 -1</clus>
<clus scale="   59.008">  2  6  1 -1</clus>
<clus scale="   84.934">  1  5  2 -1</clus>
<clus scale="   84.934">  1  3  2 -1</clus>
</clustering>
</event>
<event>
 6    0  0.1704145E+002  0.2215459E+03  0.7546771E-02  0.1132736E+00
         21   -1    0    0  503  501  0.00000000000E+00  0.00000000000E+00  0.14325655387E+04  0.14325655387E+04  0.00000000000E+00 0.  1.
         21   -1    0    0  506  502 -0.00000000000E+00 -0.00000000000E+00 -0.24309762508E+03  0.24309762508E+03  0.00000000000E+00 0. -1.
         21    1    1    2  503  504  0.21994630653E+02  0.27091643476E+02  0.98548361919E+03  0.98610125475E+03  0.00000000000E+00 0.  1.
         21    1    1    2  504  502 -0.17489940625E+03  0.98367408935E+02 -0.16529667160E+03  0.25997872815E+03  0.00000000000E+00 0. -1.
         21    1    1    2  505  501  0.51429652674E+02 -0.89236191197E+02  0.12080098569E+03  0.15874818153E+03  0.00000000000E+00 0. -1.
         21    1    1    2  506  505  0.10147512293E+03 -0.36222861213E+02  0.24847998031E+03  0.27083499933E+03  0.00000000000E+00 0.  1.
<scales pt_clust_3="34.89586" pt_clust_4="200.07285" pt_clust_5="88.14238" pt_clust_6="88.14238"></scales>
<clustering>
<clus scale="   34.896">  1  3  2 -1</clus>
<clus scale="   88.142">  5  6 -1 -1</clus>
<clus scale="  200.073">  2  4  1 -1</clus>
<clus scale="   34.896">  1  3  2 -1</clus>
</clustering>
</event>
<event>
 6    0  0.1704145E+002  0.1552747E+03  0.7546771E-02  0.1194137E+00
         21   -1    0    0  503  501  0.00000000000E+00  0.00000000000E+00  0.26781860605E+03  0.26781860605E+03  0.00000000000E+00 0. -1.
         21   -1    0    0  504  502 -0.00000000000E+00 -0.00000000000E+00 -0.12211941004E+04  0.12211941004E+04  0.00000000000E+00 0. -1.
         21    1    1    2  503  506 -0.19837594486E+02  0.72598810159E+02  0.24138226324E+03  0.25284286503E+03  0.00000000000E+00 0. -1.
         21    1    1    2  504  501  0.13999197108E+03  0.38142564161E+02 -0.62555241388E+03  0.64215919341E+03  0.00000000000E+00 0. -1.
         21    1    1    2  505  502 -0.51933378532E+02 -0.78121380440E+02 -0.33617893653E+03  0.34902192374E+03  0.00000000000E+00 0. -1.
         21    1    1    2  506  505 -0.68220998060E+02 -0.32619993881E+02 -0.23302640713E+03  0.24498872422E+03  0.00000000000E+00 0. -1.
<scales pt_clust_3="75.26033" pt_clust_4="148.17910" pt_clust_5="41.66156" pt_clust_6="41.66156"></scales>
<clustering>
<clus scale="   41.662">  5  6 -1 -1</clus>
<clus scale="   75.260">  1  3  2 -1</clus>
<clus scale="  148.179">  2  4  1 -1</clus>
<clus scale="   75.260">  1  3  2 -1</clus>
</clustering>
</event>
<event>
 6    0  0.1704145E+002  0.1186464E+03  0.7546771E-02  0.1245347E+00
         21   -1    0    0  503  501  0.00000000000E+00  0.00000000000E+00  0.41309668506E+02  0.41309668506E+02  0.00000000000E+00 0. -1.
         21   -1    0    0  506  502 -0.00000000000E+00 -0.00000000000E+00 -0.12637459094E+04  0.12637459094E+04  0.00000000000E+00 0. -1.
         21    1    1    2  503  505 -0.33398590826E+02  0.47009743540E+00  0.20799633100E+02  0.39348590799E+02  0.00000000000E+00 0. -1.
         21    1    1    2  504  502  0.43977973121E+02 -0.27313420285E+02 -0.31277048333E+03  0.31702596154E+03  0.00000000000E+00 0. -1.
         21    1    1    2  505  504  0.40700704677E+02 -0.65117531793E+02 -0.31161838481E+03  0.32094058338E+03  0.00000000000E+00 0. -1.
         21    1    1    2  506  501 -0.51280086972E+02  0.91960854642E+02 -0.61884700588E+03  0.62774044222E+03  0.00000000000E+00 0. -1.
<scales pt_clust_3="33.40190" pt_clust_4="31.00459" pt_clust_5="31.00459" pt_clust_6="112.47704"></scales>
<clustering>
<clus scale="   31.005">  4  5 -1 -1</clus>
<clus scale="   33.402">  1  3  2 -1</clus>
<clus scale="  112.477">  2  6  1 -1</clus>
<clus scale="   33.402">  1  3  2 -1</clus>
</clustering>
</event>
<event>
 6    0  0.1704145E+002  0.1396075E+03  0.7546771E-02  0.1213858E+00
         21   -1    0    0  506  501  0.00000000000E+00  0.00000000000E+00  0.44636010386E+03  0.44636010386E+03  0.00000000000E+00 0.  1.
         21   -1    0    0  501  502 -0.00000000000E+00 -0.00000000000E+00 -0.19164399153E+03  0.19164399153E+03  0.00000000000E+00 0. -1.
         21    1    1    2  503  502 -0.43964941691E+02 -0.11164832809E+02 -0.15394791632E+02  0.47901661756E+02  0.00000000000E+00 0.  1.
         21    1    1    2  504  503  0.34338110683E+02 -0.63555002665E+02 -0.81146549910E+02  0.10864210404E+03  0.00000000000E+00 0. -1.
         21    1    1    2  505  504  0.13869787179E+02 -0.61157868880E+02 -0.35112788001E+02  0.71871856825E+02  0.00000000000E+00 0. -1.
         21    1    1    2  506  505 -0.42429561713E+01  0.13587770435E+03  0.38637024188E+03  0.40958847277E+03  0.00000000000E+00 0.  1.
<scales pt_clust_3="45.36044" pt_clust_4="32.16487" pt_clust_5="32.16487" pt_clust_6="135.27197"></scales>
<clustering>
<clus scale="   32.165">  4  5 -1 -1</clus>
<clus scale="   45.360">  2  3  1 -1</clus>
<clus scale="  135.272">  1  6  2 -1</clus>
<clus scale="  135.272">  1  3  2 -1</clus>
</clustering>
</event>
<event>
 6    0  0.1704145E+002  0.1202385E+03  0.7546771E-02  0.1242704E+00
         21   -1    0    0  504  501  0.00000000000E+00  0.00000000000E+00  0.76210898459E+02  0.76210898459E+02  0.00000000000E+00 0.  1.
         21   -1    0    0  503  502 -0.00000000000E+00 -0.00000000000E+00 -0.10619921010E+04  0.10619921010E+04  0.00000000000E+00 0.  1.
         21    1    1    2  503  505 -0.37683731635E+02  0.11522137969E+02 -0.51955894727E+03  0.52105117118E+03  0.00000000000E+00 0.  1.
         21    1    1    2  504  506  0.24556342790E+02 -0.24821986421E+02  0.34447419861E+02  0.49048646426E+02  0.00000000000E+00 0.  1.
         21    1    1    2  505  501 -0.81428130319E+02  0.57456669893E+02 -0.43160498157E+03  0.44296125050E+03  0.00000000000E+00 0.  1.
         21    1    1    2  506  502  0.94555519163E+02 -0.44156821441E+02 -0.69064693516E+02  0.12514193132E+03  0.00000000000E+00 0.  1.
<scales pt_clust_3="38.74200" pt_clust_4="34.91626" pt_clust_5="14000.00000" pt_clust_6="120.23855"></scales>
<clustering>
<clus scale="   34.916">  1  4  2 -1</clus>
<clus scale="   38.742">  2  3  1 -1</clus>
<clus scale="  120.239">  1  6  2 -1</clus>
<clus scale="   34.916">  1  3  2 -1</clus>
</clustering>
</event>
<event>
 6    0  0.1704145E+002  0.1040989E+03  0.7546771E-02  0.1271905E+00
         21   -1    0    0  506  501  0.00000000000E+00  0.00000000000E+00  0.68660165766E+03  0.68660165766E+03  0.00000000000E+00 0.  1.
         21   -1    0    0  504  502 -0.00000000000E+00 -0.00000000000E+00 -0.60491963803E+02  0.60491963803E+02  0.00000000000E+00 0. -1.
         21    1    1    2  503  502 -0.95412602793E+02 -0.39983515776E+02  0.36093371331E+02  0.10956722941E+03  0.00000000000E+00 0. -1.
         21    1    1    2  504  505  0.94520525351E+02  0.48548956526E+02  0.20329771454E+03  0.22939287615E+03  0.00000000000E+00 0.  1.
         21    1    1    2  505  501 -0.15953626405E+02  0.51824836794E+02  0.91752375049E+02  0.10657781304E+03  0.00000000000E+00 0. -1.
         21    1    1    2  506  503  0.16845703847E+02 -0.60390277544E+02  0.29496623294E+03  0.30155570287E+03  0.00000000000E+00 0.  1.
<scales pt_clust_3="14000.00000" pt_clust_4="104.09892" pt_clust_5="54.22483" pt_clust_6="35.18142"></scales>
<clustering>
<clus scale="   54.225">  1  5  2 -1</clus>
<clus scale="   35.181">  1  6  2 -1</clus>
<clus scale="  104.099">  1  4  2 -1</clus>
<clus scale="   54.225">  1  3  2 -1</clus>
</clustering>
</event>
<event>
 6    0  0.1704145E+002  0.2287498E+03  0.7546771E-02  0.1127523E+00
         21   -1    0    0  504  501  0.00000000000E+00  0.00000000000E+00  0.69425924645E+03  0.69425924645E+03  0.00000000000E+00 0.  1.
         21   -1    0    0  503  502 -0.00000000000E+00 -0.00000000000E+00 -0.62222185828E+03  0.62222185828E+03  0.00000000000E+00 0. -1.
         21    1    1    2  503  501  0.27436654018E+02 -0.33789860175E+02  0.46114992687E+03  0.46319950311E+03  0.00000000000E+00 0.  1.
         21    1    1    2  504  506  0.18038124370E+03 -0.30879461821E+02  0.16882433765E+03  0.24898311434E+03  0.00000000000E+00 0.  1.
         21    1    1    2  505  502 -0.11615665164E+03  0.40470845215E+02 -0.41448207312E+03  0.43234898632E+03  0.00000000000E+00 0. -1.
         21    1    1    2  506  505 -0.91661246079E+02  0.24198476781E+02 -0.14345480324E+03  0.17194950097E+03  0.00000000000E+00 0. -1.
<scales pt_clust_3="43.52614" pt_clust_4="214.04154" pt_clust_5="70.45038" pt_clust_6="70.45038"></scales>
<clustering>
<clus scale="   43.526">  1  3  2 -1</clus>
<clus scale="   70.450">  5  6 -1 -1</clus>
<clus scale="  214.042">  1  4  2 -1</clus>
<clus scale="   43.526">  1  3  2 -1</clus>
</clustering>
</event>
<event>
 6    0  0.1704145E+002  0.1163907E+03  0.7546771E-02  0.1249173E+00
         21   -1    0    0  506  501  0.00000000000E+00  0.00000000000E+00  0.94007561150E+03  0.94007561150E+03  0.00000000000E+00 0. -1.
         21   -1    0    0  505  502 -0.00000000000E+00 -0.00000000000E+00 -0.12766506642E+03  0.12766506642E+03  0.00000000000E+00 0.  1.
         21    1    1    2  503  502  0.28679021668E+02  0.40597171444E+02  0.89262606439E+01  0.50500442990E+02  0.00000000000E+00 0.  1.
         21    1    1    2  504  503  0.80937166927E+01  0.40201805331E+02  0.46074402701E+02  0.61680985612E+02  0.00000000000E+00 0.  1.
         21    1    1    2  505  501  0.21810226921E+02 -0.12217355972E+03 -0.58008471702E+02  0.13699287384E+03  0.00000000000E+00 0.  1.
         21    1    1    2  506  504 -0.58582965281E+02  0.41374582944E+02  0.81541835344E+03  0.81856637548E+03  0.00000000000E+00 0. -1.
<scales pt_clust_3="37.21745" pt_clust_4="37.21745" pt_clust_5="108.93989" pt_clust_6="71.72043"></scales>
<clustering>
<clus scale="   37.217">  3  4 -1 -1</clus>
<clus scale="   71.720">  1  6  2 -1</clus>
<clus scale="  108.940">  2  5  1 -1</clus>
<clus scale="   71.720">  1  3  2 -1</clus>
</clustering>
</event>
<event>
 6    0  0.1704145E+002  0.9394332E+02  0.7546771E-02  0.1293574E+00
         21   -1    0    0  504  501  0.00000000000E+00  0.00000000000E+00  0.23071842868E+04  0.23071842868E+04  0.00000000000E+00 0.  1.
         21   -1    0    0  506  502 -0.00000000000E+00 -0.00000000000E+00 -0.39407494556E+02  0.39407494556E+02  0.00000000000E+00 0.  1.
         21    1    1    2  503  505  0.31148049643E+02  0.67992430931E+02  0.41209254922E+03  0.41882387800E+03  0.00000000000E+00 0.  1.
         21    1    1    2  504  503  0.49865903053E+02 -0.11016397646E+02  0.15389603956E+04  0.15398074777E+04  0.00000000000E+00 0.  1.
         21    1    1    2  505  502 -0.67233103787E+02 -0.13081387457E+03  0.18519164949E+03  0.23649208669E+03  0.00000000000E+00 0.  1.
         21    1    1    2  506  501 -0.13780848908E+02  0.73837841285E+02  0.13153219794E+03  0.15146833893E+03  0.00000000000E+00 0. -1.
<scales pt_clust_3="14000.00000" pt_clust_4="51.06828" pt_clust_5="93.94332" pt_clust_6="71.95420"></scales>
<clustering>
<clus scale="   51.068">  1  4  2 -1</clus>
<clus scale="   71.954">  2  6  1 -1</clus>
<clus scale="   93.943">  2  5  1 -1</clus>
<clus scale="   51.068">  1  3  2 -1</clus>
</clustering>
</event>
<event>
 6    0  0.1704145E+002  0.8297153E+02  0.7546771E-02  0.1320824E+00
         21   -1    0    0  505  501  0.00000000000E+00  0.00000000000E+00  0.78971789897E+03  0.78971789897E+03  0.00000000000E+00 0.  1.
         21   -1    0    0  506  502 -0.00000000000E+00 -0.00000000000E+00 -0.19758362188E+03  0.19758362188E+03  0.00000000000E+00 0.  1.
         21    1    1    2  503  502  0.65934427228E+02  0.26058664616E+02 -0.12533755266E+03  0.14399966945E+03  0.00000000000E+00 0.  1.
         21    1    1    2  504  501  0.21564632145E+02 -0.23623245044E+02  0.63910414667E+03  0.63990405636E+03  0.00000000000E+00 0.  1.
         21    1    1    2  505  503 -0.61095592243E+02 -0.80194622021E+02  0.65630163168E+02  0.12029616415E+03  0.00000000000E+00 0.  1.
         21    1    1    2  506  504 -0.26403467130E+02  0.77759202450E+02  0.12737519913E+02  0.83101630885E+02  0.00000000000E+00 0.  1.
<scales pt_clust_3="71.62763" pt_clust_4="31.98579" pt_clust_5="82.97153" pt_clust_6="14000.00000"></scales>
<clustering>
<clus scale="   31.986">  1  4  2 -1</clus>
<clus scale="   71.628">  2  3  1 -1</clus>
<clus scale="   82.972">  2  5  1 -1</clus>
<clus scale="   31.986">  1  3  2 -1</clus>
</clustering>
</event>
<event>
 6    0  0.1704145E+002  0.1560031E+03  0.7546771E-02  0.1193285E+00
         21   -1    0    0  503  501  0.00000000000E+00  0.00000000000E+00  0.34921865046E+03  0.34921865046E+03  0.00000000000E+00 0.  1.
         21   -1    0    0  504  502 -0.00000000000E+00 -0.00000000000E+00 -0.64895038334E+03  0.64895038334E+03  0.00000000000E+00 0.  1.
         21    1    1    2  503  506 -0.92169938502E+02 -0.20297059986E+02 -0.67570249273E+02  0.11607328200E+03  0.00000000000E+00 0.  1.
         21    1    1    2  504  501  0.14632036795E+03 -0.15417703649E+02  0.30335982285E+03  0.33715654789E+03  0.00000000000E+00 0.  1.
         21    1    1    2  505  502 -0.20011509954E+02  0.23968476009E+02 -0.46177824190E+03  0.46283268366E+03  0.00000000000E+00 0.  1.
         21    1    1    2  506  505 -0.34138919498E+02  0.11746287626E+02 -0.73743064561E+02  0.82106520255E+02  0.00000000000E+00 0.  1.
<scales pt_clust_3="39.10228" pt_clust_4="145.11454" pt_clust_5="31.22416" pt_clust_6="39.10228"></scales>
<clustering>
<clus scale="   31.224">  2  5  1 -1</clus>
<clus scale="   39.102">  3  6 -1 -1</clus>
<clus scale="  145.115">  1  4  2 -1</clus>
<clus scale="  145.115">  1  3  2 -1</clus>
</clustering>
</event>
<event>
 6    0  0.1704145E+002  0.2450231E+03  0.7546771E-02  0.1116491E+00
         21   -1    0    0  506  501  0.00000000000E+00  0.00000000000E+00  0.36681054665E+03  0.36681054665E+03  0.00000000000E+00 0.  1.
         21   -1    0    0  504  502 -0.00000000000E+00 -0.00000000000E+00 -0.77743037246E+03  0.77743037246E+03  0.00000000000E+00 0.  1.
         21    1    1    2  503  501 -0.13652189626E+03  0.17773987344E+03  0.30094119471E+03  0.37522698922E+03  0.00000000000E+00 0.  1.
         21    1    1    2  504  505  0.70038753547E+02 -0.84027605410E+02 -0.18799606434E+03  0.21750536930E+03  0.00000000000E+00 0.  1.
         21    1    1    2  505  503  0.93953056501E+02 -0.56681113973E+02 -0.46046419056E+03  0.47335736637E+03  0.00000000000E+00 0.  1.
         21    1    1    2  506  502 -0.27469913789E+02 -0.37031154053E+02 -0.63100765626E+02  0.78151194211E+02  0.00000000000E+00 0.  1.
<scales pt_clust_3="223.46801" pt_clust_4="99.51356" pt_clust_5="99.51356" pt_clust_6="46.10751"></scales>
<clustering>
<clus scale="   46.108">  2  6  1 -1</clus>
<clus scale="   99.514">  4  5 -1 -1</clus>
<clus scale="  223.468">  1  3  2 -1</clus>
<clus scale="  223.468">  1  3  2 -1</clus>
</clustering>
</event>
<event>
 6    0  0.1704145E+002  0.1303695E+03  0.7546771E-02  0.1226909E+00
         21   -1    0    0  505  501  0.00000000000E+00  0.00000000000E+00  0.18877781728E+04  0.18877781728E+04  0.00000000000E+00 0. -1.
         21   -1    0    0  504  502 -0.00000000000E+00 -0.00000000000E+00 -0.17445980576E+03  0.17445980576E+03  0.00000000000E+00 0.  1.
         21    1    1    2  503  506 -0.18043702897E+03 -0.73177597905E+02  0.14003342167E+03  0.23983711440E+03  0.00000000000E+00 0.  1.
         21    1    1    2  504  501  0.54801736561E+02 -0.26688799981E+01  0.14388492707E+03  0.15399099158E+03  0.00000000000E+00 0. -1.
         21    1    1    2  505  503  0.60494736283E+02  0.55150108395E+02  0.15379536988E+04  0.15401307500E+04  0.00000000000E+00 0. -1.
         21    1    1    2  506  502  0.65140556127E+02  0.20696369508E+02 -0.10855368043E+03  0.12827912261E+03  0.00000000000E+00 0.  1.
<scales pt_clust_3="14000.00000" pt_clust_4="54.86669" pt_clust_5="130.36946" pt_clust_6="68.64108"></scales>
<clustering>
<clus scale="   54.867">  1  4  2 -1</clus>
<clus scale="   68.641">  2  6  1 -1</clus>
<clus scale="  130.369">  1  5  2 -1</clus>
<clus scale="   54.867">  1  3  2 -1</clus>
</clustering>
</event>
<event>
 6    0  0.1704145E+002  0.1850764E+03  0.7546771E-02  0.1162979E+00
         21   -1    0    0  503  501  0.00000000000E+00  0.00000000000E+00  0.34764843473E+03  0.34764843473E+03  0.00000000000E+00 0.  1.
         21   -1    0    0  504  502 -0.00000000000E+00 -0.00000000000E+00 -0.53952983017E+03  0.53952983017E+03  0.00000000000E+00 0. -1.
         21    1    1    2  503  505 -0.44936588580E+02 -0.20393210336E+02 -0.40182031615E+02  0.63637847903E+02  0.00000000000E+00 0. -1.
         21    1    1    2  504  501  0.18103349610E+03 -0.37286160167E+02  0.29441567045E+03  0.34762619501E+03  0.00000000000E+00 0.  1.
         21    1    1    2  505  506 -0.69064963346E+02 -0.10129111550E+02 -0.16872112853E+03  0.18259076448E+03  0.00000000000E+00 0. -1.
         21    1    1    2  506  502 -0.67031944176E+02  0.67808482053E+02 -0.27739390574E+03  0.29332345750E+03  0.00000000000E+00 0. -1.
<scales pt_clust_3="46.51107" pt_clust_4="176.61607" pt_clust_5="46.51107" pt_clust_6="95.34816"></scales>
<clustering>
<clus scale="   46.511">  3  5 -1 -1</clus>
<clus scale="   95.348">  2  6  1 -1</clus>
<clus scale="  176.616">  1  4  2 -1</clus>
<clus scale="  176.616">  1  3  2 -1</clus>
</clustering>
</event>
<event>
 6    0  0.1704145E+002  0.1129349E+03  0.7546771E-02  0.1255229E+00
         21   -1    0    0  504  501  0.00000000000E+00  0.00000000000E+00  0.21981822206E+03  0.21981822206E+03  0.00000000000E+00 0.  1.
         21   -1    0    0  506  502 -0.00000000000E+00 -0.00000000000E+00 -0.39592642581E+03  0.39592642581E+03  0.00000000000E+00 0. -1.
         21    1    1    2  503  502  0.49175553960E+02  0.75695952855E+01 -0.55372951609E+02  0.74442579549E+02  0.00000000000E+00 0.  1.
         21    1    1    2  504  503  0.38116781571E+02  0.31497303708E+02 -0.16462960729E+02  0.52115240133E+02  0.00000000000E+00 0.  1.
         21    1    1    2  505  501  0.24219055692E+02 -0.76953020194E+02  0.17138604476E+03  0.18942414396E+03  0.00000000000E+00 0.  1.
         21    1    1    2  506  505 -0.11151139122E+03  0.37886121201E+02 -0.27565833618E+03  0.29976268423E+03  0.00000000000E+00 0. -1.
<scales pt_clust_3="41.22763" pt_clust_4="41.22763" pt_clust_5="80.67422" pt_clust_6="105.09041"></scales>
<clustering>
<clus scale="   41.228">  3  4 -1 -1</clus>
<clus scale="   80.674">  1  5  2 -1</clus>
<clus scale="  105.090">  2  6  1 -1</clus>
<clus scale="   80.674">  1  3  2 -1</clus>
</clustering>
</event>
<event>
 6    0  0.1704145E+002  0.8907421E+02  0.7546771E-02  0.1305109E+00
         21   -1    0    0  505  501  0.00000000000E+00  0.00000000000E+00  0.75466919522E+02  0.75466919522E+02  0.00000000000E+00 0. -1.
         21   -1    0    0  503  502 -0.00000000000E+00 -0.00000000000E+00 -0.12032100603E+04  0.12032100603E+04  0.00000000000E+00 0.  1.
         21    1    1    2  503  506  0.31487096052E+02 -0.67082490236E+00 -0.15583223238E+03  0.15898292950E+03  0.00000000000E+00 0.  1.
         21    1    1    2  504  501  0.29840917674E+02 -0.12905290542E+02  0.60519630354E+02  0.68699727436E+02  0.00000000000E+00 0. -1.
         21    1    1    2  505  502 -0.71074057506E+02  0.87707535451E+02 -0.76589672967E+03  0.77417177289E+03  0.00000000000E+00 0.  1.
         21    1    1    2  506  504  0.97460437796E+01 -0.74131420007E+02 -0.26653380912E+03  0.27682255003E+03  0.00000000000E+00 0.  1.
<scales pt_clust_3="31.49424" pt_clust_4="32.62605" pt_clust_5="14000.00000" pt_clust_6="89.07421"></scales>
<clustering>
<clus scale="   31.494">  2  3  1 -1</clus>
<clus scale="   32.626">  1  4  2 -1</clus>
<clus scale="   89.074">  1  6  2 -1</clus>
<clus scale="   32.626">  1  3  2 -1</clus>
</clustering>
</event>
<event>
 6    0  0.1704145E+002  0.1405102E+03  0.7546771E-02  0.1212644E+00
         21   -1    0    0  505  501  0.00000000000E+00  0.00000000000E+00  0.93330399451E+03  0.93330399451E+03  0.00000000000E+00 0.  1.
         21   -1    0    0  504  502 -0.00000000000E+00 -0.00000000000E+00 -0.48623795296E+03  0.48623795296E+03  0.00000000000E+00 0.  1.
         21    1    1    2  503  506 -0.75044628615E+02 -0.13671314955E+02  0.71603628362E+01  0.76615089457E+02  0.00000000000E+00 0.  1.
         21    1    1    2  504  501  0.11228887046E+03  0.86327729477E+02 -0.26037780446E+03  0.29640827985E+03  0.00000000000E+00 0.  1.
         21    1    1    2  505  503  0.74037180050E+02  0.10238378163E+02  0.84367458881E+03  0.84697883103E+03  0.00000000000E+00 0.  1.
         21    1    1    2  506  502 -0.11128142190E+03 -0.82894792685E+02 -0.14339110563E+03  0.19953974714E+03  0.00000000000E+00 0.  1.
<scales pt_clust_3="40.75473" pt_clust_4="14000.00000" pt_clust_5="74.74174" pt_clust_6="140.51018"></scales>
<clustering>
<clus scale="   74.742">  1  5  2 -1</clus>
<clus scale="   40.755">  1  3  2 -1</clus>
<clus scale="  140.510">  1  6  2 -1</clus>
<clus scale="   74.742">  1  3  2 -1</clus>
</clustering>
</event>
<event>
 6    0  0.1704145E+002  0.1574326E+03  0.7546771E-02  0.1191626E+00
         21   -1    0    0  503  501  0.00000000000E+00  0.00000000000E+00  0.59425030174E+03  0.59425030174E+03  0.00000000000E+00 0. -1.
         21   -1    0    0  506  502 -0.00000000000E+00 -0.00000000000E+00 -0.48966233885E+02  0.48966233885E+02  0.00000000000E+00 0. -1.
         21    1    1    2  503  504  0.36393559910E+02  0.34161817931E+02  0.14332362387E+03  0.15176686781E+03  0.00000000000E+00 0. -1.
         21    1    1    2  504  505  0.51714642985E+02  0.71776711445E+02  0.85180403777E+02  0.12280880177E+03  0.00000000000E+00 0. -1.
         21    1    1    2  505  502 -0.21301569231E+02  0.28238623337E+02  0.36675372202E+02  0.50953504549E+02  0.00000000000E+00 0.  1.
         21    1    1    2  506  501 -0.66806633664E+02 -0.13417715271E+03  0.28010466801E+03  0.31768736149E+03  0.00000000000E+00 0. -1.
<scales pt_clust_3="47.31707" pt_clust_4="47.31707" pt_clust_5="35.37198" pt_clust_6="143.50386"></scales>
<clustering>
<clus scale="   35.372">  2  5  1 -1</clus>
<clus scale="   47.317">  3  4 -1 -1</clus>
<clus scale="  143.504">  1  6  2 -1</clus>
<clus scale="  143.504">  1  3  2 -1</clus>
</clustering>
</event>
<event>
 6    0  0.1704145E+002  0.1524070E+03  0.7546771E-02  0.1197546E+00
         21   -1    0    0  505  501  0.00000000000E+00  0.00000000000E+00  0.18496629754E+04  0.18496629754E+04  0.00000000000E+00 0.  1.
         21   -1    0    0  504  502 -0.00000000000E+00 -0.00000000000E+00 -0.25342377917E+04  0.25342377917E+04  0.00000000000E+00 0. -1.
         21    1    1    2  503  501 -0.11334089797E+03 -0.83950189200E+02  0.18256082626E+04  0.18310486945E+04  0.00000000000E+00 0.  1.
         21    1    1    2  504  506  0.52733254228E+02  0.20471223347E+02 -0.81164142916E+03  0.81361027318E+03  0.00000000000E+00 0. -1.
         21    1    1    2  505  502 -0.10407718683E+02 -0.52452205934E+02 -0.23029412881E+02  0.58222919655E+02  0.00000000000E+00 0.  1.
         21    1    1    2  506  503  0.71015362426E+02  0.11593117179E+03 -0.16755122368E+04  0.16810188797E+04  0.00000000000E+00 0. -1.
<scales pt_clust_3="141.08854" pt_clust_4="37.17775" pt_clust_5="53.47480" pt_clust_6="37.17775"></scales>
<clustering>
<clus scale="   37.178">  4  6 -1 -1</clus>
<clus scale="   53.475">  2  5  1 -1</clus>
<clus scale="  141.089">  1  3  2 -1</clus>
<clus scale="  141.089">  1  3  2 -1</clus>
</clustering>
</event>
<event>
 6    0  0.1704145E+002  0.1854557E+03  0.7546771E-02  0.1162625E+00
         21   -1    0    0  502  501  0.00000000000E+00  0.00000000000E+00  0.18133741583E+04  0.18133741583E+04  0.00000000000E+00 0. -1.
         21   -1    0    0  505  502 -0.00000000000E+00 -0.00000000000E+00 -0.15956272641E+03  0.15956272641E+03  0.00000000000E+00 0. -1.
         21    1    1    2  503  501  0.22964720687E+02  0.45382186148E+02  0.64007330061E+03  0.64209092142E+03  0.00000000000E+00 0. -1.
         21    1    1    2  504  506 -0.21892229929E+02  0.75670703978E+02 -0.15021329191E+02  0.80193300857E+02  0.00000000000E+00 0.  1.
         21    1    1    2  505  504 -0.13688583930E+02  0.97982481232E+02 -0.75724885517E+02  0.12458813043E+03  0.00000000000E+00 0. -1.
         21    1    1    2  506  503  0.12616093172E+02 -0.21903537136E+03  0.11044843460E+04  0.11260645320E+04  0.00000000000E+00 0. -1.
<scales pt_clust_3="50.86179" pt_clust_4="42.59939" pt_clust_5="42.59939" pt_clust_6="179.20564"></scales>
<clustering>
<clus scale="   42.599">  4  5 -1 -1</clus>
<clus scale="   50.862">  1  3  2 -1</clus>
<clus scale="  179.206">  1  6  2 -1</clus>
<clus scale="   50.862">  1  3  2 -1</clus>
</clustering>
</event>
<event>
 6    0  0.1704145E+002  0.1135978E+03  0.7546771E-02  0.1254049E+00
         21   -1    0    0  503  501  0.00000000000E+00  0.00000000000E+00  0.27977442065E+03  0.27977442065E+03  0.00000000000E+00 0.  1.
         21   -1    0    0  506  502 -0.00000000000E+00 -0.00000000000E+00 -0.16092065928E+03  0.16092065928E+03  0.00000000000E+00 0.  1.
         21    1    1    2  503  504  0.61909388847E+02  0.60754531066E+01  0.19170085887E+03  0.20154131797E+03  0.00000000000E+00 0.  1.
         21    1    1    2  504  505  0.16046600325E+02 -0.29835967606E+02  0.43779390062E+01  0.34159108520E+02  0.00000000000E+00 0.  1.
         21    1    1    2  505  502 -0.63818183923E+01 -0.69981798852E+02 -0.42163233582E+02  0.81950704956E+02  0.00000000000E+00 0.  1.
         21    1    1    2  506  501 -0.71574170780E+02  0.93742313352E+02 -0.35061802924E+02  0.12304394849E+03  0.00000000000E+00 0.  1.
<scales pt_clust_3="62.20678" pt_clust_4="31.02608" pt_clust_5="31.02608" pt_clust_6="104.43990"></scales>
<clustering>
<clus scale="   31.026">  4  5 -1 -1</clus>
<clus scale="   62.207">  1  3  2 -1</clus>
<clus scale="  104.440">  1  6  2 -1</clus>
<clus scale="   62.207">  1  3  2 -1</clus>
</clustering>
</event>
<event>
 6    0  0.1704145E+002  0.1038303E+03  0.7546771E-02  0.1272441E+00
         21   -1    0    0  505  501  0.00000000000E+00  0.00000000000E+00  0.49579079726E+03  0.49579079726E+03  0.00000000000E+00 0. -1.
         21   -1    0    0  504  502 -0.00000000000E+00 -0.00000000000E+00 -0.20876267317E+03  0.20876267317E+03  0.00000000000E+00 0. -1.
         21    1    1    2  503  501  0.59602843233E+01 -0.62692369179E+02  0.39148385531E+03  0.39651666687E+03  0.00000000000E+00 0. -1.
         21    1    1    2  504  503 -0.87010928812E+02 -0.57397416580E+02 -0.96277471031E+02  0.14189685194E+03  0.00000000000E+00 0. -1.
         21    1    1    2  505  506  0.14050179465E+02  0.37712047356E+02  0.33206740946E+02  0.52175604481E+02  0.00000000000E+00 0. -1.
         21    1    1    2  506  502  0.67000465023E+02  0.82377738403E+02 -0.41385001131E+02  0.11396434713E+03  0.00000000000E+00 0. -1.
<scales pt_clust_3="34.99141" pt_clust_4="14000.00000" pt_clust_5="40.24433" pt_clust_6="103.83034"></scales>
<clustering>
<clus scale="   40.244">  1  5  2 -1</clus>
<clus scale="   34.991">  1  3  2 -1</clus>
<clus scale="  103.830">  1  6  2 -1</clus>
<clus scale="   40.244">  1  3  2 -1</clus>
</clustering>
</event>
<event>
 6    0  0.1704145E+002  0.5924947E+02  0.7546771E-02  0.1401009E+00
         21   -1    0    0  504  501  0.00000000000E+00  0.00000000000E+00  0.93932548743E+03  0.93932548743E+03  0.00000000000E+00 0.  1.
         21   -1    0    0  503  502 -0.00000000000E+00 -0.00000000000E+00 -0.14334144173E+03  0.14334144173E+03  0.00000000000E+00 0.  1.
         21    1    1    2  503  506  0.33955241509E+02 -0.31785999704E+02 -0.49303844720E+02  0.67780360779E+02  0.00000000000E+00 0.  1.
         21    1    1    2  504  505  0.19043961945E+02  0.55858515919E+02  0.85655492719E+03  0.85858557499E+03  0.00000000000E+00 0.  1.
         21    1    1    2  505  502 -0.61853329941E+02  0.49016360759E+02 -0.21927339776E+02  0.81909988869E+02  0.00000000000E+00 0.  1.
         21    1    1    2  506  501  0.88541264871E+01 -0.73088876974E+02  0.10660303009E+02  0.74391004519E+02  0.00000000000E+00 0.  1.
<scales pt_clust_3="46.51138" pt_clust_4="59.24947" pt_clust_5="50.59424" pt_clust_6="14000.00000"></scales>
<clustering>
<clus scale="   46.511">  2  3  1 -1</clus>
<clus scale="   50.594">  2  5  1 -1</clus>
<clus scale="   59.249">  1  4  2 -1</clus>
<clus scale="   59.249">  1  3  2 -1</clus>
</clustering>
</event>
<event>
 6    0  0.1704145E+002  0.1870296E+03  0.7546771E-02  0.1161168E+00
         21   -1    0    0  502  501  0.00000000000E+00  0.00000000000E+00  0.28297750143E+02  0.28297750143E+02  0.00000000000E+00 0.  1.
         21   -1    0    0  503  502 -0.00000000000E+00 -0.00000000000E+00 -0.27786749586E+04  0.27786749586E+04  0.00000000000E+00 0.  1.
         21    1    1    2  503  506 -0.85803609393E+02  0.23827778537E+02 -0.15505616991E+04  0.15531167391E+04  0.00000000000E+00 0.  1.
         21    1    1    2  504  501  0.54068975627E+02 -0.42516853846E+02 -0.11765320319E+03  0.13628431020E+03  0.00000000000E+00 0.  1.
         21    1    1    2  505  504  0.11764192684E+03  0.11780747217E+02 -0.20865953160E+03  0.23982745690E+03  0.00000000000E+00 0.  1.
         21    1    1    2  506  505 -0.85907293072E+02  0.69083280924E+01 -0.87350277455E+03  0.87774420257E+03  0.00000000000E+00 0.  1.
<scales pt_clust_3="181.64896" pt_clust_4="51.45374" pt_clust_5="51.45374" pt_clust_6="49.84360"></scales>
<clustering>
<clus scale="   49.844">  3  6 -1 -1</clus>
<clus scale="   51.454">  4  5 -1 -1</clus>
<clus scale="  181.649">  2  3  1 -1</clus>
<clus scale="  187.030">  1  3  2 -1</clus>
</clustering>
</event>
<event>
 6    0  0.1704145E+002  0.1590479E+03  0.7546771E-02  0.1189776E+00
         21   -1    0    0  506  501  0.00000000000E+00  0.00000000000E+00  0.30330352450E+03  0.30330352450E+03  0.00000000000E+00 0. -1.
         21   -1    0    0  505  502 -0.00000000000E+00 -0.00000000000E+00 -0.22825956311E+03  0.22825956311E+03  0.00000000000E+00 0. -1.
         21    1    1    2  503  504  0.44325070352E+02  0.24377838715E+02  0.37077129736E+02  0.62719250885E+02  0.00000000000E+00 0. -1.
         21    1    1    2  504  502  0.72249977595E+02  0.21883708949E+01  0.14417009282E+02  0.73706840838E+02  0.00000000000E+00 0. -1.
         21    1    1    2  505  501 -0.16920599100E+03  0.19140237991E+01 -0.14086161459E+03  0.22017339835E+03  0.00000000000E+00 0. -1.
         21    1    1    2  506  503  0.52630943049E+02 -0.28480233409E+02  0.16441143695E+03  0.17496359754E+03  0.00000000000E+00 0.  1.
<scales pt_clust_3="34.13472" pt_clust_4="34.13472" pt_clust_5="153.72478" pt_clust_6="59.84263"></scales>
<clustering>
<clus scale="   34.135">  3  4 -1 -1</clus>
<clus scale="   59.843">  1  6  2 -1</clus>
<clus scale="  153.725">  2  5  1 -1</clus>
<clus scale="   59.843">  1  3  2 -1</clus>
</clustering>
</event>
<event>
 6    0  0.1704145E+002  0.1016876E+03  0.7546771E-02  0.1276787E+00
         21   -1    0    0  506  501  0.00000000000E+00  0.00000000000E+00  0.11991672968E+03  0.11991672968E+03  0.00000000000E+00 0.  1.
         21   -1    0    0  503  502 -0.00000000000E+00 -0.00000000000E+00 -0.72455352988E+03  0.72455352988E+03  0.00000000000E+00 0. -1.
         21    1    1    2  503  504 -0.26872976710E+02 -0.14271454998E+02 -0.83214904746E+02  0.88603338971E+02  0.00000000000E+00 0.  1.
         21    1    1    2  504  501  0.63518618098E+02  0.98239582890E+02 -0.28460697218E+03  0.30771213675E+03  0.00000000000E+00 0. -1.
         21    1    1    2  505  502 -0.35732497528E+01 -0.92373088374E+02 -0.33326385257E+03  0.34584729433E+03  0.00000000000E+00 0. -1.
         21    1    1    2  506  505 -0.33072391635E+02  0.84049604812E+01  0.96448929282E+02  0.10230748950E+03  0.00000000000E+00 0.  1.
<scales pt_clust_3="30.42748" pt_clust_4="101.68755" pt_clust_5="14000.00000" pt_clust_6="34.22716"></scales>
<clustering>
<clus scale="   30.427">  2  3  1 -1</clus>
<clus scale="   34.227">  1  6  2 -1</clus>
<clus scale="  101.688">  1  4  2 -1</clus>
<clus scale="   34.227">  1  3  2 -1</clus>
</clustering>
</event>
<event>
 6    0  0.1704145E+002  0.6700605E+02  0.7546771E-02  0.1370581E+00
         21   -1    0    0  504  501  0.00000000000E+00  0.00000000000E+00  0.21607526270E+03  0.21607526270E+03  0.00000000000E+00 0.  1.
         21   -1    0    0  501  502 -0.00000000000E+00 -0.00000000000E+00 -0.36463961994E+03  0.36463961994E+03  0.00000000000E+00 0. -1.
         21    1    1    2  503  502  0.62578513144E+02 -0.21441299517E+02 -0.20099114908E+03  0.21159688476E+03  0.00000000000E+00 0. -1.
         21    1    1    2  504  505  0.42024717463E+02 -0.20621077591E+02  0.16815978781E+03  0.17455377382E+03  0.00000000000E+00 0.  1.
         21    1    1    2  505  506 -0.26272934598E+02  0.67657136537E+02 -0.41231664877E+02  0.83473381418E+02  0.00000000000E+00 0. -1.
         21    1    1    2  506  503 -0.78330296010E+02 -0.25594759429E+02 -0.74501331095E+02  0.11109084264E+03  0.00000000000E+00 0. -1.
<scales pt_clust_3="67.00605" pt_clust_4="46.81138" pt_clust_5="58.27287" pt_clust_6="14000.00000"></scales>
<clustering>
<clus scale="   46.811">  1  4  2 -1</clus>
<clus scale="   58.273">  1  5  2 -1</clus>
<clus scale="   67.006">  2  3  1 -1</clus>
<clus scale="   46.811">  1  3  2 -1</clus>
</clustering>
</event>
<event>
 6    0  0.1704145E+002  0.1679250E+03  0.7546771E-02  0.1180029E+00
         21   -1    0    0  502  501  0.00000000000E+00  0.00000000000E+00  0.42474147086E+03  0.42474147086E+03  0.00000000000E+00 0.  1.
         21   -1    0    0  504  502 -0.00000000000E+00 -0.00000000000E+00 -0.35392361866E+03  0.35392361866E+03  0.00000000000E+00 0. -1.
         21    1    1    2  503  506 -0.12816370203E+03 -0.56675999939E+02 -0.14537225674E+02  0.14088802085E+03  0.00000000000E+00 0.  1.
         21    1    1    2  504  505  0.37991563277E+02  0.34171745529E+02 -0.92637614070E+02  0.10579600471E+03  0.00000000000E+00 0. -1.
         21    1    1    2  505  503  0.12119022346E+03  0.26928592625E+02 -0.15439707739E+03  0.19811783582E+03  0.00000000000E+00 0.  1.
         21    1    1    2  506  501 -0.31018084705E+02 -0.44243382141E+01  0.33238976934E+03  0.33386322814E+03  0.00000000000E+00 0.  1.
<scales pt_clust_3="161.03852" pt_clust_4="30.53584" pt_clust_5="30.53584" pt_clust_6="31.33203"></scales>
<clustering>
<clus scale="   30.536">  4  5 -1 -1</clus>
<clus scale="   31.332">  1  6  2 -1</clus>
<clus scale="  161.039">  1  3  2 -1</clus>
<clus scale="   31.332">  1  3  2 -1</clus>
</clustering>
</event>
<event>
 6    0  0.1704145E+002  0.2688100E+03  0.7546771E-02  0.1101963E+00
         21   -1    0    0  504  501  0.00000000000E+00  0.00000000000E+00  0.31268531685E+03  0.31268531685E+03  0.00000000000E+00 0. -1.
         21   -1    0    0  506  502 -0.00000000000E+00 -0.00000000000E+00 -0.31408502181E+03  0.31408502181E+03  0.00000000000E+00 0. -1.
         21    1    1    2  503  501 -0.18085404856E+02  0.25973019897E+03  0.46937144427E+02  0.26455614461E+03  0.00000000000E+00 0. -1.
         21    1    1    2  504  502 -0.83157927182E+02 -0.33340333896E+02  0.34796064248E+01  0.89660060107E+02  0.00000000000E+00 0.  1.
         21    1    1    2  505  503  0.71776192446E-01 -0.11674293645E+03 -0.37779037945E+02  0.12270360252E+03  0.00000000000E+00 0. -1.
         21    1    1    2  506  505  0.10117155585E+03 -0.10964692862E+03 -0.14037417874E+02  0.14985053143E+03  0.00000000000E+00 0. -1.
<scales pt_clust_3="249.32022" pt_clust_4="89.59251" pt_clust_5="88.89263" pt_clust_6="88.89263"></scales>
<clustering>
<clus scale="   88.893">  5  6 -1 -1</clus>
<clus scale="   89.593">  1  4  2 -1</clus>
<clus scale="  249.320">  1  3  2 -1</clus>
<clus scale="   89.593">  1  3  2 -1</clus>
</clustering>
</event>
<event>
 6    0  0.1704145E+002  0.1810371E+03  0.7546771E-02  0.1166803E+00
         21   -1    0    0  503  501  0.00000000000E+00  0.00000000000E+00  0.36177197453E+03  0.36177197453E+03  0.00000000000E+00 0. -1.
         21   -1    0    0  504  502 -0.00000000000E+00 -0.00000000000E+00 -0.50318523884E+03  0.50318523884E+03  0.00000000000E+00 0. -1.
         21    1    1    2  503  506  0.13684893924E+03  0.14793093220E+03  0.28031108726E+03  0.34523252818E+03  0.00000000000E+00 0. -1.
         21    1    1    2  504  505 -0.36609981569E+02 -0.41809006984E+02 -0.29042000031E+03  0.29568912797E+03  0.00000000000E+00 0. -1.
         21    1    1    2  505  501 -0.11003008812E+03 -0.56919135208E+02 -0.62138618913E+02  0.13859154449E+03  0.00000000000E+00 0. -1.
         21    1    1    2  506  502  0.97911304497E+01 -0.49202790006E+02 -0.69165732342E+02  0.85444012724E+02  0.00000000000E+00 0. -1.
<scales pt_clust_3="14000.00000" pt_clust_4="81.34949" pt_clust_5="181.03714" pt_clust_6="50.16753"></scales>
<clustering>
<clus scale="   50.168">  2  6  1 -1</clus>
<clus scale="   81.349">  2  4  1 -1</clus>
<clus scale="  181.037">  2  5  1 -1</clus>
<clus scale="  181.037">  1  3  2 -1</clus>
</clustering>
</event>
<event>
 6    0  0.1704145E+002  0.9314738E+02  0.7546771E-02  0.1295404E+00
         21   -1    0    0  503  501  0.00000000000E+00  0.00000000000E+00  0.19947639787E+03  0.19947639787E+03  0.00000000000E+00 0. -1.
         21   -1    0    0  504  502 -0.00000000000E+00 -0.00000000000E+00 -0.45827916319E+03  0.45827916319E+03  0.00000000000E+00 0. -1.
         21    1    1    2  503  506  0.63065681780E+02 -0.22943641223E+02  0.13084069615E+03  0.14704753878E+03  0.00000000000E+00 0. -1.
         21    1    1    2  504  501  0.47983548920E+02  0.69991977538E+02 -0.34316024841E+03  0.35349717676E+03  0.00000000000E+00 0. -1.
         21    1    1    2  505  502 -0.26703422702E+02  0.23254648510E+02 -0.29528960424E+02  0.46106517598E+02  0.00000000000E+00 0. -1.
         21    1    1    2  506  505 -0.84345807998E+02 -0.70302984825E+02 -0.16954252640E+02  0.11110432793E+03  0.00000000000E+00 0. -1.
<scales pt_clust_3="66.47314" pt_clust_4="93.14738" pt_clust_5="35.40977" pt_clust_6="14000.00000"></scales>
<clustering>
<clus scale="   35.410">  2  5  1 -1</clus>
<clus scale="   66.473">  1  3  2 -1</clus>
<clus scale="   93.147">  2  4  1 -1</clus>
<clus scale="   66.473">  1  3  2 -1</clus>
</clustering>
</event>
<event>
 6    0  0.1704145E+002  0.2642542E+03  0.7546771E-02  0.1104614E+00
         21   -1    0    0  504  501  0.00000000000E+00  0.00000000000E+00  0.24170484334E+04  0.24170484334E+04  0.00000000000E+00 0.  1.
         21   -1    0    0  506  502 -0.00000000000E+00 -0.00000000000E+00 -0.28533738103E+03  0.28533738103E+03  0.00000000000E+00 0. -1.
         21    1    1    2  503  505 -0.69526964864E+02  0.79410780630E+02  0.78720262578E+02  0.13166985480E+03  0.00000000000E+00 0. -1.
         21    1    1    2  504  503 -0.12472703264E+03  0.10669664032E+03  0.56792966137E+02  0.17368490645E+03  0.00000000000E+00 0. -1.
         21    1    1    2  505  502  0.15573177909E+03 -0.20415116514E+03 -0.11787346218E+03  0.28253183596E+03  0.00000000000E+00 0. -1.
         21    1    1    2  506  501  0.38522218416E+02  0.18043744196E+02  0.21140712858E+04  0.21144992172E+04  0.00000000000E+00 0.  1.
<scales pt_clust_3="40.15180" pt_clust_4="40.15180" pt_clust_5="259.46709" pt_clust_6="42.53866"></scales>
<clustering>
<clus scale="   40.152">  3  4 -1 -1</clus>
<clus scale="   42.539">  1  6  2 -1</clus>
<clus scale="  259.467">  2  5  1 -1</clus>
<clus scale="   42.539">  1  3  2 -1</clus>
</clustering>
</event>
<event>
 6    0  0.1704145E+002  0.1582201E+03  0.7546771E-02  0.1190721E+00
         21   -1    0    0  502  501  0.00000000000E+00  0.00000000000E+00  0.67018693042E+03  0.67018693042E+03  0.00000000000E+00 0.  1.
         21   -1    0    0  504  502 -0.00000000000E+00 -0.00000000000E+00 -0.63406714795E+02  0.63406714795E+02  0.00000000000E+00 0.  1.
         21    1    1    2  503  505 -0.42552538636E+02 -0.13692409263E+03  0.19947111786E+03  0.24565759208E+03  0.00000000000E+00 0.  1.
         21    1    1    2  504  503  0.16552789677E+02 -0.32151594936E+02  0.16979791053E+02  0.39950384319E+02  0.00000000000E+00 0.  1.
         21    1    1    2  505  506 -0.13399716965E+02  0.17861462860E+03  0.32541619270E+03  0.37145448771E+03  0.00000000000E+00 0.  1.
         21    1    1    2  506  501  0.39399465924E+02 -0.95389410387E+01  0.64913114012E+02  0.76531181110E+02  0.00000000000E+00 0.  1.
<scales pt_clust_3="14000.00000" pt_clust_4="36.16241" pt_clust_5="158.22011" pt_clust_6="43.29245"></scales>
<clustering>
<clus scale="   36.162">  2  4  1 -1</clus>
<clus scale="   43.292">  1  6  2 -1</clus>
<clus scale="  158.220">  1  5  2 -1</clus>
<clus scale="   43.292">  1  3  2 -1</clus>
</clustering>
</event>
<event>
 6    0  0.1704145E+002  0.1577758E+03  0.7546771E-02  0.1191231E+00
         21   -1    0    0  505  501  0.00000000000E+00  0.00000000000E+00  0.22819166382E+03  0.22819166382E+03  0.00000000000E+00 0. -1.
         21   -1    0    0  503  502 -0.00000000000E+00 -0.00000000000E+00 -0.11525170613E+04  0.11525170613E+04  0.00000000000E+00 0. -1.
         21    1    1    2  503  506  0.96003585410E+02  0.66151075980E+02 -0.47521788907E+03  0.48931042842E+03  0.00000000000E+00 0. -1.
         21    1    1    2  504  502 -0.18923131937E+03  0.31749647446E+02 -0.45233964716E+03  0.49135291669E+03  0.00000000000E+00 0. -1.
         21    1    1    2  505  504 -0.44985152993E+02  0.11383710917E+02  0.15852685410E+03  0.16517874056E+03  0.00000000000E+00 0. -1.
         21    1    1    2  506  501  0.13821288696E+03 -0.10928443434E+03 -0.15529471531E+03  0.23486663942E+03  0.00000000000E+00 0. -1.
<scales pt_clust_3="113.39963" pt_clust_4="14000.00000" pt_clust_5="46.40316" pt_clust_6="157.77579"></scales>
<clustering>
<clus scale="   46.403">  1  5  2 -1</clus>
<clus scale="  113.400">  2  3  1 -1</clus>
<clus scale="  157.776">  1  6  2 -1</clus>
<clus scale="   46.403">  1  3  2 -1</clus>
</clustering>
</event>
<event>
 6    0  0.1704145E+002  0.8323165E+02  0.7546771E-02  0.1320123E+00
         21   -1    0    0  505  501  0.00000000000E+00  0.00000000000E+00  0.22559217337E+03  0.22559217337E+03  0.00000000000E+00 0.  1.
         21   -1    0    0  506  502 -0.00000000000E+00 -0.00000000000E+00 -0.29454266821E+03  0.29454266821E+03  0.00000000000E+00 0. -1.
         21    1    1    2  503  504  0.66432338627E+02  0.91783354463E+02  0.26246328188E+02  0.11630266341E+03  0.00000000000E+00 0.  1.
         21    1    1    2  504  502 -0.43602215660E+02 -0.66863841954E+02 -0.18838218788E+03  0.20459661601E+03  0.00000000000E+00 0. -1.
         21    1    1    2  505  503  0.17468189981E+02  0.25221877356E+02  0.12412016936E+03  0.12785576717E+03  0.00000000000E+00 0.  1.
         21    1    1    2  506  501 -0.40298312948E+02 -0.50141389864E+02 -0.30934804502E+02  0.71379794995E+02  0.00000000000E+00 0. -1.
<scales pt_clust_3="14000.00000" pt_clust_4="83.23165" pt_clust_5="30.68030" pt_clust_6="58.11669"></scales>
<clustering>
<clus scale="   30.680">  1  5  2 -1</clus>
<clus scale="   58.117">  1  6  2 -1</clus>
<clus scale="   83.232">  2  4  1 -1</clus>
<clus scale="   30.680">  1  3  2 -1</clus>
</clustering>
</event>
<event>
 6    0  0.1704145E+002  0.1264030E+03  0.7546771E-02  0.1232893E+00
         21   -1    0    0  504  501  0.00000000000E+00  0.00000000000E+00  0.20766080773E+03  0.20766080773E+03  0.00000000000E+00 0.  1.
         21   -1    0    0  505  502 -0.00000000000E+00 -0.00000000000E+00 -0.10207070781E+04  0.10207070781E+04  0.00000000000E+00 0. -1.
         21    1    1    2  503  502  0.48895609312E+02 -0.11534190820E+03 -0.82727187321E+03  0.83670382370E+03  0.00000000000E+00 0. -1.
         21    1    1    2  504  506 -0.41262567812E+02  0.51519427858E+02 -0.13795834078E+03  0.15293578633E+03  0.00000000000E+00 0. -1.
         21    1    1    2  505  501  0.26244773828E+02  0.46428275274E+02  0.18244903792E+03  0.19008425588E+03  0.00000000000E+00 0.  1.
         21    1    1    2  506  503 -0.33877815327E+02  0.17394205067E+02 -0.30265094328E+02  0.48644019940E+02  0.00000000000E+00 0.  1.
<scales pt_clust_3="118.48037" pt_clust_4="33.45676" pt_clust_5="53.33266" pt_clust_6="33.45676"></scales>
<clustering>
<clus scale="   33.457">  4  6 -1 -1</clus>
<clus scale="   53.333">  1  5  2 -1</clus>
<clus scale="  118.480">  2  3  1 -1</clus>
<clus scale="   53.333">  1  3  2 -1</clus>
</clustering>
</event>
<event>
 6    0  0.1704145E+002  0.1040599E+03  0.7546771E-02  0.1271983E+00
         21   -1    0    0  505  501  0.00000000000E+00  0.00000000000E+00  0.30531539662E+03  0.30531539662E+03  0.00000000000E+00 0.  1.
         21   -1    0    0  504  502 -0.00000000000E+00 -0.00000000000E+00 -0.92660246871E+03  0.92660246871E+03  0.00000000000E+00 0. -1.
         21    1    1    2  503  506 -0.57910626225E+02  0.78371188302E+02 -0.25606519128E+03  0.27398004666E+03  0.00000000000E+00 0. -1.
         21    1    1    2  504  503  0.49361971322E+02 -0.96350722404E+02 -0.57701421052E+03  0.58708216210E+03  0.00000000000E+00 0. -1.
         21    1    1    2  505  502  0.34746095966E+02  0.38329608185E+02 -0.70041549215E+02  0.87076223304E+02  0.00000000000E+00 0. -1.
         21    1    1    2  506  501 -0.26197441064E+02 -0.20350074083E+02  0.28183387892E+03  0.28377943326E+03  0.00000000000E+00 0.  1.
<scales pt_clust_3="104.05989" pt_clust_4="14000.00000" pt_clust_5="39.43118" pt_clust_6="33.17275"></scales>
<clustering>
<clus scale="   33.173">  1  6  2 -1</clus>
<clus scale="   39.431">  1  5  2 -1</clus>
<clus scale="  104.060">  1  3  2 -1</clus>
<clus scale="   33.173">  1  3  2 -1</clus>
</clustering>
</event>
<event>
 6    0  0.1704145E+002  0.1232615E+03  0.7546771E-02  0.1237812E+00
         21   -1    0    0  506  501  0.00000000000E+00  0.00000000000E+00  0.63558365729E+02  0.63558365729E+02  0.00000000000E+00 0.  1.
         21   -1    0    0  504  502 -0.00000000000E+00 -0.00000000000E+00 -0.10838197668E+04  0.10838197668E+04  0.00000000000E+00 0. -1.
         21    1    1    2  503  505 -0.64079876977E+02  0.15309736610E+02 -0.55552568602E+03  0.55941881136E+03  0.00000000000E+00 0. -1.
         21    1    1    2  504  501  0.36624860626E+02  0.25458098076E+02  0.33285640339E+02  0.55654550814E+02  0.00000000000E+00 0.  1.
         21    1    1    2  505  502 -0.62321017484E+02 -0.93884089899E+01 -0.35499677365E+03  0.36054786193E+03  0.00000000000E+00 0. -1.
         21    1    1    2  506  503  0.89776033836E+02 -0.31379425696E+02 -0.14302458171E+03  0.17175690839E+03  0.00000000000E+00 0.  1.
<scales pt_clust_3="34.92762" pt_clust_4="44.60376" pt_clust_5="34.92762" pt_clust_6="117.97505"></scales>
<clustering>
<clus scale="   34.928">  3  5 -1 -1</clus>
<clus scale="   44.604">  1  4  2 -1</clus>
<clus scale="  117.975">  1  6  2 -1</clus>
<clus scale="   44.604">  1  3  2 -1</clus>
</clustering>
</event>
<event>
 6    0  0.1704145E+002  0.1364558E+03  0.7546771E-02  0.1218179E+00
         21   -1    0    0  505  501  0.00000000000E+00  0.00000000000E+00  0.23692413146E+03  0.23692413146E+03  0.00000000000E+00 0.  1.
         21   -1    0    0  501  502 -0.00000000000E+00 -0.00000000000E+00 -0.58888300306E+03  0.58888300306E+03  0.00000000000E+00 0. -1.
         21    1    1    2  503  504 -0.84031424408E+02  0.52338533051E+02 -0.88177419774E+01  0.99389913490E+02  0.00000000000E+00 0. -1.
         21    1    1    2  504  506  0.10060377451E+03 -0.22576876879E+02 -0.41885791986E+03  0.43136155582E+03  0.00000000000E+00 0. -1.
         21    1    1    2  505  503 -0.33810071275E+02  0.27227518774E+01  0.18068020777E+03  0.18383653548E+03  0.00000000000E+00 0.  1.
         21    1    1    2  506  502  0.17237721177E+02 -0.32484408049E+02 -0.10496341753E+03  0.11121912973E+03  0.00000000000E+00 0. -1.
<scales pt_clust_3="124.63363" pt_clust_4="33.17995" pt_clust_5="33.91953" pt_clust_6="33.17995"></scales>
<clustering>
<clus scale="   33.180">  4  6 -1 -1</clus>
<clus scale="   33.920">  1  5  2 -1</clus>
<clus scale="  124.634">  1  3  2 -1</clus>
<clus scale="   33.920">  1  3  2 -1</clus>
</clustering>
</event>
<event>
 6    0  0.1704145E+002  0.1884568E+03  0.7546771E-02  0.1159861E+00
         21   -1    0    0  504  501  0.00000000000E+00  0.00000000000E+00  0.18965054165E+03  0.18965054165E+03  0.00000000000E+00 0.  1.
         21   -1    0    0  501  502 -0.00000000000E+00 -0.00000000000E+00 -0.28815959066E+03  0.28815959066E+03  0.00000000000E+00 0.  1.
         21    1    1    2  503  506  0.29024926500E+02 -0.18591781384E+03  0.16346063588E+01  0.18817691622E+03  0.00000000000E+00 0.  1.
         21    1    1    2  504  503 -0.35175206446E+02  0.11552496782E+02  0.42280534458E+02  0.56199634558E+02  0.00000000000E+00 0.  1.
         21    1    1    2  505  502 -0.83824131944E+01  0.97467291161E+02 -0.11388483592E+03  0.15013291961E+03  0.00000000000E+00 0.  1.
         21    1    1    2  506  505  0.14532693140E+02  0.76898025894E+02 -0.28539353901E+02  0.83300661927E+02  0.00000000000E+00 0.  1.
<scales pt_clust_3="178.18663" pt_clust_4="37.02371" pt_clust_5="54.77623" pt_clust_6="54.77623"></scales>
<clustering>
<clus scale="   37.024">  1  4  2 -1</clus>
<clus scale="   54.776">  5  6 -1 -1</clus>
<clus scale="  178.187">  1  3  2 -1</clus>
<clus scale="   37.024">  1  3  2 -1</clus>
</clustering>
</event>
<event>
 6    0  0.1704145E+002  0.1424980E+03  0.7546771E-02  0.1210007E+00
         21   -1    0    0  504  501  0.00000000000E+00  0.00000000000E+00  0.44730448916E+03  0.44730448916E+03  0.00000000000E+00 0. -1.
         21   -1    0    0  503  502 -0.00000000000E+00 -0.00000000000E+00 -0.14854681514E+03  0.14854681514E+03  0.00000000000E+00 0. -1.
         21    1    1    2  503  506  0.33917847780E+02 -0.11528676137E+03  0.15270397942E+02  0.12113894006E+03  0.00000000000E+00 0. -1.
         21    1    1    2  504  502  0.17566564971E+02  0.17802163480E+03  0.50839923457E+01  0.17895846904E+03  0.00000000000E+00 0. -1.
         21    1    1    2  505  501 -0.95967965053E+01 -0.39169414158E+02  0.61169328932E+02  0.73266829538E+02  0.00000000000E+00 0.  1.
         21    1    1    2  506  505 -0.41887616245E+02 -0.23565459267E+02  0.21723395480E+03  0.22248706566E+03  0.00000000000E+00 0. -1.
<scales pt_clust_3="142.49797" pt_clust_4="14000.00000" pt_clust_5="40.32792" pt_clust_6="66.23450"></scales>
<clustering>
<clus scale="   40.328">  1  5  2 -1</clus>
<clus scale="   66.234">  1  6  2 -1</clus>
<clus scale="  142.498">  2  3  1 -1</clus>
<clus scale="   40.328">  1  3  2 -1</clus>
</clustering>
</event>
<event>
 6    0  0.1704145E+002  0.1357855E+03  0.7546771E-02  0.1219115E+00
         21   -1    0    0  504  501  0.00000000000E+00  0.00000000000E+00  0.84798660470E+02  0.84798660470E+02  0.00000000000E+00 0.  1.
         21   -1    0    0  503  502 -0.00000000000E+00 -0.00000000000E+00 -0.11901408529E+04  0.11901408529E+04  0.00000000000E+00 0.  1.
         21    1    1    2  503  506  0.87809364635E+02  0.16151155914E+02 -0.97258643888E+03  0.97667585485E+03  0.00000000000E+00 0.  1.
         21    1    1    2  504  505 -0.81847438810E+02  0.10247541443E+02 -0.60047773078E+00  0.82488641151E+02  0.00000000000E+00 0.  1.
         21    1    1    2  505  502 -0.41796489912E+02 -0.25777490120E+02  0.24636065677E+02  0.54939615014E+02  0.00000000000E+00 0.  1.
         21    1    1    2  506  501  0.35834564087E+02 -0.62120723678E+00 -0.15679134147E+03  0.16083540233E+03  0.00000000000E+00 0.  1.
<scales pt_clust_3="34.17035" pt_clust_4="135.31007" pt_clust_5="40.68039" pt_clust_6="34.17035"></scales>
<clustering>
<clus scale="   34.170">  3  6 -1 -1</clus>
<clus scale="   40.680">  4  5 -1 -1</clus>
<clus scale="  135.310">  1  4  2 -1</clus>
<clus scale="  135.310">  1  3  2 -1</clus>
</clustering>
</event>
<event>
 6    0  0.1704145E+002  0.6379754E+02  0.7546771E-02  0.1382553E+00
         21   -1    0    0  505  501  0.00000000000E+00  0.00000000000E+00  0.14093440215E+03  0.14093440215E+03  0.00000000000E+00 0. -1.
         21   -1    0    0  503  502 -0.00000000000E+00 -0.00000000000E+00 -0.43915835016E+03  0.43915835016E+03  0.00000000000E+00 0. -1.
         21    1    1    2  503  501  0.40275540189E+01 -0.47242965597E+02 -0.55420667102E+02  0.72935377779E+02  0.00000000000E+00 0. -1.
         21    1    1    2  504  506 -0.80069621470E+02  0.47355994095E+02 -0.14420072054E+03  0.17160297860E+03  0.00000000000E+00 0. -1.
         21    1    1    2  505  504  0.33860167892E+02 -0.52765396722E+02  0.10432027414E+03  0.12171038435E+03  0.00000000000E+00 0. -1.
         21    1    1    2  506  502  0.42181899559E+02  0.52652368224E+02 -0.20292283451E+03  0.21384401159E+03  0.00000000000E+00 0. -1.
<scales pt_clust_3="47.41433" pt_clust_4="14000.00000" pt_clust_5="63.79754" pt_clust_6="51.67233"></scales>
<clustering>
<clus scale="   47.414">  2  3  1 -1</clus>
<clus scale="   51.672">  2  6  1 -1</clus>
<clus scale="   63.798">  1  5  2 -1</clus>
<clus scale="   63.798">  1  3  2 -1</clus>
</clustering>
</event>
<event>
 6    0  0.1704145E+002  0.9920238E+02  0.7546771E-02  0.1281982E+00
         21   -1    0    0  506  501  0.00000000000E+00  0.00000000000E+00  0.32191572412E+03  0.32191572412E+03  0.00000000000E+00 0.  1.
         21   -1    0    0  504  502 -0.00000000000E+00 -0.00000000000E+00 -0.57898281719E+03  0.57898281719E+03  0.00000000000E+00 0.  1.
         21    1    1    2  503  501 -0.39157247319E+02 -0.40440738556E+02 -0.94596058122E+02  0.11007796130E+03  0.00000000000E+00 0.  1.
         21    1    1    2  504  505  0.65650487406E+02 -0.62251419435E+02 -0.24366378779E+03  0.25991780855E+03  0.00000000000E+00 0.  1.
         21    1    1    2  505  503 -0.76765697743E+02  0.86403536615E+02 -0.20744356517E+03  0.23746868471E+03  0.00000000000E+00 0.  1.
         21    1    1    2  506  502  0.50272457656E+02  0.16288621375E+02  0.28863631802E+03  0.29343408674E+03  0.00000000000E+00 0.  1.
<scales pt_clust_3="45.02284" pt_clust_4="99.20238" pt_clust_5="14000.00000" pt_clust_6="52.84543"></scales>
<clustering>
<clus scale="   52.845">  1  6  2 -1</clus>
<clus scale="   45.023">  1  3  2 -1</clus>
<clus scale="   99.202">  2  4  1 -1</clus>
<clus scale="   52.845">  1  3  2 -1</clus>
</clustering>
</event>
<event>
 6    0  0.1704145E+002  0.1354837E+03  0.7546771E-02  0.1219538E+00
         21   -1    0    0  502  501  0.00000000000E+00  0.00000000000E+00  0.14323710751E+03  0.14323710751E+03  0.00000000000E+00 0.  1.
         21   -1    0    0  503  502 -0.00000000000E+00 -0.00000000000E+00 -0.15921768108E+04  0.15921768108E+04  0.00000000000E+00 0. -1.
         21    1    1    2  503  505  0.40514337678E+02 -0.14238085780E+02 -0.99792726940E+03  0.99885082453E+03  0.00000000000E+00 0. -1.
         21    1    1    2  504  501 -0.77486886216E+02  0.12628276130E+03  0.90678663102E+02  0.17370714803E+03  0.00000000000E+00 0.  1.
         21    1    1    2  505  506 -0.86044814223E+01 -0.45110082411E+02 -0.37210268844E+03  0.37492581583E+03  0.00000000000E+00 0. -1.
         21    1    1    2  506  504  0.45577029961E+02 -0.66934593107E+02 -0.16958840856E+03  0.18793012992E+03  0.00000000000E+00 0.  1.
<scales pt_clust_3="42.94339" pt_clust_4="135.48372" pt_clust_5="56.64030" pt_clust_6="14000.00000"></scales>
<clustering>
<clus scale="   42.943">  2  3  1 -1</clus>
<clus scale="   56.640">  2  5  1 -1</clus>
<clus scale="  135.484">  1  4  2 -1</clus>
<clus scale="  135.484">  1  3  2 -1</clus>
</clustering>
</event>
<event>
 6    0  0.1704145E+002  0.1145456E+03  0.7546771E-02  0.1252376E+00
         21   -1    0    0  503  501  0.00000000000E+00  0.00000000000E+00  0.13846826188E+03  0.13846826188E+03  0.00000000000E+00 0. -1.
         21   -1    0    0  506  502 -0.00000000000E+00 -0.00000000000E+00 -0.21787953103E+03  0.21787953103E+03  0.00000000000E+00 0.  1.
         21    1    1    2  503  502 -0.49160625388E+02 -0.14008511611E+03  0.10683311607E+02  0.14884468413E+03  0.00000000000E+00 0. -1.
         21    1    1    2  504  505 -0.56369983526E+01  0.33059753789E+02 -0.13830588784E+02  0.36276828102E+02  0.00000000000E+00 0.  1.
         21    1    1    2  505  501  0.32165717619E+02  0.46576339849E+02  0.15819997967E+02  0.58772962826E+02  0.00000000000E+00 0. -1.
         21    1    1    2  506  504  0.22631906122E+02  0.60449022476E+02 -0.92083989941E+02  0.11245331785E+03  0.00000000000E+00 0.  1.
<scales pt_clust_3="106.06914" pt_clust_4="31.17092" pt_clust_5="56.60379" pt_clust_6="31.17092"></scales>
<clustering>
<clus scale="   31.171">  4  6 -1 -1</clus>
<clus scale="   56.604">  1  5  2 -1</clus>
<clus scale="  106.069">  1  3  2 -1</clus>
<clus scale="   56.604">  1  3  2 -1</clus>
</clustering>
</event>
<event>
 6    0  0.1704145E+002  0.9980002E+02  0.7546771E-02  0.1280717E+00
         21   -1    0    0  503  501  0.00000000000E+00  0.00000000000E+00  0.97026850543E+03  0.97026850543E+03  0.00000000000E+00 0. -1.
         21   -1    0    0  505  502 -0.00000000000E+00 -0.00000000000E+00 -0.16491461360E+03  0.16491461360E+03  0.00000000000E+00 0. -1.
         21    1    1    2  503  502  0.20119059026E+02  0.52293860058E+02  0.96258948081E+02  0.11137867579E+03  0.00000000000E+00 0. -1.
         21    1    1    2  504  501  0.53642660706E+01  0.50657316085E+02  0.79628007873E+03  0.79790782852E+03  0.00000000000E+00 0. -1.
         21    1    1    2  505  506  0.26906752399E+02 -0.10753681044E+03 -0.12042868928E+03  0.16368020078E+03  0.00000000000E+00 0. -1.
         21    1    1    2  506  504 -0.52390077495E+02  0.45856343005E+01  0.33243554294E+02  0.62216413944E+02  0.00000000000E+00 0. -1.
<scales pt_clust_3="99.80002" pt_clust_4="50.94054" pt_clust_5="14000.00000" pt_clust_6="54.18493"></scales>
<clustering>
<clus scale="   50.941">  1  4  2 -1</clus>
<clus scale="   54.185">  1  6  2 -1</clus>
<clus scale="   99.800">  1  3  2 -1</clus>
<clus scale="   50.941">  1  3  2 -1</clus>
</clustering>
</event>
<event>
 6    0  0.1704145E+002  0.2217860E+03  0.7546771E-02  0.1132559E+00
         21   -1    0    0  502  501  0.00000000000E+00  0.00000000000E+00  0.46498359348E+03  0.46498359348E+03  0.00000000000E+00 0.  1.
         21   -1    0    0  505  502 -0.00000000000E+00 -0.00000000000E+00 -0.39625166021E+03  0.39625166021E+03  0.00000000000E+00 0. -1.
         21    1    1    2  503  506  0.14871077554E+03 -0.43205112286E+02 -0.21814150728E+03  0.26752064160E+03  0.00000000000E+00 0. -1.
         21    1    1    2  504  501 -0.20271669818E+03  0.41889595796E+02  0.39867288297E+03  0.44920915571E+03  0.00000000000E+00 0.  1.
         21    1    1    2  505  503  0.31891117680E+01 -0.30723829550E+02 -0.45987581290E+02  0.55398391393E+02  0.00000000000E+00 0.  1.
         21    1    1    2  506  504  0.50816810878E+02  0.32039346039E+02 -0.65811861139E+02  0.89107064978E+02  0.00000000000E+00 0. -1.
<scales pt_clust_3="48.06369" pt_clust_4="206.32774" pt_clust_5="30.88890" pt_clust_6="48.06369"></scales>
<clustering>
<clus scale="   30.889">  2  5  1 -1</clus>
<clus scale="   48.064">  3  6 -1 -1</clus>
<clus scale="  206.328">  1  4  2 -1</clus>
<clus scale="  206.328">  1  3  2 -1</clus>
</clustering>
</event>
<event>
 6    0  0.1704145E+002  0.2088041E+03  0.7546771E-02  0.1142517E+00
         21   -1    0    0  503  501  0.00000000000E+00  0.00000000000E+00  0.59636207927E+03  0.59636207927E+03  0.00000000000E+00 0. -1.
         21   -1    0    0  505  502 -0.00000000000E+00 -0.00000000000E+00 -0.24857627958E+03  0.24857627958E+03  0.00000000000E+00 0. -1.
         21    1    1    2  503  506 -0.82004759428E+02 -0.64242774502E+02 -0.18266093796E+00  0.10417268361E+03  0.00000000000E+00 0. -1.
         21    1    1    2  504  501  0.17356952716E+03  0.92268987164E+02  0.50619737770E+03  0.54302461449E+03  0.00000000000E+00 0. -1.
         21    1    1    2  505  504 -0.32120577241E+02 -0.37229206776E+02 -0.11052421508E+03  0.12096837371E+03  0.00000000000E+00 0. -1.
         21    1    1    2  506  502 -0.59444190486E+02  0.92029941148E+01 -0.47704701988E+02  0.76772687037E+02  0.00000000000E+00 0. -1.
<scales pt_clust_3="67.15006" pt_clust_4="190.23225" pt_clust_5="49.17057" pt_clust_6="67.15006"></scales>
<clustering>
<clus scale="   49.171">  2  5  1 -1</clus>
<clus scale="   67.150">  3  6 -1 -1</clus>
<clus scale="  190.232">  1  4  2 -1</clus>
<clus scale="  190.232">  1  3  2 -1</clus>
</clustering>
</event>
<event>
 6    0  0.1704145E+002  0.9711159E+02  0.7546771E-02  0.1286490E+00
         21   -1    0    0  505  501  0.00000000000E+00  0.00000000000E+00  0.50176290963E+03  0.50176290963E+03  0.00000000000E+00 0. -1.
         21   -1    0    0  503  502 -0.00000000000E+00 -0.00000000000E+00 -0.29498466217E+03  0.29498466217E+03  0.00000000000E+00 0.  1.
         21    1    1    2  503  506  0.83550394734E+01  0.49027492404E+02 -0.73626765455E+01  0.50276343363E+02  0.00000000000E+00 0.  1.
         21    1    1    2  504  502  0.65425636725E+02 -0.16048202509E+02 -0.15683346199E+03  0.17068917231E+03  0.00000000000E+00 0.  1.
         21    1    1    2  505  504 -0.15561199960E+03  0.14348291357E+02 -0.33993990585E+02  0.15992673097E+03  0.00000000000E+00 0.  1.
         21    1    1    2  506  501  0.81831323399E+02 -0.47327581252E+02  0.40496837658E+03  0.41585532516E+03  0.00000000000E+00 0. -1.
<scales pt_clust_3="49.73431" pt_clust_4="71.96431" pt_clust_5="14000.00000" pt_clust_6="97.11159"></scales>
<clustering>
<clus scale="   49.734">  2  3  1 -1</clus>
<clus scale="   71.964">  2  4  1 -1</clus>
<clus scale="   97.112">  1  6  2 -1</clus>
<clus scale="   97.112">  1  3  2 -1</clus>
</clustering>
</event>
<event>
 6    0  0.1704145E+002  0.1457012E+03  0.7546771E-02  0.1205857E+00
         21   -1    0    0  506  501  0.00000000000E+00  0.00000000000E+00  0.39906411314E+02  0.39906411314E+02  0.00000000000E+00 0.  1.
         21   -1    0    0  505  502 -0.00000000000E+00 -0.00000000000E+00 -0.27080286006E+04  0.27080286006E+04  0.00000000000E+00 0.  1.
         21    1    1    2  503  504 -0.99103933548E+02  0.54145288247E+02 -0.40744710008E+03  0.42280780651E+03  0.00000000000E+00 0.  1.
         21    1    1    2  504  501 -0.71421022359E+02 -0.13126282509E+02 -0.32141681584E+02  0.79412526861E+02  0.00000000000E+00 0.  1.
         21    1    1    2  505  503 -0.19495289912E+02 -0.78589344705E+02 -0.52556718175E+03  0.53176800765E+03  0.00000000000E+00 0. -1.
         21    1    1    2  506  502  0.19002024582E+03  0.37570338967E+02 -0.17029662259E+04  0.17139466709E+04  0.00000000000E+00 0.  1.
<scales pt_clust_3="14000.00000" pt_clust_4="72.61723" pt_clust_5="87.58756" pt_clust_6="145.70116"></scales>
<clustering>
<clus scale="   72.617">  1  4  2 -1</clus>
<clus scale="   87.588">  2  5  1 -1</clus>
<clus scale="  145.701">  2  6  1 -1</clus>
<clus scale="   72.617">  1  3  2 -1</clus>
</clustering>
</event>
<event>
 6    0  0.1704145E+002  0.8449777E+02  0.7546771E-02  0.1316751E+00
         21   -1    0    0  505  501  0.00000000000E+00  0.00000000000E+00  0.10368774044E+04  0.10368774044E+04  0.00000000000E+00 0.  1.
         21   -1    0    0  506  502 -0.00000000000E+00 -0.00000000000E+00 -0.61006320630E+03  0.61006320630E+03  0.00000000000E+00 0. -1.
         21    1    1    2  503  502  0.50329613931E+02 -0.40722373298E+01 -0.27523714016E+03  0.27983054958E+03  0.00000000000E+00 0. -1.
         21    1    1    2  504  503 -0.11444102358E+03  0.56969275462E+02 -0.30591670081E+03  0.33155282242E+03  0.00000000000E+00 0. -1.
         21    1    1    2  505  504  0.26946053891E+02 -0.21523822789E+02  0.93183644769E+01  0.35723895144E+02  0.00000000000E+00 0.  1.
         21    1    1    2  506  501  0.37165355757E+02 -0.31373215343E+02  0.99864967458E+03  0.99983334353E+03  0.00000000000E+00 0.  1.
<scales pt_clust_3="50.55885" pt_clust_4="14000.00000" pt_clust_5="34.48717" pt_clust_6="84.49777"></scales>
<clustering>
<clus scale="   34.487">  1  5  2 -1</clus>
<clus scale="   50.559">  2  3  1 -1</clus>
<clus scale="   84.498">  1  6  2 -1</clus>
<clus scale="   34.487">  1  3  2 -1</clus>
</clustering>
</event>
<event>
 6    0  0.1704145E+002  0.3066963E+03  0.7546771E-02  0.1081940E+00
         21   -1    0    0  506  501  0.00000000000E+00  0.00000000000E+00  0.14005365790E+04  0.14005365790E+04  0.00000000000E+00 0.  1.
         21   -1    0    0  505  502 -0.00000000000E+00 -0.00000000000E+00 -0.28739905809E+03  0.28739905809E+03  0.00000000000E+00 0.  1.
         21    1    1    2  503  504 -0.73769026063E+02 -0.96795036680E+02 -0.50708406671E+01  0.12180665728E+03  0.00000000000E+00 0.  1.
         21    1    1    2  504  502 -0.73565319656E+02 -0.18085171368E+03 -0.37020041204E+02  0.19872010982E+03  0.00000000000E+00 0.  1.
         21    1    1    2  505  501 -0.22308276835E+02  0.43726203242E+02  0.10629355741E+04  0.10640684540E+04  0.00000000000E+00 0.  1.
         21    1    1    2  506  503  0.16964262255E+03  0.23392054712E+03  0.92292828654E+02  0.30334041599E+03  0.00000000000E+00 0.  1.
<scales pt_clust_3="36.78367" pt_clust_4="36.78367" pt_clust_5="49.08808" pt_clust_6="303.13686"></scales>
<clustering>
<clus scale="   36.784">  3  4 -1 -1</clus>
<clus scale="   49.088">  1  5  2 -1</clus>
<clus scale="  303.137">  1  6  2 -1</clus>
<clus scale="   49.088">  1  3  2 -1</clus>
</clustering>
</event>
<event>
 6    0  0.1704145E+002  0.9169607E+02  0.7546771E-02  0.1298796E+00
         21   -1    0    0  503  501  0.00000000000E+00  0.00000000000E+00  0.25588546237E+03  0.25588546237E+03  0.00000000000E+00 0.  1.
         21   -1    0    0  506  502 -0.00000000000E+00 -0.00000000000E+00 -0.14960527000E+03  0.14960527000E+03  0.00000000000E+00 0. -1.
         21    1    1    2  503  502 -0.70764628781E+02  0.88135821058E+02  0.16531910306E+03  0.20026472849E+03  0.00000000000E+00 0.  1.
         21    1    1    2  504  505  0.61392856655E+02 -0.10782892474E+01 -0.69763624739E+02  0.92936585329E+02  0.00000000000E+00 0. -1.
         21    1    1    2  505  501  0.39286851604E+02 -0.42357680212E+02  0.20557848787E+01  0.57808788548E+02  0.00000000000E+00 0.  1.
         21    1    1    2  506  504 -0.29915079478E+02 -0.44699851599E+02  0.86689291682E+01  0.54480630008E+02  0.00000000000E+00 0.  1.
<scales pt_clust_3="14000.00000" pt_clust_4="51.63691" pt_clust_5="91.69607" pt_clust_6="53.78651"></scales>
<clustering>
<clus scale="   53.787">  2  6  1 -1</clus>
<clus scale="   51.637">  2  4  1 -1</clus>
<clus scale="   91.696">  2  5  1 -1</clus>
<clus scale="   91.696">  1  3  2 -1</clus>
</clustering>
</event>
<event>
 6    0  0.1704145E+002  0.1997034E+03  0.7546771E-02  0.1149989E+00
         21   -1    0    0  505  501  0.00000000000E+00  0.00000000000E+00  0.13655676009E+04  0.13655676009E+04  0.00000000000E+00 0. -1.
         21   -1    0    0  503  502 -0.00000000000E+00 -0.00000000000E+00 -0.64464669086E+03  0.64464669086E+03  0.00000000000E+00 0.  1.
         21    1    1    2  503  501 -0.64505302330E+02 -0.44499574242E+02  0.11226517268E+04  0.11253835105E+04  0.00000000000E+00 0. -1.
         21    1    1    2  504  506  0.79013732128E+02  0.10292842890E+03 -0.36355002026E+03  0.38601301607E+03  0.00000000000E+00 0.  1.
         21    1    1    2  505  504 -0.28087038881E+02 -0.13125289135E+03  0.20476072589E+03  0.24483291876E+03  0.00000000000E+00 0.  1.
         21    1    1    2  506  502  0.13578609084E+02  0.72824036692E+02 -0.24294152234E+03  0.25398484644E+03  0.00000000000E+00 0.  1.
<scales pt_clust_3="78.36547" pt_clust_4="36.25986" pt_clust_5="193.85161" pt_clust_6="36.25986"></scales>
<clustering>
<clus scale="   36.260">  4  6 -1 -1</clus>
<clus scale="   78.365">  1  3  2 -1</clus>
<clus scale="  193.852">  1  5  2 -1</clus>
<clus scale="   78.365">  1  3  2 -1</clus>
</clustering>
</event>
<event>
 6    0  0.1704145E+002  0.1465561E+03  0.7546771E-02  0.1204770E+00
         21   -1    0    0  505  501  0.00000000000E+00  0.00000000000E+00  0.58287304286E+03  0.58287304286E+03  0.00000000000E+00 0.  1.
         21   -1    0    0  506  502 -0.00000000000E+00 -0.00000000000E+00 -0.35559575101E+03  0.35559575101E+03  0.00000000000E+00 0. -1.
         21    1    1    2  503  502  0.12881610307E+03  0.77950952601E+02 -0.25483792029E+03  0.29599375844E+03  0.00000000000E+00 0. -1.
         21    1    1    2  504  503 -0.39826088577E+02 -0.14376822216E+02  0.39223023913E+02  0.57717033476E+02  0.00000000000E+00 0.  1.
         21    1    1    2  505  504  0.32777480527E+02 -0.62670460064E+01  0.44881029973E+03  0.45004924646E+03  0.00000000000E+00 0.  1.
         21    1    1    2  506  501 -0.12176749502E+03 -0.57307084379E+02 -0.59181114994E+01  0.13470875549E+03  0.00000000000E+00 0.  1.
<scales pt_clust_3="14000.00000" pt_clust_4="32.50970" pt_clust_5="33.37123" pt_clust_6="146.55605"></scales>
<clustering>
<clus scale="   33.371">  1  5  2 -1</clus>
<clus scale="   32.510">  1  4  2 -1</clus>
<clus scale="  146.556">  1  6  2 -1</clus>
<clus scale="   33.371">  1  3  2 -1</clus>
</clustering>
</event>
<event>
 6    0  0.1704145E+002  0.2096782E+03  0.7546771E-02  0.1141821E+00
         21   -1    0    0  504  501  0.00000000000E+00  0.00000000000E+00  0.21184448669E+03  0.21184448669E+03  0.00000000000E+00 0. -1.
         21   -1    0    0  503  502 -0.00000000000E+00 -0.00000000000E+00 -0.10439419521E+04  0.10439419521E+04  0.00000000000E+00 0. -1.
         21    1    1    2  503  505  0.18340047059E+03  0.69981889690E+02 -0.70759524109E+03  0.73431888353E+03  0.00000000000E+00 0. -1.
         21    1    1    2  504  502 -0.29759472576E+03 -0.93322060349E+02 -0.13775826361E+03  0.34095302747E+03  0.00000000000E+00 0. -1.
         21    1    1    2  505  506  0.80375079933E+02  0.27336686899E+02 -0.57125734559E+02  0.10232691471E+03  0.00000000000E+00 0. -1.
         21    1    1    2  506  501  0.33819175237E+02 -0.39965162398E+01  0.70381773824E+02  0.78187613100E+02  0.00000000000E+00 0. -1.
<scales pt_clust_3="14000.00000" pt_clust_4="209.67819" pt_clust_5="89.97800" pt_clust_6="34.05450"></scales>
<clustering>
<clus scale="   34.054">  1  6  2 -1</clus>
<clus scale="   89.978">  1  5  2 -1</clus>
<clus scale="  209.678">  1  4  2 -1</clus>
<clus scale="   34.054">  1  3  2 -1</clus>
</clustering>
</event>
<event>
 6    0  0.1704145E+002  0.9190119E+02  0.7546771E-02  0.1298312E+00
         21   -1    0    0  505  501  0.00000000000E+00  0.00000000000E+00  0.31911327005E+03  0.31911327005E+03  0.00000000000E+00 0. -1.
         21   -1    0    0  504  502 -0.00000000000E+00 -0.00000000000E+00 -0.84761970001E+02  0.84761970001E+02  0.00000000000E+00 0. -1.
         21    1    1    2  503  502  0.46786703489E+02  0.98825829160E+02  0.31581293526E+02  0.11381088803E+03  0.00000000000E+00 0. -1.
         21    1    1    2  504  501 -0.16261741163E+02 -0.74919129276E+02  0.46764117089E+02  0.89800906478E+02  0.00000000000E+00 0. -1.
         21    1    1    2  505  506  0.17232269733E+02 -0.41052346424E+02  0.14022644567E+03  0.14712478491E+03  0.00000000000E+00 0. -1.
         21    1    1    2  506  503 -0.47757232058E+02  0.17145646540E+02  0.15779443757E+02  0.53138660638E+02  0.00000000000E+00 0. -1.
<scales pt_clust_3="91.90119" pt_clust_4="14000.00000" pt_clust_5="44.52242" pt_clust_6="45.29246"></scales>
<clustering>
<clus scale="   44.522">  1  5  2 -1</clus>
<clus scale="   45.292">  1  6  2 -1</clus>
<clus scale="   91.901">  1  3  2 -1</clus>
<clus scale="   44.522">  1  3  2 -1</clus>
</clustering>
</event>
<event>
 6    0  0.1704145E+002  0.3759338E+03  0.7546771E-02  0.1052447E+00
         21   -1    0    0  503  501  0.00000000000E+00  0.00000000000E+00  0.47756272169E+03  0.47756272169E+03  0.00000000000E+00 0. -1.
         21   -1    0    0  505  502 -0.00000000000E+00 -0.00000000000E+00 -0.31265482319E+04  0.31265482319E+04  0.00000000000E+00 0.  1.
         21    1    1    2  503  506  0.28683203216E+02 -0.39189246425E+02 -0.44872662263E+02  0.66121698410E+02  0.00000000000E+00 0.  1.
         21    1    1    2  504  502  0.10892754713E+03 -0.91463155780E+02 -0.13199835014E+04  0.13276246319E+04  0.00000000000E+00 0.  1.
         21    1    1    2  505  501 -0.35042142874E+03  0.21712377660E+03  0.36179829946E+03  0.54848511518E+03  0.00000000000E+00 0. -1.
         21    1    1    2  506  504  0.21281067840E+03 -0.86471374393E+02 -0.16459276460E+04  0.16618795081E+04  0.00000000000E+00 0.  1.
<scales pt_clust_3="48.56463" pt_clust_4="57.43752" pt_clust_5="368.77677" pt_clust_6="57.43752"></scales>
<clustering>
<clus scale="   48.565">  1  3  2 -1</clus>
<clus scale="   57.438">  4  6 -1 -1</clus>
<clus scale="  368.777">  1  5  2 -1</clus>
<clus scale="   48.565">  1  3  2 -1</clus>
</clustering>
</event>
<event>
 6    0  0.1704145E+002  0.1478235E+03  0.7546771E-02  0.1203173E+00
         21   -1    0    0  502  501  0.00000000000E+00  0.00000000000E+00  0.66287168188E+02  0.66287168188E+02  0.00000000000E+00 0.  1.
         21   -1    0    0  505  502 -0.00000000000E+00 -0.00000000000E+00 -0.70391702018E+03  0.70391702018E+03  0.00000000000E+00 0.  1.
         21    1    1    2  503  501  0.13217722980E+03 -0.27697953839E+02 -0.28344103306E+02  0.13799052474E+03  0.00000000000E+00 0.  1.
         21    1    1    2  504  503 -0.25416266339E+02  0.36102182971E+02 -0.20979356127E+03  0.21438911484E+03  0.00000000000E+00 0.  1.
         21    1    1    2  505  506 -0.30027514006E+02  0.13050388620E+02 -0.53063629020E+02  0.62351527369E+02  0.00000000000E+00 0.  1.
         21    1    1    2  506  504 -0.76733449457E+02 -0.21454617751E+02 -0.34642855840E+03  0.35547302143E+03  0.00000000000E+00 0. -1.
<scales pt_clust_3="130.92402" pt_clust_4="51.79744" pt_clust_5="32.74086" pt_clust_6="51.79744"></scales>
<clustering>
<clus scale="   32.741">  2  5  1 -1</clus>
<clus scale="   51.797">  4  6 -1 -1</clus>
<clus scale="  130.924">  1  3  2 -1</clus>
<clus scale="  130.924">  1  3  2 -1</clus>
</clustering>
</event>
<event>
 6    0  0.1704145E+002  0.1637686E+03  0.7546771E-02  0.1184507E+00
         21   -1    0    0  506  501  0.00000000000E+00  0.00000000000E+00  0.73611486544E+02  0.73611486544E+02  0.00000000000E+00 0. -1.
         21   -1    0    0  503  502 -0.00000000000E+00 -0.00000000000E+00 -0.28516974822E+04  0.28516974822E+04  0.00000000000E+00 0. -1.
         21    1    1    2  503  504  0.26613068443E+02  0.55634656458E+02 -0.13986032304E+04  0.13999623090E+04  0.00000000000E+00 0. -1.
         21    1    1    2  504  501 -0.70900535948E+01  0.65747218980E+02 -0.98745980409E+03  0.98967157702E+03  0.00000000000E+00 0. -1.
         21    1    1    2  505  502  0.51566294682E+02  0.21144450908E+02 -0.37083575663E+03  0.37500043860E+03  0.00000000000E+00 0. -1.
         21    1    1    2  506  505 -0.71089309530E+02 -0.14252632635E+03 -0.21187204488E+02  0.16067464413E+03  0.00000000000E+00 0. -1.
<scales pt_clust_3="42.52014" pt_clust_4="42.52014" pt_clust_5="55.73303" pt_clust_6="157.73893"></scales>
<clustering>
<clus scale="   42.520">  3  4 -1 -1</clus>
<clus scale="   55.733">  2  5  1 -1</clus>
<clus scale="  157.739">  1  6  2 -1</clus>
<clus scale="  157.739">  1  3  2 -1</clus>
</clustering>
</event>
<event>
 6    0  0.2098128E+002  0.1034460E+03  0.7546771E-02  0.1273212E+00
         21   -1    0    0  506  501  0.00000000000E+00  0.00000000000E+00  0.21142045517E+03  0.21142045517E+03  0.00000000000E+00 0.  1.
         21   -1    0    0  505  502 -0.00000000000E+00 -0.00000000000E+00 -0.63015360775E+03  0.63015360775E+03  0.00000000000E+00 0.  1.
         21    1    1    2  503  501 -0.10201685781E+03  0.14778469160E+02  0.18165393601E+03  0.20886357963E+03  0.00000000000E+00 0.  1.
         21    1    1    2  504  502  0.14279487207E+02 -0.27753068891E+02 -0.14498799658E+03  0.14830932452E+03  0.00000000000E+00 0.  1.
         21    1    1    2  505  503 -0.28076518145E+02  0.15480660405E+02 -0.31453542691E+02  0.44913996321E+02  0.00000000000E+00 0. -1.
         21    1    1    2  506  504  0.11581388875E+03 -0.25060606744E+01 -0.42394554932E+03  0.43948716245E+03  0.00000000000E+00 0.  1.
<scales pt_clust_3="103.44603" pt_clust_4="31.21116" pt_clust_5="30.04721" pt_clust_6="14000.00000"></scales>
<clustering>
<clus scale="   31.211">  2  4  1 -1</clus>
<clus scale="   30.047">  2  5  1 -1</clus>
<clus scale="  103.446">  1  3  2 -1</clus>
<clus scale="  103.446">  1  3  2 -1</clus>
</clustering>
</event>
<event>
 6    0  0.1704145E+002  0.1383793E+03  0.7546771E-02  0.1215527E+00
         21   -1    0    0  504  501  0.00000000000E+00  0.00000000000E+00  0.58551228295E+03  0.58551228295E+03  0.00000000000E+00 0. -1.
         21   -1    0    0  505  502 -0.00000000000E+00 -0.00000000000E+00 -0.28575202117E+03  0.28575202117E+03  0.00000000000E+00 0. -1.
         21    1    1    2  503  506 -0.16608537982E+02  0.30664432603E+02 -0.53010631904E+02  0.63452959392E+02  0.00000000000E+00 0. -1.
         21    1    1    2  504  502  0.81077121274E+02 -0.10916898317E+03  0.54927282600E+03  0.56585510855E+03  0.00000000000E+00 0. -1.
         21    1    1    2  505  503 -0.28982862577E+02  0.33963627284E+02 -0.17576873317E+03  0.18135099080E+03  0.00000000000E+00 0. -1.
         21    1    1    2  506  501 -0.35485720715E+02  0.44540923282E+02 -0.20733199153E+02  0.60605245388E+02  0.00000000000E+00 0.  1.
<scales pt_clust_3="31.13115" pt_clust_4="132.53754" pt_clust_5="44.64901" pt_clust_6="31.13115"></scales>
<clustering>
<clus scale="   31.131">  3  6 -1 -1</clus>
<clus scale="   44.649">  2  5  1 -1</clus>
<clus scale="  132.538">  1  4  2 -1</clus>
<clus scale="  132.538">  1  3  2 -1</clus>
</clustering>
</event>
<event>
 6    0  0.1704145E+002  0.9345488E+02  0.7546771E-02  0.1294694E+00
         21   -1    0    0  503  501  0.00000000000E+00  0.00000000000E+00  0.10466119003E+04  0.10466119003E+04  0.00000000000E+00 0. -1.
         21   -1    0    0  504  502 -0.00000000000E+00 -0.00000000000E+00 -0.70130641214E+03  0.70130641214E+03  0.00000000000E+00 0.  1.
         21    1    1    2  503  505  0.32686511775E+01 -0.51264960170E+02  0.10132469412E+04  0.10145482463E+04  0.00000000000E+00 0. -1.
         21    1    1    2  504  506  0.17168778717E+02 -0.73984413645E+02 -0.24914925337E+03  0.26046844508E+03  0.00000000000E+00 0.  1.
         21    1    1    2  505  502 -0.78904886020E+02  0.13868812787E+03 -0.29786505805E+03  0.33791118753E+03  0.00000000000E+00 0.  1.
         21    1    1    2  506  501  0.58467456125E+02 -0.13438754056E+02 -0.12092714168E+03  0.13499043348E+03  0.00000000000E+00 0.  1.
<scales pt_clust_3="51.36906" pt_clust_4="14000.00000" pt_clust_5="93.45488" pt_clust_6="64.02555"></scales>
<clustering>
<clus scale="   51.369">  1  3  2 -1</clus>
<clus scale="   64.026">  1  6  2 -1</clus>
<clus scale="   93.455">  1  5  2 -1</clus>
<clus scale="   51.369">  1  3  2 -1</clus>
</clustering>
</event>
<event>
 6    0  0.1704145E+002  0.1841039E+03  0.7546771E-02  0.1163889E+00
         21   -1    0    0  503  501  0.00000000000E+00  0.00000000000E+00  0.17154506677E+03  0.17154506677E+03  0.00000000000E+00 0.  1.
         21   -1    0    0  506  502 -0.00000000000E+00 -0.00000000000E+00 -0.50258352376E+03  0.50258352376E+03  0.00000000000E+00 0.  1.
         21    1    1    2  503  504  0.93920305827E-01  0.19953391848E+03  0.11567810285E+02  0.19986897628E+03  0.00000000000E+00 0.  1.
         21    1    1    2  504  505 -0.51916770613E+02  0.29999937072E+01 -0.83203624975E+02  0.98118266608E+02  0.00000000000E+00 0.  1.
         21    1    1    2  505  502 -0.50020767451E+02 -0.55402196856E+02 -0.14689112544E+03  0.16476796815E+03  0.00000000000E+00 0.  1.
         21    1    1    2  506  501  0.10184361776E+03 -0.14713171533E+03 -0.11251151686E+03  0.21137337950E+03  0.00000000000E+00 0.  1.
<scales pt_clust_3="14000.00000" pt_clust_4="45.93296" pt_clust_5="127.14393" pt_clust_6="184.10391"></scales>
<clustering>
<clus scale="   45.933">  4  5 -1 -1</clus>
<clus scale="  127.144">  2  4  1 -1</clus>
<clus scale="  184.104">  2  6  1 -1</clus>
<clus scale="  184.104">  1  3  2 -1</clus>
</clustering>
</event>
<event>
 6    0  0.1704145E+002  0.9006298E+02  0.7546771E-02  0.1302699E+00
         21   -1    0    0  503  501  0.00000000000E+00  0.00000000000E+00  0.51959359933E+03  0.51959359933E+03  0.00000000000E+00 0. -1.
         21   -1    0    0  504  502 -0.00000000000E+00 -0.00000000000E+00 -0.89678780747E+02  0.89678780747E+02  0.00000000000E+00 0. -1.
         21    1    1    2  503  505  0.38974882191E+01 -0.34000290874E+02  0.37103155649E+03  0.37260652987E+03  0.00000000000E+00 0. -1.
         21    1    1    2  504  506  0.81495579728E+02  0.16539065631E+01  0.12924287902E+02  0.82530613350E+02  0.00000000000E+00 0. -1.
         21    1    1    2  505  502  0.29208905558E+01 -0.35580636749E+02  0.10465733395E+02  0.37202753777E+02  0.00000000000E+00 0. -1.
         21    1    1    2  506  501 -0.88313958503E+02  0.67927021060E+02  0.35493240801E+02  0.11693248308E+03  0.00000000000E+00 0. -1.
<scales pt_clust_3="34.22295" pt_clust_4="90.06298" pt_clust_5="41.21759" pt_clust_6="14000.00000"></scales>
<clustering>
<clus scale="   34.223">  1  3  2 -1</clus>
<clus scale="   41.218">  2  5  1 -1</clus>
<clus scale="   90.063">  2  4  1 -1</clus>
<clus scale="   34.223">  1  3  2 -1</clus>
</clustering>
</event>
<event>
 6    0  0.1704145E+002  0.1962479E+03  0.7546771E-02  0.1152944E+00
         21   -1    0    0  505  501  0.00000000000E+00  0.00000000000E+00  0.27614148257E+02  0.27614148257E+02  0.00000000000E+00 0. -1.
         21   -1    0    0  506  502 -0.00000000000E+00 -0.00000000000E+00 -0.23945420177E+04  0.23945420177E+04  0.00000000000E+00 0. -1.
         21    1    1    2  503  501 -0.56008649363E+02 -0.11750319410E+03 -0.10051644721E+04  0.10135578846E+04  0.00000000000E+00 0. -1.
         21    1    1    2  504  503  0.71607501564E+01 -0.50310905425E+02 -0.50036839798E+03  0.50294233988E+03  0.00000000000E+00 0. -1.
         21    1    1    2  505  502  0.91185119074E+02  0.17209236643E+03 -0.42860322801E+03  0.47077726748E+03  0.00000000000E+00 0. -1.
         21    1    1    2  506  504 -0.42337219868E+02 -0.42782669024E+01 -0.43279177136E+03  0.43487867401E+03  0.00000000000E+00 0. -1.
<scales pt_clust_3="31.83528" pt_clust_4="31.83528" pt_clust_5="189.51835" pt_clust_6="42.55283"></scales>
<clustering>
<clus scale="   31.835">  3  4 -1 -1</clus>
<clus scale="   42.553">  2  6  1 -1</clus>
<clus scale="  189.518">  1  5  2 -1</clus>
<clus scale="  189.518">  1  3  2 -1</clus>
</clustering>
</event>
<event>
 6    0  0.1704145E+002  0.1128207E+03  0.7546771E-02  0.1255434E+00
         21   -1    0    0  503  501  0.00000000000E+00  0.00000000000E+00  0.54602412257E+02  0.54602412257E+02  0.00000000000E+00 0. -1.
         21   -1    0    0  506  502 -0.00000000000E+00 -0.00000000000E+00 -0.16250645853E+04  0.16250645853E+04  0.00000000000E+00 0. -1.
         21    1    1    2  503  504 -0.69134007462E+02 -0.33620763907E+02 -0.85539367430E+03  0.85884119882E+03  0.00000000000E+00 0. -1.
         21    1    1    2  504  502  0.40882693060E+02 -0.52426374247E+02 -0.56365422850E+03  0.56756145800E+03  0.00000000000E+00 0. -1.
         21    1    1    2  505  501  0.55679391848E+02  0.10274090984E+03 -0.20716873734E+02  0.11868057165E+03  0.00000000000E+00 0. -1.
         21    1    1    2  506  505 -0.27428077445E+02 -0.16693771684E+02 -0.13069739655E+03  0.13458376912E+03  0.00000000000E+00 0. -1.
<scales pt_clust_3="14000.00000" pt_clust_4="66.19239" pt_clust_5="112.82071" pt_clust_6="32.10890"></scales>
<clustering>
<clus scale="   32.109">  2  6  1 -1</clus>
<clus scale="   66.192">  2  4  1 -1</clus>
<clus scale="  112.821">  1  5  2 -1</clus>
<clus scale="  112.821">  1  3  2 -1</clus>
</clustering>
</event>
<event>
 6    0  0.1704145E+002  0.2396599E+03  0.7546771E-02  0.1120020E+00
         21   -1    0    0  506  501  0.00000000000E+00  0.00000000000E+00  0.26091782940E+03  0.26091782940E+03  0.00000000000E+00 0. -1.
         21   -1    0    0  503  502 -0.00000000000E+00 -0.00000000000E+00 -0.13688600431E+04  0.13688600431E+04  0.00000000000E+00 0.  1.
         21    1    1    2  503  501 -0.37189810378E+01 -0.95998515283E+02 -0.10779087746E+03  0.14438981620E+03  0.00000000000E+00 0.  1.
         21    1    1    2  504  505  0.25399577595E+03 -0.14396938209E+02  0.33152839402E+02  0.25655454934E+03  0.00000000000E+00 0. -1.
         21    1    1    2  505  502 -0.22642887393E+03  0.17195775264E+02 -0.10925180997E+04  0.11158680602E+04  0.00000000000E+00 0.  1.
         21    1    1    2  506  504 -0.23847920979E+02  0.93199678229E+02  0.59213924060E+02  0.11296544675E+03  0.00000000000E+00 0. -1.
<scales pt_clust_3="96.07052" pt_clust_4="239.65990" pt_clust_5="14000.00000" pt_clust_6="94.21297"></scales>
<clustering>
<clus scale="   96.071">  2  3  1 -1</clus>
<clus scale="   94.213">  1  6  2 -1</clus>
<clus scale="  239.660">  1  4  2 -1</clus>
<clus scale="   94.213">  1  3  2 -1</clus>
</clustering>
</event>
<event>
 6    0  0.1704145E+002  0.1056870E+04  0.7546771E-02  0.9248280E-01
         21   -1    0    0  504  501  0.00000000000E+00  0.00000000000E+00  0.47414333101E+03  0.47414333101E+03  0.00000000000E+00 0.  1.
         21   -1    0    0  501  502 -0.00000000000E+00 -0.00000000000E+00 -0.30306000339E+04  0.30306000339E+04  0.00000000000E+00 0.  1.
         21    1    1    2  503  505 -0.93265315990E+02  0.88769874436E+03 -0.82432346720E+03  0.12149965673E+04  0.00000000000E+00 0.  1.
         21    1    1    2  504  506  0.67712282061E+02  0.53395241703E+02  0.68629733942E+02  0.11020909835E+03  0.00000000000E+00 0.  1.
         21    1    1    2  505  502  0.69602805343E+02 -0.10694943318E+04 -0.17032697357E+04  0.20124091206E+04  0.00000000000E+00 0.  1.
         21    1    1    2  506  503 -0.44049771414E+02  0.12840034571E+03 -0.97493233893E+02  0.16712857863E+03  0.00000000000E+00 0.  1.
<scales pt_clust_3="37.42784" pt_clust_4="86.23227" pt_clust_5="1052.50339" pt_clust_6="37.42784"></scales>
<clustering>
<clus scale="   37.428">  3  6 -1 -1</clus>
<clus scale="   86.232">  1  4  2 -1</clus>
<clus scale=" 1052.503">  2  5  1 -1</clus>
<clus scale="   86.232">  1  3  2 -1</clus>
</clustering>
</event>
<event>
 6    0  0.1704145E+002  0.9609265E+02  0.7546771E-02  0.1288734E+00
         21   -1    0    0  504  501  0.00000000000E+00  0.00000000000E+00  0.14770199003E+02  0.14770199003E+02  0.00000000000E+00 0.  1.
         21   -1    0    0  506  502 -0.00000000000E+00 -0.00000000000E+00 -0.29036165650E+04  0.29036165650E+04  0.00000000000E+00 0.  1.
         21    1    1    2  503  502  0.11323935663E+02  0.30739908441E+02 -0.66179802014E+03  0.66260832545E+03  0.00000000000E+00 0.  1.
         21    1    1    2  504  503 -0.10566658095E+03  0.48070564555E+02 -0.13947590112E+04  0.13995816892E+04  0.00000000000E+00 0.  1.
         21    1    1    2  505  501  0.50547022177E+02 -0.81153559635E+02 -0.19278767305E+03  0.21519291014E+03  0.00000000000E+00 0.  1.
         21    1    1    2  506  505  0.43795623112E+02  0.23430866390E+01 -0.63950166160E+03  0.64100383918E+03  0.00000000000E+00 0. -1.
<scales pt_clust_3="32.75933" pt_clust_4="96.09265" pt_clust_5="14000.00000" pt_clust_6="48.32790"></scales>
<clustering>
<clus scale="   32.759">  2  3  1 -1</clus>
<clus scale="   48.328">  2  6  1 -1</clus>
<clus scale="   96.093">  2  4  1 -1</clus>
<clus scale="   96.093">  1  3  2 -1</clus>
</clustering>
</event>
<event>
 6    0  0.1704145E+002  0.5772354E+03  0.7546771E-02  0.9953794E-01
         21   -1    0    0  506  501  0.00000000000E+00  0.00000000000E+00  0.29238670070E+03  0.29238670070E+03  0.00000000000E+00 0. -1.
         21   -1    0    0  505  502 -0.00000000000E+00 -0.00000000000E+00 -0.11725103121E+04  0.11725103121E+04  0.00000000000E+00 0. -1.
         21    1    1    2  503  501  0.20184444867E+03  0.10700851488E+03 -0.15508565311E+03  0.27612237055E+03  0.00000000000E+00 0.  1.
         21    1    1    2  504  503  0.16536386667E+03  0.80044084297E+01 -0.28108888337E+03  0.32622115092E+03  0.00000000000E+00 0. -1.
         21    1    1    2  505  504  0.14706489473E+03  0.58027673638E+02 -0.23042488525E+03  0.27944752980E+03  0.00000000000E+00 0.  1.
         21    1    1    2  506  502 -0.51427321007E+03 -0.17304059694E+03 -0.21352418965E+03  0.58310596151E+03  0.00000000000E+00 0. -1.
<scales pt_clust_3="154.99790" pt_clust_4="154.99790" pt_clust_5="55.41980" pt_clust_6="542.60481"></scales>
<clustering>
<clus scale="   55.420">  4  5 -1 -1</clus>
<clus scale="  154.998">  3  4 -1 -1</clus>
<clus scale="  542.605">  1  6  2 -1</clus>
<clus scale="  542.605">  1  3  2 -1</clus>
</clustering>
</event>
<event>
 6    0  0.1704145E+002  0.1297244E+03  0.7546771E-02  0.1227865E+00
         21   -1    0    0  503  501  0.00000000000E+00  0.00000000000E+00  0.78474663944E+03  0.78474663944E+03  0.00000000000E+00 0. -1.
         21   -1    0    0  506  502 -0.00000000000E+00 -0.00000000000E+00 -0.88473172991E+03  0.88473172991E+03  0.00000000000E+00 0.  1.
         21    1    1    2  503  504  0.12952009607E+03 -0.11484922092E+03 -0.52667384763E+03  0.55439258708E+03  0.00000000000E+00 0.  1.
         21    1    1    2  504  502 -0.14018692986E+02  0.36107470654E+02 -0.41459266338E+02  0.56737500433E+02  0.00000000000E+00 0.  1.
         21    1    1    2  505  501 -0.29798638458E+02  0.29800640877E+02  0.75439196522E+03  0.75556817974E+03  0.00000000000E+00 0. -1.
         21    1    1    2  506  505 -0.85702764626E+02  0.48941109392E+02 -0.28624394173E+03  0.30278010210E+03  0.00000000000E+00 0. -1.
<scales pt_clust_3="14000.00000" pt_clust_4="38.73336" pt_clust_5="42.16800" pt_clust_6="129.72443"></scales>
<clustering>
<clus scale="   38.733">  2  4  1 -1</clus>
<clus scale="   42.168">  1  5  2 -1</clus>
<clus scale="  129.724">  1  6  2 -1</clus>
<clus scale="   42.168">  1  3  2 -1</clus>
</clustering>
</event>
<event>
 6    0  0.1704145E+002  0.2786446E+03  0.7546771E-02  0.1096432E+00
         21   -1    0    0  503  501  0.00000000000E+00  0.00000000000E+00  0.13102251177E+04  0.13102251177E+04  0.00000000000E+00 0.  1.
         21   -1    0    0  504  502 -0.00000000000E+00 -0.00000000000E+00 -0.21430418309E+03  0.21430418309E+03  0.00000000000E+00 0. -1.
         21    1    1    2  503  505  0.60459820171E+02 -0.28360016734E+03  0.11357661776E+04  0.11721984708E+04  0.00000000000E+00 0.  1.
         21    1    1    2  504  501  0.27439384304E+02  0.12108317622E+03 -0.83110482465E+02  0.14940350622E+03  0.00000000000E+00 0. -1.
         21    1    1    2  505  506 -0.40487576037E+02  0.12719808188E+03  0.51817581541E+02  0.14319098297E+03  0.00000000000E+00 0. -1.
         21    1    1    2  506  502 -0.47411628439E+02  0.35318909235E+02 -0.85523420348E+01  0.59736340824E+02  0.00000000000E+00 0.  1.
<scales pt_clust_3="269.20849" pt_clust_4="124.15335" pt_clust_5="47.84976" pt_clust_6="47.84976"></scales>
<clustering>
<clus scale="   47.850">  5  6 -1 -1</clus>
<clus scale="  124.153">  2  4  1 -1</clus>
<clus scale="  269.208">  1  3  2 -1</clus>
<clus scale="  269.208">  1  3  2 -1</clus>
</clustering>
</event>
<event>
 6    0  0.1704145E+002  0.1582591E+03  0.7546771E-02  0.1190676E+00
         21   -1    0    0  506  501  0.00000000000E+00  0.00000000000E+00  0.12600619441E+03  0.12600619441E+03  0.00000000000E+00 0.  1.
         21   -1    0    0  503  502 -0.00000000000E+00 -0.00000000000E+00 -0.41925587694E+03  0.41925587694E+03  0.00000000000E+00 0.  1.
         21    1    1    2  503  501  0.50319601155E+02 -0.11252901073E+03 -0.21130955596E+03  0.24463558400E+03  0.00000000000E+00 0.  1.
         21    1    1    2  504  505  0.56773876890E+02  0.17877260542E+02 -0.60008496294E+02  0.84521530802E+02  0.00000000000E+00 0. -1.
         21    1    1    2  505  502  0.33558452892E+02 -0.13202846243E+02 -0.13996035230E+02  0.38682992537E+02  0.00000000000E+00 0.  1.
         21    1    1    2  506  504 -0.14065193094E+03  0.10785459643E+03 -0.79355950529E+01  0.17742196402E+03  0.00000000000E+00 0.  1.
<scales pt_clust_3="14000.00000" pt_clust_4="98.50220" pt_clust_5="30.35557" pt_clust_6="158.25914"></scales>
<clustering>
<clus scale="   30.356">  4  5 -1 -1</clus>
<clus scale="   98.502">  2  4  1 -1</clus>
<clus scale="  158.259">  1  6  2 -1</clus>
<clus scale="  158.259">  1  3  2 -1</clus>
</clustering>
</event>
<event>
 6    0  0.1704145E+002  0.1320282E+03  0.7546771E-02  0.1224477E+00
         21   -1    0    0  504  501  0.00000000000E+00  0.00000000000E+00  0.73719999202E+03  0.73719999202E+03  0.00000000000E+00 0.  1.
         21   -1    0    0  505  502 -0.00000000000E+00 -0.00000000000E+00 -0.23101760830E+03  0.23101760830E+03  0.00000000000E+00 0. -1.
         21    1    1    2  503  502 -0.41460801429E+02 -0.19194537437E+02  0.20472913644E+02  0.50065642067E+02  0.00000000000E+00 0. -1.
         21    1    1    2  504  503 -0.64297369705E+02  0.10200041662E+03  0.67178502530E+03  0.68251985829E+03  0.00000000000E+00 0.  1.
         21    1    1    2  505  506  0.36430029900E+02 -0.52522528434E+02 -0.11633032140E+03  0.13273472322E+03  0.00000000000E+00 0. -1.
         21    1    1    2  506  501  0.69328141234E+02 -0.30283350745E+02 -0.69745233823E+02  0.10289737674E+03  0.00000000000E+00 0. -1.
<scales pt_clust_3="45.68838" pt_clust_4="120.72561" pt_clust_5="53.36767" pt_clust_6="53.36767"></scales>
<clustering>
<clus scale="   45.688">  2  3  1 -1</clus>
<clus scale="   53.368">  5  6 -1 -1</clus>
<clus scale="  120.726">  1  4  2 -1</clus>
<clus scale="  120.726">  1  3  2 -1</clus>
</clustering>
</event>
<event>
 6    0  0.1704145E+002  0.1519683E+03  0.7546771E-02  0.1198075E+00
         21   -1    0    0  506  501  0.00000000000E+00  0.00000000000E+00  0.53550593776E+02  0.53550593776E+02  0.00000000000E+00 0.  1.
         21   -1    0    0  505  502 -0.00000000000E+00 -0.00000000000E+00 -0.82563639705E+03  0.82563639705E+03  0.00000000000E+00 0.  1.
         21    1    1    2  503  501 -0.17825658145E+02  0.24753054209E+02  0.17176313205E+02  0.35007049523E+02  0.00000000000E+00 0.  1.
         21    1    1    2  504  503  0.31948873831E+02 -0.62539501673E+02 -0.14198799451E+03  0.15840615642E+03  0.00000000000E+00 0.  1.
         21    1    1    2  505  504  0.56246024728E+02 -0.73264547248E+02 -0.32051644286E+03  0.33355973876E+03  0.00000000000E+00 0.  1.
         21    1    1    2  506  502 -0.70369240413E+02  0.11105099471E+03 -0.32675767912E+03  0.35221404612E+03  0.00000000000E+00 0.  1.
<scales pt_clust_3="30.50357" pt_clust_4="36.95856" pt_clust_5="36.95856" pt_clust_6="145.58625"></scales>
<clustering>
<clus scale="   30.504">  1  3  2 -1</clus>
<clus scale="   36.959">  4  5 -1 -1</clus>
<clus scale="  145.586">  2  6  1 -1</clus>
<clus scale="   30.504">  1  3  2 -1</clus>
</clustering>
</event>
<event>
 6    0  0.1704145E+002  0.1246601E+03  0.7546771E-02  0.1235601E+00
         21   -1    0    0  505  501  0.00000000000E+00  0.00000000000E+00  0.36692459987E+02  0.36692459987E+02  0.00000000000E+00 0.  1.
         21   -1    0    0  506  502 -0.00000000000E+00 -0.00000000000E+00 -0.12101673351E+04  0.12101673351E+04  0.00000000000E+00 0.  1.
         21    1    1    2  503  502  0.68208866333E+02  0.10906199271E+02 -0.37657866261E+03  0.38286144199E+03  0.00000000000E+00 0.  1.
         21    1    1    2  504  501 -0.10497590569E+03  0.62848267232E+02 -0.96637257174E+02  0.15591217061E+03  0.00000000000E+00 0.  1.
         21    1    1    2  505  503  0.36648685944E+02 -0.22145372349E+02 -0.16954122146E+03  0.17486500357E+03  0.00000000000E+00 0.  1.
         21    1    1    2  506  504  0.11835341656E+00 -0.51609094154E+02 -0.53071773383E+03  0.53322117888E+03  0.00000000000E+00 0.  1.
<scales pt_clust_3="32.37134" pt_clust_4="117.68481" pt_clust_5="32.37134" pt_clust_6="51.60923"></scales>
<clustering>
<clus scale="   32.371">  3  5 -1 -1</clus>
<clus scale="   51.609">  2  6  1 -1</clus>
<clus scale="  117.685">  1  4  2 -1</clus>
<clus scale="  117.685">  1  3  2 -1</clus>
</clustering>
</event>
<event>
 6    0  0.1704145E+002  0.7887623E+02  0.7546771E-02  0.1332271E+00
         21   -1    0    0  504  501  0.00000000000E+00  0.00000000000E+00  0.58034091293E+03  0.58034091293E+03  0.00000000000E+00 0. -1.
         21   -1    0    0  505  502 -0.00000000000E+00 -0.00000000000E+00 -0.49830276170E+03  0.49830276170E+03  0.00000000000E+00 0. -1.
         21    1    1    2  503  501  0.11888201379E+02  0.49024458129E+02  0.55276715031E+03  0.55506418484E+03  0.00000000000E+00 0. -1.
         21    1    1    2  504  502 -0.46089004617E+02  0.34589056205E+02 -0.16015934640E+03  0.17021050318E+03  0.00000000000E+00 0. -1.
         21    1    1    2  505  506  0.58093449551E+01  0.35022512194E+02 -0.13493964312E+03  0.13953147364E+03  0.00000000000E+00 0. -1.
         21    1    1    2  506  503  0.28391458283E+02 -0.11863602653E+03 -0.17563000956E+03  0.21383751297E+03  0.00000000000E+00 0. -1.
<scales pt_clust_3="50.55791" pt_clust_4="14000.00000" pt_clust_5="35.50105" pt_clust_6="78.87623"></scales>
<clustering>
<clus scale="   35.501">  2  5  1 -1</clus>
<clus scale="   50.558">  1  3  2 -1</clus>
<clus scale="   78.876">  1  6  2 -1</clus>
<clus scale="   50.558">  1  3  2 -1</clus>
</clustering>
</event>
<event>
 6    0  0.1704145E+002  0.1069780E+03  0.7546771E-02  0.1266271E+00
         21   -1    0    0  504  501  0.00000000000E+00  0.00000000000E+00  0.41252799265E+03  0.41252799265E+03  0.00000000000E+00 0. -1.
         21   -1    0    0  503  502 -0.00000000000E+00 -0.00000000000E+00 -0.15245310319E+04  0.15245310319E+04  0.00000000000E+00 0.  1.
         21    1    1    2  503  505  0.61627746010E+02 -0.91275172493E+02 -0.13026552058E+04  0.13073024598E+04  0.00000000000E+00 0.  1.
         21    1    1    2  504  506  0.39390464025E+02 -0.51240892323E+01  0.36533364641E+03  0.36748678636E+03  0.00000000000E+00 0. -1.
         21    1    1    2  505  501 -0.10258413003E+03  0.85467105664E+01 -0.12276506771E+03  0.16021177186E+03  0.00000000000E+00 0.  1.
         21    1    1    2  506  502  0.15659199931E+01  0.87852551159E+02 -0.51916412189E+02  0.10205800657E+03  0.00000000000E+00 0.  1.
<scales pt_clust_3="14000.00000" pt_clust_4="39.72235" pt_clust_5="86.83311" pt_clust_6="106.97797"></scales>
<clustering>
<clus scale="   39.722">  1  4  2 -1</clus>
<clus scale="   86.833">  1  5  2 -1</clus>
<clus scale="  106.978">  1  6  2 -1</clus>
<clus scale="   39.722">  1  3  2 -1</clus>
</clustering>
</event>
<event>
 6    0  0.1704145E+002  0.1962287E+03  0.7546771E-02  0.1152960E+00
         21   -1    0    0  505  501  0.00000000000E+00  0.00000000000E+00  0.30323412325E+04  0.30323412325E+04  0.00000000000E+00 0. -1.
         21   -1    0    0  503  502 -0.00000000000E+00 -0.00000000000E+00 -0.21732493046E+03  0.21732493046E+03  0.00000000000E+00 0.  1.
         21    1    1    2  503  504  0.93127083274E+02 -0.17441556033E+03 -0.66923379599E+02  0.20873950288E+03  0.00000000000E+00 0.  1.
         21    1    1    2  504  501  0.31776121987E+02 -0.27664238437E+02  0.27611768848E+04  0.27614982928E+04  0.00000000000E+00 0. -1.
         21    1    1    2  505  506 -0.94645959249E+02  0.19693631737E+03  0.11872067414E+03  0.24866919626E+03  0.00000000000E+00 0.  1.
         21    1    1    2  506  502 -0.30257246013E+02  0.51434813953E+01  0.20421227172E+01  0.30759171028E+02  0.00000000000E+00 0. -1.
<scales pt_clust_3="196.22870" pt_clust_4="42.11039" pt_clust_5="14000.00000" pt_clust_6="30.69131"></scales>
<clustering>
<clus scale="   30.691">  2  6  1 -1</clus>
<clus scale="   42.110">  1  4  2 -1</clus>
<clus scale="  196.229">  2  3  1 -1</clus>
<clus scale="   42.110">  1  3  2 -1</clus>
</clustering>
</event>
<event>
 6    0  0.1704145E+002  0.1898133E+03  0.7546771E-02  0.1158630E+00
         21   -1    0    0  505  501  0.00000000000E+00  0.00000000000E+00  0.54627573197E+03  0.54627573197E+03  0.00000000000E+00 0.  1.
         21   -1    0    0  504  502 -0.00000000000E+00 -0.00000000000E+00 -0.93982107351E+03  0.93982107351E+03  0.00000000000E+00 0.  1.
         21    1    1    2  503  501  0.13490304988E+03 -0.46196467204E+02 -0.14191743132E+03  0.20118027677E+03  0.00000000000E+00 0.  1.
         21    1    1    2  504  503  0.49837179706E+02 -0.41955687180E+01 -0.10581803885E+03  0.11704189260E+03  0.00000000000E+00 0.  1.
         21    1    1    2  505  506 -0.21810132058E+02 -0.21539802702E+02  0.49847984337E+03  0.49942146451E+03  0.00000000000E+00 0.  1.
         21    1    1    2  506  502 -0.16293009753E+03  0.71931838624E+02 -0.64428971475E+03  0.66845317160E+03  0.00000000000E+00 0.  1.
<scales pt_clust_3="33.74542" pt_clust_4="33.74542" pt_clust_5="30.65363" pt_clust_6="181.12130"></scales>
<clustering>
<clus scale="   30.654">  1  5  2 -1</clus>
<clus scale="   33.745">  3  4 -1 -1</clus>
<clus scale="  181.121">  2  6  1 -1</clus>
<clus scale="   30.654">  1  3  2 -1</clus>
</clustering>
</event>
<event>
 6    0  0.1704145E+002  0.6982454E+02  0.7546771E-02  0.1360691E+00
         21   -1    0    0  503  501  0.00000000000E+00  0.00000000000E+00  0.70517481918E+03  0.70517481918E+03  0.00000000000E+00 0.  1.
         21   -1    0    0  505  502 -0.00000000000E+00 -0.00000000000E+00 -0.72151860678E+02  0.72151860678E+02  0.00000000000E+00 0. -1.
         21    1    1    2  503  504  0.30203088613E+02 -0.16698079993E+02  0.39316703291E+03  0.39467881652E+03  0.00000000000E+00 0.  1.
         21    1    1    2  504  506 -0.89682326458E+02  0.14604005520E+02  0.15929219836E+03  0.18338538959E+03  0.00000000000E+00 0.  1.
         21    1    1    2  505  501  0.46728038766E+02  0.62783223355E+02  0.10639786409E+03  0.13208235395E+03  0.00000000000E+00 0.  1.
         21    1    1    2  506  502  0.12751199080E+02 -0.60689148883E+02 -0.25834136859E+02  0.67180119807E+02  0.00000000000E+00 0. -1.
<scales pt_clust_3="34.51163" pt_clust_4="69.82454" pt_clust_5="14000.00000" pt_clust_6="63.53579"></scales>
<clustering>
<clus scale="   34.512">  1  3  2 -1</clus>
<clus scale="   63.536">  2  6  1 -1</clus>
<clus scale="   69.825">  1  4  2 -1</clus>
<clus scale="   34.512">  1  3  2 -1</clus>
</clustering>
</event>
<event>
 6    0  0.1704145E+002  0.8875341E+02  0.7546771E-02  0.1305899E+00
         21   -1    0    0  506  501  0.00000000000E+00  0.00000000000E+00  0.35538311090E+02  0.35538311090E+02  0.00000000000E+00 0. -1.
         21   -1    0    0  504  502 -0.00000000000E+00 -0.00000000000E+00 -0.10041537577E+04  0.10041537577E+04  0.00000000000E+00 0. -1.
         21    1    1    2  503  501 -0.19182327419E+02  0.33768529350E+02 -0.85888417416E+02  0.94260784560E+02  0.00000000000E+00 0. -1.
         21    1    1    2  504  503 -0.49996219355E+02  0.55771685283E+02 -0.45245013153E+03  0.45860792007E+03  0.00000000000E+00 0. -1.
         21    1    1    2  505  502  0.77233063334E+02 -0.13363057910E+03 -0.40911041750E+03  0.43725668828E+03  0.00000000000E+00 0. -1.
         21    1    1    2  506  505 -0.80545165601E+01  0.44090364469E+02 -0.21166480187E+02  0.49566675898E+02  0.00000000000E+00 0. -1.
<scales pt_clust_3="38.83652" pt_clust_4="88.75341" pt_clust_5="14000.00000" pt_clust_6="61.69994"></scales>
<clustering>
<clus scale="   38.837">  1  3  2 -1</clus>
<clus scale="   61.700">  1  6  2 -1</clus>
<clus scale="   88.753">  2  4  1 -1</clus>
<clus scale="   38.837">  1  3  2 -1</clus>
</clustering>
</event>
<event>
 6    0  0.1704145E+002  0.9280915E+02  0.7546771E-02  0.1296188E+00
         21   -1    0    0  504  501  0.00000000000E+00  0.00000000000E+00  0.27938568365E+02  0.27938568365E+02  0.00000000000E+00 0. -1.
         21   -1    0    0  506  502 -0.00000000000E+00 -0.00000000000E+00 -0.10899637374E+04  0.10899637374E+04  0.00000000000E+00 0.  1.
         21    1    1    2  503  505 -0.43129076287E+02  0.10999834574E+02 -0.30989562403E+03  0.31307572786E+03  0.00000000000E+00 0. -1.
         21    1    1    2  504  503  0.88636780781E+02  0.25784966151E+02 -0.76917868152E+02  0.12015698826E+03  0.00000000000E+00 0. -1.
         21    1    1    2  505  502 -0.11125397499E+02  0.33426057319E+02 -0.20751129926E+03  0.21048043875E+03  0.00000000000E+00 0.  1.
         21    1    1    2  506  501 -0.34382306995E+02 -0.70210858043E+02 -0.46770037755E+03  0.47418915085E+03  0.00000000000E+00 0.  1.
<scales pt_clust_3="34.27114" pt_clust_4="84.43702" pt_clust_5="34.27114" pt_clust_6="78.17741"></scales>
<clustering>
<clus scale="   34.271">  3  5 -1 -1</clus>
<clus scale="   78.177">  2  6  1 -1</clus>
<clus scale="   84.437">  1  4  2 -1</clus>
<clus scale="   84.437">  1  3  2 -1</clus>
</clustering>
</event>
<event>
 6    0  0.1704145E+002  0.4947967E+03  0.7546771E-02  0.1015146E+00
         21   -1    0    0  503  501  0.00000000000E+00  0.00000000000E+00  0.26148472217E+03  0.26148472217E+03  0.00000000000E+00 0.  1.
         21   -1    0    0  506  502 -0.00000000000E+00 -0.00000000000E+00 -0.16183584791E+04  0.16183584791E+04  0.00000000000E+00 0. -1.
         21    1    1    2  503  505 -0.23978178789E+02 -0.90856889025E+02  0.75124913625E+02  0.12030660825E+03  0.00000000000E+00 0.  1.
         21    1    1    2  504  501 -0.18183200269E+03  0.37820231634E+03 -0.50305881799E+03  0.65510918452E+03  0.00000000000E+00 0. -1.
         21    1    1    2  505  502  0.27050961948E+03 -0.38055454489E+03 -0.83688297670E+03  0.95831640525E+03  0.00000000000E+00 0.  1.
         21    1    1    2  506  504 -0.64699438006E+02  0.93209117571E+02 -0.92056875837E+02  0.14611100323E+03  0.00000000000E+00 0. -1.
<scales pt_clust_3="93.96769" pt_clust_4="35.96760" pt_clust_5="489.93795" pt_clust_6="35.96760"></scales>
<clustering>
<clus scale="   35.968">  4  6 -1 -1</clus>
<clus scale="   93.968">  1  3  2 -1</clus>
<clus scale="  489.938">  2  5  1 -1</clus>
<clus scale="   93.968">  1  3  2 -1</clus>
</clustering>
</event>
<event>
 6    0  0.1704145E+002  0.1620812E+03  0.7546771E-02  0.1186367E+00
         21   -1    0    0  506  501  0.00000000000E+00  0.00000000000E+00  0.96883125648E+02  0.96883125648E+02  0.00000000000E+00 0.  1.
         21   -1    0    0  505  502 -0.00000000000E+00 -0.00000000000E+00 -0.85014800245E+03  0.85014800245E+03  0.00000000000E+00 0.  1.
         21    1    1    2  503  501  0.39703902292E+02  0.14551390589E+03 -0.12806884592E+01  0.15083877760E+03  0.00000000000E+00 0.  1.
         21    1    1    2  504  503 -0.23876081102E+02 -0.12838071509E+03 -0.37866092219E+03  0.40054434118E+03  0.00000000000E+00 0.  1.
         21    1    1    2  505  504 -0.42285971666E+02 -0.63840935119E+02 -0.19804189401E+03  0.21233078010E+03  0.00000000000E+00 0.  1.
         21    1    1    2  506  502  0.26458150477E+02  0.46707744319E+02 -0.17528137215E+03  0.18331722922E+03  0.00000000000E+00 0. -1.
<scales pt_clust_3="156.73904" pt_clust_4="31.60347" pt_clust_5="31.60347" pt_clust_6="53.68098"></scales>
<clustering>
<clus scale="   31.603">  4  5 -1 -1</clus>
<clus scale="   53.681">  2  6  1 -1</clus>
<clus scale="  156.739">  1  3  2 -1</clus>
<clus scale="  156.739">  1  3  2 -1</clus>
</clustering>
</event>
<event>
 6    0  0.1704145E+002  0.1195434E+03  0.7546771E-02  0.1243852E+00
         21   -1    0    0  506  501  0.00000000000E+00  0.00000000000E+00  0.14648873880E+03  0.14648873880E+03  0.00000000000E+00 0. -1.
         21   -1    0    0  505  502 -0.00000000000E+00 -0.00000000000E+00 -0.14397987907E+04  0.14397987907E+04  0.00000000000E+00 0.  1.
         21    1    1    2  503  504 -0.15940220480E+02 -0.55870709958E+02 -0.57919452973E+03  0.58210130573E+03  0.00000000000E+00 0. -1.
         21    1    1    2  504  502 -0.45686369759E+02 -0.40611755864E+02 -0.77834984785E+03  0.78074646637E+03  0.00000000000E+00 0.  1.
         21    1    1    2  505  501  0.49123219048E+02  0.54466312863E+01 -0.54322117145E+02  0.73441465489E+02  0.00000000000E+00 0. -1.
         21    1    1    2  506  503  0.12503371191E+02  0.91035834536E+02  0.11855644279E+03  0.14999829195E+03  0.00000000000E+00 0. -1.
<scales pt_clust_3="35.42892" pt_clust_4="35.42892" pt_clust_5="49.42425" pt_clust_6="113.88598"></scales>
<clustering>
<clus scale="   35.429">  3  4 -1 -1</clus>
<clus scale="   49.424">  1  5  2 -1</clus>
<clus scale="  113.886">  1  6  2 -1</clus>
<clus scale="   49.424">  1  3  2 -1</clus>
</clustering>
</event>
<event>
 6    0  0.1704145E+002  0.7441589E+02  0.7546771E-02  0.1345689E+00
         21   -1    0    0  503  501  0.00000000000E+00  0.00000000000E+00  0.18329436677E+04  0.18329436677E+04  0.00000000000E+00 0. -1.
         21   -1    0    0  505  502 -0.00000000000E+00 -0.00000000000E+00 -0.22996475091E+03  0.22996475091E+03  0.00000000000E+00 0. -1.
         21    1    1    2  503  504 -0.64334299326E+01  0.35285990001E+02  0.16809848228E+04  0.16813674389E+04  0.00000000000E+00 0. -1.
         21    1    1    2  504  502  0.43846204581E+02  0.66675599873E+02 -0.83728892822E+02  0.11566612628E+03  0.00000000000E+00 0. -1.
         21    1    1    2  505  506 -0.41104176859E+02  0.33015683594E+01 -0.10515042650E+03  0.11294718192E+03  0.00000000000E+00 0. -1.
         21    1    1    2  506  501  0.36914022106E+01 -0.10526315823E+03  0.11087341330E+03  0.15292767149E+03  0.00000000000E+00 0.  1.
<scales pt_clust_3="35.86768" pt_clust_4="74.41589" pt_clust_5="41.48340" pt_clust_6="14000.00000"></scales>
<clustering>
<clus scale="   35.868">  1  3  2 -1</clus>
<clus scale="   41.483">  2  5  1 -1</clus>
<clus scale="   74.416">  2  4  1 -1</clus>
<clus scale="   35.868">  1  3  2 -1</clus>
</clustering>
</event>
<event>
 6    0  0.1704145E+002  0.1056257E+03  0.7546771E-02  0.1268892E+00
         21   -1    0    0  505  501  0.00000000000E+00  0.00000000000E+00  0.90726090164E+02  0.90726090164E+02  0.00000000000E+00 0. -1.
         21   -1    0    0  504  502 -0.00000000000E+00 -0.00000000000E+00 -0.44439668929E+03  0.44439668929E+03  0.00000000000E+00 0. -1.
         21    1    1    2  503  501 -0.35526692564E+02  0.26799296162E+02  0.57650156240E+02  0.72827801517E+02  0.00000000000E+00 0. -1.
         21    1    1    2  504  506 -0.27651426490E+02 -0.64640811802E+02 -0.14026025077E+03  0.15689478603E+03  0.00000000000E+00 0. -1.
         21    1    1    2  505  502  0.51733814727E+02  0.78966227913E+02 -0.21601331705E+03  0.23574097201E+03  0.00000000000E+00 0. -1.
         21    1    1    2  506  503  0.11444304326E+02 -0.41124712273E+02 -0.55047187539E+02  0.69659219899E+02  0.00000000000E+00 0. -1.
<scales pt_clust_3="44.50110" pt_clust_4="32.43499" pt_clust_5="97.07772" pt_clust_6="32.43499"></scales>
<clustering>
<clus scale="   32.435">  4  6 -1 -1</clus>
<clus scale="   44.501">  1  3  2 -1</clus>
<clus scale="   97.078">  2  5  1 -1</clus>
<clus scale="   44.501">  1  3  2 -1</clus>
</clustering>
</event>
<event>
 6    0  0.1704145E+002  0.2324366E+03  0.7546771E-02  0.1124936E+00
         21   -1    0    0  505  501  0.00000000000E+00  0.00000000000E+00  0.19486915489E+04  0.19486915489E+04  0.00000000000E+00 0. -1.
         21   -1    0    0  501  502 -0.00000000000E+00 -0.00000000000E+00 -0.13600868344E+03  0.13600868344E+03  0.00000000000E+00 0. -1.
         21    1    1    2  503  502  0.22264815366E+03  0.75500649585E+02  0.21337667723E+02  0.23606745748E+03  0.00000000000E+00 0. -1.
         21    1    1    2  504  506 -0.77336970683E+02 -0.14565090193E+02  0.77322499122E+02  0.11032641459E+03  0.00000000000E+00 0. -1.
         21    1    1    2  505  504 -0.45948900221E+02 -0.94171649884E+02  0.14568014924E+04  0.14605650240E+04  0.00000000000E+00 0. -1.
         21    1    1    2  506  503 -0.99362282759E+02  0.33236090492E+02  0.25722120623E+03  0.27774133628E+03  0.00000000000E+00 0. -1.
<scales pt_clust_3="216.61238" pt_clust_4="73.05673" pt_clust_5="104.78359" pt_clust_6="73.05673"></scales>
<clustering>
<clus scale="   73.057">  4  6 -1 -1</clus>
<clus scale="  104.784">  1  5  2 -1</clus>
<clus scale="  216.612">  2  3  1 -1</clus>
<clus scale="  104.784">  1  3  2 -1</clus>
</clustering>
</event>
<event>
 6    0  0.1704145E+002  0.1320654E+03  0.7546771E-02  0.1224423E+00
         21   -1    0    0  506  501  0.00000000000E+00  0.00000000000E+00  0.89525528219E+02  0.89525528219E+02  0.00000000000E+00 0.  1.
         21   -1    0    0  504  502 -0.00000000000E+00 -0.00000000000E+00 -0.15757593464E+04  0.15757593464E+04  0.00000000000E+00 0.  1.
         21    1    1    2  503  505  0.29077851819E+02  0.26068531297E+02 -0.72261328066E+02  0.82138841751E+02  0.00000000000E+00 0.  1.
         21    1    1    2  504  503  0.13151497785E+03 -0.19007032597E+02 -0.86181976929E+03  0.87200388269E+03  0.00000000000E+00 0.  1.
         21    1    1    2  505  501 -0.27748819895E+02  0.17869331340E+02  0.68449789150E+02  0.75991339262E+02  0.00000000000E+00 0.  1.
         21    1    1    2  506  502 -0.13284400977E+03 -0.24930830040E+02 -0.62060250996E+03  0.63515081090E+03  0.00000000000E+00 0.  1.
<scales pt_clust_3="37.67157" pt_clust_4="132.06540" pt_clust_5="33.00470" pt_clust_6="14000.00000"></scales>
<clustering>
<clus scale="   33.005">  1  5  2 -1</clus>
<clus scale="   37.672">  1  3  2 -1</clus>
<clus scale="  132.065">  2  4  1 -1</clus>
<clus scale="   33.005">  1  3  2 -1</clus>
</clustering>
</event>
<event>
 6    0  0.1704145E+002  0.1044404E+03  0.7546771E-02  0.1271226E+00
         21   -1    0    0  503  501  0.00000000000E+00  0.00000000000E+00  0.11850950516E+04  0.11850950516E+04  0.00000000000E+00 0. -1.
         21   -1    0    0  506  502 -0.00000000000E+00 -0.00000000000E+00 -0.19954393557E+03  0.19954393557E+03  0.00000000000E+00 0. -1.
         21    1    1    2  503  504 -0.99740950130E+02  0.34379878228E+02  0.11349912987E+04  0.11398839771E+04  0.00000000000E+00 0. -1.
         21    1    1    2  504  502  0.46667696179E+02 -0.53204660750E+02 -0.86249380913E+02  0.11156865823E+03  0.00000000000E+00 0. -1.
         21    1    1    2  505  501  0.24017528017E+02  0.36580924501E+02 -0.82972800967E+02  0.93805604255E+02  0.00000000000E+00 0. -1.
         21    1    1    2  506  505  0.29055725934E+02 -0.17756141978E+02  0.19781999229E+02  0.39380747593E+02  0.00000000000E+00 0. -1.
<scales pt_clust_3="14000.00000" pt_clust_4="104.44036" pt_clust_5="47.02797" pt_clust_6="34.05166"></scales>
<clustering>
<clus scale="   34.052">  2  6  1 -1</clus>
<clus scale="   47.028">  2  5  1 -1</clus>
<clus scale="  104.440">  2  4  1 -1</clus>
<clus scale="  104.440">  1  3  2 -1</clus>
</clustering>
</event>
<event>
 6    0  0.1704145E+002  0.1858890E+03  0.7546771E-02  0.1162222E+00
         21   -1    0    0  505  501  0.00000000000E+00  0.00000000000E+00  0.59416473399E+03  0.59416473399E+03  0.00000000000E+00 0.  1.
         21   -1    0    0  503  502 -0.00000000000E+00 -0.00000000000E+00 -0.64649199798E+03  0.64649199798E+03  0.00000000000E+00 0. -1.
         21    1    1    2  503  506  0.54485378260E+02  0.44236490207E+02 -0.40494770151E+03  0.41098438471E+03  0.00000000000E+00 0. -1.
         21    1    1    2  504  501  0.33055974287E+02 -0.28556358002E+02  0.20596295057E+03  0.21054429469E+03  0.00000000000E+00 0.  1.
         21    1    1    2  505  502 -0.10290151160E+03 -0.15271163542E+03  0.33703472300E+03  0.38405985105E+03  0.00000000000E+00 0.  1.
         21    1    1    2  506  504  0.15360159048E+02  0.13703150322E+03 -0.19037723605E+03  0.23506820152E+03  0.00000000000E+00 0. -1.
<scales pt_clust_3="70.24282" pt_clust_4="43.68253" pt_clust_5="185.88900" pt_clust_6="14000.00000"></scales>
<clustering>
<clus scale="   43.683">  1  4  2 -1</clus>
<clus scale="   70.243">  2  3  1 -1</clus>
<clus scale="  185.889">  1  5  2 -1</clus>
<clus scale="   43.683">  1  3  2 -1</clus>
</clustering>
</event>
<event>
 6    0  0.1704145E+002  0.1019906E+03  0.7546771E-02  0.1276165E+00
         21   -1    0    0  506  501  0.00000000000E+00  0.00000000000E+00  0.36094911321E+03  0.36094911321E+03  0.00000000000E+00 0.  1.
         21   -1    0    0  503  502 -0.00000000000E+00 -0.00000000000E+00 -0.68282036415E+03  0.68282036415E+03  0.00000000000E+00 0.  1.
         21    1    1    2  503  504 -0.29236725434E+02  0.16669782576E+02 -0.83371041033E+02  0.89907720737E+02  0.00000000000E+00 0. -1.
         21    1    1    2  504  501  0.10012117876E+02  0.41401407890E+02 -0.12965905489E+03  0.13647633346E+03  0.00000000000E+00 0.  1.
         21    1    1    2  505  502 -0.78153103016E+02 -0.25821418922E+02 -0.45189177608E+03  0.45932649660E+03  0.00000000000E+00 0.  1.
         21    1    1    2  506  505  0.97377710574E+02 -0.32249771545E+02  0.34305062106E+03  0.35805892657E+03  0.00000000000E+00 0.  1.
<scales pt_clust_3="33.65513" pt_clust_4="45.25660" pt_clust_5="101.99063" pt_clust_6="14000.00000"></scales>
<clustering>
<clus scale="   33.655">  2  3  1 -1</clus>
<clus scale="   45.257">  2  4  1 -1</clus>
<clus scale="  101.991">  2  5  1 -1</clus>
<clus scale="  101.991">  1  3  2 -1</clus>
</clustering>
</event>
<event>
 6    0  0.1704145E+002  0.1108574E+03  0.7546771E-02  0.1258990E+00
         21   -1    0    0  506  501  0.00000000000E+00  0.00000000000E+00  0.14831753469E+03  0.14831753469E+03  0.00000000000E+00 0.  1.
         21   -1    0    0  501  502 -0.00000000000E+00 -0.00000000000E+00 -0.21981516294E+03  0.21981516294E+03  0.00000000000E+00 0. -1.
         21    1    1    2  503  502 -0.41867739644E+02  0.39919882369E+02 -0.59898206154E+02  0.83272442811E+02  0.00000000000E+00 0. -1.
         21    1    1    2  504  503  0.13268413943E+01  0.41973407557E+02 -0.34552761833E+02  0.54382173552E+02  0.00000000000E+00 0.  1.
         21    1    1    2  505  504  0.41457290195E+02 -0.11713290492E+03 -0.61736059514E+02  0.13874496520E+03  0.00000000000E+00 0. -1.
         21    1    1    2  506  505 -0.91639194449E+00  0.35239614992E+02  0.84689399247E+02  0.91733116070E+02  0.00000000000E+00 0.  1.
<scales pt_clust_3="34.89869" pt_clust_4="34.89869" pt_clust_5="103.01276" pt_clust_6="35.25153"></scales>
<clustering>
<clus scale="   34.899">  3  4 -1 -1</clus>
<clus scale="   35.252">  1  6  2 -1</clus>
<clus scale="  103.013">  1  5  2 -1</clus>
<clus scale="   35.252">  1  3  2 -1</clus>
</clustering>
</event>
<event>
 6    0  0.1704145E+002  0.1295996E+03  0.7546771E-02  0.1228051E+00
         21   -1    0    0  505  501  0.00000000000E+00  0.00000000000E+00  0.26511846188E+03  0.26511846188E+03  0.00000000000E+00 0. -1.
         21   -1    0    0  504  502 -0.00000000000E+00 -0.00000000000E+00 -0.12203969208E+04  0.12203969208E+04  0.00000000000E+00 0. -1.
         21    1    1    2  503  502 -0.46682429305E+02  0.61407106094E+02 -0.75401546573E+03  0.75795079289E+03  0.00000000000E+00 0. -1.
         21    1    1    2  504  501 -0.31406414997E+02 -0.40796446059E+02 -0.19912768207E+03  0.20567582911E+03  0.00000000000E+00 0.  1.
         21    1    1    2  505  506  0.99908010084E+02 -0.67354106919E+02  0.24308101301E+03  0.27130529866E+03  0.00000000000E+00 0. -1.
         21    1    1    2  506  503 -0.21819165782E+02  0.46743446885E+02 -0.24521632413E+03  0.25058346203E+03  0.00000000000E+00 0. -1.
<scales pt_clust_3="39.11785" pt_clust_4="51.48507" pt_clust_5="120.44868" pt_clust_6="39.11785"></scales>
<clustering>
<clus scale="   39.118">  3  6 -1 -1</clus>
<clus scale="   51.485">  2  4  1 -1</clus>
<clus scale="  120.449">  1  5  2 -1</clus>
<clus scale="  120.449">  1  3  2 -1</clus>
</clustering>
</event>
<event>
 6    0  0.1704145E+002  0.3209498E+03  0.7546771E-02  0.1075213E+00
         21   -1    0    0  506  501  0.00000000000E+00  0.00000000000E+00  0.27148321671E+04  0.27148321671E+04  0.00000000000E+00 0.  1.
         21   -1    0    0  505  502 -0.00000000000E+00 -0.00000000000E+00 -0.88783648212E+02  0.88783648212E+02  0.00000000000E+00 0. -1.
         21    1    1    2  503  502 -0.23955575128E+03 -0.34221423248E+02  0.22988826759E+03  0.33377639125E+03  0.00000000000E+00 0. -1.
         21    1    1    2  504  503 -0.63988885621E+02 -0.34751486704E+02  0.36481511671E+02  0.81444115840E+02  0.00000000000E+00 0.  1.
         21    1    1    2  505  501  0.31520438560E+03  0.10146116308E+03  0.22174743949E+04  0.22420617441E+04  0.00000000000E+00 0.  1.
         21    1    1    2  506  504 -0.11659748701E+02 -0.32488253126E+02  0.14220434475E+03  0.14633356415E+03  0.00000000000E+00 0. -1.
<scales pt_clust_3="37.05030" pt_clust_4="37.05030" pt_clust_5="313.76766" pt_clust_6="34.51719"></scales>
<clustering>
<clus scale="   34.517">  1  6  2 -1</clus>
<clus scale="   37.050">  3  4 -1 -1</clus>
<clus scale="  313.768">  1  5  2 -1</clus>
<clus scale="   34.517">  1  3  2 -1</clus>
</clustering>
</event>
<event>
 6    0  0.1704145E+002  0.1867539E+03  0.7546771E-02  0.1161422E+00
         21   -1    0    0  505  501  0.00000000000E+00  0.00000000000E+00  0.15268527581E+03  0.15268527581E+03  0.00000000000E+00 0.  1.
         21   -1    0    0  504  502 -0.00000000000E+00 -0.00000000000E+00 -0.12282268321E+04  0.12282268321E+04  0.00000000000E+00 0.  1.
         21    1    1    2  503  502  0.74914310997E+02  0.39646902618E+02 -0.26787462124E+03  0.28096413220E+03  0.00000000000E+00 0. -1.
         21    1    1    2  504  501 -0.38535495990E+02 -0.17601648278E+03  0.81428096727E+02  0.19773042659E+03  0.00000000000E+00 0.  1.
         21    1    1    2  505  506 -0.28569416933E+02  0.33873236165E+02 -0.16435189258E+03  0.17022089269E+03  0.00000000000E+00 0.  1.
         21    1    1    2  506  503 -0.78093980739E+01  0.10249634400E+03 -0.72474313918E+03  0.73199665643E+03  0.00000000000E+00 0.  1.
<scales pt_clust_3="84.75866" pt_clust_4="176.89137" pt_clust_5="39.31999" pt_clust_6="39.31999"></scales>
<clustering>
<clus scale="   39.320">  5  6 -1 -1</clus>
<clus scale="   84.759">  2  3  1 -1</clus>
<clus scale="  176.891">  1  4  2 -1</clus>
<clus scale="  176.891">  1  3  2 -1</clus>
</clustering>
</event>
<event>
 6    0  0.1704145E+002  0.1865802E+03  0.7546771E-02  0.1161582E+00
         21   -1    0    0  506  501  0.00000000000E+00  0.00000000000E+00  0.59696919307E+03  0.59696919307E+03  0.00000000000E+00 0. -1.
         21   -1    0    0  503  502 -0.00000000000E+00 -0.00000000000E+00 -0.11101430249E+04  0.11101430249E+04  0.00000000000E+00 0.  1.
         21    1    1    2  503  505 -0.86381570416E+02 -0.24556742434E+02 -0.22903586182E+03  0.24601267306E+03  0.00000000000E+00 0.  1.
         21    1    1    2  504  502  0.16682716542E+03  0.43366953026E+02 -0.66881375074E+03  0.69066911681E+03  0.00000000000E+00 0.  1.
         21    1    1    2  505  501 -0.10658995053E+03 -0.34710799490E+02 -0.17613703632E+03  0.20878341102E+03  0.00000000000E+00 0.  1.
         21    1    1    2  506  504  0.26144355520E+02  0.15900588899E+02  0.56081281704E+03  0.56164701709E+03  0.00000000000E+00 0. -1.
<scales pt_clust_3="40.20869" pt_clust_4="181.35166" pt_clust_5="40.20869" pt_clust_6="30.59994"></scales>
<clustering>
<clus scale="   30.600">  1  6  2 -1</clus>
<clus scale="   40.209">  3  5 -1 -1</clus>
<clus scale="  181.352">  2  4  1 -1</clus>
<clus scale="   30.600">  1  3  2 -1</clus>
</clustering>
</event>
<event>
 6    0  0.1704145E+002  0.7245066E+02  0.7546771E-02  0.1351952E+00
         21   -1    0    0  505  501  0.00000000000E+00  0.00000000000E+00  0.19129685214E+03  0.19129685214E+03  0.00000000000E+00 0.  1.
         21   -1    0    0  506  502 -0.00000000000E+00 -0.00000000000E+00 -0.82723552469E+03  0.82723552469E+03  0.00000000000E+00 0. -1.
         21    1    1    2  503  504 -0.45476390248E+02 -0.34235037622E+01 -0.84682485800E+02  0.96181837419E+02  0.00000000000E+00 0. -1.
         21    1    1    2  504  502 -0.60550796033E+02 -0.91596512180E+01 -0.38544731733E+03  0.39028186295E+03  0.00000000000E+00 0. -1.
         21    1    1    2  505  503 -0.28560840110E+02  0.17540875172E+02  0.16842126456E+03  0.17172398273E+03  0.00000000000E+00 0.  1.
         21    1    1    2  506  501  0.13458802639E+03 -0.49577201919E+01 -0.33423013399E+03  0.36034469373E+03  0.00000000000E+00 0. -1.
<scales pt_clust_3="53.23014" pt_clust_4="14000.00000" pt_clust_5="33.51722" pt_clust_6="72.45066"></scales>
<clustering>
<clus scale="   33.517">  1  5  2 -1</clus>
<clus scale="   53.230">  1  3  2 -1</clus>
<clus scale="   72.451">  1  6  2 -1</clus>
<clus scale="   33.517">  1  3  2 -1</clus>
</clustering>
</event>
<event>
 6    0  0.1704145E+002  0.1100634E+03  0.7546771E-02  0.1260453E+00
         21   -1    0    0  503  501  0.00000000000E+00  0.00000000000E+00  0.12683377445E+03  0.12683377445E+03  0.00000000000E+00 0. -1.
         21   -1    0    0  505  502 -0.00000000000E+00 -0.00000000000E+00 -0.19063188459E+03  0.19063188459E+03  0.00000000000E+00 0. -1.
         21    1    1    2  503  504 -0.16792303280E+02 -0.34238288706E+02  0.41763155954E+02  0.56554425629E+02  0.00000000000E+00 0. -1.
         21    1    1    2  504  502 -0.15356209396E+02 -0.91176538648E+02 -0.81268451529E+02  0.12309969773E+03  0.00000000000E+00 0. -1.
         21    1    1    2  505  506  0.89752056694E+00  0.75227012991E+02 -0.41297779883E+01  0.75345630882E+02  0.00000000000E+00 0. -1.
         21    1    1    2  506  501  0.31250992109E+02  0.50187814362E+02 -0.20163036573E+02  0.62465904797E+02  0.00000000000E+00 0. -1.
<scales pt_clust_3="38.13452" pt_clust_4="102.34486" pt_clust_5="35.89428" pt_clust_6="35.89428"></scales>
<clustering>
<clus scale="   35.894">  5  6 -1 -1</clus>
<clus scale="   38.135">  1  3  2 -1</clus>
<clus scale="  102.345">  2  4  1 -1</clus>
<clus scale="   38.135">  1  3  2 -1</clus>
</clustering>
</event>
<event>
 6    0  0.1704145E+002  0.6719479E+02  0.7546771E-02  0.1369901E+00
         21   -1    0    0  505  501  0.00000000000E+00  0.00000000000E+00  0.15796799201E+03  0.15796799201E+03  0.00000000000E+00 0.  1.
         21   -1    0    0  504  502 -0.00000000000E+00 -0.00000000000E+00 -0.27673496313E+03  0.27673496313E+03  0.00000000000E+00 0. -1.
         21    1    1    2  503  501 -0.33274220731E+02  0.62514670208E+02  0.11592582015E+03  0.13584569752E+03  0.00000000000E+00 0.  1.
         21    1    1    2  504  503  0.81245508391E+02 -0.73227174607E+01 -0.10245165551E+03  0.13096104971E+03  0.00000000000E+00 0. -1.
         21    1    1    2  505  506 -0.36635459737E+01 -0.53456278427E+02 -0.44753131198E+02  0.69812878643E+02  0.00000000000E+00 0. -1.
         21    1    1    2  506  502 -0.44307741686E+02 -0.17356743197E+01 -0.87488004563E+02  0.98083329272E+02  0.00000000000E+00 0. -1.
<scales pt_clust_3="67.19479" pt_clust_4="53.79815" pt_clust_5="14000.00000" pt_clust_6="44.34172"></scales>
<clustering>
<clus scale="   44.342">  2  6  1 -1</clus>
<clus scale="   53.798">  2  4  1 -1</clus>
<clus scale="   67.195">  1  3  2 -1</clus>
<clus scale="   67.195">  1  3  2 -1</clus>
</clustering>
</event>
<event>
 6    0  0.1704145E+002  0.1063482E+03  0.7546771E-02  0.1267486E+00
         21   -1    0    0  506  501  0.00000000000E+00  0.00000000000E+00  0.33362387620E+02  0.33362387620E+02  0.00000000000E+00 0.  1.
         21   -1    0    0  503  502 -0.00000000000E+00 -0.00000000000E+00 -0.66914837149E+03  0.66914837149E+03  0.00000000000E+00 0.  1.
         21    1    1    2  503  501 -0.10355866749E+03  0.70569860390E+02 -0.32934918018E+03  0.35238527962E+03  0.00000000000E+00 0.  1.
         21    1    1    2  504  505  0.44055115194E+02 -0.19113024989E+02 -0.17162394682E+03  0.17821599261E+03  0.00000000000E+00 0.  1.
         21    1    1    2  505  502  0.14621489141E+02 -0.40360040616E+02 -0.11282176961E+03  0.12071235447E+03  0.00000000000E+00 0.  1.
         21    1    1    2  506  504  0.44882063159E+02 -0.11096794785E+02 -0.21991087250E+02  0.51197132403E+02  0.00000000000E+00 0.  1.
<scales pt_clust_3="99.20249" pt_clust_4="36.23465" pt_clust_5="36.23465" pt_clust_6="46.23352"></scales>
<clustering>
<clus scale="   36.235">  4  5 -1 -1</clus>
<clus scale="   46.234">  1  6  2 -1</clus>
<clus scale="   99.202">  1  3  2 -1</clus>
<clus scale="   46.234">  1  3  2 -1</clus>
</clustering>
</event>
<event>
 6    0  0.1704145E+002  0.1292758E+03  0.7546771E-02  0.1228534E+00
         21   -1    0    0  503  501  0.00000000000E+00  0.00000000000E+00  0.10640748651E+03  0.10640748651E+03  0.00000000000E+00 0.  1.
         21   -1    0    0  504  502 -0.00000000000E+00 -0.00000000000E+00 -0.15283576806E+04  0.15283576806E+04  0.00000000000E+00 0. -1.
         21    1    1    2  503  506 -0.90063949932E+02  0.93092798355E+02  0.56520742702E+02  0.14132366588E+03  0.00000000000E+00 0.  1.
         21    1    1    2  504  501  0.18671901572E+02  0.25995195730E+02 -0.13319352526E+03  0.13698505496E+03  0.00000000000E+00 0. -1.
         21    1    1    2  505  502 -0.25356186454E+02 -0.41477773977E+02 -0.31265047317E+03  0.31640742769E+03  0.00000000000E+00 0.  1.
         21    1    1    2  506  505  0.96748234814E+02 -0.77610220108E+02 -0.10326269383E+04  0.10400490186E+04  0.00000000000E+00 0. -1.
<scales pt_clust_3="14000.00000" pt_clust_4="32.00609" pt_clust_5="41.41221" pt_clust_6="129.27584"></scales>
<clustering>
<clus scale="   32.006">  2  4  1 -1</clus>
<clus scale="   41.412">  2  5  1 -1</clus>
<clus scale="  129.276">  2  6  1 -1</clus>
<clus scale="  129.276">  1  3  2 -1</clus>
</clustering>
</event>
<event>
 6    0  0.1704145E+002  0.1056947E+03  0.7546771E-02  0.1268757E+00
         21   -1    0    0  504  501  0.00000000000E+00  0.00000000000E+00  0.19531736735E+04  0.19531736735E+04  0.00000000000E+00 0.  1.
         21   -1    0    0  503  502 -0.00000000000E+00 -0.00000000000E+00 -0.14725929329E+03  0.14725929329E+03  0.00000000000E+00 0. -1.
         21    1    1    2  503  506 -0.64939972427E+02 -0.88601099406E+02  0.21430515753E+03  0.24081954941E+03  0.00000000000E+00 0.  1.
         21    1    1    2  504  505  0.57649938265E+02  0.53402453564E+02  0.14816831970E+02  0.79967968201E+02  0.00000000000E+00 0.  1.
         21    1    1    2  505  502 -0.14502982752E+02  0.71339954674E+02 -0.88061612389E+02  0.11425661127E+03  0.00000000000E+00 0. -1.
         21    1    1    2  506  501  0.21793016914E+02 -0.36141308831E+02  0.16648540031E+04  0.16653888379E+04  0.00000000000E+00 0.  1.
<scales pt_clust_3="105.69472" pt_clust_4="14000.00000" pt_clust_5="70.99435" pt_clust_6="42.20343"></scales>
<clustering>
<clus scale="   42.203">  1  6  2 -1</clus>
<clus scale="   70.994">  2  5  1 -1</clus>
<clus scale="  105.695">  1  3  2 -1</clus>
<clus scale="   42.203">  1  3  2 -1</clus>
</clustering>
</event>
<event>
 6    0  0.1704145E+002  0.6794095E+02  0.7546771E-02  0.1367238E+00
         21   -1    0    0  505  501  0.00000000000E+00  0.00000000000E+00  0.41291609376E+03  0.41291609376E+03  0.00000000000E+00 0. -1.
         21   -1    0    0  504  502 -0.00000000000E+00 -0.00000000000E+00 -0.15475526994E+03  0.15475526994E+03  0.00000000000E+00 0.  1.
         21    1    1    2  503  501  0.45908066345E+01  0.45442600388E+02  0.32875900324E+03  0.33191653717E+03  0.00000000000E+00 0. -1.
         21    1    1    2  504  503 -0.46591403026E+02  0.39153433905E+02 -0.24258930920E+02  0.65515234502E+02  0.00000000000E+00 0.  1.
         21    1    1    2  505  506 -0.29087842245E+02 -0.87931881521E+02 -0.27725633845E+02  0.96679000442E+02  0.00000000000E+00 0.  1.
         21    1    1    2  506  502  0.71088438636E+02  0.33358472278E+01 -0.18613614658E+02  0.73560591590E+02  0.00000000000E+00 0. -1.
<scales pt_clust_3="45.67390" pt_clust_4="67.94095" pt_clust_5="14000.00000" pt_clust_6="66.38724"></scales>
<clustering>
<clus scale="   45.674">  1  3  2 -1</clus>
<clus scale="   67.941">  2  4  1 -1</clus>
<clus scale="   66.387">  2  6  1 -1</clus>
<clus scale="   45.674">  1  3  2 -1</clus>
</clustering>
</event>
<event>
 6    0  0.1704145E+002  0.7394123E+02  0.7546771E-02  0.1347181E+00
         21   -1    0    0  505  501  0.00000000000E+00  0.00000000000E+00  0.53750679835E+03  0.53750679835E+03  0.00000000000E+00 0.  1.
         21   -1    0    0  506  502 -0.00000000000E+00 -0.00000000000E+00 -0.35560734655E+03  0.35560734655E+03  0.00000000000E+00 0.  1.
         21    1    1    2  503  502 -0.33439378794E+02 -0.95797706205E+01 -0.12451668724E+03  0.12928406499E+03  0.00000000000E+00 0.  1.
         21    1    1    2  504  503 -0.40189419474E+02  0.43581478490E+02 -0.14288328590E+03  0.15469378815E+03  0.00000000000E+00 0.  1.
         21    1    1    2  505  504 -0.28932243351E+02 -0.50522436868E+02  0.49300709751E+03  0.49643286507E+03  0.00000000000E+00 0.  1.
         21    1    1    2  506  501  0.10256104162E+03  0.16520728999E+02 -0.43707672574E+02  0.11270342669E+03  0.00000000000E+00 0.  1.
<scales pt_clust_3="34.78454" pt_clust_4="73.94123" pt_clust_5="58.40720" pt_clust_6="14000.00000"></scales>
<clustering>
<clus scale="   34.785">  2  3  1 -1</clus>
<clus scale="   58.407">  1  5  2 -1</clus>
<clus scale="   73.941">  2  4  1 -1</clus>
<clus scale="   58.407">  1  3  2 -1</clus>
</clustering>
</event>
<event>
 6    0  0.1704145E+002  0.8223038E+02  0.7546771E-02  0.1322838E+00
         21   -1    0    0  503  501  0.00000000000E+00  0.00000000000E+00  0.63821234838E+02  0.63821234838E+02  0.00000000000E+00 0. -1.
         21   -1    0    0  506  502 -0.00000000000E+00 -0.00000000000E+00 -0.39235920480E+03  0.39235920480E+03  0.00000000000E+00 0. -1.
         21    1    1    2  503  505  0.44020747274E+02 -0.10474025986E+02  0.41763877745E+01  0.45441980874E+02  0.00000000000E+00 0. -1.
         21    1    1    2  504  501 -0.12000713530E+03  0.37538231614E+02 -0.11885054531E+03  0.17302104923E+03  0.00000000000E+00 0. -1.
         21    1    1    2  505  502  0.38534555439E+02 -0.47092636137E+02 -0.11469317862E+03  0.12983510143E+03  0.00000000000E+00 0. -1.
         21    1    1    2  506  504  0.37451832587E+02  0.20028430509E+02 -0.99170633811E+02  0.10788230811E+03  0.00000000000E+00 0. -1.
<scales pt_clust_3="47.56374" pt_clust_4="14000.00000" pt_clust_5="82.23038" pt_clust_6="42.47091"></scales>
<clustering>
<clus scale="   42.471">  2  6  1 -1</clus>
<clus scale="   47.564">  1  3  2 -1</clus>
<clus scale="   82.230">  2  5  1 -1</clus>
<clus scale="   47.564">  1  3  2 -1</clus>
</clustering>
</event>
<event>
 6    0  0.1704145E+002  0.1325240E+03  0.7546771E-02  0.1223758E+00
         21   -1    0    0  504  501  0.00000000000E+00  0.00000000000E+00  0.13125697923E+04  0.13125697923E+04  0.00000000000E+00 0. -1.
         21   -1    0    0  505  502 -0.00000000000E+00 -0.00000000000E+00 -0.40445191378E+03  0.40445191378E+03  0.00000000000E+00 0.  1.
         21    1    1    2  503  502  0.90900693461E+02 -0.64542627550E+01  0.85669098953E+02  0.12507512980E+03  0.00000000000E+00 0.  1.
         21    1    1    2  504  503  0.16931500294E+02 -0.56699453695E+02  0.11943289589E+04  0.11957939479E+04  0.00000000000E+00 0. -1.
         21    1    1    2  505  506 -0.81217576874E+02  0.21038082144E+02 -0.19262692957E+03  0.21010480644E+03  0.00000000000E+00 0.  1.
         21    1    1    2  506  501 -0.26614616881E+02  0.42115634306E+02 -0.17925324978E+03  0.18604782192E+03  0.00000000000E+00 0.  1.
<scales pt_clust_3="120.56845" pt_clust_4="59.17351" pt_clust_5="42.38886" pt_clust_6="42.38886"></scales>
<clustering>
<clus scale="   42.389">  5  6 -1 -1</clus>
<clus scale="   59.174">  1  4  2 -1</clus>
<clus scale="  120.568">  1  3  2 -1</clus>
<clus scale="   59.174">  1  3  2 -1</clus>
</clustering>
</event>
<event>
 6    0  0.1704145E+002  0.3269057E+03  0.7546771E-02  0.1072514E+00
         21   -1    0    0  502  501  0.00000000000E+00  0.00000000000E+00  0.86746920385E+03  0.86746920385E+03  0.00000000000E+00 0. -1.
         21   -1    0    0  505  502 -0.00000000000E+00 -0.00000000000E+00 -0.14226727850E+03  0.14226727850E+03  0.00000000000E+00 0. -1.
         21    1    1    2  503  501  0.11922566893E+03  0.27667495728E+03  0.57676556379E+03  0.65070908069E+03  0.00000000000E+00 0. -1.
         21    1    1    2  504  503 -0.69337725031E+02 -0.14872140116E+03  0.15746206149E+02  0.16484452761E+03  0.00000000000E+00 0. -1.
         21    1    1    2  505  506 -0.35320131790E+02 -0.49719871209E+02  0.70262053857E+02  0.93039419145E+02  0.00000000000E+00 0. -1.
         21    1    1    2  506  504 -0.14567812110E+02 -0.78233684909E+02  0.62428101559E+02  0.10114345490E+03  0.00000000000E+00 0.  1.
<scales pt_clust_3="301.27030" pt_clust_4="103.94406" pt_clust_5="30.81981" pt_clust_6="103.94406"></scales>
<clustering>
<clus scale="   30.820">  5  6 -1 -1</clus>
<clus scale="  103.944">  4  5 -1 -1</clus>
<clus scale="  301.270">  1  3  2 -1</clus>
<clus scale="  301.270">  1  3  2 -1</clus>
</clustering>
</event>
<event>
 6    0  0.1704145E+002  0.1102445E+03  0.7546771E-02  0.1260118E+00
         21   -1    0    0  504  501  0.00000000000E+00  0.00000000000E+00  0.88390071561E+02  0.88390071561E+02  0.00000000000E+00 0.  1.
         21   -1    0    0  503  502 -0.00000000000E+00 -0.00000000000E+00 -0.26256369710E+03  0.26256369710E+03  0.00000000000E+00 0.  1.
         21    1    1    2  503  505  0.31331371010E+01  0.64828898602E+02 -0.65790946438E+02  0.92417808215E+02  0.00000000000E+00 0. -1.
         21    1    1    2  504  506  0.38432374763E+02 -0.55089471645E+02 -0.19438235429E+02  0.69926692419E+02  0.00000000000E+00 0.  1.
         21    1    1    2  505  501 -0.74532737193E+02  0.52009153050E+02 -0.26148633729E+02  0.94571834921E+02  0.00000000000E+00 0.  1.
         21    1    1    2  506  502  0.32967225328E+02 -0.61748580008E+02 -0.62795809943E+02  0.94037433106E+02  0.00000000000E+00 0.  1.
<scales pt_clust_3="64.90457" pt_clust_4="36.29482" pt_clust_5="103.83198" pt_clust_6="36.29482"></scales>
<clustering>
<clus scale="   36.295">  4  6 -1 -1</clus>
<clus scale="   64.905">  2  3  1 -1</clus>
<clus scale="  103.832">  1  5  2 -1</clus>
<clus scale="  103.832">  1  3  2 -1</clus>
</clustering>
</event>
<event>
 6    0  0.1704145E+002  0.1383601E+03  0.7546771E-02  0.1215553E+00
         21   -1    0    0  504  501  0.00000000000E+00  0.00000000000E+00  0.77443646735E+03  0.77443646735E+03  0.00000000000E+00 0.  1.
         21   -1    0    0  506  502 -0.00000000000E+00 -0.00000000000E+00 -0.14830183613E+03  0.14830183613E+03  0.00000000000E+00 0.  1.
         21    1    1    2  503  505  0.35590367684E+02 -0.23976429777E+02 -0.22580842430E+02  0.48491627129E+02  0.00000000000E+00 0.  1.
         21    1    1    2  504  502 -0.12854538488E+03  0.50723733932E+02  0.71498694326E+03  0.72821915807E+03  0.00000000000E+00 0.  1.
         21    1    1    2  505  501  0.44787358029E+02 -0.24372745941E+02  0.13558368222E+02  0.52761420876E+02  0.00000000000E+00 0.  1.
         21    1    1    2  506  503  0.48167659169E+02 -0.23745582140E+01 -0.79829837830E+02  0.93266097401E+02  0.00000000000E+00 0.  1.
<scales pt_clust_3="33.98751" pt_clust_4="133.30783" pt_clust_5="33.98751" pt_clust_6="48.22615"></scales>
<clustering>
<clus scale="   33.988">  3  5 -1 -1</clus>
<clus scale="   48.226">  2  6  1 -1</clus>
<clus scale="  133.308">  1  4  2 -1</clus>
<clus scale="  133.308">  1  3  2 -1</clus>
</clustering>
</event>
<event>
 6    0  0.1704145E+002  0.1184579E+03  0.7546771E-02  0.1245663E+00
         21   -1    0    0  503  501  0.00000000000E+00  0.00000000000E+00  0.24415952225E+03  0.24415952225E+03  0.00000000000E+00 0.  1.
         21   -1    0    0  504  502 -0.00000000000E+00 -0.00000000000E+00 -0.22877957341E+03  0.22877957341E+03  0.00000000000E+00 0. -1.
         21    1    1    2  503  502  0.12499086176E+03 -0.69813244311E+01  0.18992820911E+03  0.22747346885E+03  0.00000000000E+00 0.  1.
         21    1    1    2  504  505 -0.42060149515E+02  0.32054358811E+02 -0.61479660316E+02  0.81094307621E+02  0.00000000000E+00 0.  1.
         21    1    1    2  505  506 -0.62567136641E+02  0.35904415744E+00 -0.11585666022E+03  0.13167209734E+03  0.00000000000E+00 0. -1.
         21    1    1    2  506  501 -0.20363575602E+02 -0.25432078537E+02  0.27880602649E+01  0.32699221857E+02  0.00000000000E+00 0. -1.
<scales pt_clust_3="110.49163" pt_clust_4="39.06011" pt_clust_5="39.06011" pt_clust_6="32.58014"></scales>
<clustering>
<clus scale="   32.580">  1  6  2 -1</clus>
<clus scale="   39.060">  4  5 -1 -1</clus>
<clus scale="  110.492">  1  3  2 -1</clus>
<clus scale="   32.580">  1  3  2 -1</clus>
</clustering>
</event>
<event>
 6    0  0.1704145E+002  0.1903237E+03  0.7546771E-02  0.1158170E+00
         21   -1    0    0  504  501  0.00000000000E+00  0.00000000000E+00  0.53553545468E+03  0.53553545468E+03  0.00000000000E+00 0. -1.
         21   -1    0    0  505  502 -0.00000000000E+00 -0.00000000000E+00 -0.75882141950E+03  0.75882141950E+03  0.00000000000E+00 0. -1.
         21    1    1    2  503  502 -0.11224578520E+03 -0.86507299351E+01 -0.56068130524E+03  0.57187190652E+03  0.00000000000E+00 0. -1.
         21    1    1    2  504  506  0.12234812318E+03 -0.93378235382E+01  0.47666242484E+03  0.49220252483E+03  0.00000000000E+00 0. -1.
         21    1    1    2  505  501  0.57168491329E+02  0.20278469813E+02  0.14553162079E+02  0.62379862658E+02  0.00000000000E+00 0. -1.
         21    1    1    2  506  503 -0.67270829311E+02 -0.22899163402E+01 -0.15382024651E+03  0.16790258017E+03  0.00000000000E+00 0. -1.
<scales pt_clust_3="51.33665" pt_clust_4="178.36820" pt_clust_5="60.65849" pt_clust_6="51.33665"></scales>
<clustering>
<clus scale="   51.337">  3  6 -1 -1</clus>
<clus scale="   60.658">  1  5  2 -1</clus>
<clus scale="  178.368">  1  4  2 -1</clus>
<clus scale="   60.658">  1  3  2 -1</clus>
</clustering>
</event>
<event>
 6    0  0.1704145E+002  0.2119515E+03  0.7546771E-02  0.1140030E+00
         21   -1    0    0  503  501  0.00000000000E+00  0.00000000000E+00  0.13392295077E+04  0.13392295077E+04  0.00000000000E+00 0.  1.
         21   -1    0    0  505  502 -0.00000000000E+00 -0.00000000000E+00 -0.15137030267E+03  0.15137030267E+03  0.00000000000E+00 0. -1.
         21    1    1    2  503  504 -0.11829424984E+03  0.61283212440E+01  0.45309566387E+02  0.12682287914E+03  0.00000000000E+00 0. -1.
         21    1    1    2  504  506 -0.82460299865E+02  0.95040116129E+02  0.52125491807E+02  0.13619615128E+03  0.00000000000E+00 0. -1.
         21    1    1    2  505  501  0.14431673700E+03 -0.11784299632E+03  0.11372273535E+04  0.11523889734E+04  0.00000000000E+00 0.  1.
         21    1    1    2  506  502  0.56437812705E+02  0.16674558950E+02 -0.46803206697E+02  0.75191806577E+02  0.00000000000E+00 0. -1.
<scales pt_clust_3="85.59839" pt_clust_4="85.59839" pt_clust_5="189.14401" pt_clust_6="58.84953"></scales>
<clustering>
<clus scale="   58.850">  2  6  1 -1</clus>
<clus scale="   85.598">  3  4 -1 -1</clus>
<clus scale="  189.144">  1  5  2 -1</clus>
<clus scale="  189.144">  1  3  2 -1</clus>
</clustering>
</event>
<event>
 6    0  0.1704145E+002  0.7930009E+02  0.7546771E-02  0.1331049E+00
         21   -1    0    0  503  501  0.00000000000E+00  0.00000000000E+00  0.12893698936E+04  0.12893698936E+04  0.00000000000E+00 0. -1.
         21   -1    0    0  504  502 -0.00000000000E+00 -0.00000000000E+00 -0.18347904081E+03  0.18347904081E+03  0.00000000000E+00 0.  1.
         21    1    1    2  503  505 -0.63633867069E+01  0.42318111684E+02  0.13168080912E+02  0.44774028430E+02  0.00000000000E+00 0.  1.
         21    1    1    2  504  506 -0.95297972481E+02 -0.74078913620E+01 -0.76484077313E+02  0.12241893030E+03  0.00000000000E+00 0.  1.
         21    1    1    2  505  502  0.37585386445E+02  0.11950424615E+02 -0.61136689028E+02  0.72754165984E+02  0.00000000000E+00 0.  1.
         21    1    1    2  506  501  0.64075972743E+02 -0.46860644937E+02  0.12303435382E+04  0.12329018097E+04  0.00000000000E+00 0. -1.
<scales pt_clust_3="43.95694" pt_clust_4="14000.00000" pt_clust_5="39.43950" pt_clust_6="79.30009"></scales>
<clustering>
<clus scale="   39.439">  2  5  1 -1</clus>
<clus scale="   43.957">  2  3  1 -1</clus>
<clus scale="   79.300">  1  6  2 -1</clus>
<clus scale="   79.300">  1  3  2 -1</clus>
</clustering>
</event>
<event>
 6    0  0.1704145E+002  0.3727500E+03  0.7546771E-02  0.1053646E+00
         21   -1    0    0  503  501  0.00000000000E+00  0.00000000000E+00  0.18365399043E+04  0.18365399043E+04  0.00000000000E+00 0. -1.
         21   -1    0    0  504  502 -0.00000000000E+00 -0.00000000000E+00 -0.18685522893E+03  0.18685522893E+03  0.00000000000E+00 0. -1.
         21    1    1    2  503  502 -0.42811974907E+02  0.23527138046E+02  0.25932334755E+03  0.26388442547E+03  0.00000000000E+00 0. -1.
         21    1    1    2  504  506  0.10715354177E+03  0.31525899408E+03  0.29989645278E+02  0.33431944856E+03  0.00000000000E+00 0. -1.
         21    1    1    2  505  501 -0.91576766640E+02 -0.35598131902E+03  0.13335385395E+04  0.13832693303E+04  0.00000000000E+00 0. -1.
         21    1    1    2  506  505  0.27235199780E+02  0.17195186893E+02  0.26833142975E+02  0.41921928883E+02  0.00000000000E+00 0. -1.
<scales pt_clust_3="48.85071" pt_clust_4="30.69900" pt_clust_5="359.44393" pt_clust_6="30.69900"></scales>
<clustering>
<clus scale="   30.699">  4  6 -1 -1</clus>
<clus scale="   48.851">  1  3  2 -1</clus>
<clus scale="  359.444">  1  5  2 -1</clus>
<clus scale="   48.851">  1  3  2 -1</clus>
</clustering>
</event>
<event>
 6    0  0.1704145E+002  0.9282582E+02  0.7546771E-02  0.1296149E+00
         21   -1    0    0  505  501  0.00000000000E+00  0.00000000000E+00  0.17132070094E+03  0.17132070094E+03  0.00000000000E+00 0. -1.
         21   -1    0    0  506  502 -0.00000000000E+00 -0.00000000000E+00 -0.23723448462E+04  0.23723448462E+04  0.00000000000E+00 0. -1.
         21    1    1    2  503  501 -0.22345693816E+02 -0.66831024046E+02  0.15055546567E+03  0.16623075543E+03  0.00000000000E+00 0. -1.
         21    1    1    2  504  502  0.37864243683E+02  0.81962943416E+02 -0.20176019030E+04  0.20196210199E+04  0.00000000000E+00 0. -1.
         21    1    1    2  505  504  0.31729191037E+02 -0.26488122404E+02 -0.32866868181E+02  0.52807132249E+02  0.00000000000E+00 0. -1.
         21    1    1    2  506  503 -0.47247740904E+02  0.11356203034E+02 -0.30111083977E+03  0.30500663959E+03  0.00000000000E+00 0.  1.
<scales pt_clust_3="14000.00000" pt_clust_4="92.82582" pt_clust_5="41.33234" pt_clust_6="48.14667"></scales>
<clustering>
<clus scale="   41.332">  1  5  2 -1</clus>
<clus scale="   48.147">  2  6  1 -1</clus>
<clus scale="   92.826">  2  4  1 -1</clus>
<clus scale="   41.332">  1  3  2 -1</clus>
</clustering>
</event>
<event>
 6    0  0.1704145E+002  0.2119205E+03  0.7546771E-02  0.1140054E+00
         21   -1    0    0  506  501  0.00000000000E+00  0.00000000000E+00  0.87784980402E+03  0.87784980402E+03  0.00000000000E+00 0.  1.
         21   -1    0    0  501  502 -0.00000000000E+00 -0.00000000000E+00 -0.50200187533E+02  0.50200187533E+02  0.00000000000E+00 0.  1.
         21    1    1    2  503  502  0.14624998984E+03 -0.17103277320E+02  0.20366260371E+03  0.25131660863E+03  0.00000000000E+00 0.  1.
         21    1    1    2  504  505 -0.14294034035E+03 -0.17745141598E+02  0.39738252187E+03  0.42268155820E+03  0.00000000000E+00 0.  1.
         21    1    1    2  505  503  0.49137962065E+02  0.40427895034E+01  0.13830115143E+03  0.14682674126E+03  0.00000000000E+00 0.  1.
         21    1    1    2  506  504 -0.52447611554E+02  0.30805629414E+02  0.88303339475E+02  0.10722508346E+03  0.00000000000E+00 0.  1.
<scales pt_clust_3="203.90909" pt_clust_4="52.64593" pt_clust_5="32.89626" pt_clust_6="52.64593"></scales>
<clustering>
<clus scale="   32.896">  3  5 -1 -1</clus>
<clus scale="   52.646">  4  6 -1 -1</clus>
<clus scale="  203.909">  2  3  1 -1</clus>
<clus scale="  211.920">  1  3  2 -1</clus>
</clustering>
</event>
<event>
 6    0  0.1704145E+002  0.7264596E+02  0.7546771E-02  0.1351320E+00
         21   -1    0    0  506  501  0.00000000000E+00  0.00000000000E+00  0.93371720808E+03  0.93371720808E+03  0.00000000000E+00 0.  1.
         21   -1    0    0  505  502 -0.00000000000E+00 -0.00000000000E+00 -0.36103398109E+03  0.36103398109E+03  0.00000000000E+00 0.  1.
         21    1    1    2  503  502  0.45160457697E+02 -0.16341698257E+02  0.13704615681E+02  0.49943313189E+02  0.00000000000E+00 0.  1.
         21    1    1    2  504  501 -0.22261227148E+02 -0.98793667341E+02 -0.19175784032E+03  0.21685668139E+03  0.00000000000E+00 0.  1.
         21    1    1    2  505  504 -0.68043950550E+02  0.58394639808E+02 -0.12244449556E+03  0.15176484329E+03  0.00000000000E+00 0.  1.
         21    1    1    2  506  503  0.45144720001E+02  0.56740725791E+02  0.87318094718E+03  0.87618635131E+03  0.00000000000E+00 0.  1.
<scales pt_clust_3="48.02622" pt_clust_4="14000.00000" pt_clust_5="72.03008" pt_clust_6="72.64596"></scales>
<clustering>
<clus scale="   48.026">  2  3  1 -1</clus>
<clus scale="   72.030">  2  5  1 -1</clus>
<clus scale="   72.646">  1  6  2 -1</clus>
<clus scale="   72.646">  1  3  2 -1</clus>
</clustering>
</event>
<event>
 6    0  0.1704145E+002  0.7741376E+02  0.7546771E-02  0.1336555E+00
         21   -1    0    0  506  501  0.00000000000E+00  0.00000000000E+00  0.87057557409E+03  0.87057557409E+03  0.00000000000E+00 0. -1.
         21   -1    0    0  501  502 -0.00000000000E+00 -0.00000000000E+00 -0.11298446561E+04  0.11298446561E+04  0.00000000000E+00 0.  1.
         21    1    1    2  503  502 -0.69975286527E+02 -0.15013051536E+02 -0.51281718711E+03  0.51778702169E+03  0.00000000000E+00 0. -1.
         21    1    1    2  504  505 -0.34255922506E+02 -0.41824845433E+02 -0.95636539761E+02  0.10985960886E+03  0.00000000000E+00 0.  1.
         21    1    1    2  505  503  0.69383104481E+02  0.67913992529E+02 -0.50679608630E+03  0.51601220786E+03  0.00000000000E+00 0.  1.
         21    1    1    2  506  504  0.34848104552E+02 -0.11076095560E+02  0.85598073117E+03  0.85676139177E+03  0.00000000000E+00 0. -1.
<scales pt_clust_3="77.41376" pt_clust_4="50.26405" pt_clust_5="14000.00000" pt_clust_6="36.56597"></scales>
<clustering>
<clus scale="   36.566">  1  6  2 -1</clus>
<clus scale="   50.264">  1  4  2 -1</clus>
<clus scale="   77.414">  2  3  1 -1</clus>
<clus scale="   36.566">  1  3  2 -1</clus>
</clustering>
</event>
<event>
 6    0  0.1704145E+002  0.1073925E+03  0.7546771E-02  0.1265476E+00
         21   -1    0    0  504  501  0.00000000000E+00  0.00000000000E+00  0.15266918994E+04  0.15266918994E+04  0.00000000000E+00 0.  1.
         21   -1    0    0  505  502 -0.00000000000E+00 -0.00000000000E+00 -0.69524532468E+02  0.69524532468E+02  0.00000000000E+00 0. -1.
         21    1    1    2  503  501 -0.81630330181E+01 -0.75038031972E+02  0.61406913230E+02  0.97304420982E+02  0.00000000000E+00 0.  1.
         21    1    1    2  504  506  0.40050078928E+02  0.21303945321E+02  0.63472457295E+03  0.63634357890E+03  0.00000000000E+00 0.  1.
         21    1    1    2  505  503 -0.39064375595E+02 -0.38480128358E+02 -0.32445894545E+02  0.63714062748E+02  0.00000000000E+00 0. -1.
         21    1    1    2  506  502  0.71773296851E+01  0.92214215008E+02  0.79348177531E+03  0.79885436924E+03  0.00000000000E+00 0.  1.
<scales pt_clust_3="107.39251" pt_clust_4="45.36372" pt_clust_5="54.07144" pt_clust_6="14000.00000"></scales>
<clustering>
<clus scale="   45.364">  1  4  2 -1</clus>
<clus scale="   54.071">  2  5  1 -1</clus>
<clus scale="  107.393">  2  3  1 -1</clus>
<clus scale="   45.364">  1  3  2 -1</clus>
</clustering>
</event>
<event>
 6    0  0.1704145E+002  0.1116012E+03  0.7546771E-02  0.1257633E+00
         21   -1    0    0  503  501  0.00000000000E+00  0.00000000000E+00  0.29585826363E+03  0.29585826363E+03  0.00000000000E+00 0.  1.
         21   -1    0    0  504  502 -0.00000000000E+00 -0.00000000000E+00 -0.15643087017E+03  0.15643087017E+03  0.00000000000E+00 0.  1.
         21    1    1    2  503  505  0.71330365574E+02 -0.88226351950E+02  0.22850532704E+03  0.25512074537E+03  0.00000000000E+00 0.  1.
         21    1    1    2  504  501  0.30410222379E+02  0.86361100445E+01 -0.38081603880E+01  0.31841264224E+02  0.00000000000E+00 0. -1.
         21    1    1    2  505  506 -0.60960011513E+02  0.76517791485E+02 -0.74691579308E+02  0.12308504148E+03  0.00000000000E+00 0.  1.
         21    1    1    2  506  502 -0.40780576440E+02  0.30724504208E+01 -0.10578193895E+02  0.42242082720E+02  0.00000000000E+00 0.  1.
<scales pt_clust_3="111.60117" pt_clust_4="31.61272" pt_clust_5="14000.00000" pt_clust_6="35.30287"></scales>
<clustering>
<clus scale="   31.613">  2  4  1 -1</clus>
<clus scale="   35.303">  2  6  1 -1</clus>
<clus scale="  111.601">  1  3  2 -1</clus>
<clus scale="  111.601">  1  3  2 -1</clus>
</clustering>
</event>
<event>
 6    0  0.1704145E+002  0.1906995E+03  0.7546771E-02  0.1157832E+00
         21   -1    0    0  505  501  0.00000000000E+00  0.00000000000E+00  0.22626773779E+03  0.22626773779E+03  0.00000000000E+00 0. -1.
         21   -1    0    0  506  502 -0.00000000000E+00 -0.00000000000E+00 -0.56110023719E+03  0.56110023719E+03  0.00000000000E+00 0. -1.
         21    1    1    2  503  502  0.35453178293E+02 -0.40133642709E+02 -0.82146225379E+02  0.98059367080E+02  0.00000000000E+00 0. -1.
         21    1    1    2  504  503  0.26697516942E+02 -0.90190430839E+02 -0.80579402995E+02  0.12385520341E+03  0.00000000000E+00 0. -1.
         21    1    1    2  505  504 -0.88215538112E+02  0.17525690849E+03  0.14509412770E+03  0.24402719322E+03  0.00000000000E+00 0. -1.
         21    1    1    2  506  501  0.26064842877E+02 -0.44932834943E+02 -0.31720099873E+03  0.32142621126E+03  0.00000000000E+00 0. -1.
<scales pt_clust_3="33.05681" pt_clust_4="33.05681" pt_clust_5="185.59880" pt_clust_6="51.94551"></scales>
<clustering>
<clus scale="   33.057">  3  4 -1 -1</clus>
<clus scale="   51.946">  2  6  1 -1</clus>
<clus scale="  185.599">  1  5  2 -1</clus>
<clus scale="  185.599">  1  3  2 -1</clus>
</clustering>
</event>
<event>
 6    0  0.1704145E+002  0.2609727E+03  0.7546771E-02  0.1106560E+00
         21   -1    0    0  505  501  0.00000000000E+00  0.00000000000E+00  0.94545083779E+02  0.94545083779E+02  0.00000000000E+00 0. -1.
         21   -1    0    0  503  502 -0.00000000000E+00 -0.00000000000E+00 -0.41326880201E+04  0.41326880201E+04  0.00000000000E+00 0. -1.
         21    1    1    2  503  504  0.24880483671E+03 -0.53029361478E+02 -0.11844867191E+04  0.12114969037E+04  0.00000000000E+00 0. -1.
         21    1    1    2  504  501  0.12532390144E+01  0.30686047809E+02  0.61089611309E+02  0.68375030151E+02  0.00000000000E+00 0. -1.
         21    1    1    2  505  506 -0.23606768497E+03  0.15333490435E+03 -0.14764525428E+04  0.15030474563E+04  0.00000000000E+00 0. -1.
         21    1    1    2  506  502 -0.13990390763E+02 -0.13099159068E+03 -0.14382932857E+04  0.14443137137E+04  0.00000000000E+00 0. -1.
<scales pt_clust_3="14000.00000" pt_clust_4="30.71163" pt_clust_5="260.97267" pt_clust_6="128.64244"></scales>
<clustering>
<clus scale="   30.712">  1  4  2 -1</clus>
<clus scale="  128.642">  2  6  1 -1</clus>
<clus scale="  260.973">  2  5  1 -1</clus>
<clus scale="   30.712">  1  3  2 -1</clus>
</clustering>
</event>
<event>
 6    0  0.1704145E+002  0.1278651E+03  0.7546771E-02  0.1230658E+00
         21   -1    0    0  504  501  0.00000000000E+00  0.00000000000E+00  0.34619477068E+02  0.34619477068E+02  0.00000000000E+00 0.  1.
         21   -1    0    0  505  502 -0.00000000000E+00 -0.00000000000E+00 -0.60244481229E+03  0.60244481229E+03  0.00000000000E+00 0. -1.
         21    1    1    2  503  502 -0.78805897798E+02  0.88796209304E+02 -0.28277122259E+03  0.30668338827E+03  0.00000000000E+00 0. -1.
         21    1    1    2  504  503 -0.21408919017E+02 -0.29841694155E+02 -0.42400754133E+02  0.56095387284E+02  0.00000000000E+00 0. -1.
         21    1    1    2  505  506  0.34761977018E+02  0.44797910047E+01 -0.88691742828E+02  0.95366077928E+02  0.00000000000E+00 0. -1.
         21    1    1    2  506  501  0.65452839797E+02 -0.63434306154E+02 -0.15396161567E+03  0.17891943587E+03  0.00000000000E+00 0.  1.
<scales pt_clust_3="116.25941" pt_clust_4="36.72695" pt_clust_5="33.00721" pt_clust_6="33.00721"></scales>
<clustering>
<clus scale="   33.007">  5  6 -1 -1</clus>
<clus scale="   36.727">  1  4  2 -1</clus>
<clus scale="  116.259">  2  3  1 -1</clus>
<clus scale="   36.727">  1  3  2 -1</clus>
</clustering>
</event>
<event>
 6    0  0.1704145E+002  0.1106327E+03  0.7546771E-02  0.1259403E+00
         21   -1    0    0  503  501  0.00000000000E+00  0.00000000000E+00  0.23861164751E+03  0.23861164751E+03  0.00000000000E+00 0. -1.
         21   -1    0    0  506  502 -0.00000000000E+00 -0.00000000000E+00 -0.68688474841E+03  0.68688474841E+03  0.00000000000E+00 0.  1.
         21    1    1    2  503  505  0.21652942717E+02  0.68586630700E+02 -0.74740991604E+02  0.10372652344E+03  0.00000000000E+00 0. -1.
         21    1    1    2  504  501 -0.78278353557E+02  0.77429104091E+02  0.19080027107E+03  0.22028960538E+03  0.00000000000E+00 0. -1.
         21    1    1    2  505  502  0.33737212220E+02  0.13597974584E+02 -0.45986586189E+02  0.58633356637E+02  0.00000000000E+00 0. -1.
         21    1    1    2  506  504  0.22888198619E+02 -0.15961370938E+03 -0.51834579418E+03  0.54284691047E+03  0.00000000000E+00 0.  1.
<scales pt_clust_3="108.56142" pt_clust_4="110.63269" pt_clust_5="31.50984" pt_clust_6="14000.00000"></scales>
<clustering>
<clus scale="   31.510">  3  5 -1 -1</clus>
<clus scale="  108.561">  2  3  1 -1</clus>
<clus scale="  110.633">  1  4  2 -1</clus>
<clus scale="  110.633">  1  3  2 -1</clus>
</clustering>
</event>
<event>
 6    0  0.1704145E+002  0.1729118E+03  0.7546771E-02  0.1174845E+00
         21   -1    0    0  505  501  0.00000000000E+00  0.00000000000E+00  0.73271711075E+03  0.73271711075E+03  0.00000000000E+00 0. -1.
         21   -1    0    0  503  502 -0.00000000000E+00 -0.00000000000E+00 -0.19050215792E+03  0.19050215792E+03  0.00000000000E+00 0.  1.
         21    1    1    2  503  504 -0.50852357880E+02  0.37321840500E+02 -0.91906280051E+02  0.11147038348E+03  0.00000000000E+00 0.  1.
         21    1    1    2  504  506  0.15780414061E+02  0.61179226763E+02 -0.21734558296E+02  0.66815494308E+02  0.00000000000E+00 0.  1.
         21    1    1    2  505  502  0.43897985047E+02 -0.16941382466E+03  0.65009729946E+03  0.67324184053E+03  0.00000000000E+00 0. -1.
         21    1    1    2  506  501 -0.88260412285E+01  0.70912757398E+02  0.57584917152E+01  0.71691550355E+02  0.00000000000E+00 0.  1.
<scales pt_clust_3="63.07838" pt_clust_4="35.58631" pt_clust_5="168.71926" pt_clust_6="35.58631"></scales>
<clustering>
<clus scale="   35.586">  4  6 -1 -1</clus>
<clus scale="   63.078">  2  3  1 -1</clus>
<clus scale="  168.719">  1  5  2 -1</clus>
<clus scale="  168.719">  1  3  2 -1</clus>
</clustering>
</event>
<event>
 6    0  0.1704145E+002  0.1292796E+03  0.7546771E-02  0.1228529E+00
         21   -1    0    0  506  501  0.00000000000E+00  0.00000000000E+00  0.69095617480E+03  0.69095617480E+03  0.00000000000E+00 0.  1.
         21   -1    0    0  504  502 -0.00000000000E+00 -0.00000000000E+00 -0.25373926657E+03  0.25373926657E+03  0.00000000000E+00 0. -1.
         21    1    1    2  503  501 -0.48764849716E+02  0.20017666517E+02  0.57565673834E+03  0.57806521945E+03  0.00000000000E+00 0.  1.
         21    1    1    2  504  505  0.24460832302E+02 -0.17839050427E+02 -0.29237720125E+01  0.30415661752E+02  0.00000000000E+00 0. -1.
         21    1    1    2  505  503 -0.42438686391E+02 -0.11580161081E+03 -0.16017055252E+03  0.20215256878E+03  0.00000000000E+00 0. -1.
         21    1    1    2  506  502  0.66742703805E+02  0.11362299472E+03  0.24654494424E+02  0.13406199139E+03  0.00000000000E+00 0. -1.
<scales pt_clust_3="52.56420" pt_clust_4="30.27481" pt_clust_5="14000.00000" pt_clust_6="129.27959"></scales>
<clustering>
<clus scale="   30.275">  2  4  1 -1</clus>
<clus scale="   52.564">  1  3  2 -1</clus>
<clus scale="  129.280">  1  6  2 -1</clus>
<clus scale="   52.564">  1  3  2 -1</clus>
</clustering>
</event>
<event>
 6    0  0.1704145E+002  0.1480210E+03  0.7546771E-02  0.1202926E+00
         21   -1    0    0  505  501  0.00000000000E+00  0.00000000000E+00  0.34777692165E+03  0.34777692165E+03  0.00000000000E+00 0. -1.
         21   -1    0    0  503  502 -0.00000000000E+00 -0.00000000000E+00 -0.31326347274E+03  0.31326347274E+03  0.00000000000E+00 0. -1.
         21    1    1    2  503  506  0.77969254462E+02  0.51451746099E+02 -0.14039819195E+03  0.16863611452E+03  0.00000000000E+00 0. -1.
         21    1    1    2  504  502 -0.10069657251E+02 -0.77897428942E+02 -0.78821913864E+02  0.11127579044E+03  0.00000000000E+00 0. -1.
         21    1    1    2  505  504  0.24192569624E+02 -0.72646516811E+02 -0.17040771141E+02  0.78442238054E+02  0.00000000000E+00 0. -1.
         21    1    1    2  506  501 -0.92092166835E+02  0.99092199654E+02  0.27077432586E+03  0.30268625137E+03  0.00000000000E+00 0. -1.
<scales pt_clust_3="93.41567" pt_clust_4="61.97723" pt_clust_5="61.97723" pt_clust_6="134.05179"></scales>
<clustering>
<clus scale="   61.977">  4  5 -1 -1</clus>
<clus scale="   93.416">  2  3  1 -1</clus>
<clus scale="  134.052">  1  6  2 -1</clus>
<clus scale="  134.052">  1  3  2 -1</clus>
</clustering>
</event>
<event>
 6    0  0.1704145E+002  0.1478891E+03  0.7546771E-02  0.1203091E+00
         21   -1    0    0  502  501  0.00000000000E+00  0.00000000000E+00  0.76960631834E+02  0.76960631834E+02  0.00000000000E+00 0.  1.
         21   -1    0    0  504  502 -0.00000000000E+00 -0.00000000000E+00 -0.14126208195E+04  0.14126208195E+04  0.00000000000E+00 0.  1.
         21    1    1    2  503  501 -0.88612846514E+02 -0.12666733140E+03 -0.14931171955E+02  0.15530547095E+03  0.00000000000E+00 0.  1.
         21    1    1    2  504  505  0.44103175106E+02  0.50398950874E+02 -0.91348495350E+03  0.91593662694E+03  0.00000000000E+00 0.  1.
         21    1    1    2  505  506  0.18880881190E+02  0.44406971897E+02 -0.29411918626E+03  0.29805127504E+03  0.00000000000E+00 0. -1.
         21    1    1    2  506  503  0.25628790219E+02  0.31861408625E+02 -0.11312487599E+03  0.12028807844E+03  0.00000000000E+00 0. -1.
<scales pt_clust_3="143.20985" pt_clust_4="66.97122" pt_clust_5="33.97402" pt_clust_6="33.97402"></scales>
<clustering>
<clus scale="   33.974">  5  6 -1 -1</clus>
<clus scale="   66.971">  2  4  1 -1</clus>
<clus scale="  143.210">  1  3  2 -1</clus>
<clus scale="  143.210">  1  3  2 -1</clus>
</clustering>
</event>
<event>
 6    0  0.1704145E+002  0.1465434E+03  0.7546771E-02  0.1204786E+00
         21   -1    0    0  503  501  0.00000000000E+00  0.00000000000E+00  0.78854963065E+03  0.78854963065E+03  0.00000000000E+00 0. -1.
         21   -1    0    0  505  502 -0.00000000000E+00 -0.00000000000E+00 -0.14269325689E+03  0.14269325689E+03  0.00000000000E+00 0. -1.
         21    1    1    2  503  506  0.48854531004E+02 -0.36314016904E+02  0.51961075891E+03  0.52316423215E+03  0.00000000000E+00 0. -1.
         21    1    1    2  504  501  0.15915611183E+02  0.62198459332E+02  0.70785679486E+02  0.95564467470E+02  0.00000000000E+00 0. -1.
         21    1    1    2  505  504  0.51686101939E+02  0.57740905982E+02  0.12968026778E+03  0.15107096746E+03  0.00000000000E+00 0.  1.
         21    1    1    2  506  502 -0.11645624413E+03 -0.83625348410E+02 -0.74220332415E+02  0.16144322047E+03  0.00000000000E+00 0. -1.
<scales pt_clust_3="60.87260" pt_clust_4="37.38493" pt_clust_5="37.38493" pt_clust_6="140.66970"></scales>
<clustering>
<clus scale="   37.385">  4  5 -1 -1</clus>
<clus scale="   60.873">  1  3  2 -1</clus>
<clus scale="  140.670">  2  6  1 -1</clus>
<clus scale="   60.873">  1  3  2 -1</clus>
</clustering>
</event>
<event>
 6    0  0.1704145E+002  0.2148339E+03  0.7546771E-02  0.1137794E+00
         21   -1    0    0  505  501  0.00000000000E+00  0.00000000000E+00  0.26374689139E+04  0.26374689139E+04  0.00000000000E+00 0. -1.
         21   -1    0    0  504  502 -0.00000000000E+00 -0.00000000000E+00 -0.33053522796E+02  0.33053522796E+02  0.00000000000E+00 0.  1.
         21    1    1    2  503  502  0.62812189736E+02 -0.12890851547E+02  0.18492659700E+03  0.19572785062E+03  0.00000000000E+00 0.  1.
         21    1    1    2  504  501 -0.20123908822E+03  0.12661728684E+03  0.11743724640E+04  0.11981985612E+04  0.00000000000E+00 0. -1.
         21    1    1    2  505  506  0.25709613814E+02 -0.34533870232E+02  0.94931575965E+03  0.95029152577E+03  0.00000000000E+00 0. -1.
         21    1    1    2  506  503  0.11271728467E+03 -0.79192565060E+02  0.29580057048E+03  0.32630449908E+03  0.00000000000E+00 0.  1.
<scales pt_clust_3="31.48154" pt_clust_4="209.81985" pt_clust_5="43.05314" pt_clust_6="31.48154"></scales>
<clustering>
<clus scale="   31.482">  3  6 -1 -1</clus>
<clus scale="   43.053">  1  5  2 -1</clus>
<clus scale="  209.820">  1  4  2 -1</clus>
<clus scale="   43.053">  1  3  2 -1</clus>
</clustering>
</event>
<event>
 6    0  0.1704145E+002  0.1956053E+03  0.7546771E-02  0.1153501E+00
         21   -1    0    0  506  501  0.00000000000E+00  0.00000000000E+00  0.58568716532E+03  0.58568716532E+03  0.00000000000E+00 0.  1.
         21   -1    0    0  503  502 -0.00000000000E+00 -0.00000000000E+00 -0.29299871533E+03  0.29299871533E+03  0.00000000000E+00 0.  1.
         21    1    1    2  503  504  0.11108156711E+03 -0.91950507995E+02 -0.15380745124E+03  0.21083344737E+03  0.00000000000E+00 0.  1.
         21    1    1    2  504  505  0.48005055053E+02  0.71844530145E+01 -0.72409497122E+02  0.87173602365E+02  0.00000000000E+00 0.  1.
         21    1    1    2  505  501  0.30573232665E+02 -0.33168356623E+00  0.12072345964E+02  0.32872087044E+02  0.00000000000E+00 0.  1.
         21    1    1    2  506  502 -0.18965985482E+03  0.85097738546E+02  0.50683305239E+03  0.54780674388E+03  0.00000000000E+00 0.  1.
<scales pt_clust_3="41.59207" pt_clust_4="41.59207" pt_clust_5="30.57503" pt_clust_6="181.99225"></scales>
<clustering>
<clus scale="   30.575">  1  5  2 -1</clus>
<clus scale="   41.592">  3  4 -1 -1</clus>
<clus scale="  181.992">  1  6  2 -1</clus>
<clus scale="   30.575">  1  3  2 -1</clus>
</clustering>
</event>
<event>
 6    0  0.1704145E+002  0.9498289E+02  0.7546771E-02  0.1291215E+00
         21   -1    0    0  506  501  0.00000000000E+00  0.00000000000E+00  0.37015657680E+03  0.37015657680E+03  0.00000000000E+00 0.  1.
         21   -1    0    0  505  502 -0.00000000000E+00 -0.00000000000E+00 -0.15388780683E+03  0.15388780683E+03  0.00000000000E+00 0. -1.
         21    1    1    2  503  502 -0.96094170507E+01 -0.31178446735E+02  0.46971199219E+00  0.32629083135E+02  0.00000000000E+00 0. -1.
         21    1    1    2  504  501 -0.35961808970E+02  0.58566035003E+02 -0.98858275323E+01  0.69433145877E+02  0.00000000000E+00 0. -1.
         21    1    1    2  505  504 -0.14012767714E+01  0.61258915337E+02 -0.79704974945E+02  0.10053606973E+03  0.00000000000E+00 0. -1.
         21    1    1    2  506  503  0.46972502792E+02 -0.88646503604E+02  0.30538986046E+03  0.32144608489E+03  0.00000000000E+00 0.  1.
<scales pt_clust_3="32.62570" pt_clust_4="94.98289" pt_clust_5="41.58590" pt_clust_6="14000.00000"></scales>
<clustering>
<clus scale="   32.626">  2  3  1 -1</clus>
<clus scale="   41.586">  2  5  1 -1</clus>
<clus scale="   94.983">  2  4  1 -1</clus>
<clus scale="   94.983">  1  3  2 -1</clus>
</clustering>
</event>
<event>
 6    0  0.1704145E+002  0.1067604E+03  0.7546771E-02  0.1266689E+00
         21   -1    0    0  506  501  0.00000000000E+00  0.00000000000E+00  0.55711803515E+03  0.55711803515E+03  0.00000000000E+00 0.  1.
         21   -1    0    0  503  502 -0.00000000000E+00 -0.00000000000E+00 -0.15948936368E+03  0.15948936368E+03  0.00000000000E+00 0. -1.
         21    1    1    2  503  501  0.49106667785E+02  0.28136528886E+02 -0.54877306860E+02  0.78833038041E+02  0.00000000000E+00 0. -1.
         21    1    1    2  504  505  0.55390503289E+01 -0.75894800675E+02  0.26760625654E+02  0.80664942406E+02  0.00000000000E+00 0. -1.
         21    1    1    2  505  502  0.13087456006E+01 -0.54256612981E+02 -0.46051271536E+02  0.71177331204E+02  0.00000000000E+00 0. -1.
         21    1    1    2  506  504 -0.55954463714E+02  0.10201488477E+03  0.47179662422E+03  0.48593208718E+03  0.00000000000E+00 0.  1.
<scales pt_clust_3="50.58252" pt_clust_4="106.76043" pt_clust_5="54.27240" pt_clust_6="14000.00000"></scales>
<clustering>
<clus scale="   54.272">  2  5  1 -1</clus>
<clus scale="   50.583">  2  3  1 -1</clus>
<clus scale="  106.760">  2  4  1 -1</clus>
<clus scale="  106.760">  1  3  2 -1</clus>
</clustering>
</event>
<event>
 6    0  0.1704145E+002  0.1084937E+03  0.7546771E-02  0.1263385E+00
         21   -1    0    0  505  501  0.00000000000E+00  0.00000000000E+00  0.30309352795E+02  0.30309352795E+02  0.00000000000E+00 0.  1.
         21   -1    0    0  503  502 -0.00000000000E+00 -0.00000000000E+00 -0.12351832328E+04  0.12351832328E+04  0.00000000000E+00 0.  1.
         21    1    1    2  503  506  0.94823066666E+02 -0.19512653814E+00 -0.56232624587E+03  0.57026507769E+03  0.00000000000E+00 0.  1.
         21    1    1    2  504  502 -0.70432059345E+02  0.30075321758E+02 -0.38478704110E+03  0.39233438156E+03  0.00000000000E+00 0.  1.
         21    1    1    2  505  504 -0.70242033744E+02 -0.39653694248E+01 -0.44547870799E+02  0.83271725404E+02  0.00000000000E+00 0.  1.
         21    1    1    2  506  501  0.45851026422E+02 -0.25914825795E+02 -0.21321272220E+03  0.21962140089E+03  0.00000000000E+00 0.  1.
<scales pt_clust_3="33.23805" pt_clust_4="98.90331" pt_clust_5="70.35387" pt_clust_6="33.23805"></scales>
<clustering>
<clus scale="   33.238">  3  6 -1 -1</clus>
<clus scale="   70.354">  1  5  2 -1</clus>
<clus scale="   98.903">  2  4  1 -1</clus>
<clus scale="   70.354">  1  3  2 -1</clus>
</clustering>
</event>
<event>
 6    0  0.1704145E+002  0.6651230E+02  0.7546771E-02  0.1372371E+00
         21   -1    0    0  506  501  0.00000000000E+00  0.00000000000E+00  0.88944868744E+02  0.88944868744E+02  0.00000000000E+00 0. -1.
         21   -1    0    0  504  502 -0.00000000000E+00 -0.00000000000E+00 -0.10977697734E+04  0.10977697734E+04  0.00000000000E+00 0. -1.
         21    1    1    2  503  502 -0.69963057586E+01  0.29974388944E+02 -0.29641197582E+03  0.29800582493E+03  0.00000000000E+00 0. -1.
         21    1    1    2  504  505 -0.10648498336E+03 -0.69201763595E+01 -0.56434058367E+03  0.57434069584E+03  0.00000000000E+00 0. -1.
         21    1    1    2  505  501  0.52998001681E+02 -0.39556776574E+02  0.64720051745E+02  0.92532220620E+02  0.00000000000E+00 0. -1.
         21    1    1    2  506  503  0.60483287437E+02  0.16502563990E+02 -0.21279239693E+03  0.22183590077E+03  0.00000000000E+00 0. -1.
<scales pt_clust_3="30.78006" pt_clust_4="14000.00000" pt_clust_5="66.51230" pt_clust_6="63.55461"></scales>
<clustering>
<clus scale="   30.780">  2  3  1 -1</clus>
<clus scale="   63.555">  2  6  1 -1</clus>
<clus scale="   66.512">  1  5  2 -1</clus>
<clus scale="   66.512">  1  3  2 -1</clus>
</clustering>
</event>
<event>
 6    0  0.1704145E+002  0.3095417E+03  0.7546771E-02  0.1080566E+00
         21   -1    0    0  505  501  0.00000000000E+00  0.00000000000E+00  0.11416721278E+04  0.11416721278E+04  0.00000000000E+00 0.  1.
         21   -1    0    0  504  502 -0.00000000000E+00 -0.00000000000E+00 -0.89419293611E+03  0.89419293611E+03  0.00000000000E+00 0.  1.
         21    1    1    2  503  502 -0.31899589332E+02 -0.12854090534E+03 -0.29895557306E+03  0.32697826045E+03  0.00000000000E+00 0.  1.
         21    1    1    2  504  501  0.11361857702E+03  0.24670738241E+03  0.21225612726E+03  0.34471202059E+03  0.00000000000E+00 0. -1.
         21    1    1    2  505  506 -0.11221108494E+00  0.41526323230E+02  0.83303139847E+03  0.83406580013E+03  0.00000000000E+00 0.  1.
         21    1    1    2  506  503 -0.81606776602E+02 -0.15969280030E+03 -0.49885276097E+03  0.53010898274E+03  0.00000000000E+00 0.  1.
<scales pt_clust_3="39.73595" pt_clust_4="306.06868" pt_clust_5="41.52647" pt_clust_6="39.73595"></scales>
<clustering>
<clus scale="   39.736">  3  6 -1 -1</clus>
<clus scale="   41.526">  1  5  2 -1</clus>
<clus scale="  306.069">  1  4  2 -1</clus>
<clus scale="   41.526">  1  3  2 -1</clus>
</clustering>
</event>
<event>
 6    0  0.1704145E+002  0.2034713E+03  0.7546771E-02  0.1146843E+00
         21   -1    0    0  503  501  0.00000000000E+00  0.00000000000E+00  0.22230516832E+04  0.22230516832E+04  0.00000000000E+00 0.  1.
         21   -1    0    0  505  502 -0.00000000000E+00 -0.00000000000E+00 -0.31687089309E+02  0.31687089309E+02  0.00000000000E+00 0.  1.
         21    1    1    2  503  504  0.76472549508E+01 -0.33468633177E+02  0.63112524881E+03  0.63205831186E+03  0.00000000000E+00 0.  1.
         21    1    1    2  504  506 -0.15077048095E+02 -0.65713330073E+02  0.20803277954E+03  0.21868515380E+03  0.00000000000E+00 0.  1.
         21    1    1    2  505  501 -0.19236409667E+02  0.21831632146E+03  0.11241865040E+04  0.11453503182E+04  0.00000000000E+00 0.  1.
         21    1    1    2  506  502  0.26666202811E+02 -0.11913435820E+03  0.22802006158E+03  0.25864498866E+03  0.00000000000E+00 0.  1.
<scales pt_clust_3="34.33118" pt_clust_4="43.71627" pt_clust_5="194.93989" pt_clust_6="43.71627"></scales>
<clustering>
<clus scale="   34.331">  1  3  2 -1</clus>
<clus scale="   43.716">  4  6 -1 -1</clus>
<clus scale="  194.940">  1  5  2 -1</clus>
<clus scale="   34.331">  1  3  2 -1</clus>
</clustering>
</event>
<event>
 6    0  0.1704145E+002  0.9126612E+02  0.7546771E-02  0.1299814E+00
         21   -1    0    0  503  501  0.00000000000E+00  0.00000000000E+00  0.34060925246E+03  0.34060925246E+03  0.00000000000E+00 0.  1.
         21   -1    0    0  501  502 -0.00000000000E+00 -0.00000000000E+00 -0.23811403232E+03  0.23811403232E+03  0.00000000000E+00 0. -1.
         21    1    1    2  503  505  0.59144705950E+02 -0.49091180089E+02  0.29845890591E+03  0.30819759688E+03  0.00000000000E+00 0.  1.
         21    1    1    2  504  506 -0.32453955481E+02  0.18796803393E+02 -0.40593339684E+02  0.55266610814E+02  0.00000000000E+00 0.  1.
         21    1    1    2  505  504 -0.65121164901E+02 -0.25400466354E+02 -0.37441484335E+02  0.79295741110E+02  0.00000000000E+00 0. -1.
         21    1    1    2  506  502  0.38430414431E+02  0.55694843050E+02 -0.11792886175E+03  0.13596333598E+03  0.00000000000E+00 0. -1.
<scales pt_clust_3="76.65784" pt_clust_4="36.27936" pt_clust_5="36.27936" pt_clust_6="67.66692"></scales>
<clustering>
<clus scale="   36.279">  4  5 -1 -1</clus>
<clus scale="   67.667">  2  6  1 -1</clus>
<clus scale="   76.658">  1  3  2 -1</clus>
<clus scale="   76.658">  1  3  2 -1</clus>
</clustering>
</event>
<event>
 6    0  0.1704145E+002  0.2947129E+03  0.7546771E-02  0.1087914E+00
         21   -1    0    0  504  501  0.00000000000E+00  0.00000000000E+00  0.19560232087E+03  0.19560232087E+03  0.00000000000E+00 0.  1.
         21   -1    0    0  506  502 -0.00000000000E+00 -0.00000000000E+00 -0.10402118752E+04  0.10402118752E+04  0.00000000000E+00 0.  1.
         21    1    1    2  503  502  0.25212637847E+02  0.26168904410E+03 -0.51447849885E+02  0.26788750282E+03  0.00000000000E+00 0.  1.
         21    1    1    2  504  503  0.97152736477E+02  0.40972360438E+01  0.20821920038E+02  0.99443420608E+02  0.00000000000E+00 0.  1.
         21    1    1    2  505  501 -0.20265232337E+02 -0.10970745724E+03 -0.23369624605E+03  0.25896011514E+03  0.00000000000E+00 0.  1.
         21    1    1    2  506  505 -0.10210014199E+03 -0.15607882291E+03 -0.58028737846E+03  0.60952315752E+03  0.00000000000E+00 0.  1.
<scales pt_clust_3="284.21383" pt_clust_4="97.23909" pt_clust_5="60.29776" pt_clust_6="60.29776"></scales>
<clustering>
<clus scale="   60.298">  5  6 -1 -1</clus>
<clus scale="   97.239">  1  4  2 -1</clus>
<clus scale="  284.214">  1  3  2 -1</clus>
<clus scale="   97.239">  1  3  2 -1</clus>
</clustering>
</event>
<event>
 6    0  0.1704145E+002  0.6806881E+02  0.7546771E-02  0.1366786E+00
         21   -1    0    0  503  501  0.00000000000E+00  0.00000000000E+00  0.92501860177E+02  0.92501860177E+02  0.00000000000E+00 0.  1.
         21   -1    0    0  505  502 -0.00000000000E+00 -0.00000000000E+00 -0.24362424192E+04  0.24362424192E+04  0.00000000000E+00 0.  1.
         21    1    1    2  503  506  0.54413200742E+02  0.30917344710E+02 -0.70432951515E+03  0.70710447922E+03  0.00000000000E+00 0.  1.
         21    1    1    2  504  501  0.23637383404E+01 -0.67767766735E+02  0.74757230207E+02  0.10092918773E+03  0.00000000000E+00 0.  1.
         21    1    1    2  505  504 -0.25062600853E+02  0.86898193528E+02 -0.98991467784E+03  0.99403747384E+03  0.00000000000E+00 0.  1.
         21    1    1    2  506  502 -0.31714338229E+02 -0.50047771503E+02 -0.72425359623E+03  0.72667313858E+03  0.00000000000E+00 0.  1.
<scales pt_clust_3="42.58800" pt_clust_4="68.06881" pt_clust_5="14000.00000" pt_clust_6="59.25014"></scales>
<clustering>
<clus scale="   59.250">  2  6  1 -1</clus>
<clus scale="   42.588">  2  3  1 -1</clus>
<clus scale="   68.069">  1  4  2 -1</clus>
<clus scale="   68.069">  1  3  2 -1</clus>
</clustering>
</event>
<event>
 6    0  0.1704145E+002  0.1644217E+03  0.7546771E-02  0.1183793E+00
         21   -1    0    0  504  501  0.00000000000E+00  0.00000000000E+00  0.32407809444E+03  0.32407809444E+03  0.00000000000E+00 0.  1.
         21   -1    0    0  503  502 -0.00000000000E+00 -0.00000000000E+00 -0.77765389076E+03  0.77765389076E+03  0.00000000000E+00 0.  1.
         21    1    1    2  503  501  0.10470113740E+02 -0.15184990004E+03 -0.20969145581E+03  0.25911102266E+03  0.00000000000E+00 0.  1.
         21    1    1    2  504  506  0.30331085964E+02  0.30611741793E+01  0.28590333372E+03  0.28752401951E+03  0.00000000000E+00 0.  1.
         21    1    1    2  505  502 -0.14827243928E+02  0.86220689944E+02 -0.39086865592E+03  0.40053983662E+03  0.00000000000E+00 0.  1.
         21    1    1    2  506  505 -0.25973955775E+02  0.62568035916E+02 -0.13891901830E+03  0.15455710641E+03  0.00000000000E+00 0.  1.
<scales pt_clust_3="152.90413" pt_clust_4="30.48517" pt_clust_5="52.63890" pt_clust_6="52.63890"></scales>
<clustering>
<clus scale="   30.485">  1  4  2 -1</clus>
<clus scale="   52.639">  5  6 -1 -1</clus>
<clus scale="  152.904">  1  3  2 -1</clus>
<clus scale="   30.485">  1  3  2 -1</clus>
</clustering>
</event>
<event>
 6    0  0.1704145E+002  0.7592127E+02  0.7546771E-02  0.1341042E+00
         21   -1    0    0  506  501  0.00000000000E+00  0.00000000000E+00  0.84296193272E+03  0.84296193272E+03  0.00000000000E+00 0. -1.
         21   -1    0    0  505  502 -0.00000000000E+00 -0.00000000000E+00 -0.69380222324E+02  0.69380222324E+02  0.00000000000E+00 0. -1.
         21    1    1    2  503  501  0.61071239528E+02  0.37519575188E+02  0.54240195988E+03  0.54711726431E+03  0.00000000000E+00 0. -1.
         21    1    1    2  504  503  0.55547511952E+02 -0.33438021992E+02  0.65157942022E+02  0.91919447384E+02  0.00000000000E+00 0.  1.
         21    1    1    2  505  504  0.21001289766E+02  0.59317060728E+02  0.68997791825E+02  0.93382349199E+02  0.00000000000E+00 0.  1.
         21    1    1    2  506  502 -0.13762004125E+03 -0.63398613923E+02  0.97024016670E+02  0.17992309416E+03  0.00000000000E+00 0. -1.
<scales pt_clust_3="14000.00000" pt_clust_4="63.54632" pt_clust_5="62.92510" pt_clust_6="75.92127"></scales>
<clustering>
<clus scale="   62.925">  2  5  1 -1</clus>
<clus scale="   63.546">  2  4  1 -1</clus>
<clus scale="   75.921">  2  6  1 -1</clus>
<clus scale="   75.921">  1  3  2 -1</clus>
</clustering>
</event>
<event>
 6    0  0.1704145E+002  0.1313437E+03  0.7546771E-02  0.1225476E+00
         21   -1    0    0  505  501  0.00000000000E+00  0.00000000000E+00  0.29161305125E+03  0.29161305125E+03  0.00000000000E+00 0. -1.
         21   -1    0    0  503  502 -0.00000000000E+00 -0.00000000000E+00 -0.15335620737E+03  0.15335620737E+03  0.00000000000E+00 0. -1.
         21    1    1    2  503  501 -0.26499873851E+02 -0.42326387368E+02  0.15560632526E+03  0.16342305481E+03  0.00000000000E+00 0. -1.
         21    1    1    2  504  506 -0.27089873329E+02  0.46306095484E+02 -0.19815862667E+02  0.57190769615E+02  0.00000000000E+00 0.  1.
         21    1    1    2  505  504  0.53574468042E+02 -0.91526153058E+02  0.57806818702E+02  0.12078447172E+03  0.00000000000E+00 0. -1.
         21    1    1    2  506  502  0.15279138251E-01  0.87546444942E+02 -0.55340437419E+02  0.10357096248E+03  0.00000000000E+00 0. -1.
<scales pt_clust_3="49.93762" pt_clust_4="30.78284" pt_clust_5="125.31890" pt_clust_6="30.78284"></scales>
<clustering>
<clus scale="   30.783">  4  6 -1 -1</clus>
<clus scale="   49.938">  1  3  2 -1</clus>
<clus scale="  125.319">  1  5  2 -1</clus>
<clus scale="   49.938">  1  3  2 -1</clus>
</clustering>
</event>
<event>
 6    0  0.1704145E+002  0.7525834E+02  0.7546771E-02  0.1343073E+00
         21   -1    0    0  505  501  0.00000000000E+00  0.00000000000E+00  0.15473100215E+03  0.15473100215E+03  0.00000000000E+00 0. -1.
         21   -1    0    0  506  502 -0.00000000000E+00 -0.00000000000E+00 -0.16012848979E+03  0.16012848979E+03  0.00000000000E+00 0. -1.
         21    1    1    2  503  502 -0.99620547738E+02 -0.57282660571E+02  0.91377353374E+01  0.11527816333E+03  0.00000000000E+00 0. -1.
         21    1    1    2  504  501  0.30381355964E+02  0.32539712242E+02  0.43958652555E+01  0.44734587226E+02  0.00000000000E+00 0. -1.
         21    1    1    2  505  503  0.47553648176E+00  0.43693741927E+02  0.42319139608E+02  0.60829916947E+02  0.00000000000E+00 0. -1.
         21    1    1    2  506  504  0.68763655292E+02 -0.18950793598E+02 -0.61250227843E+02  0.94016824441E+02  0.00000000000E+00 0. -1.
<scales pt_clust_3="14000.00000" pt_clust_4="52.67041" pt_clust_5="43.69633" pt_clust_6="75.25834"></scales>
<clustering>
<clus scale="   43.696">  1  5  2 -1</clus>
<clus scale="   52.670">  1  4  2 -1</clus>
<clus scale="   75.258">  2  6  1 -1</clus>
<clus scale="   43.696">  1  3  2 -1</clus>
</clustering>
</event>
<event>
 6    0  0.1704145E+002  0.1152210E+03  0.7546771E-02  0.1251196E+00
         21   -1    0    0  506  501  0.00000000000E+00  0.00000000000E+00  0.32835255836E+03  0.32835255836E+03  0.00000000000E+00 0.  1.
         21   -1    0    0  503  502 -0.00000000000E+00 -0.00000000000E+00 -0.91124418112E+03  0.91124418112E+03  0.00000000000E+00 0. -1.
         21    1    1    2  503  504 -0.12003689115E+02  0.34739014889E+02 -0.31071619017E+02  0.48128299535E+02  0.00000000000E+00 0.  1.
         21    1    1    2  504  501  0.89000752403E+01  0.11461818206E+03  0.30101726852E+03  0.32222342396E+03  0.00000000000E+00 0.  1.
         21    1    1    2  505  502  0.27088061486E+02 -0.20932506725E+02 -0.25581942254E+03  0.25809980601E+03  0.00000000000E+00 0.  1.
         21    1    1    2  506  505 -0.23984447612E+02 -0.12842469023E+03 -0.59701784972E+03  0.61114520998E+03  0.00000000000E+00 0. -1.
<scales pt_clust_3="35.03995" pt_clust_4="115.22105" pt_clust_5="34.23351" pt_clust_6="14000.00000"></scales>
<clustering>
<clus scale="   34.234">  2  5  1 -1</clus>
<clus scale="   35.040">  2  3  1 -1</clus>
<clus scale="  115.221">  1  4  2 -1</clus>
<clus scale="  115.221">  1  3  2 -1</clus>
</clustering>
</event>
<event>
 6    0  0.1704145E+002  0.8960306E+02  0.7546771E-02  0.1303816E+00
         21   -1    0    0  504  501  0.00000000000E+00  0.00000000000E+00  0.29818212222E+03  0.29818212222E+03  0.00000000000E+00 0. -1.
         21   -1    0    0  506  502 -0.00000000000E+00 -0.00000000000E+00 -0.69640287941E+03  0.69640287941E+03  0.00000000000E+00 0.  1.
         21    1    1    2  503  501 -0.55501835538E+01  0.73281342491E+02  0.27946684018E+03  0.28896829317E+03  0.00000000000E+00 0. -1.
         21    1    1    2  504  502  0.45585315507E+02  0.43531922013E+02 -0.22476355990E+03  0.23343458844E+03  0.00000000000E+00 0.  1.
         21    1    1    2  505  503 -0.40321437969E+02 -0.80393664477E+02 -0.24274405120E+03  0.25886991722E+03  0.00000000000E+00 0.  1.
         21    1    1    2  506  505  0.28630601591E+00 -0.36419600026E+02 -0.21017998627E+03  0.21331220280E+03  0.00000000000E+00 0.  1.
<scales pt_clust_3="73.89918" pt_clust_4="63.03213" pt_clust_5="32.24531" pt_clust_6="32.24531"></scales>
<clustering>
<clus scale="   32.245">  5  6 -1 -1</clus>
<clus scale="   63.032">  2  4  1 -1</clus>
<clus scale="   73.899">  1  3  2 -1</clus>
<clus scale="   73.899">  1  3  2 -1</clus>
</clustering>
</event>
<event>
 6    0  0.1704145E+002  0.7842285E+02  0.7546771E-02  0.1333588E+00
         21   -1    0    0  503  501  0.00000000000E+00  0.00000000000E+00  0.62971236181E+03  0.62971236181E+03  0.00000000000E+00 0.  1.
         21   -1    0    0  505  502 -0.00000000000E+00 -0.00000000000E+00 -0.21985338943E+03  0.21985338943E+03  0.00000000000E+00 0.  1.
         21    1    1    2  503  506  0.47927175817E+02  0.79082419672E+01  0.56420848216E+03  0.56629565230E+03  0.00000000000E+00 0.  1.
         21    1    1    2  504  502  0.14962975026E+02 -0.29515864579E+02 -0.27676119529E+02  0.43139824706E+02  0.00000000000E+00 0.  1.
         21    1    1    2  505  501 -0.40778836605E+02  0.97294682592E+02 -0.12179180375E+03  0.16112855810E+03  0.00000000000E+00 0.  1.
         21    1    1    2  506  504 -0.22111314238E+02 -0.75687059981E+02 -0.48815865068E+01  0.79001716137E+02  0.00000000000E+00 0.  1.
<scales pt_clust_3="48.63192" pt_clust_4="33.09195" pt_clust_5="14000.00000" pt_clust_6="78.42285"></scales>
<clustering>
<clus scale="   33.092">  2  4  1 -1</clus>
<clus scale="   48.632">  1  3  2 -1</clus>
<clus scale="   78.423">  1  6  2 -1</clus>
<clus scale="   48.632">  1  3  2 -1</clus>
</clustering>
</event>
<event>
 6    0  0.1704145E+002  0.8350546E+02  0.7546771E-02  0.1319388E+00
         21   -1    0    0  505  501  0.00000000000E+00  0.00000000000E+00  0.20452361088E+02  0.20452361088E+02  0.00000000000E+00 0. -1.
         21   -1    0    0  506  502 -0.00000000000E+00 -0.00000000000E+00 -0.20763360213E+04  0.20763360213E+04  0.00000000000E+00 0. -1.
         21    1    1    2  503  502  0.53422968762E+02 -0.32345730471E+02 -0.63834922173E+03  0.64139690422E+03  0.00000000000E+00 0. -1.
         21    1    1    2  504  503 -0.11510174934E+03 -0.33569138354E+02 -0.23652796937E+03  0.26518065549E+03  0.00000000000E+00 0. -1.
         21    1    1    2  505  504  0.22901248198E+02  0.46310025883E+02 -0.15697888786E+03  0.16526178293E+03  0.00000000000E+00 0.  1.
         21    1    1    2  506  501  0.38777532379E+02  0.19604842941E+02 -0.10240275812E+04  0.10249490397E+04  0.00000000000E+00 0. -1.
<scales pt_clust_3="83.50546" pt_clust_4="14000.00000" pt_clust_5="57.12783" pt_clust_6="43.45166"></scales>
<clustering>
<clus scale="   43.452">  2  6  1 -1</clus>
<clus scale="   57.128">  1  5  2 -1</clus>
<clus scale="   83.505">  2  3  1 -1</clus>
<clus scale="   57.128">  1  3  2 -1</clus>
</clustering>
</event>
<event>
 6    0  0.1704145E+002  0.1259642E+03  0.7546771E-02  0.1233570E+00
         21   -1    0    0  505  501  0.00000000000E+00  0.00000000000E+00  0.73922601715E+03  0.73922601715E+03  0.00000000000E+00 0.  1.
         21   -1    0    0  503  502 -0.00000000000E+00 -0.00000000000E+00 -0.48077149447E+02  0.48077149447E+02  0.00000000000E+00 0.  1.
         21    1    1    2  503  501  0.67054694902E+02 -0.98092610367E+02  0.56587338822E+03  0.57821378729E+03  0.00000000000E+00 0.  1.
         21    1    1    2  504  506 -0.40205950157E+02  0.31264167607E+02  0.21019605093E+02  0.55098007246E+02  0.00000000000E+00 0.  1.
         21    1    1    2  505  504 -0.39962532801E+02  0.23165000430E+02  0.97519904570E+02  0.10790622345E+03  0.00000000000E+00 0. -1.
         21    1    1    2  506  502  0.13113788056E+02  0.43663442330E+02  0.67359698285E+01  0.46085148614E+02  0.00000000000E+00 0.  1.
<scales pt_clust_3="112.86154" pt_clust_4="48.12497" pt_clust_5="48.12497" pt_clust_6="45.59021"></scales>
<clustering>
<clus scale="   45.590">  2  6  1 -1</clus>
<clus scale="   48.125">  4  5 -1 -1</clus>
<clus scale="  112.862">  1  3  2 -1</clus>
<clus scale="  112.862">  1  3  2 -1</clus>
</clustering>
</event>
<event>
 6    0  0.1704145E+002  0.9181693E+02  0.7546771E-02  0.1298510E+00
         21   -1    0    0  503  501  0.00000000000E+00  0.00000000000E+00  0.44663331755E+03  0.44663331755E+03  0.00000000000E+00 0.  1.
         21   -1    0    0  504  502 -0.00000000000E+00 -0.00000000000E+00 -0.86787818522E+03  0.86787818522E+03  0.00000000000E+00 0. -1.
         21    1    1    2  503  506 -0.31254084371E+02 -0.79012033133E+02 -0.44007240226E+02  0.95688851817E+02  0.00000000000E+00 0. -1.
         21    1    1    2  504  505 -0.53321426677E+02  0.11407447503E+03  0.60152315390E+01  0.12606483811E+03  0.00000000000E+00 0.  1.
         21    1    1    2  505  501  0.18326253699E+02  0.26939324100E+02  0.35120657937E+03  0.35271467243E+03  0.00000000000E+00 0.  1.
         21    1    1    2  506  502  0.66249257349E+02 -0.62001765999E+02 -0.73445943835E+03  0.74004314041E+03  0.00000000000E+00 0. -1.
<scales pt_clust_3="76.31627" pt_clust_4="14000.00000" pt_clust_5="32.58188" pt_clust_6="91.81693"></scales>
<clustering>
<clus scale="   32.582">  1  5  2 -1</clus>
<clus scale="   76.316">  1  3  2 -1</clus>
<clus scale="   91.817">  2  6  1 -1</clus>
<clus scale="   32.582">  1  3  2 -1</clus>
</clustering>
</event>
<event>
 6    0  0.1704145E+002  0.2338419E+03  0.7546771E-02  0.1123965E+00
         21   -1    0    0  504  501  0.00000000000E+00  0.00000000000E+00  0.57590402464E+03  0.57590402464E+03  0.00000000000E+00 0. -1.
         21   -1    0    0  503  502 -0.00000000000E+00 -0.00000000000E+00 -0.28681730011E+03  0.28681730011E+03  0.00000000000E+00 0.  1.
         21    1    1    2  503  501  0.16007867732E+03  0.20689783570E+03 -0.54283724480E+02  0.26716777517E+03  0.00000000000E+00 0.  1.
         21    1    1    2  504  505  0.33948253889E+02 -0.15168522444E+03  0.25625161422E+03  0.29970949442E+03  0.00000000000E+00 0. -1.
         21    1    1    2  505  506 -0.16036577465E+03 -0.10461502842E+03  0.12161030898E+03  0.22682714366E+03  0.00000000000E+00 0. -1.
         21    1    1    2  506  502 -0.33661156558E+02  0.49402417156E+02 -0.34491474188E+02  0.69016911502E+02  0.00000000000E+00 0.  1.
<scales pt_clust_3="233.84189" pt_clust_4="150.31554" pt_clust_5="14000.00000" pt_clust_6="59.78020"></scales>
<clustering>
<clus scale="   59.780">  2  6  1 -1</clus>
<clus scale="  150.316">  1  4  2 -1</clus>
<clus scale="  233.842">  2  3  1 -1</clus>
<clus scale="  150.316">  1  3  2 -1</clus>
</clustering>
</event>
<event>
 6    0  0.1704145E+002  0.2568549E+03  0.7546771E-02  0.1109048E+00
         21   -1    0    0  505  501  0.00000000000E+00  0.00000000000E+00  0.10400743660E+04  0.10400743660E+04  0.00000000000E+00 0.  1.
         21   -1    0    0  501  502 -0.00000000000E+00 -0.00000000000E+00 -0.10280066884E+04  0.10280066884E+04  0.00000000000E+00 0. -1.
         21    1    1    2  503  502  0.60155585223E+02  0.14355425954E+03 -0.49829539486E+03  0.52203909854E+03  0.00000000000E+00 0. -1.
         21    1    1    2  504  506  0.32363884140E+01 -0.29023116763E+03 -0.99986611740E+02  0.30698848089E+03  0.00000000000E+00 0.  1.
         21    1    1    2  505  504 -0.59543329903E+02  0.51322870375E+02  0.91573581022E+03  0.91910364992E+03  0.00000000000E+00 0.  1.
         21    1    1    2  506  503 -0.38486437342E+01  0.95354037716E+02 -0.30538612605E+03  0.31994982505E+03  0.00000000000E+00 0. -1.
<scales pt_clust_3="41.38705" pt_clust_4="251.35774" pt_clust_5="78.60945" pt_clust_6="41.38705"></scales>
<clustering>
<clus scale="   41.387">  3  6 -1 -1</clus>
<clus scale="   78.609">  1  5  2 -1</clus>
<clus scale="  251.358">  1  4  2 -1</clus>
<clus scale="   78.609">  1  3  2 -1</clus>
</clustering>
</event>
<event>
 6    0  0.1704145E+002  0.1164374E+03  0.7546771E-02  0.1249093E+00
         21   -1    0    0  505  501  0.00000000000E+00  0.00000000000E+00  0.37123728320E+03  0.37123728320E+03  0.00000000000E+00 0. -1.
         21   -1    0    0  503  502 -0.00000000000E+00 -0.00000000000E+00 -0.57715377721E+03  0.57715377721E+03  0.00000000000E+00 0. -1.
         21    1    1    2  503  506  0.12667329244E+03 -0.83944218301E+02 -0.49659951199E+03  0.51933017447E+03  0.00000000000E+00 0. -1.
         21    1    1    2  504  502 -0.13139764827E+02  0.51837964604E+02 -0.24305230644E+02  0.58741571571E+02  0.00000000000E+00 0. -1.
         21    1    1    2  505  504 -0.66650578289E+02  0.46291959818E+02  0.31073094654E+03  0.32115255918E+03  0.00000000000E+00 0. -1.
         21    1    1    2  506  501 -0.46882949324E+02 -0.14185706121E+02  0.42573020844E+01  0.49166755196E+02  0.00000000000E+00 0. -1.
<scales pt_clust_3="14000.00000" pt_clust_4="53.42184" pt_clust_5="116.43738" pt_clust_6="48.98209"></scales>
<clustering>
<clus scale="   48.982">  1  6  2 -1</clus>
<clus scale="   53.422">  2  4  1 -1</clus>
<clus scale="  116.437">  1  5  2 -1</clus>
<clus scale="   48.982">  1  3  2 -1</clus>
</clustering>
</event>
<event>
 6    0  0.3585089E+002  0.5907677E+02  0.7546771E-02  0.1401747E+00
         21   -1    0    0  506  501  0.00000000000E+00  0.00000000000E+00  0.10420772797E+04  0.10420772797E+04  0.00000000000E+00 0.  1.
         21   -1    0    0  504  502 -0.00000000000E+00 -0.00000000000E+00 -0.54757212749E+03  0.54757212749E+03  0.00000000000E+00 0.  1.
         21    1    1    2  503  502 -0.54674873990E+02  0.19283474811E+02 -0.46674423051E+03  0.47033112906E+03  0.00000000000E+00 0.  1.
         21    1    1    2  504  505  0.85356716505E+02 -0.79321374893E+02  0.35311246191E+02  0.12175604164E+03  0.00000000000E+00 0.  1.
         21    1    1    2  505  501  0.24974640959E+02  0.47206502419E+02  0.93772307996E+03  0.93924265302E+03  0.00000000000E+00 0.  1.
         21    1    1    2  506  503 -0.55656483474E+02  0.12831397663E+02 -0.11784943476E+02  0.58319583430E+02  0.00000000000E+00 0.  1.
<scales pt_clust_3="14000.00000" pt_clust_4="59.07677" pt_clust_5="53.40587" pt_clust_6="55.26184"></scales>
<clustering>
<clus scale="   53.406">  1  5  2 -1</clus>
<clus scale="   55.262">  1  6  2 -1</clus>
<clus scale="   59.077">  1  4  2 -1</clus>
<clus scale="   53.406">  1  3  2 -1</clus>
</clustering>
</event>
<event>
 6    0  0.1704145E+002  0.8587806E+02  0.7546771E-02  0.1313152E+00
         21   -1    0    0  505  501  0.00000000000E+00  0.00000000000E+00  0.16383952656E+04  0.16383952656E+04  0.00000000000E+00 0.  1.
         21   -1    0    0  503  502 -0.00000000000E+00 -0.00000000000E+00 -0.92699664666E+02  0.92699664666E+02  0.00000000000E+00 0. -1.
         21    1    1    2  503  504  0.50079088354E+02  0.20143454479E+02  0.91894964625E+02  0.10657559933E+03  0.00000000000E+00 0. -1.
         21    1    1    2  504  501  0.62318425938E+02  0.16358018269E+02  0.14081115458E+04  0.14095847957E+04  0.00000000000E+00 0.  1.
         21    1    1    2  505  506 -0.10062419904E+03 -0.96729379595E+02  0.59989029962E+02  0.15192263171E+03  0.00000000000E+00 0. -1.
         21    1    1    2  506  502 -0.11773315251E+02  0.60227906847E+02 -0.14299939437E+02  0.63011903503E+02  0.00000000000E+00 0. -1.
<scales pt_clust_3="53.97846" pt_clust_4="64.89175" pt_clust_5="14000.00000" pt_clust_6="85.87806"></scales>
<clustering>
<clus scale="   53.978">  2  3  1 -1</clus>
<clus scale="   64.892">  1  4  2 -1</clus>
<clus scale="   85.878">  2  6  1 -1</clus>
<clus scale="   64.892">  1  3  2 -1</clus>
</clustering>
</event>
<event>
 6    0  0.1704145E+002  0.1006395E+03  0.7546771E-02  0.1278957E+00
         21   -1    0    0  504  501  0.00000000000E+00  0.00000000000E+00  0.16091205141E+03  0.16091205141E+03  0.00000000000E+00 0.  1.
         21   -1    0    0  506  502 -0.00000000000E+00 -0.00000000000E+00 -0.22242919945E+04  0.22242919945E+04  0.00000000000E+00 0. -1.
         21    1    1    2  503  502 -0.31204903347E+02  0.19867275928E+02 -0.83838085157E+03  0.83919658419E+03  0.00000000000E+00 0. -1.
         21    1    1    2  504  505  0.73749532681E+01 -0.30284613206E+02  0.15140040599E+03  0.15457564707E+03  0.00000000000E+00 0.  1.
         21    1    1    2  505  503 -0.63281374898E+02  0.70569143937E+02 -0.77645146255E+03  0.78221570566E+03  0.00000000000E+00 0. -1.
         21    1    1    2  506  501  0.87111324976E+02 -0.60151806659E+02 -0.59994803498E+03  0.60921610900E+03  0.00000000000E+00 0.  1.
<scales pt_clust_3="35.85246" pt_clust_4="31.16966" pt_clust_5="100.63951" pt_clust_6="14000.00000"></scales>
<clustering>
<clus scale="   31.170">  1  4  2 -1</clus>
<clus scale="   35.852">  2  3  1 -1</clus>
<clus scale="  100.640">  1  5  2 -1</clus>
<clus scale="   31.170">  1  3  2 -1</clus>
</clustering>
</event>
<event>
 6    0  0.1704145E+002  0.1176548E+03  0.7546771E-02  0.1247017E+00
         21   -1    0    0  504  501  0.00000000000E+00  0.00000000000E+00  0.10212125858E+04  0.10212125858E+04  0.00000000000E+00 0.  1.
         21   -1    0    0  503  502 -0.00000000000E+00 -0.00000000000E+00 -0.78808264087E+02  0.78808264087E+02  0.00000000000E+00 0.  1.
         21    1    1    2  503  505  0.56418063632E+02  0.34579697322E+02  0.26945019862E+02  0.71447795391E+02  0.00000000000E+00 0.  1.
         21    1    1    2  504  502 -0.11899477412E+02  0.41494765920E+02  0.22667094153E+02  0.48756643842E+02  0.00000000000E+00 0.  1.
         21    1    1    2  505  506  0.77507736113E+02 -0.65644343483E+02  0.26582658439E+02  0.10499174595E+03  0.00000000000E+00 0.  1.
         21    1    1    2  506  501 -0.12202632233E+03 -0.10430119759E+02  0.86620954927E+03  0.87482466471E+03  0.00000000000E+00 0.  1.
<scales pt_clust_3="71.47568" pt_clust_4="43.16727" pt_clust_5="14000.00000" pt_clust_6="117.65485"></scales>
<clustering>
<clus scale="   43.167">  2  4  1 -1</clus>
<clus scale="   71.476">  2  3  1 -1</clus>
<clus scale="  117.655">  1  6  2 -1</clus>
<clus scale="  117.655">  1  3  2 -1</clus>
</clustering>
</event>
<event>
 6    0  0.1704145E+002  0.1149790E+03  0.7546771E-02  0.1251618E+00
         21   -1    0    0  502  501  0.00000000000E+00  0.00000000000E+00  0.43949774573E+02  0.43949774573E+02  0.00000000000E+00 0.  1.
         21   -1    0    0  506  502 -0.00000000000E+00 -0.00000000000E+00 -0.59977465628E+03  0.59977465628E+03  0.00000000000E+00 0.  1.
         21    1    1    2  503  504 -0.13850349316E+02 -0.40702547899E+02 -0.10348501530E+03  0.11206104574E+03  0.00000000000E+00 0.  1.
         21    1    1    2  504  501  0.22424352989E+02  0.10570325428E+03 -0.63279363468E+02  0.12522103423E+03  0.00000000000E+00 0.  1.
         21    1    1    2  505  503 -0.44662921386E+02 -0.43289784759E+02 -0.31642144711E+03  0.32247684289E+03  0.00000000000E+00 0.  1.
         21    1    1    2  506  505  0.36088917712E+02 -0.21710921625E+02 -0.72639055832E+02  0.83965507988E+02  0.00000000000E+00 0.  1.
<scales pt_clust_3="37.39686" pt_clust_4="105.81562" pt_clust_5="37.39686" pt_clust_6="42.11620"></scales>
<clustering>
<clus scale="   37.397">  3  5 -1 -1</clus>
<clus scale="   42.116">  2  6  1 -1</clus>
<clus scale="  105.816">  1  4  2 -1</clus>
<clus scale="  105.816">  1  3  2 -1</clus>
</clustering>
</event>
<event>
 6    0  0.1704145E+002  0.2039577E+03  0.7546771E-02  0.1146442E+00
         21   -1    0    0  506  501  0.00000000000E+00  0.00000000000E+00  0.37576416660E+03  0.37576416660E+03  0.00000000000E+00 0. -1.
         21   -1    0    0  503  502 -0.00000000000E+00 -0.00000000000E+00 -0.52422134983E+03  0.52422134983E+03  0.00000000000E+00 0. -1.
         21    1    1    2  503  505  0.31408294719E+02 -0.57220087532E+01 -0.74939253995E+01  0.32793006560E+02  0.00000000000E+00 0. -1.
         21    1    1    2  504  502  0.65311446485E+02  0.20695562343E+03 -0.30858958054E+03  0.37725819319E+03  0.00000000000E+00 0. -1.
         21    1    1    2  505  501 -0.73940752239E+02 -0.16607895509E+02  0.26803358414E+03  0.27854094719E+03  0.00000000000E+00 0. -1.
         21    1    1    2  506  504 -0.22778988965E+02 -0.18462571917E+03 -0.10040726144E+03  0.21139336949E+03  0.00000000000E+00 0. -1.
<scales pt_clust_3="31.92526" pt_clust_4="203.95769" pt_clust_5="75.47675" pt_clust_6="14000.00000"></scales>
<clustering>
<clus scale="   31.925">  2  3  1 -1</clus>
<clus scale="   75.477">  1  5  2 -1</clus>
<clus scale="  203.958">  2  4  1 -1</clus>
<clus scale="   75.477">  1  3  2 -1</clus>
</clustering>
</event>
<event>
 6    0  0.1704145E+002  0.6362708E+02  0.7546771E-02  0.1383212E+00
         21   -1    0    0  506  501  0.00000000000E+00  0.00000000000E+00  0.10616888177E+04  0.10616888177E+04  0.00000000000E+00 0. -1.
         21   -1    0    0  503  502 -0.00000000000E+00 -0.00000000000E+00 -0.28988942028E+03  0.28988942028E+03  0.00000000000E+00 0.  1.
         21    1    1    2  503  504  0.64476422657E+02  0.21812857629E+02 -0.16686978509E+02  0.70081845640E+02  0.00000000000E+00 0. -1.
         21    1    1    2  504  501 -0.70414754244E+02 -0.74807595846E+02 -0.21526222803E+03  0.23852094421E+03  0.00000000000E+00 0.  1.
         21    1    1    2  505  502 -0.33429527875E+02  0.32261148094E+01 -0.34666032545E+01  0.33763271300E+02  0.00000000000E+00 0.  1.
         21    1    1    2  506  505  0.39367859462E+02  0.49768623409E+02  0.10072152072E+04  0.10092121769E+04  0.00000000000E+00 0. -1.
<scales pt_clust_3="63.20557" pt_clust_4="63.62708" pt_clust_5="33.58484" pt_clust_6="14000.00000"></scales>
<clustering>
<clus scale="   33.585">  2  5  1 -1</clus>
<clus scale="   63.206">  2  3  1 -1</clus>
<clus scale="   63.627">  2  4  1 -1</clus>
<clus scale="   63.627">  1  3  2 -1</clus>
</clustering>
</event>
<event>
 6    0  0.1704145E+002  0.1649312E+03  0.7546771E-02  0.1183239E+00
         21   -1    0    0  504  501  0.00000000000E+00  0.00000000000E+00  0.15371601863E+03  0.15371601863E+03  0.00000000000E+00 0. -1.
         21   -1    0    0  503  502 -0.00000000000E+00 -0.00000000000E+00 -0.30261607838E+04  0.30261607838E+04  0.00000000000E+00 0. -1.
         21    1    1    2  503  506 -0.21444299847E+02  0.23392157961E+02 -0.39271683274E+03  0.39399690579E+03  0.00000000000E+00 0. -1.
         21    1    1    2  504  505  0.15470160771E+03 -0.62779002693E+02  0.10044948601E+03  0.19484324429E+03  0.00000000000E+00 0. -1.
         21    1    1    2  505  502 -0.57658910448E+02  0.34869992800E+02 -0.22945607243E+04  0.22955499088E+04  0.00000000000E+00 0. -1.
         21    1    1    2  506  501 -0.75598397415E+02  0.45168519318E+01 -0.28561669417E+03  0.29548674358E+03  0.00000000000E+00 0. -1.
<scales pt_clust_3="31.73407" pt_clust_4="14000.00000" pt_clust_5="164.93121" pt_clust_6="78.28742"></scales>
<clustering>
<clus scale="   31.734">  2  3  1 -1</clus>
<clus scale="   78.287">  2  6  1 -1</clus>
<clus scale="  164.931">  2  5  1 -1</clus>
<clus scale="  164.931">  1  3  2 -1</clus>
</clustering>
</event>
<event>
 6    0  0.1704145E+002  0.7730772E+02  0.7546771E-02  0.1336870E+00
         21   -1    0    0  504  501  0.00000000000E+00  0.00000000000E+00  0.25863452736E+03  0.25863452736E+03  0.00000000000E+00 0.  1.
         21   -1    0    0  506  502 -0.00000000000E+00 -0.00000000000E+00 -0.17718929554E+03  0.17718929554E+03  0.00000000000E+00 0.  1.
         21    1    1    2  503  501 -0.36671156058E+02 -0.22313936034E+02  0.13147116129E+03  0.13830166911E+03  0.00000000000E+00 0.  1.
         21    1    1    2  504  502 -0.88889315230E+01  0.69445161500E+02 -0.14613690414E+02  0.71520650912E+02  0.00000000000E+00 0.  1.
         21    1    1    2  505  503 -0.35750372211E+01 -0.10467432496E+03  0.46407852532E+02  0.11455646631E+03  0.00000000000E+00 0.  1.
         21    1    1    2  506  505  0.49135124802E+02  0.57543099494E+02 -0.81820091582E+02  0.11144503657E+03  0.00000000000E+00 0.  1.
<scales pt_clust_3="42.92651" pt_clust_4="66.60604" pt_clust_5="77.30772" pt_clust_6="14000.00000"></scales>
<clustering>
<clus scale="   42.927">  1  3  2 -1</clus>
<clus scale="   66.606">  1  4  2 -1</clus>
<clus scale="   77.308">  1  5  2 -1</clus>
<clus scale="   42.927">  1  3  2 -1</clus>
</clustering>
</event>
<event>
 6    0  0.1704145E+002  0.1291432E+03  0.7546771E-02  0.1228733E+00
         21   -1    0    0  503  501  0.00000000000E+00  0.00000000000E+00  0.42501158335E+02  0.42501158335E+02  0.00000000000E+00 0. -1.
         21   -1    0    0  506  502 -0.00000000000E+00 -0.00000000000E+00 -0.78044101623E+03  0.78044101623E+03  0.00000000000E+00 0. -1.
         21    1    1    2  503  502  0.70237440529E+02 -0.85246435508E+02 -0.23963011647E+03  0.26386141350E+03  0.00000000000E+00 0. -1.
         21    1    1    2  504  501  0.74238695623E+02  0.51124096622E+02 -0.12020023526E+03  0.15024364792E+03  0.00000000000E+00 0.  1.
         21    1    1    2  505  504 -0.76596370956E+02  0.23865258546E+02 -0.14366824915E+03  0.16455126989E+03  0.00000000000E+00 0. -1.
         21    1    1    2  506  505 -0.67879765196E+02  0.10257080340E+02 -0.23444125701E+03  0.24428584325E+03  0.00000000000E+00 0. -1.
<scales pt_clust_3="120.55986" pt_clust_4="90.13910" pt_clust_5="42.82519" pt_clust_6="42.82519"></scales>
<clustering>
<clus scale="   42.825">  5  6 -1 -1</clus>
<clus scale="   90.139">  1  4  2 -1</clus>
<clus scale="  120.560">  2  3  1 -1</clus>
<clus scale="   90.139">  1  3  2 -1</clus>
</clustering>
</event>
<event>
 6    0  0.1704145E+002  0.1507033E+03  0.7546771E-02  0.1199611E+00
         21   -1    0    0  504  501  0.00000000000E+00  0.00000000000E+00  0.14270985476E+03  0.14270985476E+03  0.00000000000E+00 0. -1.
         21   -1    0    0  501  502 -0.00000000000E+00 -0.00000000000E+00 -0.26790466987E+03  0.26790466987E+03  0.00000000000E+00 0. -1.
         21    1    1    2  503  506 -0.77412650164E+02  0.21191941258E+01  0.28449567795E+01  0.77493891167E+02  0.00000000000E+00 0. -1.
         21    1    1    2  504  505  0.67596210923E+01  0.60241338957E+02  0.20278074280E+02  0.63921136513E+02  0.00000000000E+00 0. -1.
         21    1    1    2  505  503 -0.58374020255E+02  0.24783499557E+02 -0.17363187160E+02  0.65751261276E+02  0.00000000000E+00 0. -1.
         21    1    1    2  506  502  0.12902704933E+03 -0.87144032640E+02 -0.13095465901E+03  0.20344823567E+03  0.00000000000E+00 0. -1.
<scales pt_clust_3="30.64264" pt_clust_4="60.61940" pt_clust_5="30.64264" pt_clust_6="146.84979"></scales>
<clustering>
<clus scale="   30.643">  3  5 -1 -1</clus>
<clus scale="   60.619">  1  4  2 -1</clus>
<clus scale="  146.850">  2  6  1 -1</clus>
<clus scale="   60.619">  1  3  2 -1</clus>
</clustering>
</event>
<event>
 6    0  0.1704145E+002  0.1531468E+03  0.7546771E-02  0.1196659E+00
         21   -1    0    0  506  501  0.00000000000E+00  0.00000000000E+00  0.40852700247E+03  0.40852700247E+03  0.00000000000E+00 0. -1.
         21   -1    0    0  505  502 -0.00000000000E+00 -0.00000000000E+00 -0.90613985915E+02  0.90613985915E+02  0.00000000000E+00 0. -1.
         21    1    1    2  503  502  0.78951087329E+01  0.58680929915E+02 -0.15102545245E+01  0.59228921536E+02  0.00000000000E+00 0. -1.
         21    1    1    2  504  503  0.55651415485E+02  0.82444093565E+02  0.30833716502E+02  0.10413849760E+03  0.00000000000E+00 0. -1.
         21    1    1    2  505  501 -0.74334194620E+02 -0.10317537016E+03  0.25052711705E+03  0.28095296025E+03  0.00000000000E+00 0. -1.
         21    1    1    2  506  504  0.10787670403E+02 -0.37949653322E+02  0.38062437527E+02  0.54820608994E+02  0.00000000000E+00 0.  1.
<scales pt_clust_3="33.40475" pt_clust_4="33.40475" pt_clust_5="146.89908" pt_clust_6="39.45314"></scales>
<clustering>
<clus scale="   33.405">  3  4 -1 -1</clus>
<clus scale="   39.453">  1  6  2 -1</clus>
<clus scale="  146.899">  1  5  2 -1</clus>
<clus scale="   39.453">  1  3  2 -1</clus>
</clustering>
</event>
<event>
 6    0  0.1704145E+002  0.7387751E+02  0.7546771E-02  0.1347383E+00
         21   -1    0    0  506  501  0.00000000000E+00  0.00000000000E+00  0.13763530483E+03  0.13763530483E+03  0.00000000000E+00 0. -1.
         21   -1    0    0  505  502 -0.00000000000E+00 -0.00000000000E+00 -0.13405949757E+04  0.13405949757E+04  0.00000000000E+00 0.  1.
         21    1    1    2  503  502  0.39509059044E+02  0.39660627788E+02 -0.84202356843E+03  0.84388246868E+03  0.00000000000E+00 0.  1.
         21    1    1    2  504  503 -0.11219299861E+03  0.44602485636E+01 -0.32351658587E+03  0.34244728658E+03  0.00000000000E+00 0.  1.
         21    1    1    2  505  501  0.25179982083E+02 -0.31954574910E+02  0.12016367298E+03  0.12686384300E+03  0.00000000000E+00 0. -1.
         21    1    1    2  506  504  0.47503957485E+02 -0.12166301441E+02 -0.15758318952E+03  0.16503668224E+03  0.00000000000E+00 0.  1.
<scales pt_clust_3="55.72459" pt_clust_4="14000.00000" pt_clust_5="40.68324" pt_clust_6="73.87751"></scales>
<clustering>
<clus scale="   40.683">  1  5  2 -1</clus>
<clus scale="   55.725">  2  3  1 -1</clus>
<clus scale="   73.878">  1  6  2 -1</clus>
<clus scale="   40.683">  1  3  2 -1</clus>
</clustering>
</event>
<event>
 6    0  0.1704145E+002  0.1905075E+03  0.7546771E-02  0.1158004E+00
         21   -1    0    0  505  501  0.00000000000E+00  0.00000000000E+00  0.17304063057E+03  0.17304063057E+03  0.00000000000E+00 0. -1.
         21   -1    0    0  503  502 -0.00000000000E+00 -0.00000000000E+00 -0.10503095026E+04  0.10503095026E+04  0.00000000000E+00 0.  1.
         21    1    1    2  503  506 -0.40074088364E+02 -0.28778903802E+02 -0.18727625094E+03  0.19366608383E+03  0.00000000000E+00 0. -1.
         21    1    1    2  504  501 -0.47073453849E+01 -0.37011394515E+02  0.11133974018E+03  0.11742461483E+03  0.00000000000E+00 0. -1.
         21    1    1    2  505  502  0.14443352559E+03  0.18850397574E+03 -0.65548442985E+03  0.69717618287E+03  0.00000000000E+00 0.  1.
         21    1    1    2  506  504 -0.99652091836E+02 -0.12271367742E+03 -0.14584793139E+03  0.21508325162E+03  0.00000000000E+00 0. -1.
<scales pt_clust_3="50.74314" pt_clust_4="37.30955" pt_clust_5="190.50749" pt_clust_6="14000.00000"></scales>
<clustering>
<clus scale="   37.310">  1  4  2 -1</clus>
<clus scale="   50.743">  2  3  1 -1</clus>
<clus scale="  190.507">  2  5  1 -1</clus>
<clus scale="   37.310">  1  3  2 -1</clus>
</clustering>
</event>
<event>
 6    0  0.1704145E+002  0.7647332E+02  0.7546771E-02  0.1339368E+00
         21   -1    0    0  504  501  0.00000000000E+00  0.00000000000E+00  0.95761567492E+03  0.95761567492E+03  0.00000000000E+00 0.  1.
         21   -1    0    0  503  502 -0.00000000000E+00 -0.00000000000E+00 -0.26989959261E+03  0.26989959261E+03  0.00000000000E+00 0. -1.
         21    1    1    2  503  505 -0.13596933150E+02 -0.31471663068E+02 -0.94997881709E+01  0.35575105658E+02  0.00000000000E+00 0.  1.
         21    1    1    2  504  506 -0.73070457919E+02 -0.49692109158E+02  0.85978406585E+02  0.12329186482E+03  0.00000000000E+00 0.  1.
         21    1    1    2  505  501  0.44000210271E+02 -0.17574917705E+02  0.82657976500E+03  0.82793659428E+03  0.00000000000E+00 0.  1.
         21    1    1    2  506  502  0.42667180798E+02  0.98738689930E+02 -0.21534230110E+03  0.24071170277E+03  0.00000000000E+00 0. -1.
<scales pt_clust_3="34.28326" pt_clust_4="76.47332" pt_clust_5="47.37782" pt_clust_6="14000.00000"></scales>
<clustering>
<clus scale="   34.283">  2  3  1 -1</clus>
<clus scale="   47.378">  1  5  2 -1</clus>
<clus scale="   76.473">  1  4  2 -1</clus>
<clus scale="   47.378">  1  3  2 -1</clus>
</clustering>
</event>
<event>
 6    0  0.1704145E+002  0.1247970E+03  0.7546771E-02  0.1235387E+00
         21   -1    0    0  504  501  0.00000000000E+00  0.00000000000E+00  0.17226884596E+03  0.17226884596E+03  0.00000000000E+00 0.  1.
         21   -1    0    0  506  502 -0.00000000000E+00 -0.00000000000E+00 -0.16095881343E+03  0.16095881343E+03  0.00000000000E+00 0.  1.
         21    1    1    2  503  502 -0.49606150200E+02  0.91746673165E+02 -0.17695530153E+02  0.10578919587E+03  0.00000000000E+00 0.  1.
         21    1    1    2  504  503  0.31732504738E+02  0.41341665027E+02  0.62332086407E+02  0.81248840730E+02  0.00000000000E+00 0.  1.
         21    1    1    2  505  501  0.33047628723E+02 -0.73931665292E+02 -0.14397388563E+02  0.82251575635E+02  0.00000000000E+00 0.  1.
         21    1    1    2  506  505 -0.15173983261E+02 -0.59156672900E+02 -0.18929135162E+02  0.63938047160E+02  0.00000000000E+00 0.  1.
<scales pt_clust_3="115.52279" pt_clust_4="52.11607" pt_clust_5="40.99775" pt_clust_6="40.99775"></scales>
<clustering>
<clus scale="   40.998">  5  6 -1 -1</clus>
<clus scale="   52.116">  1  4  2 -1</clus>
<clus scale="  115.523">  2  3  1 -1</clus>
<clus scale="   52.116">  1  3  2 -1</clus>
</clustering>
</event>
<event>
 6    0  0.1704145E+002  0.1314060E+03  0.7546771E-02  0.1225384E+00
         21   -1    0    0  503  501  0.00000000000E+00  0.00000000000E+00  0.16268416657E+03  0.16268416657E+03  0.00000000000E+00 0.  1.
         21   -1    0    0  506  502 -0.00000000000E+00 -0.00000000000E+00 -0.26060247711E+03  0.26060247711E+03  0.00000000000E+00 0.  1.
         21    1    1    2  503  505  0.55505793572E+02  0.12494581358E+01  0.55890866867E+01  0.55800467342E+02  0.00000000000E+00 0.  1.
         21    1    1    2  504  501 -0.81499216499E+02  0.13627142778E+03  0.12517956331E+02  0.15927562133E+03  0.00000000000E+00 0.  1.
         21    1    1    2  505  502  0.47093410616E+02 -0.38489104117E+02 -0.10062474908E+02  0.61647821214E+02  0.00000000000E+00 0. -1.
         21    1    1    2  506  504 -0.21099987688E+02 -0.99031781796E+02 -0.10596287865E+03  0.14656273380E+03  0.00000000000E+00 0.  1.
<scales pt_clust_3="41.21312" pt_clust_4="124.12428" pt_clust_5="41.21312" pt_clust_6="101.25465"></scales>
<clustering>
<clus scale="   41.213">  3  5 -1 -1</clus>
<clus scale="  101.255">  2  6  1 -1</clus>
<clus scale="  124.124">  2  4  1 -1</clus>
<clus scale="  131.406">  1  3  2 -1</clus>
</clustering>
</event>
<event>
 6    0  0.1704145E+002  0.7591458E+02  0.7546771E-02  0.1341062E+00
         21   -1    0    0  503  501  0.00000000000E+00  0.00000000000E+00  0.67623571229E+03  0.67623571229E+03  0.00000000000E+00 0.  1.
         21   -1    0    0  504  502 -0.00000000000E+00 -0.00000000000E+00 -0.31370994892E+03  0.31370994892E+03  0.00000000000E+00 0.  1.
         21    1    1    2  503  506  0.90571541178E+02  0.20007735027E+02 -0.10912945116E+02  0.93394892277E+02  0.00000000000E+00 0.  1.
         21    1    1    2  504  505 -0.55029152136E+02  0.34836746268E+02 -0.57483372246E+02  0.86868547588E+02  0.00000000000E+00 0.  1.
         21    1    1    2  505  501 -0.46236720110E+02  0.47849821802E+02  0.60426602352E+03  0.60791847061E+03  0.00000000000E+00 0.  1.
         21    1    1    2  506  502  0.10694331068E+02 -0.10269430310E+03 -0.17334394279E+03  0.20176375072E+03  0.00000000000E+00 0.  1.
<scales pt_clust_3="14000.00000" pt_clust_4="65.12915" pt_clust_5="67.01765" pt_clust_6="75.91458"></scales>
<clustering>
<clus scale="   65.129">  2  4  1 -1</clus>
<clus scale="   67.018">  1  5  2 -1</clus>
<clus scale="   75.915">  2  6  1 -1</clus>
<clus scale="   67.018">  1  3  2 -1</clus>
</clustering>
</event>
<event>
 6    0  0.1704145E+002  0.1514829E+03  0.7546771E-02  0.1198663E+00
         21   -1    0    0  503  501  0.00000000000E+00  0.00000000000E+00  0.18743374441E+03  0.18743374441E+03  0.00000000000E+00 0. -1.
         21   -1    0    0  504  502 -0.00000000000E+00 -0.00000000000E+00 -0.37155510372E+03  0.37155510372E+03  0.00000000000E+00 0. -1.
         21    1    1    2  503  505  0.89133357842E+01 -0.15553100460E+03  0.12020669066E+03  0.19677141414E+03  0.00000000000E+00 0. -1.
         21    1    1    2  504  501 -0.24143655965E+02  0.72013948165E+02 -0.48944768089E+02  0.90357706793E+02  0.00000000000E+00 0.  1.
         21    1    1    2  505  506 -0.14862580785E+00  0.48932518976E+02 -0.19106093062E+03  0.19722751510E+03  0.00000000000E+00 0. -1.
         21    1    1    2  506  502  0.15378945989E+02  0.34584537455E+02 -0.64322351255E+02  0.74632212091E+02  0.00000000000E+00 0. -1.
<scales pt_clust_3="146.51632" pt_clust_4="75.95344" pt_clust_5="33.83505" pt_clust_6="33.83505"></scales>
<clustering>
<clus scale="   33.835">  5  6 -1 -1</clus>
<clus scale="   75.953">  2  4  1 -1</clus>
<clus scale="  146.516">  1  3  2 -1</clus>
<clus scale="  146.516">  1  3  2 -1</clus>
</clustering>
</event>
<event>
 6    0  0.1704145E+002  0.1552642E+03  0.7546771E-02  0.1194150E+00
         21   -1    0    0  505  501  0.00000000000E+00  0.00000000000E+00  0.25668405821E+03  0.25668405821E+03  0.00000000000E+00 0.  1.
         21   -1    0    0  503  502 -0.00000000000E+00 -0.00000000000E+00 -0.11983933611E+03  0.11983933611E+03  0.00000000000E+00 0.  1.
         21    1    1    2  503  501  0.10628876039E+03 -0.10839969927E+03  0.61144935762E+02  0.16366581365E+03  0.00000000000E+00 0.  1.
         21    1    1    2  504  506 -0.39724841296E+02  0.66551494447E+01  0.38079195633E+02  0.55429046268E+02  0.00000000000E+00 0.  1.
         21    1    1    2  505  504  0.14345173968E+02  0.42217287706E+02  0.35440317256E+02  0.56956996802E+02  0.00000000000E+00 0.  1.
         21    1    1    2  506  502 -0.80909093066E+02  0.59527262121E+02  0.21802734489E+01  0.10047153760E+03  0.00000000000E+00 0.  1.
<scales pt_clust_3="142.67261" pt_clust_4="38.78547" pt_clust_5="44.58793" pt_clust_6="38.78547"></scales>
<clustering>
<clus scale="   38.785">  4  6 -1 -1</clus>
<clus scale="   44.588">  1  5  2 -1</clus>
<clus scale="  142.673">  1  3  2 -1</clus>
<clus scale="   44.588">  1  3  2 -1</clus>
</clustering>
</event>
<event>
 6    0  0.1704145E+002  0.9250839E+02  0.7546771E-02  0.1296888E+00
         21   -1    0    0  505  501  0.00000000000E+00  0.00000000000E+00  0.65080546857E+02  0.65080546857E+02  0.00000000000E+00 0.  1.
         21   -1    0    0  504  502 -0.00000000000E+00 -0.00000000000E+00 -0.19762480463E+04  0.19762480463E+04  0.00000000000E+00 0. -1.
         21    1    1    2  503  506 -0.62322859575E+02  0.48086840954E+02 -0.17905141745E+03  0.19559113781E+03  0.00000000000E+00 0. -1.
         21    1    1    2  504  501  0.54949086840E+02  0.56361472132E+01  0.35562484355E+02  0.65695194600E+02  0.00000000000E+00 0.  1.
         21    1    1    2  505  503 -0.72742807532E+02 -0.25085435338E+01 -0.27926410662E+03  0.28859357250E+03  0.00000000000E+00 0. -1.
         21    1    1    2  506  502  0.80116580267E+02 -0.51214444633E+02 -0.14884144597E+04  0.14914486882E+04  0.00000000000E+00 0. -1.
<scales pt_clust_3="92.50839" pt_clust_4="55.23738" pt_clust_5="55.01062" pt_clust_6="14000.00000"></scales>
<clustering>
<clus scale="   55.237">  1  4  2 -1</clus>
<clus scale="   55.011">  1  5  2 -1</clus>
<clus scale="   92.508">  1  3  2 -1</clus>
<clus scale="   55.237">  1  3  2 -1</clus>
</clustering>
</event>
<event>
 6    0  0.1704145E+002  0.1245383E+03  0.7546771E-02  0.1235793E+00
         21   -1    0    0  505  501  0.00000000000E+00  0.00000000000E+00  0.17757682420E+04  0.17757682420E+04  0.00000000000E+00 0.  1.
         21   -1    0    0  503  502 -0.00000000000E+00 -0.00000000000E+00 -0.65980513797E+02  0.65980513797E+02  0.00000000000E+00 0.  1.
         21    1    1    2  503  501 -0.27940386707E+02  0.21707200727E+02  0.14947391378E+04  0.14951578371E+04  0.00000000000E+00 0.  1.
         21    1    1    2  504  502 -0.12968059220E+01  0.10729937231E+03  0.26827386065E+02  0.11060988042E+03  0.00000000000E+00 0.  1.
         21    1    1    2  505  506 -0.10533793591E+01 -0.98749884223E+02  0.14215531036E+03  0.17309182969E+03  0.00000000000E+00 0.  1.
         21    1    1    2  506  504  0.30290571988E+02 -0.30256688812E+02  0.46065893996E+02  0.62889208604E+02  0.00000000000E+00 0. -1.
<scales pt_clust_3="35.38174" pt_clust_4="112.90466" pt_clust_5="34.60558" pt_clust_6="34.60558"></scales>
<clustering>
<clus scale="   34.606">  5  6 -1 -1</clus>
<clus scale="   35.382">  1  3  2 -1</clus>
<clus scale="  112.905">  2  4  1 -1</clus>
<clus scale="   35.382">  1  3  2 -1</clus>
</clustering>
</event>
<event>
 6    0  0.1704145E+002  0.1218421E+03  0.7546771E-02  0.1240089E+00
         21   -1    0    0  505  501  0.00000000000E+00  0.00000000000E+00  0.90131068004E+03  0.90131068004E+03  0.00000000000E+00 0. -1.
         21   -1    0    0  504  502 -0.00000000000E+00 -0.00000000000E+00 -0.36223695014E+02  0.36223695014E+02  0.00000000000E+00 0. -1.
         21    1    1    2  503  501  0.28638226887E+02  0.40815482562E+02  0.72163021853E+02  0.87712903149E+02  0.00000000000E+00 0. -1.
         21    1    1    2  504  503  0.70703989308E+02  0.22084822995E+02  0.39476047615E+02  0.83935402817E+02  0.00000000000E+00 0. -1.
         21    1    1    2  505  506 -0.41222139793E+02  0.67255394049E+00  0.39890214289E+03  0.40102697757E+03  0.00000000000E+00 0. -1.
         21    1    1    2  506  502 -0.58120076401E+02 -0.63572859497E+02  0.35454577267E+03  0.36485909151E+03  0.00000000000E+00 0. -1.
<scales pt_clust_3="46.15828" pt_clust_4="46.15828" pt_clust_5="41.22763" pt_clust_6="108.03218"></scales>
<clustering>
<clus scale="   41.228">  1  5  2 -1</clus>
<clus scale="   46.158">  3  4 -1 -1</clus>
<clus scale="  108.032">  1  6  2 -1</clus>
<clus scale="   41.228">  1  3  2 -1</clus>
</clustering>
</event>
<event>
 6    0  0.1704145E+002  0.2075302E+03  0.7546771E-02  0.1143537E+00
         21   -1    0    0  504  501  0.00000000000E+00  0.00000000000E+00  0.23143743932E+04  0.23143743932E+04  0.00000000000E+00 0.  1.
         21   -1    0    0  505  502 -0.00000000000E+00 -0.00000000000E+00 -0.15324895558E+03  0.15324895558E+03  0.00000000000E+00 0.  1.
         21    1    1    2  503  506  0.31268644569E+02  0.49514532319E+02  0.18458456849E+01  0.58590307989E+02  0.00000000000E+00 0.  1.
         21    1    1    2  504  503 -0.20257145082E+03 -0.60207268655E+02  0.21685594783E+04  0.21788323292E+04  0.00000000000E+00 0.  1.
         21    1    1    2  505  501  0.13336903203E+03 -0.13497315838E+02 -0.72659757496E+02  0.15247595416E+03  0.00000000000E+00 0.  1.
         21    1    1    2  506  502  0.37933774231E+02  0.24190052174E+02  0.63379871114E+02  0.77724757407E+02  0.00000000000E+00 0.  1.
<scales pt_clust_3="66.57190" pt_clust_4="207.53022" pt_clust_5="14000.00000" pt_clust_6="44.99033"></scales>
<clustering>
<clus scale="   44.990">  2  6  1 -1</clus>
<clus scale="   66.572">  2  3  1 -1</clus>
<clus scale="  207.530">  1  4  2 -1</clus>
<clus scale="  207.530">  1  3  2 -1</clus>
</clustering>
</event>
<event>
 6    0  0.1704145E+002  0.9221458E+02  0.7546771E-02  0.1297576E+00
         21   -1    0    0  506  501  0.00000000000E+00  0.00000000000E+00  0.78813705698E+03  0.78813705698E+03  0.00000000000E+00 0.  1.
         21   -1    0    0  505  502 -0.00000000000E+00 -0.00000000000E+00 -0.50272477482E+03  0.50272477482E+03  0.00000000000E+00 0.  1.
         21    1    1    2  503  501  0.68725661528E+01  0.52308457347E+02 -0.20058200686E+02  0.56442344833E+02  0.00000000000E+00 0.  1.
         21    1    1    2  504  502 -0.37212629215E+02 -0.27717271521E+02 -0.13722626940E+01  0.46421008375E+02  0.00000000000E+00 0.  1.
         21    1    1    2  505  503  0.41170535666E+02  0.70161131109E+02 -0.43373885761E+03  0.44130147737E+03  0.00000000000E+00 0.  1.
         21    1    1    2  506  504 -0.10830472603E+02 -0.94752316934E+02  0.74058160315E+03  0.74669700122E+03  0.00000000000E+00 0.  1.
<scales pt_clust_3="14000.00000" pt_clust_4="46.40072" pt_clust_5="45.40441" pt_clust_6="92.21458"></scales>
<clustering>
<clus scale="   46.401">  2  4  1 -1</clus>
<clus scale="   45.404">  2  5  1 -1</clus>
<clus scale="   92.215">  1  6  2 -1</clus>
<clus scale="   92.215">  1  3  2 -1</clus>
</clustering>
</event>
<event>
 6    0  0.1704145E+002  0.1263326E+03  0.7546771E-02  0.1233001E+00
         21   -1    0    0  506  501  0.00000000000E+00  0.00000000000E+00  0.92298098150E+03  0.92298098150E+03  0.00000000000E+00 0. -1.
         21   -1    0    0  504  502 -0.00000000000E+00 -0.00000000000E+00 -0.13054908595E+03  0.13054908595E+03  0.00000000000E+00 0.  1.
         21    1    1    2  503  502  0.38002122017E+02 -0.24994526319E+01 -0.32620554880E+02  0.50144881513E+02  0.00000000000E+00 0.  1.
         21    1    1    2  504  501  0.76808812648E+02  0.27590017678E+02  0.22766632548E+02  0.84729701601E+02  0.00000000000E+00 0. -1.
         21    1    1    2  505  503  0.19518622796E+02 -0.43857501768E+02 -0.41854009528E+02  0.63688422894E+02  0.00000000000E+00 0.  1.
         21    1    1    2  506  505 -0.13432955746E+03  0.18766936722E+02  0.84413982741E+03  0.85496706144E+03  0.00000000000E+00 0. -1.
<scales pt_clust_3="38.08423" pt_clust_4="126.33263" pt_clust_5="61.80783" pt_clust_6="14000.00000"></scales>
<clustering>
<clus scale="   38.084">  2  3  1 -1</clus>
<clus scale="   61.808">  2  5  1 -1</clus>
<clus scale="  126.333">  2  4  1 -1</clus>
<clus scale="  126.333">  1  3  2 -1</clus>
</clustering>
</event>
<event>
 6    0  0.1704145E+002  0.2717401E+03  0.7546771E-02  0.1100288E+00
         21   -1    0    0  505  501  0.00000000000E+00  0.00000000000E+00  0.61770504839E+03  0.61770504839E+03  0.00000000000E+00 0.  1.
         21   -1    0    0  503  502 -0.00000000000E+00 -0.00000000000E+00 -0.12287010956E+04  0.12287010956E+04  0.00000000000E+00 0. -1.
         21    1    1    2  503  501  0.70421198364E+02  0.23979027883E+03 -0.42893858039E+03  0.49643411320E+03  0.00000000000E+00 0. -1.
         21    1    1    2  504  502  0.22243071296E+02 -0.83043175803E+02 -0.34220343200E+03  0.35283723179E+03  0.00000000000E+00 0. -1.
         21    1    1    2  505  506 -0.20323345483E+03  0.15031374515E+02  0.53374722021E+03  0.57132816705E+03  0.00000000000E+00 0.  1.
         21    1    1    2  506  504  0.11056918517E+03 -0.17177847754E+03 -0.37360125507E+03  0.42580663199E+03  0.00000000000E+00 0. -1.
<scales pt_clust_3="250.01193" pt_clust_4="69.07135" pt_clust_5="203.78857" pt_clust_6="69.07135"></scales>
<clustering>
<clus scale="   69.071">  4  6 -1 -1</clus>
<clus scale="  203.789">  1  5  2 -1</clus>
<clus scale="  250.012">  1  3  2 -1</clus>
<clus scale="  203.789">  1  3  2 -1</clus>
</clustering>
</event>
<event>
 6    0  0.1704145E+002  0.1848982E+03  0.7546771E-02  0.1163145E+00
         21   -1    0    0  503  501  0.00000000000E+00  0.00000000000E+00  0.12126847105E+03  0.12126847105E+03  0.00000000000E+00 0.  1.
         21   -1    0    0  504  502 -0.00000000000E+00 -0.00000000000E+00 -0.15149009584E+04  0.15149009584E+04  0.00000000000E+00 0.  1.
         21    1    1    2  503  505 -0.12410266133E+03 -0.12445246426E+03  0.45204377660E+02  0.18147540376E+03  0.00000000000E+00 0.  1.
         21    1    1    2  504  506  0.78933221268E+02  0.85742490236E+02 -0.51901589135E+03  0.53193958635E+03  0.00000000000E+00 0.  1.
         21    1    1    2  505  502  0.35400618227E+02  0.35816133529E+01 -0.54652284359E+03  0.54767987939E+03  0.00000000000E+00 0.  1.
         21    1    1    2  506  501  0.97688218357E+01  0.35128360666E+02 -0.37329813010E+03  0.37507455998E+03  0.00000000000E+00 0.  1.
<scales pt_clust_3="173.82405" pt_clust_4="35.25393" pt_clust_5="35.58134" pt_clust_6="35.25393"></scales>
<clustering>
<clus scale="   35.254">  4  6 -1 -1</clus>
<clus scale="   35.581">  2  5  1 -1</clus>
<clus scale="  173.824">  1  3  2 -1</clus>
<clus scale="  173.824">  1  3  2 -1</clus>
</clustering>
</event>
<event>
 6    0  0.1704145E+002  0.1281689E+03  0.7546771E-02  0.1230198E+00
         21   -1    0    0  506  501  0.00000000000E+00  0.00000000000E+00  0.27641453535E+03  0.27641453535E+03  0.00000000000E+00 0.  1.
         21   -1    0    0  503  502 -0.00000000000E+00 -0.00000000000E+00 -0.29686622556E+03  0.29686622556E+03  0.00000000000E+00 0. -1.
         21    1    1    2  503  505  0.29276153442E+02 -0.88763605117E+01 -0.76980403121E+02  0.82836377281E+02  0.00000000000E+00 0. -1.
         21    1    1    2  504  502  0.21386236420E+02  0.27284614543E+02 -0.98770866402E+02  0.10467810348E+03  0.00000000000E+00 0. -1.
         21    1    1    2  505  501 -0.78554668065E+02 -0.91144293935E+02  0.24135674971E+03  0.26968722406E+03  0.00000000000E+00 0.  1.
         21    1    1    2  506  504  0.27892278203E+02  0.72736039903E+02 -0.86057170397E+02  0.11607905608E+03  0.00000000000E+00 0. -1.
<scales pt_clust_3="30.59220" pt_clust_4="33.49387" pt_clust_5="119.53010" pt_clust_6="33.49387"></scales>
<clustering>
<clus scale="   30.592">  2  3  1 -1</clus>
<clus scale="   33.494">  4  6 -1 -1</clus>
<clus scale="  119.530">  1  5  2 -1</clus>
<clus scale="  119.530">  1  3  2 -1</clus>
</clustering>
</event>
<event>
 6    0  0.1704145E+002  0.9597852E+02  0.7546771E-02  0.1288987E+00
         21   -1    0    0  505  501  0.00000000000E+00  0.00000000000E+00  0.30965299671E+02  0.30965299671E+02  0.00000000000E+00 0.  1.
         21   -1    0    0  503  502 -0.00000000000E+00 -0.00000000000E+00 -0.22478216432E+04  0.22478216432E+04  0.00000000000E+00 0. -1.
         21    1    1    2  503  506  0.34680089067E+02 -0.25043434424E+01 -0.81730067006E+03  0.81803995355E+03  0.00000000000E+00 0. -1.
         21    1    1    2  504  501 -0.10275011654E+03  0.70533086969E-01 -0.73700123812E+02  0.12644880258E+03  0.00000000000E+00 0.  1.
         21    1    1    2  505  502  0.26487817729E+02  0.53247574210E+02 -0.10068877222E+04  0.10086425501E+04  0.00000000000E+00 0. -1.
         21    1    1    2  506  504  0.41582209741E+02 -0.50813763854E+02 -0.31896782743E+03  0.32565563668E+03  0.00000000000E+00 0. -1.
<scales pt_clust_3="34.77039" pt_clust_4="14000.00000" pt_clust_5="95.97852" pt_clust_6="71.27328"></scales>
<clustering>
<clus scale="   34.770">  2  3  1 -1</clus>
<clus scale="   71.273">  2  6  1 -1</clus>
<clus scale="   95.979">  2  5  1 -1</clus>
<clus scale="   95.979">  1  3  2 -1</clus>
</clustering>
</event>
<event>
 6    0  0.1704145E+002  0.1113870E+03  0.7546771E-02  0.1258023E+00
         21   -1    0    0  504  501  0.00000000000E+00  0.00000000000E+00  0.55039104612E+03  0.55039104612E+03  0.00000000000E+00 0.  1.
         21   -1    0    0  505  502 -0.00000000000E+00 -0.00000000000E+00 -0.79771088570E+02  0.79771088570E+02  0.00000000000E+00 0.  1.
         21    1    1    2  503  501 -0.79669319950E+02  0.48728978673E+02  0.39723403404E+03  0.40806444553E+03  0.00000000000E+00 0.  1.
         21    1    1    2  504  506  0.21143112712E+02 -0.59590788346E+02  0.51431597194E+02  0.81506456559E+02  0.00000000000E+00 0.  1.
         21    1    1    2  505  503  0.17394200141E+02  0.65270576017E+02  0.25722813784E+02  0.72280491428E+02  0.00000000000E+00 0.  1.
         21    1    1    2  506  502  0.41132007097E+02 -0.54408766344E+02 -0.37684874626E+01  0.68310741181E+02  0.00000000000E+00 0.  1.
<scales pt_clust_3="95.43441" pt_clust_4="55.30478" pt_clust_5="67.54855" pt_clust_6="55.30478"></scales>
<clustering>
<clus scale="   55.305">  4  6 -1 -1</clus>
<clus scale="   67.549">  2  5  1 -1</clus>
<clus scale="   95.434">  1  3  2 -1</clus>
<clus scale="   95.434">  1  3  2 -1</clus>
</clustering>
</event>
<event>
 6    0  0.1704145E+002  0.1089375E+03  0.7546771E-02  0.1262550E+00
         21   -1    0    0  505  501  0.00000000000E+00  0.00000000000E+00  0.18790065845E+03  0.18790065845E+03  0.00000000000E+00 0. -1.
         21   -1    0    0  503  502 -0.00000000000E+00 -0.00000000000E+00 -0.28742890557E+03  0.28742890557E+03  0.00000000000E+00 0. -1.
         21    1    1    2  503  506  0.36767528712E+02  0.36647076987E+02 -0.10820739094E+03  0.12001541098E+03  0.00000000000E+00 0. -1.
         21    1    1    2  504  502 -0.12855428568E+02 -0.47149537708E+02 -0.45876089077E+02  0.67029519607E+02  0.00000000000E+00 0. -1.
         21    1    1    2  505  504 -0.95530035883E+02 -0.25736107831E+02  0.13975601854E+03  0.17123107113E+03  0.00000000000E+00 0. -1.
         21    1    1    2  506  501  0.71617935739E+02  0.36238568552E+02 -0.85200785644E+02  0.11705356229E+03  0.00000000000E+00 0. -1.
<scales pt_clust_3="33.50068" pt_clust_4="48.87066" pt_clust_5="100.65847" pt_clust_6="33.50068"></scales>
<clustering>
<clus scale="   33.501">  3  6 -1 -1</clus>
<clus scale="   48.871">  2  4  1 -1</clus>
<clus scale="  100.658">  1  5  2 -1</clus>
<clus scale="  100.658">  1  3  2 -1</clus>
</clustering>
</event>
<event>
 6    0  0.1704145E+002  0.1917989E+03  0.7546771E-02  0.1156849E+00
         21   -1    0    0  503  501  0.00000000000E+00  0.00000000000E+00  0.86840311545E+03  0.86840311545E+03  0.00000000000E+00 0.  1.
         21   -1    0    0  506  502 -0.00000000000E+00 -0.00000000000E+00 -0.19172976960E+03  0.19172976960E+03  0.00000000000E+00 0.  1.
         21    1    1    2  503  504 -0.21913117611E+01  0.19770778168E+03  0.95325005444E+01  0.19794958285E+03  0.00000000000E+00 0.  1.
         21    1    1    2  504  505  0.47507072611E+02  0.85413236444E+01 -0.52379838462E+02  0.71228671439E+02  0.00000000000E+00 0.  1.
         21    1    1    2  505  502  0.18166153625E+02 -0.24630582884E+02 -0.13248222637E+02  0.33349515045E+02  0.00000000000E+00 0.  1.
         21    1    1    2  506  501 -0.63481914474E+02 -0.18161852244E+03  0.73276890641E+03  0.75760511571E+03  0.00000000000E+00 0.  1.
<scales pt_clust_3="14000.00000" pt_clust_4="54.17526" pt_clust_5="30.60514" pt_clust_6="191.79886"></scales>
<clustering>
<clus scale="   30.605">  2  5  1 -1</clus>
<clus scale="   54.175">  2  4  1 -1</clus>
<clus scale="  191.799">  1  6  2 -1</clus>
<clus scale="  191.799">  1  3  2 -1</clus>
</clustering>
</event>
<event>
 6    0  0.1704145E+002  0.6154514E+02  0.7546771E-02  0.1391460E+00
         21   -1    0    0  506  501  0.00000000000E+00  0.00000000000E+00  0.11152734406E+03  0.11152734406E+03  0.00000000000E+00 0. -1.
         21   -1    0    0  504  502 -0.00000000000E+00 -0.00000000000E+00 -0.17707187586E+03  0.17707187586E+03  0.00000000000E+00 0. -1.
         21    1    1    2  503  501  0.23831799136E+01  0.40780894292E+02  0.94821300648E+00  0.40861473219E+02  0.00000000000E+00 0. -1.
         21    1    1    2  504  505 -0.50000875954E+02 -0.10829871830E+02 -0.29270782542E+02  0.58941941185E+02  0.00000000000E+00 0. -1.
         21    1    1    2  505  503  0.98723159749E+02  0.53617318214E+00 -0.69843701713E+02  0.12093259454E+03  0.00000000000E+00 0. -1.
         21    1    1    2  506  502 -0.51105463708E+02 -0.30487195644E+02  0.32621739457E+02  0.67863210979E+02  0.00000000000E+00 0. -1.
<scales pt_clust_3="40.85047" pt_clust_4="49.78432" pt_clust_5="14000.00000" pt_clust_6="61.54514"></scales>
<clustering>
<clus scale="   40.850">  1  3  2 -1</clus>
<clus scale="   49.784">  2  4  1 -1</clus>
<clus scale="   61.545">  1  6  2 -1</clus>
<clus scale="   40.850">  1  3  2 -1</clus>
</clustering>
</event>
<event>
 6    0  0.1704145E+002  0.1659061E+03  0.7546771E-02  0.1182186E+00
         21   -1    0    0  504  501  0.00000000000E+00  0.00000000000E+00  0.47813043594E+03  0.47813043594E+03  0.00000000000E+00 0. -1.
         21   -1    0    0  506  502 -0.00000000000E+00 -0.00000000000E+00 -0.11194075993E+03  0.11194075993E+03  0.00000000000E+00 0. -1.
         21    1    1    2  503  502  0.28994054899E+02  0.21252327604E+02 -0.28074133249E+02  0.45612208956E+02  0.00000000000E+00 0. -1.
         21    1    1    2  504  505  0.59767950399E+02 -0.45213829927E+02  0.55341103860E+02  0.93161881089E+02  0.00000000000E+00 0. -1.
         21    1    1    2  505  503  0.60492034719E+02 -0.23486850689E+02 -0.12925989821E+02  0.66166453982E+02  0.00000000000E+00 0. -1.
         21    1    1    2  506  501 -0.14925404002E+03  0.47448353011E+02  0.35184869521E+03  0.38513065184E+03  0.00000000000E+00 0. -1.
<scales pt_clust_3="35.94881" pt_clust_4="65.82231" pt_clust_5="65.82231" pt_clust_6="152.05462"></scales>
<clustering>
<clus scale="   35.949">  2  3  1 -1</clus>
<clus scale="   65.822">  4  5 -1 -1</clus>
<clus scale="  152.055">  1  6  2 -1</clus>
<clus scale="  152.055">  1  3  2 -1</clus>
</clustering>
</event>
<event>
 6    0  0.1704145E+002  0.1247907E+03  0.7546771E-02  0.1235397E+00
         21   -1    0    0  506  501  0.00000000000E+00  0.00000000000E+00  0.13106083416E+04  0.13106083416E+04  0.00000000000E+00 0.  1.
         21   -1    0    0  501  502 -0.00000000000E+00 -0.00000000000E+00 -0.33838549468E+02  0.33838549468E+02  0.00000000000E+00 0.  1.
         21    1    1    2  503  502  0.32970088631E+02 -0.54816280775E+01  0.54349237557E+02  0.63803719435E+02  0.00000000000E+00 0.  1.
         21    1    1    2  504  505 -0.20044997403E+02  0.10296411576E+03  0.34771417274E+03  0.36319217637E+03  0.00000000000E+00 0.  1.
         21    1    1    2  505  503  0.46732194555E+02  0.43913113283E+02  0.58046122611E+02  0.86496311346E+02  0.00000000000E+00 0.  1.
         21    1    1    2  506  504 -0.59657285783E+02 -0.14139560097E+03  0.81666025919E+03  0.83095468388E+03  0.00000000000E+00 0.  1.
<scales pt_clust_3="33.30283" pt_clust_4="14000.00000" pt_clust_5="99.78668" pt_clust_6="124.79070"></scales>
<clustering>
<clus scale="   33.303">  3  5 -1 -1</clus>
<clus scale="   99.787">  2  3  1 -1</clus>
<clus scale="  124.791">  1  6  2 -1</clus>
<clus scale="  124.791">  1  3  2 -1</clus>
</clustering>
</event>
<event>
 6    0  0.1704145E+002  0.8563179E+02  0.7546771E-02  0.1313789E+00
         21   -1    0    0  503  501  0.00000000000E+00  0.00000000000E+00  0.36630715814E+02  0.36630715814E+02  0.00000000000E+00 0. -1.
         21   -1    0    0  505  502 -0.00000000000E+00 -0.00000000000E+00 -0.16341110901E+04  0.16341110901E+04  0.00000000000E+00 0. -1.
         21    1    1    2  503  504  0.32544858056E+02  0.74479771978E+02 -0.49481378289E+02  0.95156770738E+02  0.00000000000E+00 0. -1.
         21    1    1    2  504  506 -0.56373127191E+02  0.83003857114E+02 -0.47219922895E+03  0.48274183741E+03  0.00000000000E+00 0. -1.
         21    1    1    2  505  501 -0.20427420054E+02 -0.11726517943E+03 -0.50122773752E+03  0.51516759084E+03  0.00000000000E+00 0. -1.
         21    1    1    2  506  502  0.44255689189E+02 -0.40218449666E+02 -0.57457202951E+03  0.57767560690E+03  0.00000000000E+00 0. -1.
<scales pt_clust_3="85.63179" pt_clust_4="74.37028" pt_clust_5="14000.00000" pt_clust_6="59.80042"></scales>
<clustering>
<clus scale="   59.800">  2  6  1 -1</clus>
<clus scale="   74.370">  2  4  1 -1</clus>
<clus scale="   85.632">  1  3  2 -1</clus>
<clus scale="   85.632">  1  3  2 -1</clus>
</clustering>
</event>
<event>
 6    0  0.1704145E+002  0.1395744E+03  0.7546771E-02  0.1213903E+00
         21   -1    0    0  505  501  0.00000000000E+00  0.00000000000E+00  0.19306436644E+03  0.19306436644E+03  0.00000000000E+00 0.  1.
         21   -1    0    0  506  502 -0.00000000000E+00 -0.00000000000E+00 -0.54769845111E+03  0.54769845111E+03  0.00000000000E+00 0. -1.
         21    1    1    2  503  502 -0.73445899404E+01  0.53079302465E+02 -0.19940350956E+03  0.20647788011E+03  0.00000000000E+00 0. -1.
         21    1    1    2  504  501 -0.58882770696E+02 -0.14777400282E+02 -0.81926435599E+02  0.10196809841E+03  0.00000000000E+00 0. -1.
         21    1    1    2  505  503  0.12392215379E+03  0.24424155150E+02  0.14835431293E+03  0.19483901488E+03  0.00000000000E+00 0.  1.
         21    1    1    2  506  504 -0.57694793157E+02 -0.62726057333E+02 -0.22165845244E+03  0.23747782415E+03  0.00000000000E+00 0. -1.
<scales pt_clust_3="53.58503" pt_clust_4="49.66453" pt_clust_5="126.56370" pt_clust_6="49.66453"></scales>
<clustering>
<clus scale="   49.665">  4  6 -1 -1</clus>
<clus scale="   53.585">  2  3  1 -1</clus>
<clus scale="  126.564">  1  5  2 -1</clus>
<clus scale="  126.564">  1  3  2 -1</clus>
</clustering>
</event>
<event>
 6    0  0.1704145E+002  0.2376828E+03  0.7546771E-02  0.1121346E+00
         21   -1    0    0  505  501  0.00000000000E+00  0.00000000000E+00  0.13831374727E+04  0.13831374727E+04  0.00000000000E+00 0.  1.
         21   -1    0    0  503  502 -0.00000000000E+00 -0.00000000000E+00 -0.54535233310E+03  0.54535233310E+03  0.00000000000E+00 0.  1.
         21    1    1    2  503  501 -0.27806334421E+03 -0.13091777545E+03 -0.17072746408E+03  0.35157723805E+03  0.00000000000E+00 0.  1.
         21    1    1    2  504  506  0.76507580701E+02  0.71982218651E+02 -0.92995232222E+02  0.14029598327E+03  0.00000000000E+00 0.  1.
         21    1    1    2  505  504  0.10953415426E+03  0.27622939393E+02  0.12522049021E+04  0.12572898928E+04  0.00000000000E+00 0.  1.
         21    1    1    2  506  502  0.92021609248E+02  0.31312617407E+02 -0.15069706621E+03  0.17932669166E+03  0.00000000000E+00 0.  1.
<scales pt_clust_3="229.76575" pt_clust_4="58.51899" pt_clust_5="112.96352" pt_clust_6="58.51899"></scales>
<clustering>
<clus scale="   58.519">  4  6 -1 -1</clus>
<clus scale="  112.964">  1  5  2 -1</clus>
<clus scale="  229.766">  1  3  2 -1</clus>
<clus scale="  112.964">  1  3  2 -1</clus>
</clustering>
</event>
<event>
 6    0  0.1704145E+002  0.1986423E+03  0.7546771E-02  0.1150890E+00
         21   -1    0    0  504  501  0.00000000000E+00  0.00000000000E+00  0.68795594376E+03  0.68795594376E+03  0.00000000000E+00 0. -1.
         21   -1    0    0  503  502 -0.00000000000E+00 -0.00000000000E+00 -0.22365575287E+04  0.22365575287E+04  0.00000000000E+00 0. -1.
         21    1    1    2  503  501 -0.77452945292E+02 -0.60375618895E+02  0.65742765204E+03  0.66472196576E+03  0.00000000000E+00 0. -1.
         21    1    1    2  504  506 -0.52479558435E+02 -0.11191182198E+03 -0.16045335168E+03  0.20254292883E+03  0.00000000000E+00 0. -1.
         21    1    1    2  505  502  0.76715449633E+02  0.75672382079E+02 -0.92410657916E+03  0.93036795907E+03  0.00000000000E+00 0. -1.
         21    1    1    2  506  505  0.53217054094E+02  0.96615058797E+02 -0.11214693061E+04  0.11268806188E+04  0.00000000000E+00 0. -1.
<scales pt_clust_3="98.20476" pt_clust_4="195.27719" pt_clust_5="35.98619" pt_clust_6="35.98619"></scales>
<clustering>
<clus scale="   35.986">  5  6 -1 -1</clus>
<clus scale="   98.205">  1  3  2 -1</clus>
<clus scale="  195.277">  1  4  2 -1</clus>
<clus scale="   98.205">  1  3  2 -1</clus>
</clustering>
</event>
<event>
 6    0  0.1704145E+002  0.1672413E+03  0.7546771E-02  0.1180756E+00
         21   -1    0    0  504  501  0.00000000000E+00  0.00000000000E+00  0.42010456595E+03  0.42010456595E+03  0.00000000000E+00 0. -1.
         21   -1    0    0  506  502 -0.00000000000E+00 -0.00000000000E+00 -0.54387426737E+03  0.54387426737E+03  0.00000000000E+00 0.  1.
         21    1    1    2  503  505 -0.78491637640E+02  0.44600470806E+02 -0.66951872769E+02  0.11239525098E+03  0.00000000000E+00 0.  1.
         21    1    1    2  504  503 -0.58977880962E+02  0.31195751109E+01 -0.18808436887E+02  0.61982896751E+02  0.00000000000E+00 0.  1.
         21    1    1    2  505  502  0.16739997688E+03 -0.20858940354E+02 -0.39543758623E+03  0.42991712255E+03  0.00000000000E+00 0.  1.
         21    1    1    2  506  501 -0.29930458282E+02 -0.26861105562E+02  0.35742819447E+03  0.35968356304E+03  0.00000000000E+00 0. -1.
<scales pt_clust_3="35.04980" pt_clust_4="35.04980" pt_clust_5="161.52961" pt_clust_6="40.21631"></scales>
<clustering>
<clus scale="   35.050">  3  4 -1 -1</clus>
<clus scale="   40.216">  1  6  2 -1</clus>
<clus scale="  161.530">  2  5  1 -1</clus>
<clus scale="   40.216">  1  3  2 -1</clus>
</clustering>
</event>
<event>
 6    0  0.1704145E+002  0.1319072E+03  0.7546771E-02  0.1224653E+00
         21   -1    0    0  502  501  0.00000000000E+00  0.00000000000E+00  0.57214805347E+02  0.57214805347E+02  0.00000000000E+00 0.  1.
         21   -1    0    0  505  502 -0.00000000000E+00 -0.00000000000E+00 -0.94779049497E+03  0.94779049497E+03  0.00000000000E+00 0. -1.
         21    1    1    2  503  501 -0.62199263922E+02 -0.11817705370E+03 -0.43306213436E+02  0.14039228104E+03  0.00000000000E+00 0.  1.
         21    1    1    2  504  503  0.41643764489E+02  0.45080105152E+02 -0.15159734667E+03  0.16354869159E+03  0.00000000000E+00 0.  1.
         21    1    1    2  505  506 -0.41409448017E+01  0.45455924268E+02 -0.48621131288E+03  0.48834908544E+03  0.00000000000E+00 0. -1.
         21    1    1    2  506  504  0.24696444235E+02  0.27641024282E+02 -0.20946081663E+03  0.21271524225E+03  0.00000000000E+00 0. -1.
<scales pt_clust_3="126.00534" pt_clust_4="30.32080" pt_clust_5="45.64415" pt_clust_6="30.32080"></scales>
<clustering>
<clus scale="   30.321">  4  6 -1 -1</clus>
<clus scale="   45.644">  2  5  1 -1</clus>
<clus scale="  126.005">  1  3  2 -1</clus>
<clus scale="  126.005">  1  3  2 -1</clus>
</clustering>
</event>
<event>
 6    0  0.2293390E+002  0.1103325E+03  0.7546771E-02  0.1259955E+00
         21   -1    0    0  503  501  0.00000000000E+00  0.00000000000E+00  0.10592132863E+04  0.10592132863E+04  0.00000000000E+00 0. -1.
         21   -1    0    0  506  502 -0.00000000000E+00 -0.00000000000E+00 -0.43890387678E+03  0.43890387678E+03  0.00000000000E+00 0. -1.
         21    1    1    2  503  502  0.23135491244E+00 -0.52062506143E+02  0.76011365264E+02  0.92131893067E+02  0.00000000000E+00 0. -1.
         21    1    1    2  504  501  0.30447011875E+01  0.33834584506E+02  0.73735668733E+03  0.73813883089E+03  0.00000000000E+00 0. -1.
         21    1    1    2  505  504 -0.10293784858E+03 -0.29457009010E+02  0.21763768883E+03  0.24254912832E+03  0.00000000000E+00 0. -1.
         21    1    1    2  506  505  0.99661792479E+02  0.47684930647E+02 -0.41069633193E+03  0.42529731077E+03  0.00000000000E+00 0. -1.
<scales pt_clust_3="43.22610" pt_clust_4="33.97130" pt_clust_5="110.33255" pt_clust_6="14000.00000"></scales>
<clustering>
<clus scale="   33.971">  1  4  2 -1</clus>
<clus scale="   43.226">  1  3  2 -1</clus>
<clus scale="  110.333">  1  5  2 -1</clus>
<clus scale="   33.971">  1  3  2 -1</clus>
</clustering>
</event>
<event>
 6    0  0.1704145E+002  0.1171355E+03  0.7546771E-02  0.1247899E+00
         21   -1    0    0  505  501  0.00000000000E+00  0.00000000000E+00  0.13846675908E+04  0.13846675908E+04  0.00000000000E+00 0.  1.
         21   -1    0    0  504  502 -0.00000000000E+00 -0.00000000000E+00 -0.18765351980E+03  0.18765351980E+03  0.00000000000E+00 0. -1.
         21    1    1    2  503  506  0.47206679714E+02 -0.38656862183E+02 -0.11769129369E+03  0.13256720641E+03  0.00000000000E+00 0. -1.
         21    1    1    2  504  503  0.11187496450E+02 -0.43453004285E+02 -0.20617482330E+02  0.49380200848E+02  0.00000000000E+00 0. -1.
         21    1    1    2  505  502  0.37170891368E+02  0.12376845732E+02 -0.95363447224E+01  0.40321251791E+02  0.00000000000E+00 0. -1.
         21    1    1    2  506  501 -0.95565067531E+02  0.69733020736E+02  0.13448591917E+04  0.13500524515E+04  0.00000000000E+00 0.  1.
<scales pt_clust_3="117.13552" pt_clust_4="45.07618" pt_clust_5="39.17731" pt_clust_6="14000.00000"></scales>
<clustering>
<clus scale="   39.177">  2  5  1 -1</clus>
<clus scale="   45.076">  2  4  1 -1</clus>
<clus scale="  117.136">  2  3  1 -1</clus>
<clus scale="  117.136">  1  3  2 -1</clus>
</clustering>
</event>
<event>
 6    0  0.1704145E+002  0.1533056E+03  0.7546771E-02  0.1196469E+00
         21   -1    0    0  505  501  0.00000000000E+00  0.00000000000E+00  0.18709716541E+04  0.18709716541E+04  0.00000000000E+00 0.  1.
         21   -1    0    0  506  502 -0.00000000000E+00 -0.00000000000E+00 -0.11215522814E+03  0.11215522814E+03  0.00000000000E+00 0.  1.
         21    1    1    2  503  501  0.22508553762E+02 -0.92398867780E+02 -0.16330849791E+02  0.96492913804E+02  0.00000000000E+00 0.  1.
         21    1    1    2  504  502 -0.41528295288E+02  0.11103892773E+03  0.60082295024E+03  0.61240710342E+03  0.00000000000E+00 0.  1.
         21    1    1    2  505  504 -0.28325246261E+02  0.14499255674E+02  0.12072804084E+04  0.12076996864E+04  0.00000000000E+00 0.  1.
         21    1    1    2  506  503  0.47344987787E+02 -0.33139315629E+02 -0.32956082835E+02  0.66527178692E+02  0.00000000000E+00 0.  1.
<scales pt_clust_3="46.14751" pt_clust_4="141.40580" pt_clust_5="31.82056" pt_clust_6="46.14751"></scales>
<clustering>
<clus scale="   31.821">  1  5  2 -1</clus>
<clus scale="   46.148">  3  6 -1 -1</clus>
<clus scale="  141.406">  1  4  2 -1</clus>
<clus scale="   31.821">  1  3  2 -1</clus>
</clustering>
</event>
<event>
 6    0  0.1704145E+002  0.1416216E+03  0.7546771E-02  0.1211164E+00
         21   -1    0    0  503  501  0.00000000000E+00  0.00000000000E+00  0.29451544634E+03  0.29451544634E+03  0.00000000000E+00 0.  1.
         21   -1    0    0  504  502 -0.00000000000E+00 -0.00000000000E+00 -0.10454684212E+03  0.10454684212E+03  0.00000000000E+00 0.  1.
         21    1    1    2  503  505 -0.27009411155E+02 -0.14022577465E+02  0.91341917898E+02  0.96278174759E+02  0.00000000000E+00 0.  1.
         21    1    1    2  504  501 -0.38488708120E+02  0.12877337211E+03  0.88332130651E+02  0.16083074123E+03  0.00000000000E+00 0.  1.
         21    1    1    2  505  506 -0.20900941584E+00 -0.36036499896E+02  0.15628407045E+02  0.39280021849E+02  0.00000000000E+00 0. -1.
         21    1    1    2  506  502  0.65707128690E+02 -0.78714294753E+02 -0.53338513706E+01  0.10267335063E+03  0.00000000000E+00 0.  1.
<scales pt_clust_3="30.43256" pt_clust_4="132.17275" pt_clust_5="30.15369" pt_clust_6="30.15369"></scales>
<clustering>
<clus scale="   30.154">  5  6 -1 -1</clus>
<clus scale="   30.433">  1  3  2 -1</clus>
<clus scale="  132.173">  1  4  2 -1</clus>
<clus scale="   30.433">  1  3  2 -1</clus>
</clustering>
</event>
<event>
 6    0  0.1704145E+002  0.8581038E+02  0.7546771E-02  0.1313327E+00
         21   -1    0    0  503  501  0.00000000000E+00  0.00000000000E+00  0.13534967794E+04  0.13534967794E+04  0.00000000000E+00 0. -1.
         21   -1    0    0  504  502 -0.00000000000E+00 -0.00000000000E+00 -0.18143107384E+03  0.18143107384E+03  0.00000000000E+00 0. -1.
         21    1    1    2  503  502  0.44355982412E+02  0.73956865969E+02  0.12936969350E+04  0.12965680972E+04  0.00000000000E+00 0. -1.
         21    1    1    2  504  505 -0.25201231030E+02  0.40394130924E+02  0.16540337757E+02  0.50402089556E+02  0.00000000000E+00 0. -1.
         21    1    1    2  505  506  0.14959910194E+02 -0.59508862848E+02 -0.81614700843E+02  0.10210809500E+03  0.00000000000E+00 0. -1.
         21    1    1    2  506  501 -0.34114661576E+02 -0.54842134046E+02 -0.56556866290E+02  0.85849571494E+02  0.00000000000E+00 0.  1.
<scales pt_clust_3="85.81038" pt_clust_4="47.61080" pt_clust_5="36.96232" pt_clust_6="14000.00000"></scales>
<clustering>
<clus scale="   47.611">  2  4  1 -1</clus>
<clus scale="   36.962">  2  5  1 -1</clus>
<clus scale="   85.810">  1  3  2 -1</clus>
<clus scale="   85.810">  1  3  2 -1</clus>
</clustering>
</event>
<event>
 6    0  0.1704145E+002  0.1688966E+03  0.7546771E-02  0.1179003E+00
         21   -1    0    0  504  501  0.00000000000E+00  0.00000000000E+00  0.23642023709E+03  0.23642023709E+03  0.00000000000E+00 0. -1.
         21   -1    0    0  505  502 -0.00000000000E+00 -0.00000000000E+00 -0.27944319636E+03  0.27944319636E+03  0.00000000000E+00 0.  1.
         21    1    1    2  503  501  0.32274475977E+02  0.32936473851E+02  0.91749684459E+01  0.47017370782E+02  0.00000000000E+00 0.  1.
         21    1    1    2  504  502 -0.29834121578E+02  0.13466136790E+03  0.14894864518E+03  0.20300112737E+03  0.00000000000E+00 0. -1.
         21    1    1    2  505  506  0.18134462241E+02 -0.91155948424E+02 -0.89895477452E+02  0.12930376066E+03  0.00000000000E+00 0.  1.
         21    1    1    2  506  503 -0.20574816640E+02 -0.76441893325E+02 -0.11125109544E+03  0.13654117464E+03  0.00000000000E+00 0.  1.
<scales pt_clust_3="46.11348" pt_clust_4="162.50371" pt_clust_5="42.47924" pt_clust_6="42.47924"></scales>
<clustering>
<clus scale="   42.479">  5  6 -1 -1</clus>
<clus scale="   46.113">  1  3  2 -1</clus>
<clus scale="  162.504">  1  4  2 -1</clus>
<clus scale="   46.113">  1  3  2 -1</clus>
</clustering>
</event>
<event>
 6    0  0.1704145E+002  0.1838547E+03  0.7546771E-02  0.1164124E+00
         21   -1    0    0  504  501  0.00000000000E+00  0.00000000000E+00  0.14940795534E+04  0.14940795534E+04  0.00000000000E+00 0.  1.
         21   -1    0    0  506  502 -0.00000000000E+00 -0.00000000000E+00 -0.19724048373E+03  0.19724048373E+03  0.00000000000E+00 0. -1.
         21    1    1    2  503  502 -0.64042638905E+02 -0.76513984376E+01  0.22881393264E+02  0.68436552029E+02  0.00000000000E+00 0.  1.
         21    1    1    2  504  505 -0.56313465447E+02 -0.12378530879E+02  0.12894378354E+04  0.12907262939E+04  0.00000000000E+00 0.  1.
         21    1    1    2  505  503 -0.71122394525E+02 -0.14556412698E+02  0.86132235978E+02  0.11264566671E+03  0.00000000000E+00 0. -1.
         21    1    1    2  506  501  0.19147849888E+03  0.34586342015E+02 -0.10161239495E+03  0.21951152451E+03  0.00000000000E+00 0. -1.
<scales pt_clust_3="43.64454" pt_clust_4="57.65791" pt_clust_5="43.64454" pt_clust_6="177.92846"></scales>
<clustering>
<clus scale="   43.645">  3  5 -1 -1</clus>
<clus scale="   57.658">  1  4  2 -1</clus>
<clus scale="  177.928">  2  6  1 -1</clus>
<clus scale="   57.658">  1  3  2 -1</clus>
</clustering>
</event>
<event>
 6    0  0.1704145E+002  0.2117558E+03  0.7546771E-02  0.1140183E+00
         21   -1    0    0  503  501  0.00000000000E+00  0.00000000000E+00  0.17798529496E+04  0.17798529496E+04  0.00000000000E+00 0. -1.
         21   -1    0    0  506  502 -0.00000000000E+00 -0.00000000000E+00 -0.56066039747E+02  0.56066039747E+02  0.00000000000E+00 0.  1.
         21    1    1    2  503  505 -0.43306997831E+02 -0.88717566135E+01  0.77186358152E+03  0.77312844509E+03  0.00000000000E+00 0. -1.
         21    1    1    2  504  502 -0.89883336604E+01 -0.10478202248E+03  0.84904213260E+02  0.13516207976E+03  0.00000000000E+00 0.  1.
         21    1    1    2  505  504 -0.74346216147E+00 -0.97115068077E+02  0.15261457179E+03  0.18089526447E+03  0.00000000000E+00 0.  1.
         21    1    1    2  506  501  0.53038793653E+02  0.21076884717E+03  0.71440454330E+03  0.74673320005E+03  0.00000000000E+00 0. -1.
<scales pt_clust_3="44.20638" pt_clust_4="49.29354" pt_clust_5="49.29354" pt_clust_6="205.47651"></scales>
<clustering>
<clus scale="   44.206">  1  3  2 -1</clus>
<clus scale="   49.294">  4  5 -1 -1</clus>
<clus scale="  205.477">  1  6  2 -1</clus>
<clus scale="   44.206">  1  3  2 -1</clus>
</clustering>
</event>
<event>
 6    0  0.1704145E+002  0.1776642E+03  0.7546771E-02  0.1170083E+00
         21   -1    0    0  503  501  0.00000000000E+00  0.00000000000E+00  0.37609347381E+03  0.37609347381E+03  0.00000000000E+00 0. -1.
         21   -1    0    0  505  502 -0.00000000000E+00 -0.00000000000E+00 -0.98338165158E+03  0.98338165158E+03  0.00000000000E+00 0. -1.
         21    1    1    2  503  504 -0.16186068786E+03 -0.14968565007E+02  0.33589961974E+03  0.37316416596E+03  0.00000000000E+00 0. -1.
         21    1    1    2  504  502 -0.57745546962E+02  0.77112874052E+01 -0.18693668290E+03  0.19580432979E+03  0.00000000000E+00 0. -1.
         21    1    1    2  505  506  0.50563271546E+02  0.31141453217E+02 -0.18623265256E+03  0.19547131610E+03  0.00000000000E+00 0. -1.
         21    1    1    2  506  501  0.16904296328E+03 -0.23884175616E+02 -0.57001846205E+03  0.59503531354E+03  0.00000000000E+00 0. -1.
<scales pt_clust_3="163.88763" pt_clust_4="58.25815" pt_clust_5="40.45650" pt_clust_6="40.45650"></scales>
<clustering>
<clus scale="   40.457">  5  6 -1 -1</clus>
<clus scale="   58.258">  2  4  1 -1</clus>
<clus scale="  163.888">  1  3  2 -1</clus>
<clus scale="  163.888">  1  3  2 -1</clus>
</clustering>
</event>
<event>
 6    0  0.1704145E+002  0.1136399E+03  0.7546771E-02  0.1253974E+00
         21   -1    0    0  503  501  0.00000000000E+00  0.00000000000E+00  0.67243300986E+03  0.67243300986E+03  0.00000000000E+00 0. -1.
         21   -1    0    0  504  502 -0.00000000000E+00 -0.00000000000E+00 -0.29927122906E+03  0.29927122906E+03  0.00000000000E+00 0.  1.
         21    1    1    2  503  502 -0.23799351718E+02  0.40713240983E+02 -0.63860783925E+02  0.79386251058E+02  0.00000000000E+00 0.  1.
         21    1    1    2  504  505 -0.83931558374E+01 -0.45627256589E+02 -0.11610622797E+03  0.12503178709E+03  0.00000000000E+00 0.  1.
         21    1    1    2  505  506 -0.52647423896E+02 -0.50957615478E+02 -0.90073959539E+02  0.11611092974E+03  0.00000000000E+00 0.  1.
         21    1    1    2  506  501  0.84839931451E+02  0.55871631084E+02  0.64320275224E+03  0.65117527104E+03  0.00000000000E+00 0. -1.
<scales pt_clust_3="47.15906" pt_clust_4="40.45662" pt_clust_5="40.45662" pt_clust_6="101.63211"></scales>
<clustering>
<clus scale="   40.457">  4  5 -1 -1</clus>
<clus scale="   47.159">  2  3  1 -1</clus>
<clus scale="  101.632">  1  6  2 -1</clus>
<clus scale="  101.632">  1  3  2 -1</clus>
</clustering>
</event>
<event>
 6    0  0.1704145E+002  0.1141633E+03  0.7546771E-02  0.1253049E+00
         21   -1    0    0  504  501  0.00000000000E+00  0.00000000000E+00  0.61765835660E+02  0.61765835660E+02  0.00000000000E+00 0. -1.
         21   -1    0    0  505  502 -0.00000000000E+00 -0.00000000000E+00 -0.86294509067E+03  0.86294509067E+03  0.00000000000E+00 0. -1.
         21    1    1    2  503  501 -0.85996077401E+02 -0.72972925181E+02 -0.28836366910E+03  0.30963523506E+03  0.00000000000E+00 0. -1.
         21    1    1    2  504  506  0.52048553676E+02 -0.23482922599E+02  0.16159128506E+02  0.59343213829E+02  0.00000000000E+00 0.  1.
         21    1    1    2  505  503 -0.40078491852E+02  0.30967786943E+01 -0.23697692357E+03  0.24036209737E+03  0.00000000000E+00 0. -1.
         21    1    1    2  506  502  0.74026015577E+02  0.93359069086E+02 -0.29199779085E+03  0.31537038007E+03  0.00000000000E+00 0. -1.
<scales pt_clust_3="114.16333" pt_clust_4="55.79518" pt_clust_5="40.19795" pt_clust_6="14000.00000"></scales>
<clustering>
<clus scale="   40.198">  2  5  1 -1</clus>
<clus scale="   55.795">  1  4  2 -1</clus>
<clus scale="  114.163">  1  3  2 -1</clus>
<clus scale="   55.795">  1  3  2 -1</clus>
</clustering>
</event>
<event>
 6    0  0.1704145E+002  0.1149805E+03  0.7546771E-02  0.1251615E+00
         21   -1    0    0  503  501  0.00000000000E+00  0.00000000000E+00  0.18725258366E+03  0.18725258366E+03  0.00000000000E+00 0. -1.
         21   -1    0    0  506  502 -0.00000000000E+00 -0.00000000000E+00 -0.17370153160E+04  0.17370153160E+04  0.00000000000E+00 0. -1.
         21    1    1    2  503  502 -0.64268070100E+02  0.13957429033E+02 -0.21161681757E+03  0.22160070428E+03  0.00000000000E+00 0. -1.
         21    1    1    2  504  501 -0.11132323792E+03  0.26024309025E+02  0.15634406478E+03  0.19368426511E+03  0.00000000000E+00 0. -1.
         21    1    1    2  505  504  0.15696015870E+03  0.58606544656E+01 -0.10376003809E+04  0.10494214545E+04  0.00000000000E+00 0. -1.
         21    1    1    2  506  505  0.18631149312E+02 -0.45842392524E+02 -0.45688959862E+03  0.45956147576E+03  0.00000000000E+00 0. -1.
<scales pt_clust_3="61.42515" pt_clust_4="14000.00000" pt_clust_5="114.98050" pt_clust_6="49.48378"></scales>
<clustering>
<clus scale="   49.484">  2  6  1 -1</clus>
<clus scale="   61.425">  2  3  1 -1</clus>
<clus scale="  114.980">  2  5  1 -1</clus>
<clus scale="  114.980">  1  3  2 -1</clus>
</clustering>
</event>
<event>
 6    0  0.1704145E+002  0.1182511E+03  0.7546771E-02  0.1246010E+00
         21   -1    0    0  504  501  0.00000000000E+00  0.00000000000E+00  0.29806340419E+03  0.29806340419E+03  0.00000000000E+00 0.  1.
         21   -1    0    0  506  502 -0.00000000000E+00 -0.00000000000E+00 -0.11229419409E+03  0.11229419409E+03  0.00000000000E+00 0.  1.
         21    1    1    2  503  501 -0.36086514693E+02 -0.30681862509E+02 -0.30993942982E+01  0.47468089015E+02  0.00000000000E+00 0.  1.
         21    1    1    2  504  505  0.23783922221E+01 -0.11416427341E+03  0.13804311828E+03  0.17915088774E+03  0.00000000000E+00 0.  1.
         21    1    1    2  505  502  0.63851092663E+02  0.12426115143E+03  0.45005370805E+02  0.14677628960E+03  0.00000000000E+00 0.  1.
         21    1    1    2  506  503 -0.30142970192E+02  0.20584984491E+02  0.58201153092E+01  0.36962331917E+02  0.00000000000E+00 0. -1.
<scales pt_clust_3="50.72615" pt_clust_4="118.25108" pt_clust_5="14000.00000" pt_clust_6="36.50124"></scales>
<clustering>
<clus scale="   36.501">  2  6  1 -1</clus>
<clus scale="   50.726">  2  3  1 -1</clus>
<clus scale="  118.251">  1  4  2 -1</clus>
<clus scale="  118.251">  1  3  2 -1</clus>
</clustering>
</event>
<event>
 6    0  0.1704145E+002  0.2818054E+03  0.7546771E-02  0.1094707E+00
         21   -1    0    0  504  501  0.00000000000E+00  0.00000000000E+00  0.60726626659E+03  0.60726626659E+03  0.00000000000E+00 0. -1.
         21   -1    0    0  501  502 -0.00000000000E+00 -0.00000000000E+00 -0.26392888449E+03  0.26392888449E+03  0.00000000000E+00 0.  1.
         21    1    1    2  503  505 -0.81329496667E+02  0.53419870085E+02 -0.48567845045E+02  0.10875203502E+03  0.00000000000E+00 0. -1.
         21    1    1    2  504  503  0.11661094937E+03 -0.22902931528E+03  0.49014763521E+03  0.55344127517E+03  0.00000000000E+00 0. -1.
         21    1    1    2  505  506 -0.34033068715E+02  0.93145899581E+02 -0.71661922187E+02  0.12235129532E+03  0.00000000000E+00 0.  1.
         21    1    1    2  506  502 -0.12483839878E+01  0.82463545611E+02 -0.26580485878E+02  0.86650545566E+02  0.00000000000E+00 0.  1.
<scales pt_clust_3="75.17574" pt_clust_4="257.00689" pt_clust_5="75.17574" pt_clust_6="40.23675"></scales>
<clustering>
<clus scale="   40.237">  5  6 -1 -1</clus>
<clus scale="   75.176">  3  5 -1 -1</clus>
<clus scale="  257.007">  1  4  2 -1</clus>
<clus scale="  257.007">  1  3  2 -1</clus>
</clustering>
</event>
<event>
 6    0  0.1704145E+002  0.9181548E+02  0.7546771E-02  0.1298514E+00
         21   -1    0    0  505  501  0.00000000000E+00  0.00000000000E+00  0.66810749588E+02  0.66810749588E+02  0.00000000000E+00 0. -1.
         21   -1    0    0  506  502 -0.00000000000E+00 -0.00000000000E+00 -0.58108742676E+03  0.58108742676E+03  0.00000000000E+00 0. -1.
         21    1    1    2  503  501  0.71111125594E+02 -0.66912636621E+02 -0.36077232931E+02  0.10409447564E+03  0.00000000000E+00 0. -1.
         21    1    1    2  504  502 -0.29109706823E+02  0.41107887923E+02 -0.10803225669E+03  0.11919816260E+03  0.00000000000E+00 0. -1.
         21    1    1    2  505  504 -0.10807028353E+03 -0.18925206756E+02 -0.12272023826E+03  0.16461350646E+03  0.00000000000E+00 0. -1.
         21    1    1    2  506  503  0.66068864757E+02  0.44729955455E+02 -0.24744694929E+03  0.25999203164E+03  0.00000000000E+00 0. -1.
<scales pt_clust_3="91.81548" pt_clust_4="50.37096" pt_clust_5="14000.00000" pt_clust_6="83.79472"></scales>
<clustering>
<clus scale="   50.371">  2  4  1 -1</clus>
<clus scale="   83.795">  2  6  1 -1</clus>
<clus scale="   91.815">  1  3  2 -1</clus>
<clus scale="   91.815">  1  3  2 -1</clus>
</clustering>
</event>
<event>
 6    0  0.1704145E+002  0.8428439E+02  0.7546771E-02  0.1317315E+00
         21   -1    0    0  505  501  0.00000000000E+00  0.00000000000E+00  0.15867138825E+04  0.15867138825E+04  0.00000000000E+00 0.  1.
         21   -1    0    0  506  502 -0.00000000000E+00 -0.00000000000E+00 -0.32449799587E+03  0.32449799587E+03  0.00000000000E+00 0. -1.
         21    1    1    2  503  504 -0.46032843147E+02 -0.23360880398E+02 -0.18399141022E+03  0.19109576765E+03  0.00000000000E+00 0. -1.
         21    1    1    2  504  502 -0.18640082912E+02 -0.39567992445E+02 -0.49530820615E+02  0.66078596443E+02  0.00000000000E+00 0. -1.
         21    1    1    2  505  503  0.23756998617E+02 -0.52043749966E+02  0.15269916020E+04  0.15280629239E+04  0.00000000000E+00 0.  1.
         21    1    1    2  506  501  0.40915927441E+02  0.11497262281E+03 -0.31253484547E+02  0.12597459034E+03  0.00000000000E+00 0. -1.
<scales pt_clust_3="84.28439" pt_clust_4="43.73876" pt_clust_5="57.26646" pt_clust_6="14000.00000"></scales>
<clustering>
<clus scale="   43.739">  2  4  1 -1</clus>
<clus scale="   57.266">  1  5  2 -1</clus>
<clus scale="   84.284">  2  3  1 -1</clus>
<clus scale="   57.266">  1  3  2 -1</clus>
</clustering>
</event>
<event>
 6    0  0.1704145E+002  0.1604835E+03  0.7546771E-02  0.1188152E+00
         21   -1    0    0  503  501  0.00000000000E+00  0.00000000000E+00  0.84112432246E+03  0.84112432246E+03  0.00000000000E+00 0.  1.
         21   -1    0    0  505  502 -0.00000000000E+00 -0.00000000000E+00 -0.16071395695E+03  0.16071395695E+03  0.00000000000E+00 0. -1.
         21    1    1    2  503  504 -0.60568395257E+02 -0.14535364993E+03  0.64987284327E+03  0.66867849260E+03  0.00000000000E+00 0.  1.
         21    1    1    2  504  506 -0.75386059588E+00  0.19808372302E+03  0.55215710700E+02  0.20563682632E+03  0.00000000000E+00 0.  1.
         21    1    1    2  505  501  0.31610812829E+02 -0.79053527884E+02 -0.12853097668E+02  0.86104041010E+02  0.00000000000E+00 0. -1.
         21    1    1    2  506  502  0.29711443024E+02  0.26323454795E+02 -0.11825090793E+02  0.41418919483E+02  0.00000000000E+00 0. -1.
<scales pt_clust_3="160.48353" pt_clust_4="14000.00000" pt_clust_5="81.36735" pt_clust_6="39.69501"></scales>
<clustering>
<clus scale="   39.695">  2  6  1 -1</clus>
<clus scale="   81.367">  2  5  1 -1</clus>
<clus scale="  160.484">  1  3  2 -1</clus>
<clus scale="  160.484">  1  3  2 -1</clus>
</clustering>
</event>
<event>
 6    0  0.1704145E+002  0.1477582E+03  0.7546771E-02  0.1203255E+00
         21   -1    0    0  504  501  0.00000000000E+00  0.00000000000E+00  0.12548308660E+03  0.12548308660E+03  0.00000000000E+00 0.  1.
         21   -1    0    0  506  502 -0.00000000000E+00 -0.00000000000E+00 -0.25913767922E+03  0.25913767922E+03  0.00000000000E+00 0.  1.
         21    1    1    2  503  502  0.55649417728E+01 -0.71983999036E+02 -0.62157920128E+02  0.95269469027E+02  0.00000000000E+00 0.  1.
         21    1    1    2  504  505  0.57521809496E+02  0.12662094426E+01 -0.55182026040E+01  0.57799761366E+02  0.00000000000E+00 0.  1.
         21    1    1    2  505  503 -0.10394624894E+02 -0.70444611264E+02 -0.23879033293E+02  0.75104591829E+02  0.00000000000E+00 0.  1.
         21    1    1    2  506  501 -0.52692126374E+02  0.14116240086E+03 -0.42099436597E+02  0.15644694359E+03  0.00000000000E+00 0.  1.
<scales pt_clust_3="36.02307" pt_clust_4="57.53574" pt_clust_5="36.02307" pt_clust_6="143.23667"></scales>
<clustering>
<clus scale="   36.023">  3  5 -1 -1</clus>
<clus scale="   57.536">  1  4  2 -1</clus>
<clus scale="  143.237">  1  6  2 -1</clus>
<clus scale="   57.536">  1  3  2 -1</clus>
</clustering>
</event>
<event>
 6    0  0.1704145E+002  0.1015916E+03  0.7546771E-02  0.1276984E+00
         21   -1    0    0  505  501  0.00000000000E+00  0.00000000000E+00  0.10738800580E+02  0.10738800580E+02  0.00000000000E+00 0. -1.
         21   -1    0    0  503  502 -0.00000000000E+00 -0.00000000000E+00 -0.41866825168E+04  0.41866825168E+04  0.00000000000E+00 0. -1.
         21    1    1    2  503  504 -0.36003355774E+02  0.49196023643E+02 -0.14581487738E+04  0.14594226039E+04  0.00000000000E+00 0. -1.
         21    1    1    2  504  501 -0.28883212081E+02  0.51039561587E+02 -0.41057046498E+03  0.41473772857E+03  0.00000000000E+00 0. -1.
         21    1    1    2  505  506  0.71684212450E+01 -0.15621483078E+03 -0.88095411061E+03  0.89472599416E+03  0.00000000000E+00 0. -1.
         21    1    1    2  506  502  0.57718146610E+02  0.55979245546E+02 -0.14262703669E+04  0.14285349908E+04  0.00000000000E+00 0. -1.
<scales pt_clust_3="65.25114" pt_clust_4="58.64535" pt_clust_5="14000.00000" pt_clust_6="101.59156"></scales>
<clustering>
<clus scale="   58.645">  1  4  2 -1</clus>
<clus scale="   65.251">  2  3  1 -1</clus>
<clus scale="  101.592">  2  6  1 -1</clus>
<clus scale="   58.645">  1  3  2 -1</clus>
</clustering>
</event>
<event>
 6    0  0.1704145E+002  0.1493547E+03  0.7546771E-02  0.1201268E+00
         21   -1    0    0  503  501  0.00000000000E+00  0.00000000000E+00  0.46935146404E+03  0.46935146404E+03  0.00000000000E+00 0.  1.
         21   -1    0    0  506  502 -0.00000000000E+00 -0.00000000000E+00 -0.70661906311E+03  0.70661906311E+03  0.00000000000E+00 0.  1.
         21    1    1    2  503  504 -0.66156026301E+01 -0.32695328720E+02  0.40299978203E+03  0.40437801008E+03  0.00000000000E+00 0.  1.
         21    1    1    2  504  505 -0.42898979000E+02  0.58301919902E+02 -0.12773583413E+02  0.73502385653E+02  0.00000000000E+00 0.  1.
         21    1    1    2  505  502  0.81700584672E+02 -0.14813928072E+03 -0.44374675792E+03  0.47490148156E+03  0.00000000000E+00 0.  1.
         21    1    1    2  506  501 -0.32186003041E+02  0.12253268954E+03 -0.18374703978E+03  0.22318864986E+03  0.00000000000E+00 0.  1.
<scales pt_clust_3="33.35792" pt_clust_4="63.06263" pt_clust_5="14000.00000" pt_clust_6="149.35472"></scales>
<clustering>
<clus scale="   33.358">  1  3  2 -1</clus>
<clus scale="   63.063">  1  4  2 -1</clus>
<clus scale="  149.355">  1  6  2 -1</clus>
<clus scale="   33.358">  1  3  2 -1</clus>
</clustering>
</event>
<event>
 6    0  0.1704145E+002  0.9063247E+02  0.7546771E-02  0.1301327E+00
         21   -1    0    0  504  501  0.00000000000E+00  0.00000000000E+00  0.79701484983E+03  0.79701484983E+03  0.00000000000E+00 0. -1.
         21   -1    0    0  506  502 -0.00000000000E+00 -0.00000000000E+00 -0.41725034976E+02  0.41725034976E+02  0.00000000000E+00 0. -1.
         21    1    1    2  503  502 -0.36734414041E+02  0.24381227450E+02  0.69449896028E+02  0.82262685862E+02  0.00000000000E+00 0. -1.
         21    1    1    2  504  503 -0.45988015807E+02  0.76056078717E+01  0.39701122482E+03  0.39973823373E+03  0.00000000000E+00 0. -1.
         21    1    1    2  505  501 -0.53817127072E+02 -0.35667801686E+02  0.14318127160E+03  0.15706480122E+03  0.00000000000E+00 0. -1.
         21    1    1    2  506  505  0.13653955692E+03  0.36809663644E+01  0.14564742240E+03  0.19967416400E+03  0.00000000000E+00 0. -1.
<scales pt_clust_3="44.08924" pt_clust_4="48.17047" pt_clust_5="14000.00000" pt_clust_6="90.63247"></scales>
<clustering>
<clus scale="   44.089">  2  3  1 -1</clus>
<clus scale="   48.170">  1  4  2 -1</clus>
<clus scale="   90.632">  2  6  1 -1</clus>
<clus scale="   48.170">  1  3  2 -1</clus>
</clustering>
</event>
<event>
 6    0  0.1704145E+002  0.1143613E+03  0.7546771E-02  0.1252700E+00
         21   -1    0    0  503  501  0.00000000000E+00  0.00000000000E+00  0.15229659909E+04  0.15229659909E+04  0.00000000000E+00 0.  1.
         21   -1    0    0  504  502 -0.00000000000E+00 -0.00000000000E+00 -0.21516021527E+03  0.21516021527E+03  0.00000000000E+00 0.  1.
         21    1    1    2  503  506  0.11367018827E+03 -0.72995783342E+02  0.13131235694E+03  0.18839381936E+03  0.00000000000E+00 0.  1.
         21    1    1    2  504  505 -0.15105398414E+02  0.10464000683E+03 -0.62300377061E+02  0.12271528459E+03  0.00000000000E+00 0.  1.
         21    1    1    2  505  501 -0.50238574074E+02 -0.27399500147E+02  0.13259953525E+04  0.13272295664E+04  0.00000000000E+00 0.  1.
         21    1    1    2  506  502 -0.48326215784E+02 -0.42447233412E+01 -0.87201556775E+02  0.99787535856E+02  0.00000000000E+00 0.  1.
<scales pt_clust_3="14000.00000" pt_clust_4="114.36126" pt_clust_5="57.45012" pt_clust_6="48.51227"></scales>
<clustering>
<clus scale="   48.512">  2  6  1 -1</clus>
<clus scale="   57.450">  1  5  2 -1</clus>
<clus scale="  114.361">  2  4  1 -1</clus>
<clus scale="   57.450">  1  3  2 -1</clus>
</clustering>
</event>
<event>
 6    0  0.1704145E+002  0.1315969E+03  0.7546771E-02  0.1225105E+00
         21   -1    0    0  506  501  0.00000000000E+00  0.00000000000E+00  0.11187759853E+04  0.11187759853E+04  0.00000000000E+00 0. -1.
         21   -1    0    0  504  502 -0.00000000000E+00 -0.00000000000E+00 -0.26608660381E+03  0.26608660381E+03  0.00000000000E+00 0.  1.
         21    1    1    2  503  502  0.36537976329E+02 -0.24123203458E+02 -0.11919027908E+03  0.12697745976E+03  0.00000000000E+00 0.  1.
         21    1    1    2  504  501  0.38015981358E+02  0.12782874192E+03  0.10702992624E+04  0.10785758727E+04  0.00000000000E+00 0. -1.
         21    1    1    2  505  503 -0.55095371588E+02 -0.13007803393E+02 -0.30189467034E+02  0.64156892375E+02  0.00000000000E+00 0.  1.
         21    1    1    2  506  505 -0.19458586099E+02 -0.90697735065E+02 -0.68230134753E+02  0.11515236432E+03  0.00000000000E+00 0.  1.
<scales pt_clust_3="43.78302" pt_clust_4="131.59691" pt_clust_5="47.87689" pt_clust_6="14000.00000"></scales>
<clustering>
<clus scale="   43.783">  2  3  1 -1</clus>
<clus scale="   47.877">  2  5  1 -1</clus>
<clus scale="  131.597">  1  4  2 -1</clus>
<clus scale="  131.597">  1  3  2 -1</clus>
</clustering>
</event>
<event>
 6    0  0.1704145E+002  0.1219236E+03  0.7546771E-02  0.1239957E+00
         21   -1    0    0  502  501  0.00000000000E+00  0.00000000000E+00  0.95384347499E+03  0.95384347499E+03  0.00000000000E+00 0. -1.
         21   -1    0    0  506  502 -0.00000000000E+00 -0.00000000000E+00 -0.35277749334E+02  0.35277749334E+02  0.00000000000E+00 0. -1.
         21    1    1    2  503  504  0.19393951755E+02  0.56401310143E+02  0.76992221745E+02  0.97391146209E+02  0.00000000000E+00 0. -1.
         21    1    1    2  504  505 -0.21834670864E+02  0.65499208046E+02  0.10986428699E+03  0.12975769982E+03  0.00000000000E+00 0. -1.
         21    1    1    2  505  501  0.63598280136E+02 -0.97128991257E+02  0.63086736022E+03  0.64146115110E+03  0.00000000000E+00 0. -1.
         21    1    1    2  506  503 -0.61157561028E+02 -0.24771526933E+02  0.10084185670E+03  0.12051122720E+03  0.00000000000E+00 0. -1.
<scales pt_clust_3="39.60255" pt_clust_4="39.60255" pt_clust_5="114.23574" pt_clust_6="65.98391"></scales>
<clustering>
<clus scale="   39.603">  3  4 -1 -1</clus>
<clus scale="   65.984">  2  6  1 -1</clus>
<clus scale="  114.236">  1  5  2 -1</clus>
<clus scale="  114.236">  1  3  2 -1</clus>
</clustering>
</event>
<event>
 6    0  0.1704145E+002  0.9148516E+02  0.7546771E-02  0.1299295E+00
         21   -1    0    0  505  501  0.00000000000E+00  0.00000000000E+00  0.13559684265E+04  0.13559684265E+04  0.00000000000E+00 0. -1.
         21   -1    0    0  506  502 -0.00000000000E+00 -0.00000000000E+00 -0.33753122208E+02  0.33753122208E+02  0.00000000000E+00 0. -1.
         21    1    1    2  503  501  0.61934393333E+01  0.32789551202E+02  0.75478187896E+03  0.75551915804E+03  0.00000000000E+00 0. -1.
         21    1    1    2  504  503 -0.69047358533E+02 -0.56509394240E+02  0.27465801474E+03  0.28878690139E+03  0.00000000000E+00 0. -1.
         21    1    1    2  505  502  0.10789427639E+03  0.56437488847E+02  0.23787934861E+03  0.26723201440E+03  0.00000000000E+00 0. -1.
         21    1    1    2  506  504 -0.45040357192E+02 -0.32717645809E+02  0.54896062021E+02  0.78183474908E+02  0.00000000000E+00 0. -1.
<scales pt_clust_3="33.36935" pt_clust_4="91.48516" pt_clust_5="14000.00000" pt_clust_6="53.04080"></scales>
<clustering>
<clus scale="   33.369">  1  3  2 -1</clus>
<clus scale="   53.041">  2  6  1 -1</clus>
<clus scale="   91.485">  1  4  2 -1</clus>
<clus scale="   33.369">  1  3  2 -1</clus>
</clustering>
</event>
<event>
 6    0  0.1704145E+002  0.1317986E+03  0.7546771E-02  0.1224811E+00
         21   -1    0    0  503  501  0.00000000000E+00  0.00000000000E+00  0.91123642457E+02  0.91123642457E+02  0.00000000000E+00 0. -1.
         21   -1    0    0  505  502 -0.00000000000E+00 -0.00000000000E+00 -0.42434382398E+03  0.42434382398E+03  0.00000000000E+00 0. -1.
         21    1    1    2  503  506 -0.56146159370E+00  0.10048619224E+03 -0.23845742675E+02  0.10327831095E+03  0.00000000000E+00 0. -1.
         21    1    1    2  504  501 -0.59316896522E+02 -0.53524083832E+02 -0.81217243435E+02  0.11392788243E+03  0.00000000000E+00 0. -1.
         21    1    1    2  505  504 -0.56123447964E+02 -0.60909597649E+01 -0.12711598460E+03  0.13908779509E+03  0.00000000000E+00 0. -1.
         21    1    1    2  506  502  0.11600180608E+03 -0.40871148642E+02 -0.10104121082E+03  0.15917347797E+03  0.00000000000E+00 0. -1.
<scales pt_clust_3="100.48776" pt_clust_4="51.36364" pt_clust_5="51.36364" pt_clust_6="116.77799"></scales>
<clustering>
<clus scale="   51.364">  4  5 -1 -1</clus>
<clus scale="  100.488">  1  3  2 -1</clus>
<clus scale="  116.778">  1  6  2 -1</clus>
<clus scale="  100.488">  1  3  2 -1</clus>
</clustering>
</event>
<event>
 6    0  0.1704145E+002  0.9191645E+02  0.7546771E-02  0.1298276E+00
         21   -1    0    0  504  501  0.00000000000E+00  0.00000000000E+00  0.27496547006E+03  0.27496547006E+03  0.00000000000E+00 0.  1.
         21   -1    0    0  503  502 -0.00000000000E+00 -0.00000000000E+00 -0.71578505712E+03  0.71578505712E+03  0.00000000000E+00 0.  1.
         21    1    1    2  503  505 -0.89228741654E+01 -0.29218948140E+02 -0.19929213632E+03  0.20162023761E+03  0.00000000000E+00 0.  1.
         21    1    1    2  504  502 -0.16519688824E+02  0.75946727418E+02 -0.30186789817E+03  0.31171306272E+03  0.00000000000E+00 0.  1.
         21    1    1    2  505  506 -0.54331644990E+02  0.94523248687E+00 -0.19671288914E+03  0.20408033189E+03  0.00000000000E+00 0. -1.
         21    1    1    2  506  501  0.79774207979E+02 -0.47673011765E+02  0.25705333656E+03  0.27333689496E+03  0.00000000000E+00 0.  1.
<scales pt_clust_3="30.55102" pt_clust_4="14000.00000" pt_clust_5="58.73270" pt_clust_6="91.91645"></scales>
<clustering>
<clus scale="   30.551">  2  3  1 -1</clus>
<clus scale="   58.733">  2  5  1 -1</clus>
<clus scale="   91.916">  1  6  2 -1</clus>
<clus scale="   91.916">  1  3  2 -1</clus>
</clustering>
</event>
<event>
 6    0  0.1704145E+002  0.8568434E+02  0.7546771E-02  0.1313653E+00
         21   -1    0    0  506  501  0.00000000000E+00  0.00000000000E+00  0.28869291052E+03  0.28869291052E+03  0.00000000000E+00 0. -1.
         21   -1    0    0  504  502 -0.00000000000E+00 -0.00000000000E+00 -0.43782874350E+03  0.43782874350E+03  0.00000000000E+00 0. -1.
         21    1    1    2  503  501 -0.45116735134E+02 -0.10066950607E+02  0.23223573453E+03  0.23679167991E+03  0.00000000000E+00 0. -1.
         21    1    1    2  504  503 -0.34062245468E+02  0.11813432034E+03 -0.95560902159E+02  0.15571718027E+03  0.00000000000E+00 0. -1.
         21    1    1    2  505  502  0.63781981167E+02 -0.50733893550E+02 -0.25380661055E+03  0.26657056220E+03  0.00000000000E+00 0. -1.
         21    1    1    2  506  505  0.15396999435E+02 -0.57333476187E+02 -0.32004054802E+02  0.67442231629E+02  0.00000000000E+00 0. -1.
<scales pt_clust_3="46.22622" pt_clust_4="85.68434" pt_clust_5="14000.00000" pt_clust_6="60.62923"></scales>
<clustering>
<clus scale="   46.226">  1  3  2 -1</clus>
<clus scale="   60.629">  1  6  2 -1</clus>
<clus scale="   85.684">  1  4  2 -1</clus>
<clus scale="   46.226">  1  3  2 -1</clus>
</clustering>
</event>
<event>
 6    0  0.1704145E+002  0.1131211E+03  0.7546771E-02  0.1254897E+00
         21   -1    0    0  504  501  0.00000000000E+00  0.00000000000E+00  0.58597462940E+03  0.58597462940E+03  0.00000000000E+00 0.  1.
         21   -1    0    0  506  502 -0.00000000000E+00 -0.00000000000E+00 -0.28163210250E+03  0.28163210250E+03  0.00000000000E+00 0. -1.
         21    1    1    2  503  505 -0.27614428383E+02 -0.10960157957E+03 -0.18562384611E+03  0.21732757567E+03  0.00000000000E+00 0. -1.
         21    1    1    2  504  502 -0.36496542782E+02 -0.11527615001E+02  0.13235744020E+02  0.40497758733E+02  0.00000000000E+00 0.  1.
         21    1    1    2  505  501  0.14576583915E+02  0.11220362892E+03  0.52678379640E+03  0.53879801345E+03  0.00000000000E+00 0.  1.
         21    1    1    2  506  503  0.49534387250E+02  0.89255656555E+01 -0.50053167409E+02  0.70983384043E+02  0.00000000000E+00 0.  1.
<scales pt_clust_3="113.12108" pt_clust_4="38.27380" pt_clust_5="14000.00000" pt_clust_6="41.77419"></scales>
<clustering>
<clus scale="   38.274">  2  4  1 -1</clus>
<clus scale="   41.774">  2  6  1 -1</clus>
<clus scale="  113.121">  2  3  1 -1</clus>
<clus scale="  113.121">  1  3  2 -1</clus>
</clustering>
</event>
<event>
 6    0  0.1704145E+002  0.1662572E+03  0.7546771E-02  0.1181808E+00
         21   -1    0    0  504  501  0.00000000000E+00  0.00000000000E+00  0.10337848896E+04  0.10337848896E+04  0.00000000000E+00 0.  1.
         21   -1    0    0  506  502 -0.00000000000E+00 -0.00000000000E+00 -0.64584053514E+02  0.64584053514E+02  0.00000000000E+00 0.  1.
         21    1    1    2  503  502 -0.10802583832E+02 -0.66347960840E+02 -0.90667168093E+00  0.67227745601E+02  0.00000000000E+00 0.  1.
         21    1    1    2  504  505  0.19256016721E+02  0.17320730736E+03  0.81686487544E+03  0.83524834045E+03  0.00000000000E+00 0.  1.
         21    1    1    2  505  503  0.18590035901E+02 -0.27409893326E+02  0.20835812819E+02  0.39128286223E+02  0.00000000000E+00 0.  1.
         21    1    1    2  506  501 -0.27043468790E+02 -0.79449453189E+02  0.13240681948E+03  0.15676457081E+03  0.00000000000E+00 0.  1.
<scales pt_clust_3="31.88327" pt_clust_4="159.93190" pt_clust_5="31.88327" pt_clust_6="83.92595"></scales>
<clustering>
<clus scale="   31.883">  3  5 -1 -1</clus>
<clus scale="   83.926">  2  6  1 -1</clus>
<clus scale="  159.932">  1  4  2 -1</clus>
<clus scale="  159.932">  1  3  2 -1</clus>
</clustering>
</event>
<event>
 6    0  0.1704145E+002  0.7501730E+02  0.7546771E-02  0.1343817E+00
         21   -1    0    0  503  501  0.00000000000E+00  0.00000000000E+00  0.20455152224E+03  0.20455152224E+03  0.00000000000E+00 0. -1.
         21   -1    0    0  506  502 -0.00000000000E+00 -0.00000000000E+00 -0.19971689078E+03  0.19971689078E+03  0.00000000000E+00 0. -1.
         21    1    1    2  503  504  0.20883456487E+02 -0.83789752991E+02 -0.18908716506E+02  0.88398987670E+02  0.00000000000E+00 0. -1.
         21    1    1    2  504  502 -0.47028655242E+02  0.56162909669E+02 -0.99350147892E+02  0.12343588912E+03  0.00000000000E+00 0. -1.
         21    1    1    2  505  501 -0.30819529741E+02  0.17704889831E+02  0.12947046257E+03  0.13426059443E+03  0.00000000000E+00 0. -1.
         21    1    1    2  506  505  0.56964728495E+02  0.99219534906E+01 -0.63769667121E+01  0.58172941803E+02  0.00000000000E+00 0. -1.
<scales pt_clust_3="14000.00000" pt_clust_4="75.01730" pt_clust_5="35.54302" pt_clust_6="48.76396"></scales>
<clustering>
<clus scale="   35.543">  1  5  2 -1</clus>
<clus scale="   48.764">  1  6  2 -1</clus>
<clus scale="   75.017">  2  4  1 -1</clus>
<clus scale="   35.543">  1  3  2 -1</clus>
</clustering>
</event>
<event>
 6    0  0.1704145E+002  0.1219387E+03  0.7546771E-02  0.1239933E+00
         21   -1    0    0  505  501  0.00000000000E+00  0.00000000000E+00  0.87883624466E+03  0.87883624466E+03  0.00000000000E+00 0.  1.
         21   -1    0    0  506  502 -0.00000000000E+00 -0.00000000000E+00 -0.11063860663E+03  0.11063860663E+03  0.00000000000E+00 0. -1.
         21    1    1    2  503  502  0.12748708337E+03 -0.59266160845E+02  0.78593823073E+02  0.16106651816E+03  0.00000000000E+00 0. -1.
         21    1    1    2  504  501 -0.53286299376E+02  0.47195901001E+02  0.59524824661E+03  0.59948924750E+03  0.00000000000E+00 0.  1.
         21    1    1    2  505  503  0.13899236425E+02 -0.61104217056E+02  0.95693072390E+02  0.11438565565E+03  0.00000000000E+00 0. -1.
         21    1    1    2  506  504 -0.88100020416E+02  0.73174476900E+02 -0.13375040410E+01  0.11453342998E+03  0.00000000000E+00 0. -1.
<scales pt_clust_3="121.93870" pt_clust_4="42.55614" pt_clust_5="62.66509" pt_clust_6="14000.00000"></scales>
<clustering>
<clus scale="   62.665">  1  5  2 -1</clus>
<clus scale="   42.556">  1  4  2 -1</clus>
<clus scale="  121.939">  1  3  2 -1</clus>
<clus scale="   62.665">  1  3  2 -1</clus>
</clustering>
</event>
<event>
 6    0  0.1704145E+002  0.1783986E+03  0.7546771E-02  0.1169362E+00
         21   -1    0    0  506  501  0.00000000000E+00  0.00000000000E+00  0.91290677740E+03  0.91290677740E+03  0.00000000000E+00 0. -1.
         21   -1    0    0  503  502 -0.00000000000E+00 -0.00000000000E+00 -0.26519408878E+03  0.26519408878E+03  0.00000000000E+00 0. -1.
         21    1    1    2  503  505  0.33519211122E+02  0.69477737881E+02 -0.11899293409E+03  0.14180977378E+03  0.00000000000E+00 0. -1.
         21    1    1    2  504  502  0.31289482024E+01 -0.32370260335E+02 -0.76150343188E+01  0.33400790689E+02  0.00000000000E+00 0.  1.
         21    1    1    2  505  501  0.12337976641E+03  0.51064644010E+02 -0.61729758391E+02  0.14710787775E+03  0.00000000000E+00 0. -1.
         21    1    1    2  506  504 -0.16002792573E+03 -0.88172121556E+02  0.83605041542E+03  0.85578242396E+03  0.00000000000E+00 0. -1.
<scales pt_clust_3="62.97396" pt_clust_4="32.52113" pt_clust_5="14000.00000" pt_clust_6="178.39855"></scales>
<clustering>
<clus scale="   32.521">  2  4  1 -1</clus>
<clus scale="   62.974">  2  3  1 -1</clus>
<clus scale="  178.399">  1  6  2 -1</clus>
<clus scale="  178.399">  1  3  2 -1</clus>
</clustering>
</event>
<event>
 6    0  0.1704145E+002  0.3115185E+03  0.7546771E-02  0.1079620E+00
         21   -1    0    0  505  501  0.00000000000E+00  0.00000000000E+00  0.94920401608E+03  0.94920401608E+03  0.00000000000E+00 0. -1.
         21   -1    0    0  503  502 -0.00000000000E+00 -0.00000000000E+00 -0.27976777119E+03  0.27976777119E+03  0.00000000000E+00 0. -1.
         21    1    1    2  503  501 -0.21291982568E+03 -0.24252738523E+03  0.24500143016E+03  0.40519141839E+03  0.00000000000E+00 0. -1.
         21    1    1    2  504  502  0.49240913022E+02  0.55373580587E+01 -0.26165595299E+02  0.56035419395E+02  0.00000000000E+00 0. -1.
         21    1    1    2  505  506  0.35753980096E+02  0.21267183613E+02  0.50862156397E+03  0.51032003246E+03  0.00000000000E+00 0. -1.
         21    1    1    2  506  504  0.12792493256E+03  0.21572284356E+03 -0.58021153937E+02  0.25742491703E+03  0.00000000000E+00 0. -1.
<scales pt_clust_3="293.62831" pt_clust_4="46.08887" pt_clust_5="41.60096" pt_clust_6="46.08887"></scales>
<clustering>
<clus scale="   41.601">  1  5  2 -1</clus>
<clus scale="   46.089">  4  6 -1 -1</clus>
<clus scale="  293.628">  1  3  2 -1</clus>
<clus scale="   41.601">  1  3  2 -1</clus>
</clustering>
</event>
<event>
 6    0  0.1704145E+002  0.7794609E+02  0.7546771E-02  0.1334983E+00
         21   -1    0    0  506  501  0.00000000000E+00  0.00000000000E+00  0.29028612699E+03  0.29028612699E+03  0.00000000000E+00 0.  1.
         21   -1    0    0  504  502 -0.00000000000E+00 -0.00000000000E+00 -0.35146277589E+03  0.35146277589E+03  0.00000000000E+00 0. -1.
         21    1    1    2  503  505 -0.69022132923E+02 -0.79929370586E+02  0.28619622077E+02  0.10941591239E+03  0.00000000000E+00 0.  1.
         21    1    1    2  504  501 -0.24304115362E+02  0.39863171539E+02  0.99926388131E+01  0.47745317039E+02  0.00000000000E+00 0.  1.
         21    1    1    2  505  502  0.61546688245E+02  0.44809359545E+02 -0.28582858985E+03  0.29579360425E+03  0.00000000000E+00 0. -1.
         21    1    1    2  506  503  0.31779560039E+02 -0.47431604974E+01  0.18603968006E+03  0.18879406920E+03  0.00000000000E+00 0.  1.
<scales pt_clust_3="77.94609" pt_clust_4="41.49019" pt_clust_5="14000.00000" pt_clust_6="32.13157"></scales>
<clustering>
<clus scale="   32.132">  1  6  2 -1</clus>
<clus scale="   41.490">  1  4  2 -1</clus>
<clus scale="   77.946">  1  3  2 -1</clus>
<clus scale="   32.132">  1  3  2 -1</clus>
</clustering>
</event>
<event>
 6    0  0.1704145E+002  0.1225459E+03  0.7546771E-02  0.1238955E+00
         21   -1    0    0  503  501  0.00000000000E+00  0.00000000000E+00  0.77868298594E+03  0.77868298594E+03  0.00000000000E+00 0. -1.
         21   -1    0    0  505  502 -0.00000000000E+00 -0.00000000000E+00 -0.51817269243E+02  0.51817269243E+02  0.00000000000E+00 0. -1.
         21    1    1    2  503  504  0.37103806184E+02  0.19044909858E+02  0.75459023646E+02  0.86217546210E+02  0.00000000000E+00 0. -1.
         21    1    1    2  504  502  0.94707568212E+01  0.31662288763E+02  0.17530296361E+02  0.37409986033E+02  0.00000000000E+00 0. -1.
         21    1    1    2  505  506  0.81963754599E+02 -0.11709501614E+02  0.29726796785E+02  0.87970744814E+02  0.00000000000E+00 0. -1.
         21    1    1    2  506  501 -0.12853831761E+03 -0.38997697006E+02  0.60414959990E+03  0.61890197813E+03  0.00000000000E+00 0. -1.
<scales pt_clust_3="44.75058" pt_clust_4="33.04839" pt_clust_5="14000.00000" pt_clust_6="122.54588"></scales>
<clustering>
<clus scale="   33.048">  2  4  1 -1</clus>
<clus scale="   44.751">  2  3  1 -1</clus>
<clus scale="  122.546">  1  6  2 -1</clus>
<clus scale="  122.546">  1  3  2 -1</clus>
</clustering>
</event>
<event>
 6    0  0.1704145E+002  0.1035929E+03  0.7546771E-02  0.1272917E+00
         21   -1    0    0  503  501  0.00000000000E+00  0.00000000000E+00  0.83029756219E+03  0.83029756219E+03  0.00000000000E+00 0. -1.
         21   -1    0    0  505  502 -0.00000000000E+00 -0.00000000000E+00 -0.61728200666E+02  0.61728200666E+02  0.00000000000E+00 0. -1.
         21    1    1    2  503  504 -0.34169578552E+01  0.11076579220E+03  0.66734538285E+03  0.67648399562E+03  0.00000000000E+00 0. -1.
         21    1    1    2  504  506  0.40029491387E+02 -0.65941901204E+01  0.17657410913E+02  0.44245086554E+02  0.00000000000E+00 0. -1.
         21    1    1    2  505  501 -0.50449549647E+02 -0.74937022063E+02  0.10021355075E+03  0.13492023602E+03  0.00000000000E+00 0. -1.
         21    1    1    2  506  502  0.13837016116E+02 -0.29234580022E+02 -0.16646982978E+02  0.36376444663E+02  0.00000000000E+00 0. -1.
<scales pt_clust_3="103.59290" pt_clust_4="48.56574" pt_clust_5="14000.00000" pt_clust_6="32.34384"></scales>
<clustering>
<clus scale="   32.344">  2  6  1 -1</clus>
<clus scale="   48.566">  2  4  1 -1</clus>
<clus scale="  103.593">  1  3  2 -1</clus>
<clus scale="  103.593">  1  3  2 -1</clus>
</clustering>
</event>
<event>
 6    0  0.1704145E+002  0.1092406E+03  0.7546771E-02  0.1261983E+00
         21   -1    0    0  505  501  0.00000000000E+00  0.00000000000E+00  0.96039921710E+03  0.96039921710E+03  0.00000000000E+00 0. -1.
         21   -1    0    0  503  502 -0.00000000000E+00 -0.00000000000E+00 -0.71730850265E+02  0.71730850265E+02  0.00000000000E+00 0.  1.
         21    1    1    2  503  501  0.75957413709E+02  0.32372867090E+02  0.85276631793E+02  0.11869976896E+03  0.00000000000E+00 0.  1.
         21    1    1    2  504  502 -0.29893108654E+02 -0.66659666055E+02  0.71217841695E+01  0.73401831267E+02  0.00000000000E+00 0.  1.
         21    1    1    2  505  506 -0.68905316274E+02  0.68362763459E+02  0.79295300661E+03  0.79887162969E+03  0.00000000000E+00 0. -1.
         21    1    1    2  506  504  0.22841011218E+02 -0.34075964494E+02  0.33169442683E+01  0.41156837451E+02  0.00000000000E+00 0.  1.
<scales pt_clust_3="82.56834" pt_clust_4="39.77455" pt_clust_5="95.47868" pt_clust_6="39.77455"></scales>
<clustering>
<clus scale="   39.775">  4  6 -1 -1</clus>
<clus scale="   82.568">  2  3  1 -1</clus>
<clus scale="   95.479">  1  5  2 -1</clus>
<clus scale="   95.479">  1  3  2 -1</clus>
</clustering>
</event>
<event>
 6    0  0.1704145E+002  0.4566315E+03  0.7546771E-02  0.1025763E+00
         21   -1    0    0  504  501  0.00000000000E+00  0.00000000000E+00  0.43134902290E+03  0.43134902290E+03  0.00000000000E+00 0.  1.
         21   -1    0    0  505  502 -0.00000000000E+00 -0.00000000000E+00 -0.52271694622E+03  0.52271694622E+03  0.00000000000E+00 0.  1.
         21    1    1    2  503  501  0.48517126638E+02  0.49491156718E+01  0.42091870673E+02  0.64421509606E+02  0.00000000000E+00 0.  1.
         21    1    1    2  504  506 -0.90525190110E+02  0.11780303436E+02 -0.10870503695E+02  0.91933418538E+02  0.00000000000E+00 0. -1.
         21    1    1    2  505  503  0.38396409973E+03 -0.10698908127E+03  0.54301453337E+02  0.40227321713E+03  0.00000000000E+00 0.  1.
         21    1    1    2  506  502 -0.34195603625E+03  0.90259662160E+02 -0.17689074363E+03  0.39543782384E+03  0.00000000000E+00 0.  1.
<scales pt_clust_3="36.78643" pt_clust_4="35.28795" pt_clust_5="36.78643" pt_clust_6="449.75153"></scales>
<clustering>
<clus scale="   35.288">  4  6 -1 -1</clus>
<clus scale="   36.786">  3  5 -1 -1</clus>
<clus scale="  449.752">  2  4  1 -1</clus>
<clus scale="  456.631">  1  3  2 -1</clus>
</clustering>
</event>
<event>
 6    0  0.1704145E+002  0.8154721E+02  0.7546771E-02  0.1324717E+00
         21   -1    0    0  503  501  0.00000000000E+00  0.00000000000E+00  0.32000869250E+03  0.32000869250E+03  0.00000000000E+00 0.  1.
         21   -1    0    0  505  502 -0.00000000000E+00 -0.00000000000E+00 -0.38947764727E+03  0.38947764727E+03  0.00000000000E+00 0.  1.
         21    1    1    2  503  502 -0.77777400916E+02 -0.14016894196E+02 -0.26178247375E+03  0.27345175256E+03  0.00000000000E+00 0.  1.
         21    1    1    2  504  501  0.50127992556E+02  0.57105474391E+01  0.24599034425E+03  0.25111088279E+03  0.00000000000E+00 0.  1.
         21    1    1    2  505  506  0.10043549784E+03  0.95268792745E+01 -0.13526283613E+02  0.10178905149E+03  0.00000000000E+00 0.  1.
         21    1    1    2  506  504 -0.72786089483E+02 -0.12205325177E+01 -0.40150541653E+02  0.83134652924E+02  0.00000000000E+00 0.  1.
<scales pt_clust_3="81.54721" pt_clust_4="50.45221" pt_clust_5="14000.00000" pt_clust_6="57.71151"></scales>
<clustering>
<clus scale="   50.452">  1  4  2 -1</clus>
<clus scale="   57.712">  1  6  2 -1</clus>
<clus scale="   81.547">  2  3  1 -1</clus>
<clus scale="   50.452">  1  3  2 -1</clus>
</clustering>
</event>
<event>
 6    0  0.1704145E+002  0.2943693E+03  0.7546771E-02  0.1088090E+00
         21   -1    0    0  504  501  0.00000000000E+00  0.00000000000E+00  0.19145039396E+03  0.19145039396E+03  0.00000000000E+00 0. -1.
         21   -1    0    0  506  502 -0.00000000000E+00 -0.00000000000E+00 -0.25200083857E+04  0.25200083857E+04  0.00000000000E+00 0. -1.
         21    1    1    2  503  501 -0.30956339819E+03  0.27128332485E+02 -0.12439268030E+03  0.33472224730E+03  0.00000000000E+00 0. -1.
         21    1    1    2  504  502  0.19412986575E+02 -0.43544879526E+02  0.69496133780E+02  0.84277714676E+02  0.00000000000E+00 0. -1.
         21    1    1    2  505  503  0.11987482978E+03  0.25076702975E+02 -0.95643539873E+03  0.96424451660E+03  0.00000000000E+00 0. -1.
         21    1    1    2  506  505  0.17027558184E+03 -0.86601559335E+01 -0.13172260465E+04  0.13282143011E+04  0.00000000000E+00 0.  1.
<scales pt_clust_3="292.02564" pt_clust_4="47.67621" pt_clust_5="31.41942" pt_clust_6="31.41942"></scales>
<clustering>
<clus scale="   31.419">  5  6 -1 -1</clus>
<clus scale="   47.676">  1  4  2 -1</clus>
<clus scale="  292.026">  1  3  2 -1</clus>
<clus scale="   47.676">  1  3  2 -1</clus>
</clustering>
</event>
<event>
 6    0  0.1704145E+002  0.2820478E+03  0.7546771E-02  0.1094576E+00
         21   -1    0    0  506  501  0.00000000000E+00  0.00000000000E+00  0.99794008833E+03  0.99794008833E+03  0.00000000000E+00 0.  1.
         21   -1    0    0  503  502 -0.00000000000E+00 -0.00000000000E+00 -0.14341150384E+03  0.14341150384E+03  0.00000000000E+00 0.  1.
         21    1    1    2  503  501  0.21107179517E+03 -0.13757215952E+03  0.81923789407E+03  0.85710450289E+03  0.00000000000E+00 0.  1.
         21    1    1    2  504  505 -0.97395014723E+02  0.88301830763E+02  0.57576606297E+02  0.14352026965E+03  0.00000000000E+00 0. -1.
         21    1    1    2  505  502 -0.50888940094E+02  0.42453500285E+02 -0.36968479828E+02  0.75885785304E+02  0.00000000000E+00 0.  1.
         21    1    1    2  506  504 -0.62787840355E+02  0.68168284681E+01  0.14682563951E+02  0.64841034315E+02  0.00000000000E+00 0.  1.
<scales pt_clust_3="251.94722" pt_clust_4="60.25686" pt_clust_5="60.25686" pt_clust_6="40.92865"></scales>
<clustering>
<clus scale="   40.929">  4  6 -1 -1</clus>
<clus scale="   60.257">  4  5 -1 -1</clus>
<clus scale="  251.947">  1  3  2 -1</clus>
<clus scale="  251.947">  1  3  2 -1</clus>
</clustering>
</event>
<event>
 6    0  0.1704145E+002  0.1292190E+03  0.7546771E-02  0.1228619E+00
         21   -1    0    0  506  501  0.00000000000E+00  0.00000000000E+00  0.45579167365E+03  0.45579167365E+03  0.00000000000E+00 0.  1.
         21   -1    0    0  505  502 -0.00000000000E+00 -0.00000000000E+00 -0.16396501534E+03  0.16396501534E+03  0.00000000000E+00 0.  1.
         21    1    1    2  503  502 -0.40413432571E+01  0.44835714028E+02 -0.55281087176E+02  0.71292161611E+02  0.00000000000E+00 0.  1.
         21    1    1    2  504  503 -0.71832503774E+02  0.93291053295E+02  0.31033528357E+01  0.11778268133E+03  0.00000000000E+00 0.  1.
         21    1    1    2  505  501  0.10481934058E+03 -0.85897481742E+02  0.74511608117E+02  0.15465267949E+03  0.00000000000E+00 0.  1.
         21    1    1    2  506  504 -0.28945493554E+02 -0.52229285581E+02  0.26949278453E+03  0.27602916655E+03  0.00000000000E+00 0.  1.
<scales pt_clust_3="45.01748" pt_clust_4="14000.00000" pt_clust_5="129.21902" pt_clust_6="58.51014"></scales>
<clustering>
<clus scale="   45.017">  2  3  1 -1</clus>
<clus scale="   58.510">  1  6  2 -1</clus>
<clus scale="  129.219">  1  5  2 -1</clus>
<clus scale="   58.510">  1  3  2 -1</clus>
</clustering>
</event>
<event>
 6    0  0.1704145E+002  0.1427163E+03  0.7546771E-02  0.1209720E+00
         21   -1    0    0  506  501  0.00000000000E+00  0.00000000000E+00  0.29039369164E+03  0.29039369164E+03  0.00000000000E+00 0. -1.
         21   -1    0    0  503  502 -0.00000000000E+00 -0.00000000000E+00 -0.32779374864E+03  0.32779374864E+03  0.00000000000E+00 0.  1.
         21    1    1    2  503  504  0.85574761066E+02  0.53404658120E+02  0.43826702625E+02  0.10998125796E+03  0.00000000000E+00 0.  1.
         21    1    1    2  504  501  0.50271119310E+02 -0.12185538177E+02  0.19044709881E+03  0.19734682724E+03  0.00000000000E+00 0. -1.
         21    1    1    2  505  502 -0.50651186038E+02 -0.13516687366E+02 -0.15586337794E+03  0.16444341297E+03  0.00000000000E+00 0.  1.
         21    1    1    2  506  505 -0.85194694338E+02 -0.27702432577E+02 -0.11581048048E+03  0.14641594211E+03  0.00000000000E+00 0.  1.
<scales pt_clust_3="133.01959" pt_clust_4="51.72691" pt_clust_5="39.55524" pt_clust_6="39.55524"></scales>
<clustering>
<clus scale="   39.555">  5  6 -1 -1</clus>
<clus scale="   51.727">  1  4  2 -1</clus>
<clus scale="  133.020">  1  3  2 -1</clus>
<clus scale="   51.727">  1  3  2 -1</clus>
</clustering>
</event>
<event>
 6    0  0.1704145E+002  0.1838407E+03  0.7546771E-02  0.1164137E+00
         21   -1    0    0  505  501  0.00000000000E+00  0.00000000000E+00  0.23806297534E+03  0.23806297534E+03  0.00000000000E+00 0. -1.
         21   -1    0    0  503  502 -0.00000000000E+00 -0.00000000000E+00 -0.79612799478E+03  0.79612799478E+03  0.00000000000E+00 0.  1.
         21    1    1    2  503  504  0.48872959251E+01  0.19214693796E+03 -0.64015684026E+03  0.66838993976E+03  0.00000000000E+00 0.  1.
         21    1    1    2  504  501 -0.10270981279E+03 -0.36902304957E+02 -0.47069951026E+02  0.11885565214E+03  0.00000000000E+00 0. -1.
         21    1    1    2  505  506  0.65566772546E+02 -0.54753963927E+02  0.72996910242E+01  0.85733795652E+02  0.00000000000E+00 0. -1.
         21    1    1    2  506  502  0.32255744323E+02 -0.10049066908E+03  0.12186208082E+03  0.16121158257E+03  0.00000000000E+00 0. -1.
<scales pt_clust_3="183.84070" pt_clust_4="101.98390" pt_clust_5="85.42247" pt_clust_6="14000.00000"></scales>
<clustering>
<clus scale="   85.422">  1  5  2 -1</clus>
<clus scale="  101.984">  1  4  2 -1</clus>
<clus scale="  183.841">  2  3  1 -1</clus>
<clus scale="   85.422">  1  3  2 -1</clus>
</clustering>
</event>
<event>
 6    0  0.1704145E+002  0.1429075E+03  0.7546771E-02  0.1209469E+00
         21   -1    0    0  504  501  0.00000000000E+00  0.00000000000E+00  0.42164009903E+03  0.42164009903E+03  0.00000000000E+00 0. -1.
         21   -1    0    0  503  502 -0.00000000000E+00 -0.00000000000E+00 -0.22922780623E+03  0.22922780623E+03  0.00000000000E+00 0. -1.
         21    1    1    2  503  506 -0.11589200109E+02 -0.30330128799E+02 -0.15312295706E+02  0.35898365867E+02  0.00000000000E+00 0. -1.
         21    1    1    2  504  502  0.10352989282E+03  0.38370327407E+02 -0.57316767143E+02  0.12440230114E+03  0.00000000000E+00 0. -1.
         21    1    1    2  505  501  0.43846537159E+02 -0.13203712264E+03  0.27311101389E+03  0.30650603009E+03  0.00000000000E+00 0. -1.
         21    1    1    2  506  505 -0.13578722987E+03  0.12399692403E+03 -0.80696582338E+01  0.18406120816E+03  0.00000000000E+00 0. -1.
<scales pt_clust_3="32.46885" pt_clust_4="101.44590" pt_clust_5="14000.00000" pt_clust_6="142.90753"></scales>
<clustering>
<clus scale="   32.469">  2  3  1 -1</clus>
<clus scale="  101.446">  2  4  1 -1</clus>
<clus scale="  142.908">  2  6  1 -1</clus>
<clus scale="  142.908">  1  3  2 -1</clus>
</clustering>
</event>
<event>
 6    0  0.1704145E+002  0.3394238E+03  0.7546771E-02  0.1067042E+00
         21   -1    0    0  503  501  0.00000000000E+00  0.00000000000E+00  0.11844259262E+03  0.11844259262E+03  0.00000000000E+00 0. -1.
         21   -1    0    0  504  502 -0.00000000000E+00 -0.00000000000E+00 -0.14103032172E+04  0.14103032172E+04  0.00000000000E+00 0. -1.
         21    1    1    2  503  502 -0.23641067925E+03 -0.25929616431E+03 -0.41505657572E+03  0.54350388328E+03  0.00000000000E+00 0. -1.
         21    1    1    2  504  506  0.20254580408E+03  0.18036331729E+03 -0.67346807076E+03  0.72602683925E+03  0.00000000000E+00 0. -1.
         21    1    1    2  505  501  0.15739439578E+02  0.28357548129E+02  0.14008647549E+02  0.35328780056E+02  0.00000000000E+00 0. -1.
         21    1    1    2  506  505  0.18125435582E+02  0.50575298900E+02 -0.21734462562E+03  0.22388630722E+03  0.00000000000E+00 0. -1.
<scales pt_clust_3="329.31636" pt_clust_4="36.39797" pt_clust_5="32.43271" pt_clust_6="36.39797"></scales>
<clustering>
<clus scale="   32.433">  1  5  2 -1</clus>
<clus scale="   36.398">  4  6 -1 -1</clus>
<clus scale="  329.316">  1  3  2 -1</clus>
<clus scale="   32.433">  1  3  2 -1</clus>
</clustering>
</event>
<event>
 6    0  0.1704145E+002  0.1569644E+03  0.7546771E-02  0.1192167E+00
         21   -1    0    0  506  501  0.00000000000E+00  0.00000000000E+00  0.27394077541E+03  0.27394077541E+03  0.00000000000E+00 0.  1.
         21   -1    0    0  504  502 -0.00000000000E+00 -0.00000000000E+00 -0.88230029108E+03  0.88230029108E+03  0.00000000000E+00 0.  1.
         21    1    1    2  503  502 -0.33362149873E+02 -0.96682146874E+02 -0.69804738714E+03  0.70550026595E+03  0.00000000000E+00 0.  1.
         21    1    1    2  504  501 -0.14757152678E+02  0.51168239462E+02 -0.92917393115E+01  0.54058289875E+02  0.00000000000E+00 0.  1.
         21    1    1    2  505  503 -0.15238554606E+02 -0.42538250950E+02 -0.13306840136E+03  0.14053083569E+03  0.00000000000E+00 0. -1.
         21    1    1    2  506  505  0.63357857156E+02  0.88052158362E+02  0.23204801214E+03  0.25615167498E+03  0.00000000000E+00 0.  1.
<scales pt_clust_3="38.01365" pt_clust_4="53.25375" pt_clust_5="38.01365" pt_clust_6="146.17452"></scales>
<clustering>
<clus scale="   38.014">  3  5 -1 -1</clus>
<clus scale="   53.254">  1  4  2 -1</clus>
<clus scale="  146.175">  1  6  2 -1</clus>
<clus scale="   53.254">  1  3  2 -1</clus>
</clustering>
</event>
<event>
 6    0  0.1704145E+002  0.7529468E+02  0.7546771E-02  0.1342961E+00
         21   -1    0    0  506  501  0.00000000000E+00  0.00000000000E+00  0.23341909587E+03  0.23341909587E+03  0.00000000000E+00 0.  1.
         21   -1    0    0  504  502 -0.00000000000E+00 -0.00000000000E+00 -0.49836268385E+03  0.49836268385E+03  0.00000000000E+00 0.  1.
         21    1    1    2  503  502 -0.31249097006E+02  0.24400389653E+02 -0.16531995206E+03  0.17000756345E+03  0.00000000000E+00 0.  1.
         21    1    1    2  504  501  0.86204971422E+02 -0.41254575859E+02 -0.14612751200E+03  0.17460379976E+03  0.00000000000E+00 0.  1.
         21    1    1    2  505  503 -0.63172797299E+02 -0.28576584570E+02 -0.16062908376E+03  0.17495463998E+03  0.00000000000E+00 0.  1.
         21    1    1    2  506  505  0.82169228826E+01  0.45430770775E+02  0.20713295985E+03  0.21221577653E+03  0.00000000000E+00 0.  1.
<scales pt_clust_3="39.64701" pt_clust_4="75.29468" pt_clust_5="14000.00000" pt_clust_6="46.31044"></scales>
<clustering>
<clus scale="   39.647">  2  3  1 -1</clus>
<clus scale="   46.310">  1  6  2 -1</clus>
<clus scale="   75.295">  2  4  1 -1</clus>
<clus scale="   46.310">  1  3  2 -1</clus>
</clustering>
</event>
<event>
 6    0  0.1704145E+002  0.9890300E+02  0.7546771E-02  0.1282620E+00
         21   -1    0    0  504  501  0.00000000000E+00  0.00000000000E+00  0.19034836128E+03  0.19034836128E+03  0.00000000000E+00 0. -1.
         21   -1    0    0  506  502 -0.00000000000E+00 -0.00000000000E+00 -0.62275122351E+03  0.62275122351E+03  0.00000000000E+00 0.  1.
         21    1    1    2  503  505 -0.49539407644E+02  0.39708087239E+02 -0.18740037623E+02  0.66197236438E+02  0.00000000000E+00 0. -1.
         21    1    1    2  504  502  0.28429486857E+02  0.33936922433E+02 -0.61830215272E+02  0.76045551795E+02  0.00000000000E+00 0.  1.
         21    1    1    2  505  501 -0.23126225725E+02  0.26169959277E+02  0.15167731064E+03  0.15564605889E+03  0.00000000000E+00 0. -1.
         21    1    1    2  506  503  0.44236146512E+02 -0.99814968949E+02 -0.50350991998E+03  0.51521073766E+03  0.00000000000E+00 0.  1.
<scales pt_clust_3="98.90300" pt_clust_4="45.77235" pt_clust_5="34.92405" pt_clust_6="14000.00000"></scales>
<clustering>
<clus scale="   34.924">  1  5  2 -1</clus>
<clus scale="   45.772">  1  4  2 -1</clus>
<clus scale="   98.903">  1  3  2 -1</clus>
<clus scale="   34.924">  1  3  2 -1</clus>
</clustering>
</event>
<event>
 6    0  0.1704145E+002  0.1660055E+03  0.7546771E-02  0.1182079E+00
         21   -1    0    0  503  501  0.00000000000E+00  0.00000000000E+00  0.32761907749E+03  0.32761907749E+03  0.00000000000E+00 0. -1.
         21   -1    0    0  506  502 -0.00000000000E+00 -0.00000000000E+00 -0.63101682383E+03  0.63101682383E+03  0.00000000000E+00 0. -1.
         21    1    1    2  503  505  0.61007339380E+02  0.12206224047E+03 -0.41209748766E+03  0.43410301236E+03  0.00000000000E+00 0. -1.
         21    1    1    2  504  501 -0.28316427160E+02 -0.49427616973E+02  0.26547134016E+03  0.27151416503E+03  0.00000000000E+00 0. -1.
         21    1    1    2  505  502 -0.11923422309E+02  0.40622877187E+02 -0.12730816315E+03  0.13416316393E+03  0.00000000000E+00 0. -1.
         21    1    1    2  506  504 -0.20767489911E+02 -0.11325750069E+03 -0.29463435690E+02  0.11885556000E+03  0.00000000000E+00 0. -1.
<scales pt_clust_3="30.97407" pt_clust_4="56.96411" pt_clust_5="30.97407" pt_clust_6="156.41459"></scales>
<clustering>
<clus scale="   30.974">  3  5 -1 -1</clus>
<clus scale="   56.964">  1  4  2 -1</clus>
<clus scale="  156.415">  1  6  2 -1</clus>
<clus scale="   56.964">  1  3  2 -1</clus>
</clustering>
</event>
<event>
 6    0  0.1704145E+002  0.1154334E+03  0.7546771E-02  0.1250826E+00
         21   -1    0    0  503  501  0.00000000000E+00  0.00000000000E+00  0.26636302500E+03  0.26636302500E+03  0.00000000000E+00 0. -1.
         21   -1    0    0  505  502 -0.00000000000E+00 -0.00000000000E+00 -0.59816157301E+03  0.59816157301E+03  0.00000000000E+00 0. -1.
         21    1    1    2  503  502  0.55688886348E+02  0.61315618993E+02 -0.69190811426E+02  0.10792694557E+03  0.00000000000E+00 0. -1.
         21    1    1    2  504  506  0.58375567591E+01 -0.59672811555E+02 -0.13676399704E+03  0.14932954294E+03  0.00000000000E+00 0. -1.
         21    1    1    2  505  504 -0.54290787524E+02 -0.10307017020E+03 -0.34582663335E+03  0.36492055290E+03  0.00000000000E+00 0. -1.
         21    1    1    2  506  501 -0.72356555834E+01  0.10142736276E+03  0.21998289380E+03  0.24234755661E+03  0.00000000000E+00 0. -1.
<scales pt_clust_3="82.83029" pt_clust_4="37.46007" pt_clust_5="37.46007" pt_clust_6="102.94862"></scales>
<clustering>
<clus scale="   37.460">  4  5 -1 -1</clus>
<clus scale="   82.830">  2  3  1 -1</clus>
<clus scale="  102.949">  1  6  2 -1</clus>
<clus scale="  102.949">  1  3  2 -1</clus>
</clustering>
</event>
<event>
 6    0  0.1704145E+002  0.2459576E+03  0.7546771E-02  0.1115886E+00
         21   -1    0    0  505  501  0.00000000000E+00  0.00000000000E+00  0.22930862408E+03  0.22930862408E+03  0.00000000000E+00 0.  1.
         21   -1    0    0  501  502 -0.00000000000E+00 -0.00000000000E+00 -0.95128802854E+03  0.95128802854E+03  0.00000000000E+00 0.  1.
         21    1    1    2  503  502 -0.33676646088E+00 -0.61037656635E+02 -0.64905337348E+02  0.89097765153E+02  0.00000000000E+00 0.  1.
         21    1    1    2  504  503 -0.60440832877E+02  0.21452990766E+02 -0.62308700415E+02  0.89418673883E+02  0.00000000000E+00 0. -1.
         21    1    1    2  505  506  0.25050926097E+03  0.33963669461E+02  0.10743083776E+03  0.27468127999E+03  0.00000000000E+00 0.  1.
         21    1    1    2  506  504 -0.18973166163E+03  0.56209964084E+01 -0.70219620447E+03  0.72739893359E+03  0.00000000000E+00 0.  1.
<scales pt_clust_3="61.03859" pt_clust_4="62.59125" pt_clust_5="245.95764" pt_clust_6="14000.00000"></scales>
<clustering>
<clus scale="   61.039">  2  3  1 -1</clus>
<clus scale="   62.591">  2  4  1 -1</clus>
<clus scale="  245.958">  1  5  2 -1</clus>
<clus scale="  245.958">  1  3  2 -1</clus>
</clustering>
</event>
<event>
 6    0  0.1704145E+002  0.1334212E+03  0.7546771E-02  0.1222466E+00
         21   -1    0    0  506  501  0.00000000000E+00  0.00000000000E+00  0.59238322396E+03  0.59238322396E+03  0.00000000000E+00 0. -1.
         21   -1    0    0  503  502 -0.00000000000E+00 -0.00000000000E+00 -0.17474670182E+04  0.17474670182E+04  0.00000000000E+00 0.  1.
         21    1    1    2  503  501 -0.69179520182E+02 -0.25464679419E+01  0.21904222825E+02  0.72609128140E+02  0.00000000000E+00 0. -1.
         21    1    1    2  504  502  0.42493159399E+02 -0.39382475220E+02 -0.10440483254E+04  0.10456546053E+04  0.00000000000E+00 0.  1.
         21    1    1    2  505  504  0.62578517452E+02 -0.30433219969E+02 -0.67246115573E+03  0.67605196375E+03  0.00000000000E+00 0. -1.
         21    1    1    2  506  505 -0.35892156668E+02  0.72362163131E+02  0.53952146404E+03  0.54553454494E+03  0.00000000000E+00 0. -1.
<scales pt_clust_3="69.22637" pt_clust_4="40.33888" pt_clust_5="40.33888" pt_clust_6="125.88405"></scales>
<clustering>
<clus scale="   40.339">  4  5 -1 -1</clus>
<clus scale="   69.226">  1  3  2 -1</clus>
<clus scale="  125.884">  1  6  2 -1</clus>
<clus scale="   69.226">  1  3  2 -1</clus>
</clustering>
</event>
<event>
 6    0  0.1704145E+002  0.1024917E+03  0.7546771E-02  0.1275142E+00
         21   -1    0    0  505  501  0.00000000000E+00  0.00000000000E+00  0.25277263161E+03  0.25277263161E+03  0.00000000000E+00 0.  1.
         21   -1    0    0  504  502 -0.00000000000E+00 -0.00000000000E+00 -0.44311112185E+03  0.44311112185E+03  0.00000000000E+00 0.  1.
         21    1    1    2  503  506 -0.39569688274E+02  0.13764289332E+03 -0.22365386390E+03  0.26557932365E+03  0.00000000000E+00 0.  1.
         21    1    1    2  504  501 -0.55610258230E+01 -0.35175659965E+02 -0.29057585896E+02  0.45962978149E+02  0.00000000000E+00 0.  1.
         21    1    1    2  505  503 -0.14630798552E+01 -0.42967644152E+02  0.21221207638E+03  0.21652326529E+03  0.00000000000E+00 0.  1.
         21    1    1    2  506  502  0.46593793952E+02 -0.59499589204E+02 -0.14983911682E+03  0.16781818638E+03  0.00000000000E+00 0.  1.
<scales pt_clust_3="14000.00000" pt_clust_4="35.61253" pt_clust_5="43.18039" pt_clust_6="102.49173"></scales>
<clustering>
<clus scale="   35.613">  2  4  1 -1</clus>
<clus scale="   43.180">  1  5  2 -1</clus>
<clus scale="  102.492">  2  6  1 -1</clus>
<clus scale="   43.180">  1  3  2 -1</clus>
</clustering>
</event>
<event>
 6    0  0.1704145E+002  0.3781802E+03  0.7546771E-02  0.1051608E+00
         21   -1    0    0  503  501  0.00000000000E+00  0.00000000000E+00  0.16393501796E+04  0.16393501796E+04  0.00000000000E+00 0. -1.
         21   -1    0    0  506  502 -0.00000000000E+00 -0.00000000000E+00 -0.17485189507E+03  0.17485189507E+03  0.00000000000E+00 0. -1.
         21    1    1    2  503  504  0.44012373192E+02 -0.42387513747E+02  0.36333520034E+02  0.71090892480E+02  0.00000000000E+00 0. -1.
         21    1    1    2  504  502  0.26964818919E+03 -0.91692614571E+02  0.40096309716E+02  0.28762022800E+03  0.00000000000E+00 0. -1.
         21    1    1    2  505  501 -0.35447685710E+03  0.12188449437E+03  0.13391547885E+04  0.13906276352E+04  0.00000000000E+00 0. -1.
         21    1    1    2  506  505  0.40816294715E+02  0.12195633944E+02  0.48913666213E+02  0.64863318940E+02  0.00000000000E+00 0. -1.
<scales pt_clust_3="37.26220" pt_clust_4="37.26220" pt_clust_5="369.52480" pt_clust_6="42.59934"></scales>
<clustering>
<clus scale="   37.262">  3  4 -1 -1</clus>
<clus scale="   42.599">  2  6  1 -1</clus>
<clus scale="  369.525">  1  5  2 -1</clus>
<clus scale="  369.525">  1  3  2 -1</clus>
</clustering>
</event>
<event>
 6    0  0.1704145E+002  0.9841865E+02  0.7546771E-02  0.1283657E+00
         21   -1    0    0  505  501  0.00000000000E+00  0.00000000000E+00  0.22663608205E+03  0.22663608205E+03  0.00000000000E+00 0.  1.
         21   -1    0    0  504  502 -0.00000000000E+00 -0.00000000000E+00 -0.44527041741E+03  0.44527041741E+03  0.00000000000E+00 0.  1.
         21    1    1    2  503  502 -0.11606935607E+01 -0.51770957431E+02 -0.28824053263E+02  0.59265548925E+02  0.00000000000E+00 0.  1.
         21    1    1    2  504  506 -0.90680627969E+02  0.39241219584E+02 -0.31730221351E+03  0.33233047453E+03  0.00000000000E+00 0.  1.
         21    1    1    2  505  503  0.26473239066E+02 -0.49215646069E+02 -0.54033686629E+02  0.77734493600E+02  0.00000000000E+00 0.  1.
         21    1    1    2  506  501  0.65368082463E+02  0.61745383916E+02  0.18152561804E+03  0.20257598240E+03  0.00000000000E+00 0.  1.
<scales pt_clust_3="31.40834" pt_clust_4="92.85281" pt_clust_5="31.40834" pt_clust_6="89.91929"></scales>
<clustering>
<clus scale="   31.408">  3  5 -1 -1</clus>
<clus scale="   89.919">  1  6  2 -1</clus>
<clus scale="   92.853">  2  4  1 -1</clus>
<clus scale="   89.919">  1  3  2 -1</clus>
</clustering>
</event>
<event>
 6    0  0.1704145E+002  0.1174269E+03  0.7546771E-02  0.1247403E+00
         21   -1    0    0  504  501  0.00000000000E+00  0.00000000000E+00  0.28516668583E+04  0.28516668583E+04  0.00000000000E+00 0.  1.
         21   -1    0    0  505  502 -0.00000000000E+00 -0.00000000000E+00 -0.16794341170E+03  0.16794341170E+03  0.00000000000E+00 0.  1.
         21    1    1    2  503  506  0.10337873929E+03  0.10690247930E+02  0.17292703189E+02  0.10535882840E+03  0.00000000000E+00 0.  1.
         21    1    1    2  504  502 -0.13183006062E+03 -0.79153361069E+02  0.47893714216E+02  0.16105349209E+03  0.00000000000E+00 0.  1.
         21    1    1    2  505  503  0.24072381149E+02  0.11242658171E+03 -0.17926745594E+02  0.11636401513E+03  0.00000000000E+00 0.  1.
         21    1    1    2  506  501  0.43789401777E+01 -0.43963468573E+02  0.26364637748E+04  0.26368339344E+04  0.00000000000E+00 0.  1.
<scales pt_clust_3="104.64400" pt_clust_4="117.42690" pt_clust_5="14000.00000" pt_clust_6="44.18101"></scales>
<clustering>
<clus scale="   44.181">  1  6  2 -1</clus>
<clus scale="  104.644">  1  3  2 -1</clus>
<clus scale="  117.427">  1  4  2 -1</clus>
<clus scale="   44.181">  1  3  2 -1</clus>
</clustering>
</event>
<event>
 6    0  0.1704145E+002  0.1344822E+03  0.7546771E-02  0.1220952E+00
         21   -1    0    0  505  501  0.00000000000E+00  0.00000000000E+00  0.39807159026E+03  0.39807159026E+03  0.00000000000E+00 0. -1.
         21   -1    0    0  503  502 -0.00000000000E+00 -0.00000000000E+00 -0.19836921020E+04  0.19836921020E+04  0.00000000000E+00 0. -1.
         21    1    1    2  503  501 -0.90936880593E+02 -0.29196174785E+02 -0.17768668685E+03  0.20172875739E+03  0.00000000000E+00 0. -1.
         21    1    1    2  504  502 -0.56322825201E+02  0.19186803222E+02 -0.16335825744E+04  0.16346658440E+04  0.00000000000E+00 0. -1.
         21    1    1    2  505  506 -0.30835205958E+02 -0.90007189929E+01  0.33432882038E+03  0.33586840132E+03  0.00000000000E+00 0. -1.
         21    1    1    2  506  504  0.17809491175E+03  0.19010090556E+02 -0.10868007088E+03  0.20950068960E+03  0.00000000000E+00 0. -1.
<scales pt_clust_3="14000.00000" pt_clust_4="59.72751" pt_clust_5="32.12200" pt_clust_6="134.48224"></scales>
<clustering>
<clus scale="   32.122">  1  5  2 -1</clus>
<clus scale="   59.728">  2  4  1 -1</clus>
<clus scale="  134.482">  1  6  2 -1</clus>
<clus scale="   32.122">  1  3  2 -1</clus>
</clustering>
</event>
<event>
 6    0  0.1704145E+002  0.1786364E+03  0.7546771E-02  0.1169129E+00
         21   -1    0    0  506  501  0.00000000000E+00  0.00000000000E+00  0.60489469378E+03  0.60489469378E+03  0.00000000000E+00 0. -1.
         21   -1    0    0  505  502 -0.00000000000E+00 -0.00000000000E+00 -0.44193601374E+03  0.44193601374E+03  0.00000000000E+00 0.  1.
         21    1    1    2  503  502 -0.26900484785E+02 -0.17627638633E+03 -0.35396292611E+03  0.39634171307E+03  0.00000000000E+00 0.  1.
         21    1    1    2  504  501 -0.35691946235E+02  0.20452547875E+02  0.24983632994E+02  0.48129031345E+02  0.00000000000E+00 0. -1.
         21    1    1    2  505  504  0.32967582261E+02 -0.35597261376E+01 -0.36677652837E+02  0.49444750459E+02  0.00000000000E+00 0.  1.
         21    1    1    2  506  503  0.29624848759E+02  0.15938356459E+03  0.52861562600E+03  0.55291521265E+03  0.00000000000E+00 0. -1.
<scales pt_clust_3="14000.00000" pt_clust_4="40.25722" pt_clust_5="33.15921" pt_clust_6="178.63644"></scales>
<clustering>
<clus scale="   33.159">  2  5  1 -1</clus>
<clus scale="   40.257">  1  4  2 -1</clus>
<clus scale="  178.636">  1  6  2 -1</clus>
<clus scale="   40.257">  1  3  2 -1</clus>
</clustering>
</event>
<event>
 6    0  0.1704145E+002  0.1890222E+03  0.7546771E-02  0.1159346E+00
         21   -1    0    0  506  501  0.00000000000E+00  0.00000000000E+00  0.93655929973E+02  0.93655929973E+02  0.00000000000E+00 0. -1.
         21   -1    0    0  505  502 -0.00000000000E+00 -0.00000000000E+00 -0.72487553653E+03  0.72487553653E+03  0.00000000000E+00 0. -1.
         21    1    1    2  503  504 -0.39397611616E+01  0.41299519209E+02 -0.13237586287E+03  0.13872469526E+03  0.00000000000E+00 0.  1.
         21    1    1    2  504  501  0.52160205647E+02  0.16227563833E+03 -0.98370988174E+02  0.19680173059E+03  0.00000000000E+00 0. -1.
         21    1    1    2  505  503  0.26236679029E+02  0.19165668934E+02 -0.74142589558E+02  0.80949427290E+02  0.00000000000E+00 0.  1.
         21    1    1    2  506  502 -0.74457123514E+02 -0.22274082648E+03 -0.32633016596E+03  0.40205561336E+03  0.00000000000E+00 0. -1.
<scales pt_clust_3="45.33944" pt_clust_4="189.02222" pt_clust_5="32.49132" pt_clust_6="14000.00000"></scales>
<clustering>
<clus scale="   32.491">  2  5  1 -1</clus>
<clus scale="   45.339">  2  3  1 -1</clus>
<clus scale="  189.022">  1  4  2 -1</clus>
<clus scale="  189.022">  1  3  2 -1</clus>
</clustering>
</event>
<event>
 6    0  0.1704145E+002  0.9328816E+02  0.7546771E-02  0.1295079E+00
         21   -1    0    0  505  501  0.00000000000E+00  0.00000000000E+00  0.41266604846E+03  0.41266604846E+03  0.00000000000E+00 0. -1.
         21   -1    0    0  506  502 -0.00000000000E+00 -0.00000000000E+00 -0.10271068024E+04  0.10271068024E+04  0.00000000000E+00 0. -1.
         21    1    1    2  503  501  0.34243133473E+02 -0.87452251113E+02  0.38639184798E+03  0.39764198546E+03  0.00000000000E+00 0. -1.
         21    1    1    2  504  502 -0.23602403154E+02  0.39303064410E+02 -0.59708135598E+03  0.59883883472E+03  0.00000000000E+00 0. -1.
         21    1    1    2  505  504  0.48726146056E+02  0.17482082208E+02 -0.22870372025E+02  0.56594296747E+02  0.00000000000E+00 0.  1.
         21    1    1    2  506  503 -0.59366876375E+02  0.30667104495E+02 -0.38088087390E+03  0.38669773391E+03  0.00000000000E+00 0. -1.
<scales pt_clust_3="14000.00000" pt_clust_4="45.84544" pt_clust_5="51.10922" pt_clust_6="93.28816"></scales>
<clustering>
<clus scale="   45.845">  2  4  1 -1</clus>
<clus scale="   51.109">  2  5  1 -1</clus>
<clus scale="   93.288">  2  6  1 -1</clus>
<clus scale="   93.288">  1  3  2 -1</clus>
</clustering>
</event>
<event>
 6    0  0.1704145E+002  0.1610710E+03  0.7546771E-02  0.1187493E+00
         21   -1    0    0  504  501  0.00000000000E+00  0.00000000000E+00  0.12424702035E+04  0.12424702035E+04  0.00000000000E+00 0. -1.
         21   -1    0    0  503  502 -0.00000000000E+00 -0.00000000000E+00 -0.84463435226E+02  0.84463435226E+02  0.00000000000E+00 0. -1.
         21    1    1    2  503  501  0.94138249252E+02  0.11595426900E+03  0.39527708411E+02  0.15449868027E+03  0.00000000000E+00 0. -1.
         21    1    1    2  504  506  0.55173500310E+02 -0.54625777396E+01  0.79862970988E+03  0.80055191487E+03  0.00000000000E+00 0. -1.
         21    1    1    2  505  502 -0.60378370483E+02 -0.63078759687E+02  0.12449742458E+03  0.15206605891E+03  0.00000000000E+00 0. -1.
         21    1    1    2  506  505 -0.88933379080E+02 -0.47412931577E+02  0.19535192541E+03  0.21981698469E+03  0.00000000000E+00 0. -1.
<scales pt_clust_3="156.37416" pt_clust_4="55.44326" pt_clust_5="35.94144" pt_clust_6="35.94144"></scales>
<clustering>
<clus scale="   35.941">  5  6 -1 -1</clus>
<clus scale="   55.443">  1  4  2 -1</clus>
<clus scale="  156.374">  2  3  1 -1</clus>
<clus scale="   55.443">  1  3  2 -1</clus>
</clustering>
</event>
<event>
 6    0  0.1704145E+002  0.7321623E+02  0.7546771E-02  0.1349485E+00
         21   -1    0    0  504  501  0.00000000000E+00  0.00000000000E+00  0.51126626947E+03  0.51126626947E+03  0.00000000000E+00 0.  1.
         21   -1    0    0  503  502 -0.00000000000E+00 -0.00000000000E+00 -0.19945236291E+03  0.19945236291E+03  0.00000000000E+00 0. -1.
         21    1    1    2  503  506  0.70717754432E+01  0.38071072475E+02 -0.59876651335E+02  0.71306591157E+02  0.00000000000E+00 0. -1.
         21    1    1    2  504  502 -0.27513534033E+02 -0.10172440343E+03 -0.65019468600E+02  0.12382398841E+03  0.00000000000E+00 0. -1.
         21    1    1    2  505  501  0.47445784152E+02  0.47701637919E+01  0.44739823964E+03  0.44993226349E+03  0.00000000000E+00 0.  1.
         21    1    1    2  506  505 -0.27004025563E+02  0.58883167166E+02 -0.10688213134E+02  0.65655789327E+02  0.00000000000E+00 0. -1.
<scales pt_clust_3="38.72230" pt_clust_4="73.21623" pt_clust_5="47.78892" pt_clust_6="14000.00000"></scales>
<clustering>
<clus scale="   38.722">  2  3  1 -1</clus>
<clus scale="   47.789">  1  5  2 -1</clus>
<clus scale="   73.216">  2  4  1 -1</clus>
<clus scale="   47.789">  1  3  2 -1</clus>
</clustering>
</event>
<event>
 6    0  0.1704145E+002  0.1250666E+03  0.7546771E-02  0.1234965E+00
         21   -1    0    0  504  501  0.00000000000E+00  0.00000000000E+00  0.59159124587E+03  0.59159124587E+03  0.00000000000E+00 0. -1.
         21   -1    0    0  505  502 -0.00000000000E+00 -0.00000000000E+00 -0.78399850740E+03  0.78399850740E+03  0.00000000000E+00 0. -1.
         21    1    1    2  503  502 -0.79408018042E+02 -0.21005859714E+02 -0.29462961798E+03  0.30586515209E+03  0.00000000000E+00 0. -1.
         21    1    1    2  504  503 -0.35904608723E+02 -0.17924787742E+02 -0.34852657542E+03  0.35082932135E+03  0.00000000000E+00 0. -1.
         21    1    1    2  505  506  0.99356472688E+02 -0.47843825176E+02 -0.10733029913E+03  0.15388480556E+03  0.00000000000E+00 0. -1.
         21    1    1    2  506  501  0.15956154077E+02  0.86774472633E+02  0.55807923100E+03  0.56501047426E+03  0.00000000000E+00 0. -1.
<scales pt_clust_3="36.88793" pt_clust_4="36.88793" pt_clust_5="113.38658" pt_clust_6="88.22929"></scales>
<clustering>
<clus scale="   36.888">  3  4 -1 -1</clus>
<clus scale="   88.229">  1  6  2 -1</clus>
<clus scale="  113.387">  1  5  2 -1</clus>
<clus scale="   88.229">  1  3  2 -1</clus>
</clustering>
</event>
<event>
 6    0  0.1704145E+002  0.1637425E+03  0.7546771E-02  0.1184535E+00
         21   -1    0    0  503  501  0.00000000000E+00  0.00000000000E+00  0.11058584195E+04  0.11058584195E+04  0.00000000000E+00 0.  1.
         21   -1    0    0  504  502 -0.00000000000E+00 -0.00000000000E+00 -0.25684537963E+03  0.25684537963E+03  0.00000000000E+00 0. -1.
         21    1    1    2  503  502 -0.11787475799E+03 -0.12589208736E+03  0.50929349610E+02  0.17982512306E+03  0.00000000000E+00 0.  1.
         21    1    1    2  504  506  0.10397017956E+03  0.12300153694E+03 -0.14275031298E+03  0.21521344796E+03  0.00000000000E+00 0. -1.
         21    1    1    2  505  501 -0.28371804224E+02 -0.11322881292E+02  0.91620716669E+03  0.91671628065E+03  0.00000000000E+00 0.  1.
         21    1    1    2  506  505  0.42276382656E+02  0.14213431708E+02  0.24626836597E+02  0.50948947508E+02  0.00000000000E+00 0. -1.
<scales pt_clust_3="14000.00000" pt_clust_4="163.74248" pt_clust_5="30.54778" pt_clust_6="38.51775"></scales>
<clustering>
<clus scale="   30.548">  1  5  2 -1</clus>
<clus scale="   38.518">  1  6  2 -1</clus>
<clus scale="  163.742">  2  4  1 -1</clus>
<clus scale="   30.548">  1  3  2 -1</clus>
</clustering>
</event>
<event>
 6    0  0.1704145E+002  0.1685420E+03  0.7546771E-02  0.1179377E+00
         21   -1    0    0  506  501  0.00000000000E+00  0.00000000000E+00  0.44353942299E+03  0.44353942299E+03  0.00000000000E+00 0. -1.
         21   -1    0    0  504  502 -0.00000000000E+00 -0.00000000000E+00 -0.93909221332E+03  0.93909221332E+03  0.00000000000E+00 0.  1.
         21    1    1    2  503  501  0.77624888994E+02 -0.10575991625E+03  0.38629831884E+03  0.40796712418E+03  0.00000000000E+00 0. -1.
         21    1    1    2  504  503 -0.76237343037E+02  0.37449762386E+02 -0.99099918960E+02  0.13051977289E+03  0.00000000000E+00 0.  1.
         21    1    1    2  505  502 -0.74789019691E+02  0.56535881744E+02 -0.76090830387E+03  0.76666234438E+03  0.00000000000E+00 0.  1.
         21    1    1    2  506  505  0.73401473734E+02  0.11774272117E+02 -0.21842886339E+02  0.77482394864E+02  0.00000000000E+00 0. -1.
<scales pt_clust_3="14000.00000" pt_clust_4="82.66135" pt_clust_5="168.54200" pt_clust_6="74.33983"></scales>
<clustering>
<clus scale="   74.340">  1  6  2 -1</clus>
<clus scale="   82.661">  2  4  1 -1</clus>
<clus scale="  168.542">  2  5  1 -1</clus>
<clus scale="   74.340">  1  3  2 -1</clus>
</clustering>
</event>
<event>
 6    0  0.1704145E+002  0.1674816E+03  0.7546771E-02  0.1180500E+00
         21   -1    0    0  504  501  0.00000000000E+00  0.00000000000E+00  0.26234642539E+03  0.26234642539E+03  0.00000000000E+00 0.  1.
         21   -1    0    0  505  502 -0.00000000000E+00 -0.00000000000E+00 -0.58306192534E+03  0.58306192534E+03  0.00000000000E+00 0.  1.
         21    1    1    2  503  501 -0.15244603792E+03 -0.11355534373E+03 -0.38009264783E+02  0.19385384901E+03  0.00000000000E+00 0.  1.
         21    1    1    2  504  506  0.39385756525E+02 -0.24089319850E+02  0.11569228148E+03  0.12456418884E+03  0.00000000000E+00 0.  1.
         21    1    1    2  505  503 -0.40645422428E+02  0.16808814814E+03 -0.28576659501E+03  0.33401829700E+03  0.00000000000E+00 0.  1.
         21    1    1    2  506  502  0.15370570382E+03 -0.30443484555E+02 -0.11263192163E+03  0.19297201587E+03  0.00000000000E+00 0. -1.
<scales pt_clust_3="14000.00000" pt_clust_4="46.16853" pt_clust_5="167.48162" pt_clust_6="157.57234"></scales>
<clustering>
<clus scale="   46.169">  1  4  2 -1</clus>
<clus scale="  167.482">  2  5  1 -1</clus>
<clus scale="  157.572">  2  6  1 -1</clus>
<clus scale="   46.169">  1  3  2 -1</clus>
</clustering>
</event>
<event>
 6    0  0.1704145E+002  0.9128434E+02  0.7546771E-02  0.1299771E+00
         21   -1    0    0  506  501  0.00000000000E+00  0.00000000000E+00  0.75958565578E+03  0.75958565578E+03  0.00000000000E+00 0.  1.
         21   -1    0    0  505  502 -0.00000000000E+00 -0.00000000000E+00 -0.93304619717E+03  0.93304619717E+03  0.00000000000E+00 0. -1.
         21    1    1    2  503  504 -0.40345003973E+02  0.32771665447E+02 -0.65804360187E+03  0.66009323839E+03  0.00000000000E+00 0. -1.
         21    1    1    2  504  502 -0.32261463078E+02 -0.37710132933E+02 -0.15781304077E+03  0.16543219748E+03  0.00000000000E+00 0. -1.
         21    1    1    2  505  501  0.53171108650E+02  0.75624544620E+02  0.73960115196E+03  0.74535635942E+03  0.00000000000E+00 0.  1.
         21    1    1    2  506  503  0.19435358402E+02 -0.70686077134E+02 -0.97205050707E+02  0.12175005766E+03  0.00000000000E+00 0. -1.
<scales pt_clust_3="67.90996" pt_clust_4="49.62717" pt_clust_5="91.28434" pt_clust_6="14000.00000"></scales>
<clustering>
<clus scale="   49.627">  2  4  1 -1</clus>
<clus scale="   67.910">  2  3  1 -1</clus>
<clus scale="   91.284">  1  5  2 -1</clus>
<clus scale="   91.284">  1  3  2 -1</clus>
</clustering>
</event>
<event>
 6    0  0.1704145E+002  0.6368744E+02  0.7546771E-02  0.1382978E+00
         21   -1    0    0  506  501  0.00000000000E+00  0.00000000000E+00  0.82359659326E+03  0.82359659326E+03  0.00000000000E+00 0. -1.
         21   -1    0    0  505  502 -0.00000000000E+00 -0.00000000000E+00 -0.38026326483E+03  0.38026326483E+03  0.00000000000E+00 0.  1.
         21    1    1    2  503  502  0.29998470203E+02  0.59599930183E+01 -0.85921418855E+02  0.91202631264E+02  0.00000000000E+00 0.  1.
         21    1    1    2  504  501 -0.11775646200E+03  0.39076533821E+02 -0.41448923834E+02  0.13081121177E+03  0.00000000000E+00 0. -1.
         21    1    1    2  505  504  0.27266089260E+02 -0.28178397651E+02 -0.20241669441E+03  0.20617948466E+03  0.00000000000E+00 0.  1.
         21    1    1    2  506  503  0.60491902538E+02 -0.16858129188E+02  0.77312036552E+03  0.77566653040E+03  0.00000000000E+00 0. -1.
<scales pt_clust_3="30.58480" pt_clust_4="63.68744" pt_clust_5="53.91455" pt_clust_6="14000.00000"></scales>
<clustering>
<clus scale="   30.585">  2  3  1 -1</clus>
<clus scale="   53.915">  2  5  1 -1</clus>
<clus scale="   63.687">  2  4  1 -1</clus>
<clus scale="   63.687">  1  3  2 -1</clus>
</clustering>
</event>
<event>
 6    0  0.1704145E+002  0.1397942E+03  0.7546771E-02  0.1213606E+00
         21   -1    0    0  506  501  0.00000000000E+00  0.00000000000E+00  0.24635817706E+03  0.24635817706E+03  0.00000000000E+00 0.  1.
         21   -1    0    0  504  502 -0.00000000000E+00 -0.00000000000E+00 -0.20494180506E+03  0.20494180506E+03  0.00000000000E+00 0. -1.
         21    1    1    2  503  505  0.12258099342E+02  0.77156806593E+02 -0.10418595405E+03  0.13022344959E+03  0.00000000000E+00 0. -1.
         21    1    1    2  504  501  0.42361156378E+02 -0.75458804284E+01  0.20017313344E+02  0.47456303213E+02  0.00000000000E+00 0.  1.
         21    1    1    2  505  502  0.26049871046E+02  0.48698143988E+02 -0.29437608793E+02  0.62583366966E+02  0.00000000000E+00 0.  1.
         21    1    1    2  506  503 -0.80669126766E+02 -0.11830907015E+03  0.15502262150E+03  0.21103686235E+03  0.00000000000E+00 0.  1.
<scales pt_clust_3="37.71597" pt_clust_4="43.02799" pt_clust_5="37.71597" pt_clust_6="132.40160"></scales>
<clustering>
<clus scale="   37.716">  3  5 -1 -1</clus>
<clus scale="   43.028">  1  4  2 -1</clus>
<clus scale="  132.402">  1  6  2 -1</clus>
<clus scale="   43.028">  1  3  2 -1</clus>
</clustering>
</event>
<event>
 6    0  0.1704145E+002  0.1416821E+03  0.7546771E-02  0.1211083E+00
         21   -1    0    0  503  501  0.00000000000E+00  0.00000000000E+00  0.10590822865E+04  0.10590822865E+04  0.00000000000E+00 0. -1.
         21   -1    0    0  506  502 -0.00000000000E+00 -0.00000000000E+00 -0.21192400887E+03  0.21192400887E+03  0.00000000000E+00 0.  1.
         21    1    1    2  503  505  0.37439475415E+02 -0.65373068164E+02 -0.40627220533E+02  0.85591608284E+02  0.00000000000E+00 0.  1.
         21    1    1    2  504  501 -0.93594467460E+02  0.96037406862E+02  0.89218491841E+03  0.90220675928E+03  0.00000000000E+00 0. -1.
         21    1    1    2  505  502  0.15152672052E+02 -0.13643677427E+03 -0.67956396370E+02  0.15317528734E+03  0.00000000000E+00 0.  1.
         21    1    1    2  506  504  0.41002319994E+02  0.10577243558E+03  0.63556976131E+02  0.13003264047E+03  0.00000000000E+00 0. -1.
<scales pt_clust_3="30.77742" pt_clust_4="135.45377" pt_clust_5="30.77742" pt_clust_6="113.44161"></scales>
<clustering>
<clus scale="   30.777">  3  5 -1 -1</clus>
<clus scale="  113.442">  2  6  1 -1</clus>
<clus scale="  135.454">  1  4  2 -1</clus>
<clus scale="  135.454">  1  3  2 -1</clus>
</clustering>
</event>
<event>
 6    0  0.1704145E+002  0.1144929E+03  0.7546771E-02  0.1252469E+00
         21   -1    0    0  504  501  0.00000000000E+00  0.00000000000E+00  0.15545900135E+03  0.15545900135E+03  0.00000000000E+00 0. -1.
         21   -1    0    0  505  502 -0.00000000000E+00 -0.00000000000E+00 -0.51726793320E+03  0.51726793320E+03  0.00000000000E+00 0. -1.
         21    1    1    2  503  501 -0.17601551612E+02  0.50615431496E+02 -0.17629444391E+03  0.18425923988E+03  0.00000000000E+00 0. -1.
         21    1    1    2  504  506  0.29917566252E+02 -0.10321473473E+03  0.12105870626E+03  0.16187511420E+03  0.00000000000E+00 0. -1.
         21    1    1    2  505  503 -0.53832392995E+02  0.30497853147E+02 -0.21388688774E+03  0.22265589220E+03  0.00000000000E+00 0. -1.
         21    1    1    2  506  502  0.41516378354E+02  0.22101450090E+02 -0.92686306448E+02  0.10393668828E+03  0.00000000000E+00 0. -1.
<scales pt_clust_3="37.87553" pt_clust_4="107.01568" pt_clust_5="37.87553" pt_clust_6="47.03279"></scales>
<clustering>
<clus scale="   37.876">  3  5 -1 -1</clus>
<clus scale="   47.033">  2  6  1 -1</clus>
<clus scale="  107.016">  1  4  2 -1</clus>
<clus scale="  107.016">  1  3  2 -1</clus>
</clustering>
</event>
<event>
 6    0  0.1704145E+002  0.1689991E+03  0.7546771E-02  0.1178896E+00
         21   -1    0    0  506  501  0.00000000000E+00  0.00000000000E+00  0.20179749317E+03  0.20179749317E+03  0.00000000000E+00 0.  1.
         21   -1    0    0  503  502 -0.00000000000E+00 -0.00000000000E+00 -0.27137241262E+03  0.27137241262E+03  0.00000000000E+00 0. -1.
         21    1    1    2  503  505  0.50061944217E+02  0.10395593913E+02 -0.14755860463E+02  0.53216558040E+02  0.00000000000E+00 0. -1.
         21    1    1    2  504  501  0.90477616136E+01  0.79288165050E+02 -0.11144140509E+03  0.13706809212E+03  0.00000000000E+00 0. -1.
         21    1    1    2  505  504  0.16714142848E+02  0.64079615961E+02 -0.48226885999E+02  0.81923087625E+02  0.00000000000E+00 0. -1.
         21    1    1    2  506  502 -0.75823848678E+02 -0.15376337492E+03  0.10484923211E+03  0.20096216801E+03  0.00000000000E+00 0.  1.
<scales pt_clust_3="51.12990" pt_clust_4="32.14497" pt_clust_5="32.14497" pt_clust_6="165.27403"></scales>
<clustering>
<clus scale="   32.145">  4  5 -1 -1</clus>
<clus scale="   51.130">  2  3  1 -1</clus>
<clus scale="  165.274">  1  6  2 -1</clus>
<clus scale="  165.274">  1  3  2 -1</clus>
</clustering>
</event>
<event>
 6    0  0.1704145E+002  0.2162314E+03  0.7546771E-02  0.1136724E+00
         21   -1    0    0  505  501  0.00000000000E+00  0.00000000000E+00  0.22399672721E+04  0.22399672721E+04  0.00000000000E+00 0. -1.
         21   -1    0    0  503  502 -0.00000000000E+00 -0.00000000000E+00 -0.13972403400E+03  0.13972403400E+03  0.00000000000E+00 0.  1.
         21    1    1    2  503  506 -0.28144895077E+00 -0.43779600219E+02 -0.13704002934E+02  0.45875181801E+02  0.00000000000E+00 0.  1.
         21    1    1    2  504  501 -0.15257521233E+02 -0.47797898376E+02  0.12112677769E+04  0.12123065035E+04  0.00000000000E+00 0.  1.
         21    1    1    2  505  502  0.13821886368E+03  0.20597870174E+03  0.92001820734E+03  0.95287206994E+03  0.00000000000E+00 0. -1.
         21    1    1    2  506  504 -0.12267989349E+03 -0.11440120315E+03 -0.17338743186E+02  0.16863755087E+03  0.00000000000E+00 0.  1.
<scales pt_clust_3="35.80304" pt_clust_4="50.17401" pt_clust_5="204.55956" pt_clust_6="35.80304"></scales>
<clustering>
<clus scale="   35.803">  3  6 -1 -1</clus>
<clus scale="   50.174">  1  4  2 -1</clus>
<clus scale="  204.560">  1  5  2 -1</clus>
<clus scale="   50.174">  1  3  2 -1</clus>
</clustering>
</event>
<event>
 6    0  0.1704145E+002  0.1155535E+03  0.7546771E-02  0.1250618E+00
         21   -1    0    0  506  501  0.00000000000E+00  0.00000000000E+00  0.94530727385E+02  0.94530727385E+02  0.00000000000E+00 0.  1.
         21   -1    0    0  505  502 -0.00000000000E+00 -0.00000000000E+00 -0.58636037454E+03  0.58636037454E+03  0.00000000000E+00 0.  1.
         21    1    1    2  503  501  0.36811514539E+02  0.35755980510E+01 -0.53277948592E+02  0.64856860164E+02  0.00000000000E+00 0.  1.
         21    1    1    2  504  502 -0.62843408472E+02 -0.12890497183E+03 -0.31699197756E+03  0.34792197342E+03  0.00000000000E+00 0.  1.
         21    1    1    2  505  503  0.37703997093E+02  0.11663938946E+02 -0.14602059007E+03  0.15126021153E+03  0.00000000000E+00 0.  1.
         21    1    1    2  506  504 -0.11672103160E+02  0.11366543483E+03  0.24460869058E+02  0.11685205682E+03  0.00000000000E+00 0.  1.
<scales pt_clust_3="33.56020" pt_clust_4="14000.00000" pt_clust_5="83.58637" pt_clust_6="115.55349"></scales>
<clustering>
<clus scale="   33.560">  3  5 -1 -1</clus>
<clus scale="   83.586">  2  3  1 -1</clus>
<clus scale="  115.553">  1  6  2 -1</clus>
<clus scale="  115.553">  1  3  2 -1</clus>
</clustering>
</event>
<event>
 6    0  0.1704145E+002  0.9303859E+02  0.7546771E-02  0.1295656E+00
         21   -1    0    0  502  501  0.00000000000E+00  0.00000000000E+00  0.19587502492E+03  0.19587502492E+03  0.00000000000E+00 0.  1.
         21   -1    0    0  506  502 -0.00000000000E+00 -0.00000000000E+00 -0.11132945786E+04  0.11132945786E+04  0.00000000000E+00 0.  1.
         21    1    1    2  503  501  0.82573406298E+02  0.44004202354E+02  0.17106505346E+03  0.19498202422E+03  0.00000000000E+00 0.  1.
         21    1    1    2  504  503 -0.82627836212E+02 -0.16577044340E+02 -0.26960735360E+03  0.28247173811E+03  0.00000000000E+00 0.  1.
         21    1    1    2  505  504  0.43886895797E+02 -0.61174053246E+02 -0.27791113850E+03  0.28792868095E+03  0.00000000000E+00 0.  1.
         21    1    1    2  506  505 -0.43832465883E+02  0.33746895231E+02 -0.54096611506E+03  0.54378716024E+03  0.00000000000E+00 0.  1.
<scales pt_clust_3="14000.00000" pt_clust_4="93.03859" pt_clust_5="49.67069" pt_clust_6="55.31851"></scales>
<clustering>
<clus scale="   55.319">  2  6  1 -1</clus>
<clus scale="   49.671">  2  5  1 -1</clus>
<clus scale="   93.039">  2  4  1 -1</clus>
<clus scale="   93.039">  1  3  2 -1</clus>
</clustering>
</event>
<event>
 6    0  0.1704145E+002  0.8989168E+02  0.7546771E-02  0.1303114E+00
         21   -1    0    0  505  501  0.00000000000E+00  0.00000000000E+00  0.12616055661E+04  0.12616055661E+04  0.00000000000E+00 0.  1.
         21   -1    0    0  503  502 -0.00000000000E+00 -0.00000000000E+00 -0.44339474984E+02  0.44339474984E+02  0.00000000000E+00 0. -1.
         21    1    1    2  503  506  0.10606698419E+03 -0.84287809462E+01  0.11487497643E+03  0.15658068110E+03  0.00000000000E+00 0.  1.
         21    1    1    2  504  502 -0.70149423226E+02 -0.54427723905E+02  0.83776827191E+02  0.12207323819E+03  0.00000000000E+00 0. -1.
         21    1    1    2  505  504 -0.42125724260E+02  0.17016969141E+02  0.13447434528E+03  0.14194190157E+03  0.00000000000E+00 0.  1.
         21    1    1    2  506  501  0.62081632964E+01  0.45839535711E+02  0.88413994226E+03  0.88534922026E+03  0.00000000000E+00 0.  1.
<scales pt_clust_3="14000.00000" pt_clust_4="89.89168" pt_clust_5="45.43296" pt_clust_6="65.09105"></scales>
<clustering>
<clus scale="   45.433">  1  5  2 -1</clus>
<clus scale="   65.091">  1  6  2 -1</clus>
<clus scale="   89.892">  2  4  1 -1</clus>
<clus scale="   45.433">  1  3  2 -1</clus>
</clustering>
</event>
<event>
 6    0  0.1704145E+002  0.5902990E+03  0.7546771E-02  0.9925739E-01
         21   -1    0    0  502  501  0.00000000000E+00  0.00000000000E+00  0.32801128237E+04  0.32801128237E+04  0.00000000000E+00 0. -1.
         21   -1    0    0  506  502 -0.00000000000E+00 -0.00000000000E+00 -0.48922162585E+03  0.48922162585E+03  0.00000000000E+00 0. -1.
         21    1    1    2  503  504 -0.23716364905E+03  0.72110809160E+03  0.11625143006E+04  0.13884102331E+04  0.00000000000E+00 0. -1.
         21    1    1    2  504  505 -0.41416072216E+02  0.50757213841E+02  0.15457353778E+03  0.16788259105E+03  0.00000000000E+00 0. -1.
         21    1    1    2  505  501  0.28543683881E+03 -0.22340250757E+03  0.16080095982E+04  0.16483560711E+04  0.00000000000E+00 0.  1.
         21    1    1    2  506  503 -0.68571175453E+01 -0.54846279787E+03 -0.13420623874E+03  0.56468555429E+03  0.00000000000E+00 0. -1.
<scales pt_clust_3="34.68972" pt_clust_4="34.68972" pt_clust_5="362.46775" pt_clust_6="578.36725"></scales>
<clustering>
<clus scale="   34.690">  3  4 -1 -1</clus>
<clus scale="  362.468">  1  5  2 -1</clus>
<clus scale="  578.367">  2  6  1 -1</clus>
<clus scale="  362.468">  1  3  2 -1</clus>
</clustering>
</event>
<event>
 6    0  0.1704145E+002  0.1213779E+03  0.7546771E-02  0.1240841E+00
         21   -1    0    0  504  501  0.00000000000E+00  0.00000000000E+00  0.93925353923E+02  0.93925353923E+02  0.00000000000E+00 0.  1.
         21   -1    0    0  503  502 -0.00000000000E+00 -0.00000000000E+00 -0.82545172925E+03  0.82545172925E+03  0.00000000000E+00 0.  1.
         21    1    1    2  503  505  0.88569397110E+02  0.19134314851E+02 -0.41647157347E+03  0.42621500632E+03  0.00000000000E+00 0.  1.
         21    1    1    2  504  506 -0.92212725285E+02 -0.50466252496E+02 -0.29467260036E+03  0.31286094475E+03  0.00000000000E+00 0.  1.
         21    1    1    2  505  501  0.46748152480E+02  0.14268235135E+02  0.66081443041E+02  0.82193244299E+02  0.00000000000E+00 0.  1.
         21    1    1    2  506  502 -0.43104824304E+02  0.17063702511E+02 -0.86463644542E+02  0.98107887802E+02  0.00000000000E+00 0.  1.
<scales pt_clust_3="102.60902" pt_clust_4="43.05843" pt_clust_5="48.87711" pt_clust_6="43.05843"></scales>
<clustering>
<clus scale="   43.058">  4  6 -1 -1</clus>
<clus scale="   48.877">  1  5  2 -1</clus>
<clus scale="  102.609">  2  3  1 -1</clus>
<clus scale="   48.877">  1  3  2 -1</clus>
</clustering>
</event>
<event>
 6    0  0.1704145E+002  0.1393841E+03  0.7546771E-02  0.1214160E+00
         21   -1    0    0  506  501  0.00000000000E+00  0.00000000000E+00  0.74133359810E+02  0.74133359810E+02  0.00000000000E+00 0. -1.
         21   -1    0    0  505  502 -0.00000000000E+00 -0.00000000000E+00 -0.29427131850E+04  0.29427131850E+04  0.00000000000E+00 0. -1.
         21    1    1    2  503  501 -0.36535841400E+02 -0.86043014496E+02 -0.13244794144E+04  0.13277740723E+04  0.00000000000E+00 0. -1.
         21    1    1    2  504  502 -0.65411625017E+02  0.32506092796E+02 -0.74188980911E+03  0.74547690481E+03  0.00000000000E+00 0. -1.
         21    1    1    2  505  503  0.15986543551E+02 -0.44767365503E+02 -0.81130093138E+03  0.81269236975E+03  0.00000000000E+00 0. -1.
         21    1    1    2  506  504  0.85960922865E+02  0.98304287203E+02  0.90903296315E+01  0.13090319796E+03  0.00000000000E+00 0. -1.
<scales pt_clust_3="35.69303" pt_clust_4="73.04332" pt_clust_5="35.69303" pt_clust_6="130.08707"></scales>
<clustering>
<clus scale="   35.693">  3  5 -1 -1</clus>
<clus scale="   73.043">  2  4  1 -1</clus>
<clus scale="  130.087">  1  6  2 -1</clus>
<clus scale="  130.087">  1  3  2 -1</clus>
</clustering>
</event>
<event>
 6    0  0.1704145E+002  0.1494205E+03  0.7546771E-02  0.1201187E+00
         21   -1    0    0  506  501  0.00000000000E+00  0.00000000000E+00  0.12391391465E+04  0.12391391465E+04  0.00000000000E+00 0.  1.
         21   -1    0    0  504  502 -0.00000000000E+00 -0.00000000000E+00 -0.38853018319E+03  0.38853018319E+03  0.00000000000E+00 0. -1.
         21    1    1    2  503  502  0.88173772434E+01 -0.74249015963E+02 -0.15800278542E+03  0.17480143796E+03  0.00000000000E+00 0. -1.
         21    1    1    2  504  501 -0.33730318663E+02 -0.85710630868E+01 -0.25727201806E+01  0.34897226375E+02  0.00000000000E+00 0. -1.
         21    1    1    2  505  503  0.17078237228E+03  0.51244196958E+02 -0.15864160353E+03  0.23866240754E+03  0.00000000000E+00 0. -1.
         21    1    1    2  506  505 -0.14586943086E+03  0.31575882093E+02  0.11698260724E+04  0.11793082578E+04  0.00000000000E+00 0.  1.
<scales pt_clust_3="78.36443" pt_clust_4="34.80226" pt_clust_5="149.42053" pt_clust_6="14000.00000"></scales>
<clustering>
<clus scale="   34.802">  2  4  1 -1</clus>
<clus scale="   78.364">  2  3  1 -1</clus>
<clus scale="  149.421">  2  5  1 -1</clus>
<clus scale="  149.421">  1  3  2 -1</clus>
</clustering>
</event>
<event>
 6    0  0.1704145E+002  0.3225525E+03  0.7546771E-02  0.1074481E+00
         21   -1    0    0  504  501  0.00000000000E+00  0.00000000000E+00  0.44593924214E+03  0.44593924214E+03  0.00000000000E+00 0. -1.
         21   -1    0    0  506  502 -0.00000000000E+00 -0.00000000000E+00 -0.28673941094E+03  0.28673941094E+03  0.00000000000E+00 0. -1.
         21    1    1    2  503  502 -0.19930051299E+03 -0.25185804697E+01  0.83185986449E+02  0.21597904081E+03  0.00000000000E+00 0. -1.
         21    1    1    2  504  503 -0.10058832322E+03  0.59073740845E+01  0.15546217535E+03  0.18526034601E+03  0.00000000000E+00 0.  1.
         21    1    1    2  505  501  0.11479960273E+03  0.48125959147E+02 -0.25738440708E+01  0.12450574848E+03  0.00000000000E+00 0. -1.
         21    1    1    2  506  505  0.18508923348E+03 -0.51514752762E+02 -0.76874486528E+02  0.20693351778E+03  0.00000000000E+00 0. -1.
<scales pt_clust_3="84.41376" pt_clust_4="84.41376" pt_clust_5="93.85319" pt_clust_6="321.77624"></scales>
<clustering>
<clus scale="   84.414">  3  4 -1 -1</clus>
<clus scale="   93.853">  5  6 -1 -1</clus>
<clus scale="  321.776">  2  5  1 -1</clus>
<clus scale="  322.552">  1  3  2 -1</clus>
</clustering>
</event>
<event>
 6    0  0.1704145E+002  0.1794983E+03  0.7546771E-02  0.1168289E+00
         21   -1    0    0  506  501  0.00000000000E+00  0.00000000000E+00  0.88174868363E+03  0.88174868363E+03  0.00000000000E+00 0. -1.
         21   -1    0    0  503  502 -0.00000000000E+00 -0.00000000000E+00 -0.77682117794E+02  0.77682117794E+02  0.00000000000E+00 0. -1.
         21    1    1    2  503  504 -0.24654365952E+02  0.12115043014E+03  0.19637903528E+03  0.23205600613E+03  0.00000000000E+00 0. -1.
         21    1    1    2  504  505 -0.31282337702E+02  0.24520533187E+02  0.12763192018E+03  0.13367777770E+03  0.00000000000E+00 0. -1.
         21    1    1    2  505  501 -0.53933047288E+02 -0.11704072855E+02  0.39832280825E+03  0.40212786335E+03  0.00000000000E+00 0. -1.
         21    1    1    2  506  502  0.10986975094E+03 -0.13396689048E+03  0.81732802126E+02  0.19156915425E+03  0.00000000000E+00 0. -1.
<scales pt_clust_3="37.73511" pt_clust_4="37.73511" pt_clust_5="55.18839" pt_clust_6="166.70476"></scales>
<clustering>
<clus scale="   37.735">  3  4 -1 -1</clus>
<clus scale="   55.188">  1  5  2 -1</clus>
<clus scale="  166.705">  2  6  1 -1</clus>
<clus scale="   55.188">  1  3  2 -1</clus>
</clustering>
</event>
<event>
 6    0  0.1704145E+002  0.1163037E+03  0.7546771E-02  0.1249322E+00
         21   -1    0    0  506  501  0.00000000000E+00  0.00000000000E+00  0.71689574676E+03  0.71689574676E+03  0.00000000000E+00 0. -1.
         21   -1    0    0  504  502 -0.00000000000E+00 -0.00000000000E+00 -0.86780799222E+02  0.86780799222E+02  0.00000000000E+00 0. -1.
         21    1    1    2  503  501  0.54654113426E+02 -0.76565480682E+02  0.51008112573E+03  0.51868304365E+03  0.00000000000E+00 0. -1.
         21    1    1    2  504  503  0.63487086897E+02  0.88870661249E+02  0.11350718466E+03  0.15751979432E+03  0.00000000000E+00 0. -1.
         21    1    1    2  505  502 -0.77050063641E+02 -0.28403288128E+02 -0.35901303817E+01  0.82197007973E+02  0.00000000000E+00 0. -1.
         21    1    1    2  506  505 -0.41091136682E+02  0.16098107561E+02  0.10116767531E+02  0.45276700036E+02  0.00000000000E+00 0. -1.
<scales pt_clust_3="94.07096" pt_clust_4="106.90347" pt_clust_5="33.57981" pt_clust_6="33.57981"></scales>
<clustering>
<clus scale="   33.580">  5  6 -1 -1</clus>
<clus scale="   94.071">  1  3  2 -1</clus>
<clus scale="  106.903">  1  4  2 -1</clus>
<clus scale="   94.071">  1  3  2 -1</clus>
</clustering>
</event>
<event>
 6    0  0.1704145E+002  0.9534701E+02  0.7546771E-02  0.1290396E+00
         21   -1    0    0  504  501  0.00000000000E+00  0.00000000000E+00  0.23445618578E+03  0.23445618578E+03  0.00000000000E+00 0.  1.
         21   -1    0    0  505  502 -0.00000000000E+00 -0.00000000000E+00 -0.68186263449E+03  0.68186263449E+03  0.00000000000E+00 0.  1.
         21    1    1    2  503  502  0.47027121472E+02 -0.17164383222E+02 -0.37253786600E+03  0.37588645601E+03  0.00000000000E+00 0.  1.
         21    1    1    2  504  506 -0.50164797483E+02 -0.84197297883E+02  0.20644246738E+03  0.22852611277E+03  0.00000000000E+00 0.  1.
         21    1    1    2  505  501 -0.25382894064E+02  0.84120029944E+02 -0.12960076553E+03  0.15657850802E+03  0.00000000000E+00 0.  1.
         21    1    1    2  506  503  0.28520570074E+02  0.17241651160E+02 -0.15171028456E+03  0.15532774348E+03  0.00000000000E+00 0. -1.
<scales pt_clust_3="85.74615" pt_clust_4="95.34701" pt_clust_5="14000.00000" pt_clust_6="33.09191"></scales>
<clustering>
<clus scale="   33.092">  3  6 -1 -1</clus>
<clus scale="   85.746">  2  3  1 -1</clus>
<clus scale="   95.347">  1  4  2 -1</clus>
<clus scale="   95.347">  1  3  2 -1</clus>
</clustering>
</event>
<event>
 6    0  0.1704145E+002  0.1131512E+03  0.7546771E-02  0.1254843E+00
         21   -1    0    0  503  501  0.00000000000E+00  0.00000000000E+00  0.61060536595E+02  0.61060536595E+02  0.00000000000E+00 0. -1.
         21   -1    0    0  504  502 -0.00000000000E+00 -0.00000000000E+00 -0.77021128839E+03  0.77021128839E+03  0.00000000000E+00 0. -1.
         21    1    1    2  503  502 -0.10510837464E+02  0.34352666633E+02 -0.70646447245E+02  0.79255939319E+02  0.00000000000E+00 0. -1.
         21    1    1    2  504  506  0.93732798598E+02  0.38418091366E+02 -0.27593125235E+03  0.29393850258E+03  0.00000000000E+00 0.  1.
         21    1    1    2  505  501 -0.21672137428E+02  0.59580638954E+02  0.39870119345E+01  0.63525037136E+02  0.00000000000E+00 0. -1.
         21    1    1    2  506  505 -0.61549823706E+02 -0.13235139695E+03 -0.36656006414E+03  0.39455234595E+03  0.00000000000E+00 0. -1.
<scales pt_clust_3="35.92469" pt_clust_4="14000.00000" pt_clust_5="64.93596" pt_clust_6="113.15121"></scales>
<clustering>
<clus scale="   35.925">  2  3  1 -1</clus>
<clus scale="   64.936">  1  5  2 -1</clus>
<clus scale="  113.151">  1  6  2 -1</clus>
<clus scale="   64.936">  1  3  2 -1</clus>
</clustering>
</event>
<event>
 6    0  0.1704145E+002  0.1025659E+03  0.7546771E-02  0.1274991E+00
         21   -1    0    0  503  501  0.00000000000E+00  0.00000000000E+00  0.30359186138E+03  0.30359186138E+03  0.00000000000E+00 0.  1.
         21   -1    0    0  506  502 -0.00000000000E+00 -0.00000000000E+00 -0.14983554332E+04  0.14983554332E+04  0.00000000000E+00 0.  1.
         21    1    1    2  503  505  0.31482224184E+02  0.97514520682E+02  0.28718816734E+03  0.30492172052E+03  0.00000000000E+00 0.  1.
         21    1    1    2  504  501 -0.20606554878E+02 -0.11197312173E+03 -0.95756296352E+03  0.96430775129E+03  0.00000000000E+00 0.  1.
         21    1    1    2  505  502 -0.46332865020E+02  0.12116637943E+02 -0.17202821442E+03  0.17857002507E+03  0.00000000000E+00 0.  1.
         21    1    1    2  506  504  0.35457195714E+02  0.23419631086E+01 -0.35236056122E+03  0.35414779770E+03  0.00000000000E+00 0.  1.
<scales pt_clust_3="102.56588" pt_clust_4="14000.00000" pt_clust_5="42.76491" pt_clust_6="35.53446"></scales>
<clustering>
<clus scale="   35.534">  2  6  1 -1</clus>
<clus scale="   42.765">  2  5  1 -1</clus>
<clus scale="  102.566">  1  3  2 -1</clus>
<clus scale="  102.566">  1  3  2 -1</clus>
</clustering>
</event>
<event>
 6    0  0.1704145E+002  0.1582660E+03  0.7546771E-02  0.1190668E+00
         21   -1    0    0  504  501  0.00000000000E+00  0.00000000000E+00  0.19436654139E+03  0.19436654139E+03  0.00000000000E+00 0. -1.
         21   -1    0    0  503  502 -0.00000000000E+00 -0.00000000000E+00 -0.27729294878E+04  0.27729294878E+04  0.00000000000E+00 0. -1.
         21    1    1    2  503  506  0.46831998638E+02 -0.41126792092E+02 -0.14661808055E+04  0.14675049586E+04  0.00000000000E+00 0. -1.
         21    1    1    2  504  505  0.65051635591E+02 -0.52811190558E+00 -0.56820858684E+03  0.57192044233E+03  0.00000000000E+00 0. -1.
         21    1    1    2  505  502  0.40942029174E+02  0.20136081247E+02 -0.70412536451E+03  0.70560204115E+03  0.00000000000E+00 0. -1.
         21    1    1    2  506  501 -0.15282566340E+03  0.21518822750E+02  0.15995181047E+03  0.22226858707E+03  0.00000000000E+00 0. -1.
<scales pt_clust_3="62.32695" pt_clust_4="33.61250" pt_clust_5="33.61250" pt_clust_6="153.09227"></scales>
<clustering>
<clus scale="   33.612">  4  5 -1 -1</clus>
<clus scale="   62.327">  2  3  1 -1</clus>
<clus scale="  153.092">  1  6  2 -1</clus>
<clus scale="  153.092">  1  3  2 -1</clus>
</clustering>
</event>
<event>
 6    0  0.1704145E+002  0.2689483E+03  0.7546771E-02  0.1101883E+00
         21   -1    0    0  505  501  0.00000000000E+00  0.00000000000E+00  0.55535005110E+03  0.55535005110E+03  0.00000000000E+00 0.  1.
         21   -1    0    0  506  502 -0.00000000000E+00 -0.00000000000E+00 -0.61937219921E+03  0.61937219921E+03  0.00000000000E+00 0.  1.
         21    1    1    2  503  501 -0.26597215311E+02 -0.44782186034E+02  0.41406884682E+03  0.41733184153E+03  0.00000000000E+00 0.  1.
         21    1    1    2  504  502  0.12561931850E+03  0.57481473660E+02 -0.18131227703E+03  0.22794401680E+03  0.00000000000E+00 0. -1.
         21    1    1    2  505  504  0.13589929833E+03  0.34820859612E+02 -0.24788619573E+03  0.28483096318E+03  0.00000000000E+00 0.  1.
         21    1    1    2  506  503 -0.23492140152E+03 -0.47520147238E+02 -0.48892522168E+02  0.24461542881E+03  0.00000000000E+00 0. -1.
<scales pt_clust_3="52.08508" pt_clust_4="42.27779" pt_clust_5="42.27779" pt_clust_6="265.55237"></scales>
<clustering>
<clus scale="   42.278">  4  5 -1 -1</clus>
<clus scale="   52.085">  1  3  2 -1</clus>
<clus scale="  265.552">  1  6  2 -1</clus>
<clus scale="   52.085">  1  3  2 -1</clus>
</clustering>
</event>
<event>
 6    0  0.1704145E+002  0.6768894E+02  0.7546771E-02  0.1368133E+00
         21   -1    0    0  503  501  0.00000000000E+00  0.00000000000E+00  0.30437538716E+03  0.30437538716E+03  0.00000000000E+00 0.  1.
         21   -1    0    0  505  502 -0.00000000000E+00 -0.00000000000E+00 -0.96502276901E+02  0.96502276901E+02  0.00000000000E+00 0.  1.
         21    1    1    2  503  504 -0.91282716829E+02  0.58648927020E+02  0.55061790461E+01  0.10863953719E+03  0.00000000000E+00 0.  1.
         21    1    1    2  504  502  0.39988419223E+02 -0.34576600045E+02  0.10007716470E+02  0.53803060615E+02  0.00000000000E+00 0.  1.
         21    1    1    2  505  506 -0.13518002298E+02 -0.37069267275E+02  0.50193767314E+01  0.39775131743E+02  0.00000000000E+00 0.  1.
         21    1    1    2  506  501  0.64812299905E+02  0.12996940299E+02  0.18733983801E+03  0.19865993452E+03  0.00000000000E+00 0.  1.
<scales pt_clust_3="67.68894" pt_clust_4="57.65493" pt_clust_5="39.45715" pt_clust_6="14000.00000"></scales>
<clustering>
<clus scale="   39.457">  2  5  1 -1</clus>
<clus scale="   57.655">  2  4  1 -1</clus>
<clus scale="   67.689">  2  3  1 -1</clus>
<clus scale="   67.689">  1  3  2 -1</clus>
</clustering>
</event>
<event>
 6    0  0.1704145E+002  0.1766947E+03  0.7546771E-02  0.1171041E+00
         21   -1    0    0  505  501  0.00000000000E+00  0.00000000000E+00  0.16404131310E+03  0.16404131310E+03  0.00000000000E+00 0.  1.
         21   -1    0    0  501  502 -0.00000000000E+00 -0.00000000000E+00 -0.90108406941E+03  0.90108406941E+03  0.00000000000E+00 0. -1.
         21    1    1    2  503  502 -0.77752102599E+02  0.38012757856E+02 -0.52666458585E+03  0.53372834402E+03  0.00000000000E+00 0. -1.
         21    1    1    2  504  506  0.10504084228E+03 -0.13453066415E+03 -0.13837197177E+03  0.21972455647E+03  0.00000000000E+00 0. -1.
         21    1    1    2  505  504  0.23703420943E+02  0.44018125722E+02  0.10709775182E+03  0.11819211481E+03  0.00000000000E+00 0.  1.
         21    1    1    2  506  503 -0.50992160624E+02  0.52499780574E+02 -0.17910395052E+03  0.19348036721E+03  0.00000000000E+00 0. -1.
<scales pt_clust_3="72.14982" pt_clust_4="158.95075" pt_clust_5="49.99448" pt_clust_6="72.14982"></scales>
<clustering>
<clus scale="   49.994">  1  5  2 -1</clus>
<clus scale="   72.150">  3  6 -1 -1</clus>
<clus scale="  158.951">  1  4  2 -1</clus>
<clus scale="   49.994">  1  3  2 -1</clus>
</clustering>
</event>
<event>
 6    0  0.1704145E+002  0.1835036E+03  0.7546771E-02  0.1164455E+00
         21   -1    0    0  504  501  0.00000000000E+00  0.00000000000E+00  0.25068180334E+03  0.25068180334E+03  0.00000000000E+00 0.  1.
         21   -1    0    0  505  502 -0.00000000000E+00 -0.00000000000E+00 -0.65820977653E+03  0.65820977653E+03  0.00000000000E+00 0.  1.
         21    1    1    2  503  502 -0.81069621500E+02 -0.15092247178E+03 -0.18157282498E+03  0.24963686985E+03  0.00000000000E+00 0.  1.
         21    1    1    2  504  503  0.10651553581E+03 -0.13431598007E+03  0.11931736454E+03  0.20886113892E+03  0.00000000000E+00 0.  1.
         21    1    1    2  505  506  0.93394297047E+01  0.10759562686E+03 -0.12115683649E+03  0.16230533847E+03  0.00000000000E+00 0.  1.
         21    1    1    2  506  501 -0.34785344012E+02  0.17764282500E+03 -0.22411567626E+03  0.28808823262E+03  0.00000000000E+00 0.  1.
<scales pt_clust_3="171.31806" pt_clust_4="178.99938" pt_clust_5="31.21178" pt_clust_6="31.21178"></scales>
<clustering>
<clus scale="   31.212">  5  6 -1 -1</clus>
<clus scale="  171.318">  2  3  1 -1</clus>
<clus scale="  178.999">  1  4  2 -1</clus>
<clus scale="  178.999">  1  3  2 -1</clus>
</clustering>
</event>
<event>
 6    0  0.1704145E+002  0.1028771E+03  0.7546771E-02  0.1274360E+00
         21   -1    0    0  504  501  0.00000000000E+00  0.00000000000E+00  0.10395543812E+03  0.10395543812E+03  0.00000000000E+00 0.  1.
         21   -1    0    0  503  502 -0.00000000000E+00 -0.00000000000E+00 -0.42926993500E+03  0.42926993500E+03  0.00000000000E+00 0.  1.
         21    1    1    2  503  505 -0.39902709245E+02  0.10258678451E+03 -0.10208295011E+03  0.15012395966E+03  0.00000000000E+00 0.  1.
         21    1    1    2  504  506 -0.18840324642E+01 -0.31831034794E+02 -0.24210559276E+02  0.40036427599E+02  0.00000000000E+00 0.  1.
         21    1    1    2  505  501 -0.33561533404E+02 -0.44007591752E+00  0.57519775595E+02  0.66596507234E+02  0.00000000000E+00 0.  1.
         21    1    1    2  506  502  0.75348275112E+02 -0.70315673798E+02 -0.25654076309E+03  0.27646847862E+03  0.00000000000E+00 0.  1.
<scales pt_clust_3="102.87706" pt_clust_4="31.88674" pt_clust_5="40.63126" pt_clust_6="14000.00000"></scales>
<clustering>
<clus scale="   31.887">  1  4  2 -1</clus>
<clus scale="   40.631">  1  5  2 -1</clus>
<clus scale="  102.877">  1  3  2 -1</clus>
<clus scale="   31.887">  1  3  2 -1</clus>
</clustering>
</event>
<event>
 6    0  0.1704145E+002  0.1279696E+03  0.7546771E-02  0.1230500E+00
         21   -1    0    0  504  501  0.00000000000E+00  0.00000000000E+00  0.39007009128E+04  0.39007009128E+04  0.00000000000E+00 0.  1.
         21   -1    0    0  503  502 -0.00000000000E+00 -0.00000000000E+00 -0.30296229560E+02  0.30296229560E+02  0.00000000000E+00 0. -1.
         21    1    1    2  503  505 -0.19265383091E+02 -0.53396006226E+02  0.80205577150E+02  0.98260994665E+02  0.00000000000E+00 0. -1.
         21    1    1    2  504  506  0.36315409436E+02  0.74268414828E+02  0.20471257416E+03  0.22077555214E+03  0.00000000000E+00 0. -1.
         21    1    1    2  505  501 -0.40285027893E+00 -0.10976563236E+03  0.34324065178E+04  0.34341612018E+04  0.00000000000E+00 0.  1.
         21    1    1    2  506  502 -0.16647176067E+02  0.88893223757E+02  0.15308001409E+03  0.17779939374E+03  0.00000000000E+00 0. -1.
<scales pt_clust_3="56.76520" pt_clust_4="60.58113" pt_clust_5="111.97466" pt_clust_6="60.58113"></scales>
<clustering>
<clus scale="   56.765">  2  3  1 -1</clus>
<clus scale="   60.581">  4  6 -1 -1</clus>
<clus scale="  111.975">  1  5  2 -1</clus>
<clus scale="  111.975">  1  3  2 -1</clus>
</clustering>
</event>
<event>
 6    0  0.1704145E+002  0.1687059E+03  0.7546771E-02  0.1179204E+00
         21   -1    0    0  505  501  0.00000000000E+00  0.00000000000E+00  0.28991803029E+03  0.28991803029E+03  0.00000000000E+00 0.  1.
         21   -1    0    0  503  502 -0.00000000000E+00 -0.00000000000E+00 -0.33790960914E+03  0.33790960914E+03  0.00000000000E+00 0.  1.
         21    1    1    2  503  506  0.50305222293E+02  0.18218369386E+02 -0.14012462974E+02  0.55307083558E+02  0.00000000000E+00 0.  1.
         21    1    1    2  504  502 -0.13653430665E+03 -0.98724561944E+02 -0.25604831441E+03  0.30651084048E+03  0.00000000000E+00 0.  1.
         21    1    1    2  505  504  0.34793567456E+02  0.33639490316E+02  0.17605710163E+03  0.18258781635E+03  0.00000000000E+00 0.  1.
         21    1    1    2  506  501  0.51435516898E+02  0.46866702243E+02  0.46012096894E+02  0.83421899033E+02  0.00000000000E+00 0.  1.
<scales pt_clust_3="47.92263" pt_clust_4="157.56641" pt_clust_5="48.39636" pt_clust_6="47.92263"></scales>
<clustering>
<clus scale="   48.396">  1  5  2 -1</clus>
<clus scale="   47.923">  3  6 -1 -1</clus>
<clus scale="  157.566">  2  4  1 -1</clus>
<clus scale="   48.396">  1  3  2 -1</clus>
</clustering>
</event>
<event>
 6    0  0.1704145E+002  0.1048444E+03  0.7546771E-02  0.1270427E+00
         21   -1    0    0  506  501  0.00000000000E+00  0.00000000000E+00  0.34302126308E+03  0.34302126308E+03  0.00000000000E+00 0.  1.
         21   -1    0    0  503  502 -0.00000000000E+00 -0.00000000000E+00 -0.14613032252E+03  0.14613032252E+03  0.00000000000E+00 0. -1.
         21    1    1    2  503  505 -0.19461022531E+02 -0.40999161140E+02 -0.57311147791E+02  0.73104242512E+02  0.00000000000E+00 0. -1.
         21    1    1    2  504  501  0.21767708608E+02 -0.27283906724E+02  0.16006576688E+02  0.38398635412E+02  0.00000000000E+00 0.  1.
         21    1    1    2  505  504  0.22700236925E+02 -0.51404732300E+02 -0.43171210359E+02  0.70862547676E+02  0.00000000000E+00 0. -1.
         21    1    1    2  506  502 -0.25006923002E+02  0.11968780016E+03  0.28136672202E+03  0.30678616000E+03  0.00000000000E+00 0.  1.
<scales pt_clust_3="40.63713" pt_clust_4="34.90336" pt_clust_5="40.63713" pt_clust_6="94.40119"></scales>
<clustering>
<clus scale="   34.903">  1  4  2 -1</clus>
<clus scale="   40.637">  3  5 -1 -1</clus>
<clus scale="   94.401">  1  6  2 -1</clus>
<clus scale="   34.903">  1  3  2 -1</clus>
</clustering>
</event>
<event>
 6    0  0.1704145E+002  0.3728920E+03  0.7546771E-02  0.1053593E+00
         21   -1    0    0  505  501  0.00000000000E+00  0.00000000000E+00  0.50378913611E+03  0.50378913611E+03  0.00000000000E+00 0.  1.
         21   -1    0    0  506  502 -0.00000000000E+00 -0.00000000000E+00 -0.19111704384E+04  0.19111704384E+04  0.00000000000E+00 0.  1.
         21    1    1    2  503  501  0.10734188376E+03 -0.24235575459E+03  0.32615478418E+03  0.42028030532E+03  0.00000000000E+00 0.  1.
         21    1    1    2  504  502 -0.15201566650E+03  0.20926170962E+03 -0.25252348954E+03  0.36147937527E+03  0.00000000000E+00 0.  1.
         21    1    1    2  505  504 -0.22793599333E+03 -0.12614254022E+02 -0.14853478413E+03  0.27235366448E+03  0.00000000000E+00 0.  1.
         21    1    1    2  506  503  0.27260977607E+03  0.45708298995E+02 -0.13324778128E+04  0.13608462295E+04  0.00000000000E+00 0.  1.
<scales pt_clust_3="265.06337" pt_clust_4="225.98730" pt_clust_5="225.98730" pt_clust_6="284.93040"></scales>
<clustering>
<clus scale="  225.987">  4  5 -1 -1</clus>
<clus scale="  265.063">  1  3  2 -1</clus>
<clus scale="  284.930">  2  6  1 -1</clus>
<clus scale="  265.063">  1  3  2 -1</clus>
</clustering>
</event>
<event>
 6    0  0.1704145E+002  0.9041136E+02  0.7546771E-02  0.1301859E+00
         21   -1    0    0  505  501  0.00000000000E+00  0.00000000000E+00  0.10789317659E+03  0.10789317659E+03  0.00000000000E+00 0. -1.
         21   -1    0    0  506  502 -0.00000000000E+00 -0.00000000000E+00 -0.40315641494E+03  0.40315641494E+03  0.00000000000E+00 0. -1.
         21    1    1    2  503  504 -0.10951003078E+03 -0.86911458144E+02 -0.13561847930E+03  0.19477787432E+03  0.00000000000E+00 0. -1.
         21    1    1    2  504  501  0.49015147075E+02  0.21255050825E+02  0.56395709246E+02  0.77683575161E+02  0.00000000000E+00 0. -1.
         21    1    1    2  505  502  0.52652483629E+02  0.28720379272E+02 -0.16128433960E+03  0.17207493257E+03  0.00000000000E+00 0. -1.
         21    1    1    2  506  503  0.78424000731E+01  0.36936028046E+02 -0.54756128691E+02  0.66513209484E+02  0.00000000000E+00 0.  1.
<scales pt_clust_3="90.41136" pt_clust_4="54.11397" pt_clust_5="14000.00000" pt_clust_6="37.75941"></scales>
<clustering>
<clus scale="   37.759">  2  6  1 -1</clus>
<clus scale="   54.114">  1  4  2 -1</clus>
<clus scale="   90.411">  1  3  2 -1</clus>
<clus scale="   54.114">  1  3  2 -1</clus>
</clustering>
</event>
<event>
 6    0  0.1704145E+002  0.1552947E+03  0.7546771E-02  0.1194114E+00
         21   -1    0    0  503  501  0.00000000000E+00  0.00000000000E+00  0.31457422810E+03  0.31457422810E+03  0.00000000000E+00 0.  1.
         21   -1    0    0  501  502 -0.00000000000E+00 -0.00000000000E+00 -0.39572119419E+03  0.39572119419E+03  0.00000000000E+00 0.  1.
         21    1    1    2  503  504  0.13576703451E+03 -0.48802636891E+02  0.27496714589E+03  0.31051781969E+03  0.00000000000E+00 0.  1.
         21    1    1    2  504  505 -0.39176460681E+02 -0.13159081937E+02 -0.80213480364E+02  0.90233912367E+02  0.00000000000E+00 0.  1.
         21    1    1    2  505  506 -0.63636785152E+02  0.56262422964E+02 -0.10332653711E+03  0.13375901440E+03  0.00000000000E+00 0.  1.
         21    1    1    2  506  502 -0.32953788675E+02  0.56992958639E+01 -0.17257409451E+03  0.17578467583E+03  0.00000000000E+00 0.  1.
<scales pt_clust_3="141.62982" pt_clust_4="46.23180" pt_clust_5="46.23180" pt_clust_6="33.44300"></scales>
<clustering>
<clus scale="   33.443">  2  6  1 -1</clus>
<clus scale="   46.232">  4  5 -1 -1</clus>
<clus scale="  141.630">  1  3  2 -1</clus>
<clus scale="  141.630">  1  3  2 -1</clus>
</clustering>
</event>
<event>
 6    0  0.1704145E+002  0.9988940E+02  0.7546771E-02  0.1280529E+00
         21   -1    0    0  503  501  0.00000000000E+00  0.00000000000E+00  0.25849230130E+03  0.25849230130E+03  0.00000000000E+00 0.  1.
         21   -1    0    0  505  502 -0.00000000000E+00 -0.00000000000E+00 -0.12060470958E+03  0.12060470958E+03  0.00000000000E+00 0.  1.
         21    1    1    2  503  504  0.32701014053E+02  0.89683265027E+02  0.15543889392E+03  0.18241078392E+03  0.00000000000E+00 0.  1.
         21    1    1    2  504  502  0.43898732746E+02 -0.34802569251E+02 -0.63409729636E+02  0.84611532167E+02  0.00000000000E+00 0.  1.
         21    1    1    2  505  506 -0.40353816572E+02 -0.50862250506E+01  0.18052971233E+02  0.44499550195E+02  0.00000000000E+00 0.  1.
         21    1    1    2  506  501 -0.36245930227E+02 -0.49794470725E+02  0.27805456202E+02  0.67575144598E+02  0.00000000000E+00 0.  1.
<scales pt_clust_3="91.64913" pt_clust_4="56.02069" pt_clust_5="32.28490" pt_clust_6="32.28490"></scales>
<clustering>
<clus scale="   32.285">  5  6 -1 -1</clus>
<clus scale="   56.021">  2  4  1 -1</clus>
<clus scale="   91.649">  1  3  2 -1</clus>
<clus scale="   91.649">  1  3  2 -1</clus>
</clustering>
</event>
<event>
 6    0  0.1704145E+002  0.1319299E+03  0.7546771E-02  0.1224620E+00
         21   -1    0    0  503  501  0.00000000000E+00  0.00000000000E+00  0.10402617184E+04  0.10402617184E+04  0.00000000000E+00 0.  1.
         21   -1    0    0  505  502 -0.00000000000E+00 -0.00000000000E+00 -0.73013937439E+03  0.73013937439E+03  0.00000000000E+00 0. -1.
         21    1    1    2  503  506 -0.34260827318E+02  0.84886851556E+01  0.10023840991E+04  0.10030053560E+04  0.00000000000E+00 0.  1.
         21    1    1    2  504  502  0.49309103537E+01 -0.80384199844E+02 -0.46979951292E+03  0.47665240564E+03  0.00000000000E+00 0. -1.
         21    1    1    2  505  501 -0.82291514476E+01  0.10450324569E+03 -0.59882099315E+02  0.12072494818E+03  0.00000000000E+00 0. -1.
         21    1    1    2  506  504  0.37559068412E+02 -0.32607731006E+02 -0.16258014278E+03  0.17001838303E+03  0.00000000000E+00 0. -1.
<scales pt_clust_3="35.29677" pt_clust_4="46.59998" pt_clust_5="117.04265" pt_clust_6="46.59998"></scales>
<clustering>
<clus scale="   35.297">  1  3  2 -1</clus>
<clus scale="   46.600">  4  6 -1 -1</clus>
<clus scale="  117.043">  1  5  2 -1</clus>
<clus scale="   35.297">  1  3  2 -1</clus>
</clustering>
</event>
<event>
 6    0  0.1704145E+002  0.1523595E+03  0.7546771E-02  0.1197603E+00
         21   -1    0    0  504  501  0.00000000000E+00  0.00000000000E+00  0.31513883456E+03  0.31513883456E+03  0.00000000000E+00 0. -1.
         21   -1    0    0  503  502 -0.00000000000E+00 -0.00000000000E+00 -0.14471486424E+04  0.14471486424E+04  0.00000000000E+00 0. -1.
         21    1    1    2  503  506 -0.71170478536E+01 -0.38375771640E+02 -0.66155451376E+02  0.76810780271E+02  0.00000000000E+00 0.  1.
         21    1    1    2  504  505 -0.44131482413E+02 -0.85597848881E+02 -0.59433552091E+03  0.60208744455E+03  0.00000000000E+00 0. -1.
         21    1    1    2  505  502  0.49352231145E+02 -0.30535878039E+02 -0.75676058966E+03  0.75898265634E+03  0.00000000000E+00 0. -1.
         21    1    1    2  506  501  0.18962991213E+01  0.15450949856E+03  0.28524175411E+03  0.32440659578E+03  0.00000000000E+00 0. -1.
<scales pt_clust_3="39.03015" pt_clust_4="152.35953" pt_clust_5="68.80829" pt_clust_6="14000.00000"></scales>
<clustering>
<clus scale="   39.030">  2  3  1 -1</clus>
<clus scale="   68.808">  2  5  1 -1</clus>
<clus scale="  152.360">  2  4  1 -1</clus>
<clus scale="  152.360">  1  3  2 -1</clus>
</clustering>
</event>
<event>
 6    0  0.1704145E+002  0.3116911E+03  0.7546771E-02  0.1079538E+00
         21   -1    0    0  504  501  0.00000000000E+00  0.00000000000E+00  0.43728467372E+03  0.43728467372E+03  0.00000000000E+00 0.  1.
         21   -1    0    0  506  502 -0.00000000000E+00 -0.00000000000E+00 -0.33076207303E+03  0.33076207303E+03  0.00000000000E+00 0.  1.
         21    1    1    2  503  505  0.17967495858E+03  0.17266830718E+03 -0.98961225385E+02  0.26812452178E+03  0.00000000000E+00 0.  1.
         21    1    1    2  504  503  0.20505307535E+02  0.25176098704E+02  0.25125562260E+02  0.41056028326E+02  0.00000000000E+00 0. -1.
         21    1    1    2  505  502  0.41548815087E+01  0.52370702782E+02 -0.41518653937E+02  0.66960825674E+02  0.00000000000E+00 0. -1.
         21    1    1    2  506  501 -0.20433514763E+03 -0.25021510867E+03  0.22187691775E+03  0.39190537097E+03  0.00000000000E+00 0.  1.
<scales pt_clust_3="41.13127" pt_clust_4="32.47004" pt_clust_5="41.13127" pt_clust_6="298.39527"></scales>
<clustering>
<clus scale="   32.470">  1  4  2 -1</clus>
<clus scale="   41.131">  3  5 -1 -1</clus>
<clus scale="  298.395">  1  6  2 -1</clus>
<clus scale="   32.470">  1  3  2 -1</clus>
</clustering>
</event>
<event>
 6    0  0.1704145E+002  0.9241609E+02  0.7546771E-02  0.1297104E+00
         21   -1    0    0  504  501  0.00000000000E+00  0.00000000000E+00  0.48602967242E+03  0.48602967242E+03  0.00000000000E+00 0. -1.
         21   -1    0    0  506  502 -0.00000000000E+00 -0.00000000000E+00 -0.90070975319E+02  0.90070975319E+02  0.00000000000E+00 0.  1.
         21    1    1    2  503  502 -0.54780107889E+02 -0.51576787811E+01  0.19238311105E+02  0.58288716617E+02  0.00000000000E+00 0.  1.
         21    1    1    2  504  503  0.42364688307E+02 -0.85542336892E+02  0.39768629194E+03  0.40898245074E+03  0.00000000000E+00 0. -1.
         21    1    1    2  505  501 -0.15640692500E+02  0.70028264556E+02 -0.11070806524E+02  0.72602698680E+02  0.00000000000E+00 0.  1.
         21    1    1    2  506  505  0.28056112081E+02  0.20671751117E+02 -0.98950994266E+01  0.36226781696E+02  0.00000000000E+00 0.  1.
<scales pt_clust_3="46.61323" pt_clust_4="92.41609" pt_clust_5="14000.00000" pt_clust_6="34.84920"></scales>
<clustering>
<clus scale="   34.849">  2  6  1 -1</clus>
<clus scale="   46.613">  2  3  1 -1</clus>
<clus scale="   92.416">  1  4  2 -1</clus>
<clus scale="   92.416">  1  3  2 -1</clus>
</clustering>
</event>
<event>
 6    0  0.1704145E+002  0.2796136E+03  0.7546771E-02  0.1095900E+00
         21   -1    0    0  505  501  0.00000000000E+00  0.00000000000E+00  0.14569084600E+04  0.14569084600E+04  0.00000000000E+00 0.  1.
         21   -1    0    0  503  502 -0.00000000000E+00 -0.00000000000E+00 -0.60306105778E+03  0.60306105778E+03  0.00000000000E+00 0.  1.
         21    1    1    2  503  501 -0.13115929535E+03 -0.23870323958E+03  0.13988271660E+04  0.14250962907E+04  0.00000000000E+00 0.  1.
         21    1    1    2  504  502  0.59298327200E+02  0.20995918300E+02 -0.23343246182E+03  0.24175986935E+03  0.00000000000E+00 0.  1.
         21    1    1    2  505  506  0.38834178793E+01  0.43863898894E+02 -0.23609778695E+02  0.49965430156E+02  0.00000000000E+00 0.  1.
         21    1    1    2  506  504  0.67977550268E+02  0.17384342239E+03 -0.28793752331E+03  0.34314792755E+03  0.00000000000E+00 0.  1.
<scales pt_clust_3="270.68031" pt_clust_4="62.90565" pt_clust_5="34.05463" pt_clust_6="34.05463"></scales>
<clustering>
<clus scale="   34.055">  5  6 -1 -1</clus>
<clus scale="   62.906">  2  4  1 -1</clus>
<clus scale="  270.680">  1  3  2 -1</clus>
<clus scale="  270.680">  1  3  2 -1</clus>
</clustering>
</event>
<event>
 6    0  0.1704145E+002  0.9293278E+02  0.7546771E-02  0.1295901E+00
         21   -1    0    0  506  501  0.00000000000E+00  0.00000000000E+00  0.12218321400E+03  0.12218321400E+03  0.00000000000E+00 0.  1.
         21   -1    0    0  505  502 -0.00000000000E+00 -0.00000000000E+00 -0.53877787131E+03  0.53877787131E+03  0.00000000000E+00 0.  1.
         21    1    1    2  503  504  0.75685437589E+02  0.41830833930E+02 -0.37537974005E+03  0.38521169942E+03  0.00000000000E+00 0.  1.
         21    1    1    2  504  502  0.10391552844E+02  0.41754109038E+02 -0.89170858390E+02  0.99009251982E+02  0.00000000000E+00 0. -1.
         21    1    1    2  505  501 -0.31445067645E+02 -0.74392965486E+01 -0.37786107809E+02  0.49718460915E+02  0.00000000000E+00 0. -1.
         21    1    1    2  506  503 -0.54631922788E+02 -0.76145646419E+02  0.85742048937E+02  0.12702167300E+03  0.00000000000E+00 0.  1.
<scales pt_clust_3="14000.00000" pt_clust_4="40.58097" pt_clust_5="32.31308" pt_clust_6="92.93278"></scales>
<clustering>
<clus scale="   32.313">  2  5  1 -1</clus>
<clus scale="   40.581">  2  4  1 -1</clus>
<clus scale="   92.933">  1  6  2 -1</clus>
<clus scale="   92.933">  1  3  2 -1</clus>
</clustering>
</event>
<event>
 6    0  0.1704145E+002  0.9009834E+02  0.7546771E-02  0.1302614E+00
         21   -1    0    0  506  501  0.00000000000E+00  0.00000000000E+00  0.85133257595E+03  0.85133257595E+03  0.00000000000E+00 0.  1.
         21   -1    0    0  505  502 -0.00000000000E+00 -0.00000000000E+00 -0.70411403323E+02  0.70411403323E+02  0.00000000000E+00 0.  1.
         21    1    1    2  503  504  0.84386420182E+02  0.10332821622E+03  0.10640649214E+03  0.17064621223E+03  0.00000000000E+00 0.  1.
         21    1    1    2  504  502 -0.35440619131E+02 -0.97586879119E+01 -0.16168767436E+02  0.40158417730E+02  0.00000000000E+00 0.  1.
         21    1    1    2  505  501  0.74438684916E+01 -0.65987364334E+02  0.12287164571E+03  0.13966812360E+03  0.00000000000E+00 0.  1.
         21    1    1    2  506  503 -0.56389669542E+02 -0.27582163976E+02  0.56781180221E+03  0.57127122571E+03  0.00000000000E+00 0.  1.
<scales pt_clust_3="90.09834" pt_clust_4="36.75962" pt_clust_5="14000.00000" pt_clust_6="64.25356"></scales>
<clustering>
<clus scale="   36.760">  2  4  1 -1</clus>
<clus scale="   64.254">  1  6  2 -1</clus>
<clus scale="   90.098">  2  3  1 -1</clus>
<clus scale="   64.254">  1  3  2 -1</clus>
</clustering>
</event>
<event>
 6    0  0.1704145E+002  0.1728796E+03  0.7546771E-02  0.1174878E+00
         21   -1    0    0  505  501  0.00000000000E+00  0.00000000000E+00  0.25690231690E+03  0.25690231690E+03  0.00000000000E+00 0.  1.
         21   -1    0    0  506  502 -0.00000000000E+00 -0.00000000000E+00 -0.32605004127E+03  0.32605004127E+03  0.00000000000E+00 0. -1.
         21    1    1    2  503  501 -0.42174627586E+01 -0.66692048553E+02 -0.60598866988E+02  0.90209971802E+02  0.00000000000E+00 0.  1.
         21    1    1    2  504  502 -0.34812639881E+02 -0.10036744121E+02 -0.21190981369E+02  0.41972774741E+02  0.00000000000E+00 0. -1.
         21    1    1    2  505  504  0.48358829705E+02  0.15949712630E+03  0.19125794183E+03  0.25368782001E+03  0.00000000000E+00 0.  1.
         21    1    1    2  506  503 -0.93287270656E+01 -0.82768333631E+02 -0.17861581784E+03  0.19708179161E+03  0.00000000000E+00 0. -1.
<scales pt_clust_3="45.60933" pt_clust_4="36.23060" pt_clust_5="164.60970" pt_clust_6="45.60933"></scales>
<clustering>
<clus scale="   36.231">  2  4  1 -1</clus>
<clus scale="   45.609">  3  6 -1 -1</clus>
<clus scale="  164.610">  1  5  2 -1</clus>
<clus scale="  164.610">  1  3  2 -1</clus>
</clustering>
</event>
<event>
 6    0  0.1704145E+002  0.1187013E+03  0.7546771E-02  0.1245255E+00
         21   -1    0    0  502  501  0.00000000000E+00  0.00000000000E+00  0.10625982422E+03  0.10625982422E+03  0.00000000000E+00 0. -1.
         21   -1    0    0  506  502 -0.00000000000E+00 -0.00000000000E+00 -0.82382474495E+03  0.82382474495E+03  0.00000000000E+00 0. -1.
         21    1    1    2  503  505  0.10019686175E+03  0.59351303296E+02 -0.43008337928E+02  0.12414389006E+03  0.00000000000E+00 0. -1.
         21    1    1    2  504  503 -0.78316721243E+02 -0.57464576558E+02 -0.34804002542E+03  0.36134131466E+03  0.00000000000E+00 0. -1.
         21    1    1    2  505  501 -0.11233145748E+02  0.33632821964E+02  0.52730332943E+02  0.63543987040E+02  0.00000000000E+00 0. -1.
         21    1    1    2  506  504 -0.10646994764E+02 -0.35519548702E+02 -0.37924689031E+03  0.38105537741E+03  0.00000000000E+00 0. -1.
<scales pt_clust_3="118.70134" pt_clust_4="14000.00000" pt_clust_5="35.45914" pt_clust_6="36.53821"></scales>
<clustering>
<clus scale="   35.459">  1  5  2 -1</clus>
<clus scale="   36.538">  2  6  1 -1</clus>
<clus scale="  118.701">  1  3  2 -1</clus>
<clus scale="   35.459">  1  3  2 -1</clus>
</clustering>
</event>
<event>
 6    0  0.1704145E+002  0.1101103E+03  0.7546771E-02  0.1260366E+00
         21   -1    0    0  504  501  0.00000000000E+00  0.00000000000E+00  0.12802779405E+03  0.12802779405E+03  0.00000000000E+00 0.  1.
         21   -1    0    0  506  502 -0.00000000000E+00 -0.00000000000E+00 -0.19524540291E+04  0.19524540291E+04  0.00000000000E+00 0.  1.
         21    1    1    2  503  501 -0.10510772762E+03  0.41221677115E+02  0.77768239012E+02  0.13709398261E+03  0.00000000000E+00 0.  1.
         21    1    1    2  504  505  0.65710206848E+02 -0.87691731964E+02 -0.13428854488E+03  0.17332364070E+03  0.00000000000E+00 0.  1.
         21    1    1    2  505  502  0.14634497836E+02  0.27560060626E+02 -0.26433378898E+03  0.26616926469E+03  0.00000000000E+00 0.  1.
         21    1    1    2  506  503  0.24763022937E+02  0.18909994223E+02 -0.15035721402E+04  0.15038949352E+04  0.00000000000E+00 0.  1.
<scales pt_clust_3="14000.00000" pt_clust_4="110.11032" pt_clust_5="48.55453" pt_clust_6="31.15759"></scales>
<clustering>
<clus scale="   31.158">  2  6  1 -1</clus>
<clus scale="   48.555">  2  5  1 -1</clus>
<clus scale="  110.110">  2  4  1 -1</clus>
<clus scale="  110.110">  1  3  2 -1</clus>
</clustering>
</event>
<event>
 6    0  0.1704145E+002  0.1158953E+03  0.7546771E-02  0.1250026E+00
         21   -1    0    0  505  501  0.00000000000E+00  0.00000000000E+00  0.26353662527E+03  0.26353662527E+03  0.00000000000E+00 0.  1.
         21   -1    0    0  503  502 -0.00000000000E+00 -0.00000000000E+00 -0.12712445187E+03  0.12712445187E+03  0.00000000000E+00 0.  1.
         21    1    1    2  503  506  0.48159893509E+02  0.23186883162E+02  0.27443768602E+02  0.60084668000E+02  0.00000000000E+00 0.  1.
         21    1    1    2  504  501 -0.27177299168E+02 -0.39584254051E+02  0.14845706913E+03  0.15602890800E+03  0.00000000000E+00 0.  1.
         21    1    1    2  505  502 -0.93026447385E+02  0.26429353480E+02 -0.29618632026E+02  0.10114194976E+03  0.00000000000E+00 0.  1.
         21    1    1    2  506  504  0.72043853044E+02 -0.10031982591E+02 -0.98700322997E+01  0.73405551382E+02  0.00000000000E+00 0.  1.
<scales pt_clust_3="46.07377" pt_clust_4="48.01582" pt_clust_5="102.67865" pt_clust_6="46.07377"></scales>
<clustering>
<clus scale="   46.074">  3  6 -1 -1</clus>
<clus scale="   48.016">  1  4  2 -1</clus>
<clus scale="  102.679">  2  5  1 -1</clus>
<clus scale="   48.016">  1  3  2 -1</clus>
</clustering>
</event>
<event>
 6    0  0.1704145E+002  0.2404609E+03  0.7546771E-02  0.1119486E+00
         21   -1    0    0  503  501  0.00000000000E+00  0.00000000000E+00  0.97258754526E+03  0.97258754526E+03  0.00000000000E+00 0. -1.
         21   -1    0    0  504  502 -0.00000000000E+00 -0.00000000000E+00 -0.15385607790E+03  0.15385607790E+03  0.00000000000E+00 0. -1.
         21    1    1    2  503  502  0.43644395422E+02  0.14331216208E+03  0.63170918352E+02  0.16258466711E+03  0.00000000000E+00 0. -1.
         21    1    1    2  504  506 -0.82101017769E+02  0.82670714638E+02  0.20599045044E+02  0.11831882705E+03  0.00000000000E+00 0. -1.
         21    1    1    2  505  501  0.58303724974E+02 -0.25358116364E+03  0.76000851386E+03  0.80331542500E+03  0.00000000000E+00 0. -1.
         21    1    1    2  506  505 -0.19847102626E+02  0.27598286915E+02 -0.25047009898E+02  0.42224704002E+02  0.00000000000E+00 0. -1.
<scales pt_clust_3="149.81058" pt_clust_4="30.56393" pt_clust_5="233.70852" pt_clust_6="30.56393"></scales>
<clustering>
<clus scale="   30.564">  4  6 -1 -1</clus>
<clus scale="  149.811">  2  3  1 -1</clus>
<clus scale="  233.709">  1  5  2 -1</clus>
<clus scale="  233.709">  1  3  2 -1</clus>
</clustering>
</event>
<event>
 6    0  0.1704145E+002  0.1786043E+03  0.7546771E-02  0.1169161E+00
         21   -1    0    0  506  501  0.00000000000E+00  0.00000000000E+00  0.56821301730E+03  0.56821301730E+03  0.00000000000E+00 0. -1.
         21   -1    0    0  504  502 -0.00000000000E+00 -0.00000000000E+00 -0.28949634320E+03  0.28949634320E+03  0.00000000000E+00 0. -1.
         21    1    1    2  503  501  0.14341343792E+03  0.91043640143E+02  0.41263822071E+03  0.44623610317E+03  0.00000000000E+00 0. -1.
         21    1    1    2  504  505  0.29969208290E+02 -0.32631495848E+01  0.50031197428E+01  0.30558677948E+02  0.00000000000E+00 0.  1.
         21    1    1    2  505  503  0.67121090572E+02  0.25287485880E+02 -0.82342492739E+02  0.10920157440E+03  0.00000000000E+00 0. -1.
         21    1    1    2  506  502 -0.24050373678E+03 -0.11306797644E+03 -0.56582173613E+02  0.27171300498E+03  0.00000000000E+00 0. -1.
<scales pt_clust_3="14000.00000" pt_clust_4="30.14634" pt_clust_5="81.17168" pt_clust_6="178.60432"></scales>
<clustering>
<clus scale="   30.146">  2  4  1 -1</clus>
<clus scale="   81.172">  2  5  1 -1</clus>
<clus scale="  178.604">  2  6  1 -1</clus>
<clus scale="  178.604">  1  3  2 -1</clus>
</clustering>
</event>
<event>
 6    0  0.1704145E+002  0.3342359E+03  0.7546771E-02  0.1069278E+00
         21   -1    0    0  503  501  0.00000000000E+00  0.00000000000E+00  0.50154679333E+03  0.50154679333E+03  0.00000000000E+00 0.  1.
         21   -1    0    0  505  502 -0.00000000000E+00 -0.00000000000E+00 -0.55854186017E+03  0.55854186017E+03  0.00000000000E+00 0. -1.
         21    1    1    2  503  506 -0.13752368615E+03 -0.38843240934E+02 -0.11905917529E+03  0.18600174418E+03  0.00000000000E+00 0. -1.
         21    1    1    2  504  502 -0.49552365752E+02  0.86393898077E+02 -0.26673130704E+02  0.10310576355E+03  0.00000000000E+00 0. -1.
         21    1    1    2  505  501  0.29094898535E+03 -0.10463918422E+03  0.36023920764E+03  0.47473461815E+03  0.00000000000E+00 0.  1.
         21    1    1    2  506  504 -0.10387293344E+03  0.57088527073E+02 -0.27150196849E+03  0.29624652761E+03  0.00000000000E+00 0. -1.
<scales pt_clust_3="138.96422" pt_clust_4="99.59590" pt_clust_5="300.48872" pt_clust_6="138.96422"></scales>
<clustering>
<clus scale="   99.596">  2  4  1 -1</clus>
<clus scale="  138.964">  3  6 -1 -1</clus>
<clus scale="  300.489">  1  5  2 -1</clus>
<clus scale="  300.489">  1  3  2 -1</clus>
</clustering>
</event>
<event>
 6    0  0.1937581E+002  0.1419889E+03  0.7546771E-02  0.1210678E+00
         21   -1    0    0  504  501  0.00000000000E+00  0.00000000000E+00  0.54739484632E+03  0.54739484632E+03  0.00000000000E+00 0. -1.
         21   -1    0    0  503  502 -0.00000000000E+00 -0.00000000000E+00 -0.15353973469E+04  0.15353973469E+04  0.00000000000E+00 0. -1.
         21    1    1    2  503  505  0.13873845902E+03  0.33145279694E+02 -0.13876166489E+04  0.13949290067E+04  0.00000000000E+00 0. -1.
         21    1    1    2  504  506 -0.99266848586E+01 -0.45834644567E+02  0.45397432872E+03  0.45639023308E+03  0.00000000000E+00 0. -1.
         21    1    1    2  505  501 -0.14766273348E+03  0.68959226717E+02 -0.23727401406E+02  0.16468954850E+03  0.00000000000E+00 0. -1.
         21    1    1    2  506  502  0.18850959317E+02 -0.56269861843E+02 -0.30632779012E+02  0.66783404892E+02  0.00000000000E+00 0. -1.
<scales pt_clust_3="14000.00000" pt_clust_4="46.89727" pt_clust_5="141.98887" pt_clust_6="67.40849"></scales>
<clustering>
<clus scale="   46.897">  1  4  2 -1</clus>
<clus scale="   67.408">  1  6  2 -1</clus>
<clus scale="  141.989">  1  5  2 -1</clus>
<clus scale="   46.897">  1  3  2 -1</clus>
</clustering>
</event>
<event>
 6    0  0.1704145E+002  0.8616587E+02  0.7546771E-02  0.1312412E+00
         21   -1    0    0  506  501  0.00000000000E+00  0.00000000000E+00  0.77541650642E+03  0.77541650642E+03  0.00000000000E+00 0.  1.
         21   -1    0    0  503  502 -0.00000000000E+00 -0.00000000000E+00 -0.34884165336E+03  0.34884165336E+03  0.00000000000E+00 0. -1.
         21    1    1    2  503  504  0.19791976605E+02 -0.64831899177E+02 -0.21894517711E+03  0.22919835965E+03  0.00000000000E+00 0. -1.
         21    1    1    2  504  501  0.72215010449E+02  0.18225932674E+01  0.73884802327E+03  0.74237101982E+03  0.00000000000E+00 0.  1.
         21    1    1    2  505  502 -0.68889667594E+02  0.29720410441E+02 -0.80813793145E+02  0.11027220076E+03  0.00000000000E+00 0. -1.
         21    1    1    2  506  505 -0.23117319461E+02  0.33288895468E+02 -0.12514199960E+02  0.42416579555E+02  0.00000000000E+00 0.  1.
<scales pt_clust_3="67.78567" pt_clust_4="72.50011" pt_clust_5="34.22391" pt_clust_6="34.22391"></scales>
<clustering>
<clus scale="   34.224">  5  6 -1 -1</clus>
<clus scale="   67.786">  2  3  1 -1</clus>
<clus scale="   72.500">  1  4  2 -1</clus>
<clus scale="   72.500">  1  3  2 -1</clus>
</clustering>
</event>
<event>
 6    0  0.1704145E+002  0.1493759E+03  0.7546771E-02  0.1201242E+00
         21   -1    0    0  506  501  0.00000000000E+00  0.00000000000E+00  0.50368731072E+03  0.50368731072E+03  0.00000000000E+00 0. -1.
         21   -1    0    0  504  502 -0.00000000000E+00 -0.00000000000E+00 -0.53389804886E+03  0.53389804886E+03  0.00000000000E+00 0. -1.
         21    1    1    2  503  502  0.53034112789E+02 -0.78497326001E+01 -0.93667640863E+02  0.10792526287E+03  0.00000000000E+00 0.  1.
         21    1    1    2  504  505 -0.87809815456E+02  0.15830895264E+03 -0.32385965523E+03  0.37102205387E+03  0.00000000000E+00 0. -1.
         21    1    1    2  505  501 -0.21894961504E+01 -0.30782333979E+02  0.42633136613E+03  0.42744681509E+03  0.00000000000E+00 0. -1.
         21    1    1    2  506  503  0.36965198817E+02 -0.11967688606E+03 -0.39014808185E+02  0.13119122775E+03  0.00000000000E+00 0. -1.
<scales pt_clust_3="53.90495" pt_clust_4="14000.00000" pt_clust_5="30.86010" pt_clust_6="149.37588"></scales>
<clustering>
<clus scale="   30.860">  1  5  2 -1</clus>
<clus scale="   53.905">  2  3  1 -1</clus>
<clus scale="  149.376">  1  6  2 -1</clus>
<clus scale="   30.860">  1  3  2 -1</clus>
</clustering>
</event>
<event>
 6    0  0.1704145E+002  0.1221246E+03  0.7546771E-02  0.1239633E+00
         21   -1    0    0  504  501  0.00000000000E+00  0.00000000000E+00  0.31073867299E+03  0.31073867299E+03  0.00000000000E+00 0.  1.
         21   -1    0    0  505  502 -0.00000000000E+00 -0.00000000000E+00 -0.60961106175E+03  0.60961106175E+03  0.00000000000E+00 0.  1.
         21    1    1    2  503  506 -0.67475034791E+02  0.11493661626E+02 -0.11989457277E+03  0.13805684756E+03  0.00000000000E+00 0.  1.
         21    1    1    2  504  503 -0.16807825950E+02  0.14464539262E+03 -0.38303117114E+03  0.40977758684E+03  0.00000000000E+00 0.  1.
         21    1    1    2  505  501  0.74760025922E+02 -0.96427537022E+02  0.26184230305E+03  0.28887492629E+03  0.00000000000E+00 0.  1.
         21    1    1    2  506  502  0.95228348184E+01 -0.59711517220E+02 -0.57788947903E+02  0.83640374051E+02  0.00000000000E+00 0.  1.
<scales pt_clust_3="65.25589" pt_clust_4="122.12460" pt_clust_5="14000.00000" pt_clust_6="60.46610"></scales>
<clustering>
<clus scale="   60.466">  2  6  1 -1</clus>
<clus scale="   65.256">  2  3  1 -1</clus>
<clus scale="  122.125">  2  4  1 -1</clus>
<clus scale="  122.125">  1  3  2 -1</clus>
</clustering>
</event>
<event>
 6    0  0.1704145E+002  0.3179221E+03  0.7546771E-02  0.1076610E+00
         21   -1    0    0  503  501  0.00000000000E+00  0.00000000000E+00  0.60457808654E+03  0.60457808654E+03  0.00000000000E+00 0.  1.
         21   -1    0    0  505  502 -0.00000000000E+00 -0.00000000000E+00 -0.55919339177E+03  0.55919339177E+03  0.00000000000E+00 0.  1.
         21    1    1    2  503  506 -0.24481953450E+03  0.23055147660E+03 -0.31806427024E+03  0.46287737884E+03  0.00000000000E+00 0.  1.
         21    1    1    2  504  501  0.47917283755E+02 -0.74541866006E+02  0.32679356437E+03  0.33859502298E+03  0.00000000000E+00 0.  1.
         21    1    1    2  505  504  0.15587235728E+03 -0.21165922369E+03  0.86875525330E+02  0.27684503903E+03  0.00000000000E+00 0.  1.
         21    1    1    2  506  502  0.41029893461E+02  0.55649613093E+02 -0.50220124684E+02  0.85454037459E+02  0.00000000000E+00 0. -1.
<scales pt_clust_3="14000.00000" pt_clust_4="88.32233" pt_clust_5="317.92207" pt_clust_6="69.13994"></scales>
<clustering>
<clus scale="   69.140">  2  6  1 -1</clus>
<clus scale="   88.322">  1  4  2 -1</clus>
<clus scale="  317.922">  1  5  2 -1</clus>
<clus scale="   88.322">  1  3  2 -1</clus>
</clustering>
</event>
<event>
 6    0  0.1704145E+002  0.2572912E+03  0.7546771E-02  0.1108782E+00
         21   -1    0    0  503  501  0.00000000000E+00  0.00000000000E+00  0.37734177595E+03  0.37734177595E+03  0.00000000000E+00 0.  1.
         21   -1    0    0  504  502 -0.00000000000E+00 -0.00000000000E+00 -0.20256007305E+03  0.20256007305E+03  0.00000000000E+00 0.  1.
         21    1    1    2  503  505  0.76644843708E+02 -0.81562253290E+01 -0.73243161944E+01  0.77424813118E+02  0.00000000000E+00 0. -1.
         21    1    1    2  504  501 -0.22529713264E+03 -0.80665453295E+02  0.21228517970E+03  0.31989171739E+03  0.00000000000E+00 0.  1.
         21    1    1    2  505  506  0.83698758727E+02  0.41892512370E+02  0.77723591638E+01  0.93919510071E+02  0.00000000000E+00 0.  1.
         21    1    1    2  506  502  0.64953530204E+02  0.46929166254E+02 -0.37951519773E+02  0.88665808429E+02  0.00000000000E+00 0.  1.
<scales pt_clust_3="45.46840" pt_clust_4="239.30256" pt_clust_5="49.07718" pt_clust_6="49.07718"></scales>
<clustering>
<clus scale="   45.468">  3  5 -1 -1</clus>
<clus scale="   49.077">  3  6 -1 -1</clus>
<clus scale="  239.303">  1  4  2 -1</clus>
<clus scale="  239.303">  1  3  2 -1</clus>
</clustering>
</event>
<event>
 6    0  0.1704145E+002  0.1232164E+03  0.7546771E-02  0.1237883E+00
         21   -1    0    0  503  501  0.00000000000E+00  0.00000000000E+00  0.41066141658E+03  0.41066141658E+03  0.00000000000E+00 0. -1.
         21   -1    0    0  506  502 -0.00000000000E+00 -0.00000000000E+00 -0.21386162818E+03  0.21386162818E+03  0.00000000000E+00 0.  1.
         21    1    1    2  503  505 -0.42660062585E+02  0.73112262423E+02  0.26295207188E+02  0.88638150801E+02  0.00000000000E+00 0. -1.
         21    1    1    2  504  502  0.18375862901E+02 -0.10392347257E+03 -0.11826946669E+03  0.15851002252E+03  0.00000000000E+00 0.  1.
         21    1    1    2  505  504 -0.24258729161E+02 -0.20994123316E+02 -0.34081467330E+02  0.46805828373E+02  0.00000000000E+00 0. -1.
         21    1    1    2  506  501  0.48542928845E+02  0.51805333467E+02  0.32285551523E+03  0.33056904306E+03  0.00000000000E+00 0. -1.
<scales pt_clust_3="108.98394" pt_clust_4="31.69573" pt_clust_5="31.69573" pt_clust_6="70.99443"></scales>
<clustering>
<clus scale="   31.696">  4  5 -1 -1</clus>
<clus scale="   70.994">  1  6  2 -1</clus>
<clus scale="  108.984">  1  3  2 -1</clus>
<clus scale="   70.994">  1  3  2 -1</clus>
</clustering>
</event>
<event>
 6    0  0.1704145E+002  0.9036551E+02  0.7546771E-02  0.1301969E+00
         21   -1    0    0  503  501  0.00000000000E+00  0.00000000000E+00  0.17395010321E+03  0.17395010321E+03  0.00000000000E+00 0.  1.
         21   -1    0    0  505  502 -0.00000000000E+00 -0.00000000000E+00 -0.98807535963E+03  0.98807535963E+03  0.00000000000E+00 0.  1.
         21    1    1    2  503  502  0.45879800778E+02  0.32553565868E+02 -0.66889988057E+02  0.87401151436E+02  0.00000000000E+00 0.  1.
         21    1    1    2  504  501  0.48884021202E+02  0.57408183950E+02  0.14931827569E+03  0.16727610280E+03  0.00000000000E+00 0.  1.
         21    1    1    2  505  506 -0.42300078556E+02 -0.70339761965E+02 -0.46701934249E+03  0.47417722954E+03  0.00000000000E+00 0.  1.
         21    1    1    2  506  504 -0.52463743425E+02 -0.19621987853E+02 -0.42953420157E+03  0.43317097906E+03  0.00000000000E+00 0.  1.
<scales pt_clust_3="56.25558" pt_clust_4="75.93886" pt_clust_5="40.46347" pt_clust_6="40.46347"></scales>
<clustering>
<clus scale="   40.463">  5  6 -1 -1</clus>
<clus scale="   56.256">  2  3  1 -1</clus>
<clus scale="   75.939">  1  4  2 -1</clus>
<clus scale="   75.939">  1  3  2 -1</clus>
</clustering>
</event>
<event>
 6    0  0.1704145E+002  0.1970452E+03  0.7546771E-02  0.1152256E+00
         21   -1    0    0  506  501  0.00000000000E+00  0.00000000000E+00  0.50172022534E+03  0.50172022534E+03  0.00000000000E+00 0.  1.
         21   -1    0    0  504  502 -0.00000000000E+00 -0.00000000000E+00 -0.25424806211E+03  0.25424806211E+03  0.00000000000E+00 0.  1.
         21    1    1    2  503  501 -0.24489649052E+02 -0.84752836640E+02  0.33445625943E+03  0.34589561387E+03  0.00000000000E+00 0.  1.
         21    1    1    2  504  505  0.76546280961E+02  0.14055915323E+03 -0.12376882043E+03  0.20232382360E+03  0.00000000000E+00 0.  1.
         21    1    1    2  505  503  0.43939156956E+02  0.43731716021E+02 -0.77341963324E+01  0.62473436700E+02  0.00000000000E+00 0.  1.
         21    1    1    2  506  502 -0.95995788865E+02 -0.99538032607E+02  0.44518920563E+02  0.14527541328E+03  0.00000000000E+00 0.  1.
<scales pt_clust_3="88.22010" pt_clust_4="41.02239" pt_clust_5="41.02239" pt_clust_6="185.69365"></scales>
<clustering>
<clus scale="   41.022">  4  5 -1 -1</clus>
<clus scale="   88.220">  1  3  2 -1</clus>
<clus scale="  185.694">  1  6  2 -1</clus>
<clus scale="   88.220">  1  3  2 -1</clus>
</clustering>
</event>
<event>
 6    0  0.1704145E+002  0.2819906E+03  0.7546771E-02  0.1094607E+00
         21   -1    0    0  503  501  0.00000000000E+00  0.00000000000E+00  0.94185340236E+02  0.94185340236E+02  0.00000000000E+00 0.  1.
         21   -1    0    0  504  502 -0.00000000000E+00 -0.00000000000E+00 -0.14137693642E+04  0.14137693642E+04  0.00000000000E+00 0.  1.
         21    1    1    2  503  506 -0.15039593658E+03  0.79603836944E+02 -0.57209784364E+03  0.59686820261E+03  0.00000000000E+00 0.  1.
         21    1    1    2  504  505  0.19576266232E+03 -0.13381485436E+03 -0.50325536201E+03  0.55632310270E+03  0.00000000000E+00 0.  1.
         21    1    1    2  505  501  0.38293079061E+01 -0.60470224189E+02  0.18959438405E+02  0.63488360486E+02  0.00000000000E+00 0.  1.
         21    1    1    2  506  502 -0.49196033648E+02  0.11468124160E+03 -0.26319025675E+03  0.29127503867E+03  0.00000000000E+00 0.  1.
<scales pt_clust_3="95.32576" pt_clust_4="256.92440" pt_clust_5="60.59135" pt_clust_6="95.32576"></scales>
<clustering>
<clus scale="   60.591">  1  5  2 -1</clus>
<clus scale="   95.326">  3  6 -1 -1</clus>
<clus scale="  256.924">  1  4  2 -1</clus>
<clus scale="   60.591">  1  3  2 -1</clus>
</clustering>
</event>
<event>
 6    0  0.1704145E+002  0.8193904E+02  0.7546771E-02  0.1323637E+00
         21   -1    0    0  503  501  0.00000000000E+00  0.00000000000E+00  0.11643170944E+04  0.11643170944E+04  0.00000000000E+00 0. -1.
         21   -1    0    0  506  502 -0.00000000000E+00 -0.00000000000E+00 -0.34667210927E+02  0.34667210927E+02  0.00000000000E+00 0. -1.
         21    1    1    2  503  504 -0.35467934664E+02  0.65348854311E+02  0.64636327204E+03  0.65062579613E+03  0.00000000000E+00 0. -1.
         21    1    1    2  504  502 -0.40591025611E+02  0.62547918668E+02  0.12009509658E+03  0.14136019847E+03  0.00000000000E+00 0.  1.
         21    1    1    2  505  501  0.97686177717E+02 -0.94023621562E+02  0.32233064210E+03  0.34968567824E+03  0.00000000000E+00 0. -1.
         21    1    1    2  506  505 -0.21627217442E+02 -0.33873151417E+02  0.40860872785E+02  0.57312632516E+02  0.00000000000E+00 0. -1.
<scales pt_clust_3="14000.00000" pt_clust_4="69.44870" pt_clust_5="81.93904" pt_clust_6="40.18864"></scales>
<clustering>
<clus scale="   40.189">  2  6  1 -1</clus>
<clus scale="   69.449">  2  4  1 -1</clus>
<clus scale="   81.939">  2  5  1 -1</clus>
<clus scale="   81.939">  1  3  2 -1</clus>
</clustering>
</event>
<event>
 6    0  0.1704145E+002  0.1064025E+03  0.7546771E-02  0.1267381E+00
         21   -1    0    0  504  501  0.00000000000E+00  0.00000000000E+00  0.23531131793E+03  0.23531131793E+03  0.00000000000E+00 0.  1.
         21   -1    0    0  503  502 -0.00000000000E+00 -0.00000000000E+00 -0.26675667070E+03  0.26675667070E+03  0.00000000000E+00 0. -1.
         21    1    1    2  503  506 -0.39193010695E+02 -0.21664464430E+01 -0.47964334311E+02  0.61978729766E+02  0.00000000000E+00 0. -1.
         21    1    1    2  504  502  0.12091678252E+03 -0.40433299192E+02  0.15781009008E+03  0.20287864479E+03  0.00000000000E+00 0.  1.
         21    1    1    2  505  501 -0.32949266963E+02 -0.25010436690E+02  0.27002840933E+02  0.49399691854E+02  0.00000000000E+00 0. -1.
         21    1    1    2  506  505 -0.48774504864E+02  0.67610182325E+02 -0.16829394948E+03  0.18781092223E+03  0.00000000000E+00 0. -1.
<scales pt_clust_3="39.25284" pt_clust_4="14000.00000" pt_clust_5="43.10199" pt_clust_6="106.40253"></scales>
<clustering>
<clus scale="   39.253">  2  3  1 -1</clus>
<clus scale="   43.102">  1  5  2 -1</clus>
<clus scale="  106.403">  2  6  1 -1</clus>
<clus scale="   43.102">  1  3  2 -1</clus>
</clustering>
</event>
<event>
 6    0  0.1704145E+002  0.1270996E+03  0.7546771E-02  0.1231824E+00
         21   -1    0    0  503  501  0.00000000000E+00  0.00000000000E+00  0.14067368886E+02  0.14067368886E+02  0.00000000000E+00 0. -1.
         21   -1    0    0  505  502 -0.00000000000E+00 -0.00000000000E+00 -0.20966445344E+04  0.20966445344E+04  0.00000000000E+00 0. -1.
         21    1    1    2  503  504  0.26008109250E+02  0.56901436134E+02 -0.30409576681E+03  0.31046486206E+03  0.00000000000E+00 0. -1.
         21    1    1    2  504  502  0.74242618342E+02  0.50323502449E+02 -0.65435714232E+03  0.66047535229E+03  0.00000000000E+00 0. -1.
         21    1    1    2  505  506 -0.78593320417E+02 -0.68451901549E+02 -0.10346039553E+04  0.10398403325E+04  0.00000000000E+00 0. -1.
         21    1    1    2  506  501 -0.21657407175E+02 -0.38773037034E+02 -0.89520301057E+02  0.99931356379E+02  0.00000000000E+00 0. -1.
<scales pt_clust_3="42.13816" pt_clust_4="42.13816" pt_clust_5="116.65670" pt_clust_6="44.41162"></scales>
<clustering>
<clus scale="   42.138">  3  4 -1 -1</clus>
<clus scale="   44.412">  1  6  2 -1</clus>
<clus scale="  116.657">  2  5  1 -1</clus>
<clus scale="   44.412">  1  3  2 -1</clus>
</clustering>
</event>
<event>
 6    0  0.1704145E+002  0.8409440E+02  0.7546771E-02  0.1317818E+00
         21   -1    0    0  504  501  0.00000000000E+00  0.00000000000E+00  0.18297274939E+04  0.18297274939E+04  0.00000000000E+00 0. -1.
         21   -1    0    0  506  502 -0.00000000000E+00 -0.00000000000E+00 -0.35004033822E+02  0.35004033822E+02  0.00000000000E+00 0. -1.
         21    1    1    2  503  502  0.43246532249E+02  0.33273274201E+02  0.57120119610E+02  0.78994185811E+02  0.00000000000E+00 0. -1.
         21    1    1    2  504  503 -0.50147444832E+02  0.69431206623E+02  0.15895264666E+04  0.15918322295E+04  0.00000000000E+00 0. -1.
         21    1    1    2  505  501 -0.22316256455E+02 -0.90372224055E+02  0.11688368484E+03  0.14942205314E+03  0.00000000000E+00 0. -1.
         21    1    1    2  506  505  0.29217169038E+02 -0.12332256770E+02  0.31193188963E+02  0.44483059262E+02  0.00000000000E+00 0.  1.
<scales pt_clust_3="61.52284" pt_clust_4="84.09440" pt_clust_5="14000.00000" pt_clust_6="31.71321"></scales>
<clustering>
<clus scale="   31.713">  2  6  1 -1</clus>
<clus scale="   61.523">  2  3  1 -1</clus>
<clus scale="   84.094">  1  4  2 -1</clus>
<clus scale="   84.094">  1  3  2 -1</clus>
</clustering>
</event>
<event>
 6    0  0.1704145E+002  0.2063761E+03  0.7546771E-02  0.1144468E+00
         21   -1    0    0  503  501  0.00000000000E+00  0.00000000000E+00  0.28954628814E+03  0.28954628814E+03  0.00000000000E+00 0. -1.
         21   -1    0    0  505  502 -0.00000000000E+00 -0.00000000000E+00 -0.27109537209E+03  0.27109537209E+03  0.00000000000E+00 0. -1.
         21    1    1    2  503  506  0.32780519706E+02 -0.11471964050E+02  0.12511836515E+03  0.12984904208E+03  0.00000000000E+00 0. -1.
         21    1    1    2  504  502 -0.62929787933E+02 -0.55973578487E+02 -0.23608529385E+02  0.87467493148E+02  0.00000000000E+00 0. -1.
         21    1    1    2  505  501  0.14955281549E+03  0.12517878593E+03 -0.79614225201E+02  0.21065184054E+03  0.00000000000E+00 0. -1.
         21    1    1    2  506  504 -0.11940354726E+03 -0.57733243394E+02 -0.34446945144E+01  0.13267328447E+03  0.00000000000E+00 0. -1.
<scales pt_clust_3="34.72994" pt_clust_4="31.42772" pt_clust_5="202.57268" pt_clust_6="31.42772"></scales>
<clustering>
<clus scale="   31.428">  4  6 -1 -1</clus>
<clus scale="   34.730">  1  3  2 -1</clus>
<clus scale="  202.573">  2  5  1 -1</clus>
<clus scale="   34.730">  1  3  2 -1</clus>
</clustering>
</event>
<event>
 6    0  0.1704145E+002  0.1654583E+03  0.7546771E-02  0.1182669E+00
         21   -1    0    0  505  501  0.00000000000E+00  0.00000000000E+00  0.11609552598E+03  0.11609552598E+03  0.00000000000E+00 0. -1.
         21   -1    0    0  501  502 -0.00000000000E+00 -0.00000000000E+00 -0.49770758903E+03  0.49770758903E+03  0.00000000000E+00 0. -1.
         21    1    1    2  503  502 -0.57596848411E+02 -0.55601854837E+02 -0.15558397333E+03  0.17497238630E+03  0.00000000000E+00 0. -1.
         21    1    1    2  504  506  0.13395293149E+03  0.94834181722E+02 -0.19421439657E+03  0.25427571987E+03  0.00000000000E+00 0. -1.
         21    1    1    2  505  504 -0.33866271269E+02  0.27852898398E+02  0.52720928742E+02  0.68572622863E+02  0.00000000000E+00 0. -1.
         21    1    1    2  506  503 -0.42489811815E+02 -0.67085225283E+02 -0.84534621894E+02  0.11598238598E+03  0.00000000000E+00 0. -1.
<scales pt_clust_3="43.73442" pt_clust_4="159.52480" pt_clust_5="43.84870" pt_clust_6="43.73442"></scales>
<clustering>
<clus scale="   43.734">  3  6 -1 -1</clus>
<clus scale="   43.849">  1  5  2 -1</clus>
<clus scale="  159.525">  1  4  2 -1</clus>
<clus scale="   43.849">  1  3  2 -1</clus>
</clustering>
</event>
<event>
 6    0  0.1704145E+002  0.7299183E+02  0.7546771E-02  0.1350205E+00
         21   -1    0    0  506  501  0.00000000000E+00  0.00000000000E+00  0.16510114349E+04  0.16510114349E+04  0.00000000000E+00 0.  1.
         21   -1    0    0  503  502 -0.00000000000E+00 -0.00000000000E+00 -0.88500058754E+02  0.88500058754E+02  0.00000000000E+00 0. -1.
         21    1    1    2  503  501  0.61177877451E+02 -0.39576735541E+02  0.14015930403E+04  0.14034856969E+04  0.00000000000E+00 0.  1.
         21    1    1    2  504  505  0.65963941427E+02  0.12845402262E+02  0.15604200958E+03  0.16989807145E+03  0.00000000000E+00 0. -1.
         21    1    1    2  505  502 -0.16846756693E+02  0.50494007344E+02  0.16430215990E+01  0.53255586644E+02  0.00000000000E+00 0. -1.
         21    1    1    2  506  504 -0.11029506218E+03 -0.23762674066E+02  0.32333046019E+01  0.11287213863E+03  0.00000000000E+00 0. -1.
<scales pt_clust_3="72.99183" pt_clust_4="66.69777" pt_clust_5="53.23024" pt_clust_6="14000.00000"></scales>
<clustering>
<clus scale="   53.230">  2  5  1 -1</clus>
<clus scale="   66.698">  2  4  1 -1</clus>
<clus scale="   72.992">  1  3  2 -1</clus>
<clus scale="   72.992">  1  3  2 -1</clus>
</clustering>
</event>
<event>
 6    0  0.1704145E+002  0.1272351E+03  0.7546771E-02  0.1231617E+00
         21   -1    0    0  506  501  0.00000000000E+00  0.00000000000E+00  0.56614173061E+03  0.56614173061E+03  0.00000000000E+00 0.  1.
         21   -1    0    0  505  502 -0.00000000000E+00 -0.00000000000E+00 -0.23492302990E+03  0.23492302990E+03  0.00000000000E+00 0. -1.
         21    1    1    2  503  501  0.27377495447E+02  0.15426087426E+03 -0.11568973419E+00  0.15667149698E+03  0.00000000000E+00 0. -1.
         21    1    1    2  504  502 -0.73060240076E+01 -0.95105002229E+02 -0.10639186068E+03  0.14289005373E+03  0.00000000000E+00 0. -1.
         21    1    1    2  505  503  0.29808977767E+02 -0.40623712208E+02 -0.93705247104E+01  0.51251028111E+02  0.00000000000E+00 0. -1.
         21    1    1    2  506  504 -0.49880449207E+02 -0.18532159819E+02  0.44709677582E+03  0.45025218169E+03  0.00000000000E+00 0.  1.
<scales pt_clust_3="127.23514" pt_clust_4="14000.00000" pt_clust_5="50.38711" pt_clust_6="53.10679"></scales>
<clustering>
<clus scale="   50.387">  2  5  1 -1</clus>
<clus scale="   53.107">  1  6  2 -1</clus>
<clus scale="  127.235">  1  3  2 -1</clus>
<clus scale="   53.107">  1  3  2 -1</clus>
</clustering>
</event>
<event>
 6    0  0.1704145E+002  0.2647503E+03  0.7546771E-02  0.1104322E+00
         21   -1    0    0  506  501  0.00000000000E+00  0.00000000000E+00  0.35202359162E+03  0.35202359162E+03  0.00000000000E+00 0.  1.
         21   -1    0    0  505  502 -0.00000000000E+00 -0.00000000000E+00 -0.74227646138E+03  0.74227646138E+03  0.00000000000E+00 0.  1.
         21    1    1    2  503  502 -0.11514836452E+03  0.27559139581E+03 -0.20240727686E+02  0.29936507872E+03  0.00000000000E+00 0.  1.
         21    1    1    2  504  501  0.73904782725E+01 -0.55277201789E+02 -0.17539830286E+03  0.18405095179E+03  0.00000000000E+00 0.  1.
         21    1    1    2  505  504  0.83320125741E+02 -0.17778406098E+03 -0.37535532804E+03  0.42360481345E+03  0.00000000000E+00 0.  1.
         21    1    1    2  506  503  0.24437760506E+02 -0.42530133048E+02  0.18074148883E+03  0.18727920905E+03  0.00000000000E+00 0.  1.
<scales pt_clust_3="258.30743" pt_clust_4="30.93907" pt_clust_5="30.93907" pt_clust_6="49.05116"></scales>
<clustering>
<clus scale="   30.939">  4  5 -1 -1</clus>
<clus scale="   49.051">  1  6  2 -1</clus>
<clus scale="  258.307">  1  3  2 -1</clus>
<clus scale="   49.051">  1  3  2 -1</clus>
</clustering>
</event>
<event>
 6    0  0.1704145E+002  0.1340714E+03  0.7546771E-02  0.1221537E+00
         21   -1    0    0  506  501  0.00000000000E+00  0.00000000000E+00  0.22498967854E+03  0.22498967854E+03  0.00000000000E+00 0. -1.
         21   -1    0    0  504  502 -0.00000000000E+00 -0.00000000000E+00 -0.19132581386E+04  0.19132581386E+04  0.00000000000E+00 0. -1.
         21    1    1    2  503  505 -0.28658708507E+02 -0.12168125588E+03 -0.20528113954E+03  0.24034973654E+03  0.00000000000E+00 0. -1.
         21    1    1    2  504  501 -0.53674956200E+02 -0.77187877313E+01 -0.14683967446E+04  0.14693976930E+04  0.00000000000E+00 0. -1.
         21    1    1    2  505  502 -0.11457213251E+02  0.30125158999E+02 -0.19756478259E+03  0.20017651276E+03  0.00000000000E+00 0.  1.
         21    1    1    2  506  503  0.93790877958E+02  0.99274884611E+02  0.18297420670E+03  0.22832387483E+03  0.00000000000E+00 0. -1.
<scales pt_clust_3="14000.00000" pt_clust_4="66.01910" pt_clust_5="32.23031" pt_clust_6="134.07138"></scales>
<clustering>
<clus scale="   32.230">  2  5  1 -1</clus>
<clus scale="   66.019">  2  4  1 -1</clus>
<clus scale="  134.071">  1  6  2 -1</clus>
<clus scale="  134.071">  1  3  2 -1</clus>
</clustering>
</event>
<event>
 6    0  0.1704145E+002  0.1838561E+03  0.7546771E-02  0.1164122E+00
         21   -1    0    0  505  501  0.00000000000E+00  0.00000000000E+00  0.11010686081E+04  0.11010686081E+04  0.00000000000E+00 0.  1.
         21   -1    0    0  503  502 -0.00000000000E+00 -0.00000000000E+00 -0.21148650949E+03  0.21148650949E+03  0.00000000000E+00 0. -1.
         21    1    1    2  503  506 -0.10110644505E+02 -0.37152228072E+02 -0.38375936799E+02  0.54361987714E+02  0.00000000000E+00 0. -1.
         21    1    1    2  504  502 -0.88495728926E+02 -0.31594803826E+02 -0.17387253378E+02  0.95561719569E+02  0.00000000000E+00 0. -1.
         21    1    1    2  505  504  0.39144316639E+02  0.17274503976E+03  0.10107435698E+04  0.10261460375E+04  0.00000000000E+00 0.  1.
         21    1    1    2  506  501  0.59462056792E+02 -0.10399800786E+03 -0.65398281033E+02  0.13648537284E+03  0.00000000000E+00 0. -1.
<scales pt_clust_3="32.54116" pt_clust_4="93.96662" pt_clust_5="174.66656" pt_clust_6="32.54116"></scales>
<clustering>
<clus scale="   32.541">  3  6 -1 -1</clus>
<clus scale="   93.967">  2  4  1 -1</clus>
<clus scale="  174.667">  1  5  2 -1</clus>
<clus scale="  174.667">  1  3  2 -1</clus>
</clustering>
</event>
<event>
 6    0  0.1704145E+002  0.1636184E+03  0.7546771E-02  0.1184671E+00
         21   -1    0    0  503  501  0.00000000000E+00  0.00000000000E+00  0.25149019909E+03  0.25149019909E+03  0.00000000000E+00 0.  1.
         21   -1    0    0  506  502 -0.00000000000E+00 -0.00000000000E+00 -0.19561216256E+03  0.19561216256E+03  0.00000000000E+00 0.  1.
         21    1    1    2  503  504 -0.64767041514E+01 -0.89748267355E+02  0.62522306409E+02  0.10957069859E+03  0.00000000000E+00 0.  1.
         21    1    1    2  504  505  0.62774987722E+02 -0.51616205025E+02  0.20420789659E+01  0.81296382399E+02  0.00000000000E+00 0.  1.
         21    1    1    2  505  502  0.63718288696E+02 -0.82879865245E+01 -0.20698439991E+01  0.64288376003E+02  0.00000000000E+00 0.  1.
         21    1    1    2  506  501 -0.12001657227E+03  0.14965245890E+03 -0.66165048507E+01  0.19194690467E+03  0.00000000000E+00 0.  1.
<scales pt_clust_3="89.98166" pt_clust_4="35.63201" pt_clust_5="35.63201" pt_clust_6="158.63522"></scales>
<clustering>
<clus scale="   35.632">  4  5 -1 -1</clus>
<clus scale="   89.982">  1  3  2 -1</clus>
<clus scale="  158.635">  1  6  2 -1</clus>
<clus scale="   89.982">  1  3  2 -1</clus>
</clustering>
</event>
<event>
 6    0  0.1704145E+002  0.2582848E+03  0.7546771E-02  0.1108178E+00
         21   -1    0    0  505  501  0.00000000000E+00  0.00000000000E+00  0.11367945480E+04  0.11367945480E+04  0.00000000000E+00 0.  1.
         21   -1    0    0  503  502 -0.00000000000E+00 -0.00000000000E+00 -0.15120415277E+03  0.15120415277E+03  0.00000000000E+00 0.  1.
         21    1    1    2  503  501  0.48582013806E+02  0.15906081439E+02 -0.28308677690E+02  0.58434550779E+02  0.00000000000E+00 0.  1.
         21    1    1    2  504  506  0.47397740979E+02 -0.66506205765E+02  0.47145479988E+01  0.81803717629E+02  0.00000000000E+00 0.  1.
         21    1    1    2  505  504 -0.20980404298E+03  0.15220699017E+03  0.94896793025E+03  0.98373006306E+03  0.00000000000E+00 0.  1.
         21    1    1    2  506  502  0.11382428820E+03 -0.10160686584E+03  0.60216594622E+02  0.16403036925E+03  0.00000000000E+00 0.  1.
<scales pt_clust_3="51.11962" pt_clust_4="32.42114" pt_clust_5="254.45477" pt_clust_6="32.42114"></scales>
<clustering>
<clus scale="   32.421">  4  6 -1 -1</clus>
<clus scale="   51.120">  2  3  1 -1</clus>
<clus scale="  254.455">  1  5  2 -1</clus>
<clus scale="  254.455">  1  3  2 -1</clus>
</clustering>
</event>
<event>
 6    0  0.1737613E+002  0.8182949E+02  0.7546771E-02  0.1323938E+00
         21   -1    0    0  505  501  0.00000000000E+00  0.00000000000E+00  0.28733860374E+03  0.28733860374E+03  0.00000000000E+00 0.  1.
         21   -1    0    0  504  502 -0.00000000000E+00 -0.00000000000E+00 -0.10005829211E+04  0.10005829211E+04  0.00000000000E+00 0. -1.
         21    1    1    2  503  501 -0.26989597593E+02 -0.34343895867E+02 -0.12363709567E+02  0.45396066744E+02  0.00000000000E+00 0.  1.
         21    1    1    2  504  503  0.10634719057E+02 -0.60905020976E+02 -0.89109996542E+03  0.89324222202E+03  0.00000000000E+00 0. -1.
         21    1    1    2  505  506  0.52109550513E+02  0.11223632920E+03  0.24921058156E+03  0.27824146494E+03  0.00000000000E+00 0.  1.
         21    1    1    2  506  502 -0.35754671977E+02 -0.16987412356E+02 -0.58991223958E+02  0.71041771169E+02  0.00000000000E+00 0.  1.
<scales pt_clust_3="44.77757" pt_clust_4="81.82949" pt_clust_5="14000.00000" pt_clust_6="39.58496"></scales>
<clustering>
<clus scale="   39.585">  2  6  1 -1</clus>
<clus scale="   44.778">  1  3  2 -1</clus>
<clus scale="   81.829">  2  4  1 -1</clus>
<clus scale="   44.778">  1  3  2 -1</clus>
</clustering>
</event>
<event>
 6    0  0.1704145E+002  0.2218212E+03  0.7546771E-02  0.1132532E+00
         21   -1    0    0  503  501  0.00000000000E+00  0.00000000000E+00  0.26738150060E+04  0.26738150060E+04  0.00000000000E+00 0. -1.
         21   -1    0    0  505  502 -0.00000000000E+00 -0.00000000000E+00 -0.37786657840E+02  0.37786657840E+02  0.00000000000E+00 0. -1.
         21    1    1    2  503  502  0.36122443897E+02 -0.18592958334E+02  0.13527043228E+04  0.13533142702E+04  0.00000000000E+00 0. -1.
         21    1    1    2  504  506  0.45802109712E+02 -0.74564551244E+02  0.27950070630E+03  0.29287941269E+03  0.00000000000E+00 0. -1.
         21    1    1    2  505  504 -0.17371748208E+03  0.15326161421E+03  0.51949988923E+03  0.56881193806E+03  0.00000000000E+00 0. -1.
         21    1    1    2  506  501  0.91792928470E+02 -0.60104104634E+02  0.48432342984E+03  0.49659604288E+03  0.00000000000E+00 0. -1.
<scales pt_clust_3="40.62670" pt_clust_4="46.01790" pt_clust_5="215.47277" pt_clust_6="46.01790"></scales>
<clustering>
<clus scale="   40.627">  1  3  2 -1</clus>
<clus scale="   46.018">  4  6 -1 -1</clus>
<clus scale="  215.473">  2  5  1 -1</clus>
<clus scale="   40.627">  1  3  2 -1</clus>
</clustering>
</event>
<event>
 6    0  0.1704145E+002  0.1824201E+03  0.7546771E-02  0.1165481E+00
         21   -1    0    0  504  501  0.00000000000E+00  0.00000000000E+00  0.12831001458E+03  0.12831001458E+03  0.00000000000E+00 0. -1.
         21   -1    0    0  506  502 -0.00000000000E+00 -0.00000000000E+00 -0.91693348018E+03  0.91693348018E+03  0.00000000000E+00 0. -1.
         21    1    1    2  503  501  0.14432377748E+03  0.10982895105E+03  0.21399341657E+02  0.18261895591E+03  0.00000000000E+00 0. -1.
         21    1    1    2  504  502 -0.10934784163E+03  0.29845200460E+02 -0.16994854691E+03  0.20427969811E+03  0.00000000000E+00 0. -1.
         21    1    1    2  505  503 -0.20954085312E+02 -0.94752081530E+02 -0.30726155601E+03  0.32222149904E+03  0.00000000000E+00 0. -1.
         21    1    1    2  506  505 -0.14021850538E+02 -0.44922069976E+02 -0.33281270434E+03  0.33612334170E+03  0.00000000000E+00 0. -1.
<scales pt_clust_3="174.02986" pt_clust_4="113.34764" pt_clust_5="38.08298" pt_clust_6="38.08298"></scales>
<clustering>
<clus scale="   38.083">  5  6 -1 -1</clus>
<clus scale="  113.348">  2  4  1 -1</clus>
<clus scale="  174.030">  1  3  2 -1</clus>
<clus scale="  174.030">  1  3  2 -1</clus>
</clustering>
</event>
<event>
 6    0  0.1704145E+002  0.3818858E+03  0.7546771E-02  0.1050239E+00
         21   -1    0    0  503  501  0.00000000000E+00  0.00000000000E+00  0.46298231098E+03  0.46298231098E+03  0.00000000000E+00 0. -1.
         21   -1    0    0  505  502 -0.00000000000E+00 -0.00000000000E+00 -0.76414522239E+03  0.76414522239E+03  0.00000000000E+00 0. -1.
         21    1    1    2  503  506  0.10106773726E+02 -0.39420616485E+02  0.52974670077E+01  0.41038945356E+02  0.00000000000E+00 0.  1.
         21    1    1    2  504  502  0.38047634068E+03 -0.72683479581E+02 -0.54214512735E+03  0.66630809175E+03  0.00000000000E+00 0. -1.
         21    1    1    2  505  501 -0.65983474668E+02 -0.55530612963E+02  0.23104682193E+01  0.86271699698E+02  0.00000000000E+00 0. -1.
         21    1    1    2  506  504 -0.32459963974E+03  0.16763470903E+03  0.23337428072E+03  0.43350879656E+03  0.00000000000E+00 0. -1.
<scales pt_clust_3="40.69560" pt_clust_4="381.88582" pt_clust_5="88.09564" pt_clust_6="14000.00000"></scales>
<clustering>
<clus scale="   40.696">  1  3  2 -1</clus>
<clus scale="   88.096">  1  5  2 -1</clus>
<clus scale="  381.886">  2  4  1 -1</clus>
<clus scale="   40.696">  1  3  2 -1</clus>
</clustering>
</event>
<event>
 6    0  0.1704145E+002  0.1423677E+03  0.7546771E-02  0.1210178E+00
         21   -1    0    0  502  501  0.00000000000E+00  0.00000000000E+00  0.75098788886E+02  0.75098788886E+02  0.00000000000E+00 0.  1.
         21   -1    0    0  504  502 -0.00000000000E+00 -0.00000000000E+00 -0.69011314847E+03  0.69011314847E+03  0.00000000000E+00 0.  1.
         21    1    1    2  503  506 -0.26898912892E+02 -0.88868335922E+02 -0.19714003481E+03  0.21791128004E+03  0.00000000000E+00 0.  1.
         21    1    1    2  504  505  0.10078867788E+02  0.28436501785E+02 -0.15737207348E+03  0.16023790975E+03  0.00000000000E+00 0.  1.
         21    1    1    2  505  503 -0.35980285446E+02 -0.60089386666E+02 -0.24471379721E+03  0.25453910873E+03  0.00000000000E+00 0.  1.
         21    1    1    2  506  501  0.52800330550E+02  0.12052122080E+03 -0.15788454099E+02  0.13252363884E+03  0.00000000000E+00 0.  1.
<scales pt_clust_3="35.64213" pt_clust_4="30.16982" pt_clust_5="35.64213" pt_clust_6="135.78001"></scales>
<clustering>
<clus scale="   30.170">  2  4  1 -1</clus>
<clus scale="   35.642">  3  5 -1 -1</clus>
<clus scale="  135.780">  1  6  2 -1</clus>
<clus scale="  135.780">  1  3  2 -1</clus>
</clustering>
</event>
<event>
 6    0  0.1704145E+002  0.1089937E+03  0.7546771E-02  0.1262445E+00
         21   -1    0    0  506  501  0.00000000000E+00  0.00000000000E+00  0.64371012488E+02  0.64371012488E+02  0.00000000000E+00 0. -1.
         21   -1    0    0  504  502 -0.00000000000E+00 -0.00000000000E+00 -0.83925924299E+03  0.83925924299E+03  0.00000000000E+00 0. -1.
         21    1    1    2  503  505  0.29584002742E+02  0.80519033098E+02 -0.23609681234E+03  0.25119759694E+03  0.00000000000E+00 0. -1.
         21    1    1    2  504  503  0.35603294492E+02  0.64679275392E+01 -0.82260904378E+02  0.89868153728E+02  0.00000000000E+00 0. -1.
         21    1    1    2  505  501 -0.19583769326E+02  0.95970235690E+02 -0.40863249683E+02  0.10613018107E+03  0.00000000000E+00 0. -1.
         21    1    1    2  506  502 -0.45603527909E+02 -0.18295719633E+03 -0.41566726410E+03  0.45643432374E+03  0.00000000000E+00 0. -1.
<scales pt_clust_3="92.27097" pt_clust_4="36.18603" pt_clust_5="108.99372" pt_clust_6="14000.00000"></scales>
<clustering>
<clus scale="   36.186">  2  4  1 -1</clus>
<clus scale="   92.271">  2  3  1 -1</clus>
<clus scale="  108.994">  1  5  2 -1</clus>
<clus scale="  108.994">  1  3  2 -1</clus>
</clustering>
</event>
<event>
 6    0  0.1704145E+002  0.5769314E+02  0.7546771E-02  0.1407776E+00
         21   -1    0    0  503  501  0.00000000000E+00  0.00000000000E+00  0.12105072901E+04  0.12105072901E+04  0.00000000000E+00 0. -1.
         21   -1    0    0  505  502 -0.00000000000E+00 -0.00000000000E+00 -0.65064987898E+02  0.65064987898E+02  0.00000000000E+00 0. -1.
         21    1    1    2  503  504 -0.61239045474E+02 -0.21406855486E+02  0.16776154917E+03  0.17986776124E+03  0.00000000000E+00 0. -1.
         21    1    1    2  504  502 -0.31060864484E+02  0.41405804994E+02  0.10024050285E+02  0.52722856275E+02  0.00000000000E+00 0. -1.
         21    1    1    2  505  506  0.65649884474E+02 -0.72647849055E+02  0.28509486173E+02  0.10198239115E+03  0.00000000000E+00 0. -1.
         21    1    1    2  506  501  0.26650025484E+02  0.52648899546E+02  0.93914721652E+03  0.94099926928E+03  0.00000000000E+00 0. -1.
<scales pt_clust_3="57.69314" pt_clust_4="51.76116" pt_clust_5="54.74338" pt_clust_6="14000.00000"></scales>
<clustering>
<clus scale="   51.761">  2  4  1 -1</clus>
<clus scale="   54.743">  2  5  1 -1</clus>
<clus scale="   57.693">  2  3  1 -1</clus>
<clus scale="   57.693">  1  3  2 -1</clus>
</clustering>
</event>
<event>
 6    0  0.1704145E+002  0.1788946E+03  0.7546771E-02  0.1168877E+00
         21   -1    0    0  502  501  0.00000000000E+00  0.00000000000E+00  0.82185133236E+02  0.82185133236E+02  0.00000000000E+00 0. -1.
         21   -1    0    0  505  502 -0.00000000000E+00 -0.00000000000E+00 -0.92546418875E+03  0.92546418875E+03  0.00000000000E+00 0.  1.
         21    1    1    2  503  501  0.17133777078E+03  0.59715804632E+02 -0.58396384436E+02  0.19061150735E+03  0.00000000000E+00 0. -1.
         21    1    1    2  504  503 -0.87190518395E+02 -0.18794222773E+02 -0.16046989480E+03  0.18359192914E+03  0.00000000000E+00 0.  1.
         21    1    1    2  505  506 -0.35450547246E+02 -0.17106277135E+02 -0.42426699302E+03  0.42608901345E+03  0.00000000000E+00 0.  1.
         21    1    1    2  506  504 -0.48696705136E+02 -0.23815304724E+02 -0.20014578325E+03  0.20735687204E+03  0.00000000000E+00 0. -1.
<scales pt_clust_3="171.71751" pt_clust_4="39.10714" pt_clust_5="39.36199" pt_clust_6="39.10714"></scales>
<clustering>
<clus scale="   39.107">  4  6 -1 -1</clus>
<clus scale="   39.362">  2  5  1 -1</clus>
<clus scale="  171.718">  1  3  2 -1</clus>
<clus scale="  171.718">  1  3  2 -1</clus>
</clustering>
</event>
<event>
 6    0  0.1704145E+002  0.2389167E+03  0.7546771E-02  0.1120517E+00
         21   -1    0    0  502  501  0.00000000000E+00  0.00000000000E+00  0.13821166281E+04  0.13821166281E+04  0.00000000000E+00 0. -1.
         21   -1    0    0  505  502 -0.00000000000E+00 -0.00000000000E+00 -0.37449653103E+03  0.37449653103E+03  0.00000000000E+00 0.  1.
         21    1    1    2  503  501  0.31813501538E+02 -0.36864974505E+01  0.88455562171E+03  0.88513520834E+03  0.00000000000E+00 0. -1.
         21    1    1    2  504  503 -0.25316846780E+03 -0.58393865142E+02  0.41877148997E+03  0.49282215595E+03  0.00000000000E+00 0. -1.
         21    1    1    2  505  506  0.74674113040E+02  0.47606594551E+02 -0.98554310235E+02  0.13249740778E+03  0.00000000000E+00 0.  1.
         21    1    1    2  506  504  0.14668085323E+03  0.14473768041E+02 -0.19715270440E+03  0.24615838705E+03  0.00000000000E+00 0.  1.
<scales pt_clust_3="32.02638" pt_clust_4="232.36959" pt_clust_5="43.03876" pt_clust_6="43.03876"></scales>
<clustering>
<clus scale="   32.026">  1  3  2 -1</clus>
<clus scale="   43.039">  5  6 -1 -1</clus>
<clus scale="  232.370">  1  4  2 -1</clus>
<clus scale="   32.026">  1  3  2 -1</clus>
</clustering>
</event>
<event>
 6    0  0.1704145E+002  0.1897168E+03  0.7546771E-02  0.1158717E+00
         21   -1    0    0  505  501  0.00000000000E+00  0.00000000000E+00  0.17819636175E+04  0.17819636175E+04  0.00000000000E+00 0.  1.
         21   -1    0    0  504  502 -0.00000000000E+00 -0.00000000000E+00 -0.33830500187E+03  0.33830500187E+03  0.00000000000E+00 0. -1.
         21    1    1    2  503  501  0.73436625572E+02 -0.98862101020E+02  0.15320471752E+04  0.15369890045E+04  0.00000000000E+00 0.  1.
         21    1    1    2  504  503  0.36405638137E+02  0.19668649466E+02 -0.58413514325E+02  0.71584669558E+02  0.00000000000E+00 0. -1.
         21    1    1    2  505  506  0.30609508520E+02  0.23490462252E+03  0.10834113606E+03  0.26048977994E+03  0.00000000000E+00 0. -1.
         21    1    1    2  506  502 -0.14045177223E+03 -0.15571117096E+03 -0.13831618130E+03  0.25120516534E+03  0.00000000000E+00 0. -1.
<scales pt_clust_3="123.20704" pt_clust_4="41.37906" pt_clust_5="14000.00000" pt_clust_6="189.71675"></scales>
<clustering>
<clus scale="   41.379">  2  4  1 -1</clus>
<clus scale="  123.207">  1  3  2 -1</clus>
<clus scale="  189.717">  2  6  1 -1</clus>
<clus scale="  123.207">  1  3  2 -1</clus>
</clustering>
</event>
<event>
 6    0  0.1704145E+002  0.2052057E+03  0.7546771E-02  0.1145420E+00
         21   -1    0    0  503  501  0.00000000000E+00  0.00000000000E+00  0.13962250423E+03  0.13962250423E+03  0.00000000000E+00 0. -1.
         21   -1    0    0  504  502 -0.00000000000E+00 -0.00000000000E+00 -0.10623820564E+04  0.10623820564E+04  0.00000000000E+00 0.  1.
         21    1    1    2  503  505 -0.86342528597E+01 -0.36483696730E+02 -0.34619603984E+02  0.51030651863E+02  0.00000000000E+00 0. -1.
         21    1    1    2  504  501 -0.30674906234E+02  0.22265134917E+03 -0.38481308279E+03  0.44564075425E+03  0.00000000000E+00 0. -1.
         21    1    1    2  505  506 -0.11786586035E+03 -0.42341070881E+02  0.31919575658E+02  0.12924390365E+03  0.00000000000E+00 0. -1.
         21    1    1    2  506  502  0.15717501945E+03 -0.14382658156E+03 -0.53524644104E+03  0.57608925085E+03  0.00000000000E+00 0.  1.
<scales pt_clust_3="37.49147" pt_clust_4="14000.00000" pt_clust_5="139.12610" pt_clust_6="205.20565"></scales>
<clustering>
<clus scale="   37.491">  1  3  2 -1</clus>
<clus scale="  139.126">  1  5  2 -1</clus>
<clus scale="  205.206">  2  6  1 -1</clus>
<clus scale="   37.491">  1  3  2 -1</clus>
</clustering>
</event>
<event>
 6    0  0.1704145E+002  0.1019587E+03  0.7546771E-02  0.1276230E+00
         21   -1    0    0  506  501  0.00000000000E+00  0.00000000000E+00  0.11459104474E+03  0.11459104474E+03  0.00000000000E+00 0.  1.
         21   -1    0    0  505  502 -0.00000000000E+00 -0.00000000000E+00 -0.13005497645E+04  0.13005497645E+04  0.00000000000E+00 0. -1.
         21    1    1    2  503  504  0.46746349677E+02  0.62567697429E+02 -0.32697104993E+03  0.33616960818E+03  0.00000000000E+00 0. -1.
         21    1    1    2  504  501  0.61836063977E+02  0.57451101316E+01 -0.39726452628E+03  0.40208930468E+03  0.00000000000E+00 0. -1.
         21    1    1    2  505  503 -0.49601559115E+02 -0.44034884111E+02 -0.55770759884E+03  0.56163791849E+03  0.00000000000E+00 0. -1.
         21    1    1    2  506  502 -0.58980854539E+02 -0.24277923450E+02  0.95984455325E+02  0.11524397786E+03  0.00000000000E+00 0.  1.
<scales pt_clust_3="56.76388" pt_clust_4="56.76388" pt_clust_5="79.64489" pt_clust_6="63.78212"></scales>
<clustering>
<clus scale="   56.764">  3  4 -1 -1</clus>
<clus scale="   63.782">  1  6  2 -1</clus>
<clus scale="   79.645">  2  5  1 -1</clus>
<clus scale="   63.782">  1  3  2 -1</clus>
</clustering>
</event>
<event>
 6    0  0.1704145E+002  0.1222479E+03  0.7546771E-02  0.1239434E+00
         21   -1    0    0  505  501  0.00000000000E+00  0.00000000000E+00  0.27019548741E+03  0.27019548741E+03  0.00000000000E+00 0.  1.
         21   -1    0    0  504  502 -0.00000000000E+00 -0.00000000000E+00 -0.19083522489E+03  0.19083522489E+03  0.00000000000E+00 0.  1.
         21    1    1    2  503  506  0.39347169617E+02  0.28996923139E+01 -0.16476217284E+02  0.42755978627E+02  0.00000000000E+00 0.  1.
         21    1    1    2  504  501 -0.11384528337E+03 -0.61218993057E+02  0.20279201822E+03  0.24048516858E+03  0.00000000000E+00 0.  1.
         21    1    1    2  505  503  0.49188641418E+01  0.39002847774E+02  0.97935970390E+01  0.40513354612E+02  0.00000000000E+00 0.  1.
         21    1    1    2  506  502  0.69579249608E+02  0.19316452969E+02 -0.11674913546E+03  0.13727621047E+03  0.00000000000E+00 0.  1.
<scales pt_clust_3="35.48067" pt_clust_4="112.42988" pt_clust_5="39.31180" pt_clust_6="35.48067"></scales>
<clustering>
<clus scale="   35.481">  3  6 -1 -1</clus>
<clus scale="   39.312">  1  5  2 -1</clus>
<clus scale="  112.430">  1  4  2 -1</clus>
<clus scale="   39.312">  1  3  2 -1</clus>
</clustering>
</event>
<event>
 6    0  0.1704145E+002  0.9951456E+02  0.7546771E-02  0.1281320E+00
         21   -1    0    0  506  501  0.00000000000E+00  0.00000000000E+00  0.17765013875E+03  0.17765013875E+03  0.00000000000E+00 0.  1.
         21   -1    0    0  503  502 -0.00000000000E+00 -0.00000000000E+00 -0.35781375364E+03  0.35781375364E+03  0.00000000000E+00 0.  1.
         21    1    1    2  503  504 -0.80206270829E+02 -0.44750437003E+02 -0.13696291441E+03  0.16490751170E+03  0.00000000000E+00 0.  1.
         21    1    1    2  504  501 -0.35144308407E+02  0.66354201978E+02  0.12493064004E+03  0.14575893576E+03  0.00000000000E+00 0.  1.
         21    1    1    2  505  502  0.47765007678E+01 -0.37148483019E+02 -0.38692841882E+02  0.53851283765E+02  0.00000000000E+00 0. -1.
         21    1    1    2  506  505  0.11057407847E+03  0.15544718045E+02 -0.12943849864E+03  0.17094616117E+03  0.00000000000E+00 0.  1.
<scales pt_clust_3="14000.00000" pt_clust_4="73.91584" pt_clust_5="37.45430" pt_clust_6="99.51456"></scales>
<clustering>
<clus scale="   37.454">  2  5  1 -1</clus>
<clus scale="   73.916">  1  4  2 -1</clus>
<clus scale="   99.515">  1  6  2 -1</clus>
<clus scale="   73.916">  1  3  2 -1</clus>
</clustering>
</event>
<event>
 6    0  0.1704145E+002  0.1210134E+03  0.7546771E-02  0.1241435E+00
         21   -1    0    0  505  501  0.00000000000E+00  0.00000000000E+00  0.12019039980E+04  0.12019039980E+04  0.00000000000E+00 0. -1.
         21   -1    0    0  501  502 -0.00000000000E+00 -0.00000000000E+00 -0.55718067658E+02  0.55718067658E+02  0.00000000000E+00 0.  1.
         21    1    1    2  503  502 -0.98428281551E+02  0.76041732049E+02  0.50078672527E+02  0.13408335118E+03  0.00000000000E+00 0.  1.
         21    1    1    2  504  503  0.46315215668E+02 -0.15070658964E+02  0.86990795168E+02  0.99697654977E+02  0.00000000000E+00 0.  1.
         21    1    1    2  505  506  0.39492704411E+02 -0.12843261725E+02  0.92628112902E+03  0.92721160101E+03  0.00000000000E+00 0. -1.
         21    1    1    2  506  504  0.12620361472E+02 -0.48127811359E+02  0.82835333619E+02  0.96629458477E+02  0.00000000000E+00 0.  1.
<scales pt_clust_3="111.39242" pt_clust_4="45.52352" pt_clust_5="41.52858" pt_clust_6="45.52352"></scales>
<clustering>
<clus scale="   41.529">  1  5  2 -1</clus>
<clus scale="   45.524">  4  6 -1 -1</clus>
<clus scale="  111.392">  2  3  1 -1</clus>
<clus scale="   41.529">  1  3  2 -1</clus>
</clustering>
</event>
<event>
 6    0  0.1704145E+002  0.8682507E+02  0.7546771E-02  0.1310728E+00
         21   -1    0    0  505  501  0.00000000000E+00  0.00000000000E+00  0.26353009374E+03  0.26353009374E+03  0.00000000000E+00 0.  1.
         21   -1    0    0  501  502 -0.00000000000E+00 -0.00000000000E+00 -0.62295998441E+03  0.62295998441E+03  0.00000000000E+00 0.  1.
         21    1    1    2  503  506  0.57683613370E+02 -0.67967170994E+02 -0.92132699007E+02  0.12820050628E+03  0.00000000000E+00 0.  1.
         21    1    1    2  504  502  0.28724341848E+02 -0.15951552393E+02 -0.33383784513E+03  0.33545081112E+03  0.00000000000E+00 0.  1.
         21    1    1    2  505  503 -0.85815924640E+02  0.19035970177E+02  0.23040085853E+03  0.24659946613E+03  0.00000000000E+00 0.  1.
         21    1    1    2  506  504 -0.59203057804E+00  0.64882753209E+02 -0.16386020506E+03  0.17623929462E+03  0.00000000000E+00 0. -1.
<scales pt_clust_3="14000.00000" pt_clust_4="32.85635" pt_clust_5="86.82507" pt_clust_6="57.83363"></scales>
<clustering>
<clus scale="   32.856">  2  4  1 -1</clus>
<clus scale="   57.834">  2  6  1 -1</clus>
<clus scale="   86.825">  1  5  2 -1</clus>
<clus scale="   86.825">  1  3  2 -1</clus>
</clustering>
</event>
<event>
 6    0  0.1704145E+002  0.1459859E+03  0.7546771E-02  0.1205494E+00
         21   -1    0    0  506  501  0.00000000000E+00  0.00000000000E+00  0.38368243894E+03  0.38368243894E+03  0.00000000000E+00 0. -1.
         21   -1    0    0  505  502 -0.00000000000E+00 -0.00000000000E+00 -0.29685468458E+03  0.29685468458E+03  0.00000000000E+00 0. -1.
         21    1    1    2  503  502  0.69606825290E+02 -0.86131374184E+01 -0.10590825780E+03  0.12702698664E+03  0.00000000000E+00 0. -1.
         21    1    1    2  504  503 -0.88316038436E+02 -0.10363704766E+03 -0.30561942551E+02  0.13955068121E+03  0.00000000000E+00 0. -1.
         21    1    1    2  505  501  0.42656632900E+02  0.19136884534E+03  0.23167964874E+02  0.19742942509E+03  0.00000000000E+00 0. -1.
         21    1    1    2  506  504 -0.23947419755E+02 -0.79118660255E+02  0.20012998984E+03  0.21653003058E+03  0.00000000000E+00 0. -1.
<scales pt_clust_3="70.13770" pt_clust_4="145.98594" pt_clust_5="14000.00000" pt_clust_6="82.18159"></scales>
<clustering>
<clus scale="   70.138">  2  3  1 -1</clus>
<clus scale="   82.182">  1  6  2 -1</clus>
<clus scale="  145.986">  2  4  1 -1</clus>
<clus scale="   82.182">  1  3  2 -1</clus>
</clustering>
</event>
<event>
 6    0  0.2434957E+002  0.1172536E+03  0.7546771E-02  0.1247698E+00
         21   -1    0    0  504  501  0.00000000000E+00  0.00000000000E+00  0.22837624216E+04  0.22837624216E+04  0.00000000000E+00 0. -1.
         21   -1    0    0  506  502 -0.00000000000E+00 -0.00000000000E+00 -0.69361601720E+02  0.69361601720E+02  0.00000000000E+00 0.  1.
         21    1    1    2  503  502  0.63307741559E+02  0.81210108436E+02 -0.13665266162E+02  0.10387343911E+03  0.00000000000E+00 0.  1.
         21    1    1    2  504  503 -0.50289538160E+02 -0.70134723044E+02  0.30107910609E+03  0.31320367998E+03  0.00000000000E+00 0.  1.
         21    1    1    2  505  501 -0.39174418749E+02 -0.31262071613E+02  0.18661005769E+04  0.18667735040E+04  0.00000000000E+00 0. -1.
         21    1    1    2  506  505  0.26156215350E+02  0.20186686221E+02  0.60886403123E+02  0.69273400287E+02  0.00000000000E+00 0. -1.
<scales pt_clust_3="14000.00000" pt_clust_4="117.25357" pt_clust_5="49.94882" pt_clust_6="33.04013"></scales>
<clustering>
<clus scale="   33.040">  2  6  1 -1</clus>
<clus scale="   49.949">  1  5  2 -1</clus>
<clus scale="  117.254">  1  4  2 -1</clus>
<clus scale="   49.949">  1  3  2 -1</clus>
</clustering>
</event>
<event>
 6    0  0.1704145E+002  0.7160224E+02  0.7546771E-02  0.1354728E+00
         21   -1    0    0  504  501  0.00000000000E+00  0.00000000000E+00  0.10467256655E+03  0.10467256655E+03  0.00000000000E+00 0. -1.
         21   -1    0    0  503  502 -0.00000000000E+00 -0.00000000000E+00 -0.87513617548E+03  0.87513617548E+03  0.00000000000E+00 0.  1.
         21    1    1    2  503  506 -0.58236389091E+01  0.40029215382E+02 -0.16674257382E+03  0.17157895786E+03  0.00000000000E+00 0.  1.
         21    1    1    2  504  505 -0.62781485387E+02 -0.19597173872E+02 -0.30042993000E+03  0.30754464224E+03  0.00000000000E+00 0.  1.
         21    1    1    2  505  502  0.21124298562E+02 -0.74946484507E+02 -0.38430005213E+03  0.39210934903E+03  0.00000000000E+00 0.  1.
         21    1    1    2  506  501  0.47480825734E+02  0.54514442997E+02  0.81008947022E+02  0.10857579291E+03  0.00000000000E+00 0. -1.
<scales pt_clust_3="40.45062" pt_clust_4="14000.00000" pt_clust_5="55.88664" pt_clust_6="71.60224"></scales>
<clustering>
<clus scale="   40.451">  2  3  1 -1</clus>
<clus scale="   55.887">  2  5  1 -1</clus>
<clus scale="   71.602">  1  6  2 -1</clus>
<clus scale="   71.602">  1  3  2 -1</clus>
</clustering>
</event>
<event>
 6    0  0.1704145E+002  0.1194980E+03  0.7546771E-02  0.1243927E+00
         21   -1    0    0  505  501  0.00000000000E+00  0.00000000000E+00  0.25020508437E+03  0.25020508437E+03  0.00000000000E+00 0.  1.
         21   -1    0    0  504  502 -0.00000000000E+00 -0.00000000000E+00 -0.23797372575E+03  0.23797372575E+03  0.00000000000E+00 0.  1.
         21    1    1    2  503  506  0.32035099861E+02  0.20643589136E+02 -0.30967390500E+02  0.49105851687E+02  0.00000000000E+00 0. -1.
         21    1    1    2  504  503  0.69599505479E+02  0.18463150499E+02 -0.15067389457E+03  0.16699581310E+03  0.00000000000E+00 0.  1.
         21    1    1    2  505  502 -0.13692316317E+03 -0.43489053212E+02  0.18707521214E+03  0.23587366398E+03  0.00000000000E+00 0.  1.
         21    1    1    2  506  501  0.35288557830E+02  0.43823135774E+01  0.67974315538E+01  0.36203481348E+02  0.00000000000E+00 0. -1.
<scales pt_clust_3="31.26949" pt_clust_4="31.26949" pt_clust_5="111.50039" pt_clust_6="35.55963"></scales>
<clustering>
<clus scale="   31.269">  3  4 -1 -1</clus>
<clus scale="   35.560">  1  6  2 -1</clus>
<clus scale="  111.500">  1  5  2 -1</clus>
<clus scale="   35.560">  1  3  2 -1</clus>
</clustering>
</event>
<event>
 6    0  0.1704145E+002  0.1403221E+03  0.7546771E-02  0.1212896E+00
         21   -1    0    0  503  501  0.00000000000E+00  0.00000000000E+00  0.32825636741E+03  0.32825636741E+03  0.00000000000E+00 0.  1.
         21   -1    0    0  504  502 -0.00000000000E+00 -0.00000000000E+00 -0.11641185554E+04  0.11641185554E+04  0.00000000000E+00 0. -1.
         21    1    1    2  503  506 -0.11210850695E+02 -0.36030093454E+02  0.27564371120E+03  0.27821449699E+03  0.00000000000E+00 0.  1.
         21    1    1    2  504  501 -0.97005173251E+02  0.93456554374E+02 -0.29801236154E+03  0.32704051556E+03  0.00000000000E+00 0. -1.
         21    1    1    2  505  502  0.16160844774E+03  0.13191463453E+02 -0.77290250226E+03  0.78972753725E+03  0.00000000000E+00 0. -1.
         21    1    1    2  506  505 -0.53392423796E+02 -0.70617924373E+02 -0.40591035375E+02  0.97392372978E+02  0.00000000000E+00 0. -1.
<scales pt_clust_3="37.73395" pt_clust_4="14000.00000" pt_clust_5="140.32210" pt_clust_6="108.40536"></scales>
<clustering>
<clus scale="   37.734">  1  3  2 -1</clus>
<clus scale="  108.405">  1  6  2 -1</clus>
<clus scale="  140.322">  2  5  1 -1</clus>
<clus scale="   37.734">  1  3  2 -1</clus>
</clustering>
</event>
<event>
 6    0  0.1704145E+002  0.1354248E+03  0.7546771E-02  0.1219621E+00
         21   -1    0    0  503  501  0.00000000000E+00  0.00000000000E+00  0.98480574457E+03  0.98480574457E+03  0.00000000000E+00 0.  1.
         21   -1    0    0  506  502 -0.00000000000E+00 -0.00000000000E+00 -0.38113260391E+02  0.38113260391E+02  0.00000000000E+00 0.  1.
         21    1    1    2  503  502 -0.60762907161E+02  0.11545270907E+03  0.62498833114E+03  0.63846054928E+03  0.00000000000E+00 0.  1.
         21    1    1    2  504  505 -0.14736510070E+02 -0.30108631373E+02  0.13099593371E+03  0.13521697032E+03  0.00000000000E+00 0.  1.
         21    1    1    2  505  501  0.16640796393E+02 -0.88913910263E+02  0.15733603572E+03  0.18148616388E+03  0.00000000000E+00 0.  1.
         21    1    1    2  506  504  0.58858620839E+02  0.35698325690E+01  0.33372183598E+02  0.67755321486E+02  0.00000000000E+00 0.  1.
<scales pt_clust_3="123.87218" pt_clust_4="33.31794" pt_clust_5="33.31794" pt_clust_6="58.96678"></scales>
<clustering>
<clus scale="   33.318">  4  5 -1 -1</clus>
<clus scale="   58.967">  2  6  1 -1</clus>
<clus scale="  123.872">  1  3  2 -1</clus>
<clus scale="  123.872">  1  3  2 -1</clus>
</clustering>
</event>
<event>
 6    0  0.1704145E+002  0.8047844E+02  0.7546771E-02  0.1327699E+00
         21   -1    0    0  504  501  0.00000000000E+00  0.00000000000E+00  0.44549665887E+03  0.44549665887E+03  0.00000000000E+00 0. -1.
         21   -1    0    0  503  502 -0.00000000000E+00 -0.00000000000E+00 -0.64099523077E+02  0.64099523077E+02  0.00000000000E+00 0. -1.
         21    1    1    2  503  501 -0.79882118600E+02  0.47339717120E+02  0.28991245729E+03  0.30441983277E+03  0.00000000000E+00 0. -1.
         21    1    1    2  504  506 -0.67459379238E+01 -0.47213224599E+02  0.57336387575E+02  0.74579203506E+02  0.00000000000E+00 0. -1.
         21    1    1    2  505  502  0.25834139860E+02  0.43175597507E+02  0.53610550085E+01  0.50599169096E+02  0.00000000000E+00 0. -1.
         21    1    1    2  506  505  0.60793916664E+02 -0.43302090028E+02  0.28787235914E+02  0.79997976572E+02  0.00000000000E+00 0. -1.
<scales pt_clust_3="80.47844" pt_clust_4="47.69273" pt_clust_5="47.09188" pt_clust_6="14000.00000"></scales>
<clustering>
<clus scale="   47.693">  1  4  2 -1</clus>
<clus scale="   47.092">  2  5  1 -1</clus>
<clus scale="   80.478">  1  3  2 -1</clus>
<clus scale="   47.693">  1  3  2 -1</clus>
</clustering>
</event>
<event>
 6    0  0.1704145E+002  0.1375190E+03  0.7546771E-02  0.1216707E+00
         21   -1    0    0  503  501  0.00000000000E+00  0.00000000000E+00  0.31983601771E+03  0.31983601771E+03  0.00000000000E+00 0.  1.
         21   -1    0    0  504  502 -0.00000000000E+00 -0.00000000000E+00 -0.14720340802E+04  0.14720340802E+04  0.00000000000E+00 0.  1.
         21    1    1    2  503  505 -0.19734842782E+02 -0.13606953463E+03  0.29096927083E+03  0.32181904673E+03  0.00000000000E+00 0.  1.
         21    1    1    2  504  501  0.95230735768E+02  0.12579905387E+03 -0.66116276268E+03  0.67972824993E+03  0.00000000000E+00 0.  1.
         21    1    1    2  505  506 -0.56308504999E+02  0.42021844547E+02 -0.62775661207E+03  0.63167622019E+03  0.00000000000E+00 0.  1.
         21    1    1    2  506  502 -0.19187387987E+02 -0.31751363792E+02 -0.15424795861E+03  0.15864658111E+03  0.00000000000E+00 0. -1.
<scales pt_clust_3="137.51900" pt_clust_4="14000.00000" pt_clust_5="70.77295" pt_clust_6="37.09858"></scales>
<clustering>
<clus scale="   37.099">  2  6  1 -1</clus>
<clus scale="   70.773">  2  5  1 -1</clus>
<clus scale="  137.519">  1  3  2 -1</clus>
<clus scale="  137.519">  1  3  2 -1</clus>
</clustering>
</event>
<event>
 6    0  0.1704145E+002  0.1562097E+03  0.7546771E-02  0.1193044E+00
         21   -1    0    0  504  501  0.00000000000E+00  0.00000000000E+00  0.64020091063E+03  0.64020091063E+03  0.00000000000E+00 0.  1.
         21   -1    0    0  505  502 -0.00000000000E+00 -0.00000000000E+00 -0.18926446170E+03  0.18926446170E+03  0.00000000000E+00 0. -1.
         21    1    1    2  503  502  0.57958124304E+01 -0.30081458832E+02  0.12619893550E+02  0.33132270076E+02  0.00000000000E+00 0. -1.
         21    1    1    2  504  503  0.26099847054E+02  0.20143296920E+03  0.13172562013E+03  0.24209106158E+03  0.00000000000E+00 0.  1.
         21    1    1    2  505  506 -0.31725823535E+02 -0.11992144113E+03 -0.90679146969E+02  0.15365672005E+03  0.00000000000E+00 0. -1.
         21    1    1    2  506  501 -0.16983594947E+00 -0.51430069240E+02  0.39727008222E+03  0.40058532061E+03  0.00000000000E+00 0.  1.
<scales pt_clust_3="30.63471" pt_clust_4="14000.00000" pt_clust_5="156.20966" pt_clust_6="51.70875"></scales>
<clustering>
<clus scale="   30.635">  2  3  1 -1</clus>
<clus scale="   51.709">  1  6  2 -1</clus>
<clus scale="  156.210">  2  5  1 -1</clus>
<clus scale="   51.709">  1  3  2 -1</clus>
</clustering>
</event>
<event>
 6    0  0.1704145E+002  0.8469629E+02  0.7546771E-02  0.1316229E+00
         21   -1    0    0  504  501  0.00000000000E+00  0.00000000000E+00  0.20403578547E+03  0.20403578547E+03  0.00000000000E+00 0. -1.
         21   -1    0    0  505  502 -0.00000000000E+00 -0.00000000000E+00 -0.11979619602E+04  0.11979619602E+04  0.00000000000E+00 0.  1.
         21    1    1    2  503  506  0.36439948668E+02 -0.55290377976E+02 -0.10787873587E+03  0.12658087300E+03  0.00000000000E+00 0.  1.
         21    1    1    2  504  503 -0.55486778667E+02 -0.33683949994E+02  0.18281059935E+03  0.19399254194E+03  0.00000000000E+00 0. -1.
         21    1    1    2  505  501  0.22350952288E+01  0.12321324812E+03 -0.71797848914E+03  0.72847759817E+03  0.00000000000E+00 0.  1.
         21    1    1    2  506  502  0.16811734770E+02 -0.34238920150E+02 -0.35087954902E+03  0.35294673252E+03  0.00000000000E+00 0.  1.
<scales pt_clust_3="14000.00000" pt_clust_4="64.93357" pt_clust_5="84.69629" pt_clust_6="38.14365"></scales>
<clustering>
<clus scale="   38.144">  2  6  1 -1</clus>
<clus scale="   64.934">  1  4  2 -1</clus>
<clus scale="   84.696">  2  5  1 -1</clus>
<clus scale="   64.934">  1  3  2 -1</clus>
</clustering>
</event>
<event>
 6    0  0.1704145E+002  0.8825072E+02  0.7546771E-02  0.1307144E+00
         21   -1    0    0  504  501  0.00000000000E+00  0.00000000000E+00  0.18371472942E+02  0.18371472942E+02  0.00000000000E+00 0. -1.
         21   -1    0    0  501  502 -0.00000000000E+00 -0.00000000000E+00 -0.16473603051E+04  0.16473603051E+04  0.00000000000E+00 0. -1.
         21    1    1    2  503  506  0.50449383694E+02  0.98175710932E+02 -0.71767739224E+03  0.72611600303E+03  0.00000000000E+00 0. -1.
         21    1    1    2  504  505  0.29826194544E+02 -0.28885564117E+02 -0.34595905008E+02  0.54044928890E+02  0.00000000000E+00 0.  1.
         21    1    1    2  505  503 -0.77246097651E+02 -0.26964953452E+02 -0.61932778154E+03  0.62470870756E+03  0.00000000000E+00 0. -1.
         21    1    1    2  506  502 -0.30294805877E+01 -0.42325193363E+02 -0.25738775334E+03  0.26086213853E+03  0.00000000000E+00 0. -1.
<scales pt_clust_3="88.25072" pt_clust_4="41.52081" pt_clust_5="14000.00000" pt_clust_6="48.21946"></scales>
<clustering>
<clus scale="   41.521">  1  4  2 -1</clus>
<clus scale="   48.219">  2  6  1 -1</clus>
<clus scale="   88.251">  2  3  1 -1</clus>
<clus scale="   41.521">  1  3  2 -1</clus>
</clustering>
</event>
<event>
 6    0  0.1704145E+002  0.1151450E+03  0.7546771E-02  0.1251328E+00
         21   -1    0    0  506  501  0.00000000000E+00  0.00000000000E+00  0.86079306856E+03  0.86079306856E+03  0.00000000000E+00 0.  1.
         21   -1    0    0  505  502 -0.00000000000E+00 -0.00000000000E+00 -0.70874783914E+02  0.70874783914E+02  0.00000000000E+00 0. -1.
         21    1    1    2  503  501  0.50353861909E+02  0.49165967456E+01  0.58234099947E+03  0.58453462173E+03  0.00000000000E+00 0.  1.
         21    1    1    2  504  502 -0.80659753571E+02  0.27405559027E+02 -0.80023008172E+01  0.85563411164E+02  0.00000000000E+00 0. -1.
         21    1    1    2  505  503  0.39281067436E+02 -0.67618603680E+02  0.21080039048E+03  0.22483790261E+03  0.00000000000E+00 0. -1.
         21    1    1    2  506  504 -0.89751757739E+01  0.35296447908E+02  0.47791955135E+01  0.36731916977E+02  0.00000000000E+00 0. -1.
<scales pt_clust_3="50.59332" pt_clust_4="35.69202" pt_clust_5="101.38326" pt_clust_6="35.69202"></scales>
<clustering>
<clus scale="   35.692">  4  6 -1 -1</clus>
<clus scale="   50.593">  1  3  2 -1</clus>
<clus scale="  101.383">  1  5  2 -1</clus>
<clus scale="   50.593">  1  3  2 -1</clus>
</clustering>
</event>
<event>
 6    0  0.1704145E+002  0.9229155E+02  0.7546771E-02  0.1297395E+00
         21   -1    0    0  503  501  0.00000000000E+00  0.00000000000E+00  0.16689447397E+04  0.16689447397E+04  0.00000000000E+00 0.  1.
         21   -1    0    0  504  502 -0.00000000000E+00 -0.00000000000E+00 -0.83369601255E+03  0.83369601255E+03  0.00000000000E+00 0.  1.
         21    1    1    2  503  506 -0.26864431192E+02 -0.26191779640E+02  0.16481261801E+04  0.16485531876E+04  0.00000000000E+00 0.  1.
         21    1    1    2  504  501 -0.70806143192E+02 -0.52058596077E+02 -0.13748977100E+03  0.16317795338E+03  0.00000000000E+00 0.  1.
         21    1    1    2  505  502  0.65553892577E+02  0.60500308925E+01 -0.27184137624E+03  0.27969921262E+03  0.00000000000E+00 0.  1.
         21    1    1    2  506  505  0.32116681807E+02  0.72200344825E+02 -0.40354630572E+03  0.41121039858E+03  0.00000000000E+00 0.  1.
<scales pt_clust_3="37.51942" pt_clust_4="14000.00000" pt_clust_5="60.44068" pt_clust_6="92.29155"></scales>
<clustering>
<clus scale="   37.519">  1  3  2 -1</clus>
<clus scale="   60.441">  2  5  1 -1</clus>
<clus scale="   92.292">  2  6  1 -1</clus>
<clus scale="   37.519">  1  3  2 -1</clus>
</clustering>
</event>
<event>
 6    0  0.1704145E+002  0.1683265E+03  0.7546771E-02  0.1179604E+00
         21   -1    0    0  505  501  0.00000000000E+00  0.00000000000E+00  0.35899588085E+03  0.35899588085E+03  0.00000000000E+00 0.  1.
         21   -1    0    0  504  502 -0.00000000000E+00 -0.00000000000E+00 -0.27720133296E+03  0.27720133296E+03  0.00000000000E+00 0.  1.
         21    1    1    2  503  502  0.13703082583E+02 -0.47249046645E+02 -0.36845404714E+02  0.61464060472E+02  0.00000000000E+00 0. -1.
         21    1    1    2  504  506 -0.11669367960E+03  0.10235878849E+02 -0.14275664517E+03  0.18466631477E+03  0.00000000000E+00 0.  1.
         21    1    1    2  505  503 -0.51841879468E+02 -0.56573209351E+02  0.58448212600E+01  0.76956289013E+02  0.00000000000E+00 0. -1.
         21    1    1    2  506  501  0.15483247648E+03  0.93586377146E+02  0.25555177651E+03  0.31311054955E+03  0.00000000000E+00 0.  1.
<scales pt_clust_3="49.19600" pt_clust_4="14000.00000" pt_clust_5="80.98734" pt_clust_6="168.32654"></scales>
<clustering>
<clus scale="   49.196">  2  3  1 -1</clus>
<clus scale="   80.987">  2  5  1 -1</clus>
<clus scale="  168.327">  1  6  2 -1</clus>
<clus scale="  168.327">  1  3  2 -1</clus>
</clustering>
</event>
<event>
 6    0  0.1704145E+002  0.2390630E+03  0.7546771E-02  0.1120419E+00
         21   -1    0    0  506  501  0.00000000000E+00  0.00000000000E+00  0.78295629095E+03  0.78295629095E+03  0.00000000000E+00 0. -1.
         21   -1    0    0  504  502 -0.00000000000E+00 -0.00000000000E+00 -0.29638634520E+03  0.29638634520E+03  0.00000000000E+00 0. -1.
         21    1    1    2  503  501 -0.14745200475E+02 -0.40231810907E+02  0.72770922273E+02  0.84448958989E+02  0.00000000000E+00 0.  1.
         21    1    1    2  504  503 -0.57022656052E+02 -0.28067455614E+02  0.49353904125E+02  0.80468461028E+02  0.00000000000E+00 0. -1.
         21    1    1    2  505  502  0.18150114542E+03 -0.15668176448E+03 -0.19010821483E+03  0.30599505626E+03  0.00000000000E+00 0. -1.
         21    1    1    2  506  505 -0.10973328889E+03  0.22498103100E+03  0.55455333417E+03  0.60843015987E+03  0.00000000000E+00 0. -1.
<scales pt_clust_3="40.78983" pt_clust_4="110.82997" pt_clust_5="239.06302" pt_clust_6="14000.00000"></scales>
<clustering>
<clus scale="   40.790">  3  4 -1 -1</clus>
<clus scale="  110.830">  1  3  2 -1</clus>
<clus scale="  239.063">  2  5  1 -1</clus>
<clus scale="  110.830">  1  3  2 -1</clus>
</clustering>
</event>
<event>
 6    0  0.1704145E+002  0.1569092E+03  0.7546771E-02  0.1192231E+00
         21   -1    0    0  504  501  0.00000000000E+00  0.00000000000E+00  0.24757087013E+03  0.24757087013E+03  0.00000000000E+00 0. -1.
         21   -1    0    0  503  502 -0.00000000000E+00 -0.00000000000E+00 -0.43856219613E+03  0.43856219613E+03  0.00000000000E+00 0. -1.
         21    1    1    2  503  501 -0.37503747356E+02 -0.63653293026E+01  0.16998504873E+03  0.17418945225E+03  0.00000000000E+00 0. -1.
         21    1    1    2  504  505 -0.69775720074E+02 -0.19015958884E+02  0.63441904795E+01  0.72598254503E+02  0.00000000000E+00 0. -1.
         21    1    1    2  505  506 -0.52471680614E+02  0.10126598719E+02 -0.20573546678E+02  0.57263392242E+02  0.00000000000E+00 0. -1.
         21    1    1    2  506  502  0.15975114804E+03  0.15254689468E+02 -0.34674701853E+03  0.38208196727E+03  0.00000000000E+00 0. -1.
<scales pt_clust_3="38.04009" pt_clust_4="34.79170" pt_clust_5="34.79170" pt_clust_6="151.59933"></scales>
<clustering>
<clus scale="   34.792">  4  5 -1 -1</clus>
<clus scale="   38.040">  1  3  2 -1</clus>
<clus scale="  151.599">  2  6  1 -1</clus>
<clus scale="   38.040">  1  3  2 -1</clus>
</clustering>
</event>
<event>
 6    0  0.1704145E+002  0.1556812E+03  0.7546771E-02  0.1193661E+00
         21   -1    0    0  505  501  0.00000000000E+00  0.00000000000E+00  0.20741610782E+03  0.20741610782E+03  0.00000000000E+00 0. -1.
         21   -1    0    0  503  502 -0.00000000000E+00 -0.00000000000E+00 -0.12901683633E+04  0.12901683633E+04  0.00000000000E+00 0. -1.
         21    1    1    2  503  504  0.10762139603E+03  0.11472780881E+03 -0.10025221656E+04  0.10147884151E+04  0.00000000000E+00 0. -1.
         21    1    1    2  504  501  0.48200880237E+02  0.80590398803E+01  0.15415105689E+03  0.16171215575E+03  0.00000000000E+00 0. -1.
         21    1    1    2  505  506 -0.25377260358E+02 -0.41775991397E+02 -0.11143043701E+02  0.50133882988E+02  0.00000000000E+00 0.  1.
         21    1    1    2  506  502 -0.13044501590E+03 -0.81010857290E+02 -0.22323810305E+03  0.27095001721E+03  0.00000000000E+00 0. -1.
<scales pt_clust_3="155.68123" pt_clust_4="48.86996" pt_clust_5="39.12589" pt_clust_6="14000.00000"></scales>
<clustering>
<clus scale="   48.870">  1  4  2 -1</clus>
<clus scale="   39.126">  1  5  2 -1</clus>
<clus scale="  155.681">  2  3  1 -1</clus>
<clus scale="   48.870">  1  3  2 -1</clus>
</clustering>
</event>
<event>
 6    0  0.1704145E+002  0.3031765E+03  0.7546771E-02  0.1083663E+00
         21   -1    0    0  504  501  0.00000000000E+00  0.00000000000E+00  0.56039996280E+02  0.56039996280E+02  0.00000000000E+00 0.  1.
         21   -1    0    0  506  502 -0.00000000000E+00 -0.00000000000E+00 -0.21850677684E+04  0.21850677684E+04  0.00000000000E+00 0. -1.
         21    1    1    2  503  502 -0.38565386428E+02  0.17272673647E+02 -0.26208020269E+03  0.26546500132E+03  0.00000000000E+00 0. -1.
         21    1    1    2  504  505 -0.56663246547E+02 -0.46380068406E+02 -0.22823354213E+03  0.23969226940E+03  0.00000000000E+00 0.  1.
         21    1    1    2  505  503 -0.15662400118E+03 -0.14095982838E+03 -0.10758171291E+04  0.10962587497E+04  0.00000000000E+00 0. -1.
         21    1    1    2  506  501  0.25185263415E+03  0.17006722313E+03 -0.56289689819E+03  0.63969174428E+03  0.00000000000E+00 0.  1.
<scales pt_clust_3="42.25677" pt_clust_4="35.51332" pt_clust_5="35.51332" pt_clust_6="297.13075"></scales>
<clustering>
<clus scale="   35.513">  4  5 -1 -1</clus>
<clus scale="   42.257">  2  3  1 -1</clus>
<clus scale="  297.131">  1  6  2 -1</clus>
<clus scale="  297.131">  1  3  2 -1</clus>
</clustering>
</event>
<event>
 6    0  0.1704145E+002  0.7688717E+02  0.7546771E-02  0.1338125E+00
         21   -1    0    0  505  501  0.00000000000E+00  0.00000000000E+00  0.41413062786E+02  0.41413062786E+02  0.00000000000E+00 0. -1.
         21   -1    0    0  504  502 -0.00000000000E+00 -0.00000000000E+00 -0.21566158660E+04  0.21566158660E+04  0.00000000000E+00 0.  1.
         21    1    1    2  503  501  0.51906190248E+02 -0.19578657223E+02 -0.42639327021E+03  0.42998697339E+03  0.00000000000E+00 0.  1.
         21    1    1    2  504  503  0.56154557745E+02  0.44489666822E+02 -0.67066878704E+03  0.67448445995E+03  0.00000000000E+00 0.  1.
         21    1    1    2  505  506 -0.13777311879E+02 -0.31650109324E+02  0.27202673180E+02  0.43949165759E+02  0.00000000000E+00 0. -1.
         21    1    1    2  506  502 -0.94283436114E+02  0.67390997247E+01 -0.10453434191E+04  0.10496083296E+04  0.00000000000E+00 0.  1.
<scales pt_clust_3="55.96173" pt_clust_4="14000.00000" pt_clust_5="34.51874" pt_clust_6="76.88717"></scales>
<clustering>
<clus scale="   34.519">  1  5  2 -1</clus>
<clus scale="   55.962">  1  3  2 -1</clus>
<clus scale="   76.887">  1  6  2 -1</clus>
<clus scale="   34.519">  1  3  2 -1</clus>
</clustering>
</event>
<event>
 6    0  0.1704145E+002  0.1039571E+03  0.7546771E-02  0.1272188E+00
         21   -1    0    0  502  501  0.00000000000E+00  0.00000000000E+00  0.35109223042E+03  0.35109223042E+03  0.00000000000E+00 0.  1.
         21   -1    0    0  505  502 -0.00000000000E+00 -0.00000000000E+00 -0.17737688265E+03  0.17737688265E+03  0.00000000000E+00 0. -1.
         21    1    1    2  503  501 -0.95301920530E+02  0.46779502102E+02  0.29866989851E+03  0.31697710667E+03  0.00000000000E+00 0.  1.
         21    1    1    2  504  503  0.53519260066E+02 -0.80295808055E+02 -0.51400151928E+02  0.10933299414E+03  0.00000000000E+00 0. -1.
         21    1    1    2  505  506  0.31358372888E+02 -0.28515478925E+01 -0.44225409329E+02  0.54289646396E+02  0.00000000000E+00 0. -1.
         21    1    1    2  506  504  0.10424287576E+02  0.36367853846E+02 -0.29328989483E+02  0.47869365871E+02  0.00000000000E+00 0. -1.
<scales pt_clust_3="14000.00000" pt_clust_4="103.95713" pt_clust_5="31.48776" pt_clust_6="40.69102"></scales>
<clustering>
<clus scale="   31.488">  2  5  1 -1</clus>
<clus scale="   40.691">  2  6  1 -1</clus>
<clus scale="  103.957">  2  4  1 -1</clus>
<clus scale="  103.957">  1  3  2 -1</clus>
</clustering>
</event>
<event>
 6    0  0.1704145E+002  0.8575973E+02  0.7546771E-02  0.1313458E+00
         21   -1    0    0  505  501  0.00000000000E+00  0.00000000000E+00  0.81609702812E+03  0.81609702812E+03  0.00000000000E+00 0.  1.
         21   -1    0    0  504  502 -0.00000000000E+00 -0.00000000000E+00 -0.40896714220E+02  0.40896714220E+02  0.00000000000E+00 0.  1.
         21    1    1    2  503  501  0.20026888805E+02  0.27434068580E+02  0.97544803515E+02  0.10328936580E+03  0.00000000000E+00 0.  1.
         21    1    1    2  504  503  0.88634126859E+02 -0.67264310717E+02  0.10918868455E+03  0.15589311971E+03  0.00000000000E+00 0.  1.
         21    1    1    2  505  506 -0.55465506580E+02 -0.33858678825E+01  0.49198533860E+03  0.49511358284E+03  0.00000000000E+00 0.  1.
         21    1    1    2  506  502 -0.53195509084E+02  0.43216110019E+02  0.76481487242E+02  0.10269767399E+03  0.00000000000E+00 0.  1.
<scales pt_clust_3="33.96622" pt_clust_4="85.75973" pt_clust_5="44.45651" pt_clust_6="14000.00000"></scales>
<clustering>
<clus scale="   33.966">  1  3  2 -1</clus>
<clus scale="   44.457">  1  5  2 -1</clus>
<clus scale="   85.760">  1  4  2 -1</clus>
<clus scale="   33.966">  1  3  2 -1</clus>
</clustering>
</event>
<event>
 6    0  0.1704145E+002  0.5683206E+02  0.7546771E-02  0.1411628E+00
         21   -1    0    0  502  501  0.00000000000E+00  0.00000000000E+00  0.19766984290E+03  0.19766984290E+03  0.00000000000E+00 0. -1.
         21   -1    0    0  505  502 -0.00000000000E+00 -0.00000000000E+00 -0.62946159074E+03  0.62946159074E+03  0.00000000000E+00 0.  1.
         21    1    1    2  503  504 -0.87463786939E+02  0.81305800043E+02 -0.43743212687E+03  0.45343953595E+03  0.00000000000E+00 0.  1.
         21    1    1    2  504  501  0.13945570557E+02 -0.54638614485E+02  0.17302116344E+03  0.18197851557E+03  0.00000000000E+00 0. -1.
         21    1    1    2  505  506  0.40038406229E+02 -0.25854643459E+01 -0.35629992694E+02  0.53658689685E+02  0.00000000000E+00 0.  1.
         21    1    1    2  506  503  0.33479810153E+02 -0.24081721212E+02 -0.13175079172E+03  0.13805469243E+03  0.00000000000E+00 0.  1.
<scales pt_clust_3="56.83206" pt_clust_4="14000.00000" pt_clust_5="40.12180" pt_clust_6="49.33192"></scales>
<clustering>
<clus scale="   40.122">  2  5  1 -1</clus>
<clus scale="   49.332">  2  6  1 -1</clus>
<clus scale="   56.832">  2  3  1 -1</clus>
<clus scale="   56.832">  1  3  2 -1</clus>
</clustering>
</event>
<event>
 6    0  0.1704145E+002  0.2283681E+03  0.7546771E-02  0.1127794E+00
         21   -1    0    0  506  501  0.00000000000E+00  0.00000000000E+00  0.12007457885E+03  0.12007457885E+03  0.00000000000E+00 0. -1.
         21   -1    0    0  503  502 -0.00000000000E+00 -0.00000000000E+00 -0.12078102965E+04  0.12078102965E+04  0.00000000000E+00 0. -1.
         21    1    1    2  503  501  0.48240081898E+02  0.71002885194E+02  0.53067218147E+02  0.10091900143E+03  0.00000000000E+00 0. -1.
         21    1    1    2  504  505  0.56340938886E+02 -0.18556424773E+02 -0.76085265264E+02  0.96475954959E+02  0.00000000000E+00 0.  1.
         21    1    1    2  505  502  0.13159714215E+03 -0.42757706200E+02 -0.48725834228E+03  0.50652415676E+03  0.00000000000E+00 0. -1.
         21    1    1    2  506  504 -0.23617816293E+03 -0.96887542207E+01 -0.57745932826E+03  0.62396576220E+03  0.00000000000E+00 0. -1.
<scales pt_clust_3="85.84006" pt_clust_4="55.45281" pt_clust_5="55.45281" pt_clust_6="212.08260"></scales>
<clustering>
<clus scale="   55.453">  4  5 -1 -1</clus>
<clus scale="   85.840">  1  3  2 -1</clus>
<clus scale="  212.083">  1  6  2 -1</clus>
<clus scale="   85.840">  1  3  2 -1</clus>
</clustering>
</event>
<event>
 6    0  0.1704145E+002  0.6876896E+02  0.7546771E-02  0.1364330E+00
         21   -1    0    0  505  501  0.00000000000E+00  0.00000000000E+00  0.38275926469E+03  0.38275926469E+03  0.00000000000E+00 0.  1.
         21   -1    0    0  503  502 -0.00000000000E+00 -0.00000000000E+00 -0.38470444210E+03  0.38470444210E+03  0.00000000000E+00 0.  1.
         21    1    1    2  503  504  0.25061388579E+02  0.89763542609E+02 -0.22656922049E+03  0.24498811901E+03  0.00000000000E+00 0.  1.
         21    1    1    2  504  501  0.26860147625E+02 -0.86245317765E+02 -0.18656436141E+02  0.92237654872E+02  0.00000000000E+00 0.  1.
         21    1    1    2  505  506 -0.43989306358E+02  0.29789313949E+02  0.33143591000E+03  0.33566683592E+03  0.00000000000E+00 0.  1.
         21    1    1    2  506  502 -0.79322298455E+01 -0.33307538793E+02 -0.88155430777E+02  0.94571096992E+02  0.00000000000E+00 0.  1.
<scales pt_clust_3="68.76896" pt_clust_4="14000.00000" pt_clust_5="53.04003" pt_clust_6="34.23905"></scales>
<clustering>
<clus scale="   34.239">  2  6  1 -1</clus>
<clus scale="   53.040">  1  5  2 -1</clus>
<clus scale="   68.769">  2  3  1 -1</clus>
<clus scale="   53.040">  1  3  2 -1</clus>
</clustering>
</event>
<event>
 6    0  0.1704145E+002  0.1145591E+03  0.7546771E-02  0.1252353E+00
         21   -1    0    0  503  501  0.00000000000E+00  0.00000000000E+00  0.18404453475E+04  0.18404453475E+04  0.00000000000E+00 0.  1.
         21   -1    0    0  504  502 -0.00000000000E+00 -0.00000000000E+00 -0.98803345475E+02  0.98803345475E+02  0.00000000000E+00 0. -1.
         21    1    1    2  503  506  0.59586786435E+02  0.42349334882E+02  0.41642489714E+01  0.73221528611E+02  0.00000000000E+00 0. -1.
         21    1    1    2  504  505 -0.10265039541E+03  0.11575297682E+02  0.12389473048E+02  0.10404129102E+03  0.00000000000E+00 0. -1.
         21    1    1    2  505  501  0.29689738695E-01 -0.41654326777E+02  0.17157717092E+04  0.17162772626E+04  0.00000000000E+00 0.  1.
         21    1    1    2  506  502  0.43033919233E+02 -0.12270305787E+02  0.93165707799E+01  0.45708610784E+02  0.00000000000E+00 0. -1.
<scales pt_clust_3="39.32940" pt_clust_4="102.94119" pt_clust_5="41.65434" pt_clust_6="39.32940"></scales>
<clustering>
<clus scale="   39.329">  3  6 -1 -1</clus>
<clus scale="   41.654">  1  5  2 -1</clus>
<clus scale="  102.941">  2  4  1 -1</clus>
<clus scale="   41.654">  1  3  2 -1</clus>
</clustering>
</event>
<event>
 6    0  0.1704145E+002  0.1639346E+03  0.7546771E-02  0.1184325E+00
         21   -1    0    0  502  501  0.00000000000E+00  0.00000000000E+00  0.49258951661E+03  0.49258951661E+03  0.00000000000E+00 0.  1.
         21   -1    0    0  505  502 -0.00000000000E+00 -0.00000000000E+00 -0.14540186722E+04  0.14540186722E+04  0.00000000000E+00 0. -1.
         21    1    1    2  503  501  0.11864947266E+03 -0.10612629614E+03  0.47276939354E+03  0.49885006521E+03  0.00000000000E+00 0.  1.
         21    1    1    2  504  503 -0.56532899881E+02  0.45925139994E+02 -0.27406949044E+03  0.28358274426E+03  0.00000000000E+00 0. -1.
         21    1    1    2  505  506 -0.26133740510E+02  0.45783825957E+02 -0.84998579567E+03  0.85161903687E+03  0.00000000000E+00 0. -1.
         21    1    1    2  506  504 -0.35982832271E+02  0.14417330191E+02 -0.31014326303E+03  0.31255634249E+03  0.00000000000E+00 0. -1.
<scales pt_clust_3="158.10643" pt_clust_4="31.60526" pt_clust_5="52.71746" pt_clust_6="31.60526"></scales>
<clustering>
<clus scale="   31.605">  4  6 -1 -1</clus>
<clus scale="   52.717">  2  5  1 -1</clus>
<clus scale="  158.106">  1  3  2 -1</clus>
<clus scale="  158.106">  1  3  2 -1</clus>
</clustering>
</event>
<event>
 6    0  0.1704145E+002  0.3889360E+03  0.7546771E-02  0.1047680E+00
         21   -1    0    0  505  501  0.00000000000E+00  0.00000000000E+00  0.11998890013E+04  0.11998890013E+04  0.00000000000E+00 0. -1.
         21   -1    0    0  506  502 -0.00000000000E+00 -0.00000000000E+00 -0.56291382124E+03  0.56291382124E+03  0.00000000000E+00 0.  1.
         21    1    1    2  503  501 -0.33854592959E+02  0.18443095769E+02  0.86948609489E+03  0.87034036471E+03  0.00000000000E+00 0. -1.
         21    1    1    2  504  503 -0.19585744517E+03  0.73969337498E+01  0.72318241451E+02  0.20891333491E+03  0.00000000000E+00 0.  1.
         21    1    1    2  505  502  0.39565843526E+03 -0.86876629701E+01 -0.32941988725E+03  0.51491604655E+03  0.00000000000E+00 0.  1.
         21    1    1    2  506  504 -0.16594639713E+03 -0.17152366549E+02  0.24590730971E+02  0.16863307637E+03  0.00000000000E+00 0.  1.
<scales pt_clust_3="38.55232" pt_clust_4="42.42184" pt_clust_5="386.15864" pt_clust_6="42.42184"></scales>
<clustering>
<clus scale="   38.552">  1  3  2 -1</clus>
<clus scale="   42.422">  4  6 -1 -1</clus>
<clus scale="  386.159">  2  5  1 -1</clus>
<clus scale="   38.552">  1  3  2 -1</clus>
</clustering>
</event>
<event>
 6    0  0.1704145E+002  0.7830254E+02  0.7546771E-02  0.1333939E+00
         21   -1    0    0  505  501  0.00000000000E+00  0.00000000000E+00  0.14580293366E+03  0.14580293366E+03  0.00000000000E+00 0.  1.
         21   -1    0    0  503  502 -0.00000000000E+00 -0.00000000000E+00 -0.21168550356E+03  0.21168550356E+03  0.00000000000E+00 0.  1.
         21    1    1    2  503  506 -0.22422810875E+02 -0.26040108702E+02 -0.40399768928E+02  0.53037826484E+02  0.00000000000E+00 0.  1.
         21    1    1    2  504  502  0.40594447945E+02  0.74442736177E+02 -0.79603346270E+02  0.11630272100E+03  0.00000000000E+00 0.  1.
         21    1    1    2  505  504  0.41687633871E+02 -0.76685673983E+02  0.78702159014E+02  0.11752693838E+03  0.00000000000E+00 0.  1.
         21    1    1    2  506  501 -0.59859270942E+02  0.28283046508E+02 -0.24581613723E+02  0.70620951358E+02  0.00000000000E+00 0.  1.
<scales pt_clust_3="34.36378" pt_clust_4="64.98423" pt_clust_5="14000.00000" pt_clust_6="78.30254"></scales>
<clustering>
<clus scale="   34.364">  2  3  1 -1</clus>
<clus scale="   64.984">  2  4  1 -1</clus>
<clus scale="   78.303">  2  6  1 -1</clus>
<clus scale="   78.303">  1  3  2 -1</clus>
</clustering>
</event>
<event>
 6    0  0.1704145E+002  0.1605253E+03  0.7546771E-02  0.1188105E+00
         21   -1    0    0  504  501  0.00000000000E+00  0.00000000000E+00  0.28719962149E+03  0.28719962149E+03  0.00000000000E+00 0. -1.
         21   -1    0    0  506  502 -0.00000000000E+00 -0.00000000000E+00 -0.48397423666E+03  0.48397423666E+03  0.00000000000E+00 0.  1.
         21    1    1    2  503  501 -0.43893839944E+02  0.10289119571E+02  0.21859621026E+03  0.22319685998E+03  0.00000000000E+00 0. -1.
         21    1    1    2  504  505 -0.25870171627E+02  0.81413900218E+02 -0.61307507653E+01  0.85645052593E+02  0.00000000000E+00 0. -1.
         21    1    1    2  505  502 -0.17106913267E+02  0.42838385455E+02 -0.45013808712E+02  0.64451661923E+02  0.00000000000E+00 0. -1.
         21    1    1    2  506  503  0.86870924838E+02 -0.13454140524E+03 -0.36422626596E+03  0.39788028365E+03  0.00000000000E+00 0.  1.
<scales pt_clust_3="45.08365" pt_clust_4="37.66755" pt_clust_5="37.66755" pt_clust_6="152.12090"></scales>
<clustering>
<clus scale="   37.668">  4  5 -1 -1</clus>
<clus scale="   45.084">  1  3  2 -1</clus>
<clus scale="  152.121">  2  6  1 -1</clus>
<clus scale="   45.084">  1  3  2 -1</clus>
</clustering>
</event>
<event>
 6    0  0.1704145E+002  0.1583674E+03  0.7546771E-02  0.1190552E+00
         21   -1    0    0  505  501  0.00000000000E+00  0.00000000000E+00  0.18388922504E+04  0.18388922504E+04  0.00000000000E+00 0. -1.
         21   -1    0    0  506  502 -0.00000000000E+00 -0.00000000000E+00 -0.63644017614E+03  0.63644017614E+03  0.00000000000E+00 0.  1.
         21    1    1    2  503  502 -0.60397359205E+02  0.11382722238E+03 -0.31005268520E+03  0.33576352564E+03  0.00000000000E+00 0.  1.
         21    1    1    2  504  501  0.36304234700E+02 -0.14513731791E+03  0.17895360371E+04  0.17957789582E+04  0.00000000000E+00 0. -1.
         21    1    1    2  505  503 -0.26470904797E+02  0.59335734948E+02 -0.27848140069E+03  0.28596036224E+03  0.00000000000E+00 0.  1.
         21    1    1    2  506  504  0.50564029302E+02 -0.28025639410E+02  0.14501230696E+01  0.57829580498E+02  0.00000000000E+00 0.  1.
<scales pt_clust_3="36.46201" pt_clust_4="149.81160" pt_clust_5="36.46201" pt_clust_6="57.81140"></scales>
<clustering>
<clus scale="   36.462">  3  5 -1 -1</clus>
<clus scale="   57.811">  2  6  1 -1</clus>
<clus scale="  149.812">  1  4  2 -1</clus>
<clus scale="  149.812">  1  3  2 -1</clus>
</clustering>
</event>
<event>
 6    0  0.1704145E+002  0.8356798E+02  0.7546771E-02  0.1319220E+00
         21   -1    0    0  506  501  0.00000000000E+00  0.00000000000E+00  0.26332645811E+03  0.26332645811E+03  0.00000000000E+00 0.  1.
         21   -1    0    0  503  502 -0.00000000000E+00 -0.00000000000E+00 -0.28360704878E+04  0.28360704878E+04  0.00000000000E+00 0.  1.
         21    1    1    2  503  505 -0.22300897948E+02 -0.23371351901E+02 -0.60163338997E+02  0.68287462233E+02  0.00000000000E+00 0.  1.
         21    1    1    2  504  502  0.33114022519E+02 -0.16738276707E+02 -0.24642225450E+03  0.24919999179E+03  0.00000000000E+00 0. -1.
         21    1    1    2  505  501  0.46542318037E+02  0.10080708334E+03 -0.25160164820E+04  0.25184652456E+04  0.00000000000E+00 0.  1.
         21    1    1    2  506  504 -0.57355442608E+02 -0.60697454730E+02  0.24985804587E+03  0.26344424627E+03  0.00000000000E+00 0.  1.
<scales pt_clust_3="32.30403" pt_clust_4="36.37244" pt_clust_5="83.56798" pt_clust_6="14000.00000"></scales>
<clustering>
<clus scale="   32.304">  2  3  1 -1</clus>
<clus scale="   36.372">  2  4  1 -1</clus>
<clus scale="   83.568">  2  5  1 -1</clus>
<clus scale="   83.568">  1  3  2 -1</clus>
</clustering>
</event>
<event>
 6    0  0.1704145E+002  0.1067975E+03  0.7546771E-02  0.1266618E+00
         21   -1    0    0  503  501  0.00000000000E+00  0.00000000000E+00  0.47983100672E+03  0.47983100672E+03  0.00000000000E+00 0. -1.
         21   -1    0    0  504  502 -0.00000000000E+00 -0.00000000000E+00 -0.19225246948E+03  0.19225246948E+03  0.00000000000E+00 0.  1.
         21    1    1    2  503  506  0.50570235979E+02 -0.30773086001E+02 -0.39469994123E+02  0.71149223644E+02  0.00000000000E+00 0.  1.
         21    1    1    2  504  505 -0.31458570543E+02  0.71848735286E+02  0.23059462537E+02  0.81753417270E+02  0.00000000000E+00 0. -1.
         21    1    1    2  505  501 -0.70980765984E+02 -0.25830079753E+02  0.40103796626E+03  0.40808934382E+03  0.00000000000E+00 0. -1.
         21    1    1    2  506  502  0.51869100548E+02 -0.15245569532E+02 -0.97048897433E+02  0.11109149146E+03  0.00000000000E+00 0.  1.
<scales pt_clust_3="42.33802" pt_clust_4="97.17494" pt_clust_5="75.53451" pt_clust_6="42.33802"></scales>
<clustering>
<clus scale="   42.338">  3  6 -1 -1</clus>
<clus scale="   75.535">  1  5  2 -1</clus>
<clus scale="   97.175">  1  4  2 -1</clus>
<clus scale="   75.535">  1  3  2 -1</clus>
</clustering>
</event>
<event>
 6    0  0.1704145E+002  0.1472011E+03  0.7546771E-02  0.1203955E+00
         21   -1    0    0  505  501  0.00000000000E+00  0.00000000000E+00  0.62143849890E+03  0.62143849890E+03  0.00000000000E+00 0.  1.
         21   -1    0    0  503  502 -0.00000000000E+00 -0.00000000000E+00 -0.21791403661E+04  0.21791403661E+04  0.00000000000E+00 0.  1.
         21    1    1    2  503  504  0.44050261390E+02  0.93141436018E+01 -0.13066478780E+04  0.13074233652E+04  0.00000000000E+00 0.  1.
         21    1    1    2  504  506  0.75822349809E+02 -0.38641657361E+02 -0.62245368506E+03  0.62824421721E+03  0.00000000000E+00 0.  1.
         21    1    1    2  505  502 -0.11464822088E+02 -0.71629447826E+02 -0.23226845817E+03  0.24333281037E+03  0.00000000000E+00 0.  1.
         21    1    1    2  506  501 -0.10840778911E+03  0.10095696158E+03  0.60366815407E+03  0.62157847218E+03  0.00000000000E+00 0.  1.
<scales pt_clust_3="45.02420" pt_clust_4="147.20108" pt_clust_5="69.09188" pt_clust_6="14000.00000"></scales>
<clustering>
<clus scale="   45.024">  2  3  1 -1</clus>
<clus scale="   69.092">  2  5  1 -1</clus>
<clus scale="  147.201">  2  4  1 -1</clus>
<clus scale="  147.201">  1  3  2 -1</clus>
</clustering>
</event>
<event>
 6    0  0.1704145E+002  0.6859694E+02  0.7546771E-02  0.1364930E+00
         21   -1    0    0  506  501  0.00000000000E+00  0.00000000000E+00  0.12700697490E+03  0.12700697490E+03  0.00000000000E+00 0. -1.
         21   -1    0    0  501  502 -0.00000000000E+00 -0.00000000000E+00 -0.10446403210E+04  0.10446403210E+04  0.00000000000E+00 0. -1.
         21    1    1    2  503  504  0.24162497405E+02 -0.95530151041E+02 -0.34173683287E+03  0.35565980793E+03  0.00000000000E+00 0. -1.
         21    1    1    2  504  505 -0.50952400316E+02  0.36088589438E+02 -0.30921912655E+03  0.31545998417E+03  0.00000000000E+00 0. -1.
         21    1    1    2  505  502  0.49251624370E+02 -0.44799789374E+01 -0.37201167000E+03  0.37528452584E+03  0.00000000000E+00 0. -1.
         21    1    1    2  506  503 -0.22461721459E+02  0.63921540541E+02  0.10533428335E+03  0.12524297795E+03  0.00000000000E+00 0. -1.
<scales pt_clust_3="68.59694" pt_clust_4="44.06463" pt_clust_5="49.45496" pt_clust_6="14000.00000"></scales>
<clustering>
<clus scale="   49.455">  2  5  1 -1</clus>
<clus scale="   44.065">  2  4  1 -1</clus>
<clus scale="   68.597">  2  3  1 -1</clus>
<clus scale="   68.597">  1  3  2 -1</clus>
</clustering>
</event>
<event>
 6    0  0.1704145E+002  0.1432056E+03  0.7546771E-02  0.1209079E+00
         21   -1    0    0  505  501  0.00000000000E+00  0.00000000000E+00  0.51782461674E+03  0.51782461674E+03  0.00000000000E+00 0.  1.
         21   -1    0    0  506  502 -0.00000000000E+00 -0.00000000000E+00 -0.75643353919E+02  0.75643353919E+02  0.00000000000E+00 0.  1.
         21    1    1    2  503  501  0.77579548186E+02  0.11319457893E+03  0.36835936423E+03  0.39309060052E+03  0.00000000000E+00 0.  1.
         21    1    1    2  504  502 -0.27861922999E+02 -0.52693522263E+02  0.17222380182E+02  0.62044374611E+02  0.00000000000E+00 0.  1.
         21    1    1    2  505  504 -0.69172486536E+02 -0.19767282926E+02  0.86199682161E+01  0.72456070966E+02  0.00000000000E+00 0.  1.
         21    1    1    2  506  503  0.19454861349E+02 -0.40733773745E+02  0.47979550188E+02  0.65876924563E+02  0.00000000000E+00 0.  1.
<scales pt_clust_3="133.23496" pt_clust_4="51.81162" pt_clust_5="51.81162" pt_clust_6="45.14124"></scales>
<clustering>
<clus scale="   45.141">  2  6  1 -1</clus>
<clus scale="   51.812">  4  5 -1 -1</clus>
<clus scale="  133.235">  1  3  2 -1</clus>
<clus scale="  133.235">  1  3  2 -1</clus>
</clustering>
</event>
<event>
 6    0  0.1704145E+002  0.5673414E+03  0.7546771E-02  0.9975579E-01
         21   -1    0    0  505  501  0.00000000000E+00  0.00000000000E+00  0.84932545627E+03  0.84932545627E+03  0.00000000000E+00 0. -1.
         21   -1    0    0  506  502 -0.00000000000E+00 -0.00000000000E+00 -0.79243944133E+03  0.79243944133E+03  0.00000000000E+00 0.  1.
         21    1    1    2  503  501 -0.59859393540E+02 -0.18355060492E+01  0.99797722876E+02  0.11638772087E+03  0.00000000000E+00 0. -1.
         21    1    1    2  504  503 -0.23976118233E+03 -0.27518207334E+03 -0.37297256251E+03  0.52184205506E+03  0.00000000000E+00 0.  1.
         21    1    1    2  505  502  0.42618001792E+03  0.42240104481E+03  0.47259655098E+03  0.76380596379E+03  0.00000000000E+00 0. -1.
         21    1    1    2  506  504 -0.12655944205E+03 -0.14538346542E+03 -0.14253569641E+03  0.23972915789E+03  0.00000000000E+00 0.  1.
<scales pt_clust_3="59.88753" pt_clust_4="40.95345" pt_clust_5="564.53562" pt_clust_6="40.95345"></scales>
<clustering>
<clus scale="   40.953">  4  6 -1 -1</clus>
<clus scale="   59.888">  1  3  2 -1</clus>
<clus scale="  564.536">  1  5  2 -1</clus>
<clus scale="   59.888">  1  3  2 -1</clus>
</clustering>
</event>
<event>
 6    0  0.1704145E+002  0.1546342E+03  0.7546771E-02  0.1194891E+00
         21   -1    0    0  505  501  0.00000000000E+00  0.00000000000E+00  0.84311890338E+02  0.84311890338E+02  0.00000000000E+00 0. -1.
         21   -1    0    0  503  502 -0.00000000000E+00 -0.00000000000E+00 -0.12998305827E+04  0.12998305827E+04  0.00000000000E+00 0.  1.
         21    1    1    2  503  506 -0.15963199172E+02 -0.66390664501E+02 -0.93846607440E+03  0.94094692564E+03  0.00000000000E+00 0.  1.
         21    1    1    2  504  502 -0.14096178335E+02 -0.41926248436E+02 -0.60431725234E+02  0.74889959049E+02  0.00000000000E+00 0.  1.
         21    1    1    2  505  504 -0.31217809315E+02 -0.45792779140E+02 -0.19298389941E+03  0.20078425156E+03  0.00000000000E+00 0. -1.
         21    1    1    2  506  501  0.61277186822E+02  0.15410969208E+03 -0.23636993270E+02  0.16752133675E+03  0.00000000000E+00 0. -1.
<scales pt_clust_3="68.28282" pt_clust_4="40.23947" pt_clust_5="40.23947" pt_clust_6="147.92875"></scales>
<clustering>
<clus scale="   40.239">  4  5 -1 -1</clus>
<clus scale="   68.283">  2  3  1 -1</clus>
<clus scale="  147.929">  1  6  2 -1</clus>
<clus scale="  147.929">  1  3  2 -1</clus>
</clustering>
</event>
<event>
 6    0  0.1704145E+002  0.1325002E+03  0.7546771E-02  0.1223792E+00
         21   -1    0    0  506  501  0.00000000000E+00  0.00000000000E+00  0.45280876070E+03  0.45280876070E+03  0.00000000000E+00 0. -1.
         21   -1    0    0  501  502 -0.00000000000E+00 -0.00000000000E+00 -0.11738293829E+03  0.11738293829E+03  0.00000000000E+00 0. -1.
         21    1    1    2  503  502 -0.53742960974E+02  0.10923338279E+02  0.46856245843E+01  0.55041622897E+02  0.00000000000E+00 0. -1.
         21    1    1    2  504  505  0.75528878218E+02  0.37717075673E+02  0.41059442522E+02  0.93877937038E+02  0.00000000000E+00 0. -1.
         21    1    1    2  505  503 -0.72950660717E+02 -0.67875944077E+02 -0.24303779926E+02  0.10256518124E+03  0.00000000000E+00 0. -1.
         21    1    1    2  506  504  0.51164743473E+02  0.19235530125E+02  0.31398453524E+03  0.31870695782E+03  0.00000000000E+00 0. -1.
<scales pt_clust_3="53.29197" pt_clust_4="111.33799" pt_clust_5="53.29197" pt_clust_6="54.66111"></scales>
<clustering>
<clus scale="   53.292">  3  5 -1 -1</clus>
<clus scale="   54.661">  1  6  2 -1</clus>
<clus scale="  111.338">  1  4  2 -1</clus>
<clus scale="   54.661">  1  3  2 -1</clus>
</clustering>
</event>
<event>
 6    0  0.1704145E+002  0.2302872E+03  0.7546771E-02  0.1126438E+00
         21   -1    0    0  505  501  0.00000000000E+00  0.00000000000E+00  0.23563984528E+03  0.23563984528E+03  0.00000000000E+00 0. -1.
         21   -1    0    0  504  502 -0.00000000000E+00 -0.00000000000E+00 -0.46273662048E+03  0.46273662048E+03  0.00000000000E+00 0. -1.
         21    1    1    2  503  501 -0.10627429558E+03 -0.18868054971E+03  0.11999839982E+03  0.24757663803E+03  0.00000000000E+00 0. -1.
         21    1    1    2  504  506  0.52640537835E+02  0.91304984535E+02 -0.14403724445E+03  0.17847788158E+03  0.00000000000E+00 0. -1.
         21    1    1    2  505  502  0.27222501791E+02 -0.26984964186E+02 -0.74793986871E+01  0.39053736064E+02  0.00000000000E+00 0. -1.
         21    1    1    2  506  503  0.26411255950E+02  0.12436052936E+03 -0.19557853187E+03  0.23326821008E+03  0.00000000000E+00 0. -1.
<scales pt_clust_3="227.14975" pt_clust_4="34.49258" pt_clust_5="38.33083" pt_clust_6="34.49258"></scales>
<clustering>
<clus scale="   34.493">  4  6 -1 -1</clus>
<clus scale="   38.331">  1  5  2 -1</clus>
<clus scale="  227.150">  1  3  2 -1</clus>
<clus scale="   38.331">  1  3  2 -1</clus>
</clustering>
</event>
<event>
 6    0  0.1704145E+002  0.1874756E+03  0.7546771E-02  0.1160758E+00
         21   -1    0    0  503  501  0.00000000000E+00  0.00000000000E+00  0.72264482054E+03  0.72264482054E+03  0.00000000000E+00 0. -1.
         21   -1    0    0  504  502 -0.00000000000E+00 -0.00000000000E+00 -0.18917209691E+03  0.18917209691E+03  0.00000000000E+00 0. -1.
         21    1    1    2  503  502  0.32768517283E+02  0.18441127968E+02  0.48072931626E+02  0.61031612143E+02  0.00000000000E+00 0.  1.
         21    1    1    2  504  505 -0.10610843677E+03  0.16970086123E+03 -0.65292832431E+02  0.21052443237E+03  0.00000000000E+00 0. -1.
         21    1    1    2  505  506  0.61246112779E+02 -0.15093450144E+03  0.10709232030E+03  0.19493864451E+03  0.00000000000E+00 0. -1.
         21    1    1    2  506  501  0.12093806706E+02 -0.37207487762E+02  0.44360030414E+03  0.44532222844E+03  0.00000000000E+00 0. -1.
<scales pt_clust_3="37.60121" pt_clust_4="14000.00000" pt_clust_5="187.47556" pt_clust_6="42.08021"></scales>
<clustering>
<clus scale="   37.601">  1  3  2 -1</clus>
<clus scale="   42.080">  1  6  2 -1</clus>
<clus scale="  187.476">  1  5  2 -1</clus>
<clus scale="   37.601">  1  3  2 -1</clus>
</clustering>
</event>
<event>
 6    0  0.1704145E+002  0.9694701E+02  0.7546771E-02  0.1286850E+00
         21   -1    0    0  503  501  0.00000000000E+00  0.00000000000E+00  0.12712000547E+03  0.12712000547E+03  0.00000000000E+00 0.  1.
         21   -1    0    0  506  502 -0.00000000000E+00 -0.00000000000E+00 -0.12616182707E+04  0.12616182707E+04  0.00000000000E+00 0.  1.
         21    1    1    2  503  505 -0.82260347589E+02  0.43168575347E+01 -0.87510261769E+02  0.12018088849E+03  0.00000000000E+00 0.  1.
         21    1    1    2  504  501  0.23968027312E+02  0.20957860337E+02  0.10360755482E+03  0.10838922298E+03  0.00000000000E+00 0.  1.
         21    1    1    2  505  502  0.96352842599E+02 -0.24258843247E+02 -0.99638973819E+03  0.10013315496E+04  0.00000000000E+00 0.  1.
         21    1    1    2  506  504 -0.38060522321E+02 -0.10158746249E+01 -0.15420582006E+03  0.15883661512E+03  0.00000000000E+00 0.  1.
<scales pt_clust_3="96.94701" pt_clust_4="31.83863" pt_clust_5="14000.00000" pt_clust_6="35.45626"></scales>
<clustering>
<clus scale="   31.839">  1  4  2 -1</clus>
<clus scale="   35.456">  1  6  2 -1</clus>
<clus scale="   96.947">  1  3  2 -1</clus>
<clus scale="   31.839">  1  3  2 -1</clus>
</clustering>
</event>
<event>
 6    0  0.1704145E+002  0.1109620E+03  0.7546771E-02  0.1258799E+00
         21   -1    0    0  503  501  0.00000000000E+00  0.00000000000E+00  0.45354363228E+03  0.45354363228E+03  0.00000000000E+00 0. -1.
         21   -1    0    0  506  502 -0.00000000000E+00 -0.00000000000E+00 -0.69700991621E+02  0.69700991621E+02  0.00000000000E+00 0. -1.
         21    1    1    2  503  502 -0.66983565739E+02 -0.69564555577E+02  0.33241209609E+03  0.34615578444E+03  0.00000000000E+00 0. -1.
         21    1    1    2  504  501  0.54197811253E+02  0.68253810423E+02  0.41973339297E+02  0.96735446417E+02  0.00000000000E+00 0. -1.
         21    1    1    2  505  504 -0.49307861522E+01  0.38323203449E+02  0.23697411900E+01  0.38711706859E+02  0.00000000000E+00 0. -1.
         21    1    1    2  506  505  0.17716540638E+02 -0.37012458295E+02  0.70874640784E+01  0.41641686184E+02  0.00000000000E+00 0.  1.
<scales pt_clust_3="98.58424" pt_clust_4="33.91012" pt_clust_5="33.91012" pt_clust_6="41.03411"></scales>
<clustering>
<clus scale="   33.910">  4  5 -1 -1</clus>
<clus scale="   41.034">  2  6  1 -1</clus>
<clus scale="   98.584">  1  3  2 -1</clus>
<clus scale="   98.584">  1  3  2 -1</clus>
</clustering>
</event>
<event>
 6    0  0.1704145E+002  0.1384051E+03  0.7546771E-02  0.1215491E+00
         21   -1    0    0  506  501  0.00000000000E+00  0.00000000000E+00  0.89996419643E+03  0.89996419643E+03  0.00000000000E+00 0. -1.
         21   -1    0    0  505  502 -0.00000000000E+00 -0.00000000000E+00 -0.30412956359E+03  0.30412956359E+03  0.00000000000E+00 0.  1.
         21    1    1    2  503  501  0.25511463350E+02 -0.75053355253E+02 -0.25556618404E+01  0.79311867362E+02  0.00000000000E+00 0.  1.
         21    1    1    2  504  502 -0.10685938156E+03 -0.75285637569E+01 -0.16898032354E+03  0.20007487710E+03  0.00000000000E+00 0.  1.
         21    1    1    2  505  503  0.47922616889E+01 -0.35512116248E+02 -0.68374141169E+02  0.77195202916E+02  0.00000000000E+00 0.  1.
         21    1    1    2  506  504  0.76555656524E+02  0.11809403526E+03  0.83574475939E+03  0.84751181264E+03  0.00000000000E+00 0. -1.
<scales pt_clust_3="85.50143" pt_clust_4="138.40513" pt_clust_5="35.83401" pt_clust_6="14000.00000"></scales>
<clustering>
<clus scale="   35.834">  2  5  1 -1</clus>
<clus scale="   85.501">  2  3  1 -1</clus>
<clus scale="  138.405">  2  4  1 -1</clus>
<clus scale="  138.405">  1  3  2 -1</clus>
</clustering>
</event>
<event>
 6    0  0.1704145E+002  0.1206943E+03  0.7546771E-02  0.1241956E+00
         21   -1    0    0  504  501  0.00000000000E+00  0.00000000000E+00  0.44107254126E+03  0.44107254126E+03  0.00000000000E+00 0.  1.
         21   -1    0    0  506  502 -0.00000000000E+00 -0.00000000000E+00 -0.10326509715E+03  0.10326509715E+03  0.00000000000E+00 0.  1.
         21    1    1    2  503  502  0.48401677009E+02 -0.40130573613E+02  0.23546739827E+02  0.67138917419E+02  0.00000000000E+00 0.  1.
         21    1    1    2  504  503  0.37927003684E+02  0.11162060937E+03  0.33737530214E+03  0.35737894809E+03  0.00000000000E+00 0.  1.
         21    1    1    2  505  501 -0.32085054611E+02 -0.49546838824E+02 -0.10325982459E+02  0.59924668382E+02  0.00000000000E+00 0.  1.
         21    1    1    2  506  505 -0.54243626081E+02 -0.21943196934E+02 -0.12788615399E+02  0.59895104524E+02  0.00000000000E+00 0. -1.
<scales pt_clust_3="62.87436" pt_clust_4="115.36066" pt_clust_5="35.32782" pt_clust_6="35.32782"></scales>
<clustering>
<clus scale="   35.328">  5  6 -1 -1</clus>
<clus scale="   62.874">  2  3  1 -1</clus>
<clus scale="  115.361">  1  4  2 -1</clus>
<clus scale="  115.361">  1  3  2 -1</clus>
</clustering>
</event>
<event>
 6    0  0.1704145E+002  0.1386050E+03  0.7546771E-02  0.1215218E+00
         21   -1    0    0  503  501  0.00000000000E+00  0.00000000000E+00  0.39933998927E+03  0.39933998927E+03  0.00000000000E+00 0. -1.
         21   -1    0    0  504  502 -0.00000000000E+00 -0.00000000000E+00 -0.45112335262E+03  0.45112335262E+03  0.00000000000E+00 0. -1.
         21    1    1    2  503  505  0.11202233848E+03  0.50859542181E+02  0.31085337476E+03  0.33431350250E+03  0.00000000000E+00 0. -1.
         21    1    1    2  504  501  0.10266356203E+03  0.28736032099E+02 -0.34658331757E+02  0.11210158995E+03  0.00000000000E+00 0. -1.
         21    1    1    2  505  506 -0.15826401050E+03 -0.34799945316E+02 -0.20244577559E+03  0.25931221580E+03  0.00000000000E+00 0. -1.
         21    1    1    2  506  502 -0.56421890015E+02 -0.44795628964E+02 -0.12553263076E+03  0.14473603364E+03  0.00000000000E+00 0.  1.
<scales pt_clust_3="126.29997" pt_clust_4="106.60941" pt_clust_5="38.06818" pt_clust_6="38.06818"></scales>
<clustering>
<clus scale="   38.068">  5  6 -1 -1</clus>
<clus scale="  106.609">  2  4  1 -1</clus>
<clus scale="  126.300">  1  3  2 -1</clus>
<clus scale="  126.300">  1  3  2 -1</clus>
</clustering>
</event>
<event>
 6    0  0.1704145E+002  0.1837926E+03  0.7546771E-02  0.1164182E+00
         21   -1    0    0  504  501  0.00000000000E+00  0.00000000000E+00  0.13058066817E+04  0.13058066817E+04  0.00000000000E+00 0. -1.
         21   -1    0    0  506  502 -0.00000000000E+00 -0.00000000000E+00 -0.21627514788E+03  0.21627514788E+03  0.00000000000E+00 0. -1.
         21    1    1    2  503  505 -0.18811794937E+02  0.19709839666E+03 -0.11171725226E+03  0.22733764767E+03  0.00000000000E+00 0. -1.
         21    1    1    2  504  502  0.32883612266E+02  0.20100491382E+02 -0.11743933531E+02  0.40289970020E+02  0.00000000000E+00 0.  1.
         21    1    1    2  505  501  0.13968510748E+02 -0.18267376594E+03  0.11906826092E+04  0.12046949406E+04  0.00000000000E+00 0. -1.
         21    1    1    2  506  503 -0.28040328077E+02 -0.34525122101E+02  0.22310110443E+02  0.49759271324E+02  0.00000000000E+00 0.  1.
<scales pt_clust_3="14000.00000" pt_clust_4="38.54039" pt_clust_5="183.79258" pt_clust_6="41.86672"></scales>
<clustering>
<clus scale="   38.540">  2  4  1 -1</clus>
<clus scale="   41.867">  2  6  1 -1</clus>
<clus scale="  183.793">  1  5  2 -1</clus>
<clus scale="  183.793">  1  3  2 -1</clus>
</clustering>
</event>
<event>
 6    0  0.1704145E+002  0.1114304E+03  0.7546771E-02  0.1257944E+00
         21   -1    0    0  504  501  0.00000000000E+00  0.00000000000E+00  0.10084793428E+04  0.10084793428E+04  0.00000000000E+00 0. -1.
         21   -1    0    0  503  502 -0.00000000000E+00 -0.00000000000E+00 -0.33451510910E+02  0.33451510910E+02  0.00000000000E+00 0. -1.
         21    1    1    2  503  506  0.75335191452E+02 -0.66346117325E+01  0.10123289948E+03  0.12636260951E+03  0.00000000000E+00 0. -1.
         21    1    1    2  504  505 -0.37670030655E+02  0.42544528536E+02  0.61802920078E+03  0.62063609396E+03  0.00000000000E+00 0. -1.
         21    1    1    2  505  502 -0.80006100532E+02 -0.55816005043E+02  0.14578060027E+03  0.17540919575E+03  0.00000000000E+00 0. -1.
         21    1    1    2  506  501  0.42340939736E+02  0.19906088239E+02  0.10998513135E+03  0.11952295446E+03  0.00000000000E+00 0. -1.
<scales pt_clust_3="33.58145" pt_clust_4="56.82489" pt_clust_5="102.92662" pt_clust_6="33.58145"></scales>
<clustering>
<clus scale="   33.581">  3  6 -1 -1</clus>
<clus scale="   56.825">  1  4  2 -1</clus>
<clus scale="  102.927">  2  5  1 -1</clus>
<clus scale="   56.825">  1  3  2 -1</clus>
</clustering>
</event>
<event>
 6    0  0.1704145E+002  0.1351341E+03  0.7546771E-02  0.1220031E+00
         21   -1    0    0  503  501  0.00000000000E+00  0.00000000000E+00  0.17651408167E+04  0.17651408167E+04  0.00000000000E+00 0. -1.
         21   -1    0    0  505  502 -0.00000000000E+00 -0.00000000000E+00 -0.25069017145E+03  0.25069017145E+03  0.00000000000E+00 0.  1.
         21    1    1    2  503  504  0.85701385620E+02 -0.81658161685E+02  0.16619581117E+04  0.16661685232E+04  0.00000000000E+00 0. -1.
         21    1    1    2  504  502  0.73686851882E+02  0.95017485306E+01 -0.14576295218E+03  0.16360584828E+03  0.00000000000E+00 0.  1.
         21    1    1    2  505  506 -0.30560529381E+02  0.18986855276E+02  0.25436847605E+02  0.44062226969E+02  0.00000000000E+00 0.  1.
         21    1    1    2  506  501 -0.12882770812E+03  0.53169557878E+02 -0.27181361857E+02  0.14199438967E+03  0.00000000000E+00 0.  1.
<scales pt_clust_3="119.40838" pt_clust_4="74.29694" pt_clust_5="32.14579" pt_clust_6="32.14579"></scales>
<clustering>
<clus scale="   32.146">  5  6 -1 -1</clus>
<clus scale="   74.297">  2  4  1 -1</clus>
<clus scale="  119.408">  1  3  2 -1</clus>
<clus scale="  119.408">  1  3  2 -1</clus>
</clustering>
</event>
<event>
 6    0  0.1704145E+002  0.8419384E+02  0.7546771E-02  0.1317554E+00
         21   -1    0    0  504  501  0.00000000000E+00  0.00000000000E+00  0.16734499327E+03  0.16734499327E+03  0.00000000000E+00 0.  1.
         21   -1    0    0  503  502 -0.00000000000E+00 -0.00000000000E+00 -0.18763296229E+03  0.18763296229E+03  0.00000000000E+00 0.  1.
         21    1    1    2  503  506 -0.37499010241E+02 -0.33846896629E+01 -0.18856674402E+02  0.42109453365E+02  0.00000000000E+00 0.  1.
         21    1    1    2  504  505  0.99105588495E+02 -0.25948793853E+02 -0.29855466600E+02  0.10670804309E+03  0.00000000000E+00 0.  1.
         21    1    1    2  505  502  0.19050469248E+02  0.25631116545E+02 -0.71135643537E+02  0.77975344150E+02  0.00000000000E+00 0.  1.
         21    1    1    2  506  501 -0.80657047502E+02  0.37023669701E+01  0.99559815517E+02  0.12818511497E+03  0.00000000000E+00 0.  1.
<scales pt_clust_3="32.55483" pt_clust_4="14000.00000" pt_clust_5="31.93547" pt_clust_6="84.19384"></scales>
<clustering>
<clus scale="   31.935">  2  5  1 -1</clus>
<clus scale="   32.555">  2  3  1 -1</clus>
<clus scale="   84.194">  1  6  2 -1</clus>
<clus scale="   84.194">  1  3  2 -1</clus>
</clustering>
</event>
<event>
 6    0  0.1704145E+002  0.2507758E+03  0.7546771E-02  0.1112815E+00
         21   -1    0    0  503  501  0.00000000000E+00  0.00000000000E+00  0.71522413449E+03  0.71522413449E+03  0.00000000000E+00 0.  1.
         21   -1    0    0  506  502 -0.00000000000E+00 -0.00000000000E+00 -0.33349687631E+03  0.33349687631E+03  0.00000000000E+00 0.  1.
         21    1    1    2  503  502  0.16940074526E+03  0.10318945673E+03  0.37361779257E+02  0.20184295634E+03  0.00000000000E+00 0.  1.
         21    1    1    2  504  501 -0.83843038519E+01  0.30341280435E+02  0.25002705974E+03  0.25200083423E+03  0.00000000000E+00 0. -1.
         21    1    1    2  505  504 -0.21627357275E+03 -0.20600076957E+03  0.26636567411E+03  0.40020150884E+03  0.00000000000E+00 0.  1.
         21    1    1    2  506  505  0.55257131344E+02  0.72470032409E+02 -0.17202725494E+03  0.19467571138E+03  0.00000000000E+00 0.  1.
<scales pt_clust_3="250.77584" pt_clust_4="31.47840" pt_clust_5="14000.00000" pt_clust_6="91.59979"></scales>
<clustering>
<clus scale="   31.478">  1  4  2 -1</clus>
<clus scale="   91.600">  2  6  1 -1</clus>
<clus scale="  250.776">  2  3  1 -1</clus>
<clus scale="   31.478">  1  3  2 -1</clus>
</clustering>
</event>
<event>
 6    0  0.1704145E+002  0.1222980E+03  0.7546771E-02  0.1239354E+00
         21   -1    0    0  502  501  0.00000000000E+00  0.00000000000E+00  0.22180227987E+04  0.22180227987E+04  0.00000000000E+00 0. -1.
         21   -1    0    0  504  502 -0.00000000000E+00 -0.00000000000E+00 -0.85178336133E+03  0.85178336133E+03  0.00000000000E+00 0. -1.
         21    1    1    2  503  505  0.69840157308E+02  0.12181531575E+02 -0.14009731433E+03  0.15701367701E+03  0.00000000000E+00 0. -1.
         21    1    1    2  504  506  0.24174773703E+02 -0.17922244476E+02 -0.42753796609E+03  0.42859577573E+03  0.00000000000E+00 0. -1.
         21    1    1    2  505  501 -0.12245128557E+03 -0.10407837602E+02  0.22063480760E+04  0.22097679681E+04  0.00000000000E+00 0. -1.
         21    1    1    2  506  503  0.28436354555E+02  0.16148550504E+02 -0.27247335822E+03  0.27442873917E+03  0.00000000000E+00 0. -1.
<scales pt_clust_3="14000.00000" pt_clust_4="30.09363" pt_clust_5="122.29799" pt_clust_6="44.27561"></scales>
<clustering>
<clus scale="   30.094">  2  4  1 -1</clus>
<clus scale="   44.276">  2  6  1 -1</clus>
<clus scale="  122.298">  1  5  2 -1</clus>
<clus scale="  122.298">  1  3  2 -1</clus>
</clustering>
</event>
<event>
 6    0  0.1704145E+002  0.7881745E+02  0.7546771E-02  0.1332441E+00
         21   -1    0    0  503  501  0.00000000000E+00  0.00000000000E+00  0.81171505292E+02  0.81171505292E+02  0.00000000000E+00 0.  1.
         21   -1    0    0  505  502 -0.00000000000E+00 -0.00000000000E+00 -0.66541669398E+03  0.66541669398E+03  0.00000000000E+00 0. -1.
         21    1    1    2  503  504 -0.43574058050E+02  0.45391791169E+02  0.29563823067E+02  0.69520737013E+02  0.00000000000E+00 0.  1.
         21    1    1    2  504  502 -0.41540199894E+02 -0.29179562285E+01 -0.14229202768E+03  0.14826032448E+03  0.00000000000E+00 0. -1.
         21    1    1    2  505  506  0.34582471653E+02 -0.80689011625E+02 -0.45492178497E+03  0.46331468181E+03  0.00000000000E+00 0. -1.
         21    1    1    2  506  501  0.50531786291E+02  0.38215176684E+02 -0.16595199110E+02  0.65492455965E+02  0.00000000000E+00 0.  1.
<scales pt_clust_3="14000.00000" pt_clust_4="41.64256" pt_clust_5="78.81745" pt_clust_6="60.62825"></scales>
<clustering>
<clus scale="   41.643">  2  4  1 -1</clus>
<clus scale="   60.628">  1  6  2 -1</clus>
<clus scale="   78.817">  2  5  1 -1</clus>
<clus scale="   60.628">  1  3  2 -1</clus>
</clustering>
</event>
<event>
 6    0  0.1704145E+002  0.8168663E+02  0.7546771E-02  0.1324332E+00
         21   -1    0    0  505  501  0.00000000000E+00  0.00000000000E+00  0.26507505324E+03  0.26507505324E+03  0.00000000000E+00 0. -1.
         21   -1    0    0  506  502 -0.00000000000E+00 -0.00000000000E+00 -0.24255926075E+03  0.24255926075E+03  0.00000000000E+00 0. -1.
         21    1    1    2  503  502  0.29418061436E+02  0.17198172806E+02 -0.94991049658E+02  0.10091827883E+03  0.00000000000E+00 0. -1.
         21    1    1    2  504  503 -0.30282561223E+02  0.87498621902E+02 -0.11661464243E+02  0.93322195094E+02  0.00000000000E+00 0. -1.
         21    1    1    2  505  504 -0.51091105343E+02 -0.47944381029E+02  0.19807782332E+03  0.21010423320E+03  0.00000000000E+00 0. -1.
         21    1    1    2  506  501  0.51955605130E+02 -0.56752413679E+02 -0.68909516935E+02  0.10328960687E+03  0.00000000000E+00 0. -1.
<scales pt_clust_3="34.07638" pt_clust_4="81.68663" pt_clust_5="68.68330" pt_clust_6="14000.00000"></scales>
<clustering>
<clus scale="   34.076">  2  3  1 -1</clus>
<clus scale="   68.683">  1  5  2 -1</clus>
<clus scale="   81.687">  1  4  2 -1</clus>
<clus scale="   68.683">  1  3  2 -1</clus>
</clustering>
</event>
<event>
 6    0  0.1704145E+002  0.1109105E+03  0.7546771E-02  0.1258893E+00
         21   -1    0    0  503  501  0.00000000000E+00  0.00000000000E+00  0.18968495880E+04  0.18968495880E+04  0.00000000000E+00 0.  1.
         21   -1    0    0  505  502 -0.00000000000E+00 -0.00000000000E+00 -0.19703853719E+02  0.19703853719E+02  0.00000000000E+00 0.  1.
         21    1    1    2  503  502 -0.54375062991E+02  0.28791720219E+02  0.12635060289E+04  0.12650031999E+04  0.00000000000E+00 0.  1.
         21    1    1    2  504  506  0.24487042407E+02 -0.61636400975E+02  0.21111496888E+03  0.22128757592E+03  0.00000000000E+00 0.  1.
         21    1    1    2  505  504  0.39171193466E+02 -0.43841595620E+02  0.84165137141E+02  0.10266566229E+03  0.00000000000E+00 0.  1.
         21    1    1    2  506  501 -0.92831728825E+01  0.76686276375E+02  0.31835959934E+03  0.32759700361E+03  0.00000000000E+00 0.  1.
<scales pt_clust_3="61.52732" pt_clust_4="47.79883" pt_clust_5="47.79883" pt_clust_6="98.60916"></scales>
<clustering>
<clus scale="   47.799">  4  5 -1 -1</clus>
<clus scale="   61.527">  1  3  2 -1</clus>
<clus scale="   98.609">  1  6  2 -1</clus>
<clus scale="   61.527">  1  3  2 -1</clus>
</clustering>
</event>
<event>
 6    0  0.1704145E+002  0.1803014E+03  0.7546771E-02  0.1167512E+00
         21   -1    0    0  504  501  0.00000000000E+00  0.00000000000E+00  0.64870818733E+03  0.64870818733E+03  0.00000000000E+00 0.  1.
         21   -1    0    0  505  502 -0.00000000000E+00 -0.00000000000E+00 -0.14841424730E+03  0.14841424730E+03  0.00000000000E+00 0.  1.
         21    1    1    2  503  501  0.24755939221E+02  0.94734335005E+02  0.85914287942E+02  0.13026402277E+03  0.00000000000E+00 0. -1.
         21    1    1    2  504  506 -0.79230653026E+02  0.42625106541E+02  0.41476921938E+03  0.42441477523E+03  0.00000000000E+00 0.  1.
         21    1    1    2  505  503  0.16549328412E+02  0.49189089437E+02 -0.39202173240E+01  0.52046276470E+02  0.00000000000E+00 0. -1.
         21    1    1    2  506  502  0.37925385393E+02 -0.18654853098E+03  0.35306500300E+01  0.19039736017E+03  0.00000000000E+00 0.  1.
<scales pt_clust_3="46.58242" pt_clust_4="89.96886" pt_clust_5="46.58242" pt_clust_6="168.56649"></scales>
<clustering>
<clus scale="   46.582">  3  5 -1 -1</clus>
<clus scale="   89.969">  1  4  2 -1</clus>
<clus scale="  168.566">  2  6  1 -1</clus>
<clus scale="   89.969">  1  3  2 -1</clus>
</clustering>
</event>
<event>
 6    0  0.1704145E+002  0.2265143E+03  0.7546771E-02  0.1129117E+00
         21   -1    0    0  503  501  0.00000000000E+00  0.00000000000E+00  0.45644509373E+03  0.45644509373E+03  0.00000000000E+00 0.  1.
         21   -1    0    0  504  502 -0.00000000000E+00 -0.00000000000E+00 -0.34991072356E+03  0.34991072356E+03  0.00000000000E+00 0. -1.
         21    1    1    2  503  502 -0.31851432317E+02  0.21387887807E+03  0.36067011153E+03  0.42052540657E+03  0.00000000000E+00 0.  1.
         21    1    1    2  504  506  0.18081014289E+02 -0.43163089074E+02 -0.16870528287E+03  0.17507554885E+03  0.00000000000E+00 0. -1.
         21    1    1    2  505  501  0.28086711929E+02 -0.80640749955E+02  0.57473250069E+00  0.85393935720E+02  0.00000000000E+00 0.  1.
         21    1    1    2  506  505 -0.14316293901E+02 -0.90075039045E+02 -0.86005190981E+02  0.12536092615E+03  0.00000000000E+00 0. -1.
<scales pt_clust_3="208.62168" pt_clust_4="46.79717" pt_clust_5="80.57376" pt_clust_6="80.57376"></scales>
<clustering>
<clus scale="   46.797">  2  4  1 -1</clus>
<clus scale="   80.574">  5  6 -1 -1</clus>
<clus scale="  208.622">  1  3  2 -1</clus>
<clus scale="  208.622">  1  3  2 -1</clus>
</clustering>
</event>
<event>
 6    0  0.1704145E+002  0.1264492E+03  0.7546771E-02  0.1232822E+00
         21   -1    0    0  506  501  0.00000000000E+00  0.00000000000E+00  0.96495302115E+02  0.96495302115E+02  0.00000000000E+00 0. -1.
         21   -1    0    0  503  502 -0.00000000000E+00 -0.00000000000E+00 -0.86294128723E+03  0.86294128723E+03  0.00000000000E+00 0.  1.
         21    1    1    2  503  504  0.12513410640E+03 -0.55413082502E+02 -0.29508296040E+03  0.32527389661E+03  0.00000000000E+00 0.  1.
         21    1    1    2  504  501 -0.23061911506E+02  0.35604058121E+02  0.55140334586E+02  0.69569801029E+02  0.00000000000E+00 0. -1.
         21    1    1    2  505  502  0.23433282364E+02  0.45424654073E+02 -0.30047926300E+03  0.30479551409E+03  0.00000000000E+00 0.  1.
         21    1    1    2  506  505 -0.12550547725E+03 -0.25615629692E+02 -0.22602409630E+03  0.25979737761E+03  0.00000000000E+00 0. -1.
<scales pt_clust_3="126.44924" pt_clust_4="42.42052" pt_clust_5="52.49625" pt_clust_6="14000.00000"></scales>
<clustering>
<clus scale="   42.421">  1  4  2 -1</clus>
<clus scale="   52.496">  2  5  1 -1</clus>
<clus scale="  126.449">  1  3  2 -1</clus>
<clus scale="   42.421">  1  3  2 -1</clus>
</clustering>
</event>
<event>
 6    0  0.8202711E+002  0.1046004E+03  0.7546771E-02  0.1270909E+00
         21   -1    0    0  505  501  0.00000000000E+00  0.00000000000E+00  0.11107438426E+04  0.11107438426E+04  0.00000000000E+00 0.  1.
         21   -1    0    0  504  502 -0.00000000000E+00 -0.00000000000E+00 -0.13315816348E+04  0.13315816348E+04  0.00000000000E+00 0.  1.
         21    1    1    2  503  501  0.91406985839E+02  0.44122615173E+02 -0.77706938835E+02  0.12782961540E+03  0.00000000000E+00 0. -1.
         21    1    1    2  504  503 -0.80233934733E+02 -0.49210141239E+02 -0.11916805191E+04  0.11953918110E+04  0.00000000000E+00 0.  1.
         21    1    1    2  505  506 -0.18156810473E+02  0.37698359396E+02  0.10754459034E+04  0.10762596003E+04  0.00000000000E+00 0.  1.
         21    1    1    2  506  502  0.69837593661E+01 -0.32610833329E+02 -0.26896237734E+02  0.42844450627E+02  0.00000000000E+00 0.  1.
<scales pt_clust_3="14000.00000" pt_clust_4="104.60040" pt_clust_5="41.83282" pt_clust_6="33.35025"></scales>
<clustering>
<clus scale="   33.350">  2  6  1 -1</clus>
<clus scale="   41.833">  1  5  2 -1</clus>
<clus scale="  104.600">  2  4  1 -1</clus>
<clus scale="   41.833">  1  3  2 -1</clus>
</clustering>
</event>
<event>
 6    0  0.1704145E+002  0.1361792E+03  0.7546771E-02  0.1218565E+00
         21   -1    0    0  503  501  0.00000000000E+00  0.00000000000E+00  0.11395091521E+04  0.11395091521E+04  0.00000000000E+00 0.  1.
         21   -1    0    0  506  502 -0.00000000000E+00 -0.00000000000E+00 -0.19271284141E+03  0.19271284141E+03  0.00000000000E+00 0.  1.
         21    1    1    2  503  504  0.10571166803E+03 -0.94208169539E+02 -0.62143858773E+02  0.15463503855E+03  0.00000000000E+00 0.  1.
         21    1    1    2  504  502 -0.85688086154E+02 -0.67949915158E+02 -0.25209154918E+02  0.11222807390E+03  0.00000000000E+00 0.  1.
         21    1    1    2  505  501  0.12400187786E+01  0.13793652647E+03  0.10214409030E+04  0.10307131227E+04  0.00000000000E+00 0.  1.
         21    1    1    2  506  505 -0.21263600650E+02  0.24221558225E+02  0.12708421317E+02  0.34645758295E+02  0.00000000000E+00 0.  1.
<scales pt_clust_3="136.17923" pt_clust_4="110.64080" pt_clust_5="14000.00000" pt_clust_6="32.23080"></scales>
<clustering>
<clus scale="   32.231">  2  6  1 -1</clus>
<clus scale="  110.641">  2  4  1 -1</clus>
<clus scale="  136.179">  2  3  1 -1</clus>
<clus scale="  136.179">  1  3  2 -1</clus>
</clustering>
</event>
<event>
 6    0  0.1704145E+002  0.7666770E+02  0.7546771E-02  0.1338783E+00
         21   -1    0    0  504  501  0.00000000000E+00  0.00000000000E+00  0.98033866262E+03  0.98033866262E+03  0.00000000000E+00 0.  1.
         21   -1    0    0  503  502 -0.00000000000E+00 -0.00000000000E+00 -0.22752725869E+02  0.22752725869E+02  0.00000000000E+00 0.  1.
         21    1    1    2  503  506 -0.78597433354E+02 -0.19772738789E+02  0.10686859796E+03  0.13412462473E+03  0.00000000000E+00 0.  1.
         21    1    1    2  504  505 -0.34747733182E+02  0.27578442725E+02  0.15408843752E+03  0.16034719218E+03  0.00000000000E+00 0.  1.
         21    1    1    2  505  502  0.56298008241E+02 -0.31618508134E+02  0.27472639211E+03  0.28221230716E+03  0.00000000000E+00 0.  1.
         21    1    1    2  506  501  0.57047158294E+02  0.23812804198E+02  0.42190250916E+03  0.42640726442E+03  0.00000000000E+00 0.  1.
<scales pt_clust_3="14000.00000" pt_clust_4="44.36187" pt_clust_5="49.80776" pt_clust_6="76.66770"></scales>
<clustering>
<clus scale="   44.362">  1  4  2 -1</clus>
<clus scale="   49.808">  1  5  2 -1</clus>
<clus scale="   76.668">  1  6  2 -1</clus>
<clus scale="   44.362">  1  3  2 -1</clus>
</clustering>
</event>
<event>
 6    0  0.1704145E+002  0.1956230E+03  0.7546771E-02  0.1153485E+00
         21   -1    0    0  505  501  0.00000000000E+00  0.00000000000E+00  0.72299412910E+03  0.72299412910E+03  0.00000000000E+00 0. -1.
         21   -1    0    0  506  502 -0.00000000000E+00 -0.00000000000E+00 -0.84930111982E+03  0.84930111982E+03  0.00000000000E+00 0.  1.
         21    1    1    2  503  502  0.55588985696E+02 -0.24994940516E+02 -0.32830424929E+03  0.33391400463E+03  0.00000000000E+00 0.  1.
         21    1    1    2  504  503  0.52484717486E+02  0.23544505119E+02 -0.34031692495E+03  0.34514431576E+03  0.00000000000E+00 0.  1.
         21    1    1    2  505  504 -0.19030552524E+03  0.16205926802E+02  0.69414316436E+03  0.71993996807E+03  0.00000000000E+00 0. -1.
         21    1    1    2  506  501  0.82231822062E+02 -0.14755491406E+02 -0.15182898083E+03  0.17329696047E+03  0.00000000000E+00 0.  1.
<scales pt_clust_3="47.43310" pt_clust_4="47.43310" pt_clust_5="189.43193" pt_clust_6="83.54518"></scales>
<clustering>
<clus scale="   47.433">  3  4 -1 -1</clus>
<clus scale="   83.545">  2  6  1 -1</clus>
<clus scale="  189.432">  1  5  2 -1</clus>
<clus scale="  189.432">  1  3  2 -1</clus>
</clustering>
</event>
<event>
 6    0  0.1704145E+002  0.1331101E+03  0.7546771E-02  0.1222912E+00
         21   -1    0    0  506  501  0.00000000000E+00  0.00000000000E+00  0.31717473979E+03  0.31717473979E+03  0.00000000000E+00 0. -1.
         21   -1    0    0  504  502 -0.00000000000E+00 -0.00000000000E+00 -0.15443672757E+03  0.15443672757E+03  0.00000000000E+00 0. -1.
         21    1    1    2  503  505 -0.64903407325E+02  0.19741371065E+02 -0.41632301737E+02  0.79595367716E+02  0.00000000000E+00 0. -1.
         21    1    1    2  504  503 -0.52317816645E+02  0.51084703688E+02 -0.15337220470E+02  0.74712992318E+02  0.00000000000E+00 0. -1.
         21    1    1    2  505  501 -0.52392947307E+01 -0.95114332511E+02  0.13946912824E+03  0.16889589749E+03  0.00000000000E+00 0. -1.
         21    1    1    2  506  502  0.12246051870E+03  0.24288257758E+02  0.80238406188E+02  0.14840720984E+03  0.00000000000E+00 0. -1.
<scales pt_clust_3="40.96038" pt_clust_4="40.96038" pt_clust_5="95.25852" pt_clust_6="126.13451"></scales>
<clustering>
<clus scale="   40.960">  3  4 -1 -1</clus>
<clus scale="   95.259">  1  5  2 -1</clus>
<clus scale="  126.135">  1  6  2 -1</clus>
<clus scale="   95.259">  1  3  2 -1</clus>
</clustering>
</event>
<event>
 6    0  0.1704145E+002  0.1216820E+03  0.7546771E-02  0.1240348E+00
         21   -1    0    0  506  501  0.00000000000E+00  0.00000000000E+00  0.53869761178E+03  0.53869761178E+03  0.00000000000E+00 0. -1.
         21   -1    0    0  503  502 -0.00000000000E+00 -0.00000000000E+00 -0.17346759634E+04  0.17346759634E+04  0.00000000000E+00 0.  1.
         21    1    1    2  503  504  0.35187090983E+02  0.65130522286E+01 -0.55665770182E+03  0.55780673017E+03  0.00000000000E+00 0.  1.
         21    1    1    2  504  501 -0.35315449421E+02  0.29258024634E+02 -0.10960744038E+03  0.11881499889E+03  0.00000000000E+00 0. -1.
         21    1    1    2  505  502 -0.11836268617E+03 -0.63223362151E+02 -0.10519825341E+04  0.10605065634E+04  0.00000000000E+00 0.  1.
         21    1    1    2  506  505  0.11849104461E+03  0.27452285289E+02  0.52226932473E+03  0.53624528266E+03  0.00000000000E+00 0. -1.
<scales pt_clust_3="35.78479" pt_clust_4="43.71679" pt_clust_5="121.68204" pt_clust_6="14000.00000"></scales>
<clustering>
<clus scale="   35.785">  2  3  1 -1</clus>
<clus scale="   43.717">  2  4  1 -1</clus>
<clus scale="  121.682">  2  5  1 -1</clus>
<clus scale="  121.682">  1  3  2 -1</clus>
</clustering>
</event>
<event>
 6    0  0.1704145E+002  0.8648771E+02  0.7546771E-02  0.1311587E+00
         21   -1    0    0  503  501  0.00000000000E+00  0.00000000000E+00  0.53541087202E+03  0.53541087202E+03  0.00000000000E+00 0.  1.
         21   -1    0    0  504  502 -0.00000000000E+00 -0.00000000000E+00 -0.16356874111E+03  0.16356874111E+03  0.00000000000E+00 0.  1.
         21    1    1    2  503  505  0.71710662173E+02 -0.45978725501E+02 -0.14967596905E+02  0.86489833074E+02  0.00000000000E+00 0. -1.
         21    1    1    2  504  506 -0.73654328942E+02  0.29490018867E+02 -0.25566981567E+02  0.83356415057E+02  0.00000000000E+00 0.  1.
         21    1    1    2  505  502 -0.30025982134E+02 -0.70471404239E+02 -0.26137777206E+02  0.80938012181E+02  0.00000000000E+00 0.  1.
         21    1    1    2  506  501  0.31969648902E+02  0.86960110872E+02  0.43851448659E+03  0.44819535281E+03  0.00000000000E+00 0.  1.
<scales pt_clust_3="14000.00000" pt_clust_4="88.68023" pt_clust_5="76.60143" pt_clust_6="86.48771"></scales>
<clustering>
<clus scale="   76.601">  2  5  1 -1</clus>
<clus scale="   88.680">  2  4  1 -1</clus>
<clus scale="   86.488">  1  6  2 -1</clus>
<clus scale="   86.488">  1  3  2 -1</clus>
</clustering>
</event>
<event>
 6    0  0.1704145E+002  0.1086648E+03  0.7546771E-02  0.1263063E+00
         21   -1    0    0  505  501  0.00000000000E+00  0.00000000000E+00  0.98436430934E+03  0.98436430934E+03  0.00000000000E+00 0. -1.
         21   -1    0    0  503  502 -0.00000000000E+00 -0.00000000000E+00 -0.82346735358E+02  0.82346735358E+02  0.00000000000E+00 0. -1.
         21    1    1    2  503  506  0.80306426547E+01  0.56230489749E+02  0.22420849060E+02  0.61065978019E+02  0.00000000000E+00 0.  1.
         21    1    1    2  504  502 -0.51043050928E+02 -0.15796074272E+02 -0.34334125287E+02  0.63511740409E+02  0.00000000000E+00 0. -1.
         21    1    1    2  505  504 -0.59091648664E+02  0.44383523733E+02  0.15542658251E+03  0.17210212861E+03  0.00000000000E+00 0. -1.
         21    1    1    2  506  501  0.10210405694E+03 -0.84817939210E+02  0.75850426770E+03  0.77003119766E+03  0.00000000000E+00 0. -1.
<scales pt_clust_3="51.76463" pt_clust_4="53.43135" pt_clust_5="14000.00000" pt_clust_6="108.66483"></scales>
<clustering>
<clus scale="   53.431">  2  4  1 -1</clus>
<clus scale="   51.765">  2  3  1 -1</clus>
<clus scale="  108.665">  1  6  2 -1</clus>
<clus scale="  108.665">  1  3  2 -1</clus>
</clustering>
</event>
<event>
 6    0  0.1704145E+002  0.1700772E+03  0.7546771E-02  0.1177767E+00
         21   -1    0    0  504  501  0.00000000000E+00  0.00000000000E+00  0.30485941109E+03  0.30485941109E+03  0.00000000000E+00 0. -1.
         21   -1    0    0  506  502 -0.00000000000E+00 -0.00000000000E+00 -0.33288856654E+03  0.33288856654E+03  0.00000000000E+00 0. -1.
         21    1    1    2  503  502 -0.75030971457E+02  0.27464492748E+01 -0.27047686531E+02  0.79804555059E+02  0.00000000000E+00 0. -1.
         21    1    1    2  504  503 -0.81097039428E+02 -0.51361286109E+02 -0.89078537492E+02  0.13095685303E+03  0.00000000000E+00 0. -1.
         21    1    1    2  505  501  0.38056265431E+02 -0.57674787433E+02  0.21361881361E+03  0.22451649822E+03  0.00000000000E+00 0. -1.
         21    1    1    2  506  505  0.11807174545E+03  0.10628962427E+03 -0.12552174505E+03  0.20247007132E+03  0.00000000000E+00 0. -1.
<scales pt_clust_3="57.28595" pt_clust_4="57.28595" pt_clust_5="69.09892" pt_clust_6="157.25950"></scales>
<clustering>
<clus scale="   57.286">  3  4 -1 -1</clus>
<clus scale="   69.099">  1  5  2 -1</clus>
<clus scale="  157.259">  2  6  1 -1</clus>
<clus scale="   69.099">  1  3  2 -1</clus>
</clustering>
</event>
<event>
 6    0  0.1704145E+002  0.7073052E+02  0.7546771E-02  0.1357626E+00
         21   -1    0    0  506  501  0.00000000000E+00  0.00000000000E+00  0.19966893255E+03  0.19966893255E+03  0.00000000000E+00 0. -1.
         21   -1    0    0  501  502 -0.00000000000E+00 -0.00000000000E+00 -0.14454642940E+03  0.14454642940E+03  0.00000000000E+00 0. -1.
         21    1    1    2  503  505  0.41837613466E+02  0.24726794701E+02  0.18994277547E+02  0.52178375370E+02  0.00000000000E+00 0. -1.
         21    1    1    2  504  502 -0.20307070382E+02 -0.89515839152E+02 -0.62720998628E+02  0.11117277650E+03  0.00000000000E+00 0. -1.
         21    1    1    2  505  504 -0.54999954105E+02  0.43062238433E+02 -0.45822317318E+01  0.70002486942E+02  0.00000000000E+00 0. -1.
         21    1    1    2  506  503  0.33469411021E+02  0.21726806018E+02  0.10343145596E+03  0.11086172313E+03  0.00000000000E+00 0. -1.
<scales pt_clust_3="63.93576" pt_clust_4="70.73052" pt_clust_5="14000.00000" pt_clust_6="39.90308"></scales>
<clustering>
<clus scale="   39.903">  1  6  2 -1</clus>
<clus scale="   63.936">  1  3  2 -1</clus>
<clus scale="   70.731">  2  4  1 -1</clus>
<clus scale="   39.903">  1  3  2 -1</clus>
</clustering>
</event>
<event>
 6    0  0.1704145E+002  0.1164333E+03  0.7546771E-02  0.1249100E+00
         21   -1    0    0  503  501  0.00000000000E+00  0.00000000000E+00  0.13073940226E+03  0.13073940226E+03  0.00000000000E+00 0.  1.
         21   -1    0    0  504  502 -0.00000000000E+00 -0.00000000000E+00 -0.37329849376E+03  0.37329849376E+03  0.00000000000E+00 0. -1.
         21    1    1    2  503  505 -0.20237072119E+02 -0.25184047802E+02 -0.51538737951E+02  0.60827763901E+02  0.00000000000E+00 0. -1.
         21    1    1    2  504  506  0.76470368702E+02  0.58686412691E+02 -0.55757661909E+02  0.11135856135E+03  0.00000000000E+00 0. -1.
         21    1    1    2  505  502 -0.88587198568E+02 -0.20459405263E+01 -0.21926661190E+03  0.23649466107E+03  0.00000000000E+00 0. -1.
         21    1    1    2  506  501  0.32353901985E+02 -0.31456424363E+02  0.84003920259E+02  0.95356909693E+02  0.00000000000E+00 0.  1.
<scales pt_clust_3="30.07547" pt_clust_4="105.24173" pt_clust_5="30.07547" pt_clust_6="45.12518"></scales>
<clustering>
<clus scale="   30.075">  3  5 -1 -1</clus>
<clus scale="   45.125">  1  6  2 -1</clus>
<clus scale="  105.242">  1  4  2 -1</clus>
<clus scale="   45.125">  1  3  2 -1</clus>
</clustering>
</event>
<event>
 6    0  0.1704145E+002  0.1427947E+03  0.7546771E-02  0.1209617E+00
         21   -1    0    0  504  501  0.00000000000E+00  0.00000000000E+00  0.77346097389E+02  0.77346097389E+02  0.00000000000E+00 0.  1.
         21   -1    0    0  501  502 -0.00000000000E+00 -0.00000000000E+00 -0.88997469619E+03  0.88997469619E+03  0.00000000000E+00 0. -1.
         21    1    1    2  503  506  0.64256773822E+02 -0.15422925108E+02 -0.44261119258E+03  0.44751700236E+03  0.00000000000E+00 0. -1.
         21    1    1    2  504  505 -0.26436094742E+02 -0.17110102284E+02  0.43075688794E+02  0.53358576353E+02  0.00000000000E+00 0.  1.
         21    1    1    2  505  503 -0.11237020579E+03  0.43264563038E+02 -0.14765326673E+03  0.19052656702E+03  0.00000000000E+00 0. -1.
         21    1    1    2  506  502  0.74549526712E+02 -0.10731535646E+02 -0.26543982829E+03  0.27591864785E+03  0.00000000000E+00 0. -1.
<scales pt_clust_3="43.26364" pt_clust_4="31.49004" pt_clust_5="135.34654" pt_clust_6="43.26364"></scales>
<clustering>
<clus scale="   31.490">  1  4  2 -1</clus>
<clus scale="   43.264">  3  6 -1 -1</clus>
<clus scale="  135.347">  1  5  2 -1</clus>
<clus scale="   31.490">  1  3  2 -1</clus>
</clustering>
</event>
<event>
 6    0  0.1704145E+002  0.1291159E+03  0.7546771E-02  0.1228774E+00
         21   -1    0    0  505  501  0.00000000000E+00  0.00000000000E+00  0.31383147896E+04  0.31383147896E+04  0.00000000000E+00 0. -1.
         21   -1    0    0  503  502 -0.00000000000E+00 -0.00000000000E+00 -0.10252327279E+03  0.10252327279E+03  0.00000000000E+00 0. -1.
         21    1    1    2  503  504  0.35036775489E+02  0.17831855202E+02 -0.46401825389E+01  0.39586386430E+02  0.00000000000E+00 0. -1.
         21    1    1    2  504  501  0.91946668991E+02  0.15215531704E+02  0.57137507230E+02  0.10931787171E+03  0.00000000000E+00 0. -1.
         21    1    1    2  505  506 -0.13740646069E+02 -0.87171367699E+02  0.29635670747E+04  0.29648806821E+04  0.00000000000E+00 0. -1.
         21    1    1    2  506  502 -0.11324279841E+03  0.54123980793E+02  0.19727117412E+02  0.12705312216E+03  0.00000000000E+00 0. -1.
<scales pt_clust_3="30.46070" pt_clust_4="30.46070" pt_clust_5="88.24768" pt_clust_6="120.29684"></scales>
<clustering>
<clus scale="   30.461">  3  4 -1 -1</clus>
<clus scale="   88.248">  1  5  2 -1</clus>
<clus scale="  120.297">  2  6  1 -1</clus>
<clus scale="   88.248">  1  3  2 -1</clus>
</clustering>
</event>
<event>
 6    0  0.1704145E+002  0.4412952E+03  0.7546771E-02  0.1030350E+00
         21   -1    0    0  504  501  0.00000000000E+00  0.00000000000E+00  0.55431049801E+03  0.55431049801E+03  0.00000000000E+00 0.  1.
         21   -1    0    0  503  502 -0.00000000000E+00 -0.00000000000E+00 -0.34462189566E+03  0.34462189566E+03  0.00000000000E+00 0.  1.
         21    1    1    2  503  506 -0.68225780746E+01 -0.17143330783E+03  0.38486806837E+02  0.17583276403E+03  0.00000000000E+00 0.  1.
         21    1    1    2  504  502  0.13776398814E+03  0.39692974285E+03  0.26085244809E+02  0.42096624233E+03  0.00000000000E+00 0.  1.
         21    1    1    2  505  501 -0.62527629758E+02 -0.66527773538E+02  0.60179636827E+02  0.10934915557E+03  0.00000000000E+00 0.  1.
         21    1    1    2  506  505 -0.68413780310E+02 -0.15896866148E+03  0.84936913886E+02  0.19278423174E+03  0.00000000000E+00 0.  1.
<scales pt_clust_3="97.94341" pt_clust_4="420.15728" pt_clust_5="34.31044" pt_clust_6="97.94341"></scales>
<clustering>
<clus scale="   34.310">  5  6 -1 -1</clus>
<clus scale="   97.943">  3  5 -1 -1</clus>
<clus scale="  420.157">  2  4  1 -1</clus>
<clus scale="  441.295">  1  3  2 -1</clus>
</clustering>
</event>
<event>
 6    0  0.1704145E+002  0.1735505E+03  0.7546771E-02  0.1174195E+00
         21   -1    0    0  502  501  0.00000000000E+00  0.00000000000E+00  0.83836819795E+03  0.83836819795E+03  0.00000000000E+00 0.  1.
         21   -1    0    0  506  502 -0.00000000000E+00 -0.00000000000E+00 -0.53411280416E+03  0.53411280416E+03  0.00000000000E+00 0. -1.
         21    1    1    2  503  504 -0.60409645308E+02  0.92032377341E+02 -0.17495504359E+03  0.20670885565E+03  0.00000000000E+00 0. -1.
         21    1    1    2  504  501  0.13521368714E+03 -0.11424298259E+03  0.79453910935E+03  0.81401879373E+03  0.00000000000E+00 0.  1.
         21    1    1    2  505  503 -0.84596360976E+02 -0.97537030023E+01 -0.89785952192E+02  0.12374649984E+03  0.00000000000E+00 0. -1.
         21    1    1    2  506  505  0.97923191481E+01  0.31964308254E+02 -0.22554271978E+03  0.22800685289E+03  0.00000000000E+00 0. -1.
<scales pt_clust_3="173.55055" pt_clust_4="14000.00000" pt_clust_5="81.20583" pt_clust_6="33.43062"></scales>
<clustering>
<clus scale="   33.431">  2  6  1 -1</clus>
<clus scale="   81.206">  2  5  1 -1</clus>
<clus scale="  173.551">  2  3  1 -1</clus>
<clus scale="  173.551">  1  3  2 -1</clus>
</clustering>
</event>
<event>
 6    0  0.1704145E+002  0.8741439E+02  0.7546771E-02  0.1309237E+00
         21   -1    0    0  505  501  0.00000000000E+00  0.00000000000E+00  0.11660204391E+03  0.11660204391E+03  0.00000000000E+00 0. -1.
         21   -1    0    0  504  502 -0.00000000000E+00 -0.00000000000E+00 -0.45862535870E+03  0.45862535870E+03  0.00000000000E+00 0. -1.
         21    1    1    2  503  501 -0.23319498787E+02  0.23553392888E+02 -0.73106694981E+01  0.33941231986E+02  0.00000000000E+00 0. -1.
         21    1    1    2  504  503 -0.84524371706E+02 -0.82071984114E+01 -0.36067949044E+03  0.37054206555E+03  0.00000000000E+00 0. -1.
         21    1    1    2  505  506 -0.24061160191E+02 -0.19769360386E+02 -0.12061697288E+02  0.33395382634E+02  0.00000000000E+00 0. -1.
         21    1    1    2  506  502  0.13190503068E+03  0.44231659089E+01  0.38028542436E+02  0.13734872244E+03  0.00000000000E+00 0. -1.
<scales pt_clust_3="33.73247" pt_clust_4="14000.00000" pt_clust_5="31.14108" pt_clust_6="87.41439"></scales>
<clustering>
<clus scale="   31.141">  1  5  2 -1</clus>
<clus scale="   33.732">  1  3  2 -1</clus>
<clus scale="   87.414">  1  6  2 -1</clus>
<clus scale="   31.141">  1  3  2 -1</clus>
</clustering>
</event>
<event>
 6    0  0.1704145E+002  0.2962471E+03  0.7546771E-02  0.1087132E+00
         21   -1    0    0  506  501  0.00000000000E+00  0.00000000000E+00  0.66139506796E+03  0.66139506796E+03  0.00000000000E+00 0. -1.
         21   -1    0    0  501  502 -0.00000000000E+00 -0.00000000000E+00 -0.49904288032E+03  0.49904288032E+03  0.00000000000E+00 0. -1.
         21    1    1    2  503  502  0.19802104687E+02  0.74904058932E+02 -0.13194220899E+02  0.78592804121E+02  0.00000000000E+00 0. -1.
         21    1    1    2  504  503 -0.10224892271E+01  0.73860947101E+02 -0.75433417231E+02  0.10557786428E+03  0.00000000000E+00 0. -1.
         21    1    1    2  505  504  0.60103121678E+01  0.14566880645E+03 -0.30980853979E+03  0.34239868041E+03  0.00000000000E+00 0. -1.
         21    1    1    2  506  505 -0.24789927628E+02 -0.29443381248E+03  0.56078836555E+03  0.63386859946E+03  0.00000000000E+00 0. -1.
<scales pt_clust_3="77.47736" pt_clust_4="45.31808" pt_clust_5="45.31808" pt_clust_6="289.32497"></scales>
<clustering>
<clus scale="   45.318">  4  5 -1 -1</clus>
<clus scale="   77.477">  2  3  1 -1</clus>
<clus scale="  289.325">  1  6  2 -1</clus>
<clus scale="  289.325">  1  3  2 -1</clus>
</clustering>
</event>
<event>
 6    0  0.1704145E+002  0.1096817E+03  0.7546771E-02  0.1261160E+00
         21   -1    0    0  502  501  0.00000000000E+00  0.00000000000E+00  0.36994368652E+03  0.36994368652E+03  0.00000000000E+00 0. -1.
         21   -1    0    0  506  502 -0.00000000000E+00 -0.00000000000E+00 -0.10096864933E+04  0.10096864933E+04  0.00000000000E+00 0.  1.
         21    1    1    2  503  501 -0.40829988117E+02 -0.43972107484E+02  0.33383553398E+03  0.33918549190E+03  0.00000000000E+00 0. -1.
         21    1    1    2  504  505  0.33786339694E+02 -0.21369705493E+02 -0.20378756221E+03  0.20767173996E+03  0.00000000000E+00 0.  1.
         21    1    1    2  505  503 -0.35363806302E+02  0.11131580085E+03 -0.83350476131E+02  0.14348905249E+03  0.00000000000E+00 0.  1.
         21    1    1    2  506  504  0.42407454725E+02 -0.45973987869E+02 -0.68644030237E+03  0.68928389543E+03  0.00000000000E+00 0.  1.
<scales pt_clust_3="60.00528" pt_clust_4="32.79902" pt_clust_5="101.72013" pt_clust_6="32.79902"></scales>
<clustering>
<clus scale="   32.799">  4  6 -1 -1</clus>
<clus scale="   60.005">  1  3  2 -1</clus>
<clus scale="  101.720">  1  5  2 -1</clus>
<clus scale="   60.005">  1  3  2 -1</clus>
</clustering>
</event>
<event>
 6    0  0.1704145E+002  0.6922595E+02  0.7546771E-02  0.1362745E+00
         21   -1    0    0  506  501  0.00000000000E+00  0.00000000000E+00  0.10855948857E+03  0.10855948857E+03  0.00000000000E+00 0.  1.
         21   -1    0    0  504  502 -0.00000000000E+00 -0.00000000000E+00 -0.72216804108E+03  0.72216804108E+03  0.00000000000E+00 0. -1.
         21    1    1    2  503  501  0.11437237747E+03 -0.98437447675E+02 -0.39974825592E+03  0.42728168688E+03  0.00000000000E+00 0.  1.
         21    1    1    2  504  503 -0.37223266909E+02  0.37495571943E+02 -0.78424054881E+02  0.94561207156E+02  0.00000000000E+00 0. -1.
         21    1    1    2  505  502 -0.33442205561E+02  0.10562081198E+02 -0.20764540348E+03  0.21058621098E+03  0.00000000000E+00 0. -1.
         21    1    1    2  506  505 -0.43706904995E+02  0.50379794534E+02  0.72209161763E+02  0.98298424627E+02  0.00000000000E+00 0.  1.
<scales pt_clust_3="69.22595" pt_clust_4="58.13512" pt_clust_5="35.07048" pt_clust_6="14000.00000"></scales>
<clustering>
<clus scale="   35.070">  2  5  1 -1</clus>
<clus scale="   58.135">  2  4  1 -1</clus>
<clus scale="   69.226">  2  3  1 -1</clus>
<clus scale="   69.226">  1  3  2 -1</clus>
</clustering>
</event>
<event>
 6    0  0.1704145E+002  0.1414823E+03  0.7546771E-02  0.1211348E+00
         21   -1    0    0  503  501  0.00000000000E+00  0.00000000000E+00  0.13913152975E+04  0.13913152975E+04  0.00000000000E+00 0.  1.
         21   -1    0    0  506  502 -0.00000000000E+00 -0.00000000000E+00 -0.13824565439E+03  0.13824565439E+03  0.00000000000E+00 0. -1.
         21    1    1    2  503  504 -0.69316646185E+02 -0.43940086220E+02 -0.13753548015E+02  0.83214714434E+02  0.00000000000E+00 0. -1.
         21    1    1    2  504  502 -0.35983175268E+02 -0.46770988553E+02 -0.69614277878E+02  0.91260407390E+02  0.00000000000E+00 0. -1.
         21    1    1    2  505  501  0.42018487311E+02  0.47710554568E+02  0.11719758907E+04  0.11736989984E+04  0.00000000000E+00 0.  1.
         21    1    1    2  506  505  0.63281334142E+02  0.43000520205E+02  0.16446157822E+03  0.18138683166E+03  0.00000000000E+00 0.  1.
<scales pt_clust_3="54.78896" pt_clust_4="54.78896" pt_clust_5="63.57555" pt_clust_6="125.86671"></scales>
<clustering>
<clus scale="   54.789">  3  4 -1 -1</clus>
<clus scale="   63.576">  1  5  2 -1</clus>
<clus scale="  125.867">  1  6  2 -1</clus>
<clus scale="   63.576">  1  3  2 -1</clus>
</clustering>
</event>
<event>
 6    0  0.1704145E+002  0.3190256E+03  0.7546771E-02  0.1076099E+00
         21   -1    0    0  505  501  0.00000000000E+00  0.00000000000E+00  0.16878321760E+03  0.16878321760E+03  0.00000000000E+00 0. -1.
         21   -1    0    0  504  502 -0.00000000000E+00 -0.00000000000E+00 -0.25063160105E+04  0.25063160105E+04  0.00000000000E+00 0. -1.
         21    1    1    2  503  506 -0.36073573987E+02 -0.20991060848E+03 -0.87965068406E+03  0.90506855666E+03  0.00000000000E+00 0.  1.
         21    1    1    2  504  503  0.28493427728E+02 -0.15314705023E+03 -0.75043672552E+03  0.76643406333E+03  0.00000000000E+00 0. -1.
         21    1    1    2  505  502  0.89592263786E+02  0.66699434314E+02 -0.68634808063E+03  0.69537707473E+03  0.00000000000E+00 0. -1.
         21    1    1    2  506  501 -0.82012117527E+02  0.29635822439E+03 -0.21097302708E+02  0.30821953340E+03  0.00000000000E+00 0. -1.
<scales pt_clust_3="59.66708" pt_clust_4="59.66708" pt_clust_5="111.69417" pt_clust_6="311.30311"></scales>
<clustering>
<clus scale="   59.667">  3  4 -1 -1</clus>
<clus scale="  111.694">  2  5  1 -1</clus>
<clus scale="  311.303">  1  6  2 -1</clus>
<clus scale="  311.303">  1  3  2 -1</clus>
</clustering>
</event>
<event>
 6    0  0.1704145E+002  0.1643344E+03  0.7546771E-02  0.1183888E+00
         21   -1    0    0  503  501  0.00000000000E+00  0.00000000000E+00  0.27458158714E+03  0.27458158714E+03  0.00000000000E+00 0. -1.
         21   -1    0    0  504  502 -0.00000000000E+00 -0.00000000000E+00 -0.24877665494E+03  0.24877665494E+03  0.00000000000E+00 0. -1.
         21    1    1    2  503  505 -0.16305343675E+02  0.59314841414E+02  0.13156274196E+03  0.14523384494E+03  0.00000000000E+00 0. -1.
         21    1    1    2  504  506  0.77910488537E+01 -0.31205944295E+02 -0.16307941423E+02  0.36061896165E+02  0.00000000000E+00 0.  1.
         21    1    1    2  505  502 -0.15972232029E+03 -0.33090562902E+01 -0.35478861911E+02  0.16364876747E+03  0.00000000000E+00 0. -1.
         21    1    1    2  506  501  0.16823661511E+03 -0.24799840829E+02 -0.53971006417E+02  0.17841373350E+03  0.00000000000E+00 0. -1.
<scales pt_clust_3="60.52772" pt_clust_4="32.16382" pt_clust_5="164.33439" pt_clust_6="14000.00000"></scales>
<clustering>
<clus scale="   32.164">  2  4  1 -1</clus>
<clus scale="   60.528">  1  3  2 -1</clus>
<clus scale="  164.334">  2  5  1 -1</clus>
<clus scale="   60.528">  1  3  2 -1</clus>
</clustering>
</event>
<event>
 6    0  0.1704145E+002  0.2482135E+03  0.7546771E-02  0.1114439E+00
         21   -1    0    0  503  501  0.00000000000E+00  0.00000000000E+00  0.73840963346E+03  0.73840963346E+03  0.00000000000E+00 0.  1.
         21   -1    0    0  504  502 -0.00000000000E+00 -0.00000000000E+00 -0.13071891628E+03  0.13071891628E+03  0.00000000000E+00 0.  1.
         21    1    1    2  503  506 -0.40929303396E+01  0.30933779779E+02  0.10612624378E+03  0.11061840005E+03  0.00000000000E+00 0.  1.
         21    1    1    2  504  505 -0.47851645705E+02  0.22828116908E+02  0.37866974391E+02  0.65152211534E+02  0.00000000000E+00 0.  1.
         21    1    1    2  505  501 -0.48603602096E+02 -0.26605664809E+03  0.31574795001E+03  0.41574657914E+03  0.00000000000E+00 0.  1.
         21    1    1    2  506  502  0.10054817814E+03  0.21229475141E+03  0.14794954901E+03  0.27761135901E+03  0.00000000000E+00 0.  1.
<scales pt_clust_3="31.20338" pt_clust_4="54.45091" pt_clust_5="248.21354" pt_clust_6="14000.00000"></scales>
<clustering>
<clus scale="   31.203">  1  3  2 -1</clus>
<clus scale="   54.451">  2  4  1 -1</clus>
<clus scale="  248.214">  1  5  2 -1</clus>
<clus scale="   31.203">  1  3  2 -1</clus>
</clustering>
</event>
<event>
 6    0  0.1704145E+002  0.9400909E+02  0.7546771E-02  0.1293424E+00
         21   -1    0    0  504  501  0.00000000000E+00  0.00000000000E+00  0.24768761497E+03  0.24768761497E+03  0.00000000000E+00 0.  1.
         21   -1    0    0  503  502 -0.00000000000E+00 -0.00000000000E+00 -0.14290089103E+03  0.14290089103E+03  0.00000000000E+00 0.  1.
         21    1    1    2  503  505  0.77936153355E+02  0.10452435842E+02 -0.52140651123E+02  0.94350118783E+02  0.00000000000E+00 0.  1.
         21    1    1    2  504  506 -0.11669873565E+02 -0.98498795879E+02  0.12332179162E+03  0.15826074380E+03  0.00000000000E+00 0.  1.
         21    1    1    2  505  501 -0.39604313734E+02  0.21442212209E+01  0.26609060670E+02  0.47761296682E+02  0.00000000000E+00 0.  1.
         21    1    1    2  506  502 -0.26661966056E+02  0.85902138816E+02  0.69965227773E+01  0.90216346735E+02  0.00000000000E+00 0.  1.
<scales pt_clust_3="74.73075" pt_clust_4="94.00909" pt_clust_5="39.66232" pt_clust_6="14000.00000"></scales>
<clustering>
<clus scale="   39.662">  1  5  2 -1</clus>
<clus scale="   74.731">  2  3  1 -1</clus>
<clus scale="   94.009">  1  4  2 -1</clus>
<clus scale="   39.662">  1  3  2 -1</clus>
</clustering>
</event>
<event>
 6    0  0.1704145E+002  0.2761999E+03  0.7546771E-02  0.1097783E+00
         21   -1    0    0  505  501  0.00000000000E+00  0.00000000000E+00  0.60709721207E+03  0.60709721207E+03  0.00000000000E+00 0.  1.
         21   -1    0    0  506  502 -0.00000000000E+00 -0.00000000000E+00 -0.10854922833E+03  0.10854922833E+03  0.00000000000E+00 0.  1.
         21    1    1    2  503  502 -0.55641426179E+02  0.18138262451E+03  0.20634401440E+03  0.28030960929E+03  0.00000000000E+00 0.  1.
         21    1    1    2  504  503  0.21710483171E+02  0.45694870096E+02  0.49595076366E+02  0.70845168024E+02  0.00000000000E+00 0. -1.
         21    1    1    2  505  504  0.34679925066E+02  0.87544350630E+01  0.39079815723E+02  0.52977064214E+02  0.00000000000E+00 0.  1.
         21    1    1    2  506  501 -0.74898205775E+00 -0.23583192967E+03  0.20352907725E+03  0.31151459888E+03  0.00000000000E+00 0.  1.
<scales pt_clust_3="82.03660" pt_clust_4="82.03660" pt_clust_5="30.59667" pt_clust_6="235.83312"></scales>
<clustering>
<clus scale="   30.597">  4  5 -1 -1</clus>
<clus scale="   82.037">  3  4 -1 -1</clus>
<clus scale="  235.833">  2  6  1 -1</clus>
<clus scale="  276.200">  1  3  2 -1</clus>
</clustering>
</event>
<event>
 6    0  0.1704145E+002  0.1358847E+03  0.7546771E-02  0.1218976E+00
         21   -1    0    0  506  501  0.00000000000E+00  0.00000000000E+00  0.21925404107E+03  0.21925404107E+03  0.00000000000E+00 0. -1.
         21   -1    0    0  504  502 -0.00000000000E+00 -0.00000000000E+00 -0.12934259195E+03  0.12934259195E+03  0.00000000000E+00 0. -1.
         21    1    1    2  503  501 -0.78907859280E+02 -0.11833170928E+03  0.10839662043E+03  0.17882581189E+03  0.00000000000E+00 0. -1.
         21    1    1    2  504  503  0.48567929056E+02  0.85058784088E+01 -0.50850315637E+01  0.49568651850E+02  0.00000000000E+00 0. -1.
         21    1    1    2  505  502  0.29344360009E+02  0.59956844231E+02  0.52308104797E+01  0.66957270051E+02  0.00000000000E+00 0. -1.
         21    1    1    2  506  505  0.99557021607E+00  0.49868986636E+02 -0.18630950227E+02  0.53244899235E+02  0.00000000000E+00 0.  1.
<scales pt_clust_3="131.06437" pt_clust_4="49.30714" pt_clust_5="31.00811" pt_clust_6="31.00811"></scales>
<clustering>
<clus scale="   31.008">  5  6 -1 -1</clus>
<clus scale="   49.307">  2  4  1 -1</clus>
<clus scale="  131.064">  1  3  2 -1</clus>
<clus scale="  131.064">  1  3  2 -1</clus>
</clustering>
</event>
<event>
 6    0  0.1704145E+002  0.1013032E+03  0.7546771E-02  0.1277579E+00
         21   -1    0    0  504  501  0.00000000000E+00  0.00000000000E+00  0.82062383117E+02  0.82062383117E+02  0.00000000000E+00 0. -1.
         21   -1    0    0  503  502 -0.00000000000E+00 -0.00000000000E+00 -0.81761254047E+03  0.81761254047E+03  0.00000000000E+00 0. -1.
         21    1    1    2  503  505 -0.28539637504E+02  0.14308587422E+02 -0.13065762508E+03  0.13450153001E+03  0.00000000000E+00 0.  1.
         21    1    1    2  504  506  0.39962153094E+02 -0.87584496755E+02 -0.43707104014E+02  0.10572761556E+03  0.00000000000E+00 0. -1.
         21    1    1    2  505  501 -0.30630742209E+02 -0.17953449669E+02  0.38607188248E+02  0.52450774138E+02  0.00000000000E+00 0. -1.
         21    1    1    2  506  502  0.19208226620E+02  0.91229359001E+02 -0.59979261650E+03  0.60699500387E+03  0.00000000000E+00 0. -1.
<scales pt_clust_3="31.92564" pt_clust_4="101.30322" pt_clust_5="35.68119" pt_clust_6="14000.00000"></scales>
<clustering>
<clus scale="   31.926">  2  3  1 -1</clus>
<clus scale="   35.681">  1  5  2 -1</clus>
<clus scale="  101.303">  1  4  2 -1</clus>
<clus scale="   35.681">  1  3  2 -1</clus>
</clustering>
</event>
<event>
 6    0  0.1704145E+002  0.1040034E+03  0.7546771E-02  0.1272096E+00
         21   -1    0    0  505  501  0.00000000000E+00  0.00000000000E+00  0.66055593308E+02  0.66055593308E+02  0.00000000000E+00 0.  1.
         21   -1    0    0  504  502 -0.00000000000E+00 -0.00000000000E+00 -0.22109233380E+04  0.22109233380E+04  0.00000000000E+00 0. -1.
         21    1    1    2  503  502 -0.53436506922E+02 -0.45223445792E+02 -0.12379998405E+04  0.12399775101E+04  0.00000000000E+00 0. -1.
         21    1    1    2  504  501  0.14906821304E+02  0.32003309320E+02 -0.19841260510E+03  0.20152912194E+03  0.00000000000E+00 0.  1.
         21    1    1    2  505  506  0.93280221549E+02  0.17786370399E+02  0.26403033855E+02  0.98563050383E+02  0.00000000000E+00 0.  1.
         21    1    1    2  506  503 -0.54750535930E+02 -0.45662339270E+01 -0.73485833288E+03  0.73690924887E+03  0.00000000000E+00 0. -1.
<scales pt_clust_3="41.05618" pt_clust_4="35.30475" pt_clust_5="95.33246" pt_clust_6="41.05618"></scales>
<clustering>
<clus scale="   35.305">  2  4  1 -1</clus>
<clus scale="   41.056">  3  6 -1 -1</clus>
<clus scale="   95.332">  1  5  2 -1</clus>
<clus scale="   95.332">  1  3  2 -1</clus>
</clustering>
</event>
<event>
 6    0  0.1704145E+002  0.7169387E+02  0.7546771E-02  0.1354426E+00
         21   -1    0    0  506  501  0.00000000000E+00  0.00000000000E+00  0.68705422398E+02  0.68705422398E+02  0.00000000000E+00 0. -1.
         21   -1    0    0  505  502 -0.00000000000E+00 -0.00000000000E+00 -0.35255176023E+03  0.35255176023E+03  0.00000000000E+00 0. -1.
         21    1    1    2  503  502 -0.46811758682E+02 -0.51470239856E+02 -0.14732982741E+03  0.16293128732E+03  0.00000000000E+00 0. -1.
         21    1    1    2  504  501 -0.18287253104E+01  0.35137577744E+02  0.19445561923E+02  0.40201038351E+02  0.00000000000E+00 0. -1.
         21    1    1    2  505  504 -0.40331959548E+02  0.43085438148E+02 -0.69891658382E+02  0.91476039774E+02  0.00000000000E+00 0. -1.
         21    1    1    2  506  503  0.88972443541E+02 -0.26752776036E+02 -0.86070413963E+02  0.12664881719E+03  0.00000000000E+00 0. -1.
<scales pt_clust_3="64.79991" pt_clust_4="35.18513" pt_clust_5="71.69387" pt_clust_6="14000.00000"></scales>
<clustering>
<clus scale="   35.185">  1  4  2 -1</clus>
<clus scale="   64.800">  2  3  1 -1</clus>
<clus scale="   71.694">  2  5  1 -1</clus>
<clus scale="   35.185">  1  3  2 -1</clus>
</clustering>
</event>
<event>
 6    0  0.1704145E+002  0.1167295E+03  0.7546771E-02  0.1248592E+00
         21   -1    0    0  503  501  0.00000000000E+00  0.00000000000E+00  0.50354508212E+02  0.50354508212E+02  0.00000000000E+00 0. -1.
         21   -1    0    0  506  502 -0.00000000000E+00 -0.00000000000E+00 -0.16110860329E+04  0.16110860329E+04  0.00000000000E+00 0. -1.
         21    1    1    2  503  502 -0.27019610711E+02  0.96876148088E+02 -0.48873977954E+03  0.49898058032E+03  0.00000000000E+00 0. -1.
         21    1    1    2  504  505 -0.56012883868E+02 -0.36399337912E+02 -0.41898935653E+03  0.42428108117E+03  0.00000000000E+00 0.  1.
         21    1    1    2  505  501  0.10849696382E+03 -0.65066966588E+01 -0.30593096412E+02  0.11291530369E+03  0.00000000000E+00 0. -1.
         21    1    1    2  506  504 -0.25464469245E+02 -0.53970113518E+02 -0.62240929226E+03  0.62526357597E+03  0.00000000000E+00 0. -1.
<scales pt_clust_3="100.57359" pt_clust_4="44.60992" pt_clust_5="106.76200" pt_clust_6="44.60992"></scales>
<clustering>
<clus scale="   44.610">  4  6 -1 -1</clus>
<clus scale="  100.574">  2  3  1 -1</clus>
<clus scale="  106.762">  1  5  2 -1</clus>
<clus scale="  106.762">  1  3  2 -1</clus>
</clustering>
</event>
<event>
 6    0  0.4692056E+002  0.1950249E+03  0.7546771E-02  0.1154006E+00
         21   -1    0    0  505  501  0.00000000000E+00  0.00000000000E+00  0.20238836061E+03  0.20238836061E+03  0.00000000000E+00 0.  1.
         21   -1    0    0  506  502 -0.00000000000E+00 -0.00000000000E+00 -0.11788484426E+04  0.11788484426E+04  0.00000000000E+00 0.  1.
         21    1    1    2  503  501 -0.11231692119E+03 -0.91365640858E+02  0.70287143871E+02  0.16094425652E+03  0.00000000000E+00 0.  1.
         21    1    1    2  504  503 -0.19747753775E+02 -0.28093667879E+02 -0.15202211295E+02  0.37554429596E+02  0.00000000000E+00 0.  1.
         21    1    1    2  505  502 -0.23071445592E+02  0.22148101952E+02  0.64237413870E+02  0.71758451506E+02  0.00000000000E+00 0.  1.
         21    1    1    2  506  504  0.15513612055E+03  0.97311206785E+02 -0.10957824285E+04  0.11109796656E+04  0.00000000000E+00 0.  1.
<scales pt_clust_3="32.43307" pt_clust_4="32.43307" pt_clust_5="31.98171" pt_clust_6="182.69902"></scales>
<clustering>
<clus scale="   31.982">  1  5  2 -1</clus>
<clus scale="   32.433">  3  4 -1 -1</clus>
<clus scale="  182.699">  2  6  1 -1</clus>
<clus scale="   31.982">  1  3  2 -1</clus>
</clustering>
</event>
<event>
 6    0  0.1704145E+002  0.8687928E+02  0.7546771E-02  0.1310590E+00
         21   -1    0    0  505  501  0.00000000000E+00  0.00000000000E+00  0.36850236616E+02  0.36850236616E+02  0.00000000000E+00 0.  1.
         21   -1    0    0  504  502 -0.00000000000E+00 -0.00000000000E+00 -0.14022396220E+04  0.14022396220E+04  0.00000000000E+00 0.  1.
         21    1    1    2  503  502  0.46550655498E+02 -0.29376982300E+02 -0.92207682355E+03  0.92371837653E+03  0.00000000000E+00 0.  1.
         21    1    1    2  504  501  0.29163826994E+02 -0.11775030501E+02 -0.13400913531E+03  0.13765038501E+03  0.00000000000E+00 0.  1.
         21    1    1    2  505  506  0.32087527805E+02 -0.22097091753E+02  0.51873537703E+01  0.39303938018E+02  0.00000000000E+00 0.  1.
         21    1    1    2  506  503 -0.10780201030E+03  0.63249104553E+02 -0.31449078033E+03  0.33841715908E+03  0.00000000000E+00 0.  1.
<scales pt_clust_3="86.87928" pt_clust_4="31.45123" pt_clust_5="39.37372" pt_clust_6="14000.00000"></scales>
<clustering>
<clus scale="   31.451">  2  4  1 -1</clus>
<clus scale="   39.374">  1  5  2 -1</clus>
<clus scale="   86.879">  2  3  1 -1</clus>
<clus scale="   39.374">  1  3  2 -1</clus>
</clustering>
</event>
<event>
 6    0  0.1704145E+002  0.3358760E+03  0.7546771E-02  0.1068566E+00
         21   -1    0    0  505  501  0.00000000000E+00  0.00000000000E+00  0.23322410364E+04  0.23322410364E+04  0.00000000000E+00 0.  1.
         21   -1    0    0  506  502 -0.00000000000E+00 -0.00000000000E+00 -0.11899485785E+04  0.11899485785E+04  0.00000000000E+00 0.  1.
         21    1    1    2  503  501 -0.21571942434E+02 -0.51550772818E+02  0.13250204072E+02  0.57431687999E+02  0.00000000000E+00 0.  1.
         21    1    1    2  504  502  0.33408182333E+03 -0.87487135010E+02 -0.10024443951E+04  0.10602638486E+04  0.00000000000E+00 0.  1.
         21    1    1    2  505  504 -0.50239096070E+02  0.16321588970E+02  0.21137297160E+04  0.21143896693E+04  0.00000000000E+00 0.  1.
         21    1    1    2  506  503 -0.26227078482E+03  0.12271631886E+03  0.17756932936E+02  0.29010440905E+03  0.00000000000E+00 0. -1.
<scales pt_clust_3="57.22376" pt_clust_4="335.87600" pt_clust_5="52.82387" pt_clust_6="14000.00000"></scales>
<clustering>
<clus scale="   52.824">  1  5  2 -1</clus>
<clus scale="   57.224">  1  3  2 -1</clus>
<clus scale="  335.876">  2  4  1 -1</clus>
<clus scale="   52.824">  1  3  2 -1</clus>
</clustering>
</event>
<event>
 6    0  0.1704145E+002  0.8605220E+02  0.7546771E-02  0.1312704E+00
         21   -1    0    0  504  501  0.00000000000E+00  0.00000000000E+00  0.44866675063E+03  0.44866675063E+03  0.00000000000E+00 0. -1.
         21   -1    0    0  505  502 -0.00000000000E+00 -0.00000000000E+00 -0.32369648016E+03  0.32369648016E+03  0.00000000000E+00 0.  1.
         21    1    1    2  503  501  0.49832889541E+01 -0.53398198392E+02  0.37293182075E+03  0.37676828912E+03  0.00000000000E+00 0. -1.
         21    1    1    2  504  506  0.30274045356E+02 -0.22964916651E+02  0.66948220190E+01  0.38584010430E+02  0.00000000000E+00 0.  1.
         21    1    1    2  505  503 -0.93896352082E+02  0.78179573706E+02 -0.31369150499E+02  0.12614513182E+03  0.00000000000E+00 0.  1.
         21    1    1    2  506  502  0.58639017771E+02 -0.18164586628E+01 -0.22328722179E+03  0.23086579942E+03  0.00000000000E+00 0.  1.
<scales pt_clust_3="86.05220" pt_clust_4="37.99875" pt_clust_5="14000.00000" pt_clust_6="58.94294"></scales>
<clustering>
<clus scale="   37.999">  1  4  2 -1</clus>
<clus scale="   58.943">  2  6  1 -1</clus>
<clus scale="   86.052">  1  3  2 -1</clus>
<clus scale="   37.999">  1  3  2 -1</clus>
</clustering>
</event>
<event>
 6    0  0.1704145E+002  0.9526639E+02  0.7546771E-02  0.1290577E+00
         21   -1    0    0  505  501  0.00000000000E+00  0.00000000000E+00  0.18431300579E+03  0.18431300579E+03  0.00000000000E+00 0. -1.
         21   -1    0    0  503  502 -0.00000000000E+00 -0.00000000000E+00 -0.17155947810E+03  0.17155947810E+03  0.00000000000E+00 0. -1.
         21    1    1    2  503  501  0.70174518569E+02  0.67725396819E+02 -0.33066113312E+02  0.10297844571E+03  0.00000000000E+00 0. -1.
         21    1    1    2  504  506 -0.53032363434E+02  0.23513178405E+02 -0.22392164289E+02  0.62182876676E+02  0.00000000000E+00 0. -1.
         21    1    1    2  505  504  0.16822815506E+02 -0.76766966647E+02  0.10984680421E+03  0.13506477959E+03  0.00000000000E+00 0. -1.
         21    1    1    2  506  502 -0.33964970641E+02 -0.14471608577E+02 -0.41634998923E+02  0.55646381919E+02  0.00000000000E+00 0. -1.
<scales pt_clust_3="83.31695" pt_clust_4="36.85241" pt_clust_5="78.58864" pt_clust_6="36.85241"></scales>
<clustering>
<clus scale="   36.852">  4  6 -1 -1</clus>
<clus scale="   78.589">  1  5  2 -1</clus>
<clus scale="   83.317">  1  3  2 -1</clus>
<clus scale="   78.589">  1  3  2 -1</clus>
</clustering>
</event>
<event>
 6    0  0.1704145E+002  0.8038567E+02  0.7546771E-02  0.1327961E+00
         21   -1    0    0  503  501  0.00000000000E+00  0.00000000000E+00  0.40397147347E+03  0.40397147347E+03  0.00000000000E+00 0. -1.
         21   -1    0    0  506  502 -0.00000000000E+00 -0.00000000000E+00 -0.98474451503E+02  0.98474451503E+02  0.00000000000E+00 0.  1.
         21    1    1    2  503  505 -0.10049829757E+03  0.34705855649E+02  0.28390177793E+03  0.30315775389E+03  0.00000000000E+00 0. -1.
         21    1    1    2  504  501  0.30510115897E+02 -0.50837250883E+02  0.65503593048E+02  0.88351649399E+02  0.00000000000E+00 0.  1.
         21    1    1    2  505  502  0.36918612307E+02 -0.18738918746E+02  0.57875620113E+01  0.41804627548E+02  0.00000000000E+00 0. -1.
         21    1    1    2  506  504  0.33069569363E+02  0.34870313980E+02 -0.49695911022E+02  0.69131894139E+02  0.00000000000E+00 0.  1.
<scales pt_clust_3="14000.00000" pt_clust_4="80.38567" pt_clust_5="41.40207" pt_clust_6="63.89094"></scales>
<clustering>
<clus scale="   41.402">  2  5  1 -1</clus>
<clus scale="   63.891">  2  6  1 -1</clus>
<clus scale="   80.386">  2  4  1 -1</clus>
<clus scale="   80.386">  1  3  2 -1</clus>
</clustering>
</event>
<event>
 6    0  0.1704145E+002  0.1948639E+03  0.7546771E-02  0.1154146E+00
         21   -1    0    0  503  501  0.00000000000E+00  0.00000000000E+00  0.19346970671E+04  0.19346970671E+04  0.00000000000E+00 0.  1.
         21   -1    0    0  505  502 -0.00000000000E+00 -0.00000000000E+00 -0.13975139824E+03  0.13975139824E+03  0.00000000000E+00 0.  1.
         21    1    1    2  503  504  0.60669673565E+02  0.11046640279E+03  0.28022039665E+03  0.30725739395E+03  0.00000000000E+00 0.  1.
         21    1    1    2  504  506  0.25437502389E+01  0.62654233924E+02  0.20277427320E+03  0.21224850899E+03  0.00000000000E+00 0. -1.
         21    1    1    2  505  501  0.11048487040E+02 -0.19306589676E+03  0.14140024647E+04  0.14271648397E+04  0.00000000000E+00 0.  1.
         21    1    1    2  506  502 -0.74261910844E+02  0.19945260047E+02 -0.10205146562E+03  0.12777772276E+03  0.00000000000E+00 0.  1.
<scales pt_clust_3="36.21397" pt_clust_4="36.21397" pt_clust_5="187.97903" pt_clust_6="76.89372"></scales>
<clustering>
<clus scale="   36.214">  3  4 -1 -1</clus>
<clus scale="   76.894">  2  6  1 -1</clus>
<clus scale="  187.979">  1  5  2 -1</clus>
<clus scale="  187.979">  1  3  2 -1</clus>
</clustering>
</event>
<event>
 6    0  0.1704145E+002  0.1295066E+03  0.7546771E-02  0.1228190E+00
         21   -1    0    0  505  501  0.00000000000E+00  0.00000000000E+00  0.21874694843E+03  0.21874694843E+03  0.00000000000E+00 0.  1.
         21   -1    0    0  504  502 -0.00000000000E+00 -0.00000000000E+00 -0.13690899445E+04  0.13690899445E+04  0.00000000000E+00 0.  1.
         21    1    1    2  503  506 -0.53072382783E+02  0.24551093707E+02 -0.41677325373E+03  0.42085553227E+03  0.00000000000E+00 0. -1.
         21    1    1    2  504  503 -0.48973951121E+02  0.43882286239E+02 -0.88346620316E+03  0.88591006036E+03  0.00000000000E+00 0.  1.
         21    1    1    2  505  502  0.43555366864E+02 -0.45598879132E+02  0.19422841650E+03  0.20420824062E+03  0.00000000000E+00 0.  1.
         21    1    1    2  506  501  0.58490967039E+02 -0.22834500815E+02 -0.44331955727E+02  0.76863059731E+02  0.00000000000E+00 0.  1.
<scales pt_clust_3="41.28911" pt_clust_4="41.28911" pt_clust_5="121.88052" pt_clust_6="62.79019"></scales>
<clustering>
<clus scale="   41.289">  3  4 -1 -1</clus>
<clus scale="   62.790">  1  6  2 -1</clus>
<clus scale="  121.881">  1  5  2 -1</clus>
<clus scale="   62.790">  1  3  2 -1</clus>
</clustering>
</event>
<event>
 6    0  0.1704145E+002  0.6956019E+02  0.7546771E-02  0.1361595E+00
         21   -1    0    0  503  501  0.00000000000E+00  0.00000000000E+00  0.20198984138E+03  0.20198984138E+03  0.00000000000E+00 0. -1.
         21   -1    0    0  504  502 -0.00000000000E+00 -0.00000000000E+00 -0.28181828421E+03  0.28181828421E+03  0.00000000000E+00 0. -1.
         21    1    1    2  503  506  0.60990577484E+00  0.90798869835E+02  0.14737607547E+03  0.17310261226E+03  0.00000000000E+00 0. -1.
         21    1    1    2  504  505 -0.30759091356E+02 -0.44474994075E+01 -0.36204341901E+02  0.47714319910E+02  0.00000000000E+00 0. -1.
         21    1    1    2  505  501 -0.41140857536E+02 -0.37869274990E+02 -0.28032663908E+01  0.55986698863E+02  0.00000000000E+00 0. -1.
         21    1    1    2  506  502  0.71290043117E+02 -0.48482095438E+02 -0.18819691001E+03  0.20700449455E+03  0.00000000000E+00 0. -1.
<scales pt_clust_3="14000.00000" pt_clust_4="31.07896" pt_clust_5="59.09827" pt_clust_6="69.56019"></scales>
<clustering>
<clus scale="   31.079">  2  4  1 -1</clus>
<clus scale="   59.098">  1  5  2 -1</clus>
<clus scale="   69.560">  2  6  1 -1</clus>
<clus scale="   59.098">  1  3  2 -1</clus>
</clustering>
</event>
<event>
 6    0  0.1704145E+002  0.1716810E+03  0.7546771E-02  0.1176106E+00
         21   -1    0    0  503  501  0.00000000000E+00  0.00000000000E+00  0.32354974862E+03  0.32354974862E+03  0.00000000000E+00 0.  1.
         21   -1    0    0  506  502 -0.00000000000E+00 -0.00000000000E+00 -0.16143176888E+03  0.16143176888E+03  0.00000000000E+00 0.  1.
         21    1    1    2  503  502 -0.12820336451E+03  0.73681482499E+02 -0.28852972461E+02  0.15065708598E+03  0.00000000000E+00 0.  1.
         21    1    1    2  504  505  0.10404233165E+03 -0.12649626502E+02  0.34834292211E+02  0.11044567777E+03  0.00000000000E+00 0.  1.
         21    1    1    2  505  501 -0.61400461272E+02 -0.29108537241E+02  0.53414696813E+02  0.86431784781E+02  0.00000000000E+00 0.  1.
         21    1    1    2  506  504  0.85561494138E+02 -0.31923318756E+02  0.10272196318E+03  0.13744696897E+03  0.00000000000E+00 0.  1.
<scales pt_clust_3="157.73929" pt_clust_4="63.25936" pt_clust_5="67.95089" pt_clust_6="63.25936"></scales>
<clustering>
<clus scale="   63.259">  4  6 -1 -1</clus>
<clus scale="   67.951">  1  5  2 -1</clus>
<clus scale="  157.739">  2  3  1 -1</clus>
<clus scale="   67.951">  1  3  2 -1</clus>
</clustering>
</event>
<event>
 6    0  0.1704145E+002  0.1781834E+03  0.7546771E-02  0.1169573E+00
         21   -1    0    0  506  501  0.00000000000E+00  0.00000000000E+00  0.42940090636E+03  0.42940090636E+03  0.00000000000E+00 0. -1.
         21   -1    0    0  503  502 -0.00000000000E+00 -0.00000000000E+00 -0.33701511429E+03  0.33701511429E+03  0.00000000000E+00 0. -1.
         21    1    1    2  503  504  0.54189602202E+02 -0.91055507912E+02 -0.35704859176E+02  0.11181437956E+03  0.00000000000E+00 0. -1.
         21    1    1    2  504  505 -0.17848074299E+02 -0.68883164291E+02  0.61555393290E+01  0.71423628746E+02  0.00000000000E+00 0. -1.
         21    1    1    2  505  501 -0.37300794572E+02 -0.12140683083E+01  0.32319763713E+03  0.32534525643E+03  0.00000000000E+00 0. -1.
         21    1    1    2  506  502  0.95926666922E+00  0.16115274051E+03 -0.20126252522E+03  0.25783275592E+03  0.00000000000E+00 0. -1.
<scales pt_clust_3="66.44550" pt_clust_4="66.44550" pt_clust_5="37.32055" pt_clust_6="161.08202"></scales>
<clustering>
<clus scale="   37.321">  1  5  2 -1</clus>
<clus scale="   66.445">  3  4 -1 -1</clus>
<clus scale="  161.082">  2  6  1 -1</clus>
<clus scale="   37.321">  1  3  2 -1</clus>
</clustering>
</event>
<event>
 6    0  0.1704145E+002  0.1395262E+03  0.7546771E-02  0.1213968E+00
         21   -1    0    0  505  501  0.00000000000E+00  0.00000000000E+00  0.25111093134E+04  0.25111093134E+04  0.00000000000E+00 0. -1.
         21   -1    0    0  506  502 -0.00000000000E+00 -0.00000000000E+00 -0.25633021758E+03  0.25633021758E+03  0.00000000000E+00 0.  1.
         21    1    1    2  503  502 -0.14810124080E+03 -0.18405604632E+02 -0.17354290076E+02  0.15024618195E+03  0.00000000000E+00 0.  1.
         21    1    1    2  504  501  0.33289428569E+02  0.29802294603E+02  0.17110624270E+01  0.44713426984E+02  0.00000000000E+00 0.  1.
         21    1    1    2  505  503 -0.18704640078E+02 -0.32182235962E+02  0.23910534036E+04  0.23913431245E+04  0.00000000000E+00 0. -1.
         21    1    1    2  506  504  0.13351645231E+03  0.20785545991E+02 -0.12063108013E+03  0.18113679762E+03  0.00000000000E+00 0.  1.
<scales pt_clust_3="14000.00000" pt_clust_4="37.89312" pt_clust_5="37.22311" pt_clust_6="139.52620"></scales>
<clustering>
<clus scale="   37.223">  1  5  2 -1</clus>
<clus scale="   37.893">  1  4  2 -1</clus>
<clus scale="  139.526">  2  6  1 -1</clus>
<clus scale="   37.223">  1  3  2 -1</clus>
</clustering>
</event>
<event>
 6    0  0.1704145E+002  0.1947410E+03  0.7546771E-02  0.1154253E+00
         21   -1    0    0  506  501  0.00000000000E+00  0.00000000000E+00  0.45065341681E+03  0.45065341681E+03  0.00000000000E+00 0. -1.
         21   -1    0    0  505  502 -0.00000000000E+00 -0.00000000000E+00 -0.47440250116E+03  0.47440250116E+03  0.00000000000E+00 0. -1.
         21    1    1    2  503  502 -0.17594036753E+03 -0.10987786642E+03 -0.23134244025E+03  0.31072090872E+03  0.00000000000E+00 0. -1.
         21    1    1    2  504  501 -0.35082648375E+01  0.68243876445E+02 -0.19411794876E+02  0.71037682779E+02  0.00000000000E+00 0. -1.
         21    1    1    2  505  504  0.16273074645E+03  0.75137031612E+02 -0.10597090018E+03  0.20822271981E+03  0.00000000000E+00 0. -1.
         21    1    1    2  506  503  0.16717885917E+02 -0.33503041637E+02  0.33297605096E+03  0.33507460665E+03  0.00000000000E+00 0. -1.
<scales pt_clust_3="14000.00000" pt_clust_4="60.82905" pt_clust_5="194.74100" pt_clust_6="37.44251"></scales>
<clustering>
<clus scale="   37.443">  1  6  2 -1</clus>
<clus scale="   60.829">  1  4  2 -1</clus>
<clus scale="  194.741">  1  5  2 -1</clus>
<clus scale="   37.443">  1  3  2 -1</clus>
</clustering>
</event>
<event>
 6    0  0.1704145E+002  0.7990340E+02  0.7546771E-02  0.1329326E+00
         21   -1    0    0  506  501  0.00000000000E+00  0.00000000000E+00  0.83232495544E+03  0.83232495544E+03  0.00000000000E+00 0. -1.
         21   -1    0    0  505  502 -0.00000000000E+00 -0.00000000000E+00 -0.26639059101E+03  0.26639059101E+03  0.00000000000E+00 0. -1.
         21    1    1    2  503  502  0.18602242853E+02 -0.76771575494E+02 -0.17248709897E+03  0.18971483219E+03  0.00000000000E+00 0. -1.
         21    1    1    2  504  503 -0.11722616549E+03  0.37075718373E+02  0.18011307277E+02  0.12426177996E+03  0.00000000000E+00 0. -1.
         21    1    1    2  505  501  0.36746980888E+02  0.39040398714E+02 -0.75589295129E+01  0.54144535749E+02  0.00000000000E+00 0. -1.
         21    1    1    2  506  504  0.61876941751E+02  0.65545840641E+00  0.72796908563E+03  0.73059439854E+03  0.00000000000E+00 0. -1.
<scales pt_clust_3="79.90340" pt_clust_4="14000.00000" pt_clust_5="53.61430" pt_clust_6="62.08787"></scales>
<clustering>
<clus scale="   53.614">  2  5  1 -1</clus>
<clus scale="   62.088">  1  6  2 -1</clus>
<clus scale="   79.903">  2  3  1 -1</clus>
<clus scale="   62.088">  1  3  2 -1</clus>
</clustering>
</event>
<event>
 6    0  0.1704145E+002  0.2018530E+03  0.7546771E-02  0.1148185E+00
         21   -1    0    0  503  501  0.00000000000E+00  0.00000000000E+00  0.36621926089E+03  0.36621926089E+03  0.00000000000E+00 0. -1.
         21   -1    0    0  506  502 -0.00000000000E+00 -0.00000000000E+00 -0.33449950108E+03  0.33449950108E+03  0.00000000000E+00 0.  1.
         21    1    1    2  503  505  0.13160151382E+03 -0.15266922921E+03  0.26246417513E+03  0.33092944144E+03  0.00000000000E+00 0. -1.
         21    1    1    2  504  501 -0.41881386744E+02  0.75596068728E+02 -0.50635892445E+02  0.10016391449E+03  0.00000000000E+00 0.  1.
         21    1    1    2  505  502 -0.10045617936E+03 -0.19353117594E+02 -0.10784433273E+03  0.14864853593E+03  0.00000000000E+00 0.  1.
         21    1    1    2  506  504  0.10736052287E+02  0.96426278077E+02 -0.72264190145E+02  0.12097687010E+03  0.00000000000E+00 0.  1.
<scales pt_clust_3="193.66861" pt_clust_4="53.69767" pt_clust_5="102.30341" pt_clust_6="53.69767"></scales>
<clustering>
<clus scale="   53.698">  4  6 -1 -1</clus>
<clus scale="  102.303">  2  5  1 -1</clus>
<clus scale="  193.669">  1  3  2 -1</clus>
<clus scale="  193.669">  1  3  2 -1</clus>
</clustering>
</event>
<event>
 6    0  0.1704145E+002  0.1596176E+03  0.7546771E-02  0.1189129E+00
         21   -1    0    0  505  501  0.00000000000E+00  0.00000000000E+00  0.16152785009E+03  0.16152785009E+03  0.00000000000E+00 0.  1.
         21   -1    0    0  503  502 -0.00000000000E+00 -0.00000000000E+00 -0.22030498417E+03  0.22030498417E+03  0.00000000000E+00 0. -1.
         21    1    1    2  503  506 -0.34686311129E+02  0.56030445045E+02 -0.11567087125E+02  0.66905518878E+02  0.00000000000E+00 0. -1.
         21    1    1    2  504  502  0.14779099651E+03 -0.91639212484E+02  0.12227053106E+01  0.17390060070E+03  0.00000000000E+00 0.  1.
         21    1    1    2  505  504 -0.45962896704E+02 -0.12130886195E+02 -0.47371909990E+01  0.47772243530E+02  0.00000000000E+00 0. -1.
         21    1    1    2  506  501 -0.67141788678E+02  0.47739653635E+02 -0.43695561263E+02  0.93254471153E+02  0.00000000000E+00 0. -1.
<scales pt_clust_3="34.17446" pt_clust_4="154.97653" pt_clust_5="47.53679" pt_clust_6="34.17446"></scales>
<clustering>
<clus scale="   34.174">  3  6 -1 -1</clus>
<clus scale="   47.537">  1  5  2 -1</clus>
<clus scale="  154.977">  1  4  2 -1</clus>
<clus scale="   47.537">  1  3  2 -1</clus>
</clustering>
</event>
<event>
 6    0  0.1704145E+002  0.2981519E+03  0.7546771E-02  0.1086168E+00
         21   -1    0    0  505  501  0.00000000000E+00  0.00000000000E+00  0.93018329116E+03  0.93018329116E+03  0.00000000000E+00 0.  1.
         21   -1    0    0  504  502 -0.00000000000E+00 -0.00000000000E+00 -0.43850971223E+03  0.43850971223E+03  0.00000000000E+00 0. -1.
         21    1    1    2  503  502  0.30059300254E+03 -0.64102503532E+02 -0.22716768019E+03  0.38219162610E+03  0.00000000000E+00 0. -1.
         21    1    1    2  504  506 -0.28553389796E+03 -0.35234731806E+02  0.71594525025E+02  0.29647406163E+03  0.00000000000E+00 0. -1.
         21    1    1    2  505  503 -0.38329971006E+02  0.13750777416E+03  0.62305055493E+03  0.63919446855E+03  0.00000000000E+00 0.  1.
         21    1    1    2  506  501  0.23270866420E+02 -0.38170538826E+02  0.24196179161E+02  0.50832847099E+02  0.00000000000E+00 0. -1.
<scales pt_clust_3="298.15187" pt_clust_4="14000.00000" pt_clust_5="112.66543" pt_clust_6="44.70485"></scales>
<clustering>
<clus scale="   44.705">  1  6  2 -1</clus>
<clus scale="  112.665">  1  5  2 -1</clus>
<clus scale="  298.152">  2  3  1 -1</clus>
<clus scale="   44.705">  1  3  2 -1</clus>
</clustering>
</event>
<event>
 6    0  0.1704145E+002  0.2505990E+03  0.7546771E-02  0.1112927E+00
         21   -1    0    0  505  501  0.00000000000E+00  0.00000000000E+00  0.37660736626E+03  0.37660736626E+03  0.00000000000E+00 0. -1.
         21   -1    0    0  504  502 -0.00000000000E+00 -0.00000000000E+00 -0.82321852203E+03  0.82321852203E+03  0.00000000000E+00 0. -1.
         21    1    1    2  503  502  0.36651857270E+01  0.17794372055E+03 -0.64715892314E+03  0.67118706265E+03  0.00000000000E+00 0. -1.
         21    1    1    2  504  506  0.83442518333E+02  0.70244352431E+02 -0.66959539411E+02  0.12798633846E+03  0.00000000000E+00 0.  1.
         21    1    1    2  505  503 -0.52176884881E+02 -0.22993992700E+03  0.27315018936E+03  0.36084044021E+03  0.00000000000E+00 0. -1.
         21    1    1    2  506  501 -0.34930819178E+02 -0.18248145981E+02 -0.56428825809E+01  0.39812046971E+02  0.00000000000E+00 0.  1.
<scales pt_clust_3="250.59898" pt_clust_4="105.81008" pt_clust_5="14000.00000" pt_clust_6="39.41011"></scales>
<clustering>
<clus scale="   39.410">  1  6  2 -1</clus>
<clus scale="  105.810">  2  4  1 -1</clus>
<clus scale="  250.599">  2  3  1 -1</clus>
<clus scale="   39.410">  1  3  2 -1</clus>
</clustering>
</event>
<event>
 6    0  0.1704145E+002  0.2425249E+03  0.7546771E-02  0.1118122E+00
         21   -1    0    0  506  501  0.00000000000E+00  0.00000000000E+00  0.28759882595E+03  0.28759882595E+03  0.00000000000E+00 0.  1.
         21   -1    0    0  505  502 -0.00000000000E+00 -0.00000000000E+00 -0.14363097491E+04  0.14363097491E+04  0.00000000000E+00 0. -1.
         21    1    1    2  503  502  0.19102669367E+02  0.10328318428E+03 -0.42745928363E+03  0.44017470088E+03  0.00000000000E+00 0. -1.
         21    1    1    2  504  501 -0.91084869457E+01 -0.23671836848E+03  0.21697836396E+03  0.32124470570E+03  0.00000000000E+00 0.  1.
         21    1    1    2  505  504  0.69549949955E+01 -0.37019676874E+02 -0.98292382349E+02  0.10526262803E+03  0.00000000000E+00 0.  1.
         21    1    1    2  506  503 -0.16949177416E+02  0.17045486108E+03 -0.83993762114E+03  0.85722654047E+03  0.00000000000E+00 0. -1.
<scales pt_clust_3="35.17588" pt_clust_4="238.32842" pt_clust_5="37.66734" pt_clust_6="35.17588"></scales>
<clustering>
<clus scale="   35.176">  3  6 -1 -1</clus>
<clus scale="   37.667">  2  5  1 -1</clus>
<clus scale="  238.328">  1  4  2 -1</clus>
<clus scale="  238.328">  1  3  2 -1</clus>
</clustering>
</event>
<event>
 6    0  0.1704145E+002  0.8869583E+02  0.7546771E-02  0.1306041E+00
         21   -1    0    0  505  501  0.00000000000E+00  0.00000000000E+00  0.14516368522E+03  0.14516368522E+03  0.00000000000E+00 0.  1.
         21   -1    0    0  504  502 -0.00000000000E+00 -0.00000000000E+00 -0.70655922398E+03  0.70655922398E+03  0.00000000000E+00 0. -1.
         21    1    1    2  503  502 -0.31226184665E+02  0.85678390978E+02 -0.43826366066E+03  0.44765041891E+03  0.00000000000E+00 0. -1.
         21    1    1    2  504  506 -0.35597458107E+02 -0.92478292625E+02 -0.13617348183E+03  0.16841208622E+03  0.00000000000E+00 0.  1.
         21    1    1    2  505  503  0.43759811550E+02  0.61835243203E+02 -0.89355325137E+02  0.11714475037E+03  0.00000000000E+00 0.  1.
         21    1    1    2  506  501  0.23063831222E+02 -0.55035341556E+02  0.10239692887E+03  0.11851565371E+03  0.00000000000E+00 0.  1.
<scales pt_clust_3="14000.00000" pt_clust_4="88.69583" pt_clust_5="66.27602" pt_clust_6="59.67268"></scales>
<clustering>
<clus scale="   59.673">  1  6  2 -1</clus>
<clus scale="   66.276">  1  5  2 -1</clus>
<clus scale="   88.696">  1  4  2 -1</clus>
<clus scale="   59.673">  1  3  2 -1</clus>
</clustering>
</event>
<event>
 6    0  0.1704145E+002  0.1114088E+03  0.7546771E-02  0.1257983E+00
         21   -1    0    0  505  501  0.00000000000E+00  0.00000000000E+00  0.39759370572E+02  0.39759370572E+02  0.00000000000E+00 0.  1.
         21   -1    0    0  506  502 -0.00000000000E+00 -0.00000000000E+00 -0.51477653232E+03  0.51477653232E+03  0.00000000000E+00 0.  1.
         21    1    1    2  503  501 -0.36101701597E+02  0.47718638335E+02 -0.11002935359E+03  0.12524719539E+03  0.00000000000E+00 0.  1.
         21    1    1    2  504  502  0.54508763973E+02 -0.87269565598E+02 -0.25098857053E+03  0.27126084304E+03  0.00000000000E+00 0.  1.
         21    1    1    2  505  504  0.38167140178E+02  0.21949349031E+02 -0.23633751489E+02  0.49970578561E+02  0.00000000000E+00 0.  1.
         21    1    1    2  506  503 -0.56574202554E+02  0.17601578232E+02 -0.90365486147E+02  0.10805728591E+03  0.00000000000E+00 0.  1.
<scales pt_clust_3="37.46228" pt_clust_4="104.85512" pt_clust_5="44.02845" pt_clust_6="37.46228"></scales>
<clustering>
<clus scale="   37.462">  3  6 -1 -1</clus>
<clus scale="   44.028">  1  5  2 -1</clus>
<clus scale="  104.855">  2  4  1 -1</clus>
<clus scale="   44.028">  1  3  2 -1</clus>
</clustering>
</event>
<event>
 6    0  0.1704145E+002  0.1085099E+03  0.7546771E-02  0.1263354E+00
         21   -1    0    0  502  501  0.00000000000E+00  0.00000000000E+00  0.28049066122E+02  0.28049066122E+02  0.00000000000E+00 0. -1.
         21   -1    0    0  505  502 -0.00000000000E+00 -0.00000000000E+00 -0.23544019978E+04  0.23544019978E+04  0.00000000000E+00 0.  1.
         21    1    1    2  503  501 -0.10067241494E+03  0.39844614881E+02 -0.10896474010E+03  0.15360938464E+03  0.00000000000E+00 0. -1.
         21    1    1    2  504  506  0.31718454537E+02  0.34261794503E+02 -0.32584278974E+03  0.32917085920E+03  0.00000000000E+00 0.  1.
         21    1    1    2  505  504  0.22394296272E+02 -0.78314394318E+02 -0.17182756439E+04  0.17202051730E+04  0.00000000000E+00 0.  1.
         21    1    1    2  506  503  0.46559664127E+02  0.42079849345E+01 -0.17326975794E+03  0.17946564707E+03  0.00000000000E+00 0. -1.
<scales pt_clust_3="98.91422" pt_clust_4="44.58509" pt_clust_5="81.45335" pt_clust_6="44.58509"></scales>
<clustering>
<clus scale="   44.585">  4  6 -1 -1</clus>
<clus scale="   81.453">  2  5  1 -1</clus>
<clus scale="   98.914">  1  3  2 -1</clus>
<clus scale="   98.914">  1  3  2 -1</clus>
</clustering>
</event>
<event>
 6    0  0.1704145E+002  0.1063421E+03  0.7546771E-02  0.1267498E+00
         21   -1    0    0  505  501  0.00000000000E+00  0.00000000000E+00  0.10440234021E+04  0.10440234021E+04  0.00000000000E+00 0.  1.
         21   -1    0    0  504  502 -0.00000000000E+00 -0.00000000000E+00 -0.47807722308E+02  0.47807722308E+02  0.00000000000E+00 0. -1.
         21    1    1    2  503  502 -0.39915033998E+02 -0.31654192978E+02  0.11279742214E+02  0.52176914978E+02  0.00000000000E+00 0.  1.
         21    1    1    2  504  506  0.12984493127E+02  0.93531730386E+02  0.13398986561E+03  0.16392091305E+03  0.00000000000E+00 0. -1.
         21    1    1    2  505  503 -0.81588826640E+01 -0.86596605738E+02  0.81533640348E+03  0.81996279814E+03  0.00000000000E+00 0.  1.
         21    1    1    2  506  501  0.35089423536E+02  0.24719068329E+02  0.35609668474E+02  0.55770498223E+02  0.00000000000E+00 0. -1.
<scales pt_clust_3="50.94308" pt_clust_4="38.17396" pt_clust_5="90.01491" pt_clust_6="38.17396"></scales>
<clustering>
<clus scale="   38.174">  4  6 -1 -1</clus>
<clus scale="   50.943">  2  3  1 -1</clus>
<clus scale="   90.015">  1  5  2 -1</clus>
<clus scale="   90.015">  1  3  2 -1</clus>
</clustering>
</event>
<event>
 6    0  0.1704145E+002  0.9738542E+02  0.7546771E-02  0.1285892E+00
         21   -1    0    0  505  501  0.00000000000E+00  0.00000000000E+00  0.31330406183E+03  0.31330406183E+03  0.00000000000E+00 0.  1.
         21   -1    0    0  504  502 -0.00000000000E+00 -0.00000000000E+00 -0.16332832091E+03  0.16332832091E+03  0.00000000000E+00 0. -1.
         21    1    1    2  503  506 -0.66604216394E+02 -0.35849139130E+02 -0.68259901222E+02  0.10188570328E+03  0.00000000000E+00 0. -1.
         21    1    1    2  504  501  0.16966742747E+02 -0.26984586651E+02 -0.19003194101E+02  0.37110101889E+02  0.00000000000E+00 0.  1.
         21    1    1    2  505  503  0.92115083720E+02  0.38283909461E+02  0.26366942408E+03  0.28190851631E+03  0.00000000000E+00 0.  1.
         21    1    1    2  506  502 -0.42477610073E+02  0.24549816320E+02 -0.26430587832E+02  0.55728061262E+02  0.00000000000E+00 0. -1.
<scales pt_clust_3="97.38542" pt_clust_4="31.87536" pt_clust_5="14000.00000" pt_clust_6="40.75116"></scales>
<clustering>
<clus scale="   31.875">  2  4  1 -1</clus>
<clus scale="   40.751">  2  6  1 -1</clus>
<clus scale="   97.385">  2  3  1 -1</clus>
<clus scale="   97.385">  1  3  2 -1</clus>
</clustering>
</event>
<event>
 6    0  0.1704145E+002  0.7089454E+02  0.7546771E-02  0.1357077E+00
         21   -1    0    0  506  501  0.00000000000E+00  0.00000000000E+00  0.23909700783E+03  0.23909700783E+03  0.00000000000E+00 0. -1.
         21   -1    0    0  505  502 -0.00000000000E+00 -0.00000000000E+00 -0.50917839936E+03  0.50917839936E+03  0.00000000000E+00 0. -1.
         21    1    1    2  503  501 -0.71233489019E+02 -0.13347111165E+02  0.20957289540E+03  0.22175020591E+03  0.00000000000E+00 0. -1.
         21    1    1    2  504  502  0.36490785372E+02  0.72490173200E+02 -0.37183477737E+03  0.38058836594E+03  0.00000000000E+00 0. -1.
         21    1    1    2  505  503 -0.18415521640E+02 -0.32357483030E+02 -0.29148577494E+02  0.47284011201E+02  0.00000000000E+00 0.  1.
         21    1    1    2  506  504  0.53158225288E+02 -0.26785579005E+02 -0.78670932064E+02  0.98652824137E+02  0.00000000000E+00 0. -1.
<scales pt_clust_3="70.89454" pt_clust_4="51.47720" pt_clust_5="37.23088" pt_clust_6="14000.00000"></scales>
<clustering>
<clus scale="   37.231">  2  5  1 -1</clus>
<clus scale="   51.477">  2  4  1 -1</clus>
<clus scale="   70.895">  1  3  2 -1</clus>
<clus scale="   70.895">  1  3  2 -1</clus>
</clustering>
</event>
<event>
 6    0  0.1704145E+002  0.9464701E+02  0.7546771E-02  0.1291973E+00
         21   -1    0    0  503  501  0.00000000000E+00  0.00000000000E+00  0.16736657620E+04  0.16736657620E+04  0.00000000000E+00 0. -1.
         21   -1    0    0  505  502 -0.00000000000E+00 -0.00000000000E+00 -0.72976788557E+02  0.72976788557E+02  0.00000000000E+00 0.  1.
         21    1    1    2  503  504 -0.42752599217E+02 -0.47145852479E+02  0.43482800872E+02  0.77079634907E+02  0.00000000000E+00 0.  1.
         21    1    1    2  504  506 -0.82063492430E+02 -0.24903117322E+02  0.75338679236E+02  0.11415120950E+03  0.00000000000E+00 0.  1.
         21    1    1    2  505  501  0.83163117770E+02  0.98612710100E+01  0.14780979406E+04  0.14804684633E+04  0.00000000000E+00 0. -1.
         21    1    1    2  506  502  0.41652973877E+02  0.62187698791E+02  0.37695526889E+01  0.74943242798E+02  0.00000000000E+00 0.  1.
<scales pt_clust_3="35.31570" pt_clust_4="35.31570" pt_clust_5="85.30812" pt_clust_6="74.84838"></scales>
<clustering>
<clus scale="   35.316">  3  4 -1 -1</clus>
<clus scale="   74.848">  2  6  1 -1</clus>
<clus scale="   85.308">  1  5  2 -1</clus>
<clus scale="   85.308">  1  3  2 -1</clus>
</clustering>
</event>
<event>
 6    0  0.1704145E+002  0.9442521E+02  0.7546771E-02  0.1292476E+00
         21   -1    0    0  505  501  0.00000000000E+00  0.00000000000E+00  0.50304186539E+02  0.50304186539E+02  0.00000000000E+00 0.  1.
         21   -1    0    0  504  502 -0.00000000000E+00 -0.00000000000E+00 -0.89860498707E+03  0.89860498707E+03  0.00000000000E+00 0. -1.
         21    1    1    2  503  502 -0.51816009257E+02  0.15947172163E+02 -0.34112482912E+03  0.34540608008E+03  0.00000000000E+00 0. -1.
         21    1    1    2  504  501  0.62813462994E+02 -0.34295209907E+01 -0.24370702031E+03  0.25169506252E+03  0.00000000000E+00 0. -1.
         21    1    1    2  505  506  0.61921754882E+02 -0.63072660595E+01  0.14882597996E+02  0.63996695664E+02  0.00000000000E+00 0.  1.
         21    1    1    2  506  503 -0.72919208618E+02 -0.62103851126E+01 -0.27835154910E+03  0.28781133535E+03  0.00000000000E+00 0. -1.
<scales pt_clust_3="33.99094" pt_clust_4="85.76997" pt_clust_5="62.24215" pt_clust_6="33.99094"></scales>
<clustering>
<clus scale="   33.991">  3  6 -1 -1</clus>
<clus scale="   62.242">  1  5  2 -1</clus>
<clus scale="   85.770">  2  4  1 -1</clus>
<clus scale="   62.242">  1  3  2 -1</clus>
</clustering>
</event>
<event>
 6    0  0.1704145E+002  0.6747113E+02  0.7546771E-02  0.1368910E+00
         21   -1    0    0  505  501  0.00000000000E+00  0.00000000000E+00  0.90098986330E+03  0.90098986330E+03  0.00000000000E+00 0. -1.
         21   -1    0    0  504  502 -0.00000000000E+00 -0.00000000000E+00 -0.17075237689E+03  0.17075237689E+03  0.00000000000E+00 0. -1.
         21    1    1    2  503  506 -0.70319972388E+02  0.48947767539E+02  0.65941355363E+01  0.85931746678E+02  0.00000000000E+00 0. -1.
         21    1    1    2  504  501  0.73267268610E+02  0.11552473578E+02 -0.13181795197E+02  0.75334666787E+02  0.00000000000E+00 0. -1.
         21    1    1    2  505  503 -0.44733607309E+02 -0.12873698477E+02  0.81133507189E+03  0.81266932181E+03  0.00000000000E+00 0. -1.
         21    1    1    2  506  502  0.41786311086E+02 -0.47626542640E+02 -0.74509925822E+02  0.97806504917E+02  0.00000000000E+00 0. -1.
<scales pt_clust_3="67.47113" pt_clust_4="58.07564" pt_clust_5="46.54920" pt_clust_6="14000.00000"></scales>
<clustering>
<clus scale="   46.549">  1  5  2 -1</clus>
<clus scale="   58.076">  1  4  2 -1</clus>
<clus scale="   67.471">  1  3  2 -1</clus>
<clus scale="   46.549">  1  3  2 -1</clus>
</clustering>
</event>
<event>
 6    0  0.1704145E+002  0.1260218E+03  0.7546771E-02  0.1233481E+00
         21   -1    0    0  506  501  0.00000000000E+00  0.00000000000E+00  0.86029573189E+03  0.86029573189E+03  0.00000000000E+00 0.  1.
         21   -1    0    0  503  502 -0.00000000000E+00 -0.00000000000E+00 -0.10152514568E+03  0.10152514568E+03  0.00000000000E+00 0.  1.
         21    1    1    2  503  504 -0.50134939440E+02 -0.13841600493E+03  0.39459629314E+01  0.14726871086E+03  0.00000000000E+00 0.  1.
         21    1    1    2  504  505  0.59261771652E+02  0.10275183565E+03  0.20780545332E+03  0.23927599908E+03  0.00000000000E+00 0.  1.
         21    1    1    2  505  501 -0.53338790783E+02  0.24477326846E+02  0.51779618921E+03  0.52111136976E+03  0.00000000000E+00 0.  1.
         21    1    1    2  506  502  0.44211958572E+02  0.11186842438E+02  0.29222980745E+02  0.54164797868E+02  0.00000000000E+00 0.  1.
<scales pt_clust_3="126.02185" pt_clust_4="14000.00000" pt_clust_5="58.02837" pt_clust_6="45.60529"></scales>
<clustering>
<clus scale="   45.605">  2  6  1 -1</clus>
<clus scale="   58.028">  1  5  2 -1</clus>
<clus scale="  126.022">  2  3  1 -1</clus>
<clus scale="   58.028">  1  3  2 -1</clus>
</clustering>
</event>
<event>
 6    0  0.1704145E+002  0.2619187E+03  0.7546771E-02  0.1105996E+00
         21   -1    0    0  504  501  0.00000000000E+00  0.00000000000E+00  0.75566102942E+02  0.75566102942E+02  0.00000000000E+00 0.  1.
         21   -1    0    0  505  502 -0.00000000000E+00 -0.00000000000E+00 -0.13069132635E+04  0.13069132635E+04  0.00000000000E+00 0. -1.
         21    1    1    2  503  501 -0.58410145955E+01 -0.90928756750E+02 -0.42316175522E+03  0.43286028616E+03  0.00000000000E+00 0. -1.
         21    1    1    2  504  502  0.47482733560E+02  0.24127580296E+03 -0.19583535858E+03  0.31435666169E+03  0.00000000000E+00 0.  1.
         21    1    1    2  505  506 -0.44357047805E+02 -0.55306576847E+02 -0.32308075110E+03  0.33076810134E+03  0.00000000000E+00 0. -1.
         21    1    1    2  506  503  0.27153288402E+01 -0.95040469361E+02 -0.28926929569E+03  0.30449431728E+03  0.00000000000E+00 0. -1.
<scales pt_clust_3="38.40986" pt_clust_4="245.90369" pt_clust_5="47.60096" pt_clust_6="47.60096"></scales>
<clustering>
<clus scale="   38.410">  3  6 -1 -1</clus>
<clus scale="   47.601">  3  5 -1 -1</clus>
<clus scale="  245.904">  1  4  2 -1</clus>
<clus scale="  245.904">  1  3  2 -1</clus>
</clustering>
</event>
<event>
 6    0  0.1704145E+002  0.1519568E+03  0.7546771E-02  0.1198089E+00
         21   -1    0    0  505  501  0.00000000000E+00  0.00000000000E+00  0.34165323339E+02  0.34165323339E+02  0.00000000000E+00 0.  1.
         21   -1    0    0  506  502 -0.00000000000E+00 -0.00000000000E+00 -0.15268378399E+04  0.15268378399E+04  0.00000000000E+00 0.  1.
         21    1    1    2  503  501  0.95528567148E+02  0.14340915699E+02 -0.24084370463E+03  0.25949385169E+03  0.00000000000E+00 0.  1.
         21    1    1    2  504  503  0.51559607248E+02  0.31771988576E+02 -0.44881076003E+03  0.45287851646E+03  0.00000000000E+00 0.  1.
         21    1    1    2  505  502 -0.16513407388E+03 -0.11325934024E+03 -0.52066916440E+03  0.55784703930E+03  0.00000000000E+00 0.  1.
         21    1    1    2  506  504  0.18045899481E+02  0.67146435964E+02 -0.28234888751E+03  0.29078375578E+03  0.00000000000E+00 0.  1.
<scales pt_clust_3="96.59901" pt_clust_4="57.60309" pt_clust_5="138.85787" pt_clust_6="57.60309"></scales>
<clustering>
<clus scale="   57.603">  4  6 -1 -1</clus>
<clus scale="   96.599">  1  3  2 -1</clus>
<clus scale="  138.858">  1  5  2 -1</clus>
<clus scale="   96.599">  1  3  2 -1</clus>
</clustering>
</event>
<event>
 6    0  0.1704145E+002  0.2394005E+03  0.7546771E-02  0.1120193E+00
         21   -1    0    0  505  501  0.00000000000E+00  0.00000000000E+00  0.31879652668E+02  0.31879652668E+02  0.00000000000E+00 0.  1.
         21   -1    0    0  504  502 -0.00000000000E+00 -0.00000000000E+00 -0.26646444923E+04  0.26646444923E+04  0.00000000000E+00 0.  1.
         21    1    1    2  503  501 -0.14991884780E+02 -0.34384881187E+02 -0.15517377964E+03  0.15964328533E+03  0.00000000000E+00 0.  1.
         21    1    1    2  504  506 -0.78404491552E+02 -0.16005061900E+02 -0.77416748759E+03  0.77829218494E+03  0.00000000000E+00 0.  1.
         21    1    1    2  505  502  0.23282542477E+03  0.10363489376E+03 -0.71714546389E+03  0.76108178667E+03  0.00000000000E+00 0.  1.
         21    1    1    2  506  503 -0.13942904844E+03 -0.53244950668E+02 -0.98627810849E+03  0.99750688800E+03  0.00000000000E+00 0.  1.
<scales pt_clust_3="37.51102" pt_clust_4="33.12581" pt_clust_5="235.08715" pt_clust_6="33.12581"></scales>
<clustering>
<clus scale="   33.126">  4  6 -1 -1</clus>
<clus scale="   37.511">  1  3  2 -1</clus>
<clus scale="  235.087">  1  5  2 -1</clus>
<clus scale="   37.511">  1  3  2 -1</clus>
</clustering>
</event>
<event>
 6    0  0.1704145E+002  0.8675988E+02  0.7546771E-02  0.1310893E+00
         21   -1    0    0  503  501  0.00000000000E+00  0.00000000000E+00  0.40658299520E+03  0.40658299520E+03  0.00000000000E+00 0. -1.
         21   -1    0    0  505  502 -0.00000000000E+00 -0.00000000000E+00 -0.16379132093E+03  0.16379132093E+03  0.00000000000E+00 0.  1.
         21    1    1    2  503  506 -0.13146159735E+02  0.65697141694E+02  0.24205042949E+02  0.71237771208E+02  0.00000000000E+00 0. -1.
         21    1    1    2  504  501  0.21161406772E+02  0.47689194696E+02  0.31049260679E+03  0.31484555468E+03  0.00000000000E+00 0. -1.
         21    1    1    2  505  504 -0.54365681281E+02 -0.91035805095E+02 -0.75907264636E+02  0.13040344296E+03  0.00000000000E+00 0.  1.
         21    1    1    2  506  502  0.46350434244E+02 -0.22350531296E+02 -0.15998710833E+02  0.53887547282E+02  0.00000000000E+00 0. -1.
<scales pt_clust_3="86.75988" pt_clust_4="52.15311" pt_clust_5="14000.00000" pt_clust_6="51.45784"></scales>
<clustering>
<clus scale="   51.458">  2  6  1 -1</clus>
<clus scale="   52.153">  1  4  2 -1</clus>
<clus scale="   86.760">  1  3  2 -1</clus>
<clus scale="   52.153">  1  3  2 -1</clus>
</clustering>
</event>
<event>
 6    0  0.1704145E+002  0.8305660E+02  0.7546771E-02  0.1320594E+00
         21   -1    0    0  503  501  0.00000000000E+00  0.00000000000E+00  0.18563441099E+03  0.18563441099E+03  0.00000000000E+00 0.  1.
         21   -1    0    0  505  502 -0.00000000000E+00 -0.00000000000E+00 -0.31962388756E+03  0.31962388756E+03  0.00000000000E+00 0. -1.
         21    1    1    2  503  504 -0.47627809194E+02  0.18592370107E+02 -0.21873369267E+01  0.51174885223E+02  0.00000000000E+00 0.  1.
         21    1    1    2  504  502 -0.27343865738E+02  0.54900085354E+02 -0.11382861468E+03  0.12930065694E+03  0.00000000000E+00 0. -1.
         21    1    1    2  505  506 -0.44622568949E+02 -0.49614792655E+01 -0.13606151619E+03  0.14327779355E+03  0.00000000000E+00 0. -1.
         21    1    1    2  506  501  0.11959424388E+03 -0.68530976195E+02  0.11808799122E+03  0.18150496285E+03  0.00000000000E+00 0.  1.
<scales pt_clust_3="57.10741" pt_clust_4="83.05660" pt_clust_5="44.89755" pt_clust_6="14000.00000"></scales>
<clustering>
<clus scale="   44.898">  2  5  1 -1</clus>
<clus scale="   57.107">  1  3  2 -1</clus>
<clus scale="   83.057">  2  4  1 -1</clus>
<clus scale="   57.107">  1  3  2 -1</clus>
</clustering>
</event>
<event>
 6    0  0.1704145E+002  0.1849427E+03  0.7546771E-02  0.1163103E+00
         21   -1    0    0  503  501  0.00000000000E+00  0.00000000000E+00  0.12699880388E+04  0.12699880388E+04  0.00000000000E+00 0. -1.
         21   -1    0    0  504  502 -0.00000000000E+00 -0.00000000000E+00 -0.17792864853E+03  0.17792864853E+03  0.00000000000E+00 0. -1.
         21    1    1    2  503  506  0.12724076553E+03  0.16332541795E+03  0.29807955047E+03  0.36292812370E+03  0.00000000000E+00 0. -1.
         21    1    1    2  504  505  0.60608642854E+02 -0.79726425773E+02 -0.95532070676E+02  0.13840551681E+03  0.00000000000E+00 0. -1.
         21    1    1    2  505  501 -0.18224283769E+03 -0.47058293394E+02  0.88992573407E+03  0.90961241582E+03  0.00000000000E+00 0. -1.
         21    1    1    2  506  502 -0.56065706983E+01 -0.36540698786E+02 -0.41382363224E+00  0.36970630949E+02  0.00000000000E+00 0. -1.
<scales pt_clust_3="14000.00000" pt_clust_4="120.61444" pt_clust_5="184.94269" pt_clust_6="36.96831"></scales>
<clustering>
<clus scale="   36.968">  2  6  1 -1</clus>
<clus scale="  120.614">  2  4  1 -1</clus>
<clus scale="  184.943">  1  5  2 -1</clus>
<clus scale="  184.943">  1  3  2 -1</clus>
</clustering>
</event>
<event>
 6    0  0.1704145E+002  0.1379178E+03  0.7546771E-02  0.1216159E+00
         21   -1    0    0  503  501  0.00000000000E+00  0.00000000000E+00  0.42885585527E+03  0.42885585527E+03  0.00000000000E+00 0.  1.
         21   -1    0    0  506  502 -0.00000000000E+00 -0.00000000000E+00 -0.25175157185E+03  0.25175157185E+03  0.00000000000E+00 0.  1.
         21    1    1    2  503  505  0.85508213151E+01 -0.40986015176E+02  0.30854851874E+03  0.31137623288E+03  0.00000000000E+00 0.  1.
         21    1    1    2  504  502 -0.12738434827E+02  0.44103979298E+02 -0.23504766609E+02  0.51574245172E+02  0.00000000000E+00 0.  1.
         21    1    1    2  505  504  0.82241555867E+02  0.96826742075E+02 -0.13775017745E+03  0.18738784080E+03  0.00000000000E+00 0.  1.
         21    1    1    2  506  501 -0.78053942355E+02 -0.99944706196E+02  0.29810708733E+02  0.13026910827E+03  0.00000000000E+00 0.  1.
<scales pt_clust_3="41.86848" pt_clust_4="40.98016" pt_clust_5="14000.00000" pt_clust_6="137.91779"></scales>
<clustering>
<clus scale="   41.868">  1  3  2 -1</clus>
<clus scale="   40.980">  2  4  1 -1</clus>
<clus scale="  137.918">  1  6  2 -1</clus>
<clus scale="   41.868">  1  3  2 -1</clus>
</clustering>
</event>
<event>
 6    0  0.1704145E+002  0.1056694E+03  0.7546771E-02  0.1268806E+00
         21   -1    0    0  505  501  0.00000000000E+00  0.00000000000E+00  0.17310157831E+04  0.17310157831E+04  0.00000000000E+00 0. -1.
         21   -1    0    0  506  502 -0.00000000000E+00 -0.00000000000E+00 -0.68799965289E+03  0.68799965289E+03  0.00000000000E+00 0.  1.
         21    1    1    2  503  501 -0.27237150924E+02  0.75285607611E+02 -0.34220007104E+02  0.87067755168E+02  0.00000000000E+00 0.  1.
         21    1    1    2  504  502 -0.11485017728E+02 -0.16274680701E+03 -0.55020003075E+03  0.57388021630E+03  0.00000000000E+00 0.  1.
         21    1    1    2  505  504  0.79747520739E+02  0.69283285151E+02  0.16831885628E+04  0.16865003939E+04  0.00000000000E+00 0. -1.
         21    1    1    2  506  503 -0.41025352087E+02  0.18177914247E+02 -0.55752394733E+02  0.71567070631E+02  0.00000000000E+00 0.  1.
<scales pt_clust_3="83.13673" pt_clust_4="14000.00000" pt_clust_5="105.66938" pt_clust_6="44.87222"></scales>
<clustering>
<clus scale="   44.872">  2  6  1 -1</clus>
<clus scale="   83.137">  2  3  1 -1</clus>
<clus scale="  105.669">  1  5  2 -1</clus>
<clus scale="  105.669">  1  3  2 -1</clus>
</clustering>
</event>
<event>
 6    0  0.1704145E+002  0.2548895E+03  0.7546771E-02  0.1110253E+00
         21   -1    0    0  506  501  0.00000000000E+00  0.00000000000E+00  0.16213202322E+04  0.16213202322E+04  0.00000000000E+00 0.  1.
         21   -1    0    0  503  502 -0.00000000000E+00 -0.00000000000E+00 -0.13107684730E+03  0.13107684730E+03  0.00000000000E+00 0.  1.
         21    1    1    2  503  504  0.26018029179E+03 -0.75472709986E+02  0.88952431468E+02  0.28513584351E+03  0.00000000000E+00 0.  1.
         21    1    1    2  504  501 -0.11327449519E+03 -0.68627659486E+02  0.10172405973E+04  0.10258261547E+04  0.00000000000E+00 0.  1.
         21    1    1    2  505  502 -0.39037575709E+02  0.31067984080E+01  0.86492962731E+02  0.94945337514E+02  0.00000000000E+00 0. -1.
         21    1    1    2  506  505 -0.10786822090E+03  0.14099357106E+03  0.29755739341E+03  0.34648974376E+03  0.00000000000E+00 0.  1.
<scales pt_clust_3="244.83595" pt_clust_4="132.44194" pt_clust_5="33.29081" pt_clust_6="33.29081"></scales>
<clustering>
<clus scale="   33.291">  5  6 -1 -1</clus>
<clus scale="  132.442">  1  4  2 -1</clus>
<clus scale="  244.836">  2  3  1 -1</clus>
<clus scale="  132.442">  1  3  2 -1</clus>
</clustering>
</event>
<event>
 6    0  0.1704145E+002  0.2482525E+03  0.7546771E-02  0.1114414E+00
         21   -1    0    0  506  501  0.00000000000E+00  0.00000000000E+00  0.94603306497E+03  0.94603306497E+03  0.00000000000E+00 0.  1.
         21   -1    0    0  505  502 -0.00000000000E+00 -0.00000000000E+00 -0.89498816170E+03  0.89498816170E+03  0.00000000000E+00 0. -1.
         21    1    1    2  503  504 -0.23634052665E+02 -0.26113046596E+03 -0.28814572006E+03  0.38958393792E+03  0.00000000000E+00 0. -1.
         21    1    1    2  504  502  0.10320455547E+03  0.21009774448E+03 -0.50245108590E+03  0.55430076333E+03  0.00000000000E+00 0. -1.
         21    1    1    2  505  501  0.26616698390E+02  0.28334276453E+02 -0.87437712526E+01  0.39846372370E+02  0.00000000000E+00 0. -1.
         21    1    1    2  506  503 -0.10618720120E+03  0.22698445023E+02  0.85038548048E+03  0.85729015305E+03  0.00000000000E+00 0.  1.
<scales pt_clust_3="14000.00000" pt_clust_4="248.25250" pt_clust_5="38.87518" pt_clust_6="108.50646"></scales>
<clustering>
<clus scale="   38.875">  2  5  1 -1</clus>
<clus scale="  108.506">  1  6  2 -1</clus>
<clus scale="  248.253">  2  4  1 -1</clus>
<clus scale="  108.506">  1  3  2 -1</clus>
</clustering>
</event>
<event>
 6    0  0.1704145E+002  0.1776430E+03  0.7546771E-02  0.1170104E+00
         21   -1    0    0  504  501  0.00000000000E+00  0.00000000000E+00  0.12664225234E+04  0.12664225234E+04  0.00000000000E+00 0. -1.
         21   -1    0    0  505  502 -0.00000000000E+00 -0.00000000000E+00 -0.10410779464E+04  0.10410779464E+04  0.00000000000E+00 0. -1.
         21    1    1    2  503  502 -0.60341933141E+02  0.11098907210E+02 -0.46296489121E+03  0.46701266056E+03  0.00000000000E+00 0. -1.
         21    1    1    2  504  506  0.11554846730E+03 -0.13802434623E+03  0.12434924094E+04  0.12564535569E+04  0.00000000000E+00 0. -1.
         21    1    1    2  505  501  0.20605756545E+02  0.62479655065E+02 -0.34839288572E+03  0.35455028885E+03  0.00000000000E+00 0. -1.
         21    1    1    2  506  503 -0.75812290702E+02  0.64445783954E+02 -0.20679005540E+03  0.22948396350E+03  0.00000000000E+00 0.  1.
<scales pt_clust_3="61.35417" pt_clust_4="177.64300" pt_clust_5="71.12270" pt_clust_6="14000.00000"></scales>
<clustering>
<clus scale="   61.354">  2  3  1 -1</clus>
<clus scale="   71.123">  2  5  1 -1</clus>
<clus scale="  177.643">  1  4  2 -1</clus>
<clus scale="  177.643">  1  3  2 -1</clus>
</clustering>
</event>
<event>
 6    0  0.1704145E+002  0.1872653E+03  0.7546771E-02  0.1160951E+00
         21   -1    0    0  504  501  0.00000000000E+00  0.00000000000E+00  0.38640910582E+03  0.38640910582E+03  0.00000000000E+00 0.  1.
         21   -1    0    0  505  502 -0.00000000000E+00 -0.00000000000E+00 -0.42319321006E+03  0.42319321006E+03  0.00000000000E+00 0.  1.
         21    1    1    2  503  502 -0.44351864628E+02  0.18494754864E+03 -0.26929700381E+03  0.32968706360E+03  0.00000000000E+00 0.  1.
         21    1    1    2  504  506  0.13215061108E+03  0.15832212917E+02  0.13735754975E+03  0.19126301118E+03  0.00000000000E+00 0.  1.
         21    1    1    2  505  501 -0.91361857138E+02 -0.22730250043E+02  0.26660767911E+02  0.97849117279E+02  0.00000000000E+00 0.  1.
         21    1    1    2  506  503  0.35631106906E+01 -0.17804951151E+03  0.68494581916E+02  0.19080312382E+03  0.00000000000E+00 0.  1.
<scales pt_clust_3="14000.00000" pt_clust_4="85.94842" pt_clust_5="94.14698" pt_clust_6="187.26527"></scales>
<clustering>
<clus scale="   94.147">  1  5  2 -1</clus>
<clus scale="   85.948">  1  4  2 -1</clus>
<clus scale="  187.265">  1  6  2 -1</clus>
<clus scale="   94.147">  1  3  2 -1</clus>
</clustering>
</event>
<event>
 6    0  0.1704145E+002  0.1343184E+03  0.7546771E-02  0.1221185E+00
         21   -1    0    0  504  501  0.00000000000E+00  0.00000000000E+00  0.51956791830E+03  0.51956791830E+03  0.00000000000E+00 0.  1.
         21   -1    0    0  503  502 -0.00000000000E+00 -0.00000000000E+00 -0.66621393620E+03  0.66621393620E+03  0.00000000000E+00 0. -1.
         21    1    1    2  503  501 -0.15378625423E+03  0.10889853506E+03 -0.27146910448E+03  0.33046115901E+03  0.00000000000E+00 0.  1.
         21    1    1    2  504  506  0.46199432017E+02 -0.90515507665E+02  0.47490566179E+03  0.48565711387E+03  0.00000000000E+00 0.  1.
         21    1    1    2  505  502  0.47509179184E+02  0.15130243412E+02 -0.14123138621E+03  0.14977433299E+03  0.00000000000E+00 0. -1.
         21    1    1    2  506  505  0.60077643030E+02 -0.33513270806E+02 -0.20885118901E+03  0.21988924863E+03  0.00000000000E+00 0. -1.
<scales pt_clust_3="125.94017" pt_clust_4="101.62404" pt_clust_5="39.75420" pt_clust_6="39.75420"></scales>
<clustering>
<clus scale="   39.754">  5  6 -1 -1</clus>
<clus scale="  101.624">  1  4  2 -1</clus>
<clus scale="  125.940">  1  3  2 -1</clus>
<clus scale="  101.624">  1  3  2 -1</clus>
</clustering>
</event>
<event>
 6    0  0.1704145E+002  0.1555026E+03  0.7546771E-02  0.1193870E+00
         21   -1    0    0  503  501  0.00000000000E+00  0.00000000000E+00  0.11814569242E+04  0.11814569242E+04  0.00000000000E+00 0. -1.
         21   -1    0    0  505  502 -0.00000000000E+00 -0.00000000000E+00 -0.18513330218E+03  0.18513330218E+03  0.00000000000E+00 0.  1.
         21    1    1    2  503  502  0.44615866110E+02  0.44980690913E+01  0.44568949235E+02  0.63223408404E+02  0.00000000000E+00 0.  1.
         21    1    1    2  504  501 -0.14277343034E+03 -0.61515010489E+01  0.11028996536E+04  0.11121194807E+04  0.00000000000E+00 0. -1.
         21    1    1    2  505  506  0.54676327286E+02  0.24925601139E+02 -0.11615722494E+03  0.13077953687E+03  0.00000000000E+00 0.  1.
         21    1    1    2  506  504  0.43481236945E+02 -0.23272169181E+02 -0.34987755901E+02  0.60467800421E+02  0.00000000000E+00 0. -1.
<scales pt_clust_3="44.84204" pt_clust_4="141.73201" pt_clust_5="52.01497" pt_clust_6="52.01497"></scales>
<clustering>
<clus scale="   44.842">  2  3  1 -1</clus>
<clus scale="   52.015">  5  6 -1 -1</clus>
<clus scale="  141.732">  1  4  2 -1</clus>
<clus scale="  141.732">  1  3  2 -1</clus>
</clustering>
</event>
<event>
 6    0  0.1704145E+002  0.1098862E+03  0.7546771E-02  0.1260781E+00
         21   -1    0    0  503  501  0.00000000000E+00  0.00000000000E+00  0.86841992343E+03  0.86841992343E+03  0.00000000000E+00 0.  1.
         21   -1    0    0  504  502 -0.00000000000E+00 -0.00000000000E+00 -0.17711346062E+03  0.17711346062E+03  0.00000000000E+00 0.  1.
         21    1    1    2  503  506  0.27786898410E+02  0.29811483764E+02  0.71991692269E+03  0.72106949170E+03  0.00000000000E+00 0.  1.
         21    1    1    2  504  501 -0.29009786188E+02 -0.68296572272E+02 -0.11016833445E+03  0.13282714856E+03  0.00000000000E+00 0.  1.
         21    1    1    2  505  502 -0.10009944883E+02 -0.56307279139E+02 -0.11490983823E+02  0.58333107150E+02  0.00000000000E+00 0.  1.
         21    1    1    2  506  505  0.11232832661E+02  0.94792367647E+02  0.93048858384E+02  0.13330363664E+03  0.00000000000E+00 0.  1.
<scales pt_clust_3="40.75336" pt_clust_4="14000.00000" pt_clust_5="51.89145" pt_clust_6="109.88618"></scales>
<clustering>
<clus scale="   40.753">  1  3  2 -1</clus>
<clus scale="   51.891">  2  5  1 -1</clus>
<clus scale="  109.886">  1  6  2 -1</clus>
<clus scale="   40.753">  1  3  2 -1</clus>
</clustering>
</event>
<event>
 6    0  0.1704145E+002  0.9244103E+02  0.7546771E-02  0.1297046E+00
         21   -1    0    0  503  501  0.00000000000E+00  0.00000000000E+00  0.45625783637E+03  0.45625783637E+03  0.00000000000E+00 0. -1.
         21   -1    0    0  505  502 -0.00000000000E+00 -0.00000000000E+00 -0.10235511059E+04  0.10235511059E+04  0.00000000000E+00 0. -1.
         21    1    1    2  503  504  0.88337767872E+02 -0.47335832249E+02 -0.98206497480E+02  0.14031663620E+03  0.00000000000E+00 0. -1.
         21    1    1    2  504  506 -0.54031440706E+02 -0.30137247881E+01 -0.63513042869E+03  0.63743167522E+03  0.00000000000E+00 0. -1.
         21    1    1    2  505  501 -0.11555522682E+02  0.79607338810E+02  0.42901450409E+03  0.43649089706E+03  0.00000000000E+00 0. -1.
         21    1    1    2  506  502 -0.22750804484E+02 -0.29257781773E+02 -0.26297084749E+03  0.26556973384E+03  0.00000000000E+00 0. -1.
<scales pt_clust_3="81.58839" pt_clust_4="35.96541" pt_clust_5="80.44165" pt_clust_6="35.96541"></scales>
<clustering>
<clus scale="   35.965">  4  6 -1 -1</clus>
<clus scale="   80.442">  1  5  2 -1</clus>
<clus scale="   81.588">  1  3  2 -1</clus>
<clus scale="   80.442">  1  3  2 -1</clus>
</clustering>
</event>
<event>
 6    0  0.1704145E+002  0.1133076E+03  0.7546771E-02  0.1254564E+00
         21   -1    0    0  503  501  0.00000000000E+00  0.00000000000E+00  0.70292288286E+03  0.70292288286E+03  0.00000000000E+00 0. -1.
         21   -1    0    0  506  502 -0.00000000000E+00 -0.00000000000E+00 -0.16581205850E+04  0.16581205850E+04  0.00000000000E+00 0. -1.
         21    1    1    2  503  505 -0.87003160445E+02  0.48924624161E+02 -0.83134502041E+03  0.83731577780E+03  0.00000000000E+00 0. -1.
         21    1    1    2  504  501  0.10429521513E+03 -0.44483682911E+02  0.69119167240E+03  0.70043002359E+03  0.00000000000E+00 0. -1.
         21    1    1    2  505  502 -0.48386538558E+02 -0.16433713410E+02 -0.73248607968E+03  0.73426642370E+03  0.00000000000E+00 0. -1.
         21    1    1    2  506  504  0.31094483877E+02  0.11992772160E+02 -0.82558274484E+02  0.89031242816E+02  0.00000000000E+00 0. -1.
<scales pt_clust_3="113.30761" pt_clust_4="14000.00000" pt_clust_5="35.57494" pt_clust_6="33.32707"></scales>
<clustering>
<clus scale="   33.327">  2  6  1 -1</clus>
<clus scale="   35.575">  2  5  1 -1</clus>
<clus scale="  113.308">  2  3  1 -1</clus>
<clus scale="  113.308">  1  3  2 -1</clus>
</clustering>
</event>
<event>
 6    0  0.1704145E+002  0.1243473E+03  0.7546771E-02  0.1236093E+00
         21   -1    0    0  505  501  0.00000000000E+00  0.00000000000E+00  0.27158057300E+03  0.27158057300E+03  0.00000000000E+00 0.  1.
         21   -1    0    0  506  502 -0.00000000000E+00 -0.00000000000E+00 -0.13867067896E+03  0.13867067896E+03  0.00000000000E+00 0. -1.
         21    1    1    2  503  504  0.82898238041E+02  0.10549224772E+03  0.82319708591E+01  0.13441911153E+03  0.00000000000E+00 0. -1.
         21    1    1    2  504  502  0.30650727233E+02 -0.17324735266E+01 -0.12610878926E+02  0.33188895910E+02  0.00000000000E+00 0. -1.
         21    1    1    2  505  503 -0.96277089162E+02 -0.75080265034E+02  0.16067962886E+03  0.20180254514E+03  0.00000000000E+00 0.  1.
         21    1    1    2  506  501 -0.17271876113E+02 -0.28679509160E+02 -0.23390826746E+02  0.40840699381E+02  0.00000000000E+00 0. -1.
<scales pt_clust_3="124.34734" pt_clust_4="30.69965" pt_clust_5="14000.00000" pt_clust_6="30.45011"></scales>
<clustering>
<clus scale="   30.700">  2  4  1 -1</clus>
<clus scale="   30.450">  2  6  1 -1</clus>
<clus scale="  124.347">  2  3  1 -1</clus>
<clus scale="  124.347">  1  3  2 -1</clus>
</clustering>
</event>
<event>
 6    0  0.1704145E+002  0.1324955E+03  0.7546771E-02  0.1223799E+00
         21   -1    0    0  504  501  0.00000000000E+00  0.00000000000E+00  0.73820702980E+02  0.73820702980E+02  0.00000000000E+00 0.  1.
         21   -1    0    0  505  502 -0.00000000000E+00 -0.00000000000E+00 -0.10717419929E+04  0.10717419929E+04  0.00000000000E+00 0.  1.
         21    1    1    2  503  506 -0.93256521914E+00 -0.69840029124E+02 -0.33244807963E+03  0.33970608619E+03  0.00000000000E+00 0.  1.
         21    1    1    2  504  503 -0.16299327561E+02  0.10152538413E+03 -0.28033944163E+03  0.29860220065E+03  0.00000000000E+00 0. -1.
         21    1    1    2  505  501  0.76047759609E+02  0.29517393618E+02  0.27418799926E+02  0.86060030542E+02  0.00000000000E+00 0.  1.
         21    1    1    2  506  502 -0.58815866828E+02 -0.61202748620E+02 -0.41255256863E+03  0.42119437854E+03  0.00000000000E+00 0.  1.
<scales pt_clust_3="51.32587" pt_clust_4="119.80645" pt_clust_5="81.57535" pt_clust_6="51.32587"></scales>
<clustering>
<clus scale="   51.326">  3  6 -1 -1</clus>
<clus scale="   81.575">  1  5  2 -1</clus>
<clus scale="  119.806">  1  4  2 -1</clus>
<clus scale="   81.575">  1  3  2 -1</clus>
</clustering>
</event>
<event>
 6    0  0.1704145E+002  0.1005774E+03  0.7546771E-02  0.1279087E+00
         21   -1    0    0  506  501  0.00000000000E+00  0.00000000000E+00  0.15804504277E+04  0.15804504277E+04  0.00000000000E+00 0.  1.
         21   -1    0    0  505  502 -0.00000000000E+00 -0.00000000000E+00 -0.26114670873E+02  0.26114670873E+02  0.00000000000E+00 0.  1.
         21    1    1    2  503  501  0.73851540639E+01  0.38924393894E+02  0.20926588238E+03  0.21298323518E+03  0.00000000000E+00 0.  1.
         21    1    1    2  504  502 -0.37998368967E+00 -0.74326740356E+02  0.35417565772E+03  0.36189087477E+03  0.00000000000E+00 0.  1.
         21    1    1    2  505  503 -0.11295708952E+02  0.11283044254E+03  0.15417022599E+03  0.19138119131E+03  0.00000000000E+00 0.  1.
         21    1    1    2  506  504  0.42905385783E+01 -0.77428096082E+02  0.83672399073E+03  0.84030979730E+03  0.00000000000E+00 0.  1.
<scales pt_clust_3="39.61880" pt_clust_4="100.57735" pt_clust_5="14000.00000" pt_clust_6="54.31223"></scales>
<clustering>
<clus scale="   39.619">  1  3  2 -1</clus>
<clus scale="   54.312">  1  6  2 -1</clus>
<clus scale="  100.577">  1  4  2 -1</clus>
<clus scale="   39.619">  1  3  2 -1</clus>
</clustering>
</event>
<event>
 6    0  0.1704145E+002  0.9065740E+02  0.7546771E-02  0.1301267E+00
         21   -1    0    0  506  501  0.00000000000E+00  0.00000000000E+00  0.29031915035E+03  0.29031915035E+03  0.00000000000E+00 0.  1.
         21   -1    0    0  504  502 -0.00000000000E+00 -0.00000000000E+00 -0.94155607345E+02  0.94155607345E+02  0.00000000000E+00 0.  1.
         21    1    1    2  503  502  0.25304195331E+02  0.26998411535E+02  0.94654278512E+01  0.38194382456E+02  0.00000000000E+00 0.  1.
         21    1    1    2  504  505 -0.91186218056E+02  0.51046660448E+00  0.16371941521E+01  0.91202342866E+02  0.00000000000E+00 0.  1.
         21    1    1    2  505  501 -0.35782772786E+02  0.16065572338E+02  0.12112898271E+03  0.12732140392E+03  0.00000000000E+00 0.  1.
         21    1    1    2  506  503  0.10166479551E+03 -0.43574450478E+02  0.63931938291E+02  0.12775662846E+03  0.00000000000E+00 0.  1.
<scales pt_clust_3="37.00293" pt_clust_4="14000.00000" pt_clust_5="38.78096" pt_clust_6="90.65740"></scales>
<clustering>
<clus scale="   37.003">  2  3  1 -1</clus>
<clus scale="   38.781">  1  5  2 -1</clus>
<clus scale="   90.657">  1  6  2 -1</clus>
<clus scale="   38.781">  1  3  2 -1</clus>
</clustering>
</event>
<event>
 6    0  0.1704145E+002  0.8923639E+02  0.7546771E-02  0.1304711E+00
         21   -1    0    0  503  501  0.00000000000E+00  0.00000000000E+00  0.24655619662E+04  0.24655619662E+04  0.00000000000E+00 0.  1.
         21   -1    0    0  506  502 -0.00000000000E+00 -0.00000000000E+00 -0.20106593820E+03  0.20106593820E+03  0.00000000000E+00 0. -1.
         21    1    1    2  503  505  0.59186540460E+02  0.59444651794E+01 -0.41133482903E+02  0.72321135594E+02  0.00000000000E+00 0. -1.
         21    1    1    2  504  501 -0.78806771304E+02 -0.42951902938E+02  0.23674082500E+04  0.23691089454E+04  0.00000000000E+00 0.  1.
         21    1    1    2  505  502  0.59668701173E+02  0.21841884291E+02 -0.12997245231E+03  0.14467294207E+03  0.00000000000E+00 0. -1.
         21    1    1    2  506  504 -0.40048470329E+02  0.15165553468E+02  0.68193713179E+02  0.80524881278E+02  0.00000000000E+00 0. -1.
<scales pt_clust_3="14000.00000" pt_clust_4="89.23639" pt_clust_5="45.24610" pt_clust_6="42.82375"></scales>
<clustering>
<clus scale="   42.824">  2  6  1 -1</clus>
<clus scale="   45.246">  2  5  1 -1</clus>
<clus scale="   89.236">  1  4  2 -1</clus>
<clus scale="   89.236">  1  3  2 -1</clus>
</clustering>
</event>
<event>
 6    0  0.1704145E+002  0.1396105E+03  0.7546771E-02  0.1213854E+00
         21   -1    0    0  503  501  0.00000000000E+00  0.00000000000E+00  0.56867324438E+03  0.56867324438E+03  0.00000000000E+00 0.  1.
         21   -1    0    0  504  502 -0.00000000000E+00 -0.00000000000E+00 -0.19845829914E+03  0.19845829914E+03  0.00000000000E+00 0. -1.
         21    1    1    2  503  502  0.55780430273E+02 -0.13835356674E+02  0.58591065317E+01  0.57768526250E+02  0.00000000000E+00 0. -1.
         21    1    1    2  504  505  0.29390905790E+02  0.33140098618E+02 -0.99273560320E+02  0.10870754922E+03  0.00000000000E+00 0. -1.
         21    1    1    2  505  506  0.42956345405E+02  0.29288989540E+02 -0.48140951690E+02  0.70856501102E+02  0.00000000000E+00 0. -1.
         21    1    1    2  506  501 -0.12812768147E+03 -0.48593731483E+02  0.51177035072E+03  0.52979896694E+03  0.00000000000E+00 0.  1.
<scales pt_clust_3="57.47063" pt_clust_4="34.29757" pt_clust_5="34.29757" pt_clust_6="134.57485"></scales>
<clustering>
<clus scale="   34.298">  4  5 -1 -1</clus>
<clus scale="   57.471">  2  3  1 -1</clus>
<clus scale="  134.575">  1  6  2 -1</clus>
<clus scale="  134.575">  1  3  2 -1</clus>
</clustering>
</event>
<event>
 6    0  0.1704145E+002  0.1866663E+03  0.7546771E-02  0.1161503E+00
         21   -1    0    0  505  501  0.00000000000E+00  0.00000000000E+00  0.11571905292E+04  0.11571905292E+04  0.00000000000E+00 0.  1.
         21   -1    0    0  503  502 -0.00000000000E+00 -0.00000000000E+00 -0.95129548955E+02  0.95129548955E+02  0.00000000000E+00 0.  1.
         21    1    1    2  503  501  0.92623746604E+02 -0.16054736111E+03  0.16939659092E+03  0.25109722940E+03  0.00000000000E+00 0.  1.
         21    1    1    2  504  502 -0.34493510111E+02  0.64923364778E+01  0.31098543746E+01  0.35236683541E+02  0.00000000000E+00 0.  1.
         21    1    1    2  505  506  0.39875599619E+02 -0.14582998074E+02  0.67379755920E+03  0.67513397045E+03  0.00000000000E+00 0.  1.
         21    1    1    2  506  504 -0.98005836113E+02  0.16863802271E+03  0.21575697575E+03  0.29085219477E+03  0.00000000000E+00 0.  1.
<scales pt_clust_3="186.66629" pt_clust_4="35.09918" pt_clust_5="42.16594" pt_clust_6="14000.00000"></scales>
<clustering>
<clus scale="   35.099">  2  4  1 -1</clus>
<clus scale="   42.166">  1  5  2 -1</clus>
<clus scale="  186.666">  2  3  1 -1</clus>
<clus scale="   42.166">  1  3  2 -1</clus>
</clustering>
</event>
<event>
 6    0  0.1704145E+002  0.9008677E+02  0.7546771E-02  0.1302642E+00
         21   -1    0    0  505  501  0.00000000000E+00  0.00000000000E+00  0.67579136189E+03  0.67579136189E+03  0.00000000000E+00 0. -1.
         21   -1    0    0  503  502 -0.00000000000E+00 -0.00000000000E+00 -0.43408605212E+03  0.43408605212E+03  0.00000000000E+00 0. -1.
         21    1    1    2  503  504 -0.85656660852E+02 -0.64438102733E+02 -0.26338321592E+03  0.28435901790E+03  0.00000000000E+00 0. -1.
         21    1    1    2  504  506  0.77361823377E+02  0.11977001371E+02 -0.13419148151E+03  0.15535653828E+03  0.00000000000E+00 0. -1.
         21    1    1    2  505  502  0.98646093891E+01 -0.31871738647E+02  0.94040286553E+01  0.34663438919E+02  0.00000000000E+00 0.  1.
         21    1    1    2  506  501 -0.15697719139E+01  0.84332840008E+02  0.62987597854E+03  0.63549841891E+03  0.00000000000E+00 0. -1.
<scales pt_clust_3="90.08677" pt_clust_4="14000.00000" pt_clust_5="33.36343" pt_clust_6="54.07986"></scales>
<clustering>
<clus scale="   33.363">  1  5  2 -1</clus>
<clus scale="   54.080">  1  6  2 -1</clus>
<clus scale="   90.087">  2  3  1 -1</clus>
<clus scale="   33.363">  1  3  2 -1</clus>
</clustering>
</event>
<event>
 6    0  0.1704145E+002  0.1342189E+03  0.7546771E-02  0.1221327E+00
         21   -1    0    0  505  501  0.00000000000E+00  0.00000000000E+00  0.10118900751E+03  0.10118900751E+03  0.00000000000E+00 0. -1.
         21   -1    0    0  504  502 -0.00000000000E+00 -0.00000000000E+00 -0.46068520566E+03  0.46068520566E+03  0.00000000000E+00 0. -1.
         21    1    1    2  503  502 -0.10546715113E+03 -0.72258629884E+02 -0.27233078814E+03  0.30084661828E+03  0.00000000000E+00 0. -1.
         21    1    1    2  504  501  0.12730224471E+03  0.87912002717E+02 -0.84701162476E+02  0.17637649689E+03  0.00000000000E+00 0. -1.
         21    1    1    2  505  506  0.24685118422E+02 -0.18759301946E+02  0.15528863965E+02  0.34675814296E+02  0.00000000000E+00 0. -1.
         21    1    1    2  506  503 -0.46520211999E+02  0.31059291127E+01 -0.17993111498E+02  0.49975283706E+02  0.00000000000E+00 0.  1.
<scales pt_clust_3="14000.00000" pt_clust_4="134.21888" pt_clust_5="31.00430" pt_clust_6="41.34062"></scales>
<clustering>
<clus scale="   31.004">  1  5  2 -1</clus>
<clus scale="   41.341">  1  6  2 -1</clus>
<clus scale="  134.219">  1  4  2 -1</clus>
<clus scale="   31.004">  1  3  2 -1</clus>
</clustering>
</event>
<event>
 6    0  0.1704145E+002  0.1110341E+03  0.7546771E-02  0.1258667E+00
         21   -1    0    0  503  501  0.00000000000E+00  0.00000000000E+00  0.13637956786E+03  0.13637956786E+03  0.00000000000E+00 0. -1.
         21   -1    0    0  506  502 -0.00000000000E+00 -0.00000000000E+00 -0.16546504653E+03  0.16546504653E+03  0.00000000000E+00 0. -1.
         21    1    1    2  503  505  0.20216103940E+02  0.23569411510E+02  0.55359939071E+02  0.63473859749E+02  0.00000000000E+00 0. -1.
         21    1    1    2  504  502 -0.24973009026E+02 -0.56724150988E+02 -0.29055456840E+02  0.68450712613E+02  0.00000000000E+00 0. -1.
         21    1    1    2  505  504 -0.52171850071E+02 -0.40491493696E+02 -0.11608806898E+02  0.67053914123E+02  0.00000000000E+00 0. -1.
         21    1    1    2  506  501  0.56928755157E+02  0.73646233174E+02 -0.43781154003E+02  0.10286612791E+03  0.00000000000E+00 0. -1.
<scales pt_clust_3="31.05170" pt_clust_4="35.90191" pt_clust_5="35.90191" pt_clust_6="104.98976"></scales>
<clustering>
<clus scale="   31.052">  1  3  2 -1</clus>
<clus scale="   35.902">  4  5 -1 -1</clus>
<clus scale="  104.990">  2  6  1 -1</clus>
<clus scale="   31.052">  1  3  2 -1</clus>
</clustering>
</event>
<event>
 6    0  0.1704145E+002  0.1410558E+03  0.7546771E-02  0.1211915E+00
         21   -1    0    0  504  501  0.00000000000E+00  0.00000000000E+00  0.24073764615E+03  0.24073764615E+03  0.00000000000E+00 0.  1.
         21   -1    0    0  503  502 -0.00000000000E+00 -0.00000000000E+00 -0.58224553798E+03  0.58224553798E+03  0.00000000000E+00 0. -1.
         21    1    1    2  503  506 -0.20674808008E+01  0.11394123985E+03 -0.30900429567E+03  0.32934865320E+03  0.00000000000E+00 0. -1.
         21    1    1    2  504  505  0.30721648669E+02 -0.16822984091E+03 -0.19460995282E+02  0.17211574421E+03  0.00000000000E+00 0.  1.
         21    1    1    2  505  502 -0.41263304817E+02  0.22397896961E+02 -0.16199926250E+03  0.16866560753E+03  0.00000000000E+00 0. -1.
         21    1    1    2  506  501  0.12609136949E+02  0.31890704093E+02  0.14895666163E+03  0.15285317918E+03  0.00000000000E+00 0.  1.
<scales pt_clust_3="141.05584" pt_clust_4="14000.00000" pt_clust_5="47.12049" pt_clust_6="34.29296"></scales>
<clustering>
<clus scale="   34.293">  1  6  2 -1</clus>
<clus scale="   47.120">  2  5  1 -1</clus>
<clus scale="  141.056">  2  3  1 -1</clus>
<clus scale="   34.293">  1  3  2 -1</clus>
</clustering>
</event>
<event>
 6    0  0.1704145E+002  0.1992768E+03  0.7546771E-02  0.1150351E+00
         21   -1    0    0  503  501  0.00000000000E+00  0.00000000000E+00  0.41635012724E+03  0.41635012724E+03  0.00000000000E+00 0.  1.
         21   -1    0    0  506  502 -0.00000000000E+00 -0.00000000000E+00 -0.29001915622E+03  0.29001915622E+03  0.00000000000E+00 0.  1.
         21    1    1    2  503  502  0.94366692965E+02 -0.15567309620E+03 -0.17478721573E+03  0.25236829517E+03  0.00000000000E+00 0.  1.
         21    1    1    2  504  501  0.30863964315E+02  0.65536480715E+01  0.23171842251E+03  0.23385671238E+03  0.00000000000E+00 0.  1.
         21    1    1    2  505  504 -0.11088395888E+03  0.99669416888E+02  0.77479953073E+02  0.16802496281E+03  0.00000000000E+00 0.  1.
         21    1    1    2  506  505 -0.14346698399E+02  0.49450031245E+02 -0.80801888281E+01  0.52119313087E+02  0.00000000000E+00 0.  1.
<scales pt_clust_3="184.34589" pt_clust_4="31.55209" pt_clust_5="46.21153" pt_clust_6="46.21153"></scales>
<clustering>
<clus scale="   31.552">  1  4  2 -1</clus>
<clus scale="   46.212">  5  6 -1 -1</clus>
<clus scale="  184.346">  2  3  1 -1</clus>
<clus scale="   31.552">  1  3  2 -1</clus>
</clustering>
</event>
<event>
 6    0  0.1704145E+002  0.9292572E+02  0.7546771E-02  0.1295917E+00
         21   -1    0    0  504  501  0.00000000000E+00  0.00000000000E+00  0.13244793814E+03  0.13244793814E+03  0.00000000000E+00 0.  1.
         21   -1    0    0  505  502 -0.00000000000E+00 -0.00000000000E+00 -0.61167364413E+03  0.61167364413E+03  0.00000000000E+00 0.  1.
         21    1    1    2  503  501  0.54570478628E+02 -0.23015488641E+02 -0.99891063877E+02  0.11612869799E+03  0.00000000000E+00 0. -1.
         21    1    1    2  504  506  0.68253704242E+01 -0.60973720572E+02  0.77691273863E+02  0.98996536890E+02  0.00000000000E+00 0.  1.
         21    1    1    2  505  503  0.53459233876E+02 -0.92635378672E+00 -0.34045973988E+03  0.34463253227E+03  0.00000000000E+00 0.  1.
         21    1    1    2  506  502 -0.11485508293E+03  0.84915563000E+02 -0.11656617609E+03  0.18436381511E+03  0.00000000000E+00 0.  1.
<scales pt_clust_3="92.92572" pt_clust_4="61.66211" pt_clust_5="53.46726" pt_clust_6="14000.00000"></scales>
<clustering>
<clus scale="   53.467">  2  5  1 -1</clus>
<clus scale="   61.662">  1  4  2 -1</clus>
<clus scale="   92.926">  2  3  1 -1</clus>
<clus scale="   61.662">  1  3  2 -1</clus>
</clustering>
</event>
<event>
 6    0  0.1704145E+002  0.1530459E+03  0.7546771E-02  0.1196779E+00
         21   -1    0    0  506  501  0.00000000000E+00  0.00000000000E+00  0.47794107520E+03  0.47794107520E+03  0.00000000000E+00 0.  1.
         21   -1    0    0  503  502 -0.00000000000E+00 -0.00000000000E+00 -0.79760987813E+03  0.79760987813E+03  0.00000000000E+00 0. -1.
         21    1    1    2  503  504 -0.12849087395E+02  0.48539384783E+02 -0.37225542804E+02  0.62505295448E+02  0.00000000000E+00 0.  1.
         21    1    1    2  504  505 -0.32986478958E+02  0.35377302381E+02  0.72624891864E+01  0.48912217972E+02  0.00000000000E+00 0.  1.
         21    1    1    2  505  501 -0.12517993780E+02  0.60009437392E+02  0.42670311879E+03  0.43108396436E+03  0.00000000000E+00 0.  1.
         21    1    1    2  506  502  0.58353560133E+02 -0.14392612456E+03 -0.71640886810E+03  0.73304947555E+03  0.00000000000E+00 0. -1.
<scales pt_clust_3="47.81365" pt_clust_4="47.81365" pt_clust_5="61.30116" pt_clust_6="145.08577"></scales>
<clustering>
<clus scale="   47.814">  3  4 -1 -1</clus>
<clus scale="   61.301">  1  5  2 -1</clus>
<clus scale="  145.086">  2  6  1 -1</clus>
<clus scale="   61.301">  1  3  2 -1</clus>
</clustering>
</event>
<event>
 6    0  0.1704145E+002  0.1095380E+03  0.7546771E-02  0.1261428E+00
         21   -1    0    0  506  501  0.00000000000E+00  0.00000000000E+00  0.31669287619E+03  0.31669287619E+03  0.00000000000E+00 0.  1.
         21   -1    0    0  505  502 -0.00000000000E+00 -0.00000000000E+00 -0.38408994754E+03  0.38408994754E+03  0.00000000000E+00 0.  1.
         21    1    1    2  503  504  0.98572375550E+02 -0.77669126116E+02 -0.33351208256E+02  0.12985110498E+03  0.00000000000E+00 0.  1.
         21    1    1    2  504  502 -0.10752565303E+03  0.17113754092E+02 -0.27457977457E+03  0.29537890792E+03  0.00000000000E+00 0.  1.
         21    1    1    2  505  501  0.23157737042E+02  0.23931505451E+02  0.15241248076E+01  0.33336476936E+02  0.00000000000E+00 0. -1.
         21    1    1    2  506  503 -0.14204459567E+02  0.36623866574E+02  0.23900978668E+03  0.24221633389E+03  0.00000000000E+00 0.  1.
<scales pt_clust_3="14000.00000" pt_clust_4="109.53799" pt_clust_5="33.30162" pt_clust_6="56.03944"></scales>
<clustering>
<clus scale="   33.302">  1  5  2 -1</clus>
<clus scale="   56.039">  1  6  2 -1</clus>
<clus scale="  109.538">  2  4  1 -1</clus>
<clus scale="   33.302">  1  3  2 -1</clus>
</clustering>
</event>
<event>
 6    0  0.1704145E+002  0.3989171E+03  0.7546771E-02  0.1044155E+00
         21   -1    0    0  504  501  0.00000000000E+00  0.00000000000E+00  0.59552454277E+03  0.59552454277E+03  0.00000000000E+00 0.  1.
         21   -1    0    0  503  502 -0.00000000000E+00 -0.00000000000E+00 -0.94624941474E+03  0.94624941474E+03  0.00000000000E+00 0.  1.
         21    1    1    2  503  506 -0.15331724394E+03 -0.33828629505E+03  0.23278889856E+03  0.43833145678E+03  0.00000000000E+00 0.  1.
         21    1    1    2  504  505  0.29302420085E+02  0.33851927330E+02  0.11975074682E+03  0.12784688565E+03  0.00000000000E+00 0.  1.
         21    1    1    2  505  502  0.11979571696E+03  0.35790975456E+03 -0.78890606824E+03  0.87454170324E+03  0.00000000000E+00 0.  1.
         21    1    1    2  506  501  0.42191069042E+01 -0.53475386831E+02  0.85641550888E+02  0.10105391184E+03  0.00000000000E+00 0.  1.
<scales pt_clust_3="44.69453" pt_clust_4="44.77259" pt_clust_5="381.18717" pt_clust_6="44.69453"></scales>
<clustering>
<clus scale="   44.695">  3  6 -1 -1</clus>
<clus scale="   44.773">  1  4  2 -1</clus>
<clus scale="  381.187">  2  5  1 -1</clus>
<clus scale="   44.773">  1  3  2 -1</clus>
</clustering>
</event>
<event>
 6    0  0.1704145E+002  0.6699093E+02  0.7546771E-02  0.1370635E+00
         21   -1    0    0  504  501  0.00000000000E+00  0.00000000000E+00  0.45498834335E+03  0.45498834335E+03  0.00000000000E+00 0. -1.
         21   -1    0    0  506  502 -0.00000000000E+00 -0.00000000000E+00 -0.30536726156E+03  0.30536726156E+03  0.00000000000E+00 0. -1.
         21    1    1    2  503  501 -0.19370163283E+02  0.69917139861E+02 -0.23168602114E+02  0.76160316411E+02  0.00000000000E+00 0.  1.
         21    1    1    2  504  505 -0.51557160769E+02 -0.21647308906E+02  0.40574493896E+03  0.40957990954E+03  0.00000000000E+00 0. -1.
         21    1    1    2  505  502  0.75545339903E+02  0.16332982923E+02 -0.15549854899E+03  0.17364810235E+03  0.00000000000E+00 0. -1.
         21    1    1    2  506  503 -0.46180158508E+01 -0.64602813878E+02 -0.77456706073E+02  0.10096727661E+03  0.00000000000E+00 0. -1.
<scales pt_clust_3="14000.00000" pt_clust_4="55.91732" pt_clust_5="66.77976" pt_clust_6="66.99093"></scales>
<clustering>
<clus scale="   55.917">  1  4  2 -1</clus>
<clus scale="   66.780">  2  5  1 -1</clus>
<clus scale="   66.991">  2  6  1 -1</clus>
<clus scale="   55.917">  1  3  2 -1</clus>
</clustering>
</event>
<event>
 6    0  0.1704145E+002  0.1203310E+03  0.7546771E-02  0.1242552E+00
         21   -1    0    0  502  501  0.00000000000E+00  0.00000000000E+00  0.33896802633E+04  0.33896802633E+04  0.00000000000E+00 0. -1.
         21   -1    0    0  504  502 -0.00000000000E+00 -0.00000000000E+00 -0.13946696453E+02  0.13946696453E+02  0.00000000000E+00 0.  1.
         21    1    1    2  503  506  0.38221531096E+02 -0.58486005252E+02  0.17331178565E+03  0.18686485302E+03  0.00000000000E+00 0.  1.
         21    1    1    2  504  503 -0.20877018088E+02 -0.39830293626E+02  0.14543248936E+03  0.15222651259E+03  0.00000000000E+00 0.  1.
         21    1    1    2  505  501 -0.25018382454E+02 -0.26868411827E+02  0.19688359550E+04  0.19691782166E+04  0.00000000000E+00 0. -1.
         21    1    1    2  506  505  0.76738694465E+01  0.12518471071E+03  0.10881533368E+04  0.10953573775E+04  0.00000000000E+00 0.  1.
<scales pt_clust_3="48.37222" pt_clust_4="48.37222" pt_clust_5="36.71282" pt_clust_6="105.17331"></scales>
<clustering>
<clus scale="   36.713">  1  5  2 -1</clus>
<clus scale="   48.372">  3  4 -1 -1</clus>
<clus scale="  105.173">  1  6  2 -1</clus>
<clus scale="   36.713">  1  3  2 -1</clus>
</clustering>
</event>
<event>
 6    0  0.1704145E+002  0.1684207E+03  0.7546771E-02  0.1179505E+00
         21   -1    0    0  505  501  0.00000000000E+00  0.00000000000E+00  0.10624696585E+04  0.10624696585E+04  0.00000000000E+00 0.  1.
         21   -1    0    0  503  502 -0.00000000000E+00 -0.00000000000E+00 -0.21048648092E+04  0.21048648092E+04  0.00000000000E+00 0. -1.
         21    1    1    2  503  504 -0.12262364602E+02 -0.44618136600E+02 -0.23226517250E+03  0.23682958864E+03  0.00000000000E+00 0. -1.
         21    1    1    2  504  506  0.11955588460E+03  0.10870946481E+02 -0.15395499908E+03  0.19522788930E+03  0.00000000000E+00 0. -1.
         21    1    1    2  505  502  0.43434328330E+02 -0.47345151804E+02 -0.16880656221E+04  0.16892879117E+04  0.00000000000E+00 0. -1.
         21    1    1    2  506  501 -0.15072784832E+03  0.81092341924E+02  0.10318906430E+04  0.10459890780E+04  0.00000000000E+00 0.  1.
<scales pt_clust_3="46.27249" pt_clust_4="14000.00000" pt_clust_5="93.41513" pt_clust_6="168.42072"></scales>
<clustering>
<clus scale="   46.272">  2  3  1 -1</clus>
<clus scale="   93.415">  2  5  1 -1</clus>
<clus scale="  168.421">  1  6  2 -1</clus>
<clus scale="  168.421">  1  3  2 -1</clus>
</clustering>
</event>
<event>
 6    0  0.1704145E+002  0.2884390E+03  0.7546771E-02  0.1091167E+00
         21   -1    0    0  503  501  0.00000000000E+00  0.00000000000E+00  0.24378089734E+03  0.24378089734E+03  0.00000000000E+00 0. -1.
         21   -1    0    0  506  502 -0.00000000000E+00 -0.00000000000E+00 -0.13266306609E+04  0.13266306609E+04  0.00000000000E+00 0. -1.
         21    1    1    2  503  505 -0.26377468865E+02 -0.10780181846E+03  0.11029057560E+03  0.15646409809E+03  0.00000000000E+00 0. -1.
         21    1    1    2  504  501 -0.18396062962E+03  0.28583374467E+03 -0.27410807622E+03  0.43666655504E+03  0.00000000000E+00 0. -1.
         21    1    1    2  505  502  0.24094721578E+03 -0.14307935828E+03 -0.84106864048E+03  0.88652339031E+03  0.00000000000E+00 0. -1.
         21    1    1    2  506  504 -0.30609117289E+02 -0.34952567931E+02 -0.77963622500E+02  0.90757514837E+02  0.00000000000E+00 0. -1.
<scales pt_clust_3="111.74886" pt_clust_4="14000.00000" pt_clust_5="288.43900" pt_clust_6="46.46074"></scales>
<clustering>
<clus scale="   46.461">  2  6  1 -1</clus>
<clus scale="  111.749">  1  3  2 -1</clus>
<clus scale="  288.439">  2  5  1 -1</clus>
<clus scale="  111.749">  1  3  2 -1</clus>
</clustering>
</event>
<event>
 6    0  0.1704145E+002  0.1494557E+03  0.7546771E-02  0.1201143E+00
         21   -1    0    0  503  501  0.00000000000E+00  0.00000000000E+00  0.36613786274E+03  0.36613786274E+03  0.00000000000E+00 0. -1.
         21   -1    0    0  506  502 -0.00000000000E+00 -0.00000000000E+00 -0.29545586948E+03  0.29545586948E+03  0.00000000000E+00 0. -1.
         21    1    1    2  503  504 -0.15373032384E+02  0.37952888294E+02 -0.17863053011E+02  0.44674830916E+02  0.00000000000E+00 0. -1.
         21    1    1    2  504  505 -0.51517667112E+02  0.36964476367E+02 -0.77435527575E+02  0.10008348250E+03  0.00000000000E+00 0. -1.
         21    1    1    2  505  502 -0.28259627744E+01  0.57551185394E+02 -0.15353538070E+03  0.16399157946E+03  0.00000000000E+00 0. -1.
         21    1    1    2  506  501  0.69716662271E+02 -0.13246855006E+03  0.31951595455E+03  0.35284383935E+03  0.00000000000E+00 0. -1.
<scales pt_clust_3="33.96334" pt_clust_4="33.96334" pt_clust_5="57.62053" pt_clust_6="143.35566"></scales>
<clustering>
<clus scale="   33.963">  3  4 -1 -1</clus>
<clus scale="   57.621">  2  5  1 -1</clus>
<clus scale="  143.356">  1  6  2 -1</clus>
<clus scale="  143.356">  1  3  2 -1</clus>
</clustering>
</event>
<event>
 6    0  0.1704145E+002  0.2180913E+03  0.7546771E-02  0.1135314E+00
         21   -1    0    0  504  501  0.00000000000E+00  0.00000000000E+00  0.86172717439E+02  0.86172717439E+02  0.00000000000E+00 0.  1.
         21   -1    0    0  505  502 -0.00000000000E+00 -0.00000000000E+00 -0.19273135021E+04  0.19273135021E+04  0.00000000000E+00 0.  1.
         21    1    1    2  503  502  0.17707488646E+03 -0.71064602575E+02 -0.48748248115E+03  0.52349294416E+03  0.00000000000E+00 0.  1.
         21    1    1    2  504  503  0.38478073125E+02  0.49561122902E-02  0.52499410878E+02  0.65090324001E+02  0.00000000000E+00 0.  1.
         21    1    1    2  505  506 -0.92739507199E+02  0.38275120604E+02 -0.50995200809E+03  0.51972747821E+03  0.00000000000E+00 0. -1.
         21    1    1    2  506  501 -0.12281345239E+03  0.32784525859E+02 -0.89620570626E+03  0.90517547313E+03  0.00000000000E+00 0.  1.
<scales pt_clust_3="214.49355" pt_clust_4="38.47807" pt_clust_5="35.04831" pt_clust_6="35.04831"></scales>
<clustering>
<clus scale="   35.048">  5  6 -1 -1</clus>
<clus scale="   38.478">  1  4  2 -1</clus>
<clus scale="  214.494">  1  3  2 -1</clus>
<clus scale="   38.478">  1  3  2 -1</clus>
</clustering>
</event>
<event>
 6    0  0.1704145E+002  0.2136373E+03  0.7546771E-02  0.1138718E+00
         21   -1    0    0  506  501  0.00000000000E+00  0.00000000000E+00  0.88406816558E+02  0.88406816558E+02  0.00000000000E+00 0. -1.
         21   -1    0    0  501  502 -0.00000000000E+00 -0.00000000000E+00 -0.13247539009E+04  0.13247539009E+04  0.00000000000E+00 0. -1.
         21    1    1    2  503  505 -0.44845278323E+02  0.93292264570E+01 -0.14700280813E+03  0.15397389082E+03  0.00000000000E+00 0. -1.
         21    1    1    2  504  502 -0.10888857670E+03  0.16755332451E+01 -0.91052499529E+03  0.91701433827E+03  0.00000000000E+00 0. -1.
         21    1    1    2  505  504 -0.27643199818E+02 -0.29452909621E+02 -0.15275564090E+03  0.15800603219E+03  0.00000000000E+00 0. -1.
         21    1    1    2  506  503  0.18137705484E+03  0.18448149919E+02 -0.26063640034E+02  0.18416645620E+03  0.00000000000E+00 0. -1.
<scales pt_clust_3="64.26680" pt_clust_4="64.26680" pt_clust_5="40.02675" pt_clust_6="182.31284"></scales>
<clustering>
<clus scale="   40.027">  3  5 -1 -1</clus>
<clus scale="   64.267">  3  4 -1 -1</clus>
<clus scale="  182.313">  1  6  2 -1</clus>
<clus scale="  182.313">  1  3  2 -1</clus>
</clustering>
</event>
<event>
 6    0  0.1704145E+002  0.1266897E+03  0.7546771E-02  0.1232452E+00
         21   -1    0    0  505  501  0.00000000000E+00  0.00000000000E+00  0.43028170533E+03  0.43028170533E+03  0.00000000000E+00 0. -1.
         21   -1    0    0  503  502 -0.00000000000E+00 -0.00000000000E+00 -0.81722918553E+02  0.81722918553E+02  0.00000000000E+00 0. -1.
         21    1    1    2  503  504 -0.35651037878E+01 -0.35498654517E+02 -0.11866457706E+02  0.37598899665E+02  0.00000000000E+00 0. -1.
         21    1    1    2  504  506 -0.68947156902E+02 -0.50308197482E+02  0.14190433147E+02  0.86521636436E+02  0.00000000000E+00 0. -1.
         21    1    1    2  505  502  0.60176129711E+02  0.11836023506E+03  0.31190850097E+03  0.33899443183E+03  0.00000000000E+00 0. -1.
         21    1    1    2  506  501  0.12336130979E+02 -0.32553383062E+02  0.34326310370E+02  0.48889655961E+02  0.00000000000E+00 0. -1.
<scales pt_clust_3="34.08708" pt_clust_4="34.08708" pt_clust_5="115.19821" pt_clust_6="34.81240"></scales>
<clustering>
<clus scale="   34.087">  3  4 -1 -1</clus>
<clus scale="   34.812">  1  6  2 -1</clus>
<clus scale="  115.198">  1  5  2 -1</clus>
<clus scale="   34.812">  1  3  2 -1</clus>
</clustering>
</event>
<event>
 6    0  0.1704145E+002  0.2004306E+03  0.7546771E-02  0.1149376E+00
         21   -1    0    0  504  501  0.00000000000E+00  0.00000000000E+00  0.61356575613E+02  0.61356575613E+02  0.00000000000E+00 0.  1.
         21   -1    0    0  505  502 -0.00000000000E+00 -0.00000000000E+00 -0.14851915594E+04  0.14851915594E+04  0.00000000000E+00 0.  1.
         21    1    1    2  503  501 -0.45961556633E+02  0.77108512692E+02 -0.16701872707E+03  0.18961393042E+03  0.00000000000E+00 0.  1.
         21    1    1    2  504  506  0.13716036546E+03 -0.12560100402E+03 -0.18566515245E+03  0.26279293540E+03  0.00000000000E+00 0.  1.
         21    1    1    2  505  503 -0.78603117314E+02  0.10239623863E+03 -0.39135044875E+03  0.41209054038E+03  0.00000000000E+00 0.  1.
         21    1    1    2  506  502 -0.12595691516E+02 -0.53903747306E+02 -0.67980065549E+03  0.68205072878E+03  0.00000000000E+00 0.  1.
<scales pt_clust_3="41.97648" pt_clust_4="194.00667" pt_clust_5="41.97648" pt_clust_6="55.35581"></scales>
<clustering>
<clus scale="   41.976">  3  5 -1 -1</clus>
<clus scale="   55.356">  2  6  1 -1</clus>
<clus scale="  194.007">  1  4  2 -1</clus>
<clus scale="  194.007">  1  3  2 -1</clus>
</clustering>
</event>
<event>
 6    0  0.1704145E+002  0.9078173E+02  0.7546771E-02  0.1300970E+00
         21   -1    0    0  504  501  0.00000000000E+00  0.00000000000E+00  0.32484514166E+03  0.32484514166E+03  0.00000000000E+00 0. -1.
         21   -1    0    0  505  502 -0.00000000000E+00 -0.00000000000E+00 -0.37852139651E+04  0.37852139651E+04  0.00000000000E+00 0. -1.
         21    1    1    2  503  506  0.49540034614E+02 -0.12154490635E+02 -0.60098225204E+03  0.60314311232E+03  0.00000000000E+00 0. -1.
         21    1    1    2  504  503  0.15304777680E+02 -0.28069477971E+02  0.31966894424E+03  0.32126370122E+03  0.00000000000E+00 0. -1.
         21    1    1    2  505  501  0.10465623340E+01  0.10598526903E+03 -0.13104512255E+04  0.13147305377E+04  0.00000000000E+00 0. -1.
         21    1    1    2  506  502 -0.65891374628E+02 -0.65761300427E+02 -0.18686042901E+04  0.18709217554E+04  0.00000000000E+00 0. -1.
<scales pt_clust_3="56.62766" pt_clust_4="31.97080" pt_clust_5="90.78173" pt_clust_6="14000.00000"></scales>
<clustering>
<clus scale="   31.971">  1  4  2 -1</clus>
<clus scale="   56.628">  1  3  2 -1</clus>
<clus scale="   90.782">  1  5  2 -1</clus>
<clus scale="   31.971">  1  3  2 -1</clus>
</clustering>
</event>
<event>
 6    0  0.1704145E+002  0.1966863E+03  0.7546771E-02  0.1152565E+00
         21   -1    0    0  505  501  0.00000000000E+00  0.00000000000E+00  0.57203815727E+03  0.57203815727E+03  0.00000000000E+00 0.  1.
         21   -1    0    0  504  502 -0.00000000000E+00 -0.00000000000E+00 -0.19622214016E+03  0.19622214016E+03  0.00000000000E+00 0. -1.
         21    1    1    2  503  502  0.88372078199E+02 -0.28529298190E+02  0.43089553067E+02  0.10237311485E+03  0.00000000000E+00 0. -1.
         21    1    1    2  504  501 -0.22780163672E+03 -0.14019093084E+02 -0.52420357599E+02  0.23417517920E+03  0.00000000000E+00 0. -1.
         21    1    1    2  505  506  0.82810731687E+02  0.27439185309E+02  0.35548406758E+03  0.36603203203E+03  0.00000000000E+00 0.  1.
         21    1    1    2  506  503  0.56618826831E+02  0.15109205964E+02  0.29662754064E+02  0.65679971340E+02  0.00000000000E+00 0. -1.
<scales pt_clust_3="33.19784" pt_clust_4="192.19524" pt_clust_5="87.23833" pt_clust_6="33.19784"></scales>
<clustering>
<clus scale="   33.198">  3  6 -1 -1</clus>
<clus scale="   87.238">  1  5  2 -1</clus>
<clus scale="  192.195">  2  4  1 -1</clus>
<clus scale="   87.238">  1  3  2 -1</clus>
</clustering>
</event>
<event>
 6    0  0.1704145E+002  0.1455615E+03  0.7546771E-02  0.1206036E+00
         21   -1    0    0  506  501  0.00000000000E+00  0.00000000000E+00  0.92208433445E+02  0.92208433445E+02  0.00000000000E+00 0. -1.
         21   -1    0    0  503  502 -0.00000000000E+00 -0.00000000000E+00 -0.57081962591E+03  0.57081962591E+03  0.00000000000E+00 0. -1.
         21    1    1    2  503  505 -0.74513237326E+02 -0.32325273375E+02 -0.17102277553E+03  0.18933022892E+03  0.00000000000E+00 0. -1.
         21    1    1    2  504  501  0.14289169578E+03  0.98183361134E+02 -0.14442240423E+03  0.22564538544E+03  0.00000000000E+00 0. -1.
         21    1    1    2  505  504 -0.23604028228E+02 -0.42839870872E+02 -0.18632389828E+03  0.19263696362E+03  0.00000000000E+00 0. -1.
         21    1    1    2  506  502 -0.44774430227E+02 -0.23018216888E+02  0.23157885571E+02  0.55415481366E+02  0.00000000000E+00 0. -1.
<scales pt_clust_3="41.97293" pt_clust_4="135.13940" pt_clust_5="41.97293" pt_clust_6="50.34469"></scales>
<clustering>
<clus scale="   41.973">  3  5 -1 -1</clus>
<clus scale="   50.345">  1  6  2 -1</clus>
<clus scale="  135.139">  1  4  2 -1</clus>
<clus scale="   50.345">  1  3  2 -1</clus>
</clustering>
</event>
<event>
 6    0  0.1704145E+002  0.1339654E+03  0.7546771E-02  0.1221688E+00
         21   -1    0    0  504  501  0.00000000000E+00  0.00000000000E+00  0.62815373107E+03  0.62815373107E+03  0.00000000000E+00 0. -1.
         21   -1    0    0  505  502 -0.00000000000E+00 -0.00000000000E+00 -0.81523908208E+03  0.81523908208E+03  0.00000000000E+00 0.  1.
         21    1    1    2  503  501  0.11799723668E+03 -0.52265608877E+02  0.61294915048E+03  0.62638782140E+03  0.00000000000E+00 0. -1.
         21    1    1    2  504  506 -0.30022504381E+02  0.37989796500E+02 -0.41750785494E+03  0.42030629825E+03  0.00000000000E+00 0.  1.
         21    1    1    2  505  503 -0.50666181490E+02  0.14161262440E+02 -0.11352404747E+03  0.12512119187E+03  0.00000000000E+00 0. -1.
         21    1    1    2  506  502 -0.37308550807E+02  0.11454993660E+00 -0.26900259907E+03  0.27157750163E+03  0.00000000000E+00 0.  1.
<scales pt_clust_3="128.55177" pt_clust_4="33.09125" pt_clust_5="52.60802" pt_clust_6="33.09125"></scales>
<clustering>
<clus scale="   33.091">  4  6 -1 -1</clus>
<clus scale="   52.608">  2  5  1 -1</clus>
<clus scale="  128.552">  1  3  2 -1</clus>
<clus scale="  128.552">  1  3  2 -1</clus>
</clustering>
</event>
<event>
 6    0  0.1704145E+002  0.1274154E+03  0.7546771E-02  0.1231342E+00
         21   -1    0    0  506  501  0.00000000000E+00  0.00000000000E+00  0.38642819195E+03  0.38642819195E+03  0.00000000000E+00 0.  1.
         21   -1    0    0  505  502 -0.00000000000E+00 -0.00000000000E+00 -0.23362025963E+03  0.23362025963E+03  0.00000000000E+00 0.  1.
         21    1    1    2  503  501  0.49515426153E+02 -0.63887060783E+02 -0.51161295800E+02  0.95659877433E+02  0.00000000000E+00 0.  1.
         21    1    1    2  504  503  0.88746250816E+01 -0.46224370497E+02 -0.11377975568E+00  0.47068719380E+02  0.00000000000E+00 0.  1.
         21    1    1    2  505  504 -0.12862359683E+03  0.32487651623E+02 -0.93210524613E+02  0.16213475589E+03  0.00000000000E+00 0.  1.
         21    1    1    2  506  502  0.70233545595E+02  0.77623779657E+02  0.29729353249E+03  0.31518509888E+03  0.00000000000E+00 0.  1.
<scales pt_clust_3="35.86081" pt_clust_4="35.86081" pt_clust_5="118.43265" pt_clust_6="104.68143"></scales>
<clustering>
<clus scale="   35.861">  3  4 -1 -1</clus>
<clus scale="  104.681">  1  6  2 -1</clus>
<clus scale="  118.433">  2  5  1 -1</clus>
<clus scale="  104.681">  1  3  2 -1</clus>
</clustering>
</event>
<event>
 6    0  0.1704145E+002  0.2054749E+03  0.7546771E-02  0.1145200E+00
         21   -1    0    0  504  501  0.00000000000E+00  0.00000000000E+00  0.25462138561E+03  0.25462138561E+03  0.00000000000E+00 0. -1.
         21   -1    0    0  506  502 -0.00000000000E+00 -0.00000000000E+00 -0.56325361968E+03  0.56325361968E+03  0.00000000000E+00 0. -1.
         21    1    1    2  503  502 -0.18549878650E+03  0.28987354968E+02 -0.40176720903E+03  0.44347148363E+03  0.00000000000E+00 0. -1.
         21    1    1    2  504  503  0.24405264556E+03  0.71110512153E+01  0.52238194927E+02  0.24968197745E+03  0.00000000000E+00 0. -1.
         21    1    1    2  505  501 -0.43590094094E+02  0.10069210374E+01  0.64809287193E+02  0.78111163732E+02  0.00000000000E+00 0. -1.
         21    1    1    2  506  505 -0.14963764967E+02 -0.37105327220E+02 -0.23912507154E+02  0.46610380480E+02  0.00000000000E+00 0.  1.
<scales pt_clust_3="14000.00000" pt_clust_4="205.47486" pt_clust_5="43.78191" pt_clust_6="40.00899"></scales>
<clustering>
<clus scale="   40.009">  2  6  1 -1</clus>
<clus scale="   43.782">  1  5  2 -1</clus>
<clus scale="  205.475">  1  4  2 -1</clus>
<clus scale="   43.782">  1  3  2 -1</clus>
</clustering>
</event>
<event>
 6    0  0.1704145E+002  0.8736862E+02  0.7546771E-02  0.1309352E+00
         21   -1    0    0  506  501  0.00000000000E+00  0.00000000000E+00  0.26285754663E+03  0.26285754663E+03  0.00000000000E+00 0. -1.
         21   -1    0    0  505  502 -0.00000000000E+00 -0.00000000000E+00 -0.17979705843E+03  0.17979705843E+03  0.00000000000E+00 0. -1.
         21    1    1    2  503  502 -0.95914753984E+02  0.24729453765E+02  0.19363718885E+02  0.10092640648E+03  0.00000000000E+00 0. -1.
         21    1    1    2  504  501  0.47928264166E+02 -0.25726073680E+02  0.27617745735E+02  0.61005649349E+02  0.00000000000E+00 0.  1.
         21    1    1    2  505  504  0.69973446385E+02 -0.49336373830E+02 -0.10137999673E+03  0.13269613679E+03  0.00000000000E+00 0. -1.
         21    1    1    2  506  503 -0.21986956567E+02  0.50332993745E+02  0.13745902031E+03  0.14802641245E+03  0.00000000000E+00 0. -1.
<scales pt_clust_3="87.36862" pt_clust_4="54.39623" pt_clust_5="14000.00000" pt_clust_6="34.80053"></scales>
<clustering>
<clus scale="   54.396">  1  4  2 -1</clus>
<clus scale="   34.801">  1  6  2 -1</clus>
<clus scale="   87.369">  1  3  2 -1</clus>
<clus scale="   54.396">  1  3  2 -1</clus>
</clustering>
</event>
<event>
 6    0  0.1704145E+002  0.1078157E+03  0.7546771E-02  0.1264669E+00
         21   -1    0    0  506  501  0.00000000000E+00  0.00000000000E+00  0.30611632898E+03  0.30611632898E+03  0.00000000000E+00 0.  1.
         21   -1    0    0  505  502 -0.00000000000E+00 -0.00000000000E+00 -0.64072593771E+03  0.64072593771E+03  0.00000000000E+00 0. -1.
         21    1    1    2  503  501  0.62955197713E+01  0.38457713364E+02  0.22488940539E+03  0.22824082444E+03  0.00000000000E+00 0.  1.
         21    1    1    2  504  503  0.82957174582E+02  0.45000806632E+02  0.31882309473E+02  0.99616499986E+02  0.00000000000E+00 0. -1.
         21    1    1    2  505  504  0.10097972730E+01 -0.65149859406E+02 -0.41422157961E+03  0.41931496621E+03  0.00000000000E+00 0. -1.
         21    1    1    2  506  502 -0.90262491626E+02 -0.18308660590E+02 -0.17715974398E+03  0.19966997604E+03  0.00000000000E+00 0. -1.
<scales pt_clust_3="38.96959" pt_clust_4="107.81571" pt_clust_5="63.93018" pt_clust_6="14000.00000"></scales>
<clustering>
<clus scale="   38.970">  1  3  2 -1</clus>
<clus scale="   63.930">  2  5  1 -1</clus>
<clus scale="  107.816">  1  4  2 -1</clus>
<clus scale="   38.970">  1  3  2 -1</clus>
</clustering>
</event>
<event>
 6    0  0.1704145E+002  0.1041438E+03  0.7546771E-02  0.1271816E+00
         21   -1    0    0  502  501  0.00000000000E+00  0.00000000000E+00  0.17558803680E+03  0.17558803680E+03  0.00000000000E+00 0. -1.
         21   -1    0    0  505  502 -0.00000000000E+00 -0.00000000000E+00 -0.16673099291E+04  0.16673099291E+04  0.00000000000E+00 0.  1.
         21    1    1    2  503  506  0.30520093820E+01 -0.39576543346E+02 -0.15196117047E+03  0.15705990856E+03  0.00000000000E+00 0. -1.
         21    1    1    2  504  501 -0.66961341618E+02 -0.13464405289E+02  0.15839813516E+03  0.17249661070E+03  0.00000000000E+00 0. -1.
         21    1    1    2  505  503  0.15561843788E+02  0.98695664601E+02 -0.13095041971E+04  0.13133104155E+04  0.00000000000E+00 0.  1.
         21    1    1    2  506  504  0.48347488448E+02 -0.45654715965E+02 -0.18865465993E+03  0.20003103120E+03  0.00000000000E+00 0. -1.
<scales pt_clust_3="30.79345" pt_clust_4="68.30162" pt_clust_5="96.21542" pt_clust_6="30.79345"></scales>
<clustering>
<clus scale="   30.793">  3  6 -1 -1</clus>
<clus scale="   68.302">  1  4  2 -1</clus>
<clus scale="   96.215">  2  5  1 -1</clus>
<clus scale="   68.302">  1  3  2 -1</clus>
</clustering>
</event>
<event>
 6    0  0.1704145E+002  0.2574677E+03  0.7546771E-02  0.1108674E+00
         21   -1    0    0  504  501  0.00000000000E+00  0.00000000000E+00  0.15594777107E+03  0.15594777107E+03  0.00000000000E+00 0.  1.
         21   -1    0    0  503  502 -0.00000000000E+00 -0.00000000000E+00 -0.34349100466E+04  0.34349100466E+04  0.00000000000E+00 0.  1.
         21    1    1    2  503  506  0.18895725765E+02  0.35399102224E+02 -0.24216400136E+03  0.24546598226E+03  0.00000000000E+00 0.  1.
         21    1    1    2  504  505  0.38715919633E+02  0.23683346962E+02  0.98849798891E+02  0.10877088810E+03  0.00000000000E+00 0.  1.
         21    1    1    2  505  502  0.47757151404E+02 -0.28258934443E+03 -0.28258560954E+04  0.28403521181E+04  0.00000000000E+00 0.  1.
         21    1    1    2  506  501 -0.10536879680E+03  0.22350689524E+03 -0.30979197770E+03  0.39626882922E+03  0.00000000000E+00 0.  1.
<scales pt_clust_3="40.12661" pt_clust_4="45.43906" pt_clust_5="257.46772" pt_clust_6="14000.00000"></scales>
<clustering>
<clus scale="   40.127">  2  3  1 -1</clus>
<clus scale="   45.439">  1  4  2 -1</clus>
<clus scale="  257.468">  2  5  1 -1</clus>
<clus scale="   45.439">  1  3  2 -1</clus>
</clustering>
</event>
<event>
 6    0  0.1704145E+002  0.1450342E+03  0.7546771E-02  0.1206711E+00
         21   -1    0    0  503  501  0.00000000000E+00  0.00000000000E+00  0.47914730303E+03  0.47914730303E+03  0.00000000000E+00 0. -1.
         21   -1    0    0  506  502 -0.00000000000E+00 -0.00000000000E+00 -0.19843193287E+03  0.19843193287E+03  0.00000000000E+00 0. -1.
         21    1    1    2  503  504  0.75257333161E+01 -0.49309627170E+02  0.28448734126E+03  0.28882715131E+03  0.00000000000E+00 0. -1.
         21    1    1    2  504  502  0.13015338620E+03  0.47244795551E+02 -0.13457484120E+03  0.19308641208E+03  0.00000000000E+00 0. -1.
         21    1    1    2  505  501 -0.60100485111E+02  0.55741813099E+01  0.27239809973E+02  0.66220442880E+02  0.00000000000E+00 0.  1.
         21    1    1    2  506  505 -0.77578634402E+02 -0.35093496912E+01  0.10356306012E+03  0.12944522963E+03  0.00000000000E+00 0. -1.
<scales pt_clust_3="49.88062" pt_clust_4="137.18254" pt_clust_5="41.49992" pt_clust_6="41.49992"></scales>
<clustering>
<clus scale="   41.500">  5  6 -1 -1</clus>
<clus scale="   49.881">  1  3  2 -1</clus>
<clus scale="  137.183">  2  4  1 -1</clus>
<clus scale="   49.881">  1  3  2 -1</clus>
</clustering>
</event>
<event>
 6    0  0.1704145E+002  0.1830220E+03  0.7546771E-02  0.1164910E+00
         21   -1    0    0  503  501  0.00000000000E+00  0.00000000000E+00  0.69716897295E+03  0.69716897295E+03  0.00000000000E+00 0.  1.
         21   -1    0    0  505  502 -0.00000000000E+00 -0.00000000000E+00 -0.28379538438E+03  0.28379538438E+03  0.00000000000E+00 0.  1.
         21    1    1    2  503  506 -0.19358738313E+02 -0.12430588179E+03 -0.18112773018E+03  0.22053110356E+03  0.00000000000E+00 0.  1.
         21    1    1    2  504  501 -0.78559059686E+01  0.34174793698E+02  0.35445520004E+03  0.35618551433E+03  0.00000000000E+00 0.  1.
         21    1    1    2  505  504  0.56832706294E+02  0.13935620162E+03  0.29089937708E+03  0.32752489222E+03  0.00000000000E+00 0.  1.
         21    1    1    2  506  502 -0.29618062012E+02 -0.49225113528E+02 -0.50853258369E+02  0.76722847222E+02  0.00000000000E+00 0.  1.
<scales pt_clust_3="30.46917" pt_clust_4="35.06611" pt_clust_5="177.38109" pt_clust_6="30.46917"></scales>
<clustering>
<clus scale="   30.469">  3  6 -1 -1</clus>
<clus scale="   35.066">  1  4  2 -1</clus>
<clus scale="  177.381">  1  5  2 -1</clus>
<clus scale="   35.066">  1  3  2 -1</clus>
</clustering>
</event>
<event>
 6    0  0.1704145E+002  0.1307795E+03  0.7546771E-02  0.1226304E+00
         21   -1    0    0  505  501  0.00000000000E+00  0.00000000000E+00  0.45589647405E+03  0.45589647405E+03  0.00000000000E+00 0.  1.
         21   -1    0    0  501  502 -0.00000000000E+00 -0.00000000000E+00 -0.88027331099E+03  0.88027331099E+03  0.00000000000E+00 0.  1.
         21    1    1    2  503  506  0.10697175254E+03  0.77807771374E+02 -0.12190504088E+03  0.17988286222E+03  0.00000000000E+00 0.  1.
         21    1    1    2  504  502 -0.31559754311E+02 -0.23965266500E+02 -0.43153550381E+03  0.43335117761E+03  0.00000000000E+00 0.  1.
         21    1    1    2  505  503 -0.36330185550E+02  0.66610796048E+02  0.40884718950E+03  0.41582797513E+03  0.00000000000E+00 0.  1.
         21    1    1    2  506  504 -0.39081812683E+02 -0.12045330092E+03 -0.27978348175E+03  0.30710777009E+03  0.00000000000E+00 0.  1.
<scales pt_clust_3="14000.00000" pt_clust_4="39.62767" pt_clust_5="75.82852" pt_clust_6="130.77945"></scales>
<clustering>
<clus scale="   39.628">  2  4  1 -1</clus>
<clus scale="   75.829">  1  5  2 -1</clus>
<clus scale="  130.779">  2  6  1 -1</clus>
<clus scale="   75.829">  1  3  2 -1</clus>
</clustering>
</event>
<event>
 6    0  0.1704145E+002  0.2216164E+03  0.7546771E-02  0.1132684E+00
         21   -1    0    0  503  501  0.00000000000E+00  0.00000000000E+00  0.23032177463E+03  0.23032177463E+03  0.00000000000E+00 0. -1.
         21   -1    0    0  504  502 -0.00000000000E+00 -0.00000000000E+00 -0.30141503766E+03  0.30141503766E+03  0.00000000000E+00 0. -1.
         21    1    1    2  503  505 -0.29731287278E+02 -0.18293434080E+02  0.12261626505E+02  0.36999279158E+02  0.00000000000E+00 0.  1.
         21    1    1    2  504  501 -0.10820502966E+03  0.18792609884E+03  0.65919155625E+02  0.22664924916E+03  0.00000000000E+00 0. -1.
         21    1    1    2  505  506  0.47324514002E+02 -0.68501778504E+02 -0.33865572974E+02  0.89883148124E+02  0.00000000000E+00 0. -1.
         21    1    1    2  506  502  0.90611802939E+02 -0.10113088625E+03 -0.11540847219E+03  0.17820513584E+03  0.00000000000E+00 0. -1.
<scales pt_clust_3="34.90844" pt_clust_4="217.54751" pt_clust_5="33.10095" pt_clust_6="33.10095"></scales>
<clustering>
<clus scale="   33.101">  5  6 -1 -1</clus>
<clus scale="   34.908">  1  3  2 -1</clus>
<clus scale="  217.548">  1  4  2 -1</clus>
<clus scale="   34.908">  1  3  2 -1</clus>
</clustering>
</event>
<event>
 6    0  0.1704145E+002  0.1092950E+03  0.7546771E-02  0.1261881E+00
         21   -1    0    0  503  501  0.00000000000E+00  0.00000000000E+00  0.12628704403E+04  0.12628704403E+04  0.00000000000E+00 0. -1.
         21   -1    0    0  504  502 -0.00000000000E+00 -0.00000000000E+00 -0.16574231851E+03  0.16574231851E+03  0.00000000000E+00 0. -1.
         21    1    1    2  503  505  0.18514626456E+02 -0.93518631341E+02  0.12026378899E+04  0.12064105520E+04  0.00000000000E+00 0. -1.
         21    1    1    2  504  501  0.66170517110E+02  0.13918275598E+02 -0.35626468598E+02  0.76429712775E+02  0.00000000000E+00 0. -1.
         21    1    1    2  505  506 -0.30611247026E+02  0.48106542163E+02 -0.76723912851E+01  0.57533932869E+02  0.00000000000E+00 0. -1.
         21    1    1    2  506  502 -0.54073896540E+02  0.31493813580E+02 -0.62210908197E+02  0.88238561182E+02  0.00000000000E+00 0. -1.
<scales pt_clust_3="95.32705" pt_clust_4="67.61846" pt_clust_5="51.03290" pt_clust_6="51.03290"></scales>
<clustering>
<clus scale="   51.033">  5  6 -1 -1</clus>
<clus scale="   67.618">  2  4  1 -1</clus>
<clus scale="   95.327">  1  3  2 -1</clus>
<clus scale="   95.327">  1  3  2 -1</clus>
</clustering>
</event>
<event>
 6    0  0.1704145E+002  0.1016622E+03  0.7546771E-02  0.1276839E+00
         21   -1    0    0  505  501  0.00000000000E+00  0.00000000000E+00  0.47978538079E+03  0.47978538079E+03  0.00000000000E+00 0.  1.
         21   -1    0    0  506  502 -0.00000000000E+00 -0.00000000000E+00 -0.11575143663E+03  0.11575143663E+03  0.00000000000E+00 0.  1.
         21    1    1    2  503  502  0.54744701041E+02  0.75993581722E+01  0.20726969090E+02  0.59028296472E+02  0.00000000000E+00 0.  1.
         21    1    1    2  504  501 -0.50930845647E+02  0.19091591650E+02  0.22414931474E+01  0.54437709371E+02  0.00000000000E+00 0.  1.
         21    1    1    2  505  503  0.55108999796E+02 -0.71729098806E+02  0.38526050637E+03  0.39573693692E+03  0.00000000000E+00 0.  1.
         21    1    1    2  506  504 -0.58922855190E+02  0.45038148983E+02 -0.44195024448E+02  0.86333874659E+02  0.00000000000E+00 0.  1.
<scales pt_clust_3="55.26963" pt_clust_4="37.09318" pt_clust_5="91.97347" pt_clust_6="37.09318"></scales>
<clustering>
<clus scale="   37.093">  4  6 -1 -1</clus>
<clus scale="   55.270">  2  3  1 -1</clus>
<clus scale="   91.973">  1  5  2 -1</clus>
<clus scale="   91.973">  1  3  2 -1</clus>
</clustering>
</event>
<event>
 6    0  0.1704145E+002  0.2208292E+03  0.7546771E-02  0.1133266E+00
         21   -1    0    0  506  501  0.00000000000E+00  0.00000000000E+00  0.14212490517E+03  0.14212490517E+03  0.00000000000E+00 0. -1.
         21   -1    0    0  501  502 -0.00000000000E+00 -0.00000000000E+00 -0.14984459530E+04  0.14984459530E+04  0.00000000000E+00 0. -1.
         21    1    1    2  503  502  0.43504858186E+02 -0.17584213894E+02 -0.24799473094E+03  0.25239505510E+03  0.00000000000E+00 0. -1.
         21    1    1    2  504  503  0.12816041926E+03  0.11330957587E+03 -0.11490735637E+04  0.11617375813E+04  0.00000000000E+00 0. -1.
         21    1    1    2  505  504 -0.10893355081E+03 -0.87996138139E+01 -0.60834785393E+01  0.10945757354E+03  0.00000000000E+00 0. -1.
         21    1    1    2  506  505 -0.62731726639E+02 -0.86925748160E+02  0.46830725341E+02  0.11698064821E+03  0.00000000000E+00 0. -1.
<scales pt_clust_3="46.92417" pt_clust_4="194.38084" pt_clust_5="104.56811" pt_clust_6="104.56811"></scales>
<clustering>
<clus scale="   46.924">  2  3  1 -1</clus>
<clus scale="  104.568">  5  6 -1 -1</clus>
<clus scale="  194.381">  2  4  1 -1</clus>
<clus scale="  220.829">  1  3  2 -1</clus>
</clustering>
</event>
<event>
 6    0  0.1704145E+002  0.1024311E+03  0.7546771E-02  0.1275265E+00
         21   -1    0    0  505  501  0.00000000000E+00  0.00000000000E+00  0.18773115008E+03  0.18773115008E+03  0.00000000000E+00 0. -1.
         21   -1    0    0  506  502 -0.00000000000E+00 -0.00000000000E+00 -0.18640393206E+03  0.18640393206E+03  0.00000000000E+00 0. -1.
         21    1    1    2  503  504 -0.52129846823E+02  0.23905025612E+02  0.66291495893E+01  0.57731419553E+02  0.00000000000E+00 0. -1.
         21    1    1    2  504  502  0.84335696593E+01 -0.83880720329E+02 -0.11003265960E+03  0.13861560705E+03  0.00000000000E+00 0. -1.
         21    1    1    2  505  503 -0.20596224703E+02  0.67634635923E+02  0.24802245407E+02  0.74925294966E+02  0.00000000000E+00 0.  1.
         21    1    1    2  506  501  0.64292501866E+02 -0.76589412061E+01  0.79928482628E+02  0.10286276057E+03  0.00000000000E+00 0. -1.
<scales pt_clust_3="48.84499" pt_clust_4="86.89563" pt_clust_5="48.84499" pt_clust_6="64.74709"></scales>
<clustering>
<clus scale="   48.845">  3  5 -1 -1</clus>
<clus scale="   64.747">  1  6  2 -1</clus>
<clus scale="   86.896">  2  4  1 -1</clus>
<clus scale="   64.747">  1  3  2 -1</clus>
</clustering>
</event>
<event>
 6    0  0.1704145E+002  0.1127408E+03  0.7546771E-02  0.1255577E+00
         21   -1    0    0  505  501  0.00000000000E+00  0.00000000000E+00  0.14132817624E+04  0.14132817624E+04  0.00000000000E+00 0. -1.
         21   -1    0    0  506  502 -0.00000000000E+00 -0.00000000000E+00 -0.57418625298E+03  0.57418625298E+03  0.00000000000E+00 0. -1.
         21    1    1    2  503  501 -0.81888043192E+02 -0.80099285497E+02  0.13764944491E+04  0.13812525169E+04  0.00000000000E+00 0. -1.
         21    1    1    2  504  503  0.66254389320E+02  0.36612606000E+02 -0.24785601688E+02  0.79652075135E+02  0.00000000000E+00 0. -1.
         21    1    1    2  505  502  0.14050042931E+02  0.77681832257E+02 -0.42919377399E+03  0.43639336200E+03  0.00000000000E+00 0. -1.
         21    1    1    2  506  504  0.15836109414E+01 -0.34195152760E+02 -0.83419564005E+02  0.90170061300E+02  0.00000000000E+00 0.  1.
<scales pt_clust_3="14000.00000" pt_clust_4="112.74076" pt_clust_5="49.77768" pt_clust_6="34.23180"></scales>
<clustering>
<clus scale="   34.232">  2  6  1 -1</clus>
<clus scale="   49.778">  2  5  1 -1</clus>
<clus scale="  112.741">  2  4  1 -1</clus>
<clus scale="  112.741">  1  3  2 -1</clus>
</clustering>
</event>
<event>
 6    0  0.1704145E+002  0.4360611E+03  0.7546771E-02  0.1031962E+00
         21   -1    0    0  503  501  0.00000000000E+00  0.00000000000E+00  0.22598483999E+04  0.22598483999E+04  0.00000000000E+00 0. -1.
         21   -1    0    0  504  502 -0.00000000000E+00 -0.00000000000E+00 -0.14022167510E+03  0.14022167510E+03  0.00000000000E+00 0. -1.
         21    1    1    2  503  502  0.33247885813E+03  0.18763593888E+03  0.18464564637E+04  0.18855107820E+04  0.00000000000E+00 0. -1.
         21    1    1    2  504  506 -0.93604413326E+02  0.92340331347E+01  0.47396390478E+02  0.10532554957E+03  0.00000000000E+00 0. -1.
         21    1    1    2  505  501 -0.83817828532E+02 -0.92325328110E+02  0.17603105625E+03  0.21572280212E+03  0.00000000000E+00 0. -1.
         21    1    1    2  506  505 -0.15505661627E+03 -0.10454464390E+03  0.49742814341E+02  0.19351094129E+03  0.00000000000E+00 0. -1.
<scales pt_clust_3="381.77145" pt_clust_4="67.09654" pt_clust_5="124.09905" pt_clust_6="124.09905"></scales>
<clustering>
<clus scale="   67.097">  4  6 -1 -1</clus>
<clus scale="  124.099">  4  5 -1 -1</clus>
<clus scale="  381.771">  1  3  2 -1</clus>
<clus scale="  381.771">  1  3  2 -1</clus>
</clustering>
</event>
<event>
 6    0  0.1704145E+002  0.2151787E+03  0.7546771E-02  0.1137529E+00
         21   -1    0    0  504  501  0.00000000000E+00  0.00000000000E+00  0.67253883549E+03  0.67253883549E+03  0.00000000000E+00 0. -1.
         21   -1    0    0  506  502 -0.00000000000E+00 -0.00000000000E+00 -0.45328326439E+03  0.45328326439E+03  0.00000000000E+00 0.  1.
         21    1    1    2  503  502  0.18441076626E+03 -0.26875261824E+02 -0.33155864278E+03  0.38034292949E+03  0.00000000000E+00 0.  1.
         21    1    1    2  504  503  0.74624375638E+02 -0.20353465632E+02  0.43765686102E+03  0.44443963483E+03  0.00000000000E+00 0. -1.
         21    1    1    2  505  501 -0.54837688645E+02 -0.11574634760E+02  0.59776934696E+02  0.81941602299E+02  0.00000000000E+00 0. -1.
         21    1    1    2  506  505 -0.20419745325E+03  0.58803362216E+02  0.53380418159E+02  0.21909793327E+03  0.00000000000E+00 0. -1.
<scales pt_clust_3="194.45159" pt_clust_4="77.35025" pt_clust_5="47.32193" pt_clust_6="47.32193"></scales>
<clustering>
<clus scale="   47.322">  5  6 -1 -1</clus>
<clus scale="   77.350">  1  4  2 -1</clus>
<clus scale="  194.452">  2  3  1 -1</clus>
<clus scale="   77.350">  1  3  2 -1</clus>
</clustering>
</event>
<event>
 6    0  0.1704145E+002  0.1627991E+03  0.7546771E-02  0.1185572E+00
         21   -1    0    0  506  501  0.00000000000E+00  0.00000000000E+00  0.16982364699E+03  0.16982364699E+03  0.00000000000E+00 0.  1.
         21   -1    0    0  504  502 -0.00000000000E+00 -0.00000000000E+00 -0.75555313961E+03  0.75555313961E+03  0.00000000000E+00 0.  1.
         21    1    1    2  503  501 -0.41837892981E+02  0.17254390341E+02  0.12354469518E+03  0.13157285047E+03  0.00000000000E+00 0.  1.
         21    1    1    2  504  503  0.18064741535E+03 -0.30076764055E+02 -0.24757374075E+03  0.30794619256E+03  0.00000000000E+00 0.  1.
         21    1    1    2  505  502 -0.99898928635E+02 -0.17785265497E+02 -0.29513989884E+03  0.31209561275E+03  0.00000000000E+00 0.  1.
         21    1    1    2  506  505 -0.38910593730E+02  0.30607639211E+02 -0.16656054822E+03  0.17376213082E+03  0.00000000000E+00 0.  1.
<scales pt_clust_3="45.25620" pt_clust_4="151.80782" pt_clust_5="41.07434" pt_clust_6="41.07434"></scales>
<clustering>
<clus scale="   41.074">  5  6 -1 -1</clus>
<clus scale="   45.256">  1  3  2 -1</clus>
<clus scale="  151.808">  1  4  2 -1</clus>
<clus scale="   45.256">  1  3  2 -1</clus>
</clustering>
</event>
<event>
 6    0  0.1704145E+002  0.8117903E+02  0.7546771E-02  0.1325738E+00
         21   -1    0    0  504  501  0.00000000000E+00  0.00000000000E+00  0.84158829269E+02  0.84158829269E+02  0.00000000000E+00 0.  1.
         21   -1    0    0  503  502 -0.00000000000E+00 -0.00000000000E+00 -0.28678529738E+03  0.28678529738E+03  0.00000000000E+00 0.  1.
         21    1    1    2  503  501  0.30005027362E+02  0.14074810262E+02 -0.13498590641E+01  0.33169625720E+02  0.00000000000E+00 0. -1.
         21    1    1    2  504  505 -0.21094069383E+02 -0.68959057311E+02  0.13326816846E+01  0.72125497494E+02  0.00000000000E+00 0.  1.
         21    1    1    2  505  506 -0.83510737167E+02  0.94404632358E+01 -0.90116805074E+02  0.12322420268E+03  0.00000000000E+00 0.  1.
         21    1    1    2  506  502  0.74599779187E+02  0.45443783813E+02 -0.11249248566E+03  0.14242480076E+03  0.00000000000E+00 0.  1.
<scales pt_clust_3="33.14215" pt_clust_4="61.58348" pt_clust_5="14000.00000" pt_clust_6="81.17903"></scales>
<clustering>
<clus scale="   33.142">  1  3  2 -1</clus>
<clus scale="   61.583">  1  4  2 -1</clus>
<clus scale="   81.179">  2  6  1 -1</clus>
<clus scale="   33.142">  1  3  2 -1</clus>
</clustering>
</event>
<event>
 6    0  0.1704145E+002  0.2290071E+03  0.7546771E-02  0.1127341E+00
         21   -1    0    0  506  501  0.00000000000E+00  0.00000000000E+00  0.97513145420E+02  0.97513145420E+02  0.00000000000E+00 0.  1.
         21   -1    0    0  504  502 -0.00000000000E+00 -0.00000000000E+00 -0.10705903778E+04  0.10705903778E+04  0.00000000000E+00 0.  1.
         21    1    1    2  503  502  0.40916490862E+02 -0.16456831615E+02 -0.23437821057E+03  0.23849136697E+03  0.00000000000E+00 0.  1.
         21    1    1    2  504  501 -0.38925736440E+02 -0.32468776186E+02  0.31147480560E+02  0.59494536973E+02  0.00000000000E+00 0.  1.
         21    1    1    2  505  503  0.12475004670E+03 -0.12670094331E+03 -0.44986127657E+03  0.48372602922E+03  0.00000000000E+00 0.  1.
         21    1    1    2  506  505 -0.12674080113E+03  0.17562655111E+03 -0.31998522575E+03  0.38639159000E+03  0.00000000000E+00 0.  1.
<scales pt_clust_3="36.84981" pt_clust_4="50.68959" pt_clust_5="36.84981" pt_clust_6="216.72448"></scales>
<clustering>
<clus scale="   36.850">  3  5 -1 -1</clus>
<clus scale="   50.690">  1  4  2 -1</clus>
<clus scale="  216.724">  1  6  2 -1</clus>
<clus scale="   50.690">  1  3  2 -1</clus>
</clustering>
</event>
<event>
 6    0  0.1704145E+002  0.1531041E+03  0.7546771E-02  0.1196710E+00
         21   -1    0    0  504  501  0.00000000000E+00  0.00000000000E+00  0.21984765698E+03  0.21984765698E+03  0.00000000000E+00 0.  1.
         21   -1    0    0  505  502 -0.00000000000E+00 -0.00000000000E+00 -0.71165307031E+03  0.71165307031E+03  0.00000000000E+00 0.  1.
         21    1    1    2  503  501 -0.54674432578E+02  0.44438826429E+02  0.18031760406E+03  0.19359375302E+03  0.00000000000E+00 0.  1.
         21    1    1    2  504  506 -0.41164138658E+02 -0.59833541134E+02 -0.10931008733E+03  0.13123731995E+03  0.00000000000E+00 0.  1.
         21    1    1    2  505  503  0.90381811783E+02  0.10393796652E+03 -0.34646842751E+03  0.37284359193E+03  0.00000000000E+00 0.  1.
         21    1    1    2  506  502  0.54567594537E+01 -0.88543251816E+02 -0.21634450255E+03  0.23382606239E+03  0.00000000000E+00 0.  1.
<scales pt_clust_3="70.45639" pt_clust_4="56.71983" pt_clust_5="139.68247" pt_clust_6="56.71983"></scales>
<clustering>
<clus scale="   56.720">  4  6 -1 -1</clus>
<clus scale="   70.456">  1  3  2 -1</clus>
<clus scale="  139.682">  2  5  1 -1</clus>
<clus scale="   70.456">  1  3  2 -1</clus>
</clustering>
</event>
<event>
 6    0  0.1704145E+002  0.2175422E+03  0.7546771E-02  0.1135729E+00
         21   -1    0    0  502  501  0.00000000000E+00  0.00000000000E+00  0.25210108884E+04  0.25210108884E+04  0.00000000000E+00 0.  1.
         21   -1    0    0  506  502 -0.00000000000E+00 -0.00000000000E+00 -0.65755153835E+03  0.65755153835E+03  0.00000000000E+00 0. -1.
         21    1    1    2  503  501 -0.41452055916E+02  0.28545393703E+02  0.24098237675E+04  0.24103492907E+04  0.00000000000E+00 0.  1.
         21    1    1    2  504  505  0.27473775597E+02  0.15628158337E+03 -0.30189591026E+03  0.34105700737E+03  0.00000000000E+00 0. -1.
         21    1    1    2  505  503  0.12419764168E+02 -0.23035559532E+03 -0.61704129257E+02  0.23879981240E+03  0.00000000000E+00 0. -1.
         21    1    1    2  506  504  0.15585161510E+01  0.45528618249E+02 -0.18276437795E+03  0.18835631632E+03  0.00000000000E+00 0. -1.
<scales pt_clust_3="50.33004" pt_clust_4="33.08444" pt_clust_5="208.59526" pt_clust_6="33.08444"></scales>
<clustering>
<clus scale="   33.084">  4  6 -1 -1</clus>
<clus scale="   50.330">  1  3  2 -1</clus>
<clus scale="  208.595">  1  5  2 -1</clus>
<clus scale="   50.330">  1  3  2 -1</clus>
</clustering>
</event>
<event>
 6    0  0.1704145E+002  0.1715134E+03  0.7546771E-02  0.1176279E+00
         21   -1    0    0  503  501  0.00000000000E+00  0.00000000000E+00  0.17772271651E+04  0.17772271651E+04  0.00000000000E+00 0.  1.
         21   -1    0    0  501  502 -0.00000000000E+00 -0.00000000000E+00 -0.24916603427E+02  0.24916603427E+02  0.00000000000E+00 0.  1.
         21    1    1    2  503  504  0.43518029051E+02  0.13087710572E+02  0.31140151594E+03  0.31469987472E+03  0.00000000000E+00 0.  1.
         21    1    1    2  504  506 -0.61475958703E+02 -0.17100281300E+03  0.10012250431E+04  0.10175818603E+04  0.00000000000E+00 0.  1.
         21    1    1    2  505  502 -0.11115157236E+02  0.51369034839E+02  0.18367867793E+03  0.19105020593E+03  0.00000000000E+00 0.  1.
         21    1    1    2  506  505  0.29073086888E+02  0.10654606759E+03  0.25600532476E+03  0.27881182760E+03  0.00000000000E+00 0.  1.
<scales pt_clust_3="45.44345" pt_clust_4="165.00975" pt_clust_5="32.27305" pt_clust_6="32.27305"></scales>
<clustering>
<clus scale="   32.273">  5  6 -1 -1</clus>
<clus scale="   45.443">  1  3  2 -1</clus>
<clus scale="  165.010">  1  4  2 -1</clus>
<clus scale="   45.443">  1  3  2 -1</clus>
</clustering>
</event>
<event>
 6    0  0.1704145E+002  0.1630230E+03  0.7546771E-02  0.1185326E+00
         21   -1    0    0  506  501  0.00000000000E+00  0.00000000000E+00  0.21149101099E+04  0.21149101099E+04  0.00000000000E+00 0.  1.
         21   -1    0    0  504  502 -0.00000000000E+00 -0.00000000000E+00 -0.13840986135E+02  0.13840986135E+02  0.00000000000E+00 0.  1.
         21    1    1    2  503  502 -0.87432712021E+02  0.86827891894E+02  0.58537810588E+03  0.59820656030E+03  0.00000000000E+00 0.  1.
         21    1    1    2  504  505  0.82300915103E+02 -0.73918665211E+02  0.11525913544E+04  0.11578878356E+04  0.00000000000E+00 0.  1.
         21    1    1    2  505  501  0.43412391506E+02 -0.69455031157E+01  0.22336910450E+03  0.22765463447E+03  0.00000000000E+00 0. -1.
         21    1    1    2  506  503 -0.38280594588E+02 -0.59637235677E+01  0.13973055897E+03  0.14500206561E+03  0.00000000000E+00 0.  1.
<scales pt_clust_3="36.48433" pt_clust_4="162.66761" pt_clust_5="40.45448" pt_clust_6="36.48433"></scales>
<clustering>
<clus scale="   36.484">  3  6 -1 -1</clus>
<clus scale="   40.454">  4  5 -1 -1</clus>
<clus scale="  162.668">  1  4  2 -1</clus>
<clus scale="  162.668">  1  3  2 -1</clus>
</clustering>
</event>
<event>
 6    0  0.1704145E+002  0.1226751E+03  0.7546771E-02  0.1238748E+00
         21   -1    0    0  505  501  0.00000000000E+00  0.00000000000E+00  0.19025338500E+03  0.19025338500E+03  0.00000000000E+00 0. -1.
         21   -1    0    0  504  502 -0.00000000000E+00 -0.00000000000E+00 -0.81273060397E+03  0.81273060397E+03  0.00000000000E+00 0.  1.
         21    1    1    2  503  506 -0.43219289324E+02 -0.10932800757E+02  0.23364226743E+02  0.50332099036E+02  0.00000000000E+00 0.  1.
         21    1    1    2  504  503  0.97484688474E+02 -0.87921046403E+02 -0.75065732612E+03  0.76204973338E+03  0.00000000000E+00 0.  1.
         21    1    1    2  505  502 -0.18557518834E+02  0.74709055876E+02 -0.31246109260E+00  0.76980011478E+02  0.00000000000E+00 0.  1.
         21    1    1    2  506  501 -0.35707880316E+02  0.24144791284E+02  0.10512834151E+03  0.11362214507E+03  0.00000000000E+00 0. -1.
<scales pt_clust_3="59.48787" pt_clust_4="14000.00000" pt_clust_5="122.67514" pt_clust_6="43.10480"></scales>
<clustering>
<clus scale="   43.105">  1  6  2 -1</clus>
<clus scale="   59.488">  1  3  2 -1</clus>
<clus scale="  122.675">  1  5  2 -1</clus>
<clus scale="   43.105">  1  3  2 -1</clus>
</clustering>
</event>
<event>
 6    0  0.1704145E+002  0.2250438E+03  0.7546771E-02  0.1130178E+00
         21   -1    0    0  504  501  0.00000000000E+00  0.00000000000E+00  0.14996961966E+04  0.14996961966E+04  0.00000000000E+00 0.  1.
         21   -1    0    0  505  502 -0.00000000000E+00 -0.00000000000E+00 -0.31427117642E+03  0.31427117642E+03  0.00000000000E+00 0.  1.
         21    1    1    2  503  506  0.61409576338E+02 -0.75474222564E+02 -0.79815458465E+02  0.12584912295E+03  0.00000000000E+00 0.  1.
         21    1    1    2  504  503  0.52650484249E+02 -0.69416474593E+02 -0.14436883342E+02  0.88312762595E+02  0.00000000000E+00 0.  1.
         21    1    1    2  505  501 -0.10655635997E+03  0.19282823330E+03  0.14274084605E+04  0.14443101809E+04  0.00000000000E+00 0.  1.
         21    1    1    2  506  502 -0.75037006195E+01 -0.47937536143E+02 -0.14773109854E+03  0.15549530659E+03  0.00000000000E+00 0.  1.
<scales pt_clust_3="49.41667" pt_clust_4="49.41667" pt_clust_5="218.32525" pt_clust_6="48.52126"></scales>
<clustering>
<clus scale="   48.521">  2  6  1 -1</clus>
<clus scale="   49.417">  3  4 -1 -1</clus>
<clus scale="  218.325">  1  5  2 -1</clus>
<clus scale="  218.325">  1  3  2 -1</clus>
</clustering>
</event>
<event>
 6    0  0.1704145E+002  0.1512463E+03  0.7546771E-02  0.1198950E+00
         21   -1    0    0  503  501  0.00000000000E+00  0.00000000000E+00  0.18631720122E+03  0.18631720122E+03  0.00000000000E+00 0. -1.
         21   -1    0    0  505  502 -0.00000000000E+00 -0.00000000000E+00 -0.31813031729E+03  0.31813031729E+03  0.00000000000E+00 0. -1.
         21    1    1    2  503  504 -0.12383166891E+03  0.13314037263E+03 -0.44792470796E+02  0.18726186609E+03  0.00000000000E+00 0. -1.
         21    1    1    2  504  502 -0.27276581124E+01  0.34641273312E+02 -0.64506813182E+02  0.73270641339E+02  0.00000000000E+00 0.  1.
         21    1    1    2  505  506  0.11696968891E+03 -0.75060947944E+02 -0.48405840306E+02  0.14717057928E+03  0.00000000000E+00 0. -1.
         21    1    1    2  506  501  0.95896381177E+01 -0.92720697999E+02  0.25892008209E+02  0.96744431807E+02  0.00000000000E+00 0. -1.
<scales pt_clust_3="151.24627" pt_clust_4="34.74850" pt_clust_5="14000.00000" pt_clust_6="88.27783"></scales>
<clustering>
<clus scale="   34.748">  2  4  1 -1</clus>
<clus scale="   88.278">  1  6  2 -1</clus>
<clus scale="  151.246">  1  3  2 -1</clus>
<clus scale="   88.278">  1  3  2 -1</clus>
</clustering>
</event>
<event>
 6    0  0.1704145E+002  0.1742094E+03  0.7546771E-02  0.1173528E+00
         21   -1    0    0  504  501  0.00000000000E+00  0.00000000000E+00  0.18402229615E+04  0.18402229615E+04  0.00000000000E+00 0.  1.
         21   -1    0    0  501  502 -0.00000000000E+00 -0.00000000000E+00 -0.94954776742E+02  0.94954776742E+02  0.00000000000E+00 0.  1.
         21    1    1    2  503  502 -0.48811713691E+02 -0.72952830336E+02  0.92833256025E+01  0.88265955962E+02  0.00000000000E+00 0.  1.
         21    1    1    2  504  505 -0.34824304365E+02  0.16714598247E+03  0.16960994886E+04  0.17046712254E+04  0.00000000000E+00 0.  1.
         21    1    1    2  505  506  0.11574256984E+02 -0.29408708274E+02  0.32067656877E+02  0.45024106484E+02  0.00000000000E+00 0. -1.
         21    1    1    2  506  503  0.72061761073E+02 -0.64784443864E+02  0.78177137005E+01  0.97216450373E+02  0.00000000000E+00 0.  1.
<scales pt_clust_3="87.77641" pt_clust_4="166.05634" pt_clust_5="30.07993" pt_clust_6="30.07993"></scales>
<clustering>
<clus scale="   30.080">  5  6 -1 -1</clus>
<clus scale="   87.776">  2  3  1 -1</clus>
<clus scale="  166.056">  1  4  2 -1</clus>
<clus scale="  166.056">  1  3  2 -1</clus>
</clustering>
</event>
<event>
 6    0  0.1704145E+002  0.1073496E+03  0.7546771E-02  0.1265558E+00
         21   -1    0    0  506  501  0.00000000000E+00  0.00000000000E+00  0.50866383929E+03  0.50866383929E+03  0.00000000000E+00 0.  1.
         21   -1    0    0  503  502 -0.00000000000E+00 -0.00000000000E+00 -0.93896838168E+02  0.93896838168E+02  0.00000000000E+00 0.  1.
         21    1    1    2  503  504  0.39240989215E+02  0.99681667126E+02  0.29238782193E+02  0.11104592014E+03  0.00000000000E+00 0.  1.
         21    1    1    2  504  505 -0.30998840657E+02  0.54722251913E+02  0.12869884738E+03  0.14324400962E+03  0.00000000000E+00 0.  1.
         21    1    1    2  505  501 -0.23029933620E+02 -0.40462967390E+02  0.22398400006E+03  0.22877163691E+03  0.00000000000E+00 0.  1.
         21    1    1    2  506  502  0.14787785062E+02 -0.11394095165E+03  0.32845371491E+02  0.11949911078E+03  0.00000000000E+00 0.  1.
<scales pt_clust_3="107.34956" pt_clust_4="54.89103" pt_clust_5="46.55781" pt_clust_6="14000.00000"></scales>
<clustering>
<clus scale="   46.558">  1  5  2 -1</clus>
<clus scale="   54.891">  1  4  2 -1</clus>
<clus scale="  107.350">  2  3  1 -1</clus>
<clus scale="   46.558">  1  3  2 -1</clus>
</clustering>
</event>
<event>
 6    0  0.1704145E+002  0.1128859E+03  0.7546771E-02  0.1255317E+00
         21   -1    0    0  505  501  0.00000000000E+00  0.00000000000E+00  0.11734019361E+04  0.11734019361E+04  0.00000000000E+00 0.  1.
         21   -1    0    0  504  502 -0.00000000000E+00 -0.00000000000E+00 -0.97142389911E+03  0.97142389911E+03  0.00000000000E+00 0. -1.
         21    1    1    2  503  501 -0.77369983239E+01 -0.69118848501E+02 -0.12762709381E+03  0.14534769154E+03  0.00000000000E+00 0. -1.
         21    1    1    2  504  503 -0.21331236608E+02  0.41318096756E+02 -0.28648992845E+03  0.29023901509E+03  0.00000000000E+00 0. -1.
         21    1    1    2  505  506  0.10689970261E+03  0.36841547715E+02  0.11570889680E+04  0.11626004155E+04  0.00000000000E+00 0.  1.
         21    1    1    2  506  502 -0.77831467674E+02 -0.90407959704E+01 -0.54099390878E+03  0.54663871312E+03  0.00000000000E+00 0. -1.
<scales pt_clust_3="62.03435" pt_clust_4="46.49954" pt_clust_5="14000.00000" pt_clust_6="112.88590"></scales>
<clustering>
<clus scale="   46.500">  2  4  1 -1</clus>
<clus scale="   62.034">  2  3  1 -1</clus>
<clus scale="  112.886">  2  6  1 -1</clus>
<clus scale="  112.886">  1  3  2 -1</clus>
</clustering>
</event>
<event>
 6    0  0.1704145E+002  0.1155094E+03  0.7546771E-02  0.1250694E+00
         21   -1    0    0  504  501  0.00000000000E+00  0.00000000000E+00  0.48747772201E+03  0.48747772201E+03  0.00000000000E+00 0.  1.
         21   -1    0    0  506  502 -0.00000000000E+00 -0.00000000000E+00 -0.27637647258E+03  0.27637647258E+03  0.00000000000E+00 0.  1.
         21    1    1    2  503  501  0.11400879438E+03  0.22228043241E+02  0.43543739018E+03  0.45066374590E+03  0.00000000000E+00 0.  1.
         21    1    1    2  504  505 -0.10805383191E+03  0.46680900323E+02 -0.19213316665E+03  0.22532174944E+03  0.00000000000E+00 0.  1.
         21    1    1    2  505  502 -0.24716996443E+02 -0.43678350458E+02 -0.22161721934E+02  0.54862283319E+02  0.00000000000E+00 0.  1.
         21    1    1    2  506  503  0.18762033974E+02 -0.25230593106E+02 -0.10041252163E+02  0.33006415926E+02  0.00000000000E+00 0. -1.
<scales pt_clust_3="14000.00000" pt_clust_4="115.50943" pt_clust_5="52.28971" pt_clust_6="31.44196"></scales>
<clustering>
<clus scale="   31.442">  2  6  1 -1</clus>
<clus scale="   52.290">  2  5  1 -1</clus>
<clus scale="  115.509">  2  4  1 -1</clus>
<clus scale="  115.509">  1  3  2 -1</clus>
</clustering>
</event>
<event>
 6    0  0.1704145E+002  0.1251763E+03  0.7546771E-02  0.1234794E+00
         21   -1    0    0  506  501  0.00000000000E+00  0.00000000000E+00  0.17014953421E+03  0.17014953421E+03  0.00000000000E+00 0.  1.
         21   -1    0    0  505  502 -0.00000000000E+00 -0.00000000000E+00 -0.20052672236E+04  0.20052672236E+04  0.00000000000E+00 0. -1.
         21    1    1    2  503  504 -0.35514714809E+02 -0.33540589099E+02 -0.49185672303E+03  0.49427654413E+03  0.00000000000E+00 0. -1.
         21    1    1    2  504  502  0.67572580706E+00 -0.68008348742E+02 -0.11147731866E+04  0.11168459382E+04  0.00000000000E+00 0. -1.
         21    1    1    2  505  501  0.45451539206E+02  0.13884395393E+03 -0.38041154641E+03  0.40750022160E+03  0.00000000000E+00 0.  1.
         21    1    1    2  506  503 -0.10612550204E+02 -0.37295016094E+02  0.15192376667E+03  0.15679405386E+03  0.00000000000E+00 0.  1.
<scales pt_clust_3="46.24507" pt_clust_4="46.24507" pt_clust_5="112.86750" pt_clust_6="38.77557"></scales>
<clustering>
<clus scale="   38.776">  1  6  2 -1</clus>
<clus scale="   46.245">  3  4 -1 -1</clus>
<clus scale="  112.867">  1  5  2 -1</clus>
<clus scale="   38.776">  1  3  2 -1</clus>
</clustering>
</event>
<event>
 6    0  0.1704145E+002  0.1978541E+03  0.7546771E-02  0.1151562E+00
         21   -1    0    0  502  501  0.00000000000E+00  0.00000000000E+00  0.59015481114E+03  0.59015481114E+03  0.00000000000E+00 0.  1.
         21   -1    0    0  505  502 -0.00000000000E+00 -0.00000000000E+00 -0.79571216024E+03  0.79571216024E+03  0.00000000000E+00 0. -1.
         21    1    1    2  503  506  0.84466642456E+02 -0.88504280706E+01  0.75062680012E+02  0.11334614989E+03  0.00000000000E+00 0.  1.
         21    1    1    2  504  501  0.46896492285E+02  0.89067864373E+02  0.42725618323E+03  0.43895354146E+03  0.00000000000E+00 0.  1.
         21    1    1    2  505  503 -0.16686627653E+03 -0.10897241342E+03 -0.74717842283E+03  0.77330132334E+03  0.00000000000E+00 0. -1.
         21    1    1    2  506  504  0.35503141786E+02  0.28754977120E+02  0.39302210497E+02  0.60265956690E+02  0.00000000000E+00 0.  1.
<scales pt_clust_3="34.96704" pt_clust_4="100.65965" pt_clust_5="192.02433" pt_clust_6="34.96704"></scales>
<clustering>
<clus scale="   34.967">  3  6 -1 -1</clus>
<clus scale="  100.660">  1  4  2 -1</clus>
<clus scale="  192.024">  2  5  1 -1</clus>
<clus scale="  100.660">  1  3  2 -1</clus>
</clustering>
</event>
<event>
 6    0  0.1704145E+002  0.2551691E+03  0.7546771E-02  0.1110081E+00
         21   -1    0    0  503  501  0.00000000000E+00  0.00000000000E+00  0.69240226441E+03  0.69240226441E+03  0.00000000000E+00 0.  1.
         21   -1    0    0  505  502 -0.00000000000E+00 -0.00000000000E+00 -0.11717963942E+03  0.11717963942E+03  0.00000000000E+00 0.  1.
         21    1    1    2  503  506  0.13764901938E+02 -0.48260498234E+02  0.11949228629E+03  0.12960306593E+03  0.00000000000E+00 0. -1.
         21    1    1    2  504  501  0.33625109491E+02  0.29213965574E+02  0.66534325292E+02  0.80068222253E+02  0.00000000000E+00 0.  1.
         21    1    1    2  505  504  0.19929763439E+03  0.52502662395E+02  0.15231538693E+03  0.25627339645E+03  0.00000000000E+00 0.  1.
         21    1    1    2  506  502 -0.24668764582E+03 -0.33456129735E+02  0.23688062648E+03  0.34363721919E+03  0.00000000000E+00 0.  1.
<scales pt_clust_3="50.18514" pt_clust_4="30.48477" pt_clust_5="30.48477" pt_clust_6="246.59968"></scales>
<clustering>
<clus scale="   30.485">  4  5 -1 -1</clus>
<clus scale="   50.185">  1  3  2 -1</clus>
<clus scale="  246.600">  1  6  2 -1</clus>
<clus scale="   50.185">  1  3  2 -1</clus>
</clustering>
</event>
<event>
 6    0  0.1704145E+002  0.2055240E+03  0.7546771E-02  0.1145160E+00
         21   -1    0    0  504  501  0.00000000000E+00  0.00000000000E+00  0.21424378859E+03  0.21424378859E+03  0.00000000000E+00 0.  1.
         21   -1    0    0  506  502 -0.00000000000E+00 -0.00000000000E+00 -0.56719665689E+03  0.56719665689E+03  0.00000000000E+00 0. -1.
         21    1    1    2  503  502  0.23309884918E+02 -0.47317640459E+02 -0.20009238183E+03  0.20692817860E+03  0.00000000000E+00 0. -1.
         21    1    1    2  504  505 -0.17955449753E+03  0.86691055154E+02  0.12605356169E+03  0.23589119746E+03  0.00000000000E+00 0.  1.
         21    1    1    2  505  503  0.10253762034E+03 -0.57917635714E+02 -0.24655125913E+03  0.27323239100E+03  0.00000000000E+00 0. -1.
         21    1    1    2  506  501  0.53706992264E+02  0.18544221019E+02 -0.32362789041E+02  0.65388678422E+02  0.00000000000E+00 0. -1.
<scales pt_clust_3="43.12221" pt_clust_4="195.16287" pt_clust_5="43.12221" pt_clust_6="56.81839"></scales>
<clustering>
<clus scale="   43.122">  3  5 -1 -1</clus>
<clus scale="   56.818">  2  6  1 -1</clus>
<clus scale="  195.163">  1  4  2 -1</clus>
<clus scale="  195.163">  1  3  2 -1</clus>
</clustering>
</event>
<event>
 6    0  0.1704145E+002  0.1427210E+03  0.7546771E-02  0.1209714E+00
         21   -1    0    0  505  501  0.00000000000E+00  0.00000000000E+00  0.16718366794E+04  0.16718366794E+04  0.00000000000E+00 0.  1.
         21   -1    0    0  506  502 -0.00000000000E+00 -0.00000000000E+00 -0.98815896387E+02  0.98815896387E+02  0.00000000000E+00 0.  1.
         21    1    1    2  503  501 -0.17418713894E+03 -0.14228152035E+01  0.25120770417E+03  0.30569346478E+03  0.00000000000E+00 0. -1.
         21    1    1    2  504  502  0.20716713659E+02  0.28494328154E+02  0.53409325544E+02  0.63981755344E+02  0.00000000000E+00 0. -1.
         21    1    1    2  505  504  0.36521737327E+02 -0.24297516909E+02  0.12824102315E+04  0.12831602427E+04  0.00000000000E+00 0.  1.
         21    1    1    2  506  503  0.11694868796E+03 -0.27739960413E+01 -0.14006478214E+02  0.11781711294E+03  0.00000000000E+00 0.  1.
<scales pt_clust_3="142.72105" pt_clust_4="35.22938" pt_clust_5="43.87188" pt_clust_6="14000.00000"></scales>
<clustering>
<clus scale="   35.229">  2  4  1 -1</clus>
<clus scale="   43.872">  1  5  2 -1</clus>
<clus scale="  142.721">  1  3  2 -1</clus>
<clus scale="   43.872">  1  3  2 -1</clus>
</clustering>
</event>
<event>
 6    0  0.1704145E+002  0.2077233E+03  0.7546771E-02  0.1143382E+00
         21   -1    0    0  502  501  0.00000000000E+00  0.00000000000E+00  0.20193445262E+04  0.20193445262E+04  0.00000000000E+00 0. -1.
         21   -1    0    0  506  502 -0.00000000000E+00 -0.00000000000E+00 -0.60410555936E+02  0.60410555936E+02  0.00000000000E+00 0.  1.
         21    1    1    2  503  501 -0.79462853669E+00  0.21123079259E+03  0.17326910963E+04  0.17455192678E+04  0.00000000000E+00 0. -1.
         21    1    1    2  504  505 -0.34626773634E+02 -0.10380594521E+03  0.15069049276E+03  0.18623187783E+03  0.00000000000E+00 0.  1.
         21    1    1    2  505  503  0.23872967660E+02 -0.45701522332E+02  0.67131518062E+02  0.84647436144E+02  0.00000000000E+00 0.  1.
         21    1    1    2  506  504  0.11548434511E+02 -0.61723325048E+02  0.84208631138E+01  0.63356500300E+02  0.00000000000E+00 0.  1.
<scales pt_clust_3="199.21831" pt_clust_4="40.38302" pt_clust_5="40.38302" pt_clust_6="62.79439"></scales>
<clustering>
<clus scale="   40.383">  4  5 -1 -1</clus>
<clus scale="   62.794">  2  6  1 -1</clus>
<clus scale="  199.218">  1  3  2 -1</clus>
<clus scale="  199.218">  1  3  2 -1</clus>
</clustering>
</event>
<event>
 6    0  0.1704145E+002  0.1360107E+03  0.7546771E-02  0.1218800E+00
         21   -1    0    0  503  501  0.00000000000E+00  0.00000000000E+00  0.30459554075E+02  0.30459554075E+02  0.00000000000E+00 0. -1.
         21   -1    0    0  504  502 -0.00000000000E+00 -0.00000000000E+00 -0.15948875799E+04  0.15948875799E+04  0.00000000000E+00 0. -1.
         21    1    1    2  503  505  0.42048268312E+02 -0.60726061283E+02 -0.28983107936E+03  0.29909491128E+03  0.00000000000E+00 0. -1.
         21    1    1    2  504  506 -0.91072072276E+02 -0.42223322436E+02 -0.68713115488E+03  0.69442505378E+03  0.00000000000E+00 0. -1.
         21    1    1    2  505  502  0.80504700467E+02 -0.17642420602E+02 -0.38775921234E+03  0.39642082256E+03  0.00000000000E+00 0.  1.
         21    1    1    2  506  501 -0.31480896503E+02  0.12059180432E+03 -0.19970657920E+03  0.23540634633E+03  0.00000000000E+00 0. -1.
<scales pt_clust_3="55.62725" pt_clust_4="100.38392" pt_clust_5="55.62725" pt_clust_6="122.66306"></scales>
<clustering>
<clus scale="   55.627">  3  5 -1 -1</clus>
<clus scale="  100.384">  2  4  1 -1</clus>
<clus scale="  122.663">  1  6  2 -1</clus>
<clus scale="  122.663">  1  3  2 -1</clus>
</clustering>
</event>
<event>
 6    0  0.1704145E+002  0.1394634E+03  0.7546771E-02  0.1214053E+00
         21   -1    0    0  503  501  0.00000000000E+00  0.00000000000E+00  0.14643285953E+04  0.14643285953E+04  0.00000000000E+00 0.  1.
         21   -1    0    0  505  502 -0.00000000000E+00 -0.00000000000E+00 -0.12292360374E+03  0.12292360374E+03  0.00000000000E+00 0.  1.
         21    1    1    2  503  504 -0.32304913423E+00  0.48957104298E+02  0.14623312259E+03  0.15421098717E+03  0.00000000000E+00 0. -1.
         21    1    1    2  504  502 -0.67509881505E+02  0.96557659004E+02  0.18665183505E+02  0.11928685883E+03  0.00000000000E+00 0.  1.
         21    1    1    2  505  506  0.10950977949E+03 -0.13625620934E+03  0.43759317693E+02  0.18020273104E+03  0.00000000000E+00 0.  1.
         21    1    1    2  506  501 -0.41676848851E+02 -0.92585539576E+01  0.11327473678E+04  0.11335516220E+04  0.00000000000E+00 0.  1.
<scales pt_clust_3="48.71271" pt_clust_4="139.46337" pt_clust_5="14000.00000" pt_clust_6="42.69286"></scales>
<clustering>
<clus scale="   42.693">  1  6  2 -1</clus>
<clus scale="   48.713">  1  3  2 -1</clus>
<clus scale="  139.463">  2  4  1 -1</clus>
<clus scale="   42.693">  1  3  2 -1</clus>
</clustering>
</event>
<event>
 6    0  0.1704145E+002  0.1423087E+03  0.7546771E-02  0.1210256E+00
         21   -1    0    0  503  501  0.00000000000E+00  0.00000000000E+00  0.23055108348E+03  0.23055108348E+03  0.00000000000E+00 0. -1.
         21   -1    0    0  506  502 -0.00000000000E+00 -0.00000000000E+00 -0.37203907449E+03  0.37203907449E+03  0.00000000000E+00 0. -1.
         21    1    1    2  503  505 -0.44830702232E+01 -0.35088339830E+02  0.10632325901E+03  0.11205322359E+03  0.00000000000E+00 0. -1.
         21    1    1    2  504  501  0.10746149233E+02 -0.12165498485E+03  0.60772813403E+02  0.13641389193E+03  0.00000000000E+00 0. -1.
         21    1    1    2  505  502  0.68944672087E+00  0.11006942126E+03 -0.27497929338E+03  0.29619143238E+03  0.00000000000E+00 0. -1.
         21    1    1    2  506  504 -0.69525257309E+01  0.46673903425E+02 -0.33604770041E+02  0.57931610063E+02  0.00000000000E+00 0. -1.
<scales pt_clust_3="35.37357" pt_clust_4="14000.00000" pt_clust_5="142.30866" pt_clust_6="43.78736"></scales>
<clustering>
<clus scale="   35.374">  1  3  2 -1</clus>
<clus scale="   43.787">  2  6  1 -1</clus>
<clus scale="  142.309">  2  5  1 -1</clus>
<clus scale="   35.374">  1  3  2 -1</clus>
</clustering>
</event>
<event>
 6    0  0.1704145E+002  0.1150035E+03  0.7546771E-02  0.1251575E+00
         21   -1    0    0  505  501  0.00000000000E+00  0.00000000000E+00  0.12288985349E+03  0.12288985349E+03  0.00000000000E+00 0. -1.
         21   -1    0    0  501  502 -0.00000000000E+00 -0.00000000000E+00 -0.30052629862E+03  0.30052629862E+03  0.00000000000E+00 0. -1.
         21    1    1    2  503  502  0.20804556710E+01  0.63944017329E+02 -0.17492226790E+03  0.18625510854E+03  0.00000000000E+00 0. -1.
         21    1    1    2  504  503  0.16371246532E+02  0.42450584896E+02 -0.58291532195E+02  0.73945740896E+02  0.00000000000E+00 0. -1.
         21    1    1    2  505  506 -0.35503213916E+02  0.26667966660E+01  0.36871568402E+02  0.51255268599E+02  0.00000000000E+00 0. -1.
         21    1    1    2  506  504  0.17051511712E+02 -0.10906139889E+03  0.18705786566E+02  0.11196003408E+03  0.00000000000E+00 0. -1.
<scales pt_clust_3="34.31230" pt_clust_4="34.31230" pt_clust_5="35.60323" pt_clust_6="107.56524"></scales>
<clustering>
<clus scale="   34.312">  3  4 -1 -1</clus>
<clus scale="   35.603">  1  5  2 -1</clus>
<clus scale="  107.565">  1  6  2 -1</clus>
<clus scale="   35.603">  1  3  2 -1</clus>
</clustering>
</event>
<event>
 6    0  0.1704145E+002  0.1032433E+03  0.7546771E-02  0.1273620E+00
         21   -1    0    0  504  501  0.00000000000E+00  0.00000000000E+00  0.30704594813E+03  0.30704594813E+03  0.00000000000E+00 0.  1.
         21   -1    0    0  503  502 -0.00000000000E+00 -0.00000000000E+00 -0.42582196588E+03  0.42582196588E+03  0.00000000000E+00 0.  1.
         21    1    1    2  503  505 -0.15090010081E+01  0.59438854215E+02 -0.24107007471E+03  0.24829425164E+03  0.00000000000E+00 0.  1.
         21    1    1    2  504  506 -0.29441566164E+02 -0.99916267968E+01  0.30359739189E+01  0.31238686943E+02  0.00000000000E+00 0. -1.
         21    1    1    2  505  501  0.10750034525E+03 -0.64662220707E+02  0.26209235670E+03  0.29056828880E+03  0.00000000000E+00 0.  1.
         21    1    1    2  506  502 -0.76549778077E+02  0.15214993289E+02 -0.14283427365E+03  0.16276668662E+03  0.00000000000E+00 0.  1.
<scales pt_clust_3="59.34402" pt_clust_4="31.09081" pt_clust_5="103.24329" pt_clust_6="14000.00000"></scales>
<clustering>
<clus scale="   31.091">  1  4  2 -1</clus>
<clus scale="   59.344">  2  3  1 -1</clus>
<clus scale="  103.243">  1  5  2 -1</clus>
<clus scale="   31.091">  1  3  2 -1</clus>
</clustering>
</event>
<event>
 6    0  0.1704145E+002  0.1810991E+03  0.7546771E-02  0.1166744E+00
         21   -1    0    0  503  501  0.00000000000E+00  0.00000000000E+00  0.32247247509E+03  0.32247247509E+03  0.00000000000E+00 0. -1.
         21   -1    0    0  504  502 -0.00000000000E+00 -0.00000000000E+00 -0.74285078117E+03  0.74285078117E+03  0.00000000000E+00 0.  1.
         21    1    1    2  503  506  0.35357044295E+02 -0.24624199507E+02 -0.42940956022E+01  0.43300242952E+02  0.00000000000E+00 0. -1.
         21    1    1    2  504  505 -0.16374615624E+03  0.43427435926E+02 -0.61347401890E+03  0.63643469243E+03  0.00000000000E+00 0.  1.
         21    1    1    2  505  501 -0.46791692641E+01 -0.55780285859E+02  0.23570590486E+03  0.24226144658E+03  0.00000000000E+00 0. -1.
         21    1    1    2  506  502  0.13306828120E+03  0.36977049439E+02 -0.38316096441E+02  0.14332687429E+03  0.00000000000E+00 0.  1.
<scales pt_clust_3="37.44496" pt_clust_4="168.23351" pt_clust_5="55.97620" pt_clust_6="37.44496"></scales>
<clustering>
<clus scale="   37.445">  3  6 -1 -1</clus>
<clus scale="   55.976">  1  5  2 -1</clus>
<clus scale="  168.234">  2  4  1 -1</clus>
<clus scale="   55.976">  1  3  2 -1</clus>
</clustering>
</event>
<event>
 6    0  0.1704145E+002  0.1023385E+03  0.7546771E-02  0.1275454E+00
         21   -1    0    0  505  501  0.00000000000E+00  0.00000000000E+00  0.78885761421E+02  0.78885761421E+02  0.00000000000E+00 0. -1.
         21   -1    0    0  506  502 -0.00000000000E+00 -0.00000000000E+00 -0.44254696281E+03  0.44254696281E+03  0.00000000000E+00 0. -1.
         21    1    1    2  503  502 -0.43833499121E+02  0.15358528513E+02 -0.80495567846E+02  0.92934366550E+02  0.00000000000E+00 0. -1.
         21    1    1    2  504  501  0.32467893222E+02 -0.10018227098E+02  0.32288034012E+02  0.46872658393E+02  0.00000000000E+00 0. -1.
         21    1    1    2  505  503  0.36129356412E+02  0.94741584256E+02 -0.98222949847E+02  0.14117027328E+03  0.00000000000E+00 0. -1.
         21    1    1    2  506  504 -0.24763750513E+02 -0.10008188567E+03 -0.21723071771E+03  0.24045542600E+03  0.00000000000E+00 0. -1.
<scales pt_clust_3="41.07415" pt_clust_4="33.97836" pt_clust_5="102.33845" pt_clust_6="14000.00000"></scales>
<clustering>
<clus scale="   33.978">  1  4  2 -1</clus>
<clus scale="   41.074">  2  3  1 -1</clus>
<clus scale="  102.338">  1  5  2 -1</clus>
<clus scale="   33.978">  1  3  2 -1</clus>
</clustering>
</event>
<event>
 6    0  0.1704145E+002  0.1501325E+03  0.7546771E-02  0.1200310E+00
         21   -1    0    0  504  501  0.00000000000E+00  0.00000000000E+00  0.19671674953E+04  0.19671674953E+04  0.00000000000E+00 0. -1.
         21   -1    0    0  505  502 -0.00000000000E+00 -0.00000000000E+00 -0.12408675790E+03  0.12408675790E+03  0.00000000000E+00 0. -1.
         21    1    1    2  503  502  0.70864098918E+01  0.53477539554E+02  0.36128770252E+02  0.64925745909E+02  0.00000000000E+00 0. -1.
         21    1    1    2  504  506 -0.62504897008E+02 -0.13867706908E+03  0.18676283090E+04  0.18738126086E+04  0.00000000000E+00 0. -1.
         21    1    1    2  505  501  0.22152899200E+02  0.59642669178E+02 -0.83328682357E+02  0.10484115715E+03  0.00000000000E+00 0. -1.
         21    1    1    2  506  503  0.33265587916E+02  0.25556860345E+02  0.22652340519E+02  0.47674741542E+02  0.00000000000E+00 0. -1.
<scales pt_clust_3="32.38785" pt_clust_4="145.57077" pt_clust_5="63.62389" pt_clust_6="32.38785"></scales>
<clustering>
<clus scale="   32.388">  3  6 -1 -1</clus>
<clus scale="   63.624">  2  5  1 -1</clus>
<clus scale="  145.571">  1  4  2 -1</clus>
<clus scale="  145.571">  1  3  2 -1</clus>
</clustering>
</event>
<event>
 6    0  0.1704145E+002  0.1801921E+03  0.7546771E-02  0.1167617E+00
         21   -1    0    0  502  501  0.00000000000E+00  0.00000000000E+00  0.10836459722E+04  0.10836459722E+04  0.00000000000E+00 0. -1.
         21   -1    0    0  505  502 -0.00000000000E+00 -0.00000000000E+00 -0.73787055361E+02  0.73787055361E+02  0.00000000000E+00 0.  1.
         21    1    1    2  503  504  0.68918516970E+02 -0.85861479620E+02  0.10215387959E+03  0.15019111418E+03  0.00000000000E+00 0. -1.
         21    1    1    2  504  506 -0.44934531383E+02  0.50971917961E+02  0.51039715755E+03  0.51490048258E+03  0.00000000000E+00 0. -1.
         21    1    1    2  505  503  0.46935118569E+01 -0.80775698276E+02  0.35978471637E+01  0.80991894593E+02  0.00000000000E+00 0.  1.
         21    1    1    2  506  501 -0.28677497444E+02  0.11566525993E+03  0.39371003250E+03  0.41134953617E+03  0.00000000000E+00 0. -1.
<scales pt_clust_3="158.51368" pt_clust_4="64.70567" pt_clust_5="80.91194" pt_clust_6="64.70567"></scales>
<clustering>
<clus scale="   64.706">  4  6 -1 -1</clus>
<clus scale="   80.912">  2  5  1 -1</clus>
<clus scale="  158.514">  2  3  1 -1</clus>
<clus scale="  180.192">  1  3  2 -1</clus>
</clustering>
</event>
<event>
 6    0  0.1704145E+002  0.1835749E+03  0.7546771E-02  0.1164387E+00
         21   -1    0    0  506  501  0.00000000000E+00  0.00000000000E+00  0.82868419280E+03  0.82868419280E+03  0.00000000000E+00 0. -1.
         21   -1    0    0  505  502 -0.00000000000E+00 -0.00000000000E+00 -0.24463494849E+03  0.24463494849E+03  0.00000000000E+00 0. -1.
         21    1    1    2  503  502  0.84624892006E+02 -0.46066155094E+02 -0.98052754296E+02  0.13746928972E+03  0.00000000000E+00 0. -1.
         21    1    1    2  504  503  0.52771561542E+02  0.24492496626E+01 -0.97836325531E+02  0.11118805298E+03  0.00000000000E+00 0. -1.
         21    1    1    2  505  501  0.29020831609E+02 -0.18396639502E+02  0.11907831137E+02  0.36365388141E+02  0.00000000000E+00 0. -1.
         21    1    1    2  506  504 -0.16641728516E+03  0.62013544933E+02  0.76803049300E+03  0.78829641045E+03  0.00000000000E+00 0. -1.
<scales pt_clust_3="39.44393" pt_clust_4="39.44393" pt_clust_5="34.36052" pt_clust_6="176.13068"></scales>
<clustering>
<clus scale="   34.361">  2  5  1 -1</clus>
<clus scale="   39.444">  3  4 -1 -1</clus>
<clus scale="  176.131">  1  6  2 -1</clus>
<clus scale="  176.131">  1  3  2 -1</clus>
</clustering>
</event>
<event>
 6    0  0.1704145E+002  0.1275316E+03  0.7546771E-02  0.1231165E+00
         21   -1    0    0  503  501  0.00000000000E+00  0.00000000000E+00  0.81299914134E+03  0.81299914134E+03  0.00000000000E+00 0.  1.
         21   -1    0    0  504  502 -0.00000000000E+00 -0.00000000000E+00 -0.44433670556E+03  0.44433670556E+03  0.00000000000E+00 0. -1.
         21    1    1    2  503  506 -0.43081338658E+02 -0.19352730002E+02  0.64464346815E+03  0.64637120212E+03  0.00000000000E+00 0.  1.
         21    1    1    2  504  505  0.29429816808E+02 -0.85315355432E+02 -0.37504721954E+03  0.38575282355E+03  0.00000000000E+00 0. -1.
         21    1    1    2  505  501 -0.11875871948E+02  0.13788704806E+03  0.11544841256E+03  0.18022821732E+03  0.00000000000E+00 0. -1.
         21    1    1    2  506  502  0.25527393798E+02 -0.33218962628E+02 -0.16382225386E+02  0.44983603911E+02  0.00000000000E+00 0. -1.
<scales pt_clust_3="47.20836" pt_clust_4="127.53161" pt_clust_5="14000.00000" pt_clust_6="41.89448"></scales>
<clustering>
<clus scale="   41.894">  2  6  1 -1</clus>
<clus scale="   47.208">  1  3  2 -1</clus>
<clus scale="  127.532">  2  4  1 -1</clus>
<clus scale="   47.208">  1  3  2 -1</clus>
</clustering>
</event>
<event>
 6    0  0.1704145E+002  0.8891916E+02  0.7546771E-02  0.1305490E+00
         21   -1    0    0  506  501  0.00000000000E+00  0.00000000000E+00  0.69713964069E+03  0.69713964069E+03  0.00000000000E+00 0. -1.
         21   -1    0    0  505  502 -0.00000000000E+00 -0.00000000000E+00 -0.94037605591E+02  0.94037605591E+02  0.00000000000E+00 0. -1.
         21    1    1    2  503  502 -0.10861369628E+03  0.40686446374E+02 -0.62270718975E+01  0.11615118752E+03  0.00000000000E+00 0. -1.
         21    1    1    2  504  501  0.14850060181E+02 -0.86452568958E+02  0.49133600977E+03  0.49910484416E+03  0.00000000000E+00 0. -1.
         21    1    1    2  505  504  0.29104882418E+02 -0.22041090979E+02  0.38376517542E+02  0.52968490357E+02  0.00000000000E+00 0. -1.
         21    1    1    2  506  503  0.64658753677E+02  0.67807213563E+02  0.79616579681E+02  0.12295272424E+03  0.00000000000E+00 0. -1.
<scales pt_clust_3="14000.00000" pt_clust_4="88.91916" pt_clust_5="36.50896" pt_clust_6="82.45877"></scales>
<clustering>
<clus scale="   36.509">  2  5  1 -1</clus>
<clus scale="   88.919">  1  4  2 -1</clus>
<clus scale="   82.459">  1  6  2 -1</clus>
<clus scale="   88.919">  1  3  2 -1</clus>
</clustering>
</event>
<event>
 6    0  0.1704145E+002  0.1657750E+03  0.7546771E-02  0.1182327E+00
         21   -1    0    0  505  501  0.00000000000E+00  0.00000000000E+00  0.17655590309E+04  0.17655590309E+04  0.00000000000E+00 0. -1.
         21   -1    0    0  504  502 -0.00000000000E+00 -0.00000000000E+00 -0.19073427443E+03  0.19073427443E+03  0.00000000000E+00 0.  1.
         21    1    1    2  503  501 -0.60904045564E+02  0.14726569995E+01  0.14101431031E+04  0.14114584807E+04  0.00000000000E+00 0. -1.
         21    1    1    2  504  503  0.16551404891E+03  0.87573740115E+02 -0.50847633554E+02  0.19403489940E+03  0.00000000000E+00 0.  1.
         21    1    1    2  505  506 -0.11677639874E+03 -0.30133334435E+02  0.25275779535E+03  0.28005579490E+03  0.00000000000E+00 0.  1.
         21    1    1    2  506  502  0.12166395386E+02 -0.58913062680E+02 -0.37228508463E+02  0.70744130311E+02  0.00000000000E+00 0.  1.
<scales pt_clust_3="60.85715" pt_clust_4="165.77500" pt_clust_5="14000.00000" pt_clust_6="60.15621"></scales>
<clustering>
<clus scale="   60.156">  2  6  1 -1</clus>
<clus scale="   60.857">  1  3  2 -1</clus>
<clus scale="  165.775">  2  4  1 -1</clus>
<clus scale="   60.857">  1  3  2 -1</clus>
</clustering>
</event>
<event>
 6    0  0.1704145E+002  0.8912898E+02  0.7546771E-02  0.1304975E+00
         21   -1    0    0  506  501  0.00000000000E+00  0.00000000000E+00  0.35632406639E+02  0.35632406639E+02  0.00000000000E+00 0.  1.
         21   -1    0    0  505  502 -0.00000000000E+00 -0.00000000000E+00 -0.14565240076E+04  0.14565240076E+04  0.00000000000E+00 0.  1.
         21    1    1    2  503  501 -0.26961749610E+02 -0.52273803120E+02 -0.23113238863E+03  0.23849877884E+03  0.00000000000E+00 0.  1.
         21    1    1    2  504  502  0.41173395331E+02  0.10073617140E+03 -0.33344958595E+03  0.35075867927E+03  0.00000000000E+00 0.  1.
         21    1    1    2  505  503 -0.33440476216E+02 -0.77540295124E+02 -0.86323627976E+03  0.86735669566E+03  0.00000000000E+00 0.  1.
         21    1    1    2  506  504  0.19228830495E+02  0.29077926848E+02  0.69266533821E+01  0.35542260466E+02  0.00000000000E+00 0.  1.
<scales pt_clust_3="49.96082" pt_clust_4="89.12898" pt_clust_5="14000.00000" pt_clust_6="34.86078"></scales>
<clustering>
<clus scale="   34.861">  1  6  2 -1</clus>
<clus scale="   49.961">  1  3  2 -1</clus>
<clus scale="   89.129">  1  4  2 -1</clus>
<clus scale="   34.861">  1  3  2 -1</clus>
</clustering>
</event>
<event>
 6    0  0.1704145E+002  0.2134152E+03  0.7546771E-02  0.1138890E+00
         21   -1    0    0  506  501  0.00000000000E+00  0.00000000000E+00  0.13038894104E+04  0.13038894104E+04  0.00000000000E+00 0.  1.
         21   -1    0    0  505  502 -0.00000000000E+00 -0.00000000000E+00 -0.19414767174E+03  0.19414767174E+03  0.00000000000E+00 0. -1.
         21    1    1    2  503  501 -0.20850781736E+03  0.33588421786E+02  0.12136856735E+04  0.12319239449E+04  0.00000000000E+00 0.  1.
         21    1    1    2  504  502  0.10882671109E+03 -0.39894037607E+02 -0.10883559763E+02  0.11641837980E+03  0.00000000000E+00 0. -1.
         21    1    1    2  505  503  0.41391887746E+02  0.32112066147E+02 -0.52332797504E+02  0.74048597947E+02  0.00000000000E+00 0. -1.
         21    1    1    2  506  504  0.58289218530E+02 -0.25806450326E+02 -0.40727577545E+02  0.75646159505E+02  0.00000000000E+00 0. -1.
<scales pt_clust_3="208.72290" pt_clust_4="33.00573" pt_clust_5="52.38772" pt_clust_6="33.00573"></scales>
<clustering>
<clus scale="   33.006">  4  6 -1 -1</clus>
<clus scale="   52.388">  2  5  1 -1</clus>
<clus scale="  208.723">  1  3  2 -1</clus>
<clus scale="  208.723">  1  3  2 -1</clus>
</clustering>
</event>
<event>
 6    0  0.1704145E+002  0.1741065E+03  0.7546771E-02  0.1173632E+00
         21   -1    0    0  504  501  0.00000000000E+00  0.00000000000E+00  0.38493763932E+03  0.38493763932E+03  0.00000000000E+00 0.  1.
         21   -1    0    0  505  502 -0.00000000000E+00 -0.00000000000E+00 -0.53271722719E+03  0.53271722719E+03  0.00000000000E+00 0. -1.
         21    1    1    2  503  501  0.29655931275E+01  0.13538214600E+03  0.11175971109E+03  0.17557720018E+03  0.00000000000E+00 0.  1.
         21    1    1    2  504  502 -0.18920471510E+02  0.35382150982E+02  0.22367573413E+03  0.22724593482E+03  0.00000000000E+00 0.  1.
         21    1    1    2  505  506  0.86478373233E+00 -0.68466013454E+02 -0.13188214121E+03  0.14859758417E+03  0.00000000000E+00 0. -1.
         21    1    1    2  506  503  0.15090094650E+02 -0.10229828352E+03 -0.35133289189E+03  0.36623414736E+03  0.00000000000E+00 0. -1.
<scales pt_clust_3="167.84853" pt_clust_4="40.12332" pt_clust_5="37.64301" pt_clust_6="37.64301"></scales>
<clustering>
<clus scale="   37.643">  5  6 -1 -1</clus>
<clus scale="   40.123">  1  4  2 -1</clus>
<clus scale="  167.849">  1  3  2 -1</clus>
<clus scale="   40.123">  1  3  2 -1</clus>
</clustering>
</event>
<event>
 6    0  0.1704145E+002  0.2101652E+03  0.7546771E-02  0.1141435E+00
         21   -1    0    0  503  501  0.00000000000E+00  0.00000000000E+00  0.52531659648E+02  0.52531659648E+02  0.00000000000E+00 0. -1.
         21   -1    0    0  504  502 -0.00000000000E+00 -0.00000000000E+00 -0.20347781436E+04  0.20347781436E+04  0.00000000000E+00 0. -1.
         21    1    1    2  503  505 -0.15005104052E+02  0.10473417293E+03 -0.28790372655E+03  0.30672945064E+03  0.00000000000E+00 0. -1.
         21    1    1    2  504  506  0.10517402726E+03 -0.20108589444E+03 -0.13125088104E+04  0.13319821659E+04  0.00000000000E+00 0. -1.
         21    1    1    2  505  502 -0.77789420181E+01  0.76134130928E+02 -0.34954821176E+03  0.35782798964E+03  0.00000000000E+00 0. -1.
         21    1    1    2  506  501 -0.82389981194E+02  0.20217590584E+02 -0.32285735239E+02  0.90770197037E+02  0.00000000000E+00 0. -1.
<scales pt_clust_3="38.59333" pt_clust_4="205.20781" pt_clust_5="38.59333" pt_clust_6="84.83431"></scales>
<clustering>
<clus scale="   38.593">  3  5 -1 -1</clus>
<clus scale="   84.834">  1  6  2 -1</clus>
<clus scale="  205.208">  2  4  1 -1</clus>
<clus scale="   84.834">  1  3  2 -1</clus>
</clustering>
</event>
<event>
 6    0  0.1704145E+002  0.1268103E+03  0.7546771E-02  0.1232267E+00
         21   -1    0    0  504  501  0.00000000000E+00  0.00000000000E+00  0.11617547148E+03  0.11617547148E+03  0.00000000000E+00 0.  1.
         21   -1    0    0  505  502 -0.00000000000E+00 -0.00000000000E+00 -0.20127549150E+04  0.20127549150E+04  0.00000000000E+00 0. -1.
         21    1    1    2  503  501 -0.88073911407E+02  0.89198965335E+02  0.62324818370E+02  0.13999232933E+03  0.00000000000E+00 0.  1.
         21    1    1    2  504  506 -0.43450864200E+02  0.54434116370E+01 -0.87832057479E+02  0.98143153867E+02  0.00000000000E+00 0. -1.
         21    1    1    2  505  503  0.18625316540E+03 -0.81316969437E+02 -0.16577671768E+04  0.16701780454E+04  0.00000000000E+00 0. -1.
         21    1    1    2  506  502 -0.54728389795E+02 -0.13325407535E+02 -0.21330502762E+03  0.22061685779E+03  0.00000000000E+00 0. -1.
<scales pt_clust_3="126.81029" pt_clust_4="30.83637" pt_clust_5="14000.00000" pt_clust_6="104.51986"></scales>
<clustering>
<clus scale="   30.836">  4  6 -1 -1</clus>
<clus scale="  104.520">  2  4  1 -1</clus>
<clus scale="  126.810">  1  3  2 -1</clus>
<clus scale="  126.810">  1  3  2 -1</clus>
</clustering>
</event>
<event>
 6    0  0.1704145E+002  0.1296141E+03  0.7546771E-02  0.1228029E+00
         21   -1    0    0  503  501  0.00000000000E+00  0.00000000000E+00  0.40714855369E+02  0.40714855369E+02  0.00000000000E+00 0. -1.
         21   -1    0    0  506  502 -0.00000000000E+00 -0.00000000000E+00 -0.66197139829E+03  0.66197139829E+03  0.00000000000E+00 0. -1.
         21    1    1    2  503  504  0.91145759604E+02  0.25604120731E+02 -0.17665759757E+03  0.20042711212E+03  0.00000000000E+00 0. -1.
         21    1    1    2  504  502  0.34278750919E+02  0.28561749362E+02 -0.17968237608E+03  0.18513930584E+03  0.00000000000E+00 0.  1.
         21    1    1    2  505  501 -0.39142916477E+02  0.53115215819E+01 -0.89090085691E+01  0.40493834167E+02  0.00000000000E+00 0. -1.
         21    1    1    2  506  505 -0.86281594046E+02 -0.59477391675E+02 -0.25600756069E+03  0.27662600153E+03  0.00000000000E+00 0. -1.
<scales pt_clust_3="37.71418" pt_clust_4="37.71418" pt_clust_5="39.50165" pt_clust_6="117.39580"></scales>
<clustering>
<clus scale="   37.714">  3  4 -1 -1</clus>
<clus scale="   39.502">  1  5  2 -1</clus>
<clus scale="  117.396">  2  6  1 -1</clus>
<clus scale="   39.502">  1  3  2 -1</clus>
</clustering>
</event>
<event>
 6    0  0.1704145E+002  0.9697612E+02  0.7546771E-02  0.1286786E+00
         21   -1    0    0  504  501  0.00000000000E+00  0.00000000000E+00  0.11204144953E+03  0.11204144953E+03  0.00000000000E+00 0.  1.
         21   -1    0    0  506  502 -0.00000000000E+00 -0.00000000000E+00 -0.32851833993E+03  0.32851833993E+03  0.00000000000E+00 0.  1.
         21    1    1    2  503  501  0.68725548118E+02  0.72169440892E+02  0.49400688193E+02  0.11122974942E+03  0.00000000000E+00 0.  1.
         21    1    1    2  504  502 -0.76133374954E+01  0.40470920780E+02 -0.48122049189E+02  0.63337113565E+02  0.00000000000E+00 0.  1.
         21    1    1    2  505  503 -0.64549330168E+02 -0.51157519874E+02 -0.16694859043E+03  0.18615998418E+03  0.00000000000E+00 0.  1.
         21    1    1    2  506  505  0.34371195458E+01 -0.61482841798E+02 -0.50806938976E+02  0.79832942288E+02  0.00000000000E+00 0.  1.
<scales pt_clust_3="96.97612" pt_clust_4="41.18080" pt_clust_5="14000.00000" pt_clust_6="51.81713"></scales>
<clustering>
<clus scale="   41.181">  2  4  1 -1</clus>
<clus scale="   51.817">  2  6  1 -1</clus>
<clus scale="   96.976">  1  3  2 -1</clus>
<clus scale="   96.976">  1  3  2 -1</clus>
</clustering>
</event>
<event>
 6    0  0.1704145E+002  0.1192672E+03  0.7546771E-02  0.1244311E+00
         21   -1    0    0  503  501  0.00000000000E+00  0.00000000000E+00  0.76251441496E+02  0.76251441496E+02  0.00000000000E+00 0. -1.
         21   -1    0    0  504  502 -0.00000000000E+00 -0.00000000000E+00 -0.71826213419E+03  0.71826213419E+03  0.00000000000E+00 0.  1.
         21    1    1    2  503  506  0.95916450794E+02  0.11362116305E+03 -0.66990685451E+02  0.16308735746E+03  0.00000000000E+00 0. -1.
         21    1    1    2  504  505 -0.80279441961E+02 -0.56154129331E+02 -0.50126940971E+03  0.51075345926E+03  0.00000000000E+00 0.  1.
         21    1    1    2  505  501 -0.23740809137E+02 -0.19852866588E+02  0.65466803737E+01  0.31632599548E+02  0.00000000000E+00 0. -1.
         21    1    1    2  506  502  0.81038003028E+01 -0.37614167134E+02 -0.80297277914E+02  0.89040159417E+02  0.00000000000E+00 0.  1.
<scales pt_clust_3="119.26717" pt_clust_4="14000.00000" pt_clust_5="30.94774" pt_clust_6="39.63442"></scales>
<clustering>
<clus scale="   30.948">  1  5  2 -1</clus>
<clus scale="   39.634">  2  6  1 -1</clus>
<clus scale="  119.267">  1  3  2 -1</clus>
<clus scale="   30.948">  1  3  2 -1</clus>
</clustering>
</event>
<event>
 6    0  0.1704145E+002  0.2232055E+03  0.7546771E-02  0.1131516E+00
         21   -1    0    0  504  501  0.00000000000E+00  0.00000000000E+00  0.13995435953E+04  0.13995435953E+04  0.00000000000E+00 0.  1.
         21   -1    0    0  503  502 -0.00000000000E+00 -0.00000000000E+00 -0.23225616651E+03  0.23225616651E+03  0.00000000000E+00 0. -1.
         21    1    1    2  503  505 -0.49992319230E+02  0.10426779091E+03 -0.12784714556E+03  0.17238299461E+03  0.00000000000E+00 0. -1.
         21    1    1    2  504  502 -0.14950264060E+02 -0.44561983228E+02  0.68717975179E+02  0.83255275252E+02  0.00000000000E+00 0.  1.
         21    1    1    2  505  506 -0.13509276731E+02  0.97792457120E+02 -0.33322487339E+02  0.10419334619E+03  0.00000000000E+00 0. -1.
         21    1    1    2  506  501  0.78451860021E+02 -0.15749826480E+03  0.12597390865E+04  0.12719681458E+04  0.00000000000E+00 0.  1.
<scales pt_clust_3="69.27431" pt_clust_4="47.00299" pt_clust_5="69.27431" pt_clust_6="210.14914"></scales>
<clustering>
<clus scale="   47.003">  1  4  2 -1</clus>
<clus scale="   69.274">  3  5 -1 -1</clus>
<clus scale="  210.149">  1  6  2 -1</clus>
<clus scale="   47.003">  1  3  2 -1</clus>
</clustering>
</event>
<event>
 6    0  0.1704145E+002  0.1329977E+03  0.7546771E-02  0.1223074E+00
         21   -1    0    0  502  501  0.00000000000E+00  0.00000000000E+00  0.19823522469E+03  0.19823522469E+03  0.00000000000E+00 0.  1.
         21   -1    0    0  504  502 -0.00000000000E+00 -0.00000000000E+00 -0.70292227117E+03  0.70292227117E+03  0.00000000000E+00 0. -1.
         21    1    1    2  503  505 -0.55963928168E+02  0.65443967954E+02 -0.26940081973E+03  0.28282799697E+03  0.00000000000E+00 0. -1.
         21    1    1    2  504  503  0.12425692682E+02 -0.11796018239E+03 -0.31017452312E+03  0.33208016692E+03  0.00000000000E+00 0. -1.
         21    1    1    2  505  506  0.31754559762E+01  0.49096867592E+02 -0.97476297027E+02  0.10918889325E+03  0.00000000000E+00 0. -1.
         21    1    1    2  506  501  0.40362779510E+02  0.34193468406E+01  0.17236459340E+03  0.17706043872E+03  0.00000000000E+00 0.  1.
<scales pt_clust_3="45.28702" pt_clust_4="120.48316" pt_clust_5="45.28702" pt_clust_6="40.50736"></scales>
<clustering>
<clus scale="   40.507">  1  6  2 -1</clus>
<clus scale="   45.287">  3  5 -1 -1</clus>
<clus scale="  120.483">  2  4  1 -1</clus>
<clus scale="   40.507">  1  3  2 -1</clus>
</clustering>
</event>
<event>
 6    0  0.1704145E+002  0.1347336E+03  0.7546771E-02  0.1220596E+00
         21   -1    0    0  503  501  0.00000000000E+00  0.00000000000E+00  0.77826535624E+02  0.77826535624E+02  0.00000000000E+00 0. -1.
         21   -1    0    0  505  502 -0.00000000000E+00 -0.00000000000E+00 -0.20276394771E+04  0.20276394771E+04  0.00000000000E+00 0.  1.
         21    1    1    2  503  504  0.59901704406E+02 -0.68014412174E+01 -0.56953241875E+03  0.57271428287E+03  0.00000000000E+00 0.  1.
         21    1    1    2  504  502  0.37720524259E+02 -0.42236996517E+02 -0.71127693649E+03  0.71352763241E+03  0.00000000000E+00 0. -1.
         21    1    1    2  505  506  0.25250868377E+02  0.89108821069E+02 -0.68297781338E+03  0.68922904895E+03  0.00000000000E+00 0.  1.
         21    1    1    2  506  501 -0.12287309704E+03 -0.40070383335E+02  0.13974227189E+02  0.12999504845E+03  0.00000000000E+00 0. -1.
<scales pt_clust_3="43.46015" pt_clust_4="43.46015" pt_clust_5="92.61743" pt_clust_6="127.05253"></scales>
<clustering>
<clus scale="   43.460">  3  4 -1 -1</clus>
<clus scale="   92.617">  2  5  1 -1</clus>
<clus scale="  127.053">  1  6  2 -1</clus>
<clus scale="  127.053">  1  3  2 -1</clus>
</clustering>
</event>
<event>
 6    0  0.1704145E+002  0.1301280E+03  0.7546771E-02  0.1227266E+00
         21   -1    0    0  505  501  0.00000000000E+00  0.00000000000E+00  0.39329123371E+03  0.39329123371E+03  0.00000000000E+00 0. -1.
         21   -1    0    0  503  502 -0.00000000000E+00 -0.00000000000E+00 -0.29977684823E+03  0.29977684823E+03  0.00000000000E+00 0. -1.
         21    1    1    2  503  506 -0.13633048585E+03  0.75177454307E+01 -0.79864943264E+02  0.15818004625E+03  0.00000000000E+00 0. -1.
         21    1    1    2  504  502  0.12590563624E+02 -0.46812593239E+02 -0.57090885737E+02  0.74895329710E+02  0.00000000000E+00 0.  1.
         21    1    1    2  505  504  0.10642726836E+03  0.10202582888E+03 -0.62316908455E+02  0.16006070813E+03  0.00000000000E+00 0. -1.
         21    1    1    2  506  501  0.17312653870E+02 -0.62730981070E+02  0.29278712294E+03  0.29993199785E+03  0.00000000000E+00 0. -1.
<scales pt_clust_3="14000.00000" pt_clust_4="48.47619" pt_clust_5="130.12796" pt_clust_6="65.81689"></scales>
<clustering>
<clus scale="   48.476">  2  4  1 -1</clus>
<clus scale="   65.817">  1  6  2 -1</clus>
<clus scale="  130.128">  1  5  2 -1</clus>
<clus scale="   65.817">  1  3  2 -1</clus>
</clustering>
</event>
<event>
 6    0  0.1704145E+002  0.1428104E+03  0.7546771E-02  0.1209597E+00
         21   -1    0    0  504  501  0.00000000000E+00  0.00000000000E+00  0.23045758370E+03  0.23045758370E+03  0.00000000000E+00 0. -1.
         21   -1    0    0  505  502 -0.00000000000E+00 -0.00000000000E+00 -0.11173628854E+04  0.11173628854E+04  0.00000000000E+00 0. -1.
         21    1    1    2  503  506  0.43658657716E+02  0.15966131237E+02 -0.48594269799E+02  0.67248782870E+02  0.00000000000E+00 0. -1.
         21    1    1    2  504  503 -0.25854170398E+02  0.26868615850E+02  0.17606865241E+03  0.17997369531E+03  0.00000000000E+00 0. -1.
         21    1    1    2  505  501 -0.37473925389E+02  0.10384621717E+03 -0.43754579745E+02  0.11875519001E+03  0.00000000000E+00 0. -1.
         21    1    1    2  506  502  0.19669438072E+02 -0.14668096426E+03 -0.97062510460E+03  0.98184280094E+03  0.00000000000E+00 0. -1.
<scales pt_clust_3="44.22715" pt_clust_4="37.28754" pt_clust_5="142.81036" pt_clust_6="14000.00000"></scales>
<clustering>
<clus scale="   37.288">  1  4  2 -1</clus>
<clus scale="   44.227">  1  3  2 -1</clus>
<clus scale="  142.810">  1  5  2 -1</clus>
<clus scale="   37.288">  1  3  2 -1</clus>
</clustering>
</event>
<event>
 6    0  0.1704145E+002  0.1361740E+03  0.7546771E-02  0.1218572E+00
         21   -1    0    0  506  501  0.00000000000E+00  0.00000000000E+00  0.19939923030E+03  0.19939923030E+03  0.00000000000E+00 0.  1.
         21   -1    0    0  503  502 -0.00000000000E+00 -0.00000000000E+00 -0.50481040530E+03  0.50481040530E+03  0.00000000000E+00 0.  1.
         21    1    1    2  503  505  0.31494781912E+02 -0.94254210845E+01 -0.18299399786E+03  0.18592354101E+03  0.00000000000E+00 0.  1.
         21    1    1    2  504  501  0.26631670307E+01  0.45606491090E+02 -0.66560992375E+02  0.80730478718E+02  0.00000000000E+00 0.  1.
         21    1    1    2  505  504  0.56905925893E+02  0.47026491597E+02 -0.22009883633E+03  0.23214924740E+03  0.00000000000E+00 0. -1.
         21    1    1    2  506  502 -0.91063874835E+02 -0.83207561603E+02  0.16424265157E+03  0.20540636846E+03  0.00000000000E+00 0.  1.
<scales pt_clust_3="32.87491" pt_clust_4="42.43435" pt_clust_5="42.43435" pt_clust_6="122.28178"></scales>
<clustering>
<clus scale="   32.875">  2  3  1 -1</clus>
<clus scale="   42.434">  4  5 -1 -1</clus>
<clus scale="  122.282">  1  6  2 -1</clus>
<clus scale="  122.282">  1  3  2 -1</clus>
</clustering>
</event>
<event>
 6    0  0.1704145E+002  0.1584078E+03  0.7546771E-02  0.1190506E+00
         21   -1    0    0  504  501  0.00000000000E+00  0.00000000000E+00  0.94672835276E+03  0.94672835276E+03  0.00000000000E+00 0.  1.
         21   -1    0    0  505  502 -0.00000000000E+00 -0.00000000000E+00 -0.31280605320E+03  0.31280605320E+03  0.00000000000E+00 0. -1.
         21    1    1    2  503  502 -0.78956794912E+02 -0.37935227626E+02  0.40338048219E+02  0.96438659737E+02  0.00000000000E+00 0.  1.
         21    1    1    2  504  503 -0.82333878611E+01 -0.35794906048E+02  0.45374179374E+02  0.58377051386E+02  0.00000000000E+00 0.  1.
         21    1    1    2  505  506  0.13477990487E+03  0.18778810626E+03 -0.22447662109E+03  0.32221072146E+03  0.00000000000E+00 0. -1.
         21    1    1    2  506  501 -0.47589722092E+02 -0.11405797259E+03  0.77268669306E+03  0.78250797337E+03  0.00000000000E+00 0.  1.
<scales pt_clust_3="89.37590" pt_clust_4="36.72961" pt_clust_5="14000.00000" pt_clust_6="158.40775"></scales>
<clustering>
<clus scale="   36.730">  1  4  2 -1</clus>
<clus scale="   89.376">  2  3  1 -1</clus>
<clus scale="  158.408">  1  6  2 -1</clus>
<clus scale="   36.730">  1  3  2 -1</clus>
</clustering>
</event>
<event>
 6    0  0.1704145E+002  0.9780316E+02  0.7546771E-02  0.1284985E+00
         21   -1    0    0  503  501  0.00000000000E+00  0.00000000000E+00  0.15229366940E+04  0.15229366940E+04  0.00000000000E+00 0.  1.
         21   -1    0    0  504  502 -0.00000000000E+00 -0.00000000000E+00 -0.28521818038E+02  0.28521818038E+02  0.00000000000E+00 0. -1.
         21    1    1    2  503  502  0.44972906239E+00  0.43520902280E+02  0.82882025986E+02  0.93614643208E+02  0.00000000000E+00 0. -1.
         21    1    1    2  504  506  0.16642440942E+02 -0.51025256173E+02  0.85776186507E+02  0.10118350547E+03  0.00000000000E+00 0. -1.
         21    1    1    2  505  501 -0.69664616628E+02  0.54679810438E+02  0.12498072988E+04  0.12529410699E+04  0.00000000000E+00 0.  1.
         21    1    1    2  506  505  0.52572446623E+02 -0.47175456544E+02  0.75949364668E+02  0.10371929347E+03  0.00000000000E+00 0. -1.
<scales pt_clust_3="43.52323" pt_clust_4="32.56774" pt_clust_5="90.38548" pt_clust_6="32.56774"></scales>
<clustering>
<clus scale="   32.568">  4  6 -1 -1</clus>
<clus scale="   43.523">  2  3  1 -1</clus>
<clus scale="   90.385">  1  5  2 -1</clus>
<clus scale="   90.385">  1  3  2 -1</clus>
</clustering>
</event>
<event>
 6    0  0.1704145E+002  0.8528956E+02  0.7546771E-02  0.1314677E+00
         21   -1    0    0  506  501  0.00000000000E+00  0.00000000000E+00  0.66589023207E+02  0.66589023207E+02  0.00000000000E+00 0.  1.
         21   -1    0    0  504  502 -0.00000000000E+00 -0.00000000000E+00 -0.36605333590E+03  0.36605333590E+03  0.00000000000E+00 0.  1.
         21    1    1    2  503  501  0.11930688689E+01  0.40302557689E+02 -0.27982035967E+02  0.49078650210E+02  0.00000000000E+00 0.  1.
         21    1    1    2  504  503 -0.76389365179E+02 -0.72005368035E+02 -0.18954890886E+03  0.21667694152E+03  0.00000000000E+00 0.  1.
         21    1    1    2  505  502 -0.14063431386E+00  0.31540063114E+02 -0.85837328391E+02  0.91448577378E+02  0.00000000000E+00 0. -1.
         21    1    1    2  506  505  0.75336930624E+02  0.16274723207E+00  0.39039605205E+01  0.75438189999E+02  0.00000000000E+00 0.  1.
<scales pt_clust_3="44.69866" pt_clust_4="85.28956" pt_clust_5="31.54038" pt_clust_6="14000.00000"></scales>
<clustering>
<clus scale="   31.540">  2  5  1 -1</clus>
<clus scale="   44.699">  1  3  2 -1</clus>
<clus scale="   85.290">  2  4  1 -1</clus>
<clus scale="   44.699">  1  3  2 -1</clus>
</clustering>
</event>
<event>
 6    0  0.1704145E+002  0.1766029E+03  0.7546771E-02  0.1171132E+00
         21   -1    0    0  506  501  0.00000000000E+00  0.00000000000E+00  0.86695682986E+02  0.86695682986E+02  0.00000000000E+00 0. -1.
         21   -1    0    0  501  502 -0.00000000000E+00 -0.00000000000E+00 -0.15438473694E+04  0.15438473694E+04  0.00000000000E+00 0.  1.
         21    1    1    2  503  504  0.10738363838E+03  0.37613919960E+02 -0.56288586717E+03  0.57427045216E+03  0.00000000000E+00 0.  1.
         21    1    1    2  504  502  0.49668539009E+02  0.11975340130E+02 -0.64778916600E+03  0.64980087421E+03  0.00000000000E+00 0.  1.
         21    1    1    2  505  503 -0.14953332784E+03 -0.18285663911E+02 -0.30471898033E+03  0.33992387179E+03  0.00000000000E+00 0.  1.
         21    1    1    2  506  505 -0.75188495491E+01 -0.31303596178E+02  0.58242327106E+02  0.66547854202E+02  0.00000000000E+00 0. -1.
<scales pt_clust_3="50.24101" pt_clust_4="50.24101" pt_clust_5="160.30127" pt_clust_6="32.19392"></scales>
<clustering>
<clus scale="   32.194">  1  6  2 -1</clus>
<clus scale="   50.241">  3  4 -1 -1</clus>
<clus scale="  160.301">  1  5  2 -1</clus>
<clus scale="   32.194">  1  3  2 -1</clus>
</clustering>
</event>
<event>
 6    0  0.1704145E+002  0.1110237E+03  0.7546771E-02  0.1258686E+00
         21   -1    0    0  504  501  0.00000000000E+00  0.00000000000E+00  0.64983500312E+02  0.64983500312E+02  0.00000000000E+00 0. -1.
         21   -1    0    0  506  502 -0.00000000000E+00 -0.00000000000E+00 -0.11737261675E+04  0.11737261675E+04  0.00000000000E+00 0. -1.
         21    1    1    2  503  502  0.17587541148E+02  0.11207893843E+03 -0.41080939851E+03  0.42618701523E+03  0.00000000000E+00 0. -1.
         21    1    1    2  504  503  0.45123878367E+02  0.45411661234E+02  0.18898426524E+02  0.66749785767E+02  0.00000000000E+00 0. -1.
         21    1    1    2  505  501  0.25115989629E+02 -0.74630715678E+02 -0.19816226489E+03  0.21323423713E+03  0.00000000000E+00 0. -1.
         21    1    1    2  506  505 -0.87827409144E+02 -0.82859883988E+02 -0.51866943032E+03  0.53253862970E+03  0.00000000000E+00 0. -1.
<scales pt_clust_3="111.02373" pt_clust_4="64.01862" pt_clust_5="71.69563" pt_clust_6="14000.00000"></scales>
<clustering>
<clus scale="   64.019">  1  4  2 -1</clus>
<clus scale="   71.696">  1  5  2 -1</clus>
<clus scale="  111.024">  1  3  2 -1</clus>
<clus scale="   64.019">  1  3  2 -1</clus>
</clustering>
</event>
<event>
 6    0  0.1704145E+002  0.1509145E+03  0.7546771E-02  0.1199354E+00
         21   -1    0    0  506  501  0.00000000000E+00  0.00000000000E+00  0.20780141231E+04  0.20780141231E+04  0.00000000000E+00 0.  1.
         21   -1    0    0  503  502 -0.00000000000E+00 -0.00000000000E+00 -0.57913716284E+02  0.57913716284E+02  0.00000000000E+00 0.  1.
         21    1    1    2  503  501 -0.13007888513E+03 -0.60930764323E+02  0.88195511335E+02  0.16855717907E+03  0.00000000000E+00 0.  1.
         21    1    1    2  504  502  0.67913349848E+02  0.86745579840E+01  0.11357773799E+03  0.13261739558E+03  0.00000000000E+00 0.  1.
         21    1    1    2  505  504  0.18950123873E+02  0.61912113766E+02  0.12434415491E+03  0.14019160420E+03  0.00000000000E+00 0.  1.
         21    1    1    2  506  505  0.43215411409E+02 -0.96559074275E+01  0.16939830026E+04  0.16945616606E+04  0.00000000000E+00 0.  1.
<scales pt_clust_3="132.23090" pt_clust_4="66.08118" pt_clust_5="66.08118" pt_clust_6="44.28102"></scales>
<clustering>
<clus scale="   44.281">  1  6  2 -1</clus>
<clus scale="   66.081">  4  5 -1 -1</clus>
<clus scale="  132.231">  2  3  1 -1</clus>
<clus scale="   44.281">  1  3  2 -1</clus>
</clustering>
</event>
<event>
 6    0  0.1704145E+002  0.6480085E+02  0.7546771E-02  0.1378722E+00
         21   -1    0    0  504  501  0.00000000000E+00  0.00000000000E+00  0.56085351505E+03  0.56085351505E+03  0.00000000000E+00 0. -1.
         21   -1    0    0  505  502 -0.00000000000E+00 -0.00000000000E+00 -0.30794970643E+03  0.30794970643E+03  0.00000000000E+00 0.  1.
         21    1    1    2  503  502 -0.34229500253E+02 -0.41820202662E+01 -0.23335257277E+02  0.41637509691E+02  0.00000000000E+00 0.  1.
         21    1    1    2  504  503 -0.42260512551E+02  0.16223120017E+02  0.11658523495E+02  0.46744643696E+02  0.00000000000E+00 0. -1.
         21    1    1    2  505  506  0.12837745125E+03  0.26047211136E+02 -0.23910681770E+03  0.27263766700E+03  0.00000000000E+00 0.  1.
         21    1    1    2  506  501 -0.51887438444E+02 -0.38088310887E+02  0.50368736010E+03  0.50778340109E+03  0.00000000000E+00 0. -1.
<scales pt_clust_3="34.48403" pt_clust_4="47.21834" pt_clust_5="64.80085" pt_clust_6="14000.00000"></scales>
<clustering>
<clus scale="   34.484">  2  3  1 -1</clus>
<clus scale="   47.218">  2  4  1 -1</clus>
<clus scale="   64.801">  2  5  1 -1</clus>
<clus scale="   64.801">  1  3  2 -1</clus>
</clustering>
</event>
<event>
 6    0  0.1704145E+002  0.2231141E+03  0.7546771E-02  0.1131582E+00
         21   -1    0    0  506  501  0.00000000000E+00  0.00000000000E+00  0.14722671529E+03  0.14722671529E+03  0.00000000000E+00 0. -1.
         21   -1    0    0  503  502 -0.00000000000E+00 -0.00000000000E+00 -0.97138068689E+03  0.97138068689E+03  0.00000000000E+00 0. -1.
         21    1    1    2  503  501  0.22928521050E+03  0.56701572903E+02 -0.24326538747E+03  0.33906463229E+03  0.00000000000E+00 0. -1.
         21    1    1    2  504  505 -0.12715440273E+03  0.11940167554E+02 -0.43638622127E+03  0.45469082227E+03  0.00000000000E+00 0. -1.
         21    1    1    2  505  502 -0.83943665377E+02 -0.24528466160E+02 -0.21932041959E+03  0.23611359779E+03  0.00000000000E+00 0. -1.
         21    1    1    2  506  504 -0.18187142392E+02 -0.44113274297E+02  0.74818056738E+02  0.88738349836E+02  0.00000000000E+00 0. -1.
<scales pt_clust_3="217.35043" pt_clust_4="41.69418" pt_clust_5="41.69418" pt_clust_6="47.71533"></scales>
<clustering>
<clus scale="   41.694">  4  5 -1 -1</clus>
<clus scale="   47.715">  1  6  2 -1</clus>
<clus scale="  217.350">  1  3  2 -1</clus>
<clus scale="   47.715">  1  3  2 -1</clus>
</clustering>
</event>
<event>
 6    0  0.1704145E+002  0.1855303E+03  0.7546771E-02  0.1162556E+00
         21   -1    0    0  506  501  0.00000000000E+00  0.00000000000E+00  0.33865847623E+03  0.33865847623E+03  0.00000000000E+00 0. -1.
         21   -1    0    0  503  502 -0.00000000000E+00 -0.00000000000E+00 -0.58219148788E+03  0.58219148788E+03  0.00000000000E+00 0. -1.
         21    1    1    2  503  504 -0.25230749188E+01 -0.51623497300E+02 -0.28155178263E+02  0.58856311841E+02  0.00000000000E+00 0. -1.
         21    1    1    2  504  505  0.22550967095E+02 -0.72254701515E+02 -0.19615846182E+03  0.21025563048E+03  0.00000000000E+00 0. -1.
         21    1    1    2  505  501  0.62153308810E+02 -0.29670403890E+02 -0.30739956700E+03  0.31502041276E+03  0.00000000000E+00 0. -1.
         21    1    1    2  506  502 -0.82181200987E+02  0.15354860271E+03  0.28818019543E+03  0.33671760903E+03  0.00000000000E+00 0. -1.
<scales pt_clust_3="51.68512" pt_clust_4="65.66317" pt_clust_5="65.66317" pt_clust_6="172.16505"></scales>
<clustering>
<clus scale="   51.685">  2  3  1 -1</clus>
<clus scale="   65.663">  4  5 -1 -1</clus>
<clus scale="  172.165">  1  6  2 -1</clus>
<clus scale="  172.165">  1  3  2 -1</clus>
</clustering>
</event>
<event>
 6    0  0.1704145E+002  0.2465704E+03  0.7546771E-02  0.1115492E+00
         21   -1    0    0  505  501  0.00000000000E+00  0.00000000000E+00  0.16029087891E+03  0.16029087891E+03  0.00000000000E+00 0. -1.
         21   -1    0    0  504  502 -0.00000000000E+00 -0.00000000000E+00 -0.61634416643E+03  0.61634416643E+03  0.00000000000E+00 0. -1.
         21    1    1    2  503  502  0.46029789874E+02  0.41244777160E+02 -0.93620200524E+02  0.11218117108E+03  0.00000000000E+00 0. -1.
         21    1    1    2  504  506 -0.16020600196E+02  0.38697968668E+02 -0.65976069088E+02  0.78147515008E+02  0.00000000000E+00 0. -1.
         21    1    1    2  505  503  0.19026384390E+03 -0.40042377445E+02 -0.30566042239E+03  0.36225959767E+03  0.00000000000E+00 0. -1.
         21    1    1    2  506  501 -0.22027303358E+03 -0.39900368383E+02  0.92034044873E+01  0.22404676158E+03  0.00000000000E+00 0. -1.
<scales pt_clust_3="59.33336" pt_clust_4="41.88308" pt_clust_5="59.33336" pt_clust_6="225.75219"></scales>
<clustering>
<clus scale="   41.883">  2  4  1 -1</clus>
<clus scale="   59.333">  3  5 -1 -1</clus>
<clus scale="  225.752">  1  6  2 -1</clus>
<clus scale="  225.752">  1  3  2 -1</clus>
</clustering>
</event>
<event>
 6    0  0.1704145E+002  0.1577960E+03  0.7546771E-02  0.1191208E+00
         21   -1    0    0  503  501  0.00000000000E+00  0.00000000000E+00  0.51983490029E+03  0.51983490029E+03  0.00000000000E+00 0.  1.
         21   -1    0    0  504  502 -0.00000000000E+00 -0.00000000000E+00 -0.26274798677E+03  0.26274798677E+03  0.00000000000E+00 0. -1.
         21    1    1    2  503  505 -0.21145240214E+02 -0.22392750546E+02  0.32475509796E+03  0.32621224703E+03  0.00000000000E+00 0.  1.
         21    1    1    2  504  501 -0.13092793732E+03  0.35464859044E+01  0.14125720424E+03  0.19263514758E+03  0.00000000000E+00 0.  1.
         21    1    1    2  505  506  0.11104435110E+03  0.35633154334E+02 -0.15059248671E+03  0.19046959509E+03  0.00000000000E+00 0. -1.
         21    1    1    2  506  502  0.41028826430E+02 -0.16786889693E+02 -0.58332901973E+02  0.73265897363E+02  0.00000000000E+00 0. -1.
<scales pt_clust_3="30.79864" pt_clust_4="149.91471" pt_clust_5="30.36201" pt_clust_6="30.36201"></scales>
<clustering>
<clus scale="   30.362">  5  6 -1 -1</clus>
<clus scale="   30.799">  1  3  2 -1</clus>
<clus scale="  149.915">  1  4  2 -1</clus>
<clus scale="   30.799">  1  3  2 -1</clus>
</clustering>
</event>
<event>
 6    0  0.1704145E+002  0.1042404E+03  0.7546771E-02  0.1271624E+00
         21   -1    0    0  506  501  0.00000000000E+00  0.00000000000E+00  0.47549462110E+03  0.47549462110E+03  0.00000000000E+00 0. -1.
         21   -1    0    0  503  502 -0.00000000000E+00 -0.00000000000E+00 -0.13957787019E+03  0.13957787019E+03  0.00000000000E+00 0.  1.
         21    1    1    2  503  504  0.79254444576E+02 -0.64109276407E+02 -0.12530169813E+02  0.10270477819E+03  0.00000000000E+00 0.  1.
         21    1    1    2  504  501  0.37286315025E+02  0.30099152490E+01  0.35544824981E+03  0.35741122977E+03  0.00000000000E+00 0. -1.
         21    1    1    2  505  502 -0.10714837904E+03  0.28721859392E+02 -0.29052976112E+02  0.11467255888E+03  0.00000000000E+00 0.  1.
         21    1    1    2  506  505 -0.93923805601E+01  0.32377501765E+02  0.22051647031E+02  0.40283924460E+02  0.00000000000E+00 0. -1.
<scales pt_clust_3="14000.00000" pt_clust_4="41.53507" pt_clust_5="104.24036" pt_clust_6="33.71230"></scales>
<clustering>
<clus scale="   33.712">  1  6  2 -1</clus>
<clus scale="   41.535">  1  4  2 -1</clus>
<clus scale="  104.240">  2  5  1 -1</clus>
<clus scale="   33.712">  1  3  2 -1</clus>
</clustering>
</event>
<event>
 6    0  0.1704145E+002  0.1104808E+03  0.7546771E-02  0.1259682E+00
         21   -1    0    0  504  501  0.00000000000E+00  0.00000000000E+00  0.39666827964E+03  0.39666827964E+03  0.00000000000E+00 0. -1.
         21   -1    0    0  505  502 -0.00000000000E+00 -0.00000000000E+00 -0.11783637666E+03  0.11783637666E+03  0.00000000000E+00 0.  1.
         21    1    1    2  503  506  0.88212567190E+02 -0.15617294655E+02 -0.38018833545E+02  0.97317976791E+02  0.00000000000E+00 0.  1.
         21    1    1    2  504  503  0.39777821580E+02 -0.21306070450E+02  0.32627309074E+02  0.55684513333E+02  0.00000000000E+00 0.  1.
         21    1    1    2  505  501 -0.13813591279E+03  0.71459043889E+02  0.28590453899E+03  0.32546786442E+03  0.00000000000E+00 0. -1.
         21    1    1    2  506  502  0.10145524020E+02 -0.34535678785E+02 -0.16811115366E+01  0.36034301752E+02  0.00000000000E+00 0. -1.
<scales pt_clust_3="14000.00000" pt_clust_4="48.15831" pt_clust_5="110.48085" pt_clust_6="35.99507"></scales>
<clustering>
<clus scale="   35.995">  2  6  1 -1</clus>
<clus scale="   48.158">  1  4  2 -1</clus>
<clus scale="  110.481">  1  5  2 -1</clus>
<clus scale="   48.158">  1  3  2 -1</clus>
</clustering>
</event>
<event>
 6    0  0.1704145E+002  0.9222625E+02  0.7546771E-02  0.1297548E+00
         21   -1    0    0  505  501  0.00000000000E+00  0.00000000000E+00  0.47083305901E+03  0.47083305901E+03  0.00000000000E+00 0.  1.
         21   -1    0    0  504  502 -0.00000000000E+00 -0.00000000000E+00 -0.43544851695E+03  0.43544851695E+03  0.00000000000E+00 0. -1.
         21    1    1    2  503  501  0.10086758335E+03 -0.25932682539E+02 -0.12606461817E+03  0.16352082849E+03  0.00000000000E+00 0. -1.
         21    1    1    2  504  503 -0.17989685077E+02  0.49650047854E+02 -0.16250828013E+03  0.17087333652E+03  0.00000000000E+00 0. -1.
         21    1    1    2  505  506 -0.48568705778E+01 -0.58783901725E+02  0.43091417226E+03  0.43493236273E+03  0.00000000000E+00 0.  1.
         21    1    1    2  506  502 -0.78021027693E+02  0.35066536409E+02 -0.10695673189E+03  0.13695504823E+03  0.00000000000E+00 0. -1.
<scales pt_clust_3="14000.00000" pt_clust_4="52.80867" pt_clust_5="58.62561" pt_clust_6="92.22625"></scales>
<clustering>
<clus scale="   52.809">  2  4  1 -1</clus>
<clus scale="   58.626">  1  5  2 -1</clus>
<clus scale="   92.226">  1  6  2 -1</clus>
<clus scale="   58.626">  1  3  2 -1</clus>
</clustering>
</event>
<event>
 6    0  0.1704145E+002  0.1541117E+03  0.7546771E-02  0.1195510E+00
         21   -1    0    0  506  501  0.00000000000E+00  0.00000000000E+00  0.41586095805E+03  0.41586095805E+03  0.00000000000E+00 0. -1.
         21   -1    0    0  504  502 -0.00000000000E+00 -0.00000000000E+00 -0.48464642356E+03  0.48464642356E+03  0.00000000000E+00 0. -1.
         21    1    1    2  503  501  0.38939034167E+02  0.50023986005E+02 -0.18247840395E+03  0.19317612551E+03  0.00000000000E+00 0. -1.
         21    1    1    2  504  503 -0.15765407439E+02  0.93030390724E+02 -0.24320073837E+03  0.26086356744E+03  0.00000000000E+00 0. -1.
         21    1    1    2  505  502 -0.30753744297E+02 -0.11384534652E+03  0.34786158512E+02  0.12294971548E+03  0.00000000000E+00 0. -1.
         21    1    1    2  506  505  0.75801175694E+01 -0.29209030209E+02  0.32210751830E+03  0.32351797318E+03  0.00000000000E+00 0. -1.
<scales pt_clust_3="51.86515" pt_clust_4="51.86515" pt_clust_5="140.72201" pt_clust_6="30.17657"></scales>
<clustering>
<clus scale="   30.177">  1  6  2 -1</clus>
<clus scale="   51.865">  3  4 -1 -1</clus>
<clus scale="  140.722">  1  5  2 -1</clus>
<clus scale="   30.177">  1  3  2 -1</clus>
</clustering>
</event>
<event>
 6    0  0.1704145E+002  0.1599771E+03  0.7546771E-02  0.1188723E+00
         21   -1    0    0  504  501  0.00000000000E+00  0.00000000000E+00  0.15594887107E+04  0.15594887107E+04  0.00000000000E+00 0. -1.
         21   -1    0    0  506  502 -0.00000000000E+00 -0.00000000000E+00 -0.17997134395E+03  0.17997134395E+03  0.00000000000E+00 0.  1.
         21    1    1    2  503  501  0.27335904684E+02  0.12421471338E+03  0.53043804854E+02  0.13780490535E+03  0.00000000000E+00 0.  1.
         21    1    1    2  504  502 -0.24120006449E+02 -0.14509870557E+03  0.13556319130E+04  0.13635883882E+04  0.00000000000E+00 0. -1.
         21    1    1    2  505  503  0.65470940641E+02  0.10086812933E+03  0.19717963997E+02  0.12185902382E+03  0.00000000000E+00 0.  1.
         21    1    1    2  506  505 -0.68686838876E+02 -0.79984137132E+02 -0.48876315047E+02  0.11620773726E+03  0.00000000000E+00 0.  1.
<scales pt_clust_3="51.96153" pt_clust_4="150.78792" pt_clust_5="51.96153" pt_clust_6="105.42933"></scales>
<clustering>
<clus scale="   51.962">  3  5 -1 -1</clus>
<clus scale="  105.429">  2  6  1 -1</clus>
<clus scale="  150.788">  1  4  2 -1</clus>
<clus scale="  150.788">  1  3  2 -1</clus>
</clustering>
</event>
<event>
 6    0  0.1704145E+002  0.1030746E+03  0.7546771E-02  0.1273960E+00
         21   -1    0    0  504  501  0.00000000000E+00  0.00000000000E+00  0.19650120347E+03  0.19650120347E+03  0.00000000000E+00 0.  1.
         21   -1    0    0  505  502 -0.00000000000E+00 -0.00000000000E+00 -0.26582705305E+03  0.26582705305E+03  0.00000000000E+00 0.  1.
         21    1    1    2  503  506  0.80048054581E+02  0.35675718003E+02 -0.91097361707E+02  0.12640877029E+03  0.00000000000E+00 0.  1.
         21    1    1    2  504  503 -0.32648307910E+02 -0.61597267038E+02  0.14460152519E+03  0.16052954994E+03  0.00000000000E+00 0.  1.
         21    1    1    2  505  501 -0.68887447167E+02 -0.22247458148E+02 -0.73779024045E+02  0.10336234402E+03  0.00000000000E+00 0.  1.
         21    1    1    2  506  502  0.21487700496E+02  0.48169007183E+02 -0.49050989019E+02  0.72027592278E+02  0.00000000000E+00 0. -1.
<scales pt_clust_3="37.97375" pt_clust_4="69.71467" pt_clust_5="90.71045" pt_clust_6="37.97375"></scales>
<clustering>
<clus scale="   37.974">  3  6 -1 -1</clus>
<clus scale="   69.715">  1  4  2 -1</clus>
<clus scale="   90.710">  2  5  1 -1</clus>
<clus scale="   69.715">  1  3  2 -1</clus>
</clustering>
</event>
<event>
 6    0  0.1704145E+002  0.1058960E+03  0.7546771E-02  0.1268364E+00
         21   -1    0    0  505  501  0.00000000000E+00  0.00000000000E+00  0.23270098344E+02  0.23270098344E+02  0.00000000000E+00 0.  1.
         21   -1    0    0  504  502 -0.00000000000E+00 -0.00000000000E+00 -0.18325343704E+04  0.18325343704E+04  0.00000000000E+00 0.  1.
         21    1    1    2  503  501  0.14640990809E+02 -0.39736663120E+02 -0.46651693897E+02  0.63005885052E+02  0.00000000000E+00 0.  1.
         21    1    1    2  504  506 -0.38654682004E+02  0.50422254131E+02 -0.51275864834E+03  0.51667980375E+03  0.00000000000E+00 0.  1.
         21    1    1    2  505  502 -0.72302073468E+02  0.85331211115E+01 -0.10587868336E+04  0.10612869371E+04  0.00000000000E+00 0.  1.
         21    1    1    2  506  503  0.96315764663E+02 -0.19218712123E+02 -0.19106709627E+03  0.21483184283E+03  0.00000000000E+00 0. -1.
<scales pt_clust_3="42.34809" pt_clust_4="58.30334" pt_clust_5="105.89602" pt_clust_6="14000.00000"></scales>
<clustering>
<clus scale="   42.348">  1  3  2 -1</clus>
<clus scale="   58.303">  2  4  1 -1</clus>
<clus scale="  105.896">  2  5  1 -1</clus>
<clus scale="   42.348">  1  3  2 -1</clus>
</clustering>
</event>
<event>
 6    0  0.1704145E+002  0.1182634E+03  0.7546771E-02  0.1245990E+00
         21   -1    0    0  505  501  0.00000000000E+00  0.00000000000E+00  0.93103187402E+03  0.93103187402E+03  0.00000000000E+00 0.  1.
         21   -1    0    0  506  502 -0.00000000000E+00 -0.00000000000E+00 -0.40235846981E+03  0.40235846981E+03  0.00000000000E+00 0.  1.
         21    1    1    2  503  501  0.66595784798E+02 -0.10433571247E+02 -0.43142902794E+02  0.80032293627E+02  0.00000000000E+00 0.  1.
         21    1    1    2  504  502 -0.10324185815E+03 -0.40438503691E+01 -0.26809285917E+03  0.28731344406E+03  0.00000000000E+00 0.  1.
         21    1    1    2  505  504 -0.58817542896E+02  0.52257335313E+02  0.85816708097E+03  0.86176625097E+03  0.00000000000E+00 0.  1.
         21    1    1    2  506  503  0.95463616243E+02 -0.37779913697E+02 -0.18257914795E+02  0.10427835517E+03  0.00000000000E+00 0.  1.
<scales pt_clust_3="32.53855" pt_clust_4="111.23696" pt_clust_5="78.67867" pt_clust_6="32.53855"></scales>
<clustering>
<clus scale="   32.539">  3  6 -1 -1</clus>
<clus scale="   78.679">  1  5  2 -1</clus>
<clus scale="  111.237">  2  4  1 -1</clus>
<clus scale="   78.679">  1  3  2 -1</clus>
</clustering>
</event>
<event>
 6    0  0.1704145E+002  0.1373248E+03  0.7546771E-02  0.1216975E+00
         21   -1    0    0  503  501  0.00000000000E+00  0.00000000000E+00  0.95757245488E+03  0.95757245488E+03  0.00000000000E+00 0. -1.
         21   -1    0    0  504  502 -0.00000000000E+00 -0.00000000000E+00 -0.13303462541E+03  0.13303462541E+03  0.00000000000E+00 0.  1.
         21    1    1    2  503  505  0.37857356118E+02 -0.10964585317E+02  0.15878609308E+02  0.42491549477E+02  0.00000000000E+00 0.  1.
         21    1    1    2  504  506  0.20464180464E+02  0.22697829375E+02 -0.48608735245E+02  0.57417621707E+02  0.00000000000E+00 0. -1.
         21    1    1    2  505  502  0.67385288745E+02 -0.37773792375E+02 -0.38126967148E+02  0.86146979945E+02  0.00000000000E+00 0.  1.
         21    1    1    2  506  501 -0.12570682533E+03  0.26040548317E+02  0.89539492256E+03  0.90455092916E+03  0.00000000000E+00 0. -1.
<scales pt_clust_3="35.66026" pt_clust_4="30.56099" pt_clust_5="35.66026" pt_clust_6="127.50161"></scales>
<clustering>
<clus scale="   30.561">  2  4  1 -1</clus>
<clus scale="   35.660">  3  5 -1 -1</clus>
<clus scale="  127.502">  1  6  2 -1</clus>
<clus scale="  127.502">  1  3  2 -1</clus>
</clustering>
</event>
<event>
 6    0  0.1704145E+002  0.8450607E+02  0.7546771E-02  0.1316729E+00
         21   -1    0    0  504  501  0.00000000000E+00  0.00000000000E+00  0.59170888365E+02  0.59170888365E+02  0.00000000000E+00 0. -1.
         21   -1    0    0  505  502 -0.00000000000E+00 -0.00000000000E+00 -0.10809254889E+04  0.10809254889E+04  0.00000000000E+00 0. -1.
         21    1    1    2  503  501  0.15153265713E+01 -0.69660701069E+02 -0.20448071951E+03  0.21602609597E+03  0.00000000000E+00 0. -1.
         21    1    1    2  504  506  0.72629138612E+02 -0.41432300097E+02  0.74225923483E+01  0.83944756501E+02  0.00000000000E+00 0. -1.
         21    1    1    2  505  503 -0.31016437572E+02 -0.85937685631E+01 -0.20426279991E+03  0.20678289021E+03  0.00000000000E+00 0.  1.
         21    1    1    2  506  502 -0.43128027610E+02  0.11968676973E+03 -0.62043367350E+03  0.63334263462E+03  0.00000000000E+00 0. -1.
<scales pt_clust_3="71.96981" pt_clust_4="84.50607" pt_clust_5="32.18497" pt_clust_6="14000.00000"></scales>
<clustering>
<clus scale="   32.185">  2  5  1 -1</clus>
<clus scale="   71.970">  2  3  1 -1</clus>
<clus scale="   84.506">  1  4  2 -1</clus>
<clus scale="   84.506">  1  3  2 -1</clus>
</clustering>
</event>
<event>
 6    0  0.1704145E+002  0.1233512E+03  0.7546771E-02  0.1237669E+00
         21   -1    0    0  505  501  0.00000000000E+00  0.00000000000E+00  0.53629729620E+03  0.53629729620E+03  0.00000000000E+00 0.  1.
         21   -1    0    0  506  502 -0.00000000000E+00 -0.00000000000E+00 -0.39228500161E+03  0.39228500161E+03  0.00000000000E+00 0. -1.
         21    1    1    2  503  504  0.33624329014E+02  0.63725295939E+02 -0.69616418457E+01  0.72387659869E+02  0.00000000000E+00 0.  1.
         21    1    1    2  504  501  0.54823587554E+02 -0.12113261452E+02 -0.29254991289E+03  0.29788891954E+03  0.00000000000E+00 0. -1.
         21    1    1    2  505  502 -0.11838252972E+03 -0.41293181852E+02  0.48792221058E+03  0.50377339527E+03  0.00000000000E+00 0.  1.
         21    1    1    2  506  503  0.29934613149E+02 -0.10318852634E+02 -0.44398361249E+02  0.54532323127E+02  0.00000000000E+00 0.  1.
<scales pt_clust_3="72.70287" pt_clust_4="123.35116" pt_clust_5="14000.00000" pt_clust_6="31.66322"></scales>
<clustering>
<clus scale="   31.663">  2  6  1 -1</clus>
<clus scale="   72.703">  2  3  1 -1</clus>
<clus scale="  123.351">  2  4  1 -1</clus>
<clus scale="  123.351">  1  3  2 -1</clus>
</clustering>
</event>
<event>
 6    0  0.1704145E+002  0.8376055E+02  0.7546771E-02  0.1318706E+00
         21   -1    0    0  504  501  0.00000000000E+00  0.00000000000E+00  0.11606699501E+03  0.11606699501E+03  0.00000000000E+00 0.  1.
         21   -1    0    0  505  502 -0.00000000000E+00 -0.00000000000E+00 -0.91300664797E+03  0.91300664797E+03  0.00000000000E+00 0.  1.
         21    1    1    2  503  501 -0.34052625372E+02  0.13729807824E+03  0.31525052506E+02  0.14492816331E+03  0.00000000000E+00 0.  1.
         21    1    1    2  504  502 -0.26572856856E+01 -0.59450161347E+02 -0.23099103300E+02  0.63835346202E+02  0.00000000000E+00 0.  1.
         21    1    1    2  505  506  0.58957509958E+02 -0.87160142774E+01 -0.59056716220E+03  0.59356678643E+03  0.00000000000E+00 0.  1.
         21    1    1    2  506  503 -0.22247598900E+02 -0.69131902619E+02 -0.21479843997E+03  0.22674334705E+03  0.00000000000E+00 0.  1.
<scales pt_clust_3="83.76055" pt_clust_4="59.50952" pt_clust_5="59.70057" pt_clust_6="14000.00000"></scales>
<clustering>
<clus scale="   59.510">  1  4  2 -1</clus>
<clus scale="   59.701">  2  5  1 -1</clus>
<clus scale="   83.761">  1  3  2 -1</clus>
<clus scale="   59.510">  1  3  2 -1</clus>
</clustering>
</event>
<event>
 6    0  0.1704145E+002  0.1184338E+03  0.7546771E-02  0.1245703E+00
         21   -1    0    0  505  501  0.00000000000E+00  0.00000000000E+00  0.70887545693E+03  0.70887545693E+03  0.00000000000E+00 0. -1.
         21   -1    0    0  504  502 -0.00000000000E+00 -0.00000000000E+00 -0.15656159577E+03  0.15656159577E+03  0.00000000000E+00 0. -1.
         21    1    1    2  503  501 -0.82069318693E+00 -0.32698909561E+02  0.49230019630E+03  0.49338562555E+03  0.00000000000E+00 0.  1.
         21    1    1    2  504  506  0.41930549906E+02  0.10583944537E+03 -0.87457906986E+02  0.14355850621E+03  0.00000000000E+00 0. -1.
         21    1    1    2  505  502 -0.24986574144E+02  0.19320664346E+02 -0.19378752229E+02  0.37056079072E+02  0.00000000000E+00 0.  1.
         21    1    1    2  506  503 -0.16123282576E+02 -0.92461200158E+02  0.16685032408E+03  0.19143684186E+03  0.00000000000E+00 0. -1.
<scales pt_clust_3="32.63036" pt_clust_4="118.43381" pt_clust_5="31.58507" pt_clust_6="14000.00000"></scales>
<clustering>
<clus scale="   31.585">  2  5  1 -1</clus>
<clus scale="   32.630">  1  3  2 -1</clus>
<clus scale="  118.434">  2  4  1 -1</clus>
<clus scale="   32.630">  1  3  2 -1</clus>
</clustering>
</event>
<event>
 6    0  0.1704145E+002  0.1072472E+03  0.7546771E-02  0.1265754E+00
         21   -1    0    0  504  501  0.00000000000E+00  0.00000000000E+00  0.10459978080E+03  0.10459978080E+03  0.00000000000E+00 0. -1.
         21   -1    0    0  505  502 -0.00000000000E+00 -0.00000000000E+00 -0.33513070288E+03  0.33513070288E+03  0.00000000000E+00 0. -1.
         21    1    1    2  503  501  0.58264000011E+02  0.76469170692E+01 -0.14089078450E+02  0.60429058982E+02  0.00000000000E+00 0. -1.
         21    1    1    2  504  506 -0.10327924097E+03  0.34266574199E+02 -0.12425759951E+03  0.16516885529E+03  0.00000000000E+00 0. -1.
         21    1    1    2  505  503  0.43649463055E+02 -0.90611426448E+02  0.98566624913E+01  0.10105869593E+03  0.00000000000E+00 0. -1.
         21    1    1    2  506  502  0.13657779002E+01  0.48697935179E+02 -0.10204090661E+03  0.11307387347E+03  0.00000000000E+00 0. -1.
<scales pt_clust_3="60.53744" pt_clust_4="14000.00000" pt_clust_5="107.24721" pt_clust_6="48.71708"></scales>
<clustering>
<clus scale="   48.717">  2  6  1 -1</clus>
<clus scale="   60.537">  1  3  2 -1</clus>
<clus scale="  107.247">  1  5  2 -1</clus>
<clus scale="   60.537">  1  3  2 -1</clus>
</clustering>
</event>
<event>
 6    0  0.1704145E+002  0.1485101E+03  0.7546771E-02  0.1202316E+00
         21   -1    0    0  506  501  0.00000000000E+00  0.00000000000E+00  0.16352807296E+04  0.16352807296E+04  0.00000000000E+00 0. -1.
         21   -1    0    0  503  502 -0.00000000000E+00 -0.00000000000E+00 -0.52645620284E+02  0.52645620284E+02  0.00000000000E+00 0. -1.
         21    1    1    2  503  501  0.34613088715E+02 -0.10045703081E+02 -0.13071010900E+02  0.38338406158E+02  0.00000000000E+00 0. -1.
         21    1    1    2  504  502  0.14724115979E+02  0.35329150773E+02  0.73838728130E+02  0.83169142460E+02  0.00000000000E+00 0. -1.
         21    1    1    2  505  504 -0.43642906341E+02  0.11195947869E+03  0.17336479522E+03  0.21093833309E+03  0.00000000000E+00 0. -1.
         21    1    1    2  506  505 -0.56942983533E+01 -0.13724292638E+03  0.13485025969E+04  0.13554804682E+04  0.00000000000E+00 0. -1.
<scales pt_clust_3="36.04139" pt_clust_4="30.17888" pt_clust_5="30.17888" pt_clust_6="138.54918"></scales>
<clustering>
<clus scale="   30.179">  4  5 -1 -1</clus>
<clus scale="   36.041">  2  3  1 -1</clus>
<clus scale="  138.549">  1  6  2 -1</clus>
<clus scale="  138.549">  1  3  2 -1</clus>
</clustering>
</event>
<event>
 6    0  0.1704145E+002  0.6973731E+03  0.7546771E-02  0.9721735E-01
         21   -1    0    0  502  501  0.00000000000E+00  0.00000000000E+00  0.97085786281E+03  0.97085786281E+03  0.00000000000E+00 0.  1.
         21   -1    0    0  505  502 -0.00000000000E+00 -0.00000000000E+00 -0.17687562257E+04  0.17687562257E+04  0.00000000000E+00 0.  1.
         21    1    1    2  503  501  0.65786335733E+03  0.80739878203E+02  0.77457109664E+03  0.10194427442E+04  0.00000000000E+00 0.  1.
         21    1    1    2  504  503 -0.99028795373E+02  0.53204639448E+02 -0.19197528434E+03  0.22246785334E+03  0.00000000000E+00 0. -1.
         21    1    1    2  505  506 -0.23779337235E+03 -0.10005305332E+03 -0.61745279421E+03  0.66918177986E+03  0.00000000000E+00 0.  1.
         21    1    1    2  506  504 -0.32104118961E+03 -0.33891464335E+02 -0.76304138100E+03  0.82852171118E+03  0.00000000000E+00 0.  1.
<scales pt_clust_3="662.79946" pt_clust_4="73.91774" pt_clust_5="114.42158" pt_clust_6="114.42158"></scales>
<clustering>
<clus scale="   73.918">  4  6 -1 -1</clus>
<clus scale="  114.422">  4  5 -1 -1</clus>
<clus scale="  662.799">  1  3  2 -1</clus>
<clus scale="  662.799">  1  3  2 -1</clus>
</clustering>
</event>
<event>
 6    0  0.1704145E+002  0.1314545E+03  0.7546771E-02  0.1225313E+00
         21   -1    0    0  504  501  0.00000000000E+00  0.00000000000E+00  0.24774215657E+03  0.24774215657E+03  0.00000000000E+00 0. -1.
         21   -1    0    0  503  502 -0.00000000000E+00 -0.00000000000E+00 -0.53088271305E+03  0.53088271305E+03  0.00000000000E+00 0. -1.
         21    1    1    2  503  505 -0.11588634909E+03 -0.45098731790E+02 -0.32474701037E+03  0.34774151645E+03  0.00000000000E+00 0. -1.
         21    1    1    2  504  502  0.16675296241E+03  0.12406887473E+02 -0.94207355478E+02  0.19192578554E+03  0.00000000000E+00 0. -1.
         21    1    1    2  505  506 -0.49359321871E+02  0.17099627384E+01 -0.38051320886E+02  0.62347170339E+02  0.00000000000E+00 0. -1.
         21    1    1    2  506  501 -0.15072914451E+01  0.30981881578E+02  0.17386513026E+03  0.17661039730E+03  0.00000000000E+00 0. -1.
<scales pt_clust_3="131.45448" pt_clust_4="14000.00000" pt_clust_5="50.08951" pt_clust_6="31.01853"></scales>
<clustering>
<clus scale="   31.019">  1  6  2 -1</clus>
<clus scale="   50.090">  1  5  2 -1</clus>
<clus scale="  131.454">  2  3  1 -1</clus>
<clus scale="   31.019">  1  3  2 -1</clus>
</clustering>
</event>
<event>
 6    0  0.1704145E+002  0.1505223E+03  0.7546771E-02  0.1199833E+00
         21   -1    0    0  504  501  0.00000000000E+00  0.00000000000E+00  0.89790202816E+02  0.89790202816E+02  0.00000000000E+00 0.  1.
         21   -1    0    0  505  502 -0.00000000000E+00 -0.00000000000E+00 -0.38072783110E+03  0.38072783110E+03  0.00000000000E+00 0.  1.
         21    1    1    2  503  501 -0.28778007816E+02 -0.17253761301E+02  0.21857100569E+02  0.40044960459E+02  0.00000000000E+00 0.  1.
         21    1    1    2  504  506  0.27184511613E+02  0.58803652984E+02 -0.63469911825E+02  0.90693423042E+02  0.00000000000E+00 0. -1.
         21    1    1    2  505  503 -0.76400806261E+02 -0.98932807598E+02 -0.92625983666E+02  0.15557749344E+03  0.00000000000E+00 0.  1.
         21    1    1    2  506  502  0.77994302464E+02  0.57382915915E+02 -0.15669883336E+03  0.18420215697E+03  0.00000000000E+00 0.  1.
<scales pt_clust_3="33.55393" pt_clust_4="40.79557" pt_clust_5="141.86460" pt_clust_6="40.79557"></scales>
<clustering>
<clus scale="   33.554">  1  3  2 -1</clus>
<clus scale="   40.796">  4  6 -1 -1</clus>
<clus scale="  141.865">  1  5  2 -1</clus>
<clus scale="   33.554">  1  3  2 -1</clus>
</clustering>
</event>
<event>
 6    0  0.1704145E+002  0.1084256E+03  0.7546771E-02  0.1263514E+00
         21   -1    0    0  505  501  0.00000000000E+00  0.00000000000E+00  0.46175302464E+02  0.46175302464E+02  0.00000000000E+00 0.  1.
         21   -1    0    0  506  502 -0.00000000000E+00 -0.00000000000E+00 -0.13077319265E+04  0.13077319265E+04  0.00000000000E+00 0. -1.
         21    1    1    2  503  501 -0.24546634412E+02 -0.49040802005E+02 -0.87330645786E+00  0.54847973403E+02  0.00000000000E+00 0.  1.
         21    1    1    2  504  503 -0.46062814779E+02 -0.85602253841E+02 -0.18570466790E+03  0.20960856960E+03  0.00000000000E+00 0.  1.
         21    1    1    2  505  502 -0.48452222080E+00  0.92493602779E+02 -0.64531530416E+03  0.65191037965E+03  0.00000000000E+00 0. -1.
         21    1    1    2  506  504  0.71093971411E+02  0.42149453068E+02 -0.42966334548E+03  0.43754030628E+03  0.00000000000E+00 0. -1.
<scales pt_clust_3="54.84102" pt_clust_4="108.42560" pt_clust_5="14000.00000" pt_clust_6="73.43492"></scales>
<clustering>
<clus scale="   54.841">  1  3  2 -1</clus>
<clus scale="   73.435">  2  6  1 -1</clus>
<clus scale="  108.426">  1  4  2 -1</clus>
<clus scale="   54.841">  1  3  2 -1</clus>
</clustering>
</event>
<event>
 6    0  0.1704145E+002  0.1812032E+03  0.7546771E-02  0.1166644E+00
         21   -1    0    0  504  501  0.00000000000E+00  0.00000000000E+00  0.20081919080E+03  0.20081919080E+03  0.00000000000E+00 0.  1.
         21   -1    0    0  505  502 -0.00000000000E+00 -0.00000000000E+00 -0.54653966030E+03  0.54653966030E+03  0.00000000000E+00 0.  1.
         21    1    1    2  503  506 -0.72598071568E+02 -0.12708581772E+03 -0.30948422346E+03  0.34234743994E+03  0.00000000000E+00 0.  1.
         21    1    1    2  504  502  0.30586244900E+02 -0.47861632162E+01 -0.23636738982E+02  0.38950239603E+02  0.00000000000E+00 0.  1.
         21    1    1    2  505  503 -0.40231473773E+02 -0.15565373454E+02 -0.14514636388E+03  0.15142100013E+03  0.00000000000E+00 0.  1.
         21    1    1    2  506  501  0.82243300441E+02  0.14743735440E+03  0.13254685682E+03  0.21464017143E+03  0.00000000000E+00 0.  1.
<scales pt_clust_3="32.02547" pt_clust_4="30.95845" pt_clust_5="32.02547" pt_clust_6="169.69437"></scales>
<clustering>
<clus scale="   30.958">  2  4  1 -1</clus>
<clus scale="   32.025">  3  5 -1 -1</clus>
<clus scale="  169.694">  1  6  2 -1</clus>
<clus scale="  169.694">  1  3  2 -1</clus>
</clustering>
</event>
<event>
 6    0  0.1704145E+002  0.1004917E+03  0.7546771E-02  0.1279265E+00
         21   -1    0    0  506  501  0.00000000000E+00  0.00000000000E+00  0.18798056611E+04  0.18798056611E+04  0.00000000000E+00 0.  1.
         21   -1    0    0  505  502 -0.00000000000E+00 -0.00000000000E+00 -0.32195505159E+03  0.32195505159E+03  0.00000000000E+00 0. -1.
         21    1    1    2  503  502  0.10549327626E+03 -0.40573914089E+02 -0.25426600719E+03  0.27825577488E+03  0.00000000000E+00 0. -1.
         21    1    1    2  504  501 -0.31424375758E+02  0.17102792782E+02  0.12560441925E+03  0.13060040983E+03  0.00000000000E+00 0. -1.
         21    1    1    2  505  504 -0.49951605371E+02  0.60107149048E+02 -0.24057310111E+02  0.81772773070E+02  0.00000000000E+00 0. -1.
         21    1    1    2  506  503 -0.24117295133E+02 -0.36636027741E+02  0.17105695075E+04  0.17111317549E+04  0.00000000000E+00 0.  1.
<scales pt_clust_3="100.49173" pt_clust_4="35.77704" pt_clust_5="14000.00000" pt_clust_6="58.32061"></scales>
<clustering>
<clus scale="   35.777">  1  4  2 -1</clus>
<clus scale="   58.321">  1  6  2 -1</clus>
<clus scale="  100.492">  2  3  1 -1</clus>
<clus scale="   35.777">  1  3  2 -1</clus>
</clustering>
</event>
<event>
 6    0  0.1704145E+002  0.1509203E+03  0.7546771E-02  0.1199347E+00
         21   -1    0    0  503  501  0.00000000000E+00  0.00000000000E+00  0.58927633046E+03  0.58927633046E+03  0.00000000000E+00 0. -1.
         21   -1    0    0  506  502 -0.00000000000E+00 -0.00000000000E+00 -0.14680655976E+03  0.14680655976E+03  0.00000000000E+00 0. -1.
         21    1    1    2  503  504 -0.23884910045E+02  0.20378635421E+02  0.39601553440E+03  0.39725820469E+03  0.00000000000E+00 0. -1.
         21    1    1    2  504  502 -0.12055757710E+03  0.63962212394E+01  0.11518553025E+03  0.16686146176E+03  0.00000000000E+00 0. -1.
         21    1    1    2  505  501  0.33409020496E+02  0.83178832838E+00  0.77941274539E+01  0.34316219855E+02  0.00000000000E+00 0.  1.
         21    1    1    2  506  505  0.11103346665E+03 -0.27606644989E+02 -0.76525421400E+02  0.13764700391E+03  0.00000000000E+00 0. -1.
<scales pt_clust_3="31.39710" pt_clust_4="139.67860" pt_clust_5="30.89038" pt_clust_6="30.89038"></scales>
<clustering>
<clus scale="   30.890">  5  6 -1 -1</clus>
<clus scale="   31.397">  1  3  2 -1</clus>
<clus scale="  139.679">  1  4  2 -1</clus>
<clus scale="   31.397">  1  3  2 -1</clus>
</clustering>
</event>
<event>
 6    0  0.1704145E+002  0.8888117E+02  0.7546771E-02  0.1305584E+00
         21   -1    0    0  503  501  0.00000000000E+00  0.00000000000E+00  0.15914417293E+04  0.15914417293E+04  0.00000000000E+00 0. -1.
         21   -1    0    0  505  502 -0.00000000000E+00 -0.00000000000E+00 -0.20619777115E+03  0.20619777115E+03  0.00000000000E+00 0.  1.
         21    1    1    2  503  506  0.33823857466E+02  0.86246848729E+02  0.32944050529E+02  0.98325392015E+02  0.00000000000E+00 0.  1.
         21    1    1    2  504  501 -0.93125946076E+01 -0.54850790772E+02  0.12124302177E+04  0.12137060461E+04  0.00000000000E+00 0. -1.
         21    1    1    2  505  504 -0.11244809056E+03 -0.29126637341E+02  0.28955664352E+03  0.31198715339E+03  0.00000000000E+00 0. -1.
         21    1    1    2  506  502  0.87936827700E+02 -0.22694206156E+01 -0.14968695359E+03  0.17362090891E+03  0.00000000000E+00 0.  1.
<scales pt_clust_3="83.21781" pt_clust_4="55.63572" pt_clust_5="88.88117" pt_clust_6="14000.00000"></scales>
<clustering>
<clus scale="   55.636">  1  4  2 -1</clus>
<clus scale="   83.218">  1  3  2 -1</clus>
<clus scale="   88.881">  1  5  2 -1</clus>
<clus scale="   55.636">  1  3  2 -1</clus>
</clustering>
</event>
<event>
 6    0  0.1704145E+002  0.2241707E+03  0.7546771E-02  0.1130811E+00
         21   -1    0    0  504  501  0.00000000000E+00  0.00000000000E+00  0.37728093493E+03  0.37728093493E+03  0.00000000000E+00 0.  1.
         21   -1    0    0  506  502 -0.00000000000E+00 -0.00000000000E+00 -0.32525214557E+03  0.32525214557E+03  0.00000000000E+00 0.  1.
         21    1    1    2  503  501  0.87821668244E+02 -0.39858608789E+02 -0.17897790040E+02  0.98090188072E+02  0.00000000000E+00 0.  1.
         21    1    1    2  504  502 -0.23584152474E+03  0.65975069421E+01  0.22504295312E+03  0.32605073630E+03  0.00000000000E+00 0.  1.
         21    1    1    2  505  503  0.42025572256E+02 -0.70142841199E+02 -0.69701605792E+02  0.10744524533E+03  0.00000000000E+00 0.  1.
         21    1    1    2  506  505  0.10599428424E+03  0.10340394305E+03 -0.85414767931E+02  0.17094691079E+03  0.00000000000E+00 0.  1.
<scales pt_clust_3="68.96995" pt_clust_4="211.28649" pt_clust_5="68.96995" pt_clust_6="148.07824"></scales>
<clustering>
<clus scale="   68.970">  3  5 -1 -1</clus>
<clus scale="  148.078">  2  6  1 -1</clus>
<clus scale="  211.286">  1  4  2 -1</clus>
<clus scale="  211.286">  1  3  2 -1</clus>
</clustering>
</event>
<event>
 6    0  0.1704145E+002  0.1186626E+03  0.7546771E-02  0.1245320E+00
         21   -1    0    0  506  501  0.00000000000E+00  0.00000000000E+00  0.26033244983E+03  0.26033244983E+03  0.00000000000E+00 0.  1.
         21   -1    0    0  503  502 -0.00000000000E+00 -0.00000000000E+00 -0.34533383460E+03  0.34533383460E+03  0.00000000000E+00 0.  1.
         21    1    1    2  503  501  0.15066475832E+03 -0.80334863621E+02  0.16649224317E+03  0.23848108258E+03  0.00000000000E+00 0.  1.
         21    1    1    2  504  505 -0.39538453370E+02  0.33574281178E+02 -0.19771462878E+03  0.20440546980E+03  0.00000000000E+00 0.  1.
         21    1    1    2  505  502 -0.42776456794E+02  0.30397011807E+02 -0.73012098469E+02  0.89914237501E+02  0.00000000000E+00 0.  1.
         21    1    1    2  506  504 -0.68349848151E+02  0.16363570636E+02  0.19233099314E+02  0.72865494546E+02  0.00000000000E+00 0. -1.
<scales pt_clust_3="107.78567" pt_clust_4="49.34160" pt_clust_5="49.34160" pt_clust_6="70.28135"></scales>
<clustering>
<clus scale="   49.342">  4  5 -1 -1</clus>
<clus scale="   70.281">  1  6  2 -1</clus>
<clus scale="  107.786">  1  3  2 -1</clus>
<clus scale="   70.281">  1  3  2 -1</clus>
</clustering>
</event>
<event>
 6    0  0.1704145E+002  0.2370822E+03  0.7546771E-02  0.1121752E+00
         21   -1    0    0  505  501  0.00000000000E+00  0.00000000000E+00  0.13625698320E+03  0.13625698320E+03  0.00000000000E+00 0. -1.
         21   -1    0    0  501  502 -0.00000000000E+00 -0.00000000000E+00 -0.13816016512E+04  0.13816016512E+04  0.00000000000E+00 0. -1.
         21    1    1    2  503  506 -0.75955580914E+02 -0.10603513472E+02 -0.28306225809E+03  0.29326767078E+03  0.00000000000E+00 0. -1.
         21    1    1    2  504  502 -0.37631189263E+02 -0.32750963045E+02 -0.67753360475E+03  0.67936773367E+03  0.00000000000E+00 0. -1.
         21    1    1    2  505  503  0.23666629421E+03  0.26777638826E+02 -0.39747730423E+01  0.23820952033E+03  0.00000000000E+00 0. -1.
         21    1    1    2  506  504 -0.12307952403E+03  0.16576837690E+02 -0.28077403215E+03  0.30701370965E+03  0.00000000000E+00 0. -1.
<scales pt_clust_3="41.40173" pt_clust_4="49.88719" pt_clust_5="231.15416" pt_clust_6="41.40173"></scales>
<clustering>
<clus scale="   41.402">  3  6 -1 -1</clus>
<clus scale="   49.887">  2  4  1 -1</clus>
<clus scale="  231.154">  1  5  2 -1</clus>
<clus scale="  231.154">  1  3  2 -1</clus>
</clustering>
</event>
<event>
 6    0  0.1704145E+002  0.1693124E+03  0.7546771E-02  0.1178567E+00
         21   -1    0    0  505  501  0.00000000000E+00  0.00000000000E+00  0.11393146507E+04  0.11393146507E+04  0.00000000000E+00 0. -1.
         21   -1    0    0  503  502 -0.00000000000E+00 -0.00000000000E+00 -0.22889760588E+03  0.22889760588E+03  0.00000000000E+00 0.  1.
         21    1    1    2  503  506  0.60210736829E+02  0.44320534550E+02  0.14314362719E+00  0.74764049532E+02  0.00000000000E+00 0.  1.
         21    1    1    2  504  502 -0.92850965253E+02  0.16495731855E+02 -0.37989596932E+02  0.10166917130E+03  0.00000000000E+00 0.  1.
         21    1    1    2  505  504 -0.10081584501E+03 -0.12330807403E+03  0.10168419083E+04  0.10292405852E+04  0.00000000000E+00 0. -1.
         21    1    1    2  506  501  0.13345607343E+03  0.62491807629E+02 -0.68578410194E+02  0.16253845053E+03  0.00000000000E+00 0.  1.
<scales pt_clust_3="37.10289" pt_clust_4="94.30488" pt_clust_5="161.10033" pt_clust_6="37.10289"></scales>
<clustering>
<clus scale="   37.103">  3  6 -1 -1</clus>
<clus scale="   94.305">  2  4  1 -1</clus>
<clus scale="  161.100">  1  5  2 -1</clus>
<clus scale="  161.100">  1  3  2 -1</clus>
</clustering>
</event>
<event>
 6    0  0.1704145E+002  0.1119125E+03  0.7546771E-02  0.1257069E+00
         21   -1    0    0  506  501  0.00000000000E+00  0.00000000000E+00  0.20948967344E+03  0.20948967344E+03  0.00000000000E+00 0. -1.
         21   -1    0    0  505  502 -0.00000000000E+00 -0.00000000000E+00 -0.10472361524E+03  0.10472361524E+03  0.00000000000E+00 0. -1.
         21    1    1    2  503  501 -0.19566508427E+02 -0.79442536484E+02  0.96148858135E+02  0.12624804068E+03  0.00000000000E+00 0. -1.
         21    1    1    2  504  503 -0.35383599742E+02 -0.22584757132E+02  0.22418256969E+02  0.47588324524E+02  0.00000000000E+00 0. -1.
         21    1    1    2  505  504  0.65294687292E+02  0.41379174610E+02 -0.15448928211E+02  0.78830842079E+02  0.00000000000E+00 0. -1.
         21    1    1    2  506  502 -0.10344579123E+02  0.60648119006E+02  0.16478713044E+01  0.61546081403E+02  0.00000000000E+00 0. -1.
<scales pt_clust_3="37.43798" pt_clust_4="37.43798" pt_clust_5="98.95747" pt_clust_6="61.52402"></scales>
<clustering>
<clus scale="   37.438">  3  4 -1 -1</clus>
<clus scale="   61.524">  2  6  1 -1</clus>
<clus scale="   98.957">  2  5  1 -1</clus>
<clus scale="  111.913">  1  3  2 -1</clus>
</clustering>
</event>
<event>
 6    0  0.1704145E+002  0.1885267E+03  0.7546771E-02  0.1159797E+00
         21   -1    0    0  504  501  0.00000000000E+00  0.00000000000E+00  0.39313536750E+02  0.39313536750E+02  0.00000000000E+00 0.  1.
         21   -1    0    0  506  502 -0.00000000000E+00 -0.00000000000E+00 -0.91538660881E+03  0.91538660881E+03  0.00000000000E+00 0.  1.
         21    1    1    2  503  505 -0.37845274778E+02 -0.42223456999E+02 -0.17445414359E+03  0.18343754621E+03  0.00000000000E+00 0.  1.
         21    1    1    2  504  503 -0.58131965841E+02 -0.20136196635E+02 -0.12463299841E+03  0.13898984193E+03  0.00000000000E+00 0.  1.
         21    1    1    2  505  502 -0.50255377965E+02 -0.14908116537E+02 -0.33555121546E+03  0.33962107289E+03  0.00000000000E+00 0.  1.
         21    1    1    2  506  501  0.14623261858E+03  0.77267770171E+02 -0.24143471460E+03  0.29265168453E+03  0.00000000000E+00 0.  1.
<scales pt_clust_3="35.99745" pt_clust_4="51.66982" pt_clust_5="51.66982" pt_clust_6="165.39131"></scales>
<clustering>
<clus scale="   35.997">  3  4 -1 -1</clus>
<clus scale="   51.670">  3  5 -1 -1</clus>
<clus scale="  165.391">  1  6  2 -1</clus>
<clus scale="  165.391">  1  3  2 -1</clus>
</clustering>
</event>
<event>
 6    0  0.1704145E+002  0.9284849E+02  0.7546771E-02  0.1296097E+00
         21   -1    0    0  505  501  0.00000000000E+00  0.00000000000E+00  0.12074239022E+04  0.12074239022E+04  0.00000000000E+00 0. -1.
         21   -1    0    0  506  502 -0.00000000000E+00 -0.00000000000E+00 -0.23627425857E+04  0.23627425857E+04  0.00000000000E+00 0. -1.
         21    1    1    2  503  501 -0.42477596176E+02 -0.66475398739E+02  0.11982240257E+04  0.12008181130E+04  0.00000000000E+00 0. -1.
         21    1    1    2  504  502  0.60861353141E+01  0.60138219652E+02 -0.16147646326E+04  0.16158955614E+04  0.00000000000E+00 0. -1.
         21    1    1    2  505  504  0.14318240516E+01  0.52763983085E+02 -0.60867282808E+03  0.61095719954E+03  0.00000000000E+00 0. -1.
         21    1    1    2  506  503  0.34959636810E+02 -0.46426803997E+02 -0.13010524850E+03  0.14249561405E+03  0.00000000000E+00 0. -1.
<scales pt_clust_3="78.89988" pt_clust_4="45.73817" pt_clust_5="45.73817" pt_clust_6="58.11733"></scales>
<clustering>
<clus scale="   45.738">  4  5 -1 -1</clus>
<clus scale="   58.117">  2  6  1 -1</clus>
<clus scale="   78.900">  1  3  2 -1</clus>
<clus scale="   78.900">  1  3  2 -1</clus>
</clustering>
</event>
<event>
 6    0  0.1704145E+002  0.1300244E+03  0.7546771E-02  0.1227420E+00
         21   -1    0    0  503  501  0.00000000000E+00  0.00000000000E+00  0.85286503809E+03  0.85286503809E+03  0.00000000000E+00 0. -1.
         21   -1    0    0  505  502 -0.00000000000E+00 -0.00000000000E+00 -0.54219083321E+02  0.54219083321E+02  0.00000000000E+00 0. -1.
         21    1    1    2  503  506  0.46808756379E+02  0.32659891444E+01  0.52683353737E+03  0.52891899423E+03  0.00000000000E+00 0. -1.
         21    1    1    2  504  502 -0.68924268293E+02 -0.24771380866E+02  0.61782253722E+02  0.95818698304E+02  0.00000000000E+00 0. -1.
         21    1    1    2  505  501  0.78833946509E+02  0.74887311689E+02  0.10138900067E+03  0.14866953296E+03  0.00000000000E+00 0. -1.
         21    1    1    2  506  504 -0.56718434596E+02 -0.53381919968E+02  0.10864116300E+03  0.13367689591E+03  0.00000000000E+00 0. -1.
<scales pt_clust_3="46.92256" pt_clust_4="40.33386" pt_clust_5="123.19205" pt_clust_6="40.33386"></scales>
<clustering>
<clus scale="   40.334">  4  6 -1 -1</clus>
<clus scale="   46.923">  1  3  2 -1</clus>
<clus scale="  123.192">  2  5  1 -1</clus>
<clus scale="   46.923">  1  3  2 -1</clus>
</clustering>
</event>
<event>
 6    0  0.1704145E+002  0.2394763E+03  0.7546771E-02  0.1120142E+00
         21   -1    0    0  506  501  0.00000000000E+00  0.00000000000E+00  0.57096288097E+03  0.57096288097E+03  0.00000000000E+00 0.  1.
         21   -1    0    0  503  502 -0.00000000000E+00 -0.00000000000E+00 -0.74335592444E+03  0.74335592444E+03  0.00000000000E+00 0.  1.
         21    1    1    2  503  501  0.26509954504E+03  0.17937062066E+02  0.89655973500E+02  0.28042414404E+03  0.00000000000E+00 0.  1.
         21    1    1    2  504  502 -0.46298225886E+02 -0.16133897255E+02 -0.79334956720E+02  0.93262338157E+02  0.00000000000E+00 0.  1.
         21    1    1    2  505  504 -0.18005021584E+03 -0.10579404203E+02 -0.54608325346E+03  0.57509731674E+03  0.00000000000E+00 0.  1.
         21    1    1    2  506  505 -0.38751103312E+02  0.87762393916E+01  0.36336919320E+03  0.36553500647E+03  0.00000000000E+00 0.  1.
<scales pt_clust_3="231.81762" pt_clust_4="31.32397" pt_clust_5="31.32397" pt_clust_6="39.73249"></scales>
<clustering>
<clus scale="   31.324">  4  5 -1 -1</clus>
<clus scale="   39.732">  1  6  2 -1</clus>
<clus scale="  231.818">  1  3  2 -1</clus>
<clus scale="   39.732">  1  3  2 -1</clus>
</clustering>
</event>
<event>
 6    0  0.1704145E+002  0.1389784E+03  0.7546771E-02  0.1214710E+00
         21   -1    0    0  504  501  0.00000000000E+00  0.00000000000E+00  0.17735252708E+04  0.17735252708E+04  0.00000000000E+00 0.  1.
         21   -1    0    0  506  502 -0.00000000000E+00 -0.00000000000E+00 -0.50950021210E+02  0.50950021210E+02  0.00000000000E+00 0.  1.
         21    1    1    2  503  502 -0.13746328817E+03 -0.93807957203E+01  0.77618471039E+03  0.78831900875E+03  0.00000000000E+00 0.  1.
         21    1    1    2  504  505 -0.23100924726E+02  0.24000718445E+02  0.55243548035E+03  0.55343892812E+03  0.00000000000E+00 0.  1.
         21    1    1    2  505  503  0.26032964196E+02 -0.51567995891E+02  0.31930491244E+03  0.32448821324E+03  0.00000000000E+00 0.  1.
         21    1    1    2  506  501  0.13453124870E+03  0.36948073166E+02  0.74650146425E+02  0.15822914191E+03  0.00000000000E+00 0.  1.
<scales pt_clust_3="138.97839" pt_clust_4="33.31197" pt_clust_5="49.43836" pt_clust_6="14000.00000"></scales>
<clustering>
<clus scale="   33.312">  1  4  2 -1</clus>
<clus scale="   49.438">  1  5  2 -1</clus>
<clus scale="  138.978">  1  3  2 -1</clus>
<clus scale="   33.312">  1  3  2 -1</clus>
</clustering>
</event>
<event>
 6    0  0.1704145E+002  0.2142845E+03  0.7546771E-02  0.1138217E+00
         21   -1    0    0  505  501  0.00000000000E+00  0.00000000000E+00  0.44719321688E+03  0.44719321688E+03  0.00000000000E+00 0.  1.
         21   -1    0    0  503  502 -0.00000000000E+00 -0.00000000000E+00 -0.16591475620E+03  0.16591475620E+03  0.00000000000E+00 0.  1.
         21    1    1    2  503  506  0.68888315656E+02  0.23035085048E+03  0.99490898490E+02  0.26020290781E+03  0.00000000000E+00 0.  1.
         21    1    1    2  504  502 -0.75575093709E+01 -0.14048338761E+03  0.22677009728E+02  0.14250243827E+03  0.00000000000E+00 0.  1.
         21    1    1    2  505  504  0.19124535821E+02 -0.36167289892E+02  0.45384431689E+02  0.61102924383E+02  0.00000000000E+00 0.  1.
         21    1    1    2  506  501 -0.80455342107E+02 -0.53700172980E+02  0.11372612078E+03  0.14929970261E+03  0.00000000000E+00 0.  1.
<scales pt_clust_3="201.08290" pt_clust_4="39.93291" pt_clust_5="39.93291" pt_clust_6="96.73040"></scales>
<clustering>
<clus scale="   39.933">  4  5 -1 -1</clus>
<clus scale="   96.730">  1  6  2 -1</clus>
<clus scale="  201.083">  1  3  2 -1</clus>
<clus scale="   96.730">  1  3  2 -1</clus>
</clustering>
</event>
<event>
 6    0  0.1704145E+002  0.1901532E+03  0.7546771E-02  0.1158323E+00
         21   -1    0    0  505  501  0.00000000000E+00  0.00000000000E+00  0.84876050861E+03  0.84876050861E+03  0.00000000000E+00 0.  1.
         21   -1    0    0  504  502 -0.00000000000E+00 -0.00000000000E+00 -0.27379009464E+03  0.27379009464E+03  0.00000000000E+00 0. -1.
         21    1    1    2  503  501  0.12411695442E+03 -0.22111611302E+03  0.17613482413E+03  0.30874071659E+03  0.00000000000E+00 0. -1.
         21    1    1    2  504  503 -0.37916467664E+02  0.77459865604E+02 -0.13046234475E+03  0.15639089711E+03  0.00000000000E+00 0. -1.
         21    1    1    2  505  506 -0.57266876455E+02  0.97611074960E+01  0.51658893889E+03  0.51984507898E+03  0.00000000000E+00 0.  1.
         21    1    1    2  506  502 -0.28933610304E+02  0.13389513992E+03  0.12708995706E+02  0.13757391057E+03  0.00000000000E+00 0. -1.
<scales pt_clust_3="14000.00000" pt_clust_4="87.59290" pt_clust_5="58.09281" pt_clust_6="190.15316"></scales>
<clustering>
<clus scale="   58.093">  1  5  2 -1</clus>
<clus scale="   87.593">  2  4  1 -1</clus>
<clus scale="  190.153">  2  6  1 -1</clus>
<clus scale="   58.093">  1  3  2 -1</clus>
</clustering>
</event>
<event>
 6    0  0.1704145E+002  0.8854119E+02  0.7546771E-02  0.1306423E+00
         21   -1    0    0  506  501  0.00000000000E+00  0.00000000000E+00  0.30665858910E+02  0.30665858910E+02  0.00000000000E+00 0.  1.
         21   -1    0    0  503  502 -0.00000000000E+00 -0.00000000000E+00 -0.10823491597E+04  0.10823491597E+04  0.00000000000E+00 0.  1.
         21    1    1    2  503  501  0.99446250016E+02  0.42652186254E+01 -0.13018103480E+03  0.16387449635E+03  0.00000000000E+00 0.  1.
         21    1    1    2  504  502 -0.31672846582E+02  0.21154191928E+01 -0.41620697326E+03  0.41741572658E+03  0.00000000000E+00 0.  1.
         21    1    1    2  505  504 -0.45745810394E+02 -0.73772970795E+02 -0.35627685557E+03  0.36669923398E+03  0.00000000000E+00 0.  1.
         21    1    1    2  506  505 -0.22027593040E+02  0.67392332976E+02 -0.14901843717E+03  0.16502556170E+03  0.00000000000E+00 0.  1.
<scales pt_clust_3="88.54119" pt_clust_4="31.74341" pt_clust_5="14000.00000" pt_clust_6="74.02372"></scales>
<clustering>
<clus scale="   31.743">  2  4  1 -1</clus>
<clus scale="   74.024">  1  6  2 -1</clus>
<clus scale="   88.541">  1  3  2 -1</clus>
<clus scale="   74.024">  1  3  2 -1</clus>
</clustering>
</event>
<event>
 6    0  0.1704145E+002  0.9109724E+02  0.7546771E-02  0.1300216E+00
         21   -1    0    0  506  501  0.00000000000E+00  0.00000000000E+00  0.71455343527E+02  0.71455343527E+02  0.00000000000E+00 0.  1.
         21   -1    0    0  503  502 -0.00000000000E+00 -0.00000000000E+00 -0.21620557003E+04  0.21620557003E+04  0.00000000000E+00 0. -1.
         21    1    1    2  503  505 -0.19181405725E+02  0.29077889058E+02 -0.16801701207E+03  0.17159011132E+03  0.00000000000E+00 0. -1.
         21    1    1    2  504  501 -0.31565512039E+02  0.34502042325E+02  0.53129110880E+02  0.70777644053E+02  0.00000000000E+00 0.  1.
         21    1    1    2  505  504 -0.58186028138E+02 -0.66353664298E+02 -0.32290875455E+03  0.33475137998E+03  0.00000000000E+00 0. -1.
         21    1    1    2  506  502  0.10893294590E+03  0.27737329142E+01 -0.16528037010E+04  0.16563919085E+04  0.00000000000E+00 0. -1.
<scales pt_clust_3="34.83461" pt_clust_4="46.91532" pt_clust_5="14000.00000" pt_clust_6="91.09724"></scales>
<clustering>
<clus scale="   34.835">  2  3  1 -1</clus>
<clus scale="   46.915">  1  4  2 -1</clus>
<clus scale="   91.097">  2  6  1 -1</clus>
<clus scale="   46.915">  1  3  2 -1</clus>
</clustering>
</event>
<event>
 6    0  0.1704145E+002  0.7163152E+02  0.7546771E-02  0.1354631E+00
         21   -1    0    0  505  501  0.00000000000E+00  0.00000000000E+00  0.29369665743E+03  0.29369665743E+03  0.00000000000E+00 0. -1.
         21   -1    0    0  503  502 -0.00000000000E+00 -0.00000000000E+00 -0.12873309162E+03  0.12873309162E+03  0.00000000000E+00 0. -1.
         21    1    1    2  503  501  0.73773303213E+02 -0.61942617398E+02 -0.35097016519E+01  0.96393496268E+02  0.00000000000E+00 0. -1.
         21    1    1    2  504  502 -0.15569648027E+02  0.33921926444E+02 -0.20506731179E+02  0.42586817878E+02  0.00000000000E+00 0.  1.
         21    1    1    2  505  506  0.67115800604E+01  0.48134685657E+02  0.20741552940E+03  0.21303331924E+03  0.00000000000E+00 0. -1.
         21    1    1    2  506  504 -0.64915235246E+02 -0.20113994703E+02 -0.18435530766E+02  0.70416115660E+02  0.00000000000E+00 0. -1.
<scales pt_clust_3="71.63152" pt_clust_4="37.32440" pt_clust_5="49.51263" pt_clust_6="14000.00000"></scales>
<clustering>
<clus scale="   37.324">  2  4  1 -1</clus>
<clus scale="   49.513">  1  5  2 -1</clus>
<clus scale="   71.632">  1  3  2 -1</clus>
<clus scale="   49.513">  1  3  2 -1</clus>
</clustering>
</event>
<event>
 6    0  0.1704145E+002  0.2637163E+03  0.7546771E-02  0.1104931E+00
         21   -1    0    0  505  501  0.00000000000E+00  0.00000000000E+00  0.13296623171E+04  0.13296623171E+04  0.00000000000E+00 0.  1.
         21   -1    0    0  504  502 -0.00000000000E+00 -0.00000000000E+00 -0.17053502493E+03  0.17053502493E+03  0.00000000000E+00 0.  1.
         21    1    1    2  503  501  0.50786630341E+02 -0.28048034322E+02  0.91467042065E+03  0.91650856650E+03  0.00000000000E+00 0.  1.
         21    1    1    2  504  506 -0.14878709644E+03 -0.77184677452E+02  0.65488698148E+02  0.17995511686E+03  0.00000000000E+00 0.  1.
         21    1    1    2  505  502  0.17112344396E+03  0.16189356489E+03  0.43279501539E+02  0.23951174226E+03  0.00000000000E+00 0.  1.
         21    1    1    2  506  503 -0.73122977862E+02 -0.56660853120E+02  0.13568867188E+03  0.16422191646E+03  0.00000000000E+00 0.  1.
<scales pt_clust_3="58.01702" pt_clust_4="76.75534" pt_clust_5="242.32104" pt_clust_6="76.75534"></scales>
<clustering>
<clus scale="   58.017">  1  3  2 -1</clus>
<clus scale="   76.755">  4  6 -1 -1</clus>
<clus scale="  242.321">  2  5  1 -1</clus>
<clus scale="   58.017">  1  3  2 -1</clus>
</clustering>
</event>
<event>
 6    0  0.1704145E+002  0.9930392E+02  0.7546771E-02  0.1281767E+00
         21   -1    0    0  503  501  0.00000000000E+00  0.00000000000E+00  0.72553115930E+02  0.72553115930E+02  0.00000000000E+00 0.  1.
         21   -1    0    0  505  502 -0.00000000000E+00 -0.00000000000E+00 -0.79194285810E+03  0.79194285810E+03  0.00000000000E+00 0.  1.
         21    1    1    2  503  504  0.22829286774E+02 -0.32948328074E+02  0.13517570986E+02  0.42302403984E+02  0.00000000000E+00 0.  1.
         21    1    1    2  504  502  0.63777629903E+02 -0.10645582370E+03 -0.54985711560E+03  0.56368721473E+03  0.00000000000E+00 0.  1.
         21    1    1    2  505  506 -0.25508939920E+02  0.29852555200E+02 -0.10165360253E+03  0.10897401514E+03  0.00000000000E+00 0.  1.
         21    1    1    2  506  501 -0.61097976757E+02  0.10955159658E+03 -0.81396595020E+02  0.14953234017E+03  0.00000000000E+00 0.  1.
<scales pt_clust_3="39.26574" pt_clust_4="14000.00000" pt_clust_5="39.26679" pt_clust_6="99.30392"></scales>
<clustering>
<clus scale="   39.267">  2  5  1 -1</clus>
<clus scale="   39.266">  1  3  2 -1</clus>
<clus scale="   99.304">  1  6  2 -1</clus>
<clus scale="   39.266">  1  3  2 -1</clus>
</clustering>
</event>
<event>
 6    0  0.1704145E+002  0.1422963E+03  0.7546771E-02  0.1210272E+00
         21   -1    0    0  505  501  0.00000000000E+00  0.00000000000E+00  0.35718032935E+03  0.35718032935E+03  0.00000000000E+00 0.  1.
         21   -1    0    0  506  502 -0.00000000000E+00 -0.00000000000E+00 -0.44098182948E+03  0.44098182948E+03  0.00000000000E+00 0. -1.
         21    1    1    2  503  502  0.43593482874E+02  0.50136675552E+01 -0.15199290992E+03  0.15820042123E+03  0.00000000000E+00 0. -1.
         21    1    1    2  504  501 -0.67326180955E+02 -0.88316366616E+02 -0.22597674829E+03  0.25178976553E+03  0.00000000000E+00 0. -1.
         21    1    1    2  505  503  0.44552842405E+02  0.11808890745E+03  0.31731060768E+03  0.34149080160E+03  0.00000000000E+00 0.  1.
         21    1    1    2  506  504 -0.20820144324E+02 -0.34786208386E+02 -0.23142449595E+02  0.46681170474E+02  0.00000000000E+00 0.  1.
<scales pt_clust_3="43.88085" pt_clust_4="38.69024" pt_clust_5="127.07375" pt_clust_6="38.69024"></scales>
<clustering>
<clus scale="   38.690">  4  6 -1 -1</clus>
<clus scale="   43.881">  2  3  1 -1</clus>
<clus scale="  127.074">  1  5  2 -1</clus>
<clus scale="  127.074">  1  3  2 -1</clus>
</clustering>
</event>
<event>
 6    0  0.1704145E+002  0.1744317E+03  0.7546771E-02  0.1173304E+00
         21   -1    0    0  506  501  0.00000000000E+00  0.00000000000E+00  0.33319955004E+03  0.33319955004E+03  0.00000000000E+00 0.  1.
         21   -1    0    0  505  502 -0.00000000000E+00 -0.00000000000E+00 -0.25115701082E+03  0.25115701082E+03  0.00000000000E+00 0.  1.
         21    1    1    2  503  504  0.83575674768E+02 -0.10587781746E+03 -0.11351404893E+03  0.17629646890E+03  0.00000000000E+00 0.  1.
         21    1    1    2  504  502  0.77229444360E+02  0.10302575470E+02 -0.33764338610E+02  0.84915020457E+02  0.00000000000E+00 0.  1.
         21    1    1    2  505  501 -0.15991031050E+02 -0.30171740606E+02  0.21509908140E+02  0.40357442355E+02  0.00000000000E+00 0.  1.
         21    1    1    2  506  503 -0.14481408808E+03  0.12574698260E+03  0.20781101862E+03  0.28278762915E+03  0.00000000000E+00 0.  1.
<scales pt_clust_3="174.43167" pt_clust_4="76.27114" pt_clust_5="34.14743" pt_clust_6="14000.00000"></scales>
<clustering>
<clus scale="   34.147">  1  5  2 -1</clus>
<clus scale="   76.271">  2  4  1 -1</clus>
<clus scale="  174.432">  2  3  1 -1</clus>
<clus scale="   34.147">  1  3  2 -1</clus>
</clustering>
</event>
<event>
 6    0  0.1704145E+002  0.7098442E+02  0.7546771E-02  0.1356777E+00
         21   -1    0    0  505  501  0.00000000000E+00  0.00000000000E+00  0.70816695381E+02  0.70816695381E+02  0.00000000000E+00 0. -1.
         21   -1    0    0  503  502 -0.00000000000E+00 -0.00000000000E+00 -0.11882418736E+04  0.11882418736E+04  0.00000000000E+00 0.  1.
         21    1    1    2  503  504  0.47779088940E+02 -0.34621632262E+02 -0.51062083927E+03  0.51401861859E+03  0.00000000000E+00 0.  1.
         21    1    1    2  504  506  0.86601812334E+02  0.18900047928E+02 -0.36576839509E+03  0.37635568889E+03  0.00000000000E+00 0. -1.
         21    1    1    2  505  502 -0.74827187414E+02  0.52943636904E+02 -0.27557609433E+03  0.29042093662E+03  0.00000000000E+00 0. -1.
         21    1    1    2  506  501 -0.59553713860E+02 -0.37222052570E+02  0.34540150445E+02  0.78263324903E+02  0.00000000000E+00 0. -1.
<scales pt_clust_3="59.00423" pt_clust_4="14000.00000" pt_clust_5="66.96113" pt_clust_6="70.98442"></scales>
<clustering>
<clus scale="   59.004">  2  3  1 -1</clus>
<clus scale="   66.961">  2  5  1 -1</clus>
<clus scale="   70.984">  1  6  2 -1</clus>
<clus scale="   70.984">  1  3  2 -1</clus>
</clustering>
</event>
<event>
 6    0  0.1704145E+002  0.9047291E+02  0.7546771E-02  0.1301710E+00
         21   -1    0    0  504  501  0.00000000000E+00  0.00000000000E+00  0.24910874604E+03  0.24910874604E+03  0.00000000000E+00 0. -1.
         21   -1    0    0  505  502 -0.00000000000E+00 -0.00000000000E+00 -0.10507579248E+03  0.10507579248E+03  0.00000000000E+00 0. -1.
         21    1    1    2  503  501 -0.30378881043E+01 -0.10077760734E+03  0.15659782084E+03  0.18624777152E+03  0.00000000000E+00 0. -1.
         21    1    1    2  504  506 -0.25642031106E+02  0.58880961791E+02 -0.21960515972E+02  0.67873011444E+02  0.00000000000E+00 0. -1.
         21    1    1    2  505  503 -0.29753483937E+02  0.53859699733E+01  0.74164082615E+01  0.31133287498E+02  0.00000000000E+00 0.  1.
         21    1    1    2  506  502  0.58433403146E+02  0.36510675575E+02  0.19792404389E+01  0.68930468060E+02  0.00000000000E+00 0. -1.
<scales pt_clust_3="14000.00000" pt_clust_4="90.47291" pt_clust_5="30.23704" pt_clust_6="61.30194"></scales>
<clustering>
<clus scale="   30.237">  2  5  1 -1</clus>
<clus scale="   61.302">  2  6  1 -1</clus>
<clus scale="   90.473">  2  4  1 -1</clus>
<clus scale="   90.473">  1  3  2 -1</clus>
</clustering>
</event>
<event>
 6    0  0.1704145E+002  0.1144736E+03  0.7546771E-02  0.1252503E+00
         21   -1    0    0  505  501  0.00000000000E+00  0.00000000000E+00  0.44851212717E+03  0.44851212717E+03  0.00000000000E+00 0. -1.
         21   -1    0    0  506  502 -0.00000000000E+00 -0.00000000000E+00 -0.12275844343E+03  0.12275844343E+03  0.00000000000E+00 0.  1.
         21    1    1    2  503  501  0.96624715527E+02  0.29582842444E+02  0.37786877993E+03  0.39114740835E+03  0.00000000000E+00 0. -1.
         21    1    1    2  504  502 -0.56783881740E+02 -0.50436008355E+02 -0.27425006731E+02  0.80748567532E+02  0.00000000000E+00 0.  1.
         21    1    1    2  505  504 -0.64225656111E+02  0.19555555657E+00 -0.18314519918E+02  0.66786187080E+02  0.00000000000E+00 0.  1.
         21    1    1    2  506  503  0.24384822325E+02  0.20657610354E+02 -0.63755695345E+01  0.32588407636E+02  0.00000000000E+00 0. -1.
<scales pt_clust_3="102.94278" pt_clust_4="48.19864" pt_clust_5="48.19864" pt_clust_6="31.95867"></scales>
<clustering>
<clus scale="   31.959">  2  6  1 -1</clus>
<clus scale="   48.199">  4  5 -1 -1</clus>
<clus scale="  102.943">  1  3  2 -1</clus>
<clus scale="  102.943">  1  3  2 -1</clus>
</clustering>
</event>
<event>
 6    0  0.1704145E+002  0.1103044E+03  0.7546771E-02  0.1260007E+00
         21   -1    0    0  504  501  0.00000000000E+00  0.00000000000E+00  0.64399834476E+03  0.64399834476E+03  0.00000000000E+00 0. -1.
         21   -1    0    0  506  502 -0.00000000000E+00 -0.00000000000E+00 -0.15723820651E+03  0.15723820651E+03  0.00000000000E+00 0. -1.
         21    1    1    2  503  505 -0.89872301267E+02  0.12708501156E+02 -0.78374695106E+02  0.11992134660E+03  0.00000000000E+00 0. -1.
         21    1    1    2  504  502  0.14978798664E+02 -0.32593613166E+02  0.51487649517E+02  0.62750984704E+02  0.00000000000E+00 0. -1.
         21    1    1    2  505  501  0.95822308185E+02  0.58102006400E+02  0.55031961751E+03  0.56161324710E+03  0.00000000000E+00 0. -1.
         21    1    1    2  506  503 -0.20928805582E+02 -0.38216894390E+02 -0.36672433677E+02  0.56950972877E+02  0.00000000000E+00 0. -1.
<scales pt_clust_3="110.30439" pt_clust_4="35.87071" pt_clust_5="14000.00000" pt_clust_6="43.94472"></scales>
<clustering>
<clus scale="   35.871">  1  4  2 -1</clus>
<clus scale="   43.945">  2  6  1 -1</clus>
<clus scale="  110.304">  2  3  1 -1</clus>
<clus scale="   35.871">  1  3  2 -1</clus>
</clustering>
</event>
<event>
 6    0  0.1704145E+002  0.8720584E+02  0.7546771E-02  0.1309763E+00
         21   -1    0    0  505  501  0.00000000000E+00  0.00000000000E+00  0.40339802192E+03  0.40339802192E+03  0.00000000000E+00 0.  1.
         21   -1    0    0  501  502 -0.00000000000E+00 -0.00000000000E+00 -0.20177890321E+04  0.20177890321E+04  0.00000000000E+00 0. -1.
         21    1    1    2  503  504 -0.80382101577E+02 -0.29188691973E+02 -0.66541482721E+02  0.10835603774E+03  0.00000000000E+00 0. -1.
         21    1    1    2  504  506 -0.24408421669E+02  0.60537128713E+02 -0.91377980516E+02  0.11229626140E+03  0.00000000000E+00 0. -1.
         21    1    1    2  505  503  0.39771408885E+02  0.31032204303E+02  0.36920535701E+03  0.37263569114E+03  0.00000000000E+00 0.  1.
         21    1    1    2  506  502  0.65019114361E+02 -0.62380641043E+02 -0.18256769039E+04  0.18278990637E+04  0.00000000000E+00 0. -1.
<scales pt_clust_3="55.54853" pt_clust_4="87.20584" pt_clust_5="50.44564" pt_clust_6="14000.00000"></scales>
<clustering>
<clus scale="   50.446">  1  5  2 -1</clus>
<clus scale="   55.549">  1  3  2 -1</clus>
<clus scale="   87.206">  1  4  2 -1</clus>
<clus scale="   50.446">  1  3  2 -1</clus>
</clustering>
</event>
<event>
 6    0  0.1704145E+002  0.8371249E+02  0.7546771E-02  0.1318834E+00
         21   -1    0    0  505  501  0.00000000000E+00  0.00000000000E+00  0.19245819718E+03  0.19245819718E+03  0.00000000000E+00 0.  1.
         21   -1    0    0  503  502 -0.00000000000E+00 -0.00000000000E+00 -0.10700507157E+04  0.10700507157E+04  0.00000000000E+00 0. -1.
         21    1    1    2  503  504 -0.67101913874E+02  0.49084415401E+02 -0.71361761588E+03  0.71844418599E+03  0.00000000000E+00 0. -1.
         21    1    1    2  504  506  0.20420593383E+02 -0.10567840107E+03 -0.31925456625E+03  0.33691008171E+03  0.00000000000E+00 0. -1.
         21    1    1    2  505  502  0.99050446138E+01  0.61411641260E+02  0.15815930677E+03  0.16995254017E+03  0.00000000000E+00 0.  1.
         21    1    1    2  506  501  0.36776275878E+02 -0.48176555948E+01 -0.28796431526E+01  0.37202105015E+02  0.00000000000E+00 0.  1.
<scales pt_clust_3="14000.00000" pt_clust_4="83.71249" pt_clust_5="72.12816" pt_clust_6="37.09049"></scales>
<clustering>
<clus scale="   37.090">  1  6  2 -1</clus>
<clus scale="   72.128">  1  5  2 -1</clus>
<clus scale="   83.712">  1  4  2 -1</clus>
<clus scale="   37.090">  1  3  2 -1</clus>
</clustering>
</event>
<event>
 6    0  0.1704145E+002  0.1142698E+03  0.7546771E-02  0.1252861E+00
         21   -1    0    0  506  501  0.00000000000E+00  0.00000000000E+00  0.60057291392E+03  0.60057291392E+03  0.00000000000E+00 0. -1.
         21   -1    0    0  505  502 -0.00000000000E+00 -0.00000000000E+00 -0.13386250051E+03  0.13386250051E+03  0.00000000000E+00 0.  1.
         21    1    1    2  503  504  0.95402583193E+02 -0.13057628366E+02  0.37447807236E+02  0.10331743708E+03  0.00000000000E+00 0.  1.
         21    1    1    2  504  501 -0.18492917010E+02 -0.54370120226E+02  0.35314875232E+03  0.35778784107E+03  0.00000000000E+00 0. -1.
         21    1    1    2  505  503  0.29829929869E+02  0.12246746402E+03 -0.86350300237E+01  0.12634345335E+03  0.00000000000E+00 0.  1.
         21    1    1    2  506  502 -0.10673959605E+03 -0.55039715430E+02  0.84748883881E+02  0.14698668293E+03  0.00000000000E+00 0. -1.
<scales pt_clust_3="94.54416" pt_clust_4="57.42907" pt_clust_5="14000.00000" pt_clust_6="114.26976"></scales>
<clustering>
<clus scale="   57.429">  1  4  2 -1</clus>
<clus scale="   94.544">  1  3  2 -1</clus>
<clus scale="  114.270">  1  6  2 -1</clus>
<clus scale="   57.429">  1  3  2 -1</clus>
</clustering>
</event>
<event>
 6    0  0.1704145E+002  0.9877841E+02  0.7546771E-02  0.1282886E+00
         21   -1    0    0  506  501  0.00000000000E+00  0.00000000000E+00  0.10793191936E+04  0.10793191936E+04  0.00000000000E+00 0.  1.
         21   -1    0    0  503  502 -0.00000000000E+00 -0.00000000000E+00 -0.61751626196E+03  0.61751626196E+03  0.00000000000E+00 0.  1.
         21    1    1    2  503  505 -0.83961060619E+02 -0.54786339593E+02 -0.22840377130E+03  0.24943793907E+03  0.00000000000E+00 0.  1.
         21    1    1    2  504  502  0.40927838181E+02  0.37626290804E+02 -0.66043457904E+02  0.86328234256E+02  0.00000000000E+00 0.  1.
         21    1    1    2  505  501 -0.48133983673E+02  0.55834682331E+02 -0.29555627246E+03  0.30461106731E+03  0.00000000000E+00 0.  1.
         21    1    1    2  506  504  0.91167206111E+02 -0.38674633541E+02  0.10518064333E+04  0.10564582150E+04  0.00000000000E+00 0.  1.
<scales pt_clust_3="76.15857" pt_clust_4="55.59519" pt_clust_5="14000.00000" pt_clust_6="98.77841"></scales>
<clustering>
<clus scale="   55.595">  2  4  1 -1</clus>
<clus scale="   76.159">  2  3  1 -1</clus>
<clus scale="   98.778">  1  6  2 -1</clus>
<clus scale="   98.778">  1  3  2 -1</clus>
</clustering>
</event>
<event>
 6    0  0.1704145E+002  0.1109389E+03  0.7546771E-02  0.1258841E+00
         21   -1    0    0  503  501  0.00000000000E+00  0.00000000000E+00  0.35099298421E+04  0.35099298421E+04  0.00000000000E+00 0.  1.
         21   -1    0    0  506  502 -0.00000000000E+00 -0.00000000000E+00 -0.57158786193E+02  0.57158786193E+02  0.00000000000E+00 0. -1.
         21    1    1    2  503  504 -0.64871552863E+02  0.18137677948E+02  0.16661923388E+03  0.17971995668E+03  0.00000000000E+00 0. -1.
         21    1    1    2  504  502 -0.38746961199E+02  0.13946376336E+02 -0.38221639480E+02  0.56184714465E+02  0.00000000000E+00 0. -1.
         21    1    1    2  505  501  0.11828324635E+03  0.20595420457E+02  0.29866407018E+04  0.29890529904E+04  0.00000000000E+00 0.  1.
         21    1    1    2  506  505 -0.14664732286E+02 -0.52679474740E+02  0.33773275975E+03  0.34213096679E+03  0.00000000000E+00 0.  1.
<scales pt_clust_3="14000.00000" pt_clust_4="41.18044" pt_clust_5="110.93892" pt_clust_6="54.76660"></scales>
<clustering>
<clus scale="   41.180">  2  4  1 -1</clus>
<clus scale="   54.767">  2  6  1 -1</clus>
<clus scale="  110.939">  1  5  2 -1</clus>
<clus scale="  110.939">  1  3  2 -1</clus>
</clustering>
</event>
<event>
 6    0  0.1704145E+002  0.1112334E+03  0.7546771E-02  0.1258303E+00
         21   -1    0    0  505  501  0.00000000000E+00  0.00000000000E+00  0.16866667210E+04  0.16866667210E+04  0.00000000000E+00 0. -1.
         21   -1    0    0  506  502 -0.00000000000E+00 -0.00000000000E+00 -0.14737091450E+03  0.14737091450E+03  0.00000000000E+00 0.  1.
         21    1    1    2  503  501 -0.40308197735E+02 -0.10394099923E+03  0.16206129764E+04  0.16244429511E+04  0.00000000000E+00 0. -1.
         21    1    1    2  504  503  0.34260196206E+02  0.94434853800E+02 -0.52379844577E+02  0.11329320710E+03  0.00000000000E+00 0.  1.
         21    1    1    2  505  502 -0.16835872857E+02 -0.26485832287E+02 -0.41322066927E+02  0.51888911551E+02  0.00000000000E+00 0.  1.
         21    1    1    2  506  504  0.22883874386E+02  0.35991977713E+02  0.12384741536E+02  0.44412565672E+02  0.00000000000E+00 0. -1.
<scales pt_clust_3="111.23344" pt_clust_4="14000.00000" pt_clust_5="31.38385" pt_clust_6="37.66323"></scales>
<clustering>
<clus scale="   31.384">  2  5  1 -1</clus>
<clus scale="   37.663">  2  6  1 -1</clus>
<clus scale="  111.233">  1  3  2 -1</clus>
<clus scale="  111.233">  1  3  2 -1</clus>
</clustering>
</event>
<event>
 6    0  0.1704145E+002  0.1350450E+03  0.7546771E-02  0.1220156E+00
         21   -1    0    0  503  501  0.00000000000E+00  0.00000000000E+00  0.49460950675E+03  0.49460950675E+03  0.00000000000E+00 0.  1.
         21   -1    0    0  505  502 -0.00000000000E+00 -0.00000000000E+00 -0.18435292085E+04  0.18435292085E+04  0.00000000000E+00 0. -1.
         21    1    1    2  503  506 -0.12903988163E+03 -0.43697148817E+02  0.46524948996E+03  0.48478636509E+03  0.00000000000E+00 0.  1.
         21    1    1    2  504  501 -0.10140583739E+02  0.65844314558E+02 -0.10092852196E+04  0.10114815666E+04  0.00000000000E+00 0. -1.
         21    1    1    2  505  504  0.61421320117E+02  0.18106127866E+02 -0.70952930003E+03  0.71241296875E+03  0.00000000000E+00 0. -1.
         21    1    1    2  506  502  0.77759145253E+02 -0.40253293607E+02 -0.95354672145E+02  0.12945781481E+03  0.00000000000E+00 0.  1.
<scales pt_clust_3="135.04495" pt_clust_4="14000.00000" pt_clust_5="64.03445" pt_clust_6="92.25280"></scales>
<clustering>
<clus scale="   64.034">  2  5  1 -1</clus>
<clus scale="   92.253">  2  6  1 -1</clus>
<clus scale="  135.045">  1  3  2 -1</clus>
<clus scale="  135.045">  1  3  2 -1</clus>
</clustering>
</event>
<event>
 6    0  0.1704145E+002  0.1041910E+03  0.7546771E-02  0.1271722E+00
         21   -1    0    0  505  501  0.00000000000E+00  0.00000000000E+00  0.12727080428E+03  0.12727080428E+03  0.00000000000E+00 0. -1.
         21   -1    0    0  503  502 -0.00000000000E+00 -0.00000000000E+00 -0.66466106130E+03  0.66466106130E+03  0.00000000000E+00 0. -1.
         21    1    1    2  503  504  0.29157957016E+02  0.17265976665E+02 -0.37939672850E+02  0.50869629284E+02  0.00000000000E+00 0. -1.
         21    1    1    2  504  501  0.76478513140E+02 -0.14590229972E+03  0.18139877213E+02  0.16572718299E+03  0.00000000000E+00 0. -1.
         21    1    1    2  505  506 -0.16637944728E+02  0.70308391387E+02 -0.33412449692E+02  0.79602028232E+02  0.00000000000E+00 0. -1.
         21    1    1    2  506  502 -0.88998525428E+02  0.58327931666E+02 -0.48417801170E+03  0.49573302508E+03  0.00000000000E+00 0. -1.
<scales pt_clust_3="33.88658" pt_clust_4="104.19098" pt_clust_5="73.22852" pt_clust_6="14000.00000"></scales>
<clustering>
<clus scale="   33.887">  2  3  1 -1</clus>
<clus scale="   73.229">  1  5  2 -1</clus>
<clus scale="  104.191">  1  4  2 -1</clus>
<clus scale="   73.229">  1  3  2 -1</clus>
</clustering>
</event>
<event>
 6    0  0.1704145E+002  0.1327486E+03  0.7546771E-02  0.1223433E+00
         21   -1    0    0  504  501  0.00000000000E+00  0.00000000000E+00  0.12132989170E+03  0.12132989170E+03  0.00000000000E+00 0.  1.
         21   -1    0    0  503  502 -0.00000000000E+00 -0.00000000000E+00 -0.79911901155E+03  0.79911901155E+03  0.00000000000E+00 0.  1.
         21    1    1    2  503  506 -0.10096306424E+03  0.59970095300E+02 -0.38983961287E+03  0.40714232946E+03  0.00000000000E+00 0.  1.
         21    1    1    2  504  505 -0.28237029894E+02 -0.17841000948E+02  0.54497397885E+02  0.63918679182E+02  0.00000000000E+00 0.  1.
         21    1    1    2  505  502 -0.78131998712E+02 -0.18343343942E+02 -0.72298197484E+02  0.10801905781E+03  0.00000000000E+00 0.  1.
         21    1    1    2  506  501  0.20733209285E+03 -0.23785750409E+02 -0.27014870737E+03  0.34136883681E+03  0.00000000000E+00 0.  1.
<scales pt_clust_3="14000.00000" pt_clust_4="33.40107" pt_clust_5="89.38729" pt_clust_6="132.74857"></scales>
<clustering>
<clus scale="   33.401">  1  4  2 -1</clus>
<clus scale="   89.387">  1  5  2 -1</clus>
<clus scale="  132.749">  1  6  2 -1</clus>
<clus scale="   33.401">  1  3  2 -1</clus>
</clustering>
</event>
<event>
 6    0  0.1704145E+002  0.1521876E+03  0.7546771E-02  0.1197810E+00
         21   -1    0    0  505  501  0.00000000000E+00  0.00000000000E+00  0.97287199980E+03  0.97287199980E+03  0.00000000000E+00 0.  1.
         21   -1    0    0  504  502 -0.00000000000E+00 -0.00000000000E+00 -0.32673688410E+03  0.32673688410E+03  0.00000000000E+00 0. -1.
         21    1    1    2  503  501 -0.23450602067E+02  0.43747209515E+02 -0.25132550238E+02  0.55636266581E+02  0.00000000000E+00 0. -1.
         21    1    1    2  504  503 -0.13855692750E+03  0.57253507511E+02 -0.21191892281E+02  0.15141031200E+03  0.00000000000E+00 0. -1.
         21    1    1    2  505  506  0.85455555088E+02 -0.56050979445E+00  0.87027694042E+03  0.87446264591E+03  0.00000000000E+00 0.  1.
         21    1    1    2  506  502  0.76551974478E+02 -0.10044020723E+03 -0.17781738220E+03  0.21809965941E+03  0.00000000000E+00 0. -1.
<scales pt_clust_3="37.62051" pt_clust_4="37.62051" pt_clust_5="85.45739" pt_clust_6="137.42752"></scales>
<clustering>
<clus scale="   37.621">  3  4 -1 -1</clus>
<clus scale="   85.457">  1  5  2 -1</clus>
<clus scale="  137.428">  2  6  1 -1</clus>
<clus scale="   85.457">  1  3  2 -1</clus>
</clustering>
</event>
<event>
 6    0  0.1704145E+002  0.1616207E+03  0.7546771E-02  0.1186879E+00
         21   -1    0    0  504  501  0.00000000000E+00  0.00000000000E+00  0.23524721913E+03  0.23524721913E+03  0.00000000000E+00 0.  1.
         21   -1    0    0  503  502 -0.00000000000E+00 -0.00000000000E+00 -0.41109417978E+03  0.41109417978E+03  0.00000000000E+00 0.  1.
         21    1    1    2  503  506  0.15751723572E+02  0.67376469523E+02 -0.71534887575E+02  0.99523593089E+02  0.00000000000E+00 0. -1.
         21    1    1    2  504  502  0.20114030764E+02 -0.15867877057E+03 -0.10479782787E+03  0.19122267436E+03  0.00000000000E+00 0. -1.
         21    1    1    2  505  501 -0.43718979444E+02  0.29728152100E+01  0.16390745169E+03  0.16966390162E+03  0.00000000000E+00 0.  1.
         21    1    1    2  506  505  0.78532251083E+01  0.88329485832E+02 -0.16342169691E+03  0.18593122984E+03  0.00000000000E+00 0.  1.
<scales pt_clust_3="33.96320" pt_clust_4="156.98071" pt_clust_5="43.81994" pt_clust_6="33.96320"></scales>
<clustering>
<clus scale="   33.963">  3  6 -1 -1</clus>
<clus scale="   43.820">  1  5  2 -1</clus>
<clus scale="  156.981">  1  4  2 -1</clus>
<clus scale="   43.820">  1  3  2 -1</clus>
</clustering>
</event>
<event>
 6    0  0.1704145E+002  0.9579048E+02  0.7546771E-02  0.1289406E+00
         21   -1    0    0  503  501  0.00000000000E+00  0.00000000000E+00  0.29900215882E+03  0.29900215882E+03  0.00000000000E+00 0.  1.
         21   -1    0    0  505  502 -0.00000000000E+00 -0.00000000000E+00 -0.10938762136E+03  0.10938762136E+03  0.00000000000E+00 0.  1.
         21    1    1    2  503  504  0.80197879681E+02 -0.41423017324E+02  0.21794384639E+03  0.23589634683E+03  0.00000000000E+00 0.  1.
         21    1    1    2  504  502 -0.52077865303E+02 -0.45231492786E+02  0.17364689002E+01  0.69000053032E+02  0.00000000000E+00 0.  1.
         21    1    1    2  505  506 -0.13542435288E+02  0.39932441825E+02  0.61438767268E+01  0.42611555767E+02  0.00000000000E+00 0. -1.
         21    1    1    2  506  501 -0.14577579090E+02  0.46722068284E+02 -0.36209654559E+02  0.60881824547E+02  0.00000000000E+00 0.  1.
<scales pt_clust_3="87.57070" pt_clust_4="68.97820" pt_clust_5="36.03459" pt_clust_6="36.03459"></scales>
<clustering>
<clus scale="   36.035">  5  6 -1 -1</clus>
<clus scale="   68.978">  2  4  1 -1</clus>
<clus scale="   87.571">  1  3  2 -1</clus>
<clus scale="   87.571">  1  3  2 -1</clus>
</clustering>
</event>
<event>
 6    0  0.1704145E+002  0.1332179E+03  0.7546771E-02  0.1222758E+00
         21   -1    0    0  502  501  0.00000000000E+00  0.00000000000E+00  0.37613946727E+03  0.37613946727E+03  0.00000000000E+00 0.  1.
         21   -1    0    0  505  502 -0.00000000000E+00 -0.00000000000E+00 -0.96213046870E+03  0.96213046870E+03  0.00000000000E+00 0.  1.
         21    1    1    2  503  506 -0.57212549235E+02  0.62722528886E+02 -0.84960092763E+02  0.12010665586E+03  0.00000000000E+00 0.  1.
         21    1    1    2  504  501 -0.94700455248E+02  0.72892718729E+02  0.21995352989E+03  0.25032195265E+03  0.00000000000E+00 0.  1.
         21    1    1    2  505  503 -0.77204178636E+02  0.32765170959E+02 -0.67454443013E+03  0.67973835396E+03  0.00000000000E+00 0.  1.
         21    1    1    2  506  504  0.22911718312E+03 -0.16838041857E+03 -0.46440008424E+02  0.28810297350E+03  0.00000000000E+00 0.  1.
<scales pt_clust_3="113.02654" pt_clust_4="14000.00000" pt_clust_5="83.86919" pt_clust_6="133.21791"></scales>
<clustering>
<clus scale="   83.869">  2  5  1 -1</clus>
<clus scale="  113.027">  2  3  1 -1</clus>
<clus scale="  133.218">  2  6  1 -1</clus>
<clus scale="  133.218">  1  3  2 -1</clus>
</clustering>
</event>
<event>
 6    0  0.1704145E+002  0.1863786E+03  0.7546771E-02  0.1161769E+00
         21   -1    0    0  504  501  0.00000000000E+00  0.00000000000E+00  0.20755310730E+03  0.20755310730E+03  0.00000000000E+00 0.  1.
         21   -1    0    0  505  502 -0.00000000000E+00 -0.00000000000E+00 -0.31503152706E+03  0.31503152706E+03  0.00000000000E+00 0. -1.
         21    1    1    2  503  502  0.28705777025E+02  0.72230788599E+02 -0.79192495698E+02  0.11096287591E+03  0.00000000000E+00 0.  1.
         21    1    1    2  504  506  0.36116815995E+02  0.47907212145E+01  0.27741013809E+02  0.45792349302E+02  0.00000000000E+00 0. -1.
         21    1    1    2  505  501 -0.15018706598E+03 -0.13468782528E+03  0.60194060842E+02  0.21052384670E+03  0.00000000000E+00 0.  1.
         21    1    1    2  506  503  0.85364472964E+02  0.57666315463E+02 -0.11622099872E+03  0.15530556245E+03  0.00000000000E+00 0. -1.
<scales pt_clust_3="45.86380" pt_clust_4="36.43316" pt_clust_5="178.63313" pt_clust_6="45.86380"></scales>
<clustering>
<clus scale="   36.433">  1  4  2 -1</clus>
<clus scale="   45.864">  3  6 -1 -1</clus>
<clus scale="  178.633">  1  5  2 -1</clus>
<clus scale="   36.433">  1  3  2 -1</clus>
</clustering>
</event>
<event>
 6    0  0.1704145E+002  0.8533737E+02  0.7546771E-02  0.1314553E+00
         21   -1    0    0  504  501  0.00000000000E+00  0.00000000000E+00  0.20972451981E+03  0.20972451981E+03  0.00000000000E+00 0. -1.
         21   -1    0    0  505  502 -0.00000000000E+00 -0.00000000000E+00 -0.19294693393E+03  0.19294693393E+03  0.00000000000E+00 0. -1.
         21    1    1    2  503  501 -0.11663268199E+02  0.70040507358E+02 -0.11435431897E+03  0.13460540391E+03  0.00000000000E+00 0. -1.
         21    1    1    2  504  506 -0.23756496822E+02 -0.84091708818E+02  0.14224350005E+03  0.16694010884E+03  0.00000000000E+00 0. -1.
         21    1    1    2  505  503 -0.29582345537E+02  0.14465629203E+02 -0.14616845647E+02  0.36028069229E+02  0.00000000000E+00 0. -1.
         21    1    1    2  506  502  0.65002110558E+02 -0.41442774309E+00  0.35052504416E+01  0.65097871762E+02  0.00000000000E+00 0.  1.
<scales pt_clust_3="14000.00000" pt_clust_4="85.33737" pt_clust_5="32.92977" pt_clust_6="59.60941"></scales>
<clustering>
<clus scale="   32.930">  2  5  1 -1</clus>
<clus scale="   59.609">  2  6  1 -1</clus>
<clus scale="   85.337">  1  4  2 -1</clus>
<clus scale="   85.337">  1  3  2 -1</clus>
</clustering>
</event>
<event>
 6    0  0.1704145E+002  0.2877536E+03  0.7546771E-02  0.1091528E+00
         21   -1    0    0  504  501  0.00000000000E+00  0.00000000000E+00  0.54350916097E+02  0.54350916097E+02  0.00000000000E+00 0.  1.
         21   -1    0    0  506  502 -0.00000000000E+00 -0.00000000000E+00 -0.22099755719E+04  0.22099755719E+04  0.00000000000E+00 0.  1.
         21    1    1    2  503  505  0.11908234419E+03 -0.28512981531E+03 -0.71163819274E+03  0.77582764429E+03  0.00000000000E+00 0.  1.
         21    1    1    2  504  503  0.19366497926E+02  0.26527419880E+02 -0.88379633734E+02  0.94285337706E+02  0.00000000000E+00 0. -1.
         21    1    1    2  505  502 -0.98778384345E+02  0.24774070455E+03 -0.95634001680E+03  0.99283374924E+03  0.00000000000E+00 0.  1.
         21    1    1    2  506  501 -0.39670457773E+02  0.10861690884E+02 -0.39926681254E+03  0.40137975677E+03  0.00000000000E+00 0. -1.
<scales pt_clust_3="287.75362" pt_clust_4="32.84456" pt_clust_5="14000.00000" pt_clust_6="40.89546"></scales>
<clustering>
<clus scale="   32.845">  1  4  2 -1</clus>
<clus scale="   40.895">  2  6  1 -1</clus>
<clus scale="  287.754">  1  3  2 -1</clus>
<clus scale="   32.845">  1  3  2 -1</clus>
</clustering>
</event>
<event>
 6    0  0.1704145E+002  0.1072162E+03  0.7546771E-02  0.1265814E+00
         21   -1    0    0  503  501  0.00000000000E+00  0.00000000000E+00  0.31656383719E+03  0.31656383719E+03  0.00000000000E+00 0. -1.
         21   -1    0    0  505  502 -0.00000000000E+00 -0.00000000000E+00 -0.14624644285E+04  0.14624644285E+04  0.00000000000E+00 0. -1.
         21    1    1    2  503  506 -0.75500303364E+02 -0.42154068616E+02  0.29628122911E+03  0.30864190907E+03  0.00000000000E+00 0. -1.
         21    1    1    2  504  502 -0.21992174095E+01  0.66399832259E+02 -0.67270526588E+03  0.67597792051E+03  0.00000000000E+00 0. -1.
         21    1    1    2  505  501  0.20672930332E+02 -0.68832411652E+02 -0.11277371777E+03  0.13372801637E+03  0.00000000000E+00 0. -1.
         21    1    1    2  506  504  0.57026590442E+02  0.44586648010E+02 -0.65670283678E+03  0.66068041974E+03  0.00000000000E+00 0. -1.
<scales pt_clust_3="86.54332" pt_clust_4="60.63204" pt_clust_5="71.86982" pt_clust_6="60.63204"></scales>
<clustering>
<clus scale="   60.632">  4  6 -1 -1</clus>
<clus scale="   71.870">  2  5  1 -1</clus>
<clus scale="   86.543">  1  3  2 -1</clus>
<clus scale="   86.543">  1  3  2 -1</clus>
</clustering>
</event>
<event>
 6    0  0.1704145E+002  0.8914752E+02  0.7546771E-02  0.1304929E+00
         21   -1    0    0  506  501  0.00000000000E+00  0.00000000000E+00  0.77910789312E+03  0.77910789312E+03  0.00000000000E+00 0.  1.
         21   -1    0    0  503  502 -0.00000000000E+00 -0.00000000000E+00 -0.36523882838E+03  0.36523882838E+03  0.00000000000E+00 0.  1.
         21    1    1    2  503  504  0.59476580241E+02 -0.87134576619E+02 -0.10367701984E+03  0.14791491636E+03  0.00000000000E+00 0.  1.
         21    1    1    2  504  501  0.48056482166E+02  0.13249195099E+03 -0.13333219289E+03  0.19401292796E+03  0.00000000000E+00 0.  1.
         21    1    1    2  505  502 -0.54555906908E+02  0.25386458533E+02 -0.60642323228E+02  0.85430150544E+02  0.00000000000E+00 0.  1.
         21    1    1    2  506  505 -0.52977155499E+02 -0.70743832902E+02  0.71152060070E+03  0.71698872663E+03  0.00000000000E+00 0.  1.
<scales pt_clust_3="84.27654" pt_clust_4="14000.00000" pt_clust_5="60.17324" pt_clust_6="89.14752"></scales>
<clustering>
<clus scale="   60.173">  2  5  1 -1</clus>
<clus scale="   84.277">  2  3  1 -1</clus>
<clus scale="   89.148">  1  6  2 -1</clus>
<clus scale="   89.148">  1  3  2 -1</clus>
</clustering>
</event>
<event>
 6    0  0.1704145E+002  0.1067094E+03  0.7546771E-02  0.1266788E+00
         21   -1    0    0  504  501  0.00000000000E+00  0.00000000000E+00  0.22334597587E+03  0.22334597587E+03  0.00000000000E+00 0.  1.
         21   -1    0    0  506  502 -0.00000000000E+00 -0.00000000000E+00 -0.31371453049E+03  0.31371453049E+03  0.00000000000E+00 0.  1.
         21    1    1    2  503  501  0.33359072433E+02 -0.41129685530E+02  0.54578927806E+02  0.76048261689E+02  0.00000000000E+00 0.  1.
         21    1    1    2  504  505  0.35406096448E+02  0.10963777678E+02  0.12479268474E+03  0.13018068309E+03  0.00000000000E+00 0.  1.
         21    1    1    2  505  502  0.40631493715E+02 -0.15128435733E+02 -0.87377453798E+01  0.44228226774E+02  0.00000000000E+00 0. -1.
         21    1    1    2  506  503 -0.10939666260E+03  0.45294343585E+02 -0.26100242178E+03  0.28660333481E+03  0.00000000000E+00 0.  1.
<scales pt_clust_3="14000.00000" pt_clust_4="37.06476" pt_clust_5="48.97018" pt_clust_6="106.70942"></scales>
<clustering>
<clus scale="   37.065">  1  4  2 -1</clus>
<clus scale="   48.970">  1  5  2 -1</clus>
<clus scale="  106.709">  2  6  1 -1</clus>
<clus scale="   37.065">  1  3  2 -1</clus>
</clustering>
</event>
<event>
 6    0  0.1704145E+002  0.1758568E+03  0.7546771E-02  0.1171874E+00
         21   -1    0    0  503  501  0.00000000000E+00  0.00000000000E+00  0.91447095113E+03  0.91447095113E+03  0.00000000000E+00 0.  1.
         21   -1    0    0  506  502 -0.00000000000E+00 -0.00000000000E+00 -0.42376378474E+03  0.42376378474E+03  0.00000000000E+00 0. -1.
         21    1    1    2  503  504 -0.50595832446E+02  0.47765601756E+01  0.77537176596E+03  0.77703547489E+03  0.00000000000E+00 0.  1.
         21    1    1    2  504  505 -0.44198134812E+02  0.36921229827E+02  0.54983683669E+01  0.57852263461E+02  0.00000000000E+00 0.  1.
         21    1    1    2  505  502 -0.97960778153E+02  0.11443621070E+03 -0.17182794497E+03  0.22850996269E+03  0.00000000000E+00 0. -1.
         21    1    1    2  506  501  0.19275474541E+03 -0.15613400071E+03 -0.11833502295E+03  0.27483703483E+03  0.00000000000E+00 0. -1.
<scales pt_clust_3="50.82080" pt_clust_4="67.50993" pt_clust_5="14000.00000" pt_clust_6="175.85676"></scales>
<clustering>
<clus scale="   50.821">  1  3  2 -1</clus>
<clus scale="   67.510">  1  4  2 -1</clus>
<clus scale="  175.857">  1  6  2 -1</clus>
<clus scale="   50.821">  1  3  2 -1</clus>
</clustering>
</event>
<event>
 6    0  0.1704145E+002  0.1250105E+03  0.7546771E-02  0.1235053E+00
         21   -1    0    0  503  501  0.00000000000E+00  0.00000000000E+00  0.27200911967E+04  0.27200911967E+04  0.00000000000E+00 0.  1.
         21   -1    0    0  504  502 -0.00000000000E+00 -0.00000000000E+00 -0.11416388832E+03  0.11416388832E+03  0.00000000000E+00 0. -1.
         21    1    1    2  503  505  0.93122139599E+02  0.63857895168E+02  0.25938613997E+04  0.25963178782E+04  0.00000000000E+00 0.  1.
         21    1    1    2  504  506 -0.39794267279E+02 -0.52838562340E+02  0.82392115350E+02  0.10565963302E+03  0.00000000000E+00 0. -1.
         21    1    1    2  505  502 -0.22603661822E+02  0.26083235577E+02 -0.76293084749E+02  0.83737061606E+02  0.00000000000E+00 0. -1.
         21    1    1    2  506  501 -0.30724210498E+02 -0.37102568406E+02  0.59668780783E+01  0.48540512224E+02  0.00000000000E+00 0. -1.
<scales pt_clust_3="112.78078" pt_clust_4="47.12867" pt_clust_5="34.51464" pt_clust_6="47.12867"></scales>
<clustering>
<clus scale="   34.515">  2  5  1 -1</clus>
<clus scale="   47.129">  4  6 -1 -1</clus>
<clus scale="  112.781">  1  3  2 -1</clus>
<clus scale="  112.781">  1  3  2 -1</clus>
</clustering>
</event>
<event>
 6    0  0.1704145E+002  0.1367859E+03  0.7546771E-02  0.1217720E+00
         21   -1    0    0  505  501  0.00000000000E+00  0.00000000000E+00  0.13986887565E+03  0.13986887565E+03  0.00000000000E+00 0.  1.
         21   -1    0    0  501  502 -0.00000000000E+00 -0.00000000000E+00 -0.27585761386E+03  0.27585761386E+03  0.00000000000E+00 0. -1.
         21    1    1    2  503  502  0.24061886925E+02  0.30857233723E+02 -0.10479645096E+03  0.11186348560E+03  0.00000000000E+00 0. -1.
         21    1    1    2  504  506 -0.43995272199E+02 -0.81152170721E+02  0.42732204171E+02  0.10172167941E+03  0.00000000000E+00 0.  1.
         21    1    1    2  505  504  0.62927369212E+01 -0.40095204776E+02  0.39385143097E+02  0.56554517775E+02  0.00000000000E+00 0.  1.
         21    1    1    2  506  503  0.13640648353E+02  0.90390141774E+02 -0.11330963452E+03  0.14558680673E+03  0.00000000000E+00 0. -1.
<scales pt_clust_3="33.28351" pt_clust_4="135.30741" pt_clust_5="30.99962" pt_clust_6="33.28351"></scales>
<clustering>
<clus scale="   31.000">  4  5 -1 -1</clus>
<clus scale="   33.284">  3  6 -1 -1</clus>
<clus scale="  135.307">  1  4  2 -1</clus>
<clus scale="  135.307">  1  3  2 -1</clus>
</clustering>
</event>
<event>
 6    0  0.1704145E+002  0.1069287E+03  0.7546771E-02  0.1266366E+00
         21   -1    0    0  505  501  0.00000000000E+00  0.00000000000E+00  0.45924585272E+03  0.45924585272E+03  0.00000000000E+00 0. -1.
         21   -1    0    0  503  502 -0.00000000000E+00 -0.00000000000E+00 -0.17434510380E+03  0.17434510380E+03  0.00000000000E+00 0. -1.
         21    1    1    2  503  504  0.38684335844E+02  0.12281237749E+03 -0.52774900944E+02  0.13915655958E+03  0.00000000000E+00 0. -1.
         21    1    1    2  504  501  0.61391489748E+02  0.37535954273E+02  0.23490564432E+03  0.24567971958E+03  0.00000000000E+00 0. -1.
         21    1    1    2  505  506 -0.68303295827E+02 -0.12531228620E+03  0.13095626153E+03  0.19369577106E+03  0.00000000000E+00 0. -1.
         21    1    1    2  506  502 -0.31772529765E+02 -0.35036045566E+02 -0.28186255990E+02  0.55058906303E+02  0.00000000000E+00 0. -1.
<scales pt_clust_3="106.92869" pt_clust_4="70.11740" pt_clust_5="14000.00000" pt_clust_6="47.29713"></scales>
<clustering>
<clus scale="   47.297">  2  6  1 -1</clus>
<clus scale="   70.117">  1  4  2 -1</clus>
<clus scale="  106.929">  2  3  1 -1</clus>
<clus scale="   70.117">  1  3  2 -1</clus>
</clustering>
</event>
<event>
 6    0  0.1704145E+002  0.1382785E+03  0.7546771E-02  0.1215664E+00
         21   -1    0    0  506  501  0.00000000000E+00  0.00000000000E+00  0.22261687581E+03  0.22261687581E+03  0.00000000000E+00 0.  1.
         21   -1    0    0  505  502 -0.00000000000E+00 -0.00000000000E+00 -0.39069551378E+03  0.39069551378E+03  0.00000000000E+00 0. -1.
         21    1    1    2  503  504 -0.60857392443E+01 -0.86641119350E+02 -0.16925111780E+03  0.19023580278E+03  0.00000000000E+00 0. -1.
         21    1    1    2  504  502  0.81881388322E+01 -0.46783487293E+02 -0.17338357046E+03  0.17977097320E+03  0.00000000000E+00 0. -1.
         21    1    1    2  505  501 -0.30924109872E+02  0.11121863754E+03  0.17158225165E+03  0.20680027802E+03  0.00000000000E+00 0.  1.
         21    1    1    2  506  503  0.28821710284E+02  0.22205969102E+02  0.29737986395E+01  0.36505335580E+02  0.00000000000E+00 0.  1.
<scales pt_clust_3="30.48896" pt_clust_4="30.48896" pt_clust_5="131.98865" pt_clust_6="36.38401"></scales>
<clustering>
<clus scale="   30.489">  3  4 -1 -1</clus>
<clus scale="   36.384">  1  6  2 -1</clus>
<clus scale="  131.989">  1  5  2 -1</clus>
<clus scale="   36.384">  1  3  2 -1</clus>
</clustering>
</event>
<event>
 6    0  0.1704145E+002  0.1063842E+03  0.7546771E-02  0.1267416E+00
         21   -1    0    0  503  501  0.00000000000E+00  0.00000000000E+00  0.11639866216E+04  0.11639866216E+04  0.00000000000E+00 0.  1.
         21   -1    0    0  505  502 -0.00000000000E+00 -0.00000000000E+00 -0.27899196223E+02  0.27899196223E+02  0.00000000000E+00 0. -1.
         21    1    1    2  503  502 -0.66747776897E+02 -0.17702265988E+02  0.28363244185E+03  0.29191779324E+03  0.00000000000E+00 0. -1.
         21    1    1    2  504  506  0.59307067858E+02 -0.72963950813E+02  0.14661904141E+03  0.17417867183E+03  0.00000000000E+00 0. -1.
         21    1    1    2  505  504 -0.76830476157E+01 -0.36582161991E+02  0.10541901989E+03  0.11185013881E+03  0.00000000000E+00 0. -1.
         21    1    1    2  506  501  0.15123756655E+02  0.12724837879E+03  0.60041692223E+03  0.61393921395E+03  0.00000000000E+00 0.  1.
<scales pt_clust_3="72.09369" pt_clust_4="106.38419" pt_clust_5="37.38026" pt_clust_6="14000.00000"></scales>
<clustering>
<clus scale="   37.380">  2  5  1 -1</clus>
<clus scale="   72.094">  1  3  2 -1</clus>
<clus scale="  106.384">  2  4  1 -1</clus>
<clus scale="   72.094">  1  3  2 -1</clus>
</clustering>
</event>
<event>
 6    0  0.1704145E+002  0.2445340E+03  0.7546771E-02  0.1116809E+00
         21   -1    0    0  506  501  0.00000000000E+00  0.00000000000E+00  0.73157437526E+03  0.73157437526E+03  0.00000000000E+00 0.  1.
         21   -1    0    0  503  502 -0.00000000000E+00 -0.00000000000E+00 -0.12693654675E+03  0.12693654675E+03  0.00000000000E+00 0.  1.
         21    1    1    2  503  501 -0.17839548586E+03 -0.13758208994E+03  0.56825712192E+03  0.61128547951E+03  0.00000000000E+00 0.  1.
         21    1    1    2  504  505  0.58045661454E+02  0.18031124867E+02  0.11867608273E+02  0.61929479279E+02  0.00000000000E+00 0.  1.
         21    1    1    2  505  502  0.65956246098E+02  0.51872061423E+02 -0.22066042071E+02  0.86763168270E+02  0.00000000000E+00 0.  1.
         21    1    1    2  506  504  0.54393578307E+02  0.67678903654E+02  0.46579140388E+02  0.98532794948E+02  0.00000000000E+00 0.  1.
<scales pt_clust_3="225.28600" pt_clust_4="35.52824" pt_clust_5="63.25167" pt_clust_6="63.25167"></scales>
<clustering>
<clus scale="   35.528">  4  5 -1 -1</clus>
<clus scale="   63.252">  4  6 -1 -1</clus>
<clus scale="  225.286">  1  3  2 -1</clus>
<clus scale="  225.286">  1  3  2 -1</clus>
</clustering>
</event>
<event>
 6    0  0.1704145E+002  0.8455203E+02  0.7546771E-02  0.1316608E+00
         21   -1    0    0  505  501  0.00000000000E+00  0.00000000000E+00  0.28957102880E+03  0.28957102880E+03  0.00000000000E+00 0. -1.
         21   -1    0    0  504  502 -0.00000000000E+00 -0.00000000000E+00 -0.22374782846E+04  0.22374782846E+04  0.00000000000E+00 0.  1.
         21    1    1    2  503  502  0.37519281114E+02  0.36740068835E+02 -0.10635773836E+04  0.10648729407E+04  0.00000000000E+00 0.  1.
         21    1    1    2  504  501  0.50944431816E+02  0.53070307311E+02  0.28041370414E+03  0.28990280806E+03  0.00000000000E+00 0. -1.
         21    1    1    2  505  506 -0.65099917264E+02 -0.44083057335E+02 -0.81448978331E+03  0.81827557845E+03  0.00000000000E+00 0.  1.
         21    1    1    2  506  503 -0.23363795667E+02 -0.45727318811E+02 -0.35025379309E+03  0.35399798616E+03  0.00000000000E+00 0.  1.
<scales pt_clust_3="52.51218" pt_clust_4="73.77714" pt_clust_5="33.38014" pt_clust_6="33.38014"></scales>
<clustering>
<clus scale="   33.380">  5  6 -1 -1</clus>
<clus scale="   52.512">  2  3  1 -1</clus>
<clus scale="   73.777">  1  4  2 -1</clus>
<clus scale="   73.777">  1  3  2 -1</clus>
</clustering>
</event>
<event>
 6    0  0.1704145E+002  0.2355389E+03  0.7546771E-02  0.1122801E+00
         21   -1    0    0  506  501  0.00000000000E+00  0.00000000000E+00  0.15551916458E+03  0.15551916458E+03  0.00000000000E+00 0. -1.
         21   -1    0    0  505  502 -0.00000000000E+00 -0.00000000000E+00 -0.54601046489E+03  0.54601046489E+03  0.00000000000E+00 0. -1.
         21    1    1    2  503  501  0.66680969503E+02  0.20906062068E+01 -0.33649082660E+02  0.74719362230E+02  0.00000000000E+00 0. -1.
         21    1    1    2  504  502 -0.20752111292E+03 -0.89194402265E+02 -0.17478722879E+03  0.28560677347E+03  0.00000000000E+00 0. -1.
         21    1    1    2  505  503  0.17331190381E+03  0.12976557333E+02 -0.19279370283E+03  0.25956659818E+03  0.00000000000E+00 0. -1.
         21    1    1    2  506  504 -0.32471760390E+02  0.74127238725E+02  0.10738713959E+02  0.81636895589E+02  0.00000000000E+00 0. -1.
<scales pt_clust_3="31.87699" pt_clust_4="229.85085" pt_clust_5="31.87699" pt_clust_6="80.92752"></scales>
<clustering>
<clus scale="   31.877">  3  5 -1 -1</clus>
<clus scale="   80.928">  1  6  2 -1</clus>
<clus scale="  229.851">  1  4  2 -1</clus>
<clus scale="   80.928">  1  3  2 -1</clus>
</clustering>
</event>
<event>
 6    0  0.1704145E+002  0.1597978E+03  0.7546771E-02  0.1188925E+00
         21   -1    0    0  502  501  0.00000000000E+00  0.00000000000E+00  0.26563629854E+02  0.26563629854E+02  0.00000000000E+00 0. -1.
         21   -1    0    0  503  502 -0.00000000000E+00 -0.00000000000E+00 -0.12272881129E+04  0.12272881129E+04  0.00000000000E+00 0. -1.
         21    1    1    2  503  506  0.17546270871E+01  0.70760222862E+02 -0.46826395355E+03  0.47358338025E+03  0.00000000000E+00 0.  1.
         21    1    1    2  504  501 -0.30793640065E+02  0.11334581535E+01 -0.51545944508E+02  0.60054287033E+02  0.00000000000E+00 0. -1.
         21    1    1    2  505  504  0.78811025605E+02 -0.13225842483E+03 -0.39995091521E+03  0.42856061796E+03  0.00000000000E+00 0. -1.
         21    1    1    2  506  505 -0.49772012627E+02  0.60364743818E+02 -0.28096366975E+03  0.29165345747E+03  0.00000000000E+00 0. -1.
<scales pt_clust_3="63.55740" pt_clust_4="30.81449" pt_clust_5="144.18523" pt_clust_6="63.55740"></scales>
<clustering>
<clus scale="   30.814">  1  4  2 -1</clus>
<clus scale="   63.557">  3  6 -1 -1</clus>
<clus scale="  144.185">  1  5  2 -1</clus>
<clus scale="   30.814">  1  3  2 -1</clus>
</clustering>
</event>
<event>
 6    0  0.1704145E+002  0.2108770E+03  0.7546771E-02  0.1140873E+00
         21   -1    0    0  503  501  0.00000000000E+00  0.00000000000E+00  0.15012803216E+04  0.15012803216E+04  0.00000000000E+00 0. -1.
         21   -1    0    0  506  502 -0.00000000000E+00 -0.00000000000E+00 -0.38228922526E+02  0.38228922526E+02  0.00000000000E+00 0. -1.
         21    1    1    2  503  505 -0.42471833045E+02 -0.35024329314E+02  0.35900776587E+03  0.36320398704E+03  0.00000000000E+00 0. -1.
         21    1    1    2  504  502  0.17917625486E+03  0.67517784918E+02  0.42542075703E+03  0.46652502838E+03  0.00000000000E+00 0. -1.
         21    1    1    2  505  504 -0.13163696012E+03 -0.83747056783E+02  0.52995524894E+03  0.55244404664E+03  0.00000000000E+00 0. -1.
         21    1    1    2  506  501 -0.50674616961E+01  0.51253601179E+02  0.14866762725E+03  0.15733618209E+03  0.00000000000E+00 0. -1.
<scales pt_clust_3="36.30534" pt_clust_4="201.82557" pt_clust_5="36.30534" pt_clust_6="51.50350"></scales>
<clustering>
<clus scale="   36.305">  3  5 -1 -1</clus>
<clus scale="   51.504">  2  6  1 -1</clus>
<clus scale="  201.826">  2  4  1 -1</clus>
<clus scale="  210.877">  1  3  2 -1</clus>
</clustering>
</event>
<event>
 6    0  0.1704145E+002  0.1450465E+03  0.7546771E-02  0.1206695E+00
         21   -1    0    0  504  501  0.00000000000E+00  0.00000000000E+00  0.21581531031E+04  0.21581531031E+04  0.00000000000E+00 0.  1.
         21   -1    0    0  505  502 -0.00000000000E+00 -0.00000000000E+00 -0.13209307073E+02  0.13209307073E+02  0.00000000000E+00 0.  1.
         21    1    1    2  503  506 -0.20169235953E+02 -0.41193491276E+02  0.41079887092E+03  0.41335144146E+03  0.00000000000E+00 0.  1.
         21    1    1    2  504  503  0.33103844444E+02 -0.30972004751E+02  0.42533625760E+03  0.42774532332E+03  0.00000000000E+00 0.  1.
         21    1    1    2  505  501  0.26826074906E+02  0.14638676365E+03  0.95817069434E+03  0.96965963222E+03  0.00000000000E+00 0.  1.
         21    1    1    2  506  502 -0.39760683397E+02 -0.74221267621E+02  0.35063797313E+03  0.36060601314E+03  0.00000000000E+00 0.  1.
<scales pt_clust_3="35.48744" pt_clust_4="45.33354" pt_clust_5="136.84504" pt_clust_6="35.48744"></scales>
<clustering>
<clus scale="   35.487">  3  6 -1 -1</clus>
<clus scale="   45.334">  1  4  2 -1</clus>
<clus scale="  136.845">  1  5  2 -1</clus>
<clus scale="   45.334">  1  3  2 -1</clus>
</clustering>
</event>
<event>
 6    0  0.1704145E+002  0.9322362E+02  0.7546771E-02  0.1295228E+00
         21   -1    0    0  504  501  0.00000000000E+00  0.00000000000E+00  0.42912622913E+02  0.42912622913E+02  0.00000000000E+00 0.  1.
         21   -1    0    0  503  502 -0.00000000000E+00 -0.00000000000E+00 -0.43022911788E+03  0.43022911788E+03  0.00000000000E+00 0.  1.
         21    1    1    2  503  505 -0.14052412338E+02  0.65033735011E+02 -0.16418323839E+03  0.17715245623E+03  0.00000000000E+00 0.  1.
         21    1    1    2  504  502  0.92324281823E+02 -0.52957618492E+02 -0.13294369569E+03  0.17030064179E+03  0.00000000000E+00 0.  1.
         21    1    1    2  505  506 -0.38893973296E+02  0.99523764329E+01 -0.28392916590E+02  0.49172641458E+02  0.00000000000E+00 0.  1.
         21    1    1    2  506  501 -0.39377896189E+02 -0.22028492952E+02 -0.61796644296E+02  0.76516001308E+02  0.00000000000E+00 0.  1.
<scales pt_clust_3="66.53463" pt_clust_4="85.43701" pt_clust_5="35.18261" pt_clust_6="35.18261"></scales>
<clustering>
<clus scale="   35.183">  5  6 -1 -1</clus>
<clus scale="   66.535">  2  3  1 -1</clus>
<clus scale="   85.437">  2  4  1 -1</clus>
<clus scale="   93.224">  1  3  2 -1</clus>
</clustering>
</event>
<event>
 6    0  0.1704145E+002  0.9250143E+02  0.7546771E-02  0.1296905E+00
         21   -1    0    0  506  501  0.00000000000E+00  0.00000000000E+00  0.12978516187E+02  0.12978516187E+02  0.00000000000E+00 0. -1.
         21   -1    0    0  504  502 -0.00000000000E+00 -0.00000000000E+00 -0.26094186983E+04  0.26094186983E+04  0.00000000000E+00 0. -1.
         21    1    1    2  503  505 -0.22415862500E+02  0.77058388153E+02 -0.79937377954E+03  0.80339212437E+03  0.00000000000E+00 0. -1.
         21    1    1    2  504  503  0.46254441142E+02  0.44255435973E+02 -0.95695458053E+03  0.95909336675E+03  0.00000000000E+00 0. -1.
         21    1    1    2  505  501  0.92639764916E+01 -0.96308277175E+02 -0.24584396993E+03  0.26419758338E+03  0.00000000000E+00 0. -1.
         21    1    1    2  506  502 -0.33102555134E+02 -0.25005546951E+02 -0.59426785210E+03  0.59571413999E+03  0.00000000000E+00 0. -1.
<scales pt_clust_3="14000.00000" pt_clust_4="44.47844" pt_clust_5="92.50143" pt_clust_6="41.48562"></scales>
<clustering>
<clus scale="   41.486">  2  6  1 -1</clus>
<clus scale="   44.478">  2  4  1 -1</clus>
<clus scale="   92.501">  1  5  2 -1</clus>
<clus scale="   92.501">  1  3  2 -1</clus>
</clustering>
</event>
<event>
 6    0  0.1704145E+002  0.1045613E+03  0.7546771E-02  0.1270986E+00
         21   -1    0    0  504  501  0.00000000000E+00  0.00000000000E+00  0.28511979933E+03  0.28511979933E+03  0.00000000000E+00 0.  1.
         21   -1    0    0  503  502 -0.00000000000E+00 -0.00000000000E+00 -0.47551504178E+03  0.47551504178E+03  0.00000000000E+00 0.  1.
         21    1    1    2  503  506  0.88984091090E+01 -0.35201767981E+02 -0.14840471259E+03  0.15278188660E+03  0.00000000000E+00 0.  1.
         21    1    1    2  504  505  0.10090425637E+03 -0.30842145768E+02  0.24858899843E+03  0.27005443350E+03  0.00000000000E+00 0.  1.
         21    1    1    2  505  502 -0.58120842981E+02  0.94657119138E+02 -0.21370258124E+03  0.24084600022E+03  0.00000000000E+00 0.  1.
         21    1    1    2  506  501 -0.51681822499E+02 -0.28613205389E+02 -0.76876947053E+02  0.96952520791E+02  0.00000000000E+00 0.  1.
<scales pt_clust_3="36.30904" pt_clust_4="104.56133" pt_clust_5="14000.00000" pt_clust_6="62.26463"></scales>
<clustering>
<clus scale="   36.309">  2  3  1 -1</clus>
<clus scale="   62.265">  2  6  1 -1</clus>
<clus scale="  104.561">  1  4  2 -1</clus>
<clus scale="  104.561">  1  3  2 -1</clus>
</clustering>
</event>
<event>
 6    0  0.1704145E+002  0.1302458E+03  0.7546771E-02  0.1227091E+00
         21   -1    0    0  504  501  0.00000000000E+00  0.00000000000E+00  0.86189024304E+03  0.86189024304E+03  0.00000000000E+00 0.  1.
         21   -1    0    0  503  502 -0.00000000000E+00 -0.00000000000E+00 -0.69888927436E+02  0.69888927436E+02  0.00000000000E+00 0.  1.
         21    1    1    2  503  501  0.17856117741E+02  0.12374889567E+03  0.23096057827E+03  0.26263171712E+03  0.00000000000E+00 0.  1.
         21    1    1    2  504  505  0.71940770420E+02 -0.54960506315E+02  0.22886791436E+03  0.24612324947E+03  0.00000000000E+00 0.  1.
         21    1    1    2  505  506 -0.21977212487E+02 -0.15159839477E+03  0.21894687985E+03  0.26721303741E+03  0.00000000000E+00 0.  1.
         21    1    1    2  506  502 -0.67819675674E+02  0.82810005421E+02  0.11322594312E+03  0.15581116649E+03  0.00000000000E+00 0.  1.
<scales pt_clust_3="14000.00000" pt_clust_4="90.53249" pt_clust_5="130.24582" pt_clust_6="88.17103"></scales>
<clustering>
<clus scale="   90.532">  1  4  2 -1</clus>
<clus scale="   88.171">  2  6  1 -1</clus>
<clus scale="  130.246">  2  5  1 -1</clus>
<clus scale="   90.532">  1  3  2 -1</clus>
</clustering>
</event>
<event>
 6    0  0.2094323E+002  0.1016810E+03  0.7546771E-02  0.1276800E+00
         21   -1    0    0  505  501  0.00000000000E+00  0.00000000000E+00  0.82013182568E+03  0.82013182568E+03  0.00000000000E+00 0. -1.
         21   -1    0    0  503  502 -0.00000000000E+00 -0.00000000000E+00 -0.10888110908E+03  0.10888110908E+03  0.00000000000E+00 0. -1.
         21    1    1    2  503  504 -0.34804070604E+02  0.82848321638E+00  0.36764757727E+02  0.50632569812E+02  0.00000000000E+00 0. -1.
         21    1    1    2  504  506 -0.55380562693E+02  0.41993519196E+02  0.18545280084E+03  0.19804848830E+03  0.00000000000E+00 0. -1.
         21    1    1    2  505  502  0.12615431691E+03 -0.62807342100E+02 -0.42511530261E+02  0.14719682097E+03  0.00000000000E+00 0. -1.
         21    1    1    2  506  501 -0.35969683615E+02  0.19985339687E+02  0.53154468830E+03  0.53313505568E+03  0.00000000000E+00 0. -1.
<scales pt_clust_3="34.81393" pt_clust_4="14000.00000" pt_clust_5="101.68098" pt_clust_6="41.38953"></scales>
<clustering>
<clus scale="   34.814">  2  3  1 -1</clus>
<clus scale="   41.390">  1  6  2 -1</clus>
<clus scale="  101.681">  2  5  1 -1</clus>
<clus scale="   41.390">  1  3  2 -1</clus>
</clustering>
</event>
<event>
 6    0  0.1704145E+002  0.1025760E+03  0.7546771E-02  0.1274970E+00
         21   -1    0    0  505  501  0.00000000000E+00  0.00000000000E+00  0.36089956290E+03  0.36089956290E+03  0.00000000000E+00 0. -1.
         21   -1    0    0  501  502 -0.00000000000E+00 -0.00000000000E+00 -0.40640167362E+03  0.40640167362E+03  0.00000000000E+00 0.  1.
         21    1    1    2  503  504  0.42830213805E+02  0.58022818293E+02 -0.21559233693E+03  0.22733484203E+03  0.00000000000E+00 0.  1.
         21    1    1    2  504  502 -0.92031610270E+01  0.34494308159E+02 -0.12734235196E+03  0.13225214581E+03  0.00000000000E+00 0. -1.
         21    1    1    2  505  506  0.42211697379E+02 -0.53473219148E+02  0.31358441851E+03  0.32089936131E+03  0.00000000000E+00 0. -1.
         21    1    1    2  506  503 -0.75838750156E+02 -0.39043907303E+02 -0.16151840325E+02  0.86814887368E+02  0.00000000000E+00 0.  1.
<scales pt_clust_3="31.53130" pt_clust_4="31.53130" pt_clust_5="68.12645" pt_clust_6="92.26824"></scales>
<clustering>
<clus scale="   31.531">  3  4 -1 -1</clus>
<clus scale="   68.126">  1  5  2 -1</clus>
<clus scale="   92.268">  1  6  2 -1</clus>
<clus scale="   68.126">  1  3  2 -1</clus>
</clustering>
</event>
<event>
 6    0  0.1704145E+002  0.1291351E+03  0.7546771E-02  0.1228745E+00
         21   -1    0    0  506  501  0.00000000000E+00  0.00000000000E+00  0.11795329111E+03  0.11795329111E+03  0.00000000000E+00 0.  1.
         21   -1    0    0  505  502 -0.00000000000E+00 -0.00000000000E+00 -0.31107407719E+03  0.31107407719E+03  0.00000000000E+00 0.  1.
         21    1    1    2  503  504 -0.82192003047E+02 -0.24921872533E+02 -0.15672419250E+03  0.17871512977E+03  0.00000000000E+00 0.  1.
         21    1    1    2  504  502 -0.30689836563E+02  0.23209421491E+02 -0.53100917383E+02  0.65576297098E+02  0.00000000000E+00 0.  1.
         21    1    1    2  505  501  0.13971546660E+03  0.24772670892E+02  0.33156198815E+02  0.14571695286E+03  0.00000000000E+00 0.  1.
         21    1    1    2  506  503 -0.26833626992E+02 -0.23060219850E+02 -0.16451875019E+02  0.39018988566E+02  0.00000000000E+00 0.  1.
<scales pt_clust_3="35.62625" pt_clust_4="35.62625" pt_clust_5="117.34305" pt_clust_6="35.38103"></scales>
<clustering>
<clus scale="   35.381">  1  6  2 -1</clus>
<clus scale="   35.626">  3  4 -1 -1</clus>
<clus scale="  117.343">  1  5  2 -1</clus>
<clus scale="   35.381">  1  3  2 -1</clus>
</clustering>
</event>
<event>
 6    0  0.1704145E+002  0.6692668E+02  0.7546771E-02  0.1370867E+00
         21   -1    0    0  503  501  0.00000000000E+00  0.00000000000E+00  0.26238360366E+04  0.26238360366E+04  0.00000000000E+00 0. -1.
         21   -1    0    0  504  502 -0.00000000000E+00 -0.00000000000E+00 -0.14040025137E+04  0.14040025137E+04  0.00000000000E+00 0. -1.
         21    1    1    2  503  505  0.54663231874E+02 -0.68671294546E+02 -0.19701916779E+03  0.21568580874E+03  0.00000000000E+00 0. -1.
         21    1    1    2  504  506  0.18378435449E+02 -0.39840724971E+02 -0.28328265076E+02  0.52225863880E+02  0.00000000000E+00 0.  1.
         21    1    1    2  505  502 -0.13393941327E+02  0.78218067390E+02 -0.11555820162E+04  0.11583036130E+04  0.00000000000E+00 0. -1.
         21    1    1    2  506  501 -0.59647725996E+02  0.30293952128E+02  0.26007629720E+04  0.26016232646E+04  0.00000000000E+00 0. -1.
<scales pt_clust_3="14000.00000" pt_clust_4="43.87539" pt_clust_5="44.47276" pt_clust_6="66.92668"></scales>
<clustering>
<clus scale="   43.875">  2  4  1 -1</clus>
<clus scale="   44.473">  2  5  1 -1</clus>
<clus scale="   66.927">  1  6  2 -1</clus>
<clus scale="   66.927">  1  3  2 -1</clus>
</clustering>
</event>
<event>
 6    0  0.1704145E+002  0.1132688E+03  0.7546771E-02  0.1254634E+00
         21   -1    0    0  503  501  0.00000000000E+00  0.00000000000E+00  0.47953012637E+02  0.47953012637E+02  0.00000000000E+00 0. -1.
         21   -1    0    0  505  502 -0.00000000000E+00 -0.00000000000E+00 -0.16219521115E+04  0.16219521115E+04  0.00000000000E+00 0. -1.
         21    1    1    2  503  506 -0.30532872946E+02  0.25410670495E+02 -0.15469647799E+03  0.15971524288E+03  0.00000000000E+00 0. -1.
         21    1    1    2  504  501 -0.94519920644E+02 -0.61900549176E+02 -0.37133677495E+02  0.11893108673E+03  0.00000000000E+00 0. -1.
         21    1    1    2  505  504  0.99623815457E+02  0.60259207495E+02 -0.84782031812E+03  0.85577763964E+03  0.00000000000E+00 0. -1.
         21    1    1    2  506  502  0.25428978133E+02 -0.23769328814E+02 -0.53434862523E+03  0.53548115486E+03  0.00000000000E+00 0.  1.
<scales pt_clust_3="34.69916" pt_clust_4="113.26877" pt_clust_5="14000.00000" pt_clust_6="34.80825"></scales>
<clustering>
<clus scale="   34.808">  2  6  1 -1</clus>
<clus scale="   34.699">  2  3  1 -1</clus>
<clus scale="  113.269">  1  4  2 -1</clus>
<clus scale="  113.269">  1  3  2 -1</clus>
</clustering>
</event>
<event>
 6    0  0.1704145E+002  0.1500958E+03  0.7546771E-02  0.1200355E+00
         21   -1    0    0  503  501  0.00000000000E+00  0.00000000000E+00  0.10116826543E+04  0.10116826543E+04  0.00000000000E+00 0.  1.
         21   -1    0    0  506  502 -0.00000000000E+00 -0.00000000000E+00 -0.24745254835E+03  0.24745254835E+03  0.00000000000E+00 0.  1.
         21    1    1    2  503  504 -0.39626603699E+02  0.25935527886E+01  0.75791094537E+03  0.75895058821E+03  0.00000000000E+00 0.  1.
         21    1    1    2  504  502 -0.52849982688E+02  0.43800216403E+02 -0.24129153849E+02  0.72758475057E+02  0.00000000000E+00 0.  1.
         21    1    1    2  505  501 -0.50250441187E+02  0.11508380956E+03  0.13798567438E+03  0.18657287154E+03  0.00000000000E+00 0.  1.
         21    1    1    2  506  505  0.14272702757E+03 -0.16147757875E+03 -0.10753735996E+03  0.24085326783E+03  0.00000000000E+00 0.  1.
<scales pt_clust_3="39.71139" pt_clust_4="71.76398" pt_clust_5="14000.00000" pt_clust_6="150.09579"></scales>
<clustering>
<clus scale="   39.711">  1  3  2 -1</clus>
<clus scale="   71.764">  2  4  1 -1</clus>
<clus scale="  150.096">  2  6  1 -1</clus>
<clus scale="   39.711">  1  3  2 -1</clus>
</clustering>
</event>
<event>
 6    0  0.1704145E+002  0.1958284E+03  0.7546771E-02  0.1153307E+00
         21   -1    0    0  503  501  0.00000000000E+00  0.00000000000E+00  0.10838439238E+04  0.10838439238E+04  0.00000000000E+00 0. -1.
         21   -1    0    0  505  502 -0.00000000000E+00 -0.00000000000E+00 -0.20635804236E+03  0.20635804236E+03  0.00000000000E+00 0. -1.
         21    1    1    2  503  502 -0.14390255039E+02  0.10886935516E+03  0.81702457786E+03  0.82437174671E+03  0.00000000000E+00 0. -1.
         21    1    1    2  504  506  0.21198964901E+02  0.15458873952E+03  0.13187775259E+02  0.15659180028E+03  0.00000000000E+00 0. -1.
         21    1    1    2  505  504  0.45569375773E+02 -0.10499494370E+02  0.13782124391E+02  0.48751967582E+02  0.00000000000E+00 0. -1.
         21    1    1    2  506  501 -0.52378085635E+02 -0.25295860031E+03  0.33491403918E+02  0.26048645159E+03  0.00000000000E+00 0. -1.
<scales pt_clust_3="109.50100" pt_clust_4="195.82843" pt_clust_5="46.76331" pt_clust_6="14000.00000"></scales>
<clustering>
<clus scale="   46.763">  2  5  1 -1</clus>
<clus scale="  109.501">  1  3  2 -1</clus>
<clus scale="  195.828">  2  4  1 -1</clus>
<clus scale="  109.501">  1  3  2 -1</clus>
</clustering>
</event>
<event>
 6    0  0.1704145E+002  0.1273885E+03  0.7546771E-02  0.1231383E+00
         21   -1    0    0  506  501  0.00000000000E+00  0.00000000000E+00  0.53161064385E+03  0.53161064385E+03  0.00000000000E+00 0.  1.
         21   -1    0    0  503  502 -0.00000000000E+00 -0.00000000000E+00 -0.80973149373E+03  0.80973149373E+03  0.00000000000E+00 0. -1.
         21    1    1    2  503  504 -0.29360518556E+02 -0.70703968726E+01 -0.33620837322E+03  0.33756199547E+03  0.00000000000E+00 0. -1.
         21    1    1    2  504  505  0.11775074988E+03  0.29426618099E+02 -0.25975306659E+03  0.28671034260E+03  0.00000000000E+00 0. -1.
         21    1    1    2  505  501 -0.12748383757E+03  0.78048952790E+01  0.50634537633E+03  0.52220559683E+03  0.00000000000E+00 0.  1.
         21    1    1    2  506  502  0.39093606244E+02 -0.30161116505E+02 -0.18850478639E+03  0.19486420269E+03  0.00000000000E+00 0. -1.
<scales pt_clust_3="30.19984" pt_clust_4="14000.00000" pt_clust_5="127.38853" pt_clust_6="42.78052"></scales>
<clustering>
<clus scale="   30.200">  2  3  1 -1</clus>
<clus scale="   42.781">  2  6  1 -1</clus>
<clus scale="  127.389">  1  5  2 -1</clus>
<clus scale="  127.389">  1  3  2 -1</clus>
</clustering>
</event>
<event>
 6    0  0.1704145E+002  0.9961148E+02  0.7546771E-02  0.1281115E+00
         21   -1    0    0  503  501  0.00000000000E+00  0.00000000000E+00  0.87597125380E+02  0.87597125380E+02  0.00000000000E+00 0. -1.
         21   -1    0    0  506  502 -0.00000000000E+00 -0.00000000000E+00 -0.86295915239E+03  0.86295915239E+03  0.00000000000E+00 0.  1.
         21    1    1    2  503  505  0.62399397903E+02  0.13163495419E+03 -0.35747855633E+03  0.38602119665E+03  0.00000000000E+00 0.  1.
         21    1    1    2  504  501 -0.26551038567E+02 -0.18546216531E+02  0.55368370309E+02  0.64144962602E+02  0.00000000000E+00 0. -1.
         21    1    1    2  505  502 -0.22600482149E+02 -0.41108441471E+02 -0.37474504537E+03  0.37766987540E+03  0.00000000000E+00 0.  1.
         21    1    1    2  506  504 -0.13247877187E+02 -0.71980296190E+02 -0.98506795616E+02  0.12272024312E+03  0.00000000000E+00 0.  1.
<scales pt_clust_3="14000.00000" pt_clust_4="32.38703" pt_clust_5="48.44292" pt_clust_6="99.61148"></scales>
<clustering>
<clus scale="   32.387">  1  4  2 -1</clus>
<clus scale="   48.443">  2  5  1 -1</clus>
<clus scale="   99.611">  1  6  2 -1</clus>
<clus scale="   32.387">  1  3  2 -1</clus>
</clustering>
</event>
<event>
 6    0  0.1704145E+002  0.1212950E+03  0.7546771E-02  0.1240976E+00
         21   -1    0    0  505  501  0.00000000000E+00  0.00000000000E+00  0.16313986423E+03  0.16313986423E+03  0.00000000000E+00 0.  1.
         21   -1    0    0  506  502 -0.00000000000E+00 -0.00000000000E+00 -0.16953994236E+03  0.16953994236E+03  0.00000000000E+00 0.  1.
         21    1    1    2  503  501  0.27769801701E+02 -0.50103807001E+02 -0.97755538164E+01  0.58112948771E+02  0.00000000000E+00 0.  1.
         21    1    1    2  504  502  0.39166651486E+02  0.42908019808E+02 -0.65521734638E+02  0.87568387346E+02  0.00000000000E+00 0.  1.
         21    1    1    2  505  504 -0.11822352555E+03  0.22388526763E+02  0.46118538943E+02  0.12886026447E+03  0.00000000000E+00 0.  1.
         21    1    1    2  506  503  0.51287072365E+02 -0.15192739570E+02  0.22778671388E+02  0.58138206006E+02  0.00000000000E+00 0.  1.
<scales pt_clust_3="51.42025" pt_clust_4="58.09582" pt_clust_5="108.99937" pt_clust_6="51.42025"></scales>
<clustering>
<clus scale="   51.420">  3  6 -1 -1</clus>
<clus scale="   58.096">  2  4  1 -1</clus>
<clus scale="  108.999">  1  5  2 -1</clus>
<clus scale="  108.999">  1  3  2 -1</clus>
</clustering>
</event>
<event>
 6    0  0.1704145E+002  0.1113343E+03  0.7546771E-02  0.1258119E+00
         21   -1    0    0  503  501  0.00000000000E+00  0.00000000000E+00  0.41813253539E+03  0.41813253539E+03  0.00000000000E+00 0.  1.
         21   -1    0    0  505  502 -0.00000000000E+00 -0.00000000000E+00 -0.38532410160E+03  0.38532410160E+03  0.00000000000E+00 0. -1.
         21    1    1    2  503  506  0.11305567594E+03  0.86827464053E+01  0.37572843740E+03  0.39246507439E+03  0.00000000000E+00 0.  1.
         21    1    1    2  504  501 -0.83430955222E+02 -0.48699721229E+01 -0.97710138518E+02  0.12857570566E+03  0.00000000000E+00 0. -1.
         21    1    1    2  505  504 -0.26020941089E+02  0.62441152765E+02 -0.82437411148E+02  0.10663917522E+03  0.00000000000E+00 0. -1.
         21    1    1    2  506  502 -0.36037796291E+01 -0.66253927047E+02 -0.16277245394E+03  0.17577668173E+03  0.00000000000E+00 0. -1.
<scales pt_clust_3="111.33432" pt_clust_4="14000.00000" pt_clust_5="43.36522" pt_clust_6="66.35187"></scales>
<clustering>
<clus scale="   66.352">  2  6  1 -1</clus>
<clus scale="   43.365">  2  5  1 -1</clus>
<clus scale="  111.334">  1  3  2 -1</clus>
<clus scale="  111.334">  1  3  2 -1</clus>
</clustering>
</event>
<event>
 6    0  0.1704145E+002  0.1202762E+03  0.7546771E-02  0.1242642E+00
         21   -1    0    0  503  501  0.00000000000E+00  0.00000000000E+00  0.26127431279E+03  0.26127431279E+03  0.00000000000E+00 0.  1.
         21   -1    0    0  505  502 -0.00000000000E+00 -0.00000000000E+00 -0.26957001472E+04  0.26957001472E+04  0.00000000000E+00 0. -1.
         21    1    1    2  503  502 -0.14818978234E+02 -0.59594593363E+02  0.25172689375E+03  0.25910914054E+03  0.00000000000E+00 0.  1.
         21    1    1    2  504  506  0.23469659311E+02  0.90850743842E+02 -0.13962102584E+04  0.13993597708E+04  0.00000000000E+00 0. -1.
         21    1    1    2  505  504 -0.16164838321E+02  0.42684881173E+02 -0.92214998337E+03  0.92327888144E+03  0.00000000000E+00 0.  1.
         21    1    1    2  506  501  0.75141572430E+01 -0.73941031651E+02 -0.36779248638E+03  0.37522666717E+03  0.00000000000E+00 0. -1.
<scales pt_clust_3="61.40943" pt_clust_4="30.96351" pt_clust_5="30.96351" pt_clust_6="111.78274"></scales>
<clustering>
<clus scale="   30.964">  4  5 -1 -1</clus>
<clus scale="   61.409">  1  3  2 -1</clus>
<clus scale="  111.783">  1  6  2 -1</clus>
<clus scale="   61.409">  1  3  2 -1</clus>
</clustering>
</event>
<event>
 6    0  0.2121155E+002  0.2166456E+03  0.7546771E-02  0.1136409E+00
         21   -1    0    0  502  501  0.00000000000E+00  0.00000000000E+00  0.48837117413E+03  0.48837117413E+03  0.00000000000E+00 0.  1.
         21   -1    0    0  505  502 -0.00000000000E+00 -0.00000000000E+00 -0.82203745882E+03  0.82203745882E+03  0.00000000000E+00 0.  1.
         21    1    1    2  503  504  0.46934766116E+02 -0.29905031821E+02 -0.14376994671E+03  0.15416543314E+03  0.00000000000E+00 0.  1.
         21    1    1    2  504  506 -0.11527345326E+03  0.20147196039E+03  0.25080097939E+03  0.34173096306E+03  0.00000000000E+00 0.  1.
         21    1    1    2  505  503  0.71323885238E+02 -0.13932343806E+03 -0.61634317780E+03  0.63590646311E+03  0.00000000000E+00 0.  1.
         21    1    1    2  506  501 -0.29851980940E+01 -0.32243490511E+02  0.17564586043E+03  0.17860577363E+03  0.00000000000E+00 0. -1.
<scales pt_clust_3="36.82746" pt_clust_4="207.64645" pt_clust_5="36.82746" pt_clust_6="32.38138"></scales>
<clustering>
<clus scale="   32.381">  1  6  2 -1</clus>
<clus scale="   36.827">  3  5 -1 -1</clus>
<clus scale="  207.646">  1  4  2 -1</clus>
<clus scale="   32.381">  1  3  2 -1</clus>
</clustering>
</event>
<event>
 6    0  0.1704145E+002  0.1019035E+03  0.7546771E-02  0.1276343E+00
         21   -1    0    0  504  501  0.00000000000E+00  0.00000000000E+00  0.37379377851E+03  0.37379377851E+03  0.00000000000E+00 0. -1.
         21   -1    0    0  506  502 -0.00000000000E+00 -0.00000000000E+00 -0.10213055745E+03  0.10213055745E+03  0.00000000000E+00 0. -1.
         21    1    1    2  503  501 -0.53134227444E+02 -0.41484758379E+02  0.64028243924E+02  0.92972293313E+02  0.00000000000E+00 0.  1.
         21    1    1    2  504  505  0.10813167141E+03 -0.62441225204E+02  0.21654953775E+03  0.24997013275E+03  0.00000000000E+00 0. -1.
         21    1    1    2  505  502 -0.10056883763E+02  0.47907729122E+02  0.23367080411E+02  0.54243081288E+02  0.00000000000E+00 0. -1.
         21    1    1    2  506  503 -0.44940560201E+02  0.56018254461E+02 -0.32281641022E+02  0.78738828612E+02  0.00000000000E+00 0. -1.
<scales pt_clust_3="64.23294" pt_clust_4="14000.00000" pt_clust_5="48.95193" pt_clust_6="101.90350"></scales>
<clustering>
<clus scale="   48.952">  2  5  1 -1</clus>
<clus scale="   64.233">  1  3  2 -1</clus>
<clus scale="  101.903">  2  6  1 -1</clus>
<clus scale="   64.233">  1  3  2 -1</clus>
</clustering>
</event>
<event>
 6    0  0.1704145E+002  0.1528256E+03  0.7546771E-02  0.1197043E+00
         21   -1    0    0  503  501  0.00000000000E+00  0.00000000000E+00  0.58705158671E+03  0.58705158671E+03  0.00000000000E+00 0. -1.
         21   -1    0    0  506  502 -0.00000000000E+00 -0.00000000000E+00 -0.13992298225E+04  0.13992298225E+04  0.00000000000E+00 0.  1.
         21    1    1    2  503  504 -0.43334341013E+02 -0.13848074651E+03  0.57143912359E+03  0.58957395993E+03  0.00000000000E+00 0. -1.
         21    1    1    2  504  502  0.52021446443E+02  0.15934995945E+02 -0.54746804990E+03  0.55016490314E+03  0.00000000000E+00 0.  1.
         21    1    1    2  505  501  0.17012033816E+02  0.36383403567E+02 -0.33408312008E+03  0.33648877020E+03  0.00000000000E+00 0.  1.
         21    1    1    2  506  505 -0.25699139245E+02  0.86162346998E+02 -0.50206618945E+03  0.51005377597E+03  0.00000000000E+00 0.  1.
<scales pt_clust_3="144.77565" pt_clust_4="54.40731" pt_clust_5="32.71317" pt_clust_6="32.71317"></scales>
<clustering>
<clus scale="   32.713">  5  6 -1 -1</clus>
<clus scale="   54.407">  2  4  1 -1</clus>
<clus scale="  144.776">  1  3  2 -1</clus>
<clus scale="  144.776">  1  3  2 -1</clus>
</clustering>
</event>
<event>
 6    0  0.1704145E+002  0.1101130E+03  0.7546771E-02  0.1260361E+00
         21   -1    0    0  504  501  0.00000000000E+00  0.00000000000E+00  0.23181945473E+03  0.23181945473E+03  0.00000000000E+00 0.  1.
         21   -1    0    0  506  502 -0.00000000000E+00 -0.00000000000E+00 -0.28891002033E+03  0.28891002033E+03  0.00000000000E+00 0.  1.
         21    1    1    2  503  505  0.40795913477E+02  0.91680615632E+02 -0.47539219614E+00  0.10034873112E+03  0.00000000000E+00 0. -1.
         21    1    1    2  504  503  0.10276670301E+02  0.32816273773E+02  0.15004016879E+03  0.15393040644E+03  0.00000000000E+00 0.  1.
         21    1    1    2  505  502  0.65710159514E+01 -0.31508570483E+02 -0.12727210028E+03  0.13127892357E+03  0.00000000000E+00 0.  1.
         21    1    1    2  506  501 -0.57643599730E+02 -0.92988318921E+02 -0.79383241922E+02  0.13517141393E+03  0.00000000000E+00 0.  1.
<scales pt_clust_3="14000.00000" pt_clust_4="34.04584" pt_clust_5="32.18646" pt_clust_6="110.11298"></scales>
<clustering>
<clus scale="   32.186">  2  5  1 -1</clus>
<clus scale="   34.046">  1  4  2 -1</clus>
<clus scale="  110.113">  2  6  1 -1</clus>
<clus scale="   34.046">  1  3  2 -1</clus>
</clustering>
</event>
<event>
 6    0  0.1704145E+002  0.1712942E+03  0.7546771E-02  0.1176505E+00
         21   -1    0    0  506  501  0.00000000000E+00  0.00000000000E+00  0.65852754532E+03  0.65852754532E+03  0.00000000000E+00 0. -1.
         21   -1    0    0  504  502 -0.00000000000E+00 -0.00000000000E+00 -0.12440373741E+04  0.12440373741E+04  0.00000000000E+00 0.  1.
         21    1    1    2  503  501 -0.12837621736E+03 -0.54086044715E+02 -0.10828959064E+03  0.17644372717E+03  0.00000000000E+00 0.  1.
         21    1    1    2  504  503  0.23950669051E+02 -0.28668615200E+02 -0.15625666336E+03  0.16066010360E+03  0.00000000000E+00 0.  1.
         21    1    1    2  505  502  0.63415138094E+01 -0.63349842889E+02 -0.92966020386E+03  0.93183770691E+03  0.00000000000E+00 0.  1.
         21    1    1    2  506  505  0.98084034503E+02  0.14610450280E+03  0.60869662911E+03  0.63362338171E+03  0.00000000000E+00 0. -1.
<scales pt_clust_3="171.29420" pt_clust_4="37.35671" pt_clust_5="91.94536" pt_clust_6="14000.00000"></scales>
<clustering>
<clus scale="   37.357">  2  4  1 -1</clus>
<clus scale="   91.945">  2  5  1 -1</clus>
<clus scale="  171.294">  2  3  1 -1</clus>
<clus scale="  171.294">  1  3  2 -1</clus>
</clustering>
</event>
<event>
 6    0  0.1704145E+002  0.8857878E+02  0.7546771E-02  0.1306330E+00
         21   -1    0    0  505  501  0.00000000000E+00  0.00000000000E+00  0.17977055478E+03  0.17977055478E+03  0.00000000000E+00 0. -1.
         21   -1    0    0  504  502 -0.00000000000E+00 -0.00000000000E+00 -0.15106556642E+03  0.15106556642E+03  0.00000000000E+00 0. -1.
         21    1    1    2  503  506  0.47808192724E+02  0.40965097768E+02 -0.77299396276E+02  0.99694328782E+02  0.00000000000E+00 0.  1.
         21    1    1    2  504  501 -0.89449840570E+02 -0.50154366978E+02  0.94483480502E+02  0.13944125140E+03  0.00000000000E+00 0. -1.
         21    1    1    2  505  503 -0.59954626353E+01  0.31649568177E+02  0.20629745054E+02  0.38252151821E+02  0.00000000000E+00 0. -1.
         21    1    1    2  506  502  0.47637110481E+02 -0.22460298966E+02 -0.91088409260E+01  0.53448389196E+02  0.00000000000E+00 0. -1.
<scales pt_clust_3="88.57878" pt_clust_4="14000.00000" pt_clust_5="32.21243" pt_clust_6="50.02420"></scales>
<clustering>
<clus scale="   32.212">  1  5  2 -1</clus>
<clus scale="   50.024">  2  6  1 -1</clus>
<clus scale="   88.579">  2  3  1 -1</clus>
<clus scale="   32.212">  1  3  2 -1</clus>
</clustering>
</event>
<event>
 6    0  0.1704145E+002  0.1098653E+03  0.7546771E-02  0.1260820E+00
         21   -1    0    0  504  501  0.00000000000E+00  0.00000000000E+00  0.20554066453E+03  0.20554066453E+03  0.00000000000E+00 0.  1.
         21   -1    0    0  505  502 -0.00000000000E+00 -0.00000000000E+00 -0.26915844120E+03  0.26915844120E+03  0.00000000000E+00 0.  1.
         21    1    1    2  503  502  0.23905545166E+02  0.18938732717E+02 -0.32717032179E+02  0.44727562880E+02  0.00000000000E+00 0. -1.
         21    1    1    2  504  503 -0.36496363792E+02  0.67433415700E+02 -0.45800101370E+02  0.89313489511E+02  0.00000000000E+00 0.  1.
         21    1    1    2  505  506  0.18555981035E+02  0.37110439238E+02 -0.13795950009E+03  0.14406364149E+03  0.00000000000E+00 0.  1.
         21    1    1    2  506  501 -0.59651624086E+01 -0.12348258766E+03  0.15285885697E+03  0.19659441185E+03  0.00000000000E+00 0.  1.
<scales pt_clust_3="30.49837" pt_clust_4="14000.00000" pt_clust_5="58.93111" pt_clust_6="109.86527"></scales>
<clustering>
<clus scale="   30.498">  2  3  1 -1</clus>
<clus scale="   58.931">  2  5  1 -1</clus>
<clus scale="  109.865">  1  6  2 -1</clus>
<clus scale="  109.865">  1  3  2 -1</clus>
</clustering>
</event>
<event>
 6    0  0.1704145E+002  0.1309485E+03  0.7546771E-02  0.1226055E+00
         21   -1    0    0  506  501  0.00000000000E+00  0.00000000000E+00  0.53025436650E+03  0.53025436650E+03  0.00000000000E+00 0.  1.
         21   -1    0    0  505  502 -0.00000000000E+00 -0.00000000000E+00 -0.22479762256E+03  0.22479762256E+03  0.00000000000E+00 0. -1.
         21    1    1    2  503  502  0.47940730672E+02  0.28001091903E+01  0.54871250923E+02  0.72917819816E+02  0.00000000000E+00 0.  1.
         21    1    1    2  504  501  0.43478182030E+02 -0.50267428699E+02  0.37414301587E+03  0.38000021450E+03  0.00000000000E+00 0.  1.
         21    1    1    2  505  504 -0.12491845380E+03 -0.68344442583E+01 -0.17847161177E+03  0.21795285255E+03  0.00000000000E+00 0. -1.
         21    1    1    2  506  503  0.33499541101E+02  0.54301763766E+02  0.54914088920E+02  0.84181102179E+02  0.00000000000E+00 0.  1.
<scales pt_clust_3="45.36358" pt_clust_4="66.46177" pt_clust_5="120.05579" pt_clust_6="45.36358"></scales>
<clustering>
<clus scale="   45.364">  3  6 -1 -1</clus>
<clus scale="   66.462">  1  4  2 -1</clus>
<clus scale="  120.056">  2  5  1 -1</clus>
<clus scale="   66.462">  1  3  2 -1</clus>
</clustering>
</event>
<event>
 6    0  0.1704145E+002  0.1197058E+03  0.7546771E-02  0.1243583E+00
         21   -1    0    0  506  501  0.00000000000E+00  0.00000000000E+00  0.20891676284E+03  0.20891676284E+03  0.00000000000E+00 0. -1.
         21   -1    0    0  504  502 -0.00000000000E+00 -0.00000000000E+00 -0.61289291519E+03  0.61289291519E+03  0.00000000000E+00 0. -1.
         21    1    1    2  503  505  0.32010277901E+02  0.27833625834E+02 -0.25268287744E+02  0.49374639076E+02  0.00000000000E+00 0. -1.
         21    1    1    2  504  503 -0.25839936971E+02 -0.32311553910E+02 -0.23187530345E+03  0.23553746030E+03  0.00000000000E+00 0. -1.
         21    1    1    2  505  501 -0.89558439228E+02 -0.79567232727E+02  0.16468021177E+03  0.20364486419E+03  0.00000000000E+00 0. -1.
         21    1    1    2  506  502  0.83388098298E+02  0.84045160803E+02 -0.31151277293E+03  0.33325271446E+03  0.00000000000E+00 0. -1.
<scales pt_clust_3="38.41993" pt_clust_4="41.37317" pt_clust_5="119.70578" pt_clust_6="14000.00000"></scales>
<clustering>
<clus scale="   41.373">  2  4  1 -1</clus>
<clus scale="   38.420">  2  3  1 -1</clus>
<clus scale="  119.706">  1  5  2 -1</clus>
<clus scale="  119.706">  1  3  2 -1</clus>
</clustering>
</event>
<event>
 6    0  0.1704145E+002  0.1293854E+03  0.7546771E-02  0.1228371E+00
         21   -1    0    0  503  501  0.00000000000E+00  0.00000000000E+00  0.15208171407E+03  0.15208171407E+03  0.00000000000E+00 0. -1.
         21   -1    0    0  505  502 -0.00000000000E+00 -0.00000000000E+00 -0.11419095764E+04  0.11419095764E+04  0.00000000000E+00 0.  1.
         21    1    1    2  503  504 -0.15130471259E+02  0.59405364685E+02  0.12785443120E+03  0.14179098734E+03  0.00000000000E+00 0. -1.
         21    1    1    2  504  506  0.39371221238E+02 -0.81173790323E+02 -0.51158862643E+03  0.51948262722E+03  0.00000000000E+00 0.  1.
         21    1    1    2  505  501 -0.69162024138E+02  0.43039191276E+02 -0.12587819419E+03  0.14993691120E+03  0.00000000000E+00 0. -1.
         21    1    1    2  506  502  0.44921274158E+02 -0.21270765638E+02 -0.48021547288E+03  0.48278076467E+03  0.00000000000E+00 0.  1.
<scales pt_clust_3="61.30195" pt_clust_4="42.35594" pt_clust_5="116.12128" pt_clust_6="42.35594"></scales>
<clustering>
<clus scale="   42.356">  4  6 -1 -1</clus>
<clus scale="   61.302">  1  3  2 -1</clus>
<clus scale="  116.121">  1  5  2 -1</clus>
<clus scale="   61.302">  1  3  2 -1</clus>
</clustering>
</event>
<event>
 6    0  0.1704145E+002  0.1160083E+03  0.7546771E-02  0.1249831E+00
         21   -1    0    0  505  501  0.00000000000E+00  0.00000000000E+00  0.20072752210E+04  0.20072752210E+04  0.00000000000E+00 0.  1.
         21   -1    0    0  504  502 -0.00000000000E+00 -0.00000000000E+00 -0.94290717272E+02  0.94290717272E+02  0.00000000000E+00 0. -1.
         21    1    1    2  503  506 -0.78800006071E+02  0.84739438370E+02  0.96331123874E+02  0.15056526425E+03  0.00000000000E+00 0. -1.
         21    1    1    2  504  501  0.40725800938E+02  0.57251463729E+01  0.15112705028E+02  0.43815088912E+02  0.00000000000E+00 0. -1.
         21    1    1    2  505  503  0.51928294220E+02  0.42787031715E+02  0.17677366270E+04  0.17690166931E+04  0.00000000000E+00 0.  1.
         21    1    1    2  506  502 -0.13854089087E+02 -0.13325161646E+03  0.33804047764E+02  0.13816889201E+03  0.00000000000E+00 0. -1.
<scales pt_clust_3="116.00826" pt_clust_4="41.12625" pt_clust_5="67.56607" pt_clust_6="14000.00000"></scales>
<clustering>
<clus scale="   41.126">  2  4  1 -1</clus>
<clus scale="   67.566">  1  5  2 -1</clus>
<clus scale="  116.008">  1  3  2 -1</clus>
<clus scale="   67.566">  1  3  2 -1</clus>
</clustering>
</event>
<event>
 6    0  0.1704145E+002  0.1059707E+03  0.7546771E-02  0.1268219E+00
         21   -1    0    0  503  501  0.00000000000E+00  0.00000000000E+00  0.26021538609E+03  0.26021538609E+03  0.00000000000E+00 0. -1.
         21   -1    0    0  504  502 -0.00000000000E+00 -0.00000000000E+00 -0.11655566849E+03  0.11655566849E+03  0.00000000000E+00 0. -1.
         21    1    1    2  503  502  0.74373340258E+02 -0.34477839417E+02  0.43438276493E+02  0.92773913449E+02  0.00000000000E+00 0. -1.
         21    1    1    2  504  505 -0.96801913401E+02 -0.46367611064E+02 -0.40991984142E+02  0.11489520685E+03  0.00000000000E+00 0. -1.
         21    1    1    2  505  506  0.27281608549E+02  0.39346817016E+02  0.52574385623E+02  0.71109241298E+02  0.00000000000E+00 0. -1.
         21    1    1    2  506  501 -0.48530354060E+01  0.41498633465E+02  0.88639039624E+02  0.97992692980E+02  0.00000000000E+00 0. -1.
<scales pt_clust_3="81.97631" pt_clust_4="98.05401" pt_clust_5="37.54310" pt_clust_6="37.54310"></scales>
<clustering>
<clus scale="   37.543">  5  6 -1 -1</clus>
<clus scale="   81.976">  1  3  2 -1</clus>
<clus scale="   98.054">  2  4  1 -1</clus>
<clus scale="   81.976">  1  3  2 -1</clus>
</clustering>
</event>
<event>
 6    0  0.1704145E+002  0.1946085E+03  0.7546771E-02  0.1154369E+00
         21   -1    0    0  506  501  0.00000000000E+00  0.00000000000E+00  0.76113835311E+03  0.76113835311E+03  0.00000000000E+00 0. -1.
         21   -1    0    0  505  502 -0.00000000000E+00 -0.00000000000E+00 -0.43394265740E+03  0.43394265740E+03  0.00000000000E+00 0. -1.
         21    1    1    2  503  501 -0.74726809203E+01 -0.99706139570E+02 -0.28130960973E+03  0.29855024997E+03  0.00000000000E+00 0. -1.
         21    1    1    2  504  502 -0.53163459281E+02  0.87963218881E+01 -0.35904773252E+02  0.64752462685E+02  0.00000000000E+00 0. -1.
         21    1    1    2  505  503 -0.38195384195E+02 -0.82538715992E+02 -0.53746209852E+02  0.10564176298E+03  0.00000000000E+00 0.  1.
         21    1    1    2  506  504  0.98831524397E+02  0.17344853367E+03  0.69815628855E+03  0.72613653488E+03  0.00000000000E+00 0. -1.
<scales pt_clust_3="14000.00000" pt_clust_4="53.88626" pt_clust_5="94.54565" pt_clust_6="194.60847"></scales>
<clustering>
<clus scale="   53.886">  2  4  1 -1</clus>
<clus scale="   94.546">  2  5  1 -1</clus>
<clus scale="  194.608">  1  6  2 -1</clus>
<clus scale="  194.608">  1  3  2 -1</clus>
</clustering>
</event>
<event>
 6    0  0.1704145E+002  0.1089574E+03  0.7546771E-02  0.1262513E+00
         21   -1    0    0  505  501  0.00000000000E+00  0.00000000000E+00  0.10382666033E+03  0.10382666033E+03  0.00000000000E+00 0. -1.
         21   -1    0    0  504  502 -0.00000000000E+00 -0.00000000000E+00 -0.89514689142E+03  0.89514689142E+03  0.00000000000E+00 0.  1.
         21    1    1    2  503  501  0.18997315907E+02  0.52879381810E+02 -0.30085899848E+02  0.63736083987E+02  0.00000000000E+00 0. -1.
         21    1    1    2  504  503 -0.90014606059E+02  0.65578869580E+02 -0.75021897848E+03  0.75844032930E+03  0.00000000000E+00 0.  1.
         21    1    1    2  505  506 -0.72402243205E+01 -0.70789849444E+02  0.28957374655E+02  0.76825472204E+02  0.00000000000E+00 0. -1.
         21    1    1    2  506  502  0.78257514473E+02 -0.47668401946E+02 -0.39972727414E+02  0.99971666248E+02  0.00000000000E+00 0. -1.
<scales pt_clust_3="56.18832" pt_clust_4="108.95739" pt_clust_5="38.88204" pt_clust_6="14000.00000"></scales>
<clustering>
<clus scale="   56.188">  1  3  2 -1</clus>
<clus scale="   38.882">  1  5  2 -1</clus>
<clus scale="  108.957">  2  4  1 -1</clus>
<clus scale="   56.188">  1  3  2 -1</clus>
</clustering>
</event>
<event>
 6    0  0.1704145E+002  0.2025668E+03  0.7546771E-02  0.1147591E+00
         21   -1    0    0  506  501  0.00000000000E+00  0.00000000000E+00  0.15968754358E+04  0.15968754358E+04  0.00000000000E+00 0.  1.
         21   -1    0    0  503  502 -0.00000000000E+00 -0.00000000000E+00 -0.19891729765E+03  0.19891729765E+03  0.00000000000E+00 0.  1.
         21    1    1    2  503  504 -0.50296853929E+02 -0.43927006706E+01 -0.42515130864E+01  0.50666998114E+02  0.00000000000E+00 0. -1.
         21    1    1    2  504  501 -0.13635061648E+03  0.11944393372E+03 -0.32185859105E+02  0.18410397454E+03  0.00000000000E+00 0.  1.
         21    1    1    2  505  502  0.11183435193E+03 -0.11248288065E+03  0.38633721304E+02  0.16325405089E+03  0.00000000000E+00 0.  1.
         21    1    1    2  506  505  0.74813118477E+02 -0.25683523995E+01  0.13957617890E+04  0.13977677099E+04  0.00000000000E+00 0.  1.
<scales pt_clust_3="39.89949" pt_clust_4="39.89949" pt_clust_5="187.92991" pt_clust_6="74.85719"></scales>
<clustering>
<clus scale="   39.899">  3  4 -1 -1</clus>
<clus scale="   74.857">  1  6  2 -1</clus>
<clus scale="  187.930">  1  5  2 -1</clus>
<clus scale="   74.857">  1  3  2 -1</clus>
</clustering>
</event>
<event>
 6    0  0.1704145E+002  0.1430940E+03  0.7546771E-02  0.1209225E+00
         21   -1    0    0  503  501  0.00000000000E+00  0.00000000000E+00  0.17636601401E+04  0.17636601401E+04  0.00000000000E+00 0. -1.
         21   -1    0    0  506  502 -0.00000000000E+00 -0.00000000000E+00 -0.39272655579E+02  0.39272655579E+02  0.00000000000E+00 0. -1.
         21    1    1    2  503  505 -0.19590032884E+02 -0.56979320247E+02  0.23173922860E+03  0.23944411121E+03  0.00000000000E+00 0.  1.
         21    1    1    2  504  501 -0.62747756891E+02  0.36312649952E+02  0.42997059007E+03  0.43603967464E+03  0.00000000000E+00 0. -1.
         21    1    1    2  505  502 -0.12383433302E+03  0.36868556635E+02  0.18446432468E+03  0.22521394181E+03  0.00000000000E+00 0. -1.
         21    1    1    2  506  504  0.20617212280E+03 -0.16201886341E+02  0.87821334121E+03  0.90223506805E+03  0.00000000000E+00 0. -1.
<scales pt_clust_3="60.25290" pt_clust_4="71.21401" pt_clust_5="14000.00000" pt_clust_6="143.09400"></scales>
<clustering>
<clus scale="   60.253">  1  3  2 -1</clus>
<clus scale="   71.214">  1  4  2 -1</clus>
<clus scale="  143.094">  1  6  2 -1</clus>
<clus scale="   60.253">  1  3  2 -1</clus>
</clustering>
</event>
<event>
 6    0  0.1704145E+002  0.1137733E+03  0.7546771E-02  0.1253738E+00
         21   -1    0    0  503  501  0.00000000000E+00  0.00000000000E+00  0.92593404556E+03  0.92593404556E+03  0.00000000000E+00 0.  1.
         21   -1    0    0  504  502 -0.00000000000E+00 -0.00000000000E+00 -0.64651898961E+03  0.64651898961E+03  0.00000000000E+00 0. -1.
         21    1    1    2  503  502  0.28795475911E+02 -0.38674399977E+02  0.83101935554E+03  0.83241699763E+03  0.00000000000E+00 0.  1.
         21    1    1    2  504  506  0.82221213408E+02  0.64747358954E+02 -0.59946124704E+03  0.60852800686E+03  0.00000000000E+00 0. -1.
         21    1    1    2  505  501 -0.46137228737E+02 -0.27885981141E+02  0.37769425351E+02  0.65824017738E+02  0.00000000000E+00 0. -1.
         21    1    1    2  506  505 -0.64879460581E+02  0.18130221635E+01  0.10087522105E+02  0.65684012948E+02  0.00000000000E+00 0. -1.
<scales pt_clust_3="48.21710" pt_clust_4="104.61739" pt_clust_5="40.75342" pt_clust_6="40.75342"></scales>
<clustering>
<clus scale="   40.753">  5  6 -1 -1</clus>
<clus scale="   48.217">  1  3  2 -1</clus>
<clus scale="  104.617">  2  4  1 -1</clus>
<clus scale="   48.217">  1  3  2 -1</clus>
</clustering>
</event>
<event>
 6    0  0.1704145E+002  0.1600931E+03  0.7546771E-02  0.1188592E+00
         21   -1    0    0  506  501  0.00000000000E+00  0.00000000000E+00  0.12317965098E+04  0.12317965098E+04  0.00000000000E+00 0.  1.
         21   -1    0    0  505  502 -0.00000000000E+00 -0.00000000000E+00 -0.42694635934E+03  0.42694635934E+03  0.00000000000E+00 0.  1.
         21    1    1    2  503  504 -0.57054015425E+02 -0.21911499448E+02 -0.15667608807E+03  0.16817452559E+03  0.00000000000E+00 0.  1.
         21    1    1    2  504  501  0.14901302294E+03  0.42698878996E+02  0.11926576311E+04  0.12026887795E+04  0.00000000000E+00 0.  1.
         21    1    1    2  505  503 -0.27172589969E+02 -0.29162110323E+02 -0.21753184973E+03  0.22115353032E+03  0.00000000000E+00 0.  1.
         21    1    1    2  506  502 -0.64786417546E+02  0.83747307744E+01 -0.13599542849E+02  0.66726033748E+02  0.00000000000E+00 0.  1.
<scales pt_clust_3="34.66124" pt_clust_4="154.23259" pt_clust_5="34.66124" pt_clust_6="65.32546"></scales>
<clustering>
<clus scale="   34.661">  3  5 -1 -1</clus>
<clus scale="   65.325">  2  6  1 -1</clus>
<clus scale="  154.233">  1  4  2 -1</clus>
<clus scale="  154.233">  1  3  2 -1</clus>
</clustering>
</event>
<event>
 6    0  0.1704145E+002  0.9954348E+02  0.7546771E-02  0.1281259E+00
         21   -1    0    0  505  501  0.00000000000E+00  0.00000000000E+00  0.11080221212E+03  0.11080221212E+03  0.00000000000E+00 0.  1.
         21   -1    0    0  506  502 -0.00000000000E+00 -0.00000000000E+00 -0.35304334715E+03  0.35304334715E+03  0.00000000000E+00 0.  1.
         21    1    1    2  503  502 -0.43990620386E+02 -0.22246451816E+02 -0.11907128993E+03  0.12887222892E+03  0.00000000000E+00 0.  1.
         21    1    1    2  504  503  0.11864187912E+02 -0.72608316129E+02 -0.20468223870E+02  0.76365402600E+02  0.00000000000E+00 0.  1.
         21    1    1    2  505  504  0.33829628366E+02 -0.33625709679E+02  0.43086609637E+02  0.64277430228E+02  0.00000000000E+00 0.  1.
         21    1    1    2  506  501 -0.17031958919E+01  0.12848047762E+03 -0.14578823087E+03  0.19433049752E+03  0.00000000000E+00 0.  1.
<scales pt_clust_3="48.16461" pt_clust_4="14000.00000" pt_clust_5="47.69834" pt_clust_6="99.54348"></scales>
<clustering>
<clus scale="   47.698">  1  5  2 -1</clus>
<clus scale="   48.165">  2  3  1 -1</clus>
<clus scale="   99.543">  2  6  1 -1</clus>
<clus scale="   47.698">  1  3  2 -1</clus>
</clustering>
</event>
<event>
 6    0  0.1704145E+002  0.3664129E+03  0.7546771E-02  0.1056073E+00
         21   -1    0    0  505  501  0.00000000000E+00  0.00000000000E+00  0.14811183001E+04  0.14811183001E+04  0.00000000000E+00 0. -1.
         21   -1    0    0  506  502 -0.00000000000E+00 -0.00000000000E+00 -0.10462964208E+04  0.10462964208E+04  0.00000000000E+00 0. -1.
         21    1    1    2  503  501 -0.58710703830E+02 -0.55553471690E+00  0.11919087352E+04  0.11933539661E+04  0.00000000000E+00 0. -1.
         21    1    1    2  504  503 -0.10376770985E+03  0.44844158963E+03 -0.49746079529E+03  0.67774245829E+03  0.00000000000E+00 0. -1.
         21    1    1    2  505  502 -0.13273167025E+02 -0.34049197514E+03 -0.21432110439E+02  0.34142392631E+03  0.00000000000E+00 0. -1.
         21    1    1    2  506  504  0.17575158071E+03 -0.10739407977E+03 -0.23819395013E+03  0.31489437018E+03  0.00000000000E+00 0. -1.
<scales pt_clust_3="58.71333" pt_clust_4="366.41287" pt_clust_5="14000.00000" pt_clust_6="199.38780"></scales>
<clustering>
<clus scale="   58.713">  1  3  2 -1</clus>
<clus scale="  199.388">  2  6  1 -1</clus>
<clus scale="  366.413">  2  4  1 -1</clus>
<clus scale="   58.713">  1  3  2 -1</clus>
</clustering>
</event>
<event>
 6    0  0.1704145E+002  0.1212933E+03  0.7546771E-02  0.1240979E+00
         21   -1    0    0  504  501  0.00000000000E+00  0.00000000000E+00  0.17729522796E+03  0.17729522796E+03  0.00000000000E+00 0. -1.
         21   -1    0    0  505  502 -0.00000000000E+00 -0.00000000000E+00 -0.11628307345E+04  0.11628307345E+04  0.00000000000E+00 0. -1.
         21    1    1    2  503  502 -0.85787073673E+02  0.83625448681E+02 -0.86600183018E+03  0.87424928227E+03  0.00000000000E+00 0. -1.
         21    1    1    2  504  506  0.38660325124E+02 -0.11032195178E+02  0.14268602559E+03  0.14824180236E+03  0.00000000000E+00 0. -1.
         21    1    1    2  505  501  0.80174206461E+02 -0.10304614439E+03 -0.16401352669E+03  0.20963503570E+03  0.00000000000E+00 0. -1.
         21    1    1    2  506  503 -0.33047457911E+02  0.30452890891E+02 -0.98206175250E+02  0.10799984211E+03  0.00000000000E+00 0. -1.
<scales pt_clust_3="121.29333" pt_clust_4="40.20361" pt_clust_5="14000.00000" pt_clust_6="39.51336"></scales>
<clustering>
<clus scale="   40.204">  1  4  2 -1</clus>
<clus scale="   39.513">  1  6  2 -1</clus>
<clus scale="  121.293">  2  3  1 -1</clus>
<clus scale="   40.204">  1  3  2 -1</clus>
</clustering>
</event>
<event>
 6    0  0.1704145E+002  0.2816473E+03  0.7546771E-02  0.1094793E+00
         21   -1    0    0  504  501  0.00000000000E+00  0.00000000000E+00  0.30038323708E+03  0.30038323708E+03  0.00000000000E+00 0. -1.
         21   -1    0    0  506  502 -0.00000000000E+00 -0.00000000000E+00 -0.51676398551E+03  0.51676398551E+03  0.00000000000E+00 0. -1.
         21    1    1    2  503  505  0.53187853159E+02  0.15443487081E+03 -0.23677564367E+02  0.16504455187E+03  0.00000000000E+00 0. -1.
         21    1    1    2  504  502 -0.64586203235E+02 -0.30029815815E+03 -0.31870322669E+03  0.44263089379E+03  0.00000000000E+00 0. -1.
         21    1    1    2  505  501 -0.26814153804E+02  0.11055442409E+03  0.99250860754E+02  0.15097023843E+03  0.00000000000E+00 0. -1.
         21    1    1    2  506  503  0.38212503881E+02  0.35308863240E+02  0.26749181870E+02  0.58501538500E+02  0.00000000000E+00 0. -1.
<scales pt_clust_3="42.26003" pt_clust_4="271.51155" pt_clust_5="113.75974" pt_clust_6="42.26003"></scales>
<clustering>
<clus scale="   42.260">  3  6 -1 -1</clus>
<clus scale="  113.760">  1  5  2 -1</clus>
<clus scale="  271.512">  2  4  1 -1</clus>
<clus scale="  113.760">  1  3  2 -1</clus>
</clustering>
</event>
<event>
 6    0  0.1704145E+002  0.1163111E+03  0.7546771E-02  0.1249310E+00
         21   -1    0    0  504  501  0.00000000000E+00  0.00000000000E+00  0.11861922540E+04  0.11861922540E+04  0.00000000000E+00 0. -1.
         21   -1    0    0  505  502 -0.00000000000E+00 -0.00000000000E+00 -0.12435901699E+03  0.12435901699E+03  0.00000000000E+00 0. -1.
         21    1    1    2  503  501 -0.10231542380E+03 -0.32278082571E+02  0.11083824093E+04  0.11135626995E+04  0.00000000000E+00 0. -1.
         21    1    1    2  504  506  0.52196118781E+02 -0.89409270951E+01  0.86608355127E+01  0.53659901834E+02  0.00000000000E+00 0.  1.
         21    1    1    2  505  503 -0.26816419123E+02  0.47037951264E+02 -0.14315526803E+02  0.56005566699E+02  0.00000000000E+00 0. -1.
         21    1    1    2  506  502  0.76935724141E+02 -0.58189415973E+01 -0.40894480981E+02  0.87323102929E+02  0.00000000000E+00 0. -1.
<scales pt_clust_3="107.62881" pt_clust_4="36.53077" pt_clust_5="54.14508" pt_clust_6="36.53077"></scales>
<clustering>
<clus scale="   36.531">  4  6 -1 -1</clus>
<clus scale="   54.145">  2  5  1 -1</clus>
<clus scale="  107.629">  1  3  2 -1</clus>
<clus scale="  107.629">  1  3  2 -1</clus>
</clustering>
</event>
<event>
 6    0  0.1704145E+002  0.1205460E+03  0.7546771E-02  0.1242199E+00
         21   -1    0    0  506  501  0.00000000000E+00  0.00000000000E+00  0.16572158820E+03  0.16572158820E+03  0.00000000000E+00 0. -1.
         21   -1    0    0  505  502 -0.00000000000E+00 -0.00000000000E+00 -0.22129581420E+03  0.22129581420E+03  0.00000000000E+00 0. -1.
         21    1    1    2  503  504  0.89275201822E+02 -0.11335675998E+02 -0.23173218300E+02  0.92927699084E+02  0.00000000000E+00 0. -1.
         21    1    1    2  504  501 -0.42667934979E+02 -0.94062889132E+02  0.47061153062E+02  0.11350388502E+03  0.00000000000E+00 0. -1.
         21    1    1    2  505  503  0.33101297506E+02  0.13489559591E+02 -0.37719376967E+02  0.51965522352E+02  0.00000000000E+00 0. -1.
         21    1    1    2  506  502 -0.79708564349E+02  0.91909005539E+02 -0.41742783800E+02  0.12862029595E+03  0.00000000000E+00 0. -1.
<scales pt_clust_3="30.26104" pt_clust_4="103.28785" pt_clust_5="30.26104" pt_clust_6="110.57061"></scales>
<clustering>
<clus scale="   30.261">  3  5 -1 -1</clus>
<clus scale="  103.288">  1  4  2 -1</clus>
<clus scale="  110.571">  1  6  2 -1</clus>
<clus scale="  103.288">  1  3  2 -1</clus>
</clustering>
</event>
<event>
 6    0  0.1704145E+002  0.2067803E+03  0.7546771E-02  0.1144141E+00
         21   -1    0    0  502  501  0.00000000000E+00  0.00000000000E+00  0.32530220895E+03  0.32530220895E+03  0.00000000000E+00 0.  1.
         21   -1    0    0  505  502 -0.00000000000E+00 -0.00000000000E+00 -0.24240484861E+04  0.24240484861E+04  0.00000000000E+00 0.  1.
         21    1    1    2  503  506  0.11710100501E+03  0.13923746400E+03  0.97420798492E+01  0.18219392107E+03  0.00000000000E+00 0.  1.
         21    1    1    2  504  503 -0.69296492034E+01 -0.48066135748E+02 -0.31656565624E+03  0.32026893099E+03  0.00000000000E+00 0.  1.
         21    1    1    2  505  504 -0.78743955636E+02 -0.12674530310E+03 -0.20141388355E+04  0.20196584441E+04  0.00000000000E+00 0.  1.
         21    1    1    2  506  501 -0.31427400169E+02  0.35573974854E+02  0.22221613472E+03  0.22722939884E+03  0.00000000000E+00 0.  1.
<scales pt_clust_3="193.85663" pt_clust_4="41.05022" pt_clust_5="41.05022" pt_clust_6="47.46777"></scales>
<clustering>
<clus scale="   41.050">  4  5 -1 -1</clus>
<clus scale="   47.468">  1  6  2 -1</clus>
<clus scale="  193.857">  1  3  2 -1</clus>
<clus scale="   47.468">  1  3  2 -1</clus>
</clustering>
</event>
<event>
 6    0  0.1704145E+002  0.1837954E+03  0.7546771E-02  0.1164180E+00
         21   -1    0    0  503  501  0.00000000000E+00  0.00000000000E+00  0.18385249286E+04  0.18385249286E+04  0.00000000000E+00 0. -1.
         21   -1    0    0  504  502 -0.00000000000E+00 -0.00000000000E+00 -0.71442337593E+02  0.71442337593E+02  0.00000000000E+00 0. -1.
         21    1    1    2  503  506  0.23289114687E+02 -0.24646577228E+02 -0.18256149074E+02  0.38511343926E+02  0.00000000000E+00 0. -1.
         21    1    1    2  504  505  0.30948546137E+02  0.48832729423E+01  0.65651239578E+02  0.72744375183E+02  0.00000000000E+00 0. -1.
         21    1    1    2  505  501 -0.16492725664E+03  0.41702983616E+02  0.16643658080E+04  0.16730372625E+04  0.00000000000E+00 0. -1.
         21    1    1    2  506  502  0.11068959581E+03 -0.21939679331E+02  0.55321692522E+02  0.12567428462E+03  0.00000000000E+00 0. -1.
<scales pt_clust_3="42.65489" pt_clust_4="31.33144" pt_clust_5="168.28027" pt_clust_6="42.65489"></scales>
<clustering>
<clus scale="   31.331">  2  4  1 -1</clus>
<clus scale="   42.655">  3  6 -1 -1</clus>
<clus scale="  168.280">  1  5  2 -1</clus>
<clus scale="  168.280">  1  3  2 -1</clus>
</clustering>
</event>
<event>
 6    0  0.1704145E+002  0.6933930E+02  0.7546771E-02  0.1362354E+00
         21   -1    0    0  505  501  0.00000000000E+00  0.00000000000E+00  0.10699343730E+04  0.10699343730E+04  0.00000000000E+00 0. -1.
         21   -1    0    0  506  502 -0.00000000000E+00 -0.00000000000E+00 -0.14130389487E+03  0.14130389487E+03  0.00000000000E+00 0. -1.
         21    1    1    2  503  502 -0.20424427417E+02  0.50363844707E+02 -0.32409526588E+02  0.63277575037E+02  0.00000000000E+00 0. -1.
         21    1    1    2  504  503  0.14012573928E+02  0.53154946208E+02  0.61819206507E+02  0.82724934740E+02  0.00000000000E+00 0. -1.
         21    1    1    2  505  504  0.51982736849E+02 -0.13307177608E+02  0.95042363331E+03  0.95193716634E+03  0.00000000000E+00 0. -1.
         21    1    1    2  506  501 -0.45570883360E+02 -0.90211613307E+02 -0.51202835057E+02  0.11329859180E+03  0.00000000000E+00 0. -1.
<scales pt_clust_3="50.51858" pt_clust_4="69.33930" pt_clust_5="53.65898" pt_clust_6="14000.00000"></scales>
<clustering>
<clus scale="   53.659">  1  5  2 -1</clus>
<clus scale="   50.519">  2  3  1 -1</clus>
<clus scale="   69.339">  1  4  2 -1</clus>
<clus scale="   53.659">  1  3  2 -1</clus>
</clustering>
</event>
<event>
 6    0  0.1704145E+002  0.2085989E+03  0.7546771E-02  0.1142680E+00
         21   -1    0    0  504  501  0.00000000000E+00  0.00000000000E+00  0.16171425200E+04  0.16171425200E+04  0.00000000000E+00 0. -1.
         21   -1    0    0  506  502 -0.00000000000E+00 -0.00000000000E+00 -0.28255150872E+03  0.28255150872E+03  0.00000000000E+00 0.  1.
         21    1    1    2  503  505 -0.40948640501E+02  0.20524022462E+03 -0.12197598043E+03  0.24223641503E+03  0.00000000000E+00 0.  1.
         21    1    1    2  504  502 -0.45268043037E+02 -0.14104352103E+03  0.20716918156E+03  0.25467928917E+03  0.00000000000E+00 0.  1.
         21    1    1    2  505  501  0.81379159416E+02 -0.96985019963E+02  0.13193295557E+04  0.13253901834E+04  0.00000000000E+00 0. -1.
         21    1    1    2  506  503  0.48375241221E+01  0.32788316366E+02 -0.69931745626E+02  0.77388141056E+02  0.00000000000E+00 0.  1.
<scales pt_clust_3="14000.00000" pt_clust_4="208.59889" pt_clust_5="126.28560" pt_clust_6="33.14325"></scales>
<clustering>
<clus scale="   33.143">  2  6  1 -1</clus>
<clus scale="  126.286">  1  5  2 -1</clus>
<clus scale="  208.599">  1  4  2 -1</clus>
<clus scale="  126.286">  1  3  2 -1</clus>
</clustering>
</event>
<event>
 6    0  0.1704145E+002  0.9895396E+02  0.7546771E-02  0.1282511E+00
         21   -1    0    0  504  501  0.00000000000E+00  0.00000000000E+00  0.17399242068E+03  0.17399242068E+03  0.00000000000E+00 0. -1.
         21   -1    0    0  503  502 -0.00000000000E+00 -0.00000000000E+00 -0.17003883184E+04  0.17003883184E+04  0.00000000000E+00 0.  1.
         21    1    1    2  503  501 -0.79061713208E+02  0.45624179563E+02 -0.30286982134E+03  0.31632649104E+03  0.00000000000E+00 0. -1.
         21    1    1    2  504  505 -0.16617251536E+02  0.33365149629E+02  0.15896705015E+03  0.16327856348E+03  0.00000000000E+00 0. -1.
         21    1    1    2  505  506  0.92451896874E+00 -0.42564808871E+02 -0.10568356300E+03  0.11393697020E+03  0.00000000000E+00 0.  1.
         21    1    1    2  506  502  0.94754445775E+02 -0.36424520321E+02 -0.12768095636E+04  0.12808387144E+04  0.00000000000E+00 0.  1.
<scales pt_clust_3="98.95396" pt_clust_4="37.27420" pt_clust_5="32.16898" pt_clust_6="14000.00000"></scales>
<clustering>
<clus scale="   37.274">  1  4  2 -1</clus>
<clus scale="   32.169">  1  5  2 -1</clus>
<clus scale="   98.954">  1  3  2 -1</clus>
<clus scale="   37.274">  1  3  2 -1</clus>
</clustering>
</event>
<event>
 6    0  0.1704145E+002  0.1140778E+03  0.7546771E-02  0.1253199E+00
         21   -1    0    0  505  501  0.00000000000E+00  0.00000000000E+00  0.91776360275E+02  0.91776360275E+02  0.00000000000E+00 0. -1.
         21   -1    0    0  503  502 -0.00000000000E+00 -0.00000000000E+00 -0.28626478434E+03  0.28626478434E+03  0.00000000000E+00 0. -1.
         21    1    1    2  503  504 -0.13972528432E+02  0.34844382512E+02 -0.51882247767E+02  0.64040066964E+02  0.00000000000E+00 0. -1.
         21    1    1    2  504  501 -0.49590856089E+02  0.14172393369E+02 -0.44232689360E+02  0.67945864844E+02  0.00000000000E+00 0. -1.
         21    1    1    2  505  506  0.12454482272E+03 -0.13689453677E+02 -0.31125001595E+00  0.12529529475E+03  0.00000000000E+00 0. -1.
         21    1    1    2  506  502 -0.60981438204E+02 -0.35327322204E+02 -0.98062236927E+02  0.12075991806E+03  0.00000000000E+00 0. -1.
<scales pt_clust_3="35.58055" pt_clust_4="35.58055" pt_clust_5="106.18143" pt_clust_6="70.47521"></scales>
<clustering>
<clus scale="   35.581">  3  4 -1 -1</clus>
<clus scale="   70.475">  2  6  1 -1</clus>
<clus scale="  106.181">  1  5  2 -1</clus>
<clus scale="  106.181">  1  3  2 -1</clus>
</clustering>
</event>
<event>
 6    0  0.1704145E+002  0.1048832E+03  0.7546771E-02  0.1270350E+00
         21   -1    0    0  503  501  0.00000000000E+00  0.00000000000E+00  0.75346011498E+02  0.75346011498E+02  0.00000000000E+00 0.  1.
         21   -1    0    0  501  502 -0.00000000000E+00 -0.00000000000E+00 -0.80371628449E+03  0.80371628449E+03  0.00000000000E+00 0. -1.
         21    1    1    2  503  506  0.76555496949E+02 -0.41777450197E+02  0.36557335090E+02  0.94564994618E+02  0.00000000000E+00 0.  1.
         21    1    1    2  504  502 -0.67241236664E+01 -0.47081516586E+02 -0.20666731074E+03  0.21206899908E+03  0.00000000000E+00 0. -1.
         21    1    1    2  505  504 -0.24694582984E+02  0.72686215240E+02 -0.29421376264E+03  0.30406388546E+03  0.00000000000E+00 0. -1.
         21    1    1    2  506  505 -0.45136790299E+02  0.16172751543E+02 -0.26404653471E+03  0.26836441683E+03  0.00000000000E+00 0. -1.
<scales pt_clust_3="88.05235" pt_clust_4="47.55926" pt_clust_5="45.03521" pt_clust_6="45.03521"></scales>
<clustering>
<clus scale="   45.035">  5  6 -1 -1</clus>
<clus scale="   47.559">  2  4  1 -1</clus>
<clus scale="   88.052">  1  3  2 -1</clus>
<clus scale="   88.052">  1  3  2 -1</clus>
</clustering>
</event>
<event>
 6    0  0.1704145E+002  0.7808195E+02  0.7546771E-02  0.1334584E+00
         21   -1    0    0  504  501  0.00000000000E+00  0.00000000000E+00  0.33809279581E+03  0.33809279581E+03  0.00000000000E+00 0. -1.
         21   -1    0    0  503  502 -0.00000000000E+00 -0.00000000000E+00 -0.32657596839E+03  0.32657596839E+03  0.00000000000E+00 0. -1.
         21    1    1    2  503  501  0.48851132879E+02 -0.70470897094E+02 -0.36692734466E+02  0.93268093598E+02  0.00000000000E+00 0. -1.
         21    1    1    2  504  505  0.38193703131E+02 -0.20386550558E+02  0.27972264205E+03  0.28305322269E+03  0.00000000000E+00 0. -1.
         21    1    1    2  505  506 -0.79627736617E+02  0.30959098800E+02 -0.54524482927E+02  0.10135068562E+03  0.00000000000E+00 0. -1.
         21    1    1    2  506  502 -0.74170993918E+01  0.59898348852E+02 -0.17698859723E+03  0.18699676229E+03  0.00000000000E+00 0. -1.
<scales pt_clust_3="78.08195" pt_clust_4="43.29400" pt_clust_5="14000.00000" pt_clust_6="58.24003"></scales>
<clustering>
<clus scale="   43.294">  1  4  2 -1</clus>
<clus scale="   58.240">  2  6  1 -1</clus>
<clus scale="   78.082">  2  3  1 -1</clus>
<clus scale="   43.294">  1  3  2 -1</clus>
</clustering>
</event>
<event>
 6    0  0.1704145E+002  0.1458874E+03  0.7546771E-02  0.1205620E+00
         21   -1    0    0  504  501  0.00000000000E+00  0.00000000000E+00  0.54352277155E+03  0.54352277155E+03  0.00000000000E+00 0. -1.
         21   -1    0    0  505  502 -0.00000000000E+00 -0.00000000000E+00 -0.73621589419E+03  0.73621589419E+03  0.00000000000E+00 0. -1.
         21    1    1    2  503  501 -0.23859199042E+02 -0.80096687034E+02 -0.30243795771E+03  0.31377294166E+03  0.00000000000E+00 0. -1.
         21    1    1    2  504  506 -0.78727757200E+00  0.38549247543E+02  0.50685214441E+03  0.50831659483E+03  0.00000000000E+00 0. -1.
         21    1    1    2  505  503 -0.50769422769E+02 -0.49243717951E+02 -0.28921808190E+03  0.29774078818E+03  0.00000000000E+00 0. -1.
         21    1    1    2  506  502  0.75415899382E+02  0.90791157442E+02 -0.10788922744E+03  0.15990834108E+03  0.00000000000E+00 0. -1.
<scales pt_clust_3="36.72618" pt_clust_4="38.55729" pt_clust_5="36.72618" pt_clust_6="140.31863"></scales>
<clustering>
<clus scale="   36.726">  3  5 -1 -1</clus>
<clus scale="   38.557">  1  4  2 -1</clus>
<clus scale="  140.319">  1  6  2 -1</clus>
<clus scale="   38.557">  1  3  2 -1</clus>
</clustering>
</event>
<event>
 6    0  0.1704145E+002  0.2825031E+03  0.7546771E-02  0.1094330E+00
         21   -1    0    0  503  501  0.00000000000E+00  0.00000000000E+00  0.25904788209E+03  0.25904788209E+03  0.00000000000E+00 0. -1.
         21   -1    0    0  505  502 -0.00000000000E+00 -0.00000000000E+00 -0.11886971514E+04  0.11886971514E+04  0.00000000000E+00 0. -1.
         21    1    1    2  503  504 -0.23675836072E+03 -0.29653762329E+02 -0.36229135366E+03  0.43380743646E+03  0.00000000000E+00 0. -1.
         21    1    1    2  504  506  0.17521152629E+03 -0.23993913350E+02 -0.55972309082E+03  0.58699635878E+03  0.00000000000E+00 0. -1.
         21    1    1    2  505  501 -0.37170967757E+02  0.20740471129E+01  0.19348860159E+03  0.19703761433E+03  0.00000000000E+00 0. -1.
         21    1    1    2  506  502  0.98717802193E+02  0.51573628566E+02 -0.20112342646E+03  0.22990362395E+03  0.00000000000E+00 0. -1.
<scales pt_clust_3="259.16739" pt_clust_4="88.32494" pt_clust_5="37.22879" pt_clust_6="88.32494"></scales>
<clustering>
<clus scale="   37.229">  1  5  2 -1</clus>
<clus scale="   88.325">  4  6 -1 -1</clus>
<clus scale="  259.167">  1  3  2 -1</clus>
<clus scale="   37.229">  1  3  2 -1</clus>
</clustering>
</event>
<event>
 6    0  0.1704145E+002  0.1138703E+03  0.7546771E-02  0.1253566E+00
         21   -1    0    0  506  501  0.00000000000E+00  0.00000000000E+00  0.14731101647E+04  0.14731101647E+04  0.00000000000E+00 0.  1.
         21   -1    0    0  505  502 -0.00000000000E+00 -0.00000000000E+00 -0.45805926104E+03  0.45805926104E+03  0.00000000000E+00 0.  1.
         21    1    1    2  503  502  0.81596062007E+02  0.50210687266E+02 -0.84782415106E+02  0.12793392186E+03  0.00000000000E+00 0.  1.
         21    1    1    2  504  501  0.54915462168E+02  0.26276618050E+02 -0.29331196177E+03  0.29956314119E+03  0.00000000000E+00 0.  1.
         21    1    1    2  505  504 -0.31307898838E+02 -0.31858412586E+02 -0.43582682364E+02  0.62406675798E+02  0.00000000000E+00 0.  1.
         21    1    1    2  506  503 -0.10520362534E+03 -0.44628892730E+02  0.14367279629E+04  0.14412656869E+04  0.00000000000E+00 0.  1.
<scales pt_clust_3="113.87034" pt_clust_4="32.14022" pt_clust_5="44.66702" pt_clust_6="14000.00000"></scales>
<clustering>
<clus scale="   44.667">  2  5  1 -1</clus>
<clus scale="   32.140">  2  4  1 -1</clus>
<clus scale="  113.870">  2  3  1 -1</clus>
<clus scale="  113.870">  1  3  2 -1</clus>
</clustering>
</event>
<event>
 6    0  0.1704145E+002  0.1382115E+03  0.7546771E-02  0.1215756E+00
         21   -1    0    0  503  501  0.00000000000E+00  0.00000000000E+00  0.36928552323E+03  0.36928552323E+03  0.00000000000E+00 0.  1.
         21   -1    0    0  505  502 -0.00000000000E+00 -0.00000000000E+00 -0.42884977744E+03  0.42884977744E+03  0.00000000000E+00 0.  1.
         21    1    1    2  503  502  0.18877924180E+03 -0.14047620178E+03 -0.16410002792E+03  0.28687973885E+03  0.00000000000E+00 0.  1.
         21    1    1    2  504  501 -0.12104572749E+03  0.52803047757E+02  0.27296605447E+03  0.30323373309E+03  0.00000000000E+00 0.  1.
         21    1    1    2  505  506 -0.19210128366E+02  0.65785012741E+02 -0.87285749753E+02  0.11097521815E+03  0.00000000000E+00 0.  1.
         21    1    1    2  506  504 -0.48523385949E+02  0.21888141285E+02 -0.81144530999E+02  0.97046610574E+02  0.00000000000E+00 0.  1.
<scales pt_clust_3="138.21154" pt_clust_4="14000.00000" pt_clust_5="122.08326" pt_clust_6="45.19677"></scales>
<clustering>
<clus scale="   45.197">  5  6 -1 -1</clus>
<clus scale="  122.083">  2  5  1 -1</clus>
<clus scale="  138.212">  2  3  1 -1</clus>
<clus scale="  138.212">  1  3  2 -1</clus>
</clustering>
</event>
<event>
 6    0  0.1704145E+002  0.1630037E+03  0.7546771E-02  0.1185347E+00
         21   -1    0    0  503  501  0.00000000000E+00  0.00000000000E+00  0.63281759673E+03  0.63281759673E+03  0.00000000000E+00 0.  1.
         21   -1    0    0  504  502 -0.00000000000E+00 -0.00000000000E+00 -0.18091524572E+03  0.18091524572E+03  0.00000000000E+00 0. -1.
         21    1    1    2  503  506 -0.25269517124E+02  0.47462101424E+02  0.73741968635E+01  0.54273182573E+02  0.00000000000E+00 0. -1.
         21    1    1    2  504  505  0.12916337382E+03 -0.54487391943E+01 -0.22787316789E+02  0.13127119906E+03  0.00000000000E+00 0. -1.
         21    1    1    2  505  501  0.25550066279E+02 -0.61747733701E+02  0.49065527072E+03  0.49518499896E+03  0.00000000000E+00 0.  1.
         21    1    1    2  506  502 -0.12944392298E+03  0.19734371472E+02 -0.23339799784E+02  0.13300346186E+03  0.00000000000E+00 0. -1.
<scales pt_clust_3="51.12911" pt_clust_4="142.14142" pt_clust_5="66.82506" pt_clust_6="51.12911"></scales>
<clustering>
<clus scale="   51.129">  3  6 -1 -1</clus>
<clus scale="   66.825">  1  5  2 -1</clus>
<clus scale="  142.141">  2  4  1 -1</clus>
<clus scale="   66.825">  1  3  2 -1</clus>
</clustering>
</event>
<event>
 6    0  0.1704145E+002  0.1452334E+03  0.7546771E-02  0.1206456E+00
         21   -1    0    0  504  501  0.00000000000E+00  0.00000000000E+00  0.61691916658E+03  0.61691916658E+03  0.00000000000E+00 0. -1.
         21   -1    0    0  506  502 -0.00000000000E+00 -0.00000000000E+00 -0.19477631577E+04  0.19477631577E+04  0.00000000000E+00 0.  1.
         21    1    1    2  503  501  0.39328934251E+01 -0.80622372145E+02 -0.11632466030E+04  0.11660437787E+04  0.00000000000E+00 0.  1.
         21    1    1    2  504  505  0.16187999127E+02  0.30951473244E+02  0.59901523667E+03  0.60003274808E+03  0.00000000000E+00 0. -1.
         21    1    1    2  505  502  0.32953687015E+01  0.11089010236E+03 -0.20422889334E+03  0.23241539349E+03  0.00000000000E+00 0.  1.
         21    1    1    2  506  503 -0.23416261254E+02 -0.61219203458E+02 -0.56238373154E+03  0.56619040407E+03  0.00000000000E+00 0.  1.
<scales pt_clust_3="42.92441" pt_clust_4="34.92914" pt_clust_5="136.95318" pt_clust_6="42.92441"></scales>
<clustering>
<clus scale="   34.929">  1  4  2 -1</clus>
<clus scale="   42.924">  3  6 -1 -1</clus>
<clus scale="  136.953">  1  5  2 -1</clus>
<clus scale="   34.929">  1  3  2 -1</clus>
</clustering>
</event>
<event>
 6    0  0.1704145E+002  0.2327292E+03  0.7546771E-02  0.1124733E+00
         21   -1    0    0  506  501  0.00000000000E+00  0.00000000000E+00  0.97061767306E+02  0.97061767306E+02  0.00000000000E+00 0. -1.
         21   -1    0    0  504  502 -0.00000000000E+00 -0.00000000000E+00 -0.65354228660E+03  0.65354228660E+03  0.00000000000E+00 0. -1.
         21    1    1    2  503  501  0.52104070703E+01  0.39326037083E+02 -0.11579546137E+02  0.41325191146E+02  0.00000000000E+00 0. -1.
         21    1    1    2  504  503  0.20058656497E+03 -0.74326345359E+02 -0.33484340102E+03  0.39734050746E+03  0.00000000000E+00 0. -1.
         21    1    1    2  505  502 -0.12044806350E+03 -0.15119305697E+02 -0.16052953028E+03  0.20126117235E+03  0.00000000000E+00 0. -1.
         21    1    1    2  506  505 -0.85348908546E+02  0.50119613972E+02 -0.49528041853E+02  0.11067718294E+03  0.00000000000E+00 0. -1.
<scales pt_clust_3="39.66971" pt_clust_4="211.08991" pt_clust_5="92.20634" pt_clust_6="92.20634"></scales>
<clustering>
<clus scale="   39.670">  1  3  2 -1</clus>
<clus scale="   92.206">  5  6 -1 -1</clus>
<clus scale="  211.090">  2  4  1 -1</clus>
<clus scale="   39.670">  1  3  2 -1</clus>
</clustering>
</event>
<event>
 6    0  0.1704145E+002  0.6799612E+02  0.7546771E-02  0.1367043E+00
         21   -1    0    0  505  501  0.00000000000E+00  0.00000000000E+00  0.39679850999E+03  0.39679850999E+03  0.00000000000E+00 0.  1.
         21   -1    0    0  506  502 -0.00000000000E+00 -0.00000000000E+00 -0.31758445027E+03  0.31758445027E+03  0.00000000000E+00 0.  1.
         21    1    1    2  503  502 -0.50628881908E+02  0.13398893501E+02 -0.82681208899E+01  0.53020522945E+02  0.00000000000E+00 0.  1.
         21    1    1    2  504  501  0.75019418118E+01  0.86191374627E+02 -0.79856226091E+02  0.11773805263E+03  0.00000000000E+00 0.  1.
         21    1    1    2  505  503  0.14866454080E+02 -0.65862176964E+02  0.34963374015E+03  0.35609351309E+03  0.00000000000E+00 0.  1.
         21    1    1    2  506  504  0.28260486017E+02 -0.33728091164E+02 -0.18229533346E+03  0.18753087160E+03  0.00000000000E+00 0.  1.
<scales pt_clust_3="44.45648" pt_clust_4="67.99612" pt_clust_5="14000.00000" pt_clust_6="44.00272"></scales>
<clustering>
<clus scale="   44.003">  2  6  1 -1</clus>
<clus scale="   44.456">  2  3  1 -1</clus>
<clus scale="   67.996">  2  4  1 -1</clus>
<clus scale="   67.996">  1  3  2 -1</clus>
</clustering>
</event>
<event>
 6    0  0.1704145E+002  0.1114384E+03  0.7546771E-02  0.1257929E+00
         21   -1    0    0  505  501  0.00000000000E+00  0.00000000000E+00  0.97356857375E+02  0.97356857375E+02  0.00000000000E+00 0.  1.
         21   -1    0    0  503  502 -0.00000000000E+00 -0.00000000000E+00 -0.10307518441E+04  0.10307518441E+04  0.00000000000E+00 0.  1.
         21    1    1    2  503  506  0.18440018336E+02 -0.10751906607E+03 -0.66995552227E+03  0.67877889306E+03  0.00000000000E+00 0.  1.
         21    1    1    2  504  501 -0.30182585865E+02  0.40772815169E+02  0.58325552654E+02  0.77299942036E+02  0.00000000000E+00 0.  1.
         21    1    1    2  505  502 -0.98755737610E+01  0.12181188796E+03 -0.17193222926E+03  0.21094159017E+03  0.00000000000E+00 0.  1.
         21    1    1    2  506  504  0.21618141290E+02 -0.55065637061E+02 -0.14983278790E+03  0.16108827626E+03  0.00000000000E+00 0.  1.
<scales pt_clust_3="14000.00000" pt_clust_4="50.72880" pt_clust_5="111.43839" pt_clust_6="49.88999"></scales>
<clustering>
<clus scale="   50.729">  1  4  2 -1</clus>
<clus scale="   49.890">  1  6  2 -1</clus>
<clus scale="  111.438">  1  5  2 -1</clus>
<clus scale="   50.729">  1  3  2 -1</clus>
</clustering>
</event>
<event>
 6    0  0.1704145E+002  0.1406259E+03  0.7546771E-02  0.1212489E+00
         21   -1    0    0  503  501  0.00000000000E+00  0.00000000000E+00  0.24861983135E+03  0.24861983135E+03  0.00000000000E+00 0.  1.
         21   -1    0    0  504  502 -0.00000000000E+00 -0.00000000000E+00 -0.29740645923E+03  0.29740645923E+03  0.00000000000E+00 0.  1.
         21    1    1    2  503  505  0.21995596816E+02  0.35955936430E+02  0.11379860596E+03  0.12135385599E+03  0.00000000000E+00 0.  1.
         21    1    1    2  504  501 -0.79280686767E+02  0.72686721974E+02 -0.18733533098E+03  0.21601692776E+03  0.00000000000E+00 0.  1.
         21    1    1    2  505  506  0.80090638643E+02 -0.14227635887E+03  0.34478693717E+02  0.16687076740E+03  0.00000000000E+00 0.  1.
         21    1    1    2  506  502 -0.22805548692E+02  0.33633700470E+02 -0.97285965791E+01  0.41784739437E+02  0.00000000000E+00 0.  1.
<scales pt_clust_3="42.38677" pt_clust_4="140.62593" pt_clust_5="14000.00000" pt_clust_6="40.63642"></scales>
<clustering>
<clus scale="   40.636">  2  6  1 -1</clus>
<clus scale="   42.387">  1  3  2 -1</clus>
<clus scale="  140.626">  2  4  1 -1</clus>
<clus scale="   42.387">  1  3  2 -1</clus>
</clustering>
</event>
<event>
 6    0  0.1704145E+002  0.2817561E+03  0.7546771E-02  0.1094734E+00
         21   -1    0    0  505  501  0.00000000000E+00  0.00000000000E+00  0.86528007911E+03  0.86528007911E+03  0.00000000000E+00 0.  1.
         21   -1    0    0  506  502 -0.00000000000E+00 -0.00000000000E+00 -0.27695568514E+03  0.27695568514E+03  0.00000000000E+00 0.  1.
         21    1    1    2  503  501  0.58807743168E+02 -0.65888076674E+02  0.51938381250E+03  0.52683881216E+03  0.00000000000E+00 0.  1.
         21    1    1    2  504  503  0.22146685126E+03 -0.10595603953E+03  0.83651620264E+02  0.25936815936E+03  0.00000000000E+00 0.  1.
         21    1    1    2  505  502 -0.28497540686E+03  0.13265001824E+03 -0.13019403407E+01  0.31433851960E+03  0.00000000000E+00 0.  1.
         21    1    1    2  506  504  0.47008124329E+01  0.39194097961E+02 -0.13409098462E+02  0.41690273135E+02  0.00000000000E+00 0.  1.
<scales pt_clust_3="87.92616" pt_clust_4="14000.00000" pt_clust_5="281.75612" pt_clust_6="39.47499"></scales>
<clustering>
<clus scale="   39.475">  2  6  1 -1</clus>
<clus scale="   87.926">  1  3  2 -1</clus>
<clus scale="  281.756">  2  5  1 -1</clus>
<clus scale="   87.926">  1  3  2 -1</clus>
</clustering>
</event>
<event>
 6    0  0.1704145E+002  0.3430749E+03  0.7546771E-02  0.1065494E+00
         21   -1    0    0  505  501  0.00000000000E+00  0.00000000000E+00  0.51228214109E+03  0.51228214109E+03  0.00000000000E+00 0. -1.
         21   -1    0    0  501  502 -0.00000000000E+00 -0.00000000000E+00 -0.53297016130E+03  0.53297016130E+03  0.00000000000E+00 0. -1.
         21    1    1    2  503  506 -0.12478541433E+03 -0.58130257699E+01 -0.17398665290E+03  0.21418810958E+03  0.00000000000E+00 0. -1.
         21    1    1    2  504  503  0.22813357898E+03 -0.19393713429E+03  0.37554280332E+03  0.48030088386E+03  0.00000000000E+00 0. -1.
         21    1    1    2  505  504  0.25152471962E+02  0.24789943344E+02  0.59454609173E+01  0.35812520748E+02  0.00000000000E+00 0.  1.
         21    1    1    2  506  502 -0.12850063661E+03  0.17496021671E+03 -0.22818963155E+03  0.31495078820E+03  0.00000000000E+00 0. -1.
<scales pt_clust_3="120.43323" pt_clust_4="303.68204" pt_clust_5="35.31555" pt_clust_6="120.43323"></scales>
<clustering>
<clus scale="   35.316">  1  5  2 -1</clus>
<clus scale="  120.433">  3  6 -1 -1</clus>
<clus scale="  303.682">  1  4  2 -1</clus>
<clus scale="   35.316">  1  3  2 -1</clus>
</clustering>
</event>
<event>
 6    0  0.1704145E+002  0.7655536E+02  0.7546771E-02  0.1339121E+00
         21   -1    0    0  503  501  0.00000000000E+00  0.00000000000E+00  0.13813768089E+03  0.13813768089E+03  0.00000000000E+00 0.  1.
         21   -1    0    0  504  502 -0.00000000000E+00 -0.00000000000E+00 -0.54073762377E+03  0.54073762377E+03  0.00000000000E+00 0.  1.
         21    1    1    2  503  502  0.23170177031E+02  0.25601359947E+02 -0.24861806364E+02  0.42548750281E+02  0.00000000000E+00 0.  1.
         21    1    1    2  504  506  0.55103081569E+02  0.47450380237E+02 -0.34669907647E+03  0.35424304906E+03  0.00000000000E+00 0.  1.
         21    1    1    2  505  501 -0.37587948813E+02  0.19769443898E+02  0.10452541206E+03  0.11282396276E+03  0.00000000000E+00 0.  1.
         21    1    1    2  506  505 -0.40685309787E+02 -0.92821184081E+02 -0.13556447210E+03  0.16925954254E+03  0.00000000000E+00 0.  1.
<scales pt_clust_3="34.52951" pt_clust_4="76.55536" pt_clust_5="45.08628" pt_clust_6="14000.00000"></scales>
<clustering>
<clus scale="   34.530">  1  3  2 -1</clus>
<clus scale="   45.086">  1  5  2 -1</clus>
<clus scale="   76.555">  2  4  1 -1</clus>
<clus scale="   34.530">  1  3  2 -1</clus>
</clustering>
</event>
<event>
 6    0  0.1704145E+002  0.2035186E+03  0.7546771E-02  0.1146804E+00
         21   -1    0    0  505  501  0.00000000000E+00  0.00000000000E+00  0.34545981778E+03  0.34545981778E+03  0.00000000000E+00 0. -1.
         21   -1    0    0  503  502 -0.00000000000E+00 -0.00000000000E+00 -0.75365867126E+03  0.75365867126E+03  0.00000000000E+00 0.  1.
         21    1    1    2  503  504 -0.14569515445E+02  0.33391360248E+02 -0.22914926219E+02  0.43038907551E+02  0.00000000000E+00 0.  1.
         21    1    1    2  504  501  0.50628531626E+01 -0.33375150206E+02  0.26825057651E+03  0.27036624222E+03  0.00000000000E+00 0. -1.
         21    1    1    2  505  506  0.10764775614E+03 -0.17659116970E+03 -0.19326322810E+03  0.28306033977E+03  0.00000000000E+00 0.  1.
         21    1    1    2  506  502 -0.98141093857E+02  0.17657495965E+03 -0.46027127568E+03  0.50265299949E+03  0.00000000000E+00 0.  1.
<scales pt_clust_3="32.14265" pt_clust_4="33.75697" pt_clust_5="203.51862" pt_clust_6="14000.00000"></scales>
<clustering>
<clus scale="   33.757">  1  4  2 -1</clus>
<clus scale="   32.143">  1  3  2 -1</clus>
<clus scale="  203.519">  1  5  2 -1</clus>
<clus scale="   33.757">  1  3  2 -1</clus>
</clustering>
</event>
<event>
 6    0  0.1704145E+002  0.2028683E+03  0.7546771E-02  0.1147341E+00
         21   -1    0    0  503  501  0.00000000000E+00  0.00000000000E+00  0.49266423873E+03  0.49266423873E+03  0.00000000000E+00 0. -1.
         21   -1    0    0  505  502 -0.00000000000E+00 -0.00000000000E+00 -0.22720217515E+03  0.22720217515E+03  0.00000000000E+00 0. -1.
         21    1    1    2  503  506  0.96972084565E+02  0.19880034964E+03  0.30956147433E+03  0.38046480861E+03  0.00000000000E+00 0. -1.
         21    1    1    2  504  502  0.21743201163E+02 -0.47458587989E+02 -0.67711145425E+01  0.52639646302E+02  0.00000000000E+00 0.  1.
         21    1    1    2  505  501 -0.15870165754E+03 -0.95003167332E+02  0.33327581187E+02  0.18794293171E+03  0.00000000000E+00 0. -1.
         21    1    1    2  506  504  0.39986371816E+02 -0.56338594316E+02 -0.70655877388E+02  0.98819027267E+02  0.00000000000E+00 0. -1.
<scales pt_clust_3="14000.00000" pt_clust_4="42.23191" pt_clust_5="202.86833" pt_clust_6="130.17216"></scales>
<clustering>
<clus scale="   42.232">  4  6 -1 -1</clus>
<clus scale="  130.172">  2  4  1 -1</clus>
<clus scale="  202.868">  2  5  1 -1</clus>
<clus scale="  202.868">  1  3  2 -1</clus>
</clustering>
</event>
<event>
 6    0  0.1704145E+002  0.2549165E+03  0.7546771E-02  0.1110237E+00
         21   -1    0    0  506  501  0.00000000000E+00  0.00000000000E+00  0.22325837805E+03  0.22325837805E+03  0.00000000000E+00 0. -1.
         21   -1    0    0  504  502 -0.00000000000E+00 -0.00000000000E+00 -0.46878501951E+03  0.46878501951E+03  0.00000000000E+00 0.  1.
         21    1    1    2  503  505  0.14232635670E+03 -0.12333691675E+02 -0.17630156657E+03  0.22691662376E+03  0.00000000000E+00 0.  1.
         21    1    1    2  504  503  0.99542109986E+02  0.56022831538E+02 -0.13007476663E+03  0.17310873528E+03  0.00000000000E+00 0.  1.
         21    1    1    2  505  501 -0.22359323844E+03 -0.80944746901E+02  0.73056327201E+02  0.24876337204E+03  0.00000000000E+00 0. -1.
         21    1    1    2  506  502 -0.18275228247E+02  0.37255607038E+02 -0.12206635455E+02  0.43254666481E+02  0.00000000000E+00 0.  1.
<scales pt_clust_3="68.48156" pt_clust_4="68.48156" pt_clust_5="243.38792" pt_clust_6="41.49656"></scales>
<clustering>
<clus scale="   41.497">  1  6  2 -1</clus>
<clus scale="   68.482">  3  4 -1 -1</clus>
<clus scale="  243.388">  1  5  2 -1</clus>
<clus scale="   41.497">  1  3  2 -1</clus>
</clustering>
</event>
<event>
 6    0  0.1704145E+002  0.1171691E+03  0.7546771E-02  0.1247842E+00
         21   -1    0    0  503  501  0.00000000000E+00  0.00000000000E+00  0.24044195217E+02  0.24044195217E+02  0.00000000000E+00 0.  1.
         21   -1    0    0  504  502 -0.00000000000E+00 -0.00000000000E+00 -0.21487748198E+04  0.21487748198E+04  0.00000000000E+00 0.  1.
         21    1    1    2  503  506  0.40318249164E+02  0.15614354308E+01 -0.14909161217E+03  0.15445487404E+03  0.00000000000E+00 0.  1.
         21    1    1    2  504  505 -0.97178367800E+01 -0.12525934085E+03 -0.17151978110E+04  0.17197929729E+04  0.00000000000E+00 0.  1.
         21    1    1    2  505  501 -0.23017330714E+02  0.35938017577E+02 -0.30844450520E+02  0.52656611631E+02  0.00000000000E+00 0.  1.
         21    1    1    2  506  502 -0.75830816706E+01  0.87759887838E+02 -0.22959675081E+03  0.24591455635E+03  0.00000000000E+00 0.  1.
<scales pt_clust_3="40.34847" pt_clust_4="117.16913" pt_clust_5="36.81571" pt_clust_6="14000.00000"></scales>
<clustering>
<clus scale="   40.348">  1  3  2 -1</clus>
<clus scale="   36.816">  1  5  2 -1</clus>
<clus scale="  117.169">  2  4  1 -1</clus>
<clus scale="   40.348">  1  3  2 -1</clus>
</clustering>
</event>
<event>
 6    0  0.1704145E+002  0.9912507E+02  0.7546771E-02  0.1282147E+00
         21   -1    0    0  506  501  0.00000000000E+00  0.00000000000E+00  0.63430483543E+03  0.63430483543E+03  0.00000000000E+00 0.  1.
         21   -1    0    0  503  502 -0.00000000000E+00 -0.00000000000E+00 -0.42217938818E+02  0.42217938818E+02  0.00000000000E+00 0.  1.
         21    1    1    2  503  504  0.36167513071E+02  0.85194142127E+02  0.52116308582E+02  0.10621789150E+03  0.00000000000E+00 0.  1.
         21    1    1    2  504  501 -0.71222841308E+02  0.46949175766E+01  0.29009411518E+03  0.29874626531E+03  0.00000000000E+00 0.  1.
         21    1    1    2  505  502  0.27685290866E+02 -0.27991599150E+02  0.60456579485E+02  0.72145706430E+02  0.00000000000E+00 0.  1.
         21    1    1    2  506  505  0.73700373715E+01 -0.61897460553E+02  0.18941989337E+03  0.19941291101E+03  0.00000000000E+00 0. -1.
<scales pt_clust_3="88.48088" pt_clust_4="71.37742" pt_clust_5="35.51386" pt_clust_6="35.51386"></scales>
<clustering>
<clus scale="   35.514">  5  6 -1 -1</clus>
<clus scale="   71.377">  1  4  2 -1</clus>
<clus scale="   88.481">  2  3  1 -1</clus>
<clus scale="   71.377">  1  3  2 -1</clus>
</clustering>
</event>
<event>
 6    0  0.1704145E+002  0.8891388E+02  0.7546771E-02  0.1305503E+00
         21   -1    0    0  506  501  0.00000000000E+00  0.00000000000E+00  0.87532434801E+03  0.87532434801E+03  0.00000000000E+00 0. -1.
         21   -1    0    0  505  502 -0.00000000000E+00 -0.00000000000E+00 -0.34203994599E+03  0.34203994599E+03  0.00000000000E+00 0.  1.
         21    1    1    2  503  501 -0.79772554880E+02 -0.76208799821E+02  0.10478308894E+03  0.15215432104E+03  0.00000000000E+00 0.  1.
         21    1    1    2  504  502  0.37932303941E+02  0.24725717556E+02 -0.28367615237E+03  0.28726708864E+03  0.00000000000E+00 0.  1.
         21    1    1    2  505  503  0.13546352734E+02  0.67874248414E+02  0.43381036696E+01  0.69348658340E+02  0.00000000000E+00 0.  1.
         21    1    1    2  506  504  0.28293898204E+02 -0.16391166148E+02  0.70783936178E+03  0.70859422597E+03  0.00000000000E+00 0. -1.
<scales pt_clust_3="88.91388" pt_clust_4="45.43895" pt_clust_5="14000.00000" pt_clust_6="32.69885"></scales>
<clustering>
<clus scale="   32.699">  1  6  2 -1</clus>
<clus scale="   45.439">  2  4  1 -1</clus>
<clus scale="   88.914">  1  3  2 -1</clus>
<clus scale="   32.699">  1  3  2 -1</clus>
</clustering>
</event>
<event>
 6    0  0.1704145E+002  0.1234604E+03  0.7546771E-02  0.1237495E+00
         21   -1    0    0  504  501  0.00000000000E+00  0.00000000000E+00  0.47389657926E+03  0.47389657926E+03  0.00000000000E+00 0.  1.
         21   -1    0    0  505  502 -0.00000000000E+00 -0.00000000000E+00 -0.11793458222E+03  0.11793458222E+03  0.00000000000E+00 0.  1.
         21    1    1    2  503  502  0.37999771754E+02  0.15050298517E+02 -0.33420047927E+02  0.52795773905E+02  0.00000000000E+00 0.  1.
         21    1    1    2  504  503  0.71951303564E+02  0.16550840677E+01  0.89050599902E+01  0.72519166303E+02  0.00000000000E+00 0.  1.
         21    1    1    2  505  506 -0.11491371382E+03  0.24218028150E+02  0.40764603408E+02  0.12431181522E+03  0.00000000000E+00 0.  1.
         21    1    1    2  506  501  0.49626385011E+01 -0.40923410735E+02  0.33971238158E+03  0.34220440606E+03  0.00000000000E+00 0.  1.
<scales pt_clust_3="39.40730" pt_clust_4="39.40730" pt_clust_5="111.83886" pt_clust_6="41.22321"></scales>
<clustering>
<clus scale="   39.407">  3  4 -1 -1</clus>
<clus scale="   41.223">  1  6  2 -1</clus>
<clus scale="  111.839">  1  5  2 -1</clus>
<clus scale="   41.223">  1  3  2 -1</clus>
</clustering>
</event>
<event>
 6    0  0.1704145E+002  0.3219761E+03  0.7546771E-02  0.1074743E+00
         21   -1    0    0  505  501  0.00000000000E+00  0.00000000000E+00  0.59116161004E+03  0.59116161004E+03  0.00000000000E+00 0. -1.
         21   -1    0    0  506  502 -0.00000000000E+00 -0.00000000000E+00 -0.81052404951E+03  0.81052404951E+03  0.00000000000E+00 0. -1.
         21    1    1    2  503  502 -0.27530427744E+03  0.12636420009E+03 -0.32930544741E+03  0.44743986628E+03  0.00000000000E+00 0. -1.
         21    1    1    2  504  503  0.28895625441E+03 -0.19653510579E+03 -0.30118333998E+03  0.46133845391E+03  0.00000000000E+00 0. -1.
         21    1    1    2  505  504 -0.37796980926E+02  0.30620138082E+02  0.43709166152E+03  0.43979009220E+03  0.00000000000E+00 0. -1.
         21    1    1    2  506  501  0.24145003965E+02  0.39550767621E+02 -0.25965313605E+02  0.53117247167E+02  0.00000000000E+00 0. -1.
<scales pt_clust_3="14000.00000" pt_clust_4="321.97608" pt_clust_5="48.65445" pt_clust_6="46.33837"></scales>
<clustering>
<clus scale="   46.338">  2  6  1 -1</clus>
<clus scale="   48.654">  1  5  2 -1</clus>
<clus scale="  321.976">  1  4  2 -1</clus>
<clus scale="   48.654">  1  3  2 -1</clus>
</clustering>
</event>
<event>
 6    0  0.1704145E+002  0.1307131E+03  0.7546771E-02  0.1226401E+00
         21   -1    0    0  503  501  0.00000000000E+00  0.00000000000E+00  0.17013053894E+04  0.17013053894E+04  0.00000000000E+00 0. -1.
         21   -1    0    0  505  502 -0.00000000000E+00 -0.00000000000E+00 -0.45320606198E+03  0.45320606198E+03  0.00000000000E+00 0.  1.
         21    1    1    2  503  506 -0.40406148182E+02 -0.33259794182E+02  0.16429762685E+04  0.16438095661E+04  0.00000000000E+00 0. -1.
         21    1    1    2  504  502  0.67362619614E+02 -0.41195475548E+02 -0.37902108392E+02  0.87586297715E+02  0.00000000000E+00 0.  1.
         21    1    1    2  505  501 -0.94246989915E+02  0.81243074445E+02 -0.32558908882E+03  0.34855585924E+03  0.00000000000E+00 0.  1.
         21    1    1    2  506  504  0.67290518483E+02 -0.67878047158E+01 -0.31385743874E+02  0.74559728333E+02  0.00000000000E+00 0. -1.
<scales pt_clust_3="52.33422" pt_clust_4="30.08425" pt_clust_5="126.60666" pt_clust_6="30.08425"></scales>
<clustering>
<clus scale="   30.084">  4  6 -1 -1</clus>
<clus scale="   52.334">  1  3  2 -1</clus>
<clus scale="  126.607">  2  5  1 -1</clus>
<clus scale="   52.334">  1  3  2 -1</clus>
</clustering>
</event>
<event>
 6    0  0.1704145E+002  0.9665315E+02  0.7546771E-02  0.1287496E+00
         21   -1    0    0  505  501  0.00000000000E+00  0.00000000000E+00  0.20795811882E+03  0.20795811882E+03  0.00000000000E+00 0. -1.
         21   -1    0    0  506  502 -0.00000000000E+00 -0.00000000000E+00 -0.28518414218E+03  0.28518414218E+03  0.00000000000E+00 0. -1.
         21    1    1    2  503  502  0.16151435748E+01  0.31656897756E+02 -0.23002922258E+02  0.39165064748E+02  0.00000000000E+00 0.  1.
         21    1    1    2  504  501 -0.90977665467E+02  0.18066396746E+02  0.14641785998E+03  0.17332489731E+03  0.00000000000E+00 0. -1.
         21    1    1    2  505  503  0.13660936077E+03 -0.53809668076E+02 -0.13344074959E+03  0.19840370833E+03  0.00000000000E+00 0. -1.
         21    1    1    2  506  504 -0.47246838882E+02  0.40863735738E+01 -0.67200211491E+02  0.82248590613E+02  0.00000000000E+00 0. -1.
<scales pt_clust_3="31.69807" pt_clust_4="96.65315" pt_clust_5="14000.00000" pt_clust_6="48.65241"></scales>
<clustering>
<clus scale="   31.698">  2  3  1 -1</clus>
<clus scale="   48.652">  2  6  1 -1</clus>
<clus scale="   96.653">  1  4  2 -1</clus>
<clus scale="   96.653">  1  3  2 -1</clus>
</clustering>
</event>
<event>
 6    0  0.1704145E+002  0.9705170E+02  0.7546771E-02  0.1286621E+00
         21   -1    0    0  503  501  0.00000000000E+00  0.00000000000E+00  0.10243165420E+04  0.10243165420E+04  0.00000000000E+00 0.  1.
         21   -1    0    0  504  502 -0.00000000000E+00 -0.00000000000E+00 -0.20207389451E+03  0.20207389451E+03  0.00000000000E+00 0.  1.
         21    1    1    2  503  506  0.41934117688E+02 -0.39119731951E+02  0.94957790504E+03  0.95130805809E+03  0.00000000000E+00 0.  1.
         21    1    1    2  504  505  0.12390710228E+02  0.28466134067E+02 -0.49843532524E+02  0.58721616319E+02  0.00000000000E+00 0.  1.
         21    1    1    2  505  501 -0.14181657051E+02 -0.87706939334E+02 -0.75473233925E+01  0.89166073674E+02  0.00000000000E+00 0.  1.
         21    1    1    2  506  502 -0.40143170864E+02  0.98360537218E+02 -0.69944401620E+02  0.12719468844E+03  0.00000000000E+00 0.  1.
<scales pt_clust_3="57.28790" pt_clust_4="31.04594" pt_clust_5="97.05170" pt_clust_6="14000.00000"></scales>
<clustering>
<clus scale="   31.046">  2  4  1 -1</clus>
<clus scale="   57.288">  1  3  2 -1</clus>
<clus scale="   97.052">  2  5  1 -1</clus>
<clus scale="   57.288">  1  3  2 -1</clus>
</clustering>
</event>
<event>
 6    0  0.1704145E+002  0.9859410E+02  0.7546771E-02  0.1283280E+00
         21   -1    0    0  506  501  0.00000000000E+00  0.00000000000E+00  0.25492180301E+03  0.25492180301E+03  0.00000000000E+00 0. -1.
         21   -1    0    0  504  502 -0.00000000000E+00 -0.00000000000E+00 -0.19305538625E+03  0.19305538625E+03  0.00000000000E+00 0.  1.
         21    1    1    2  503  502 -0.29909095940E+02 -0.66978373349E+01 -0.24323636742E+02  0.39128689593E+02  0.00000000000E+00 0.  1.
         21    1    1    2  504  505  0.11014029583E+03  0.78552917033E+02 -0.10113574190E+03  0.16890791523E+03  0.00000000000E+00 0.  1.
         21    1    1    2  505  501 -0.42270483079E+02 -0.13427712775E+02  0.15841138914E+03  0.16450308636E+03  0.00000000000E+00 0. -1.
         21    1    1    2  506  503 -0.37960716808E+02 -0.58427366923E+02  0.28914406256E+02  0.75437498072E+02  0.00000000000E+00 0. -1.
<scales pt_clust_3="30.64988" pt_clust_4="14000.00000" pt_clust_5="44.92846" pt_clust_6="98.59410"></scales>
<clustering>
<clus scale="   30.650">  2  3  1 -1</clus>
<clus scale="   44.928">  1  5  2 -1</clus>
<clus scale="   98.594">  1  6  2 -1</clus>
<clus scale="   44.928">  1  3  2 -1</clus>
</clustering>
</event>
<event>
 6    0  0.1704145E+002  0.9944653E+02  0.7546771E-02  0.1281464E+00
         21   -1    0    0  505  501  0.00000000000E+00  0.00000000000E+00  0.16674865026E+03  0.16674865026E+03  0.00000000000E+00 0.  1.
         21   -1    0    0  503  502 -0.00000000000E+00 -0.00000000000E+00 -0.72864111766E+03  0.72864111766E+03  0.00000000000E+00 0. -1.
         21    1    1    2  503  506  0.39851209676E+02 -0.69234224184E+01 -0.51544373266E+02  0.65520035913E+02  0.00000000000E+00 0. -1.
         21    1    1    2  504  502 -0.29085510556E+02 -0.91542921925E+02 -0.50065675913E+03  0.50978746938E+03  0.00000000000E+00 0. -1.
         21    1    1    2  505  504  0.36788894230E+02  0.92518054750E+02  0.13495243762E+03  0.16770561592E+03  0.00000000000E+00 0.  1.
         21    1    1    2  506  501 -0.47554593350E+02  0.59482895934E+01 -0.14464377263E+03  0.15237664670E+03  0.00000000000E+00 0. -1.
<scales pt_clust_3="40.44815" pt_clust_4="14000.00000" pt_clust_5="99.44653" pt_clust_6="38.97348"></scales>
<clustering>
<clus scale="   40.448">  2  3  1 -1</clus>
<clus scale="   38.973">  2  6  1 -1</clus>
<clus scale="   99.447">  1  5  2 -1</clus>
<clus scale="   99.447">  1  3  2 -1</clus>
</clustering>
</event>
<event>
 6    0  0.1704145E+002  0.1058734E+03  0.7546771E-02  0.1268408E+00
         21   -1    0    0  505  501  0.00000000000E+00  0.00000000000E+00  0.88542510244E+03  0.88542510244E+03  0.00000000000E+00 0. -1.
         21   -1    0    0  504  502 -0.00000000000E+00 -0.00000000000E+00 -0.40499519245E+03  0.40499519245E+03  0.00000000000E+00 0.  1.
         21    1    1    2  503  502 -0.64287687417E+02 -0.29866683338E+02 -0.65154965868E+02  0.96281333104E+02  0.00000000000E+00 0.  1.
         21    1    1    2  504  506  0.24794166304E+02  0.41661348867E+02 -0.53576858612E+02  0.72255784896E+02  0.00000000000E+00 0.  1.
         21    1    1    2  505  503 -0.27184004504E+02 -0.89154805688E+02  0.84789309051E+03  0.85300072826E+03  0.00000000000E+00 0. -1.
         21    1    1    2  506  501  0.66677525617E+02  0.77360140159E+02 -0.24873135603E+03  0.26888244863E+03  0.00000000000E+00 0.  1.
<scales pt_clust_3="70.88671" pt_clust_4="34.11594" pt_clust_5="93.58060" pt_clust_6="34.11594"></scales>
<clustering>
<clus scale="   34.116">  4  6 -1 -1</clus>
<clus scale="   70.887">  2  3  1 -1</clus>
<clus scale="   93.581">  1  5  2 -1</clus>
<clus scale="   93.581">  1  3  2 -1</clus>
</clustering>
</event>
<event>
 6    0  0.1704145E+002  0.2631006E+03  0.7546771E-02  0.1105295E+00
         21   -1    0    0  505  501  0.00000000000E+00  0.00000000000E+00  0.38669286221E+03  0.38669286221E+03  0.00000000000E+00 0. -1.
         21   -1    0    0  503  502 -0.00000000000E+00 -0.00000000000E+00 -0.22964747436E+04  0.22964747436E+04  0.00000000000E+00 0.  1.
         21    1    1    2  503  504 -0.11342262442E+03 -0.10335880955E+03 -0.94245135532E+03  0.95486244684E+03  0.00000000000E+00 0.  1.
         21    1    1    2  504  506 -0.96862615719E+02 -0.30019528899E+02 -0.11160524437E+04  0.11206500772E+04  0.00000000000E+00 0. -1.
         21    1    1    2  505  502 -0.12808769789E+02  0.55393188457E+02  0.31410157784E+03  0.31920568778E+03  0.00000000000E+00 0. -1.
         21    1    1    2  506  501  0.22309400992E+03  0.77985149991E+02 -0.16537966021E+03  0.28844939399E+03  0.00000000000E+00 0.  1.
<scales pt_clust_3="74.62445" pt_clust_4="74.62445" pt_clust_5="56.85481" pt_clust_6="246.81414"></scales>
<clustering>
<clus scale="   56.855">  1  5  2 -1</clus>
<clus scale="   74.624">  3  4 -1 -1</clus>
<clus scale="  246.814">  1  6  2 -1</clus>
<clus scale="   56.855">  1  3  2 -1</clus>
</clustering>
</event>
<event>
 6    0  0.1704145E+002  0.1640531E+03  0.7546771E-02  0.1184195E+00
         21   -1    0    0  505  501  0.00000000000E+00  0.00000000000E+00  0.11064268675E+04  0.11064268675E+04  0.00000000000E+00 0. -1.
         21   -1    0    0  506  502 -0.00000000000E+00 -0.00000000000E+00 -0.16399975773E+03  0.16399975773E+03  0.00000000000E+00 0.  1.
         21    1    1    2  503  502  0.11533753032E+03  0.10026568251E+03 -0.36420905637E+02  0.15710644594E+03  0.00000000000E+00 0.  1.
         21    1    1    2  504  501 -0.36334346837E+02 -0.37077395586E+02  0.38733625892E+02  0.64770454671E+02  0.00000000000E+00 0.  1.
         21    1    1    2  505  503  0.15958226838E+02 -0.27406142373E+02  0.94634798997E+03  0.94687923188E+03  0.00000000000E+00 0. -1.
         21    1    1    2  506  504 -0.94961410320E+02 -0.35782144556E+02 -0.62336004490E+01  0.10167049274E+03  0.00000000000E+00 0.  1.
<scales pt_clust_3="151.04361" pt_clust_4="47.62718" pt_clust_5="31.71375" pt_clust_6="47.62718"></scales>
<clustering>
<clus scale="   31.714">  1  5  2 -1</clus>
<clus scale="   47.627">  4  6 -1 -1</clus>
<clus scale="  151.044">  2  3  1 -1</clus>
<clus scale="   31.714">  1  3  2 -1</clus>
</clustering>
</event>
<event>
 6    0  0.1704145E+002  0.1425654E+03  0.7546771E-02  0.1209918E+00
         21   -1    0    0  505  501  0.00000000000E+00  0.00000000000E+00  0.24580462410E+03  0.24580462410E+03  0.00000000000E+00 0. -1.
         21   -1    0    0  503  502 -0.00000000000E+00 -0.00000000000E+00 -0.15499401164E+04  0.15499401164E+04  0.00000000000E+00 0.  1.
         21    1    1    2  503  506  0.99088587898E+02 -0.76556505096E+02 -0.11780402287E+04  0.11846764230E+04  0.00000000000E+00 0.  1.
         21    1    1    2  504  502 -0.64274397224E+01  0.56150447608E+02 -0.11292432347E+03  0.12627781903E+03  0.00000000000E+00 0.  1.
         21    1    1    2  505  504  0.35712456294E+02  0.75740950877E+02 -0.21985994416E+03  0.23526679796E+03  0.00000000000E+00 0.  1.
         21    1    1    2  506  501 -0.12837360447E+03 -0.55334893389E+02  0.20668900402E+03  0.24952370055E+03  0.00000000000E+00 0. -1.
<scales pt_clust_3="125.21760" pt_clust_4="34.03383" pt_clust_5="34.03383" pt_clust_6="136.41369"></scales>
<clustering>
<clus scale="   34.034">  4  5 -1 -1</clus>
<clus scale="  125.218">  2  3  1 -1</clus>
<clus scale="  136.414">  1  6  2 -1</clus>
<clus scale="  136.414">  1  3  2 -1</clus>
</clustering>
</event>
<event>
 6    0  0.1704145E+002  0.9953028E+02  0.7546771E-02  0.1281287E+00
         21   -1    0    0  504  501  0.00000000000E+00  0.00000000000E+00  0.14260037291E+04  0.14260037291E+04  0.00000000000E+00 0.  1.
         21   -1    0    0  503  502 -0.00000000000E+00 -0.00000000000E+00 -0.80081518846E+02  0.80081518846E+02  0.00000000000E+00 0. -1.
         21    1    1    2  503  506 -0.30259301682E+02  0.83972994138E+02  0.51918610555E+00  0.89260061825E+02  0.00000000000E+00 0. -1.
         21    1    1    2  504  502  0.24901507170E+02 -0.14470835134E+03  0.17251767378E+03  0.22654566819E+03  0.00000000000E+00 0.  1.
         21    1    1    2  505  501 -0.23261697982E+02  0.25058886516E+02  0.11193288466E+04  0.11198509370E+04  0.00000000000E+00 0.  1.
         21    1    1    2  506  505  0.28619492494E+02  0.35676470686E+02  0.53556503816E+02  0.70428580932E+02  0.00000000000E+00 0. -1.
<scales pt_clust_3="14000.00000" pt_clust_4="99.53028" pt_clust_5="34.19144" pt_clust_6="47.24516"></scales>
<clustering>
<clus scale="   34.191">  1  5  2 -1</clus>
<clus scale="   47.245">  1  6  2 -1</clus>
<clus scale="   99.530">  1  4  2 -1</clus>
<clus scale="   34.191">  1  3  2 -1</clus>
</clustering>
</event>
<event>
 6    0  0.1704145E+002  0.1854374E+03  0.7546771E-02  0.1162642E+00
         21   -1    0    0  505  501  0.00000000000E+00  0.00000000000E+00  0.14430019926E+03  0.14430019926E+03  0.00000000000E+00 0.  1.
         21   -1    0    0  504  502 -0.00000000000E+00 -0.00000000000E+00 -0.45807828428E+03  0.45807828428E+03  0.00000000000E+00 0.  1.
         21    1    1    2  503  501  0.64845100331E+01 -0.33544595539E+02  0.13020256290E+02  0.36562492175E+02  0.00000000000E+00 0. -1.
         21    1    1    2  504  506 -0.14566783788E+03 -0.10553349358E+03 -0.25539555933E+03  0.31238330458E+03  0.00000000000E+00 0.  1.
         21    1    1    2  505  502  0.12300796753E+03  0.16836825318E+03 -0.52584445096E+02  0.21504407134E+03  0.00000000000E+00 0.  1.
         21    1    1    2  506  503  0.16175360317E+02 -0.29290164058E+02 -0.18818336895E+02  0.38388615440E+02  0.00000000000E+00 0. -1.
<scales pt_clust_3="74.72651" pt_clust_4="185.43739" pt_clust_5="14000.00000" pt_clust_6="33.15398"></scales>
<clustering>
<clus scale="   33.154">  3  6 -1 -1</clus>
<clus scale="   74.727">  1  3  2 -1</clus>
<clus scale="  185.437">  2  4  1 -1</clus>
<clus scale="   74.727">  1  3  2 -1</clus>
</clustering>
</event>
<event>
 6    0  0.1704145E+002  0.2491121E+03  0.7546771E-02  0.1113867E+00
         21   -1    0    0  505  501  0.00000000000E+00  0.00000000000E+00  0.10476192658E+04  0.10476192658E+04  0.00000000000E+00 0.  1.
         21   -1    0    0  504  502 -0.00000000000E+00 -0.00000000000E+00 -0.54619072968E+03  0.54619072968E+03  0.00000000000E+00 0. -1.
         21    1    1    2  503  506 -0.27191281312E+03 -0.48751264045E+02  0.37271942151E+03  0.46393214036E+03  0.00000000000E+00 0. -1.
         21    1    1    2  504  503  0.24522148571E+03  0.65730952736E+02 -0.44161566898E+03  0.50939035551E+03  0.00000000000E+00 0. -1.
         21    1    1    2  505  502 -0.24952063904E+02  0.44103936355E+02  0.65826752494E+01  0.51098867977E+02  0.00000000000E+00 0. -1.
         21    1    1    2  506  501  0.51643391315E+02 -0.61083625046E+02  0.56374210838E+03  0.56938863167E+03  0.00000000000E+00 0.  1.
<scales pt_clust_3="249.11211" pt_clust_4="14000.00000" pt_clust_5="50.67310" pt_clust_6="79.72078"></scales>
<clustering>
<clus scale="   50.673">  2  5  1 -1</clus>
<clus scale="   79.721">  1  6  2 -1</clus>
<clus scale="  249.112">  1  3  2 -1</clus>
<clus scale="   79.721">  1  3  2 -1</clus>
</clustering>
</event>
<event>
 6    0  0.1704145E+002  0.1150023E+03  0.7546771E-02  0.1251577E+00
         21   -1    0    0  506  501  0.00000000000E+00  0.00000000000E+00  0.10243773453E+03  0.10243773453E+03  0.00000000000E+00 0.  1.
         21   -1    0    0  505  502 -0.00000000000E+00 -0.00000000000E+00 -0.12477345589E+04  0.12477345589E+04  0.00000000000E+00 0. -1.
         21    1    1    2  503  502 -0.33449329552E+02  0.16042094364E+02 -0.14017774126E+03  0.14500346749E+03  0.00000000000E+00 0. -1.
         21    1    1    2  504  501 -0.19974457587E+02 -0.64320928471E+02 -0.93570112796E+03  0.93812193326E+03  0.00000000000E+00 0. -1.
         21    1    1    2  505  504 -0.18577582273E+02 -0.43954568191E+02 -0.12770083072E+03  0.13632546642E+03  0.00000000000E+00 0.  1.
         21    1    1    2  506  503  0.72001369413E+02  0.92233402298E+02  0.58282875574E+02  0.13072142625E+03  0.00000000000E+00 0.  1.
<scales pt_clust_3="37.09726" pt_clust_4="115.00234" pt_clust_5="47.71549" pt_clust_6="14000.00000"></scales>
<clustering>
<clus scale="   37.097">  2  3  1 -1</clus>
<clus scale="   47.715">  2  5  1 -1</clus>
<clus scale="  115.002">  2  4  1 -1</clus>
<clus scale="  115.002">  1  3  2 -1</clus>
</clustering>
</event>
<event>
 6    0  0.1704145E+002  0.2165173E+03  0.7546771E-02  0.1136506E+00
         21   -1    0    0  506  501  0.00000000000E+00  0.00000000000E+00  0.63886953884E+03  0.63886953884E+03  0.00000000000E+00 0. -1.
         21   -1    0    0  503  502 -0.00000000000E+00 -0.00000000000E+00 -0.11783605283E+03  0.11783605283E+03  0.00000000000E+00 0. -1.
         21    1    1    2  503  501  0.16970274760E+03 -0.12267173000E+03  0.23691199007E+03  0.31618770837E+03  0.00000000000E+00 0. -1.
         21    1    1    2  504  505 -0.52844626655E+02  0.40442757948E+01  0.71300864020E+01  0.53476619798E+02  0.00000000000E+00 0. -1.
         21    1    1    2  505  502 -0.88024322358E+02  0.13151537896E+03  0.62359147369E+02  0.17009773511E+03  0.00000000000E+00 0. -1.
         21    1    1    2  506  504 -0.28833798587E+02 -0.12887924754E+02  0.21463226217E+03  0.21694352838E+03  0.00000000000E+00 0. -1.
<scales pt_clust_3="199.85870" pt_clust_4="48.83708" pt_clust_5="48.83708" pt_clust_6="31.58301"></scales>
<clustering>
<clus scale="   31.583">  1  6  2 -1</clus>
<clus scale="   48.837">  4  5 -1 -1</clus>
<clus scale="  199.859">  1  3  2 -1</clus>
<clus scale="   31.583">  1  3  2 -1</clus>
</clustering>
</event>
<event>
 6    0  0.1704145E+002  0.1483533E+03  0.7546771E-02  0.1202511E+00
         21   -1    0    0  503  501  0.00000000000E+00  0.00000000000E+00  0.18999565884E+02  0.18999565884E+02  0.00000000000E+00 0. -1.
         21   -1    0    0  504  502 -0.00000000000E+00 -0.00000000000E+00 -0.17241242151E+04  0.17241242151E+04  0.00000000000E+00 0. -1.
         21    1    1    2  503  505 -0.66748553489E+02 -0.12242127627E+03 -0.97796840456E+03  0.98785856204E+03  0.00000000000E+00 0. -1.
         21    1    1    2  504  506  0.46154022126E+02  0.60285843206E+02 -0.25370540234E+03  0.26482259689E+03  0.00000000000E+00 0. -1.
         21    1    1    2  505  502  0.40927332647E+02 -0.28477387001E+01 -0.31928085276E+03  0.32190591656E+03  0.00000000000E+00 0. -1.
         21    1    1    2  506  501 -0.20332801283E+02  0.64983171765E+02 -0.15416998958E+03  0.16853670552E+03  0.00000000000E+00 0. -1.
<scales pt_clust_3="130.11465" pt_clust_4="64.84168" pt_clust_5="41.02629" pt_clust_6="64.84168"></scales>
<clustering>
<clus scale="   41.026">  2  5  1 -1</clus>
<clus scale="   64.842">  4  6 -1 -1</clus>
<clus scale="  130.115">  2  3  1 -1</clus>
<clus scale="  148.353">  1  3  2 -1</clus>
</clustering>
</event>
<event>
 6    0  0.1704145E+002  0.1809621E+03  0.7546771E-02  0.1166875E+00
         21   -1    0    0  505  501  0.00000000000E+00  0.00000000000E+00  0.20330858061E+03  0.20330858061E+03  0.00000000000E+00 0.  1.
         21   -1    0    0  503  502 -0.00000000000E+00 -0.00000000000E+00 -0.59862607460E+03  0.59862607460E+03  0.00000000000E+00 0.  1.
         21    1    1    2  503  501  0.13787104821E+03  0.12899635813E+02  0.10637487088E+03  0.17461511875E+03  0.00000000000E+00 0.  1.
         21    1    1    2  504  506 -0.10390235215E+03 -0.14782114390E+03 -0.24252476395E+03  0.30243189398E+03  0.00000000000E+00 0.  1.
         21    1    1    2  505  504 -0.38830618933E+02 -0.13844814665E+02 -0.93443791342E+02  0.10213343233E+03  0.00000000000E+00 0.  1.
         21    1    1    2  506  502  0.48619228654E+01  0.14876632275E+03 -0.16572380958E+03  0.22275421015E+03  0.00000000000E+00 0.  1.
<scales pt_clust_3="138.47320" pt_clust_4="31.28462" pt_clust_5="31.28462" pt_clust_6="168.69394"></scales>
<clustering>
<clus scale="   31.285">  4  5 -1 -1</clus>
<clus scale="  138.473">  1  3  2 -1</clus>
<clus scale="  168.694">  2  6  1 -1</clus>
<clus scale="  138.473">  1  3  2 -1</clus>
</clustering>
</event>
<event>
 6    0  0.1704145E+002  0.1421863E+03  0.7546771E-02  0.1210417E+00
         21   -1    0    0  506  501  0.00000000000E+00  0.00000000000E+00  0.93002529264E+02  0.93002529264E+02  0.00000000000E+00 0. -1.
         21   -1    0    0  503  502 -0.00000000000E+00 -0.00000000000E+00 -0.20989411111E+04  0.20989411111E+04  0.00000000000E+00 0.  1.
         21    1    1    2  503  501  0.37679332761E+02  0.26529562473E+01 -0.80667815665E+02  0.89073378617E+02  0.00000000000E+00 0. -1.
         21    1    1    2  504  505 -0.68066010219E+02 -0.80796832305E+01 -0.75710615591E+03  0.76020260085E+03  0.00000000000E+00 0.  1.
         21    1    1    2  505  502 -0.65658228747E+02  0.27584272436E+02 -0.12262115027E+04  0.12282778775E+04  0.00000000000E+00 0.  1.
         21    1    1    2  506  504  0.96044906205E+02 -0.22157545453E+02  0.58046892400E+02  0.11438978340E+03  0.00000000000E+00 0. -1.
<scales pt_clust_3="37.77261" pt_clust_4="46.36799" pt_clust_5="46.36799" pt_clust_6="134.06666"></scales>
<clustering>
<clus scale="   37.773">  1  3  2 -1</clus>
<clus scale="   46.368">  4  5 -1 -1</clus>
<clus scale="  134.067">  1  6  2 -1</clus>
<clus scale="   37.773">  1  3  2 -1</clus>
</clustering>
</event>
<event>
 6    0  0.1704145E+002  0.1099025E+03  0.7546771E-02  0.1260751E+00
         21   -1    0    0  505  501  0.00000000000E+00  0.00000000000E+00  0.63915735939E+03  0.63915735939E+03  0.00000000000E+00 0. -1.
         21   -1    0    0  506  502 -0.00000000000E+00 -0.00000000000E+00 -0.14161205744E+03  0.14161205744E+03  0.00000000000E+00 0. -1.
         21    1    1    2  503  502  0.28965026343E+02 -0.90256597435E+01  0.74559125449E+01  0.31241413489E+02  0.00000000000E+00 0. -1.
         21    1    1    2  504  501  0.55821620344E+02  0.14042342734E+03  0.51545587784E+03  0.53714947104E+03  0.00000000000E+00 0. -1.
         21    1    1    2  505  503  0.66327339305E+01 -0.56155801868E+02  0.47072946547E+02  0.73575332412E+02  0.00000000000E+00 0.  1.
         21    1    1    2  506  504 -0.91419380618E+02 -0.75241965729E+02 -0.72439434979E+02  0.13880319989E+03  0.00000000000E+00 0. -1.
<scales pt_clust_3="30.33868" pt_clust_4="14000.00000" pt_clust_5="57.87809" pt_clust_6="109.90252"></scales>
<clustering>
<clus scale="   30.339">  2  3  1 -1</clus>
<clus scale="   57.878">  1  5  2 -1</clus>
<clus scale="  109.903">  2  6  1 -1</clus>
<clus scale="   57.878">  1  3  2 -1</clus>
</clustering>
</event>
<event>
 6    0  0.1704145E+002  0.1484739E+03  0.7546771E-02  0.1202361E+00
         21   -1    0    0  503  501  0.00000000000E+00  0.00000000000E+00  0.22470750161E+03  0.22470750161E+03  0.00000000000E+00 0.  1.
         21   -1    0    0  505  502 -0.00000000000E+00 -0.00000000000E+00 -0.73617909167E+03  0.73617909167E+03  0.00000000000E+00 0.  1.
         21    1    1    2  503  504 -0.30846895927E+02  0.91987378522E+01  0.16711948154E+03  0.17019127145E+03  0.00000000000E+00 0.  1.
         21    1    1    2  504  502 -0.58416498091E+02 -0.12827320200E+03 -0.60057033128E+03  0.61688834031E+03  0.00000000000E+00 0.  1.
         21    1    1    2  505  506  0.71993570608E+02  0.66504833517E+02 -0.62852609620E+02  0.11643203007E+03  0.00000000000E+00 0.  1.
         21    1    1    2  506  501  0.17269823411E+02  0.52569630633E+02 -0.15168130707E+02  0.57374951457E+02  0.00000000000E+00 0.  1.
<scales pt_clust_3="32.18925" pt_clust_4="141.66700" pt_clust_5="34.93578" pt_clust_6="34.93578"></scales>
<clustering>
<clus scale="   32.189">  1  3  2 -1</clus>
<clus scale="   34.936">  5  6 -1 -1</clus>
<clus scale="  141.667">  2  4  1 -1</clus>
<clus scale="   32.189">  1  3  2 -1</clus>
</clustering>
</event>
<event>
 6    0  0.1704145E+002  0.7121038E+02  0.7546771E-02  0.1356025E+00
         21   -1    0    0  504  501  0.00000000000E+00  0.00000000000E+00  0.52843598879E+03  0.52843598879E+03  0.00000000000E+00 0. -1.
         21   -1    0    0  505  502 -0.00000000000E+00 -0.00000000000E+00 -0.33792623996E+03  0.33792623996E+03  0.00000000000E+00 0. -1.
         21    1    1    2  503  501  0.28902492408E+02 -0.68475632302E+02 -0.98503526908E+02  0.12339858630E+03  0.00000000000E+00 0. -1.
         21    1    1    2  504  506  0.56655772318E+02  0.45085297481E+02  0.49505673186E+03  0.50032362361E+03  0.00000000000E+00 0. -1.
         21    1    1    2  505  503 -0.49098013997E+02 -0.16827414936E+02 -0.16933102126E+03  0.17710666738E+03  0.00000000000E+00 0. -1.
         21    1    1    2  506  502 -0.36460250729E+02  0.40217749757E+02 -0.36712434867E+02  0.65533351453E+02  0.00000000000E+00 0. -1.
<scales pt_clust_3="71.21038" pt_clust_4="14000.00000" pt_clust_5="51.90161" pt_clust_6="62.42981"></scales>
<clustering>
<clus scale="   51.902">  2  5  1 -1</clus>
<clus scale="   62.430">  2  6  1 -1</clus>
<clus scale="   71.210">  2  3  1 -1</clus>
<clus scale="   71.210">  1  3  2 -1</clus>
</clustering>
</event>
<event>
 6    0  0.1704145E+002  0.1146440E+03  0.7546771E-02  0.1252204E+00
         21   -1    0    0  503  501  0.00000000000E+00  0.00000000000E+00  0.18467065668E+03  0.18467065668E+03  0.00000000000E+00 0.  1.
         21   -1    0    0  506  502 -0.00000000000E+00 -0.00000000000E+00 -0.31504035899E+03  0.31504035899E+03  0.00000000000E+00 0.  1.
         21    1    1    2  503  505 -0.98929639144E+02  0.25843797785E+02 -0.63680577212E+02  0.12045825542E+03  0.00000000000E+00 0.  1.
         21    1    1    2  504  501  0.10845435925E+03 -0.46937767076E+02  0.11919356907E+03  0.16784698068E+03  0.00000000000E+00 0.  1.
         21    1    1    2  505  502 -0.12440092763E+02 -0.35829931926E+02 -0.41716658326E+02  0.56381020846E+02  0.00000000000E+00 0. -1.
         21    1    1    2  506  504  0.29153726594E+01  0.56923901216E+02 -0.14416603584E+03  0.15502475872E+03  0.00000000000E+00 0.  1.
<scales pt_clust_3="14000.00000" pt_clust_4="114.64400" pt_clust_5="37.92809" pt_clust_6="36.99867"></scales>
<clustering>
<clus scale="   37.928">  2  5  1 -1</clus>
<clus scale="   36.999">  2  6  1 -1</clus>
<clus scale="  114.644">  1  4  2 -1</clus>
<clus scale="  114.644">  1  3  2 -1</clus>
</clustering>
</event>
<event>
 6    0  0.1704145E+002  0.1863872E+03  0.7546771E-02  0.1161761E+00
         21   -1    0    0  504  501  0.00000000000E+00  0.00000000000E+00  0.30707876819E+03  0.30707876819E+03  0.00000000000E+00 0. -1.
         21   -1    0    0  506  502 -0.00000000000E+00 -0.00000000000E+00 -0.78686334058E+03  0.78686334058E+03  0.00000000000E+00 0.  1.
         21    1    1    2  503  502 -0.66103459987E+02 -0.24180547993E+02 -0.39499856139E+03  0.40122092396E+03  0.00000000000E+00 0.  1.
         21    1    1    2  504  505  0.11252111615E+03  0.13631050636E+03  0.26464205850E+03  0.31824043560E+03  0.00000000000E+00 0. -1.
         21    1    1    2  505  503 -0.42996105227E+02 -0.72487986594E+02 -0.29661613237E+03  0.30835742775E+03  0.00000000000E+00 0.  1.
         21    1    1    2  506  501 -0.34215509368E+01 -0.39641971771E+02 -0.52811937140E+02  0.66123321462E+02  0.00000000000E+00 0.  1.
<scales pt_clust_3="56.87879" pt_clust_4="175.54820" pt_clust_5="56.87879" pt_clust_6="39.78936"></scales>
<clustering>
<clus scale="   39.789">  2  6  1 -1</clus>
<clus scale="   56.879">  3  5 -1 -1</clus>
<clus scale="  175.548">  1  4  2 -1</clus>
<clus scale="  175.548">  1  3  2 -1</clus>
</clustering>
</event>
<event>
 6    0  0.1704145E+002  0.9346523E+02  0.7546771E-02  0.1294671E+00
         21   -1    0    0  503  501  0.00000000000E+00  0.00000000000E+00  0.27779236218E+03  0.27779236218E+03  0.00000000000E+00 0. -1.
         21   -1    0    0  504  502 -0.00000000000E+00 -0.00000000000E+00 -0.22504889033E+03  0.22504889033E+03  0.00000000000E+00 0. -1.
         21    1    1    2  503  502  0.13059154934E+02  0.67979363906E+02  0.22791488023E+03  0.23819514704E+03  0.00000000000E+00 0. -1.
         21    1    1    2  504  506 -0.59360128184E+01  0.57770194655E+02 -0.43727391530E+02  0.72696054973E+02  0.00000000000E+00 0. -1.
         21    1    1    2  505  501 -0.19238051391E+02 -0.84930685751E+02 -0.11924660354E+03  0.14765864844E+03  0.00000000000E+00 0. -1.
         21    1    1    2  506  505  0.12114909276E+02 -0.40818872811E+02 -0.12197413303E+02  0.44291402051E+02  0.00000000000E+00 0. -1.
<scales pt_clust_3="70.93763" pt_clust_4="58.07436" pt_clust_5="42.55433" pt_clust_6="42.55433"></scales>
<clustering>
<clus scale="   42.554">  5  6 -1 -1</clus>
<clus scale="   58.074">  2  4  1 -1</clus>
<clus scale="   70.938">  1  3  2 -1</clus>
<clus scale="   70.938">  1  3  2 -1</clus>
</clustering>
</event>
<event>
 6    0  0.1704145E+002  0.1465741E+03  0.7546771E-02  0.1204747E+00
         21   -1    0    0  505  501  0.00000000000E+00  0.00000000000E+00  0.22927079853E+04  0.22927079853E+04  0.00000000000E+00 0.  1.
         21   -1    0    0  501  502 -0.00000000000E+00 -0.00000000000E+00 -0.68297808143E+02  0.68297808143E+02  0.00000000000E+00 0. -1.
         21    1    1    2  503  506  0.41390901932E+02 -0.37175630377E+02  0.19652757410E+02  0.59003941652E+02  0.00000000000E+00 0. -1.
         21    1    1    2  504  503 -0.83046491608E+02  0.47733153053E+02  0.59353038283E+03  0.60121002071E+03  0.00000000000E+00 0.  1.
         21    1    1    2  505  504 -0.52193775448E+02  0.11628718592E+02  0.16031242888E+04  0.16040158673E+04  0.00000000000E+00 0.  1.
         21    1    1    2  506  502  0.93849365123E+02 -0.22186241269E+02  0.81027481377E+01  0.96775963767E+02  0.00000000000E+00 0. -1.
<scales pt_clust_3="31.16217" pt_clust_4="140.71498" pt_clust_5="53.47352" pt_clust_6="31.16217"></scales>
<clustering>
<clus scale="   31.162">  3  6 -1 -1</clus>
<clus scale="   53.474">  1  5  2 -1</clus>
<clus scale="  140.715">  1  4  2 -1</clus>
<clus scale="   53.474">  1  3  2 -1</clus>
</clustering>
</event>
<event>
 6    0  0.1704145E+002  0.2411015E+03  0.7546771E-02  0.1119061E+00
         21   -1    0    0  503  501  0.00000000000E+00  0.00000000000E+00  0.58418745294E+03  0.58418745294E+03  0.00000000000E+00 0. -1.
         21   -1    0    0  506  502 -0.00000000000E+00 -0.00000000000E+00 -0.22532580680E+03  0.22532580680E+03  0.00000000000E+00 0. -1.
         21    1    1    2  503  505 -0.20185082256E+02 -0.27861676915E+02  0.32831873801E+03  0.33011650112E+03  0.00000000000E+00 0. -1.
         21    1    1    2  504  502 -0.16678313333E+03 -0.22517128224E+01  0.72469546168E+01  0.16695568911E+03  0.00000000000E+00 0. -1.
         21    1    1    2  505  504 -0.57547707708E+02  0.33018203206E+02 -0.35293344331E+01  0.66440925693E+02  0.00000000000E+00 0.  1.
         21    1    1    2  506  501  0.24451592329E+03 -0.29048134684E+01  0.26825287948E+02  0.24600014382E+03  0.00000000000E+00 0. -1.
<scales pt_clust_3="34.40510" pt_clust_4="35.01736" pt_clust_5="35.01736" pt_clust_6="234.39430"></scales>
<clustering>
<clus scale="   34.405">  1  3  2 -1</clus>
<clus scale="   35.017">  4  5 -1 -1</clus>
<clus scale="  234.394">  1  6  2 -1</clus>
<clus scale="   34.405">  1  3  2 -1</clus>
</clustering>
</event>
<event>
 6    0  0.1704145E+002  0.1498555E+03  0.7546771E-02  0.1200651E+00
         21   -1    0    0  504  501  0.00000000000E+00  0.00000000000E+00  0.40642963466E+02  0.40642963466E+02  0.00000000000E+00 0.  1.
         21   -1    0    0  503  502 -0.00000000000E+00 -0.00000000000E+00 -0.12261440072E+04  0.12261440072E+04  0.00000000000E+00 0.  1.
         21    1    1    2  503  501  0.15495983407E+03 -0.54767585206E+02 -0.25597130588E+03  0.30419294535E+03  0.00000000000E+00 0.  1.
         21    1    1    2  504  506 -0.43890706356E+02  0.63183896357E+02 -0.16733043895E+03  0.18416860390E+03  0.00000000000E+00 0.  1.
         21    1    1    2  505  502 -0.82733491283E+02 -0.57209634956E+02 -0.53076328699E+03  0.54021055130E+03  0.00000000000E+00 0.  1.
         21    1    1    2  506  505 -0.28335636431E+02  0.48793323805E+02 -0.23143601196E+03  0.23821487018E+03  0.00000000000E+00 0.  1.
<scales pt_clust_3="144.28827" pt_clust_4="34.65602" pt_clust_5="100.58714" pt_clust_6="34.65602"></scales>
<clustering>
<clus scale="   34.656">  4  6 -1 -1</clus>
<clus scale="  100.587">  2  5  1 -1</clus>
<clus scale="  144.288">  1  3  2 -1</clus>
<clus scale="  144.288">  1  3  2 -1</clus>
</clustering>
</event>
<event>
 6    0  0.1704145E+002  0.1377972E+03  0.7546771E-02  0.1216324E+00
         21   -1    0    0  506  501  0.00000000000E+00  0.00000000000E+00  0.42352025712E+03  0.42352025712E+03  0.00000000000E+00 0.  1.
         21   -1    0    0  505  502 -0.00000000000E+00 -0.00000000000E+00 -0.11529888876E+03  0.11529888876E+03  0.00000000000E+00 0. -1.
         21    1    1    2  503  502  0.14065636842E+00  0.12929603876E+03 -0.82786886178E+01  0.12956088186E+03  0.00000000000E+00 0. -1.
         21    1    1    2  504  501 -0.45822939450E+02 -0.11086572097E+03  0.29035971402E+03  0.31416510530E+03  0.00000000000E+00 0.  1.
         21    1    1    2  505  504  0.19859658108E+02 -0.47996518518E+02  0.11530176024E+02  0.53207299961E+02  0.00000000000E+00 0.  1.
         21    1    1    2  506  503  0.25822624974E+02  0.29566200733E+02  0.14610166938E+02  0.41885858762E+02  0.00000000000E+00 0. -1.
<scales pt_clust_3="32.32947" pt_clust_4="124.68144" pt_clust_5="51.94297" pt_clust_6="32.32947"></scales>
<clustering>
<clus scale="   32.329">  3  6 -1 -1</clus>
<clus scale="   51.943">  2  5  1 -1</clus>
<clus scale="  124.681">  1  4  2 -1</clus>
<clus scale="  124.681">  1  3  2 -1</clus>
</clustering>
</event>
<event>
 6    0  0.1704145E+002  0.1440349E+03  0.7546771E-02  0.1208001E+00
         21   -1    0    0  506  501  0.00000000000E+00  0.00000000000E+00  0.59545086695E+03  0.59545086695E+03  0.00000000000E+00 0. -1.
         21   -1    0    0  504  502 -0.00000000000E+00 -0.00000000000E+00 -0.24549179646E+03  0.24549179646E+03  0.00000000000E+00 0. -1.
         21    1    1    2  503  501 -0.59283984380E+01  0.60853684241E+02  0.50812500193E+03  0.51179032267E+03  0.00000000000E+00 0. -1.
         21    1    1    2  504  503 -0.83089870951E+02  0.70611486546E+02 -0.88108988207E+02  0.14018952347E+03  0.00000000000E+00 0. -1.
         21    1    1    2  505  502  0.38388682550E+02 -0.38825759926E+02 -0.62691190599E+02  0.83134324803E+02  0.00000000000E+00 0. -1.
         21    1    1    2  506  505  0.50629586839E+02 -0.92639410862E+02 -0.73657526327E+01  0.10582849248E+03  0.00000000000E+00 0. -1.
<scales pt_clust_3="61.14178" pt_clust_4="123.10329" pt_clust_5="53.77622" pt_clust_6="53.77622"></scales>
<clustering>
<clus scale="   53.776">  5  6 -1 -1</clus>
<clus scale="   61.142">  1  3  2 -1</clus>
<clus scale="  123.103">  2  4  1 -1</clus>
<clus scale="   61.142">  1  3  2 -1</clus>
</clustering>
</event>
<event>
 6    0  0.1704145E+002  0.1018613E+03  0.7546771E-02  0.1276430E+00
         21   -1    0    0  506  501  0.00000000000E+00  0.00000000000E+00  0.20163751418E+03  0.20163751418E+03  0.00000000000E+00 0.  1.
         21   -1    0    0  505  502 -0.00000000000E+00 -0.00000000000E+00 -0.41899242028E+03  0.41899242028E+03  0.00000000000E+00 0. -1.
         21    1    1    2  503  501 -0.36322063423E+02 -0.86584129383E+02  0.16311619099E+03  0.18820997719E+03  0.00000000000E+00 0.  1.
         21    1    1    2  504  502  0.12685726881E+01  0.41587958412E+02 -0.87933974575E+02  0.97280786623E+02  0.00000000000E+00 0. -1.
         21    1    1    2  505  503  0.82608405509E+02 -0.92730873736E+01 -0.10318175137E+03  0.13250136839E+03  0.00000000000E+00 0.  1.
         21    1    1    2  506  504 -0.47554914774E+02  0.54269258345E+02 -0.18935537115E+03  0.20263780225E+03  0.00000000000E+00 0. -1.
<scales pt_clust_3="92.97839" pt_clust_4="31.59094" pt_clust_5="83.12724" pt_clust_6="31.59094"></scales>
<clustering>
<clus scale="   31.591">  4  6 -1 -1</clus>
<clus scale="   83.127">  2  5  1 -1</clus>
<clus scale="   92.978">  1  3  2 -1</clus>
<clus scale="   92.978">  1  3  2 -1</clus>
</clustering>
</event>
<event>
 6    0  0.1704145E+002  0.1510756E+03  0.7546771E-02  0.1199158E+00
         21   -1    0    0  503  501  0.00000000000E+00  0.00000000000E+00  0.10065728804E+04  0.10065728804E+04  0.00000000000E+00 0. -1.
         21   -1    0    0  505  502 -0.00000000000E+00 -0.00000000000E+00 -0.16235053459E+03  0.16235053459E+03  0.00000000000E+00 0.  1.
         21    1    1    2  503  504  0.92281820298E+02 -0.13974494123E+02  0.31787989393E+02  0.98598666893E+02  0.00000000000E+00 0. -1.
         21    1    1    2  504  506  0.63721268372E+01  0.78084325387E+02 -0.15256107337E+02  0.79815504024E+02  0.00000000000E+00 0.  1.
         21    1    1    2  505  501 -0.14004434281E+03 -0.97435275988E+02  0.89138186998E+03  0.90756139687E+03  0.00000000000E+00 0. -1.
         21    1    1    2  506  502  0.41390395675E+02  0.33325444724E+02 -0.63691406249E+02  0.82947847170E+02  0.00000000000E+00 0.  1.
<scales pt_clust_3="14000.00000" pt_clust_4="100.01570" pt_clust_5="151.07556" pt_clust_6="53.13897"></scales>
<clustering>
<clus scale="   53.139">  2  6  1 -1</clus>
<clus scale="  100.016">  2  4  1 -1</clus>
<clus scale="  151.076">  1  5  2 -1</clus>
<clus scale="  151.076">  1  3  2 -1</clus>
</clustering>
</event>
<event>
 6    0  0.1704145E+002  0.1584321E+03  0.7546771E-02  0.1190478E+00
         21   -1    0    0  506  501  0.00000000000E+00  0.00000000000E+00  0.16871124734E+04  0.16871124734E+04  0.00000000000E+00 0.  1.
         21   -1    0    0  504  502 -0.00000000000E+00 -0.00000000000E+00 -0.10728418280E+03  0.10728418280E+03  0.00000000000E+00 0.  1.
         21    1    1    2  503  502  0.41049896551E+02 -0.10145277532E+03 -0.46333948726E+01  0.10954098765E+03  0.00000000000E+00 0.  1.
         21    1    1    2  504  501  0.21027503562E+02  0.13011566633E+03  0.97552711069E+02  0.16397796793E+03  0.00000000000E+00 0. -1.
         21    1    1    2  505  503  0.62754040519E+01 -0.58602092890E+02  0.38169118675E+02  0.70217288524E+02  0.00000000000E+00 0.  1.
         21    1    1    2  506  505 -0.68352804165E+02  0.29939201879E+02  0.14487398557E+04  0.14506604121E+04  0.00000000000E+00 0.  1.
<scales pt_clust_3="42.35431" pt_clust_4="147.54515" pt_clust_5="42.35431" pt_clust_6="74.62213"></scales>
<clustering>
<clus scale="   42.354">  3  5 -1 -1</clus>
<clus scale="   74.622">  1  6  2 -1</clus>
<clus scale="  147.545">  1  4  2 -1</clus>
<clus scale="   74.622">  1  3  2 -1</clus>
</clustering>
</event>
<event>
 6    0  0.1704145E+002  0.1075733E+03  0.7546771E-02  0.1265131E+00
         21   -1    0    0  503  501  0.00000000000E+00  0.00000000000E+00  0.67544879326E+03  0.67544879326E+03  0.00000000000E+00 0.  1.
         21   -1    0    0  504  502 -0.00000000000E+00 -0.00000000000E+00 -0.29915901790E+03  0.29915901790E+03  0.00000000000E+00 0.  1.
         21    1    1    2  503  505  0.10322992404E+03 -0.37207492507E+02 -0.21943388187E+01  0.10975258466E+03  0.00000000000E+00 0.  1.
         21    1    1    2  504  506  0.46611089588E+02  0.60619174074E+02 -0.30132189232E+02  0.82190186555E+02  0.00000000000E+00 0.  1.
         21    1    1    2  505  502 -0.13405587410E+03 -0.10122295332E+03 -0.14589932708E+03  0.22249421858E+03  0.00000000000E+00 0.  1.
         21    1    1    2  506  501 -0.15785139525E+02  0.77811271754E+02  0.55451563049E+03  0.56017082136E+03  0.00000000000E+00 0.  1.
<scales pt_clust_3="107.57331" pt_clust_4="76.46750" pt_clust_5="14000.00000" pt_clust_6="79.98254"></scales>
<clustering>
<clus scale="   76.467">  2  4  1 -1</clus>
<clus scale="   79.983">  1  6  2 -1</clus>
<clus scale="  107.573">  1  3  2 -1</clus>
<clus scale="   79.983">  1  3  2 -1</clus>
</clustering>
</event>
<event>
 6    0  0.1704145E+002  0.9620672E+02  0.7546771E-02  0.1288481E+00
         21   -1    0    0  506  501  0.00000000000E+00  0.00000000000E+00  0.17142127540E+04  0.17142127540E+04  0.00000000000E+00 0.  1.
         21   -1    0    0  503  502 -0.00000000000E+00 -0.00000000000E+00 -0.34300596317E+02  0.34300596317E+02  0.00000000000E+00 0.  1.
         21    1    1    2  503  501  0.29287675082E+02  0.10572378747E+02  0.20680738003E+03  0.20913831676E+03  0.00000000000E+00 0. -1.
         21    1    1    2  504  502  0.16539431575E+01  0.35845452988E+02  0.42181658382E+02  0.55379818812E+02  0.00000000000E+00 0.  1.
         21    1    1    2  505  504  0.71668091822E+02  0.27253809385E+02  0.38397864652E+02  0.85752443238E+02  0.00000000000E+00 0.  1.
         21    1    1    2  506  505 -0.10260971006E+03 -0.73671641120E+02  0.13925252546E+04  0.13982427715E+04  0.00000000000E+00 0.  1.
<scales pt_clust_3="31.13749" pt_clust_4="36.28130" pt_clust_5="14000.00000" pt_clust_6="96.20672"></scales>
<clustering>
<clus scale="   31.137">  1  3  2 -1</clus>
<clus scale="   36.281">  2  4  1 -1</clus>
<clus scale="   96.207">  1  6  2 -1</clus>
<clus scale="   31.137">  1  3  2 -1</clus>
</clustering>
</event>
<event>
 6    0  0.1704145E+002  0.1525512E+03  0.7546771E-02  0.1197373E+00
         21   -1    0    0  504  501  0.00000000000E+00  0.00000000000E+00  0.44455877587E+03  0.44455877587E+03  0.00000000000E+00 0.  1.
         21   -1    0    0  503  502 -0.00000000000E+00 -0.00000000000E+00 -0.32309483647E+03  0.32309483647E+03  0.00000000000E+00 0.  1.
         21    1    1    2  503  501 -0.11911936171E+03 -0.19214243997E+02  0.39777906219E+03  0.41567630654E+03  0.00000000000E+00 0.  1.
         21    1    1    2  504  505 -0.30033883712E+02  0.24340985909E+01  0.57430352312E+01  0.30674769118E+02  0.00000000000E+00 0.  1.
         21    1    1    2  505  506  0.78385418484E+02  0.17486364608E+02 -0.11919422398E+03  0.14372651046E+03  0.00000000000E+00 0.  1.
         21    1    1    2  506  502  0.70767826940E+02 -0.70621920204E+00 -0.16286393404E+03  0.17757602621E+03  0.00000000000E+00 0. -1.
<scales pt_clust_3="148.73334" pt_clust_4="30.13236" pt_clust_5="31.88504" pt_clust_6="31.88504"></scales>
<clustering>
<clus scale="   30.132">  1  4  2 -1</clus>
<clus scale="   31.885">  5  6 -1 -1</clus>
<clus scale="  148.733">  1  3  2 -1</clus>
<clus scale="   30.132">  1  3  2 -1</clus>
</clustering>
</event>
<event>
 6    0  0.1704145E+002  0.1011896E+03  0.7546771E-02  0.1277814E+00
         21   -1    0    0  503  501  0.00000000000E+00  0.00000000000E+00  0.63108386424E+03  0.63108386424E+03  0.00000000000E+00 0.  1.
         21   -1    0    0  506  502 -0.00000000000E+00 -0.00000000000E+00 -0.24860949928E+03  0.24860949928E+03  0.00000000000E+00 0. -1.
         21    1    1    2  503  504 -0.58892829413E+02  0.15555012690E+02  0.51940669878E+03  0.52296619634E+03  0.00000000000E+00 0.  1.
         21    1    1    2  504  505  0.15050681834E+03 -0.12096826979E+02  0.15665085981E+02  0.15180260376E+03  0.00000000000E+00 0. -1.
         21    1    1    2  505  502 -0.16812668528E+02 -0.35342024379E+02 -0.93985485816E+01  0.40249934481E+02  0.00000000000E+00 0. -1.
         21    1    1    2  506  501 -0.74801320400E+02  0.31883838668E+02 -0.14319887121E+03  0.16467462895E+03  0.00000000000E+00 0. -1.
<scales pt_clust_3="60.97069" pt_clust_4="14000.00000" pt_clust_5="39.13725" pt_clust_6="101.18956"></scales>
<clustering>
<clus scale="   39.137">  2  5  1 -1</clus>
<clus scale="   60.971">  1  3  2 -1</clus>
<clus scale="  101.190">  2  6  1 -1</clus>
<clus scale="   60.971">  1  3  2 -1</clus>
</clustering>
</event>
<event>
 6    0  0.1704145E+002  0.1170155E+03  0.7546771E-02  0.1248103E+00
         21   -1    0    0  506  501  0.00000000000E+00  0.00000000000E+00  0.66919576997E+03  0.66919576997E+03  0.00000000000E+00 0.  1.
         21   -1    0    0  504  502 -0.00000000000E+00 -0.00000000000E+00 -0.27153865572E+03  0.27153865572E+03  0.00000000000E+00 0. -1.
         21    1    1    2  503  501  0.38768015871E+02 -0.35351238575E+01 -0.43162587684E+02  0.58124565640E+02  0.00000000000E+00 0. -1.
         21    1    1    2  504  503  0.70616793090E+02  0.42747236270E+02 -0.15792907953E+03  0.17820115554E+03  0.00000000000E+00 0. -1.
         21    1    1    2  505  502 -0.39206982355E+02  0.43817129178E+02 -0.30223381138E+02  0.66110370157E+02  0.00000000000E+00 0. -1.
         21    1    1    2  506  505 -0.70177826606E+02 -0.83029241590E+02  0.62897216260E+03  0.63829833435E+03  0.00000000000E+00 0.  1.
<scales pt_clust_3="30.00741" pt_clust_4="30.00741" pt_clust_5="58.79735" pt_clust_6="108.55077"></scales>
<clustering>
<clus scale="   30.007">  3  4 -1 -1</clus>
<clus scale="   58.797">  2  5  1 -1</clus>
<clus scale="  108.551">  1  6  2 -1</clus>
<clus scale="  108.551">  1  3  2 -1</clus>
</clustering>
</event>
<event>
 6    0  0.1704145E+002  0.1290749E+03  0.7546771E-02  0.1228835E+00
         21   -1    0    0  503  501  0.00000000000E+00  0.00000000000E+00  0.11052223577E+03  0.11052223577E+03  0.00000000000E+00 0.  1.
         21   -1    0    0  505  502 -0.00000000000E+00 -0.00000000000E+00 -0.22867229706E+04  0.22867229706E+04  0.00000000000E+00 0. -1.
         21    1    1    2  503  502  0.58022392925E+01  0.12423707088E+03 -0.14407900174E+04  0.14461481217E+04  0.00000000000E+00 0. -1.
         21    1    1    2  504  501 -0.40182148316E+02 -0.13792012167E+02  0.98775638828E+02  0.10752419016E+03  0.00000000000E+00 0.  1.
         21    1    1    2  505  506  0.27807816598E+02 -0.72862646386E+02 -0.69113066725E+03  0.69551695818E+03  0.00000000000E+00 0. -1.
         21    1    1    2  506  504  0.65720924248E+01 -0.37582412322E+02 -0.14305568905E+03  0.14805593634E+03  0.00000000000E+00 0. -1.
<scales pt_clust_3="119.54945" pt_clust_4="42.48323" pt_clust_5="34.03782" pt_clust_6="34.03782"></scales>
<clustering>
<clus scale="   34.038">  5  6 -1 -1</clus>
<clus scale="   42.483">  1  4  2 -1</clus>
<clus scale="  119.549">  2  3  1 -1</clus>
<clus scale="   42.483">  1  3  2 -1</clus>
</clustering>
</event>
<event>
 6    0  0.1704145E+002  0.1469517E+03  0.7546771E-02  0.1204269E+00
         21   -1    0    0  504  501  0.00000000000E+00  0.00000000000E+00  0.16819132215E+03  0.16819132215E+03  0.00000000000E+00 0. -1.
         21   -1    0    0  503  502 -0.00000000000E+00 -0.00000000000E+00 -0.50209152335E+03  0.50209152335E+03  0.00000000000E+00 0. -1.
         21    1    1    2  503  501  0.37556349193E+02  0.39507421178E+02 -0.45565597161E+02  0.71046036747E+02  0.00000000000E+00 0. -1.
         21    1    1    2  504  505  0.28629724688E+01 -0.16089010100E+03  0.78419702934E+02  0.17900690215E+03  0.00000000000E+00 0. -1.
         21    1    1    2  505  506 -0.87749769635E+02  0.91555354843E+02 -0.15025372358E+03  0.19661786928E+03  0.00000000000E+00 0. -1.
         21    1    1    2  506  502  0.47330447973E+02  0.29827324977E+02 -0.21650058339E+03  0.22361203731E+03  0.00000000000E+00 0. -1.
<scales pt_clust_3="54.50978" pt_clust_4="14000.00000" pt_clust_5="146.95174" pt_clust_6="82.41309"></scales>
<clustering>
<clus scale="   54.510">  2  3  1 -1</clus>
<clus scale="   82.413">  2  6  1 -1</clus>
<clus scale="  146.952">  2  5  1 -1</clus>
<clus scale="  146.952">  1  3  2 -1</clus>
</clustering>
</event>
<event>
 6    0  0.1704145E+002  0.1117611E+03  0.7546771E-02  0.1257343E+00
         21   -1    0    0  506  501  0.00000000000E+00  0.00000000000E+00  0.14634720465E+02  0.14634720465E+02  0.00000000000E+00 0. -1.
         21   -1    0    0  505  502 -0.00000000000E+00 -0.00000000000E+00 -0.18357549404E+04  0.18357549404E+04  0.00000000000E+00 0. -1.
         21    1    1    2  503  502 -0.57822799027E+02 -0.61611764660E+01 -0.61689235300E+03  0.61962699374E+03  0.00000000000E+00 0. -1.
         21    1    1    2  504  503 -0.37466600793E+02  0.22478926462E+02 -0.25428956538E+03  0.25801595178E+03  0.00000000000E+00 0.  1.
         21    1    1    2  505  501  0.96190040193E+02 -0.60059271034E+02 -0.89668010644E+03  0.90382235708E+03  0.00000000000E+00 0. -1.
         21    1    1    2  506  504 -0.90064037280E+00  0.43741521038E+02 -0.53258195111E+02  0.68924358265E+02  0.00000000000E+00 0. -1.
<scales pt_clust_3="38.30586" pt_clust_4="38.30586" pt_clust_5="102.65324" pt_clust_6="43.75079"></scales>
<clustering>
<clus scale="   38.306">  3  4 -1 -1</clus>
<clus scale="   43.751">  1  6  2 -1</clus>
<clus scale="  102.653">  1  5  2 -1</clus>
<clus scale="   43.751">  1  3  2 -1</clus>
</clustering>
</event>
<event>
 6    0  0.1704145E+002  0.1489690E+03  0.7546771E-02  0.1201746E+00
         21   -1    0    0  506  501  0.00000000000E+00  0.00000000000E+00  0.11586259674E+03  0.11586259674E+03  0.00000000000E+00 0.  1.
         21   -1    0    0  503  502 -0.00000000000E+00 -0.00000000000E+00 -0.87186370835E+03  0.87186370835E+03  0.00000000000E+00 0.  1.
         21    1    1    2  503  505 -0.60464526958E+02  0.50055123202E+02 -0.27574848083E+03  0.28670315495E+03  0.00000000000E+00 0.  1.
         21    1    1    2  504  502  0.11666258249E+01 -0.52055658180E+02 -0.10066451358E+03  0.11333356458E+03  0.00000000000E+00 0.  1.
         21    1    1    2  505  501 -0.33580241674E+02  0.12600862628E+03  0.43225305148E+02  0.13738352716E+03  0.00000000000E+00 0.  1.
         21    1    1    2  506  504  0.92878142807E+02 -0.12400809131E+03 -0.42281342234E+03  0.45030605840E+03  0.00000000000E+00 0.  1.
<scales pt_clust_3="78.49506" pt_clust_4="35.81887" pt_clust_5="135.55127" pt_clust_6="35.81887"></scales>
<clustering>
<clus scale="   35.819">  4  6 -1 -1</clus>
<clus scale="   78.495">  2  3  1 -1</clus>
<clus scale="  135.551">  1  5  2 -1</clus>
<clus scale="  135.551">  1  3  2 -1</clus>
</clustering>
</event>
<event>
 6    0  0.1704145E+002  0.1054725E+03  0.7546771E-02  0.1269192E+00
         21   -1    0    0  506  501  0.00000000000E+00  0.00000000000E+00  0.36026117585E+03  0.36026117585E+03  0.00000000000E+00 0. -1.
         21   -1    0    0  504  502 -0.00000000000E+00 -0.00000000000E+00 -0.23636196691E+03  0.23636196691E+03  0.00000000000E+00 0.  1.
         21    1    1    2  503  501  0.11426309204E+02  0.33341738682E+02 -0.45495024819E+00  0.35248249036E+02  0.00000000000E+00 0. -1.
         21    1    1    2  504  503 -0.32219855011E+02 -0.11730362584E+02 -0.39406236803E+02  0.52235734534E+02  0.00000000000E+00 0.  1.
         21    1    1    2  505  502  0.10800707583E+03 -0.78254486517E+02 -0.13682253187E+03  0.19107511172E+03  0.00000000000E+00 0.  1.
         21    1    1    2  506  505 -0.87213530028E+02  0.56643110419E+02  0.30058292786E+03  0.31806404748E+03  0.00000000000E+00 0. -1.
<scales pt_clust_3="33.32090" pt_clust_4="34.28878" pt_clust_5="14000.00000" pt_clust_6="105.47246"></scales>
<clustering>
<clus scale="   34.289">  2  4  1 -1</clus>
<clus scale="   33.321">  2  3  1 -1</clus>
<clus scale="  105.472">  1  6  2 -1</clus>
<clus scale="  105.472">  1  3  2 -1</clus>
</clustering>
</event>
<event>
 6    0  0.1704145E+002  0.1225028E+03  0.7546771E-02  0.1239024E+00
         21   -1    0    0  506  501  0.00000000000E+00  0.00000000000E+00  0.19979338010E+03  0.19979338010E+03  0.00000000000E+00 0.  1.
         21   -1    0    0  503  502 -0.00000000000E+00 -0.00000000000E+00 -0.37533541192E+03  0.37533541192E+03  0.00000000000E+00 0. -1.
         21    1    1    2  503  505  0.54168727697E+02  0.10764365021E+02 -0.16378320933E+03  0.17284404032E+03  0.00000000000E+00 0. -1.
         21    1    1    2  504  502 -0.26565807465E+01 -0.33607954515E+02 -0.27541169341E+02  0.43532379175E+02  0.00000000000E+00 0.  1.
         21    1    1    2  505  501  0.40103848956E+02 -0.40158592178E+02 -0.14929663792E+03  0.15972012184E+03  0.00000000000E+00 0. -1.
         21    1    1    2  506  504 -0.91615995907E+02  0.63002181673E+02  0.16507898477E+03  0.19903225069E+03  0.00000000000E+00 0.  1.
<scales pt_clust_3="47.12868" pt_clust_4="33.71279" pt_clust_5="47.12868" pt_clust_6="110.35556"></scales>
<clustering>
<clus scale="   33.713">  2  4  1 -1</clus>
<clus scale="   47.129">  3  5 -1 -1</clus>
<clus scale="  110.356">  1  6  2 -1</clus>
<clus scale="  110.356">  1  3  2 -1</clus>
</clustering>
</event>
<event>
 6    0  0.1704145E+002  0.8389756E+02  0.7546771E-02  0.1318341E+00
         21   -1    0    0  504  501  0.00000000000E+00  0.00000000000E+00  0.27810743394E+03  0.27810743394E+03  0.00000000000E+00 0.  1.
         21   -1    0    0  505  502 -0.00000000000E+00 -0.00000000000E+00 -0.19111527910E+04  0.19111527910E+04  0.00000000000E+00 0.  1.
         21    1    1    2  503  502 -0.32308478716E+02  0.21474867460E+02 -0.33708820813E+03  0.33931322961E+03  0.00000000000E+00 0.  1.
         21    1    1    2  504  506  0.62513842072E+02  0.56102847414E+02  0.25561688410E+03  0.26906412131E+03  0.00000000000E+00 0.  1.
         21    1    1    2  505  501  0.46744310727E+02 -0.69641987803E+02 -0.11558038392E+03  0.14280708035E+03  0.00000000000E+00 0.  1.
         21    1    1    2  506  503 -0.76949674083E+02 -0.79357270713E+01 -0.14359936491E+04  0.14380757936E+04  0.00000000000E+00 0.  1.
<scales pt_clust_3="38.79443" pt_clust_4="14000.00000" pt_clust_5="80.94091" pt_clust_6="83.89756"></scales>
<clustering>
<clus scale="   38.794">  2  3  1 -1</clus>
<clus scale="   80.941">  2  5  1 -1</clus>
<clus scale="   83.898">  2  6  1 -1</clus>
<clus scale="   83.898">  1  3  2 -1</clus>
</clustering>
</event>
<event>
 6    0  0.1704145E+002  0.7834957E+02  0.7546771E-02  0.1333801E+00
         21   -1    0    0  503  501  0.00000000000E+00  0.00000000000E+00  0.14892906579E+03  0.14892906579E+03  0.00000000000E+00 0. -1.
         21   -1    0    0  505  502 -0.00000000000E+00 -0.00000000000E+00 -0.77276596399E+03  0.77276596399E+03  0.00000000000E+00 0. -1.
         21    1    1    2  503  504  0.33688867205E+02  0.71360377880E+02  0.12569304335E+03  0.14841153746E+03  0.00000000000E+00 0. -1.
         21    1    1    2  504  502 -0.86574029641E+02 -0.18135328871E+02 -0.48540376851E+03  0.49339717393E+03  0.00000000000E+00 0. -1.
         21    1    1    2  505  506  0.12325396613E+01 -0.36650683408E+02 -0.81424230259E+02  0.89301159128E+02  0.00000000000E+00 0. -1.
         21    1    1    2  506  501  0.51652622775E+02 -0.16574365600E+02 -0.18270194278E+03  0.19058515926E+03  0.00000000000E+00 0. -1.
<scales pt_clust_3="78.34957" pt_clust_4="14000.00000" pt_clust_5="36.67140" pt_clust_6="58.36345"></scales>
<clustering>
<clus scale="   36.671">  2  5  1 -1</clus>
<clus scale="   58.363">  2  6  1 -1</clus>
<clus scale="   78.350">  1  3  2 -1</clus>
<clus scale="   78.350">  1  3  2 -1</clus>
</clustering>
</event>
<event>
 6    0  0.1704145E+002  0.1508134E+03  0.7546771E-02  0.1199477E+00
         21   -1    0    0  505  501  0.00000000000E+00  0.00000000000E+00  0.17117843548E+03  0.17117843548E+03  0.00000000000E+00 0.  1.
         21   -1    0    0  506  502 -0.00000000000E+00 -0.00000000000E+00 -0.17576227902E+04  0.17576227902E+04  0.00000000000E+00 0. -1.
         21    1    1    2  503  504 -0.87620427496E+02  0.64866278907E+02 -0.64052487550E+03  0.64973616921E+03  0.00000000000E+00 0. -1.
         21    1    1    2  504  501  0.14957943297E+03 -0.34962322555E+02  0.12893291926E+03  0.20054941644E+03  0.00000000000E+00 0.  1.
         21    1    1    2  505  502 -0.14426797676E+02 -0.31843630846E+02 -0.26927717585E+03  0.27153700807E+03  0.00000000000E+00 0. -1.
         21    1    1    2  506  503 -0.47532207800E+02  0.19396744945E+01 -0.80557522264E+03  0.80697863196E+03  0.00000000000E+00 0. -1.
<scales pt_clust_3="150.81345" pt_clust_4="14000.00000" pt_clust_5="34.95925" pt_clust_6="57.43551"></scales>
<clustering>
<clus scale="   34.959">  2  5  1 -1</clus>
<clus scale="   57.436">  2  6  1 -1</clus>
<clus scale="  150.813">  2  3  1 -1</clus>
<clus scale="  150.813">  1  3  2 -1</clus>
</clustering>
</event>
<event>
 6    0  0.1704145E+002  0.1597842E+03  0.7546771E-02  0.1188941E+00
         21   -1    0    0  505  501  0.00000000000E+00  0.00000000000E+00  0.45178830922E+03  0.45178830922E+03  0.00000000000E+00 0.  1.
         21   -1    0    0  503  502 -0.00000000000E+00 -0.00000000000E+00 -0.19852133332E+03  0.19852133332E+03  0.00000000000E+00 0. -1.
         21    1    1    2  503  506  0.88570324448E+02 -0.27005940911E+02  0.91375629832E+01  0.93045785905E+02  0.00000000000E+00 0. -1.
         21    1    1    2  504  501 -0.14183099667E+03  0.46052012718E+02  0.37545724797E+03  0.40398634203E+03  0.00000000000E+00 0.  1.
         21    1    1    2  505  502  0.29336302584E+02  0.10731624019E+02 -0.97053827303E+02  0.10195700956E+03  0.00000000000E+00 0. -1.
         21    1    1    2  506  504  0.23924369635E+02 -0.29777695826E+02 -0.34274007755E+02  0.51320505051E+02  0.00000000000E+00 0. -1.
<scales pt_clust_3="43.11004" pt_clust_4="145.60437" pt_clust_5="31.23758" pt_clust_6="43.11004"></scales>
<clustering>
<clus scale="   31.238">  2  5  1 -1</clus>
<clus scale="   43.110">  3  6 -1 -1</clus>
<clus scale="  145.604">  1  4  2 -1</clus>
<clus scale="  145.604">  1  3  2 -1</clus>
</clustering>
</event>
<event>
 6    0  0.1704145E+002  0.1673958E+03  0.7546771E-02  0.1180591E+00
         21   -1    0    0  505  501  0.00000000000E+00  0.00000000000E+00  0.38086339065E+03  0.38086339065E+03  0.00000000000E+00 0.  1.
         21   -1    0    0  506  502 -0.00000000000E+00 -0.00000000000E+00 -0.46164133505E+03  0.46164133505E+03  0.00000000000E+00 0.  1.
         21    1    1    2  503  502  0.43029710078E+02  0.24399124165E+02 -0.25407073445E+03  0.25884128595E+03  0.00000000000E+00 0.  1.
         21    1    1    2  504  501 -0.10766300511E+03 -0.14372362648E+03  0.32370979149E+03  0.37018351204E+03  0.00000000000E+00 0.  1.
         21    1    1    2  505  503  0.25493625394E+02  0.10687559058E+03 -0.10121143720E+03  0.14938564797E+03  0.00000000000E+00 0.  1.
         21    1    1    2  506  504  0.39139669639E+02  0.12448911737E+02 -0.49205564239E+02  0.64094279736E+02  0.00000000000E+00 0.  1.
<scales pt_clust_3="75.10621" pt_clust_4="14000.00000" pt_clust_5="167.39582" pt_clust_6="41.07176"></scales>
<clustering>
<clus scale="   41.072">  2  6  1 -1</clus>
<clus scale="   75.106">  2  3  1 -1</clus>
<clus scale="  167.396">  2  5  1 -1</clus>
<clus scale="  167.396">  1  3  2 -1</clus>
</clustering>
</event>
<event>
 6    0  0.1704145E+002  0.2703175E+03  0.7546771E-02  0.1101098E+00
         21   -1    0    0  506  501  0.00000000000E+00  0.00000000000E+00  0.12237006806E+04  0.12237006806E+04  0.00000000000E+00 0. -1.
         21   -1    0    0  503  502 -0.00000000000E+00 -0.00000000000E+00 -0.23457151663E+03  0.23457151663E+03  0.00000000000E+00 0.  1.
         21    1    1    2  503  501 -0.71189522628E+02 -0.41012873533E+02  0.44250052451E+02  0.93317045974E+02  0.00000000000E+00 0.  1.
         21    1    1    2  504  505 -0.36572321657E+02  0.22143370023E+02 -0.54122095028E+02  0.68971477565E+02  0.00000000000E+00 0.  1.
         21    1    1    2  505  502 -0.12637809255E+03  0.14091570399E+03 -0.64672626165E+02  0.20002801424E+03  0.00000000000E+00 0.  1.
         21    1    1    2  506  504  0.23413993683E+03 -0.12204620048E+03  0.10636738327E+04  0.10959556594E+04  0.00000000000E+00 0. -1.
<scales pt_clust_3="82.15841" pt_clust_4="33.96487" pt_clust_5="33.96487" pt_clust_6="260.69930"></scales>
<clustering>
<clus scale="   33.965">  4  5 -1 -1</clus>
<clus scale="   82.158">  2  3  1 -1</clus>
<clus scale="  260.699">  1  6  2 -1</clus>
<clus scale="  260.699">  1  3  2 -1</clus>
</clustering>
</event>
<event>
 6    0  0.1704145E+002  0.9137173E+02  0.7546771E-02  0.1299563E+00
         21   -1    0    0  503  501  0.00000000000E+00  0.00000000000E+00  0.11795623314E+03  0.11795623314E+03  0.00000000000E+00 0.  1.
         21   -1    0    0  506  502 -0.00000000000E+00 -0.00000000000E+00 -0.49486788135E+03  0.49486788135E+03  0.00000000000E+00 0. -1.
         21    1    1    2  503  505 -0.23146959980E+02  0.32765787294E+02 -0.73344350960E+01  0.40782012107E+02  0.00000000000E+00 0. -1.
         21    1    1    2  504  502  0.38600476134E+02 -0.13486220398E+02 -0.30286951861E+03  0.30561711373E+03  0.00000000000E+00 0. -1.
         21    1    1    2  505  504  0.11367642083E+02  0.88542507394E+02 -0.11474247322E+03  0.14537824480E+03  0.00000000000E+00 0. -1.
         21    1    1    2  506  501 -0.26821158237E+02 -0.10782207429E+03  0.48034778711E+02  0.12104674386E+03  0.00000000000E+00 0.  1.
<scales pt_clust_3="40.11706" pt_clust_4="40.44660" pt_clust_5="91.37173" pt_clust_6="14000.00000"></scales>
<clustering>
<clus scale="   40.117">  1  3  2 -1</clus>
<clus scale="   40.447">  2  4  1 -1</clus>
<clus scale="   91.372">  2  5  1 -1</clus>
<clus scale="   40.117">  1  3  2 -1</clus>
</clustering>
</event>
<event>
 6    0  0.1704145E+002  0.2513246E+03  0.7546771E-02  0.1112471E+00
         21   -1    0    0  505  501  0.00000000000E+00  0.00000000000E+00  0.17642192464E+04  0.17642192464E+04  0.00000000000E+00 0.  1.
         21   -1    0    0  501  502 -0.00000000000E+00 -0.00000000000E+00 -0.41678444313E+03  0.41678444313E+03  0.00000000000E+00 0. -1.
         21    1    1    2  503  506 -0.49636823776E+02  0.94229763245E+01 -0.40142955066E+02  0.64529556010E+02  0.00000000000E+00 0.  1.
         21    1    1    2  504  503 -0.76583265344E+02 -0.64275768198E+02 -0.24616492708E+03  0.26569445277E+03  0.00000000000E+00 0. -1.
         21    1    1    2  505  504  0.18156895810E+03  0.11548380600E+03  0.17190038516E+04  0.17324197060E+04  0.00000000000E+00 0.  1.
         21    1    1    2  506  502 -0.55348868979E+02 -0.60631014125E+02 -0.85261166155E+02  0.11835997476E+03  0.00000000000E+00 0.  1.
<scales pt_clust_3="50.09768" pt_clust_4="72.70952" pt_clust_5="215.18317" pt_clust_6="72.70952"></scales>
<clustering>
<clus scale="   50.098">  3  6 -1 -1</clus>
<clus scale="   72.710">  3  4 -1 -1</clus>
<clus scale="  215.183">  1  5  2 -1</clus>
<clus scale="  215.183">  1  3  2 -1</clus>
</clustering>
</event>
<event>
 6    0  0.1704145E+002  0.2437643E+03  0.7546771E-02  0.1117310E+00
         21   -1    0    0  506  501  0.00000000000E+00  0.00000000000E+00  0.15316204802E+03  0.15316204802E+03  0.00000000000E+00 0. -1.
         21   -1    0    0  504  502 -0.00000000000E+00 -0.00000000000E+00 -0.63555176775E+03  0.63555176775E+03  0.00000000000E+00 0. -1.
         21    1    1    2  503  502  0.19351593437E+01  0.35227312869E+02 -0.13230386395E+03  0.13692706390E+03  0.00000000000E+00 0. -1.
         21    1    1    2  504  501 -0.31621727505E+01 -0.27083025089E+03 -0.82001157856E+02  0.28298977724E+03  0.00000000000E+00 0. -1.
         21    1    1    2  505  503 -0.73756654205E+01  0.18404959122E+03 -0.25560831056E+03  0.31506231272E+03  0.00000000000E+00 0. -1.
         21    1    1    2  506  505  0.86026788273E+01  0.51553346800E+02 -0.12476387367E+02  0.53734661915E+02  0.00000000000E+00 0. -1.
<scales pt_clust_3="33.06079" pt_clust_4="231.76382" pt_clust_5="33.06079" pt_clust_6="52.26618"></scales>
<clustering>
<clus scale="   33.061">  3  5 -1 -1</clus>
<clus scale="   52.266">  1  6  2 -1</clus>
<clus scale="  231.764">  1  4  2 -1</clus>
<clus scale="   52.266">  1  3  2 -1</clus>
</clustering>
</event>
<event>
 6    0  0.1704145E+002  0.1071689E+03  0.7546771E-02  0.1265904E+00
         21   -1    0    0  505  501  0.00000000000E+00  0.00000000000E+00  0.25100476446E+03  0.25100476446E+03  0.00000000000E+00 0.  1.
         21   -1    0    0  504  502 -0.00000000000E+00 -0.00000000000E+00 -0.78869693846E+02  0.78869693846E+02  0.00000000000E+00 0.  1.
         21    1    1    2  503  506  0.18200805088E+02  0.40008069665E+02  0.46410770590E+02  0.63920846138E+02  0.00000000000E+00 0.  1.
         21    1    1    2  504  501  0.40125070441E+02 -0.85432556626E+02  0.14169534982E+02  0.95443798809E+02  0.00000000000E+00 0.  1.
         21    1    1    2  505  503 -0.41691554901E+02 -0.18935566307E+02  0.89392473127E+02  0.10043781993E+03  0.00000000000E+00 0.  1.
         21    1    1    2  506  502 -0.16634320628E+02  0.64360053267E+02  0.22162291910E+02  0.70071993421E+02  0.00000000000E+00 0.  1.
<scales pt_clust_3="39.47446" pt_clust_4="95.54322" pt_clust_5="45.79019" pt_clust_6="39.47446"></scales>
<clustering>
<clus scale="   39.474">  3  6 -1 -1</clus>
<clus scale="   45.790">  1  5  2 -1</clus>
<clus scale="   95.543">  2  4  1 -1</clus>
<clus scale="   45.790">  1  3  2 -1</clus>
</clustering>
</event>
<event>
 6    0  0.1704145E+002  0.1443569E+03  0.7546771E-02  0.1207584E+00
         21   -1    0    0  503  501  0.00000000000E+00  0.00000000000E+00  0.11890535187E+03  0.11890535187E+03  0.00000000000E+00 0.  1.
         21   -1    0    0  501  502 -0.00000000000E+00 -0.00000000000E+00 -0.33380276012E+03  0.33380276012E+03  0.00000000000E+00 0.  1.
         21    1    1    2  503  506  0.38127213129E+02  0.34391930119E+02  0.14511141015E+02  0.53357871508E+02  0.00000000000E+00 0.  1.
         21    1    1    2  504  502 -0.13496333718E+03  0.47216569805E+02 -0.22312937949E+03  0.26501174850E+03  0.00000000000E+00 0.  1.
         21    1    1    2  505  504  0.38133566372E+02 -0.14938968260E+02  0.13891106517E+02  0.43247017206E+02  0.00000000000E+00 0.  1.
         21    1    1    2  506  505  0.58702557681E+02 -0.66669531665E+02 -0.20170276287E+02  0.91091474772E+02  0.00000000000E+00 0.  1.
<scales pt_clust_3="51.34675" pt_clust_4="137.36333" pt_clust_5="30.13924" pt_clust_6="30.13924"></scales>
<clustering>
<clus scale="   30.139">  5  6 -1 -1</clus>
<clus scale="   51.347">  1  3  2 -1</clus>
<clus scale="  137.363">  2  4  1 -1</clus>
<clus scale="   51.347">  1  3  2 -1</clus>
</clustering>
</event>
<event>
 6    0  0.1704145E+002  0.2534682E+03  0.7546771E-02  0.1111132E+00
         21   -1    0    0  502  501  0.00000000000E+00  0.00000000000E+00  0.16901754527E+03  0.16901754527E+03  0.00000000000E+00 0. -1.
         21   -1    0    0  505  502 -0.00000000000E+00 -0.00000000000E+00 -0.35729960514E+03  0.35729960514E+03  0.00000000000E+00 0. -1.
         21    1    1    2  503  501  0.19939843700E+03 -0.11965037331E+03 -0.51037198996E+02  0.23807718117E+03  0.00000000000E+00 0. -1.
         21    1    1    2  504  506 -0.11817712657E+03  0.63560755709E+02 -0.11628309759E+03  0.17756002280E+03  0.00000000000E+00 0. -1.
         21    1    1    2  505  504 -0.19728520350E+02  0.37933682588E+02  0.13864972034E+01  0.42779681677E+02  0.00000000000E+00 0. -1.
         21    1    1    2  506  503 -0.61492790081E+02  0.18155935014E+02 -0.22348260482E+02  0.67900264762E+02  0.00000000000E+00 0. -1.
<scales pt_clust_3="232.54236" pt_clust_4="40.66414" pt_clust_5="40.66414" pt_clust_6="31.47420"></scales>
<clustering>
<clus scale="   31.474">  4  6 -1 -1</clus>
<clus scale="   40.664">  4  5 -1 -1</clus>
<clus scale="  232.542">  1  3  2 -1</clus>
<clus scale="  232.542">  1  3  2 -1</clus>
</clustering>
</event>
<event>
 6    0  0.1704145E+002  0.1022400E+03  0.7546771E-02  0.1275655E+00
         21   -1    0    0  502  501  0.00000000000E+00  0.00000000000E+00  0.30344733302E+03  0.30344733302E+03  0.00000000000E+00 0.  1.
         21   -1    0    0  504  502 -0.00000000000E+00 -0.00000000000E+00 -0.97008445974E+02  0.97008445974E+02  0.00000000000E+00 0.  1.
         21    1    1    2  503  506 -0.51918545058E+02 -0.39403263677E+01  0.25048589759E+02  0.57779696622E+02  0.00000000000E+00 0.  1.
         21    1    1    2  504  503 -0.28853173976E+02  0.40812387648E+02  0.31215745660E+01  0.50078946293E+02  0.00000000000E+00 0.  1.
         21    1    1    2  505  501  0.10329472759E+03  0.56550115482E+02  0.15329615186E+03  0.19330656089E+03  0.00000000000E+00 0.  1.
         21    1    1    2  506  505 -0.22523008558E+02 -0.93422176762E+02  0.24972570860E+02  0.99290575186E+02  0.00000000000E+00 0.  1.
<scales pt_clust_3="58.56669" pt_clust_4="49.98156" pt_clust_5="102.23999" pt_clust_6="14000.00000"></scales>
<clustering>
<clus scale="   49.982">  2  4  1 -1</clus>
<clus scale="   58.567">  2  3  1 -1</clus>
<clus scale="  102.240">  1  5  2 -1</clus>
<clus scale="  102.240">  1  3  2 -1</clus>
</clustering>
</event>
<event>
 6    0  0.1704145E+002  0.9567829E+02  0.7546771E-02  0.1289656E+00
         21   -1    0    0  505  501  0.00000000000E+00  0.00000000000E+00  0.18911850895E+04  0.18911850895E+04  0.00000000000E+00 0. -1.
         21   -1    0    0  503  502 -0.00000000000E+00 -0.00000000000E+00 -0.11174424575E+03  0.11174424575E+03  0.00000000000E+00 0. -1.
         21    1    1    2  503  506 -0.48617531899E+02  0.82801775203E+02 -0.49575775306E+02  0.10806274049E+03  0.00000000000E+00 0. -1.
         21    1    1    2  504  502  0.18201108644E+02 -0.96049466804E+02  0.25354348416E+03  0.27173715019E+03  0.00000000000E+00 0. -1.
         21    1    1    2  505  504  0.37758436462E+01 -0.56481597393E+02  0.15390166657E+04  0.15400573772E+04  0.00000000000E+00 0. -1.
         21    1    1    2  506  501  0.26640579610E+02  0.69729288994E+02  0.36456469172E+02  0.83072067328E+02  0.00000000000E+00 0.  1.
<scales pt_clust_3="95.67829" pt_clust_4="14000.00000" pt_clust_5="56.60767" pt_clust_6="66.02982"></scales>
<clustering>
<clus scale="   56.608">  1  5  2 -1</clus>
<clus scale="   66.030">  1  6  2 -1</clus>
<clus scale="   95.678">  2  3  1 -1</clus>
<clus scale="   56.608">  1  3  2 -1</clus>
</clustering>
</event>
<event>
 6    0  0.1704145E+002  0.1289344E+03  0.7546771E-02  0.1229045E+00
         21   -1    0    0  503  501  0.00000000000E+00  0.00000000000E+00  0.34669661480E+03  0.34669661480E+03  0.00000000000E+00 0. -1.
         21   -1    0    0  506  502 -0.00000000000E+00 -0.00000000000E+00 -0.18795657159E+04  0.18795657159E+04  0.00000000000E+00 0. -1.
         21    1    1    2  503  505 -0.11335807516E+03  0.39487463480E+02 -0.62344667684E+03  0.63489768612E+03  0.00000000000E+00 0.  1.
         21    1    1    2  504  501  0.11394876034E+03  0.62336848459E+02  0.32470899922E+03  0.34972294296E+03  0.00000000000E+00 0. -1.
         21    1    1    2  505  502 -0.29847672768E+02 -0.88886530962E+02 -0.66087856915E+03  0.66749695289E+03  0.00000000000E+00 0. -1.
         21    1    1    2  506  504  0.29256987585E+02 -0.12937780977E+02 -0.57325285433E+03  0.57414474873E+03  0.00000000000E+00 0. -1.
<scales pt_clust_3="14000.00000" pt_clust_4="128.93441" pt_clust_5="96.63305" pt_clust_6="31.98996"></scales>
<clustering>
<clus scale="   31.990">  2  6  1 -1</clus>
<clus scale="   96.633">  2  5  1 -1</clus>
<clus scale="  128.934">  1  4  2 -1</clus>
<clus scale="  128.934">  1  3  2 -1</clus>
</clustering>
</event>
<event>
 6    0  0.1704145E+002  0.6597459E+02  0.7546771E-02  0.1374343E+00
         21   -1    0    0  505  501  0.00000000000E+00  0.00000000000E+00  0.18870469189E+04  0.18870469189E+04  0.00000000000E+00 0. -1.
         21   -1    0    0  503  502 -0.00000000000E+00 -0.00000000000E+00 -0.15400510296E+04  0.15400510296E+04  0.00000000000E+00 0.  1.
         21    1    1    2  503  504  0.12519448039E+02 -0.56930922533E+02 -0.70453790518E+03  0.70694520746E+03  0.00000000000E+00 0.  1.
         21    1    1    2  504  501  0.49053996873E+02 -0.65594157084E+02 -0.37679906028E+03  0.38559878096E+03  0.00000000000E+00 0.  1.
         21    1    1    2  505  506 -0.55439836934E+02  0.35733808465E+02  0.18766818187E+04  0.18778405495E+04  0.00000000000E+00 0. -1.
         21    1    1    2  506  502 -0.61336079784E+01  0.86791271152E+02 -0.44834896400E+03  0.45671341059E+03  0.00000000000E+00 0.  1.
<scales pt_clust_3="58.29122" pt_clust_4="65.97459" pt_clust_5="14000.00000" pt_clust_6="55.91568"></scales>
<clustering>
<clus scale="   58.291">  2  3  1 -1</clus>
<clus scale="   55.916">  2  6  1 -1</clus>
<clus scale="   65.975">  2  4  1 -1</clus>
<clus scale="   65.975">  1  3  2 -1</clus>
</clustering>
</event>
<event>
 6    0  0.1704145E+002  0.1069289E+03  0.7546771E-02  0.1266365E+00
         21   -1    0    0  505  501  0.00000000000E+00  0.00000000000E+00  0.20521934210E+02  0.20521934210E+02  0.00000000000E+00 0. -1.
         21   -1    0    0  504  502 -0.00000000000E+00 -0.00000000000E+00 -0.22938802098E+04  0.22938802098E+04  0.00000000000E+00 0. -1.
         21    1    1    2  503  506  0.27442713649E+02  0.19869178999E+02 -0.33080548848E+03  0.33253594995E+03  0.00000000000E+00 0.  1.
         21    1    1    2  504  501 -0.10991850174E+03  0.26455471069E+02 -0.79987236749E+03  0.80782286007E+03  0.00000000000E+00 0. -1.
         21    1    1    2  505  503  0.64984003167E+02 -0.89963418713E+02 -0.18877617937E+03  0.21898123955E+03  0.00000000000E+00 0. -1.
         21    1    1    2  506  502  0.17491784928E+02  0.43638768645E+02 -0.95390424029E+03  0.95506209448E+03  0.00000000000E+00 0.  1.
<scales pt_clust_3="31.50438" pt_clust_4="14000.00000" pt_clust_5="106.92889" pt_clust_6="86.19534"></scales>
<clustering>
<clus scale="   31.504">  3  6 -1 -1</clus>
<clus scale="   86.195">  2  3  1 -1</clus>
<clus scale="  106.929">  1  5  2 -1</clus>
<clus scale="  106.929">  1  3  2 -1</clus>
</clustering>
</event>
<event>
 6    0  0.1704145E+002  0.2669100E+03  0.7546771E-02  0.1103061E+00
         21   -1    0    0  503  501  0.00000000000E+00  0.00000000000E+00  0.15357776013E+04  0.15357776013E+04  0.00000000000E+00 0. -1.
         21   -1    0    0  504  502 -0.00000000000E+00 -0.00000000000E+00 -0.34714762395E+03  0.34714762395E+03  0.00000000000E+00 0. -1.
         21    1    1    2  503  505 -0.11564657356E+03 -0.14105819409E+02  0.13128217751E+04  0.13179810762E+04  0.00000000000E+00 0. -1.
         21    1    1    2  504  501  0.22724456663E+03 -0.19684698848E+03 -0.38005362449E+02  0.30303999326E+03  0.00000000000E+00 0.  1.
         21    1    1    2  505  506 -0.16075169196E+02  0.81342864164E+02 -0.50186172462E+02  0.96921228436E+02  0.00000000000E+00 0. -1.
         21    1    1    2  506  502 -0.95522823878E+02  0.12960994373E+03 -0.36000262812E+02  0.16498292735E+03  0.00000000000E+00 0. -1.
<scales pt_clust_3="116.50367" pt_clust_4="258.90246" pt_clust_5="46.56533" pt_clust_6="46.56533"></scales>
<clustering>
<clus scale="   46.565">  5  6 -1 -1</clus>
<clus scale="  116.504">  1  3  2 -1</clus>
<clus scale="  258.902">  1  4  2 -1</clus>
<clus scale="  116.504">  1  3  2 -1</clus>
</clustering>
</event>
<event>
 6    0  0.1704145E+002  0.1302811E+03  0.7546771E-02  0.1227039E+00
         21   -1    0    0  503  501  0.00000000000E+00  0.00000000000E+00  0.89013481142E+02  0.89013481142E+02  0.00000000000E+00 0. -1.
         21   -1    0    0  504  502 -0.00000000000E+00 -0.00000000000E+00 -0.32565776640E+03  0.32565776640E+03  0.00000000000E+00 0. -1.
         21    1    1    2  503  505 -0.53645453367E+02  0.17908973426E+02 -0.12822970235E+03  0.14014785963E+03  0.00000000000E+00 0. -1.
         21    1    1    2  504  506  0.11643485865E+02  0.28069256312E+02 -0.26530476597E+02  0.40340055794E+02  0.00000000000E+00 0. -1.
         21    1    1    2  505  502 -0.40959067813E+02  0.48823719385E+02 -0.87305300030E+02  0.10809077770E+03  0.00000000000E+00 0. -1.
         21    1    1    2  506  501  0.82961035315E+02 -0.94801949124E+02  0.54211937120E+01  0.12609255442E+03  0.00000000000E+00 0. -1.
<scales pt_clust_3="38.26389" pt_clust_4="30.38838" pt_clust_5="38.26389" pt_clust_6="123.32617"></scales>
<clustering>
<clus scale="   30.388">  2  4  1 -1</clus>
<clus scale="   38.264">  3  5 -1 -1</clus>
<clus scale="  123.326">  1  6  2 -1</clus>
<clus scale="  123.326">  1  3  2 -1</clus>
</clustering>
</event>
<event>
 6    0  0.1704145E+002  0.6539730E+02  0.7546771E-02  0.1376483E+00
         21   -1    0    0  505  501  0.00000000000E+00  0.00000000000E+00  0.56100640033E+03  0.56100640033E+03  0.00000000000E+00 0.  1.
         21   -1    0    0  504  502 -0.00000000000E+00 -0.00000000000E+00 -0.21130475955E+03  0.21130475955E+03  0.00000000000E+00 0. -1.
         21    1    1    2  503  501  0.16199966875E+02  0.53944262950E+02  0.39374588877E+02  0.68722490360E+02  0.00000000000E+00 0.  1.
         21    1    1    2  504  503  0.84209928384E+01  0.91262491873E+02 -0.15843954520E+03  0.18303782403E+03  0.00000000000E+00 0. -1.
         21    1    1    2  505  506 -0.33893772172E+02 -0.11084585132E+03  0.47084248636E+03  0.48490023459E+03  0.00000000000E+00 0.  1.
         21    1    1    2  506  502  0.92728124586E+01 -0.34360903504E+02 -0.20758892612E+01  0.35650610888E+02  0.00000000000E+00 0. -1.
<scales pt_clust_3="54.03721" pt_clust_4="65.39730" pt_clust_5="14000.00000" pt_clust_6="35.59012"></scales>
<clustering>
<clus scale="   35.590">  2  6  1 -1</clus>
<clus scale="   54.037">  1  3  2 -1</clus>
<clus scale="   65.397">  2  4  1 -1</clus>
<clus scale="   54.037">  1  3  2 -1</clus>
</clustering>
</event>
<event>
 6    0  0.1704145E+002  0.1656295E+03  0.7546771E-02  0.1182484E+00
         21   -1    0    0  505  501  0.00000000000E+00  0.00000000000E+00  0.54243618908E+03  0.54243618908E+03  0.00000000000E+00 0.  1.
         21   -1    0    0  504  502 -0.00000000000E+00 -0.00000000000E+00 -0.96012990538E+02  0.96012990538E+02  0.00000000000E+00 0.  1.
         21    1    1    2  503  501 -0.10081845494E+03 -0.11699756480E+03  0.26921519460E+03  0.31037012103E+03  0.00000000000E+00 0.  1.
         21    1    1    2  504  506 -0.32067138616E+02 -0.17582679308E+02 -0.68904386706E+01  0.37214649477E+02  0.00000000000E+00 0.  1.
         21    1    1    2  505  502 -0.21989912098E+02  0.22760492726E+02  0.42947933590E+02  0.53349051190E+02  0.00000000000E+00 0. -1.
         21    1    1    2  506  503  0.15487550565E+03  0.11181975138E+03  0.14115050902E+03  0.23751535792E+03  0.00000000000E+00 0.  1.
<scales pt_clust_3="14000.00000" pt_clust_4="36.83889" pt_clust_5="31.64801" pt_clust_6="165.62950"></scales>
<clustering>
<clus scale="   31.648">  1  5  2 -1</clus>
<clus scale="   36.839">  2  4  1 -1</clus>
<clus scale="  165.629">  2  6  1 -1</clus>
<clus scale="   31.648">  1  3  2 -1</clus>
</clustering>
</event>
<event>
 6    0  0.1704145E+002  0.8757639E+02  0.7546771E-02  0.1308829E+00
         21   -1    0    0  504  501  0.00000000000E+00  0.00000000000E+00  0.11225151627E+03  0.11225151627E+03  0.00000000000E+00 0.  1.
         21   -1    0    0  506  502 -0.00000000000E+00 -0.00000000000E+00 -0.61264808239E+03  0.61264808239E+03  0.00000000000E+00 0.  1.
         21    1    1    2  503  505  0.30572603047E+02 -0.11455539901E+03 -0.20062953478E+03  0.23304470328E+03  0.00000000000E+00 0.  1.
         21    1    1    2  504  502 -0.91457266876E+02  0.15737577231E+02 -0.30862972736E+03  0.32228002050E+03  0.00000000000E+00 0.  1.
         21    1    1    2  505  501  0.36222367429E+02  0.65251921409E+02  0.65481234781E+02  0.99285775709E+02  0.00000000000E+00 0.  1.
         21    1    1    2  506  503  0.24662296401E+02  0.33565900371E+02 -0.56618538757E+02  0.70289099173E+02  0.00000000000E+00 0. -1.
<scales pt_clust_3="14000.00000" pt_clust_4="87.57639" pt_clust_5="75.90335" pt_clust_6="41.65211"></scales>
<clustering>
<clus scale="   41.652">  2  6  1 -1</clus>
<clus scale="   75.903">  1  5  2 -1</clus>
<clus scale="   87.576">  2  4  1 -1</clus>
<clus scale="   75.903">  1  3  2 -1</clus>
</clustering>
</event>
<event>
 6    0  0.1704145E+002  0.8887888E+02  0.7546771E-02  0.1305590E+00
         21   -1    0    0  506  501  0.00000000000E+00  0.00000000000E+00  0.79209458517E+03  0.79209458517E+03  0.00000000000E+00 0. -1.
         21   -1    0    0  503  502 -0.00000000000E+00 -0.00000000000E+00 -0.17406514463E+03  0.17406514463E+03  0.00000000000E+00 0. -1.
         21    1    1    2  503  501  0.85595646445E+02 -0.18473234062E+02 -0.89193121052E+02  0.12499315145E+03  0.00000000000E+00 0. -1.
         21    1    1    2  504  502 -0.89899877297E+01  0.29347637123E+02 -0.83165031137E+01  0.31800438804E+02  0.00000000000E+00 0.  1.
         21    1    1    2  505  504 -0.11605115182E+03  0.47424875126E+01  0.26642538579E+02  0.11916453284E+03  0.00000000000E+00 0.  1.
         21    1    1    2  506  505  0.39445493100E+02 -0.15616890574E+02  0.68889652612E+03  0.69020160670E+03  0.00000000000E+00 0. -1.
<scales pt_clust_3="14000.00000" pt_clust_4="30.69371" pt_clust_5="88.87888" pt_clust_6="42.34338"></scales>
<clustering>
<clus scale="   30.694">  2  4  1 -1</clus>
<clus scale="   42.343">  1  6  2 -1</clus>
<clus scale="   88.879">  1  5  2 -1</clus>
<clus scale="   42.343">  1  3  2 -1</clus>
</clustering>
</event>
<event>
 6    0  0.1704145E+002  0.7912388E+02  0.7546771E-02  0.1331556E+00
         21   -1    0    0  504  501  0.00000000000E+00  0.00000000000E+00  0.10406406842E+04  0.10406406842E+04  0.00000000000E+00 0.  1.
         21   -1    0    0  505  502 -0.00000000000E+00 -0.00000000000E+00 -0.93034832191E+02  0.93034832191E+02  0.00000000000E+00 0.  1.
         21    1    1    2  503  502  0.30504666272E+02  0.64687405754E+02 -0.16851248713E+02  0.73477613670E+02  0.00000000000E+00 0.  1.
         21    1    1    2  504  503 -0.12421396164E+02  0.62303538651E+02  0.12202657442E+03  0.13757364165E+03  0.00000000000E+00 0.  1.
         21    1    1    2  505  506 -0.36184760981E+02 -0.87076071742E+02  0.16737793364E+02  0.95769164787E+02  0.00000000000E+00 0.  1.
         21    1    1    2  506  501  0.18101490872E+02 -0.39914872662E+02  0.82569273297E+03  0.82685509632E+03  0.00000000000E+00 0.  1.
<scales pt_clust_3="79.12388" pt_clust_4="38.16286" pt_clust_5="14000.00000" pt_clust_6="43.82763"></scales>
<clustering>
<clus scale="   43.828">  1  6  2 -1</clus>
<clus scale="   38.163">  1  4  2 -1</clus>
<clus scale="   79.124">  2  3  1 -1</clus>
<clus scale="   43.828">  1  3  2 -1</clus>
</clustering>
</event>
<event>
 6    0  0.1704145E+002  0.9289308E+02  0.7546771E-02  0.1295993E+00
         21   -1    0    0  506  501  0.00000000000E+00  0.00000000000E+00  0.43440470520E+03  0.43440470520E+03  0.00000000000E+00 0. -1.
         21   -1    0    0  503  502 -0.00000000000E+00 -0.00000000000E+00 -0.56919237569E+03  0.56919237569E+03  0.00000000000E+00 0.  1.
         21    1    1    2  503  501  0.50366544860E+02 -0.48625109771E+02 -0.18232878384E+03  0.19530738736E+03  0.00000000000E+00 0. -1.
         21    1    1    2  504  505 -0.71633186109E+02  0.10097084820E+03 -0.72778522478E+02  0.14360758641E+03  0.00000000000E+00 0. -1.
         21    1    1    2  505  502 -0.60820093903E+01  0.35120386614E+02 -0.26562539277E+03  0.26800612246E+03  0.00000000000E+00 0.  1.
         21    1    1    2  506  504  0.27348650640E+02 -0.87466125048E+02  0.38594502859E+03  0.39667598467E+03  0.00000000000E+00 0. -1.
<scales pt_clust_3="53.67705" pt_clust_4="14000.00000" pt_clust_5="35.64313" pt_clust_6="92.89308"></scales>
<clustering>
<clus scale="   35.643">  2  5  1 -1</clus>
<clus scale="   53.677">  2  3  1 -1</clus>
<clus scale="   92.893">  1  6  2 -1</clus>
<clus scale="   92.893">  1  3  2 -1</clus>
</clustering>
</event>
<event>
 6    0  0.1704145E+002  0.1400025E+03  0.7546771E-02  0.1213326E+00
         21   -1    0    0  505  501  0.00000000000E+00  0.00000000000E+00  0.24198427898E+03  0.24198427898E+03  0.00000000000E+00 0.  1.
         21   -1    0    0  504  502 -0.00000000000E+00 -0.00000000000E+00 -0.23206418622E+03  0.23206418622E+03  0.00000000000E+00 0. -1.
         21    1    1    2  503  502 -0.89868204581E+02  0.84945801511E+02  0.51528980406E+02  0.13396760508E+03  0.00000000000E+00 0.  1.
         21    1    1    2  504  506  0.35615441686E+02 -0.37658453971E+02 -0.90771087047E+02  0.10452755180E+03  0.00000000000E+00 0. -1.
         21    1    1    2  505  503  0.18145258432E+02  0.30818804015E+02  0.11929755628E+03  0.12454298864E+03  0.00000000000E+00 0.  1.
         21    1    1    2  506  501  0.36107504463E+02 -0.78106151554E+02 -0.70135356886E+02  0.11101031968E+03  0.00000000000E+00 0. -1.
<scales pt_clust_3="132.59194" pt_clust_4="34.88293" pt_clust_5="35.76380" pt_clust_6="34.88293"></scales>
<clustering>
<clus scale="   34.883">  4  6 -1 -1</clus>
<clus scale="   35.764">  1  5  2 -1</clus>
<clus scale="  132.592">  1  3  2 -1</clus>
<clus scale="   35.764">  1  3  2 -1</clus>
</clustering>
</event>
<event>
 6    0  0.1704145E+002  0.1493640E+03  0.7546771E-02  0.1201257E+00
         21   -1    0    0  504  501  0.00000000000E+00  0.00000000000E+00  0.12635246233E+04  0.12635246233E+04  0.00000000000E+00 0.  1.
         21   -1    0    0  506  502 -0.00000000000E+00 -0.00000000000E+00 -0.22950409710E+03  0.22950409710E+03  0.00000000000E+00 0.  1.
         21    1    1    2  503  501 -0.21378200140E+02  0.14232967575E+03  0.54721624415E+03  0.56582716611E+03  0.00000000000E+00 0.  1.
         21    1    1    2  504  505 -0.31946382270E+02 -0.89608353387E+01  0.42256737619E+03  0.42386796922E+03  0.00000000000E+00 0.  1.
         21    1    1    2  505  502  0.74628549980E+02  0.15004702883E+02  0.25190230244E+03  0.26315267727E+03  0.00000000000E+00 0.  1.
         21    1    1    2  506  503 -0.21303967569E+02 -0.14837354330E+03 -0.18766539660E+03  0.24018090779E+03  0.00000000000E+00 0.  1.
<scales pt_clust_3="14000.00000" pt_clust_4="33.17933" pt_clust_5="65.98664" pt_clust_6="149.36396"></scales>
<clustering>
<clus scale="   33.179">  1  4  2 -1</clus>
<clus scale="   65.987">  1  5  2 -1</clus>
<clus scale="  149.364">  2  6  1 -1</clus>
<clus scale="   33.179">  1  3  2 -1</clus>
</clustering>
</event>
<event>
 6    0  0.1704145E+002  0.8415832E+02  0.7546771E-02  0.1317648E+00
         21   -1    0    0  504  501  0.00000000000E+00  0.00000000000E+00  0.10063670070E+03  0.10063670070E+03  0.00000000000E+00 0.  1.
         21   -1    0    0  505  502 -0.00000000000E+00 -0.00000000000E+00 -0.30522075135E+03  0.30522075135E+03  0.00000000000E+00 0.  1.
         21    1    1    2  503  502  0.34669918231E+02  0.19997404915E+02 -0.11094966246E+03  0.11794798444E+03  0.00000000000E+00 0.  1.
         21    1    1    2  504  503  0.23079466688E+02  0.28892195615E+02  0.42770284939E+02  0.56539526208E+02  0.00000000000E+00 0.  1.
         21    1    1    2  505  506  0.58669177248E+02 -0.19418271619E+02 -0.72738052173E+02  0.95446141176E+02  0.00000000000E+00 0.  1.
         21    1    1    2  506  501 -0.11641856217E+03 -0.29471328910E+02 -0.63666620947E+02  0.13592380022E+03  0.00000000000E+00 0.  1.
<scales pt_clust_3="42.39683" pt_clust_4="36.97865" pt_clust_5="84.15832" pt_clust_6="14000.00000"></scales>
<clustering>
<clus scale="   36.979">  1  4  2 -1</clus>
<clus scale="   42.397">  2  3  1 -1</clus>
<clus scale="   84.158">  2  5  1 -1</clus>
<clus scale="   36.979">  1  3  2 -1</clus>
</clustering>
</event>
<event>
 6    0  0.1704145E+002  0.1870998E+03  0.7546771E-02  0.1161103E+00
         21   -1    0    0  504  501  0.00000000000E+00  0.00000000000E+00  0.12231263859E+04  0.12231263859E+04  0.00000000000E+00 0. -1.
         21   -1    0    0  503  502 -0.00000000000E+00 -0.00000000000E+00 -0.83318536264E+02  0.83318536264E+02  0.00000000000E+00 0. -1.
         21    1    1    2  503  505 -0.17041652671E+03 -0.69932803634E+02  0.22910338175E+03  0.29397406200E+03  0.00000000000E+00 0. -1.
         21    1    1    2  504  506  0.31870165648E+02  0.13029140680E+02  0.60807633663E+03  0.60905032398E+03  0.00000000000E+00 0. -1.
         21    1    1    2  505  501 -0.29397205799E+02 -0.30914049225E+02  0.16173991032E+03  0.16727125497E+03  0.00000000000E+00 0. -1.
         21    1    1    2  506  502  0.16794356686E+03  0.87817712179E+02  0.14088822093E+03  0.23614928122E+03  0.00000000000E+00 0. -1.
<scales pt_clust_3="14000.00000" pt_clust_4="34.43060" pt_clust_5="34.46169" pt_clust_6="187.09980"></scales>
<clustering>
<clus scale="   34.431">  1  4  2 -1</clus>
<clus scale="   34.462">  1  5  2 -1</clus>
<clus scale="  187.100">  2  6  1 -1</clus>
<clus scale="   34.431">  1  3  2 -1</clus>
</clustering>
</event>
<event>
 6    0  0.1704145E+002  0.1034100E+03  0.7546771E-02  0.1273284E+00
         21   -1    0    0  504  501  0.00000000000E+00  0.00000000000E+00  0.10077073648E+03  0.10077073648E+03  0.00000000000E+00 0.  1.
         21   -1    0    0  503  502 -0.00000000000E+00 -0.00000000000E+00 -0.33224645771E+03  0.33224645771E+03  0.00000000000E+00 0.  1.
         21    1    1    2  503  501  0.12661501148E+03 -0.55058468768E+02 -0.13957060654E+03  0.19632307640E+03  0.00000000000E+00 0.  1.
         21    1    1    2  504  505 -0.30167542410E+02 -0.98870355813E+01  0.31800614358E+02  0.44934543073E+02  0.00000000000E+00 0.  1.
         21    1    1    2  505  506 -0.63966111237E+02  0.50671525731E+02 -0.22698478775E+02  0.84702348523E+02  0.00000000000E+00 0.  1.
         21    1    1    2  506  502 -0.32481357835E+02  0.14273978618E+02 -0.10100725027E+03  0.10705722619E+03  0.00000000000E+00 0.  1.
<scales pt_clust_3="103.40999" pt_clust_4="31.74640" pt_clust_5="14000.00000" pt_clust_6="36.63974"></scales>
<clustering>
<clus scale="   31.746">  1  4  2 -1</clus>
<clus scale="   36.640">  2  6  1 -1</clus>
<clus scale="  103.410">  2  3  1 -1</clus>
<clus scale="   31.746">  1  3  2 -1</clus>
</clustering>
</event>
<event>
 6    0  0.1704145E+002  0.1634850E+03  0.7546771E-02  0.1184817E+00
         21   -1    0    0  506  501  0.00000000000E+00  0.00000000000E+00  0.16727972685E+03  0.16727972685E+03  0.00000000000E+00 0. -1.
         21   -1    0    0  505  502 -0.00000000000E+00 -0.00000000000E+00 -0.57756775975E+03  0.57756775975E+03  0.00000000000E+00 0. -1.
         21    1    1    2  503  502 -0.10562375179E+03  0.98267768217E+02 -0.31708868879E+03  0.34836499217E+03  0.00000000000E+00 0. -1.
         21    1    1    2  504  501  0.30361071317E+02 -0.23632708092E+02 -0.51779029954E+02  0.64508662103E+02  0.00000000000E+00 0. -1.
         21    1    1    2  505  504 -0.60072010324E+01 -0.15058402619E+03 -0.12259422113E+03  0.19427037464E+03  0.00000000000E+00 0. -1.
         21    1    1    2  506  503  0.81269881501E+02  0.75948966067E+02  0.81173906972E+02  0.13770345769E+03  0.00000000000E+00 0. -1.
<scales pt_clust_3="145.29752" pt_clust_4="37.86500" pt_clust_5="37.86500" pt_clust_6="111.23416"></scales>
<clustering>
<clus scale="   37.865">  4  5 -1 -1</clus>
<clus scale="  111.234">  1  6  2 -1</clus>
<clus scale="  145.298">  2  3  1 -1</clus>
<clus scale="  111.234">  1  3  2 -1</clus>
</clustering>
</event>
<event>
 6    0  0.1704145E+002  0.1552738E+03  0.7546771E-02  0.1194138E+00
         21   -1    0    0  506  501  0.00000000000E+00  0.00000000000E+00  0.12767347104E+04  0.12767347104E+04  0.00000000000E+00 0. -1.
         21   -1    0    0  505  502 -0.00000000000E+00 -0.00000000000E+00 -0.61601497318E+02  0.61601497318E+02  0.00000000000E+00 0. -1.
         21    1    1    2  503  501 -0.41051541919E+02  0.74079607846E+01  0.75088624920E+03  0.75204405869E+03  0.00000000000E+00 0. -1.
         21    1    1    2  504  503  0.55883134805E+02 -0.51949898129E+02  0.45724592045E+02  0.88951981366E+02  0.00000000000E+00 0. -1.
         21    1    1    2  505  504  0.82898833176E+02 -0.28949554234E+02  0.34538998048E+02  0.94356958506E+02  0.00000000000E+00 0. -1.
         21    1    1    2  506  502 -0.97730426062E+02  0.73491491578E+02  0.38398337376E+03  0.40298320912E+03  0.00000000000E+00 0. -1.
<scales pt_clust_3="41.71459" pt_clust_4="34.31053" pt_clust_5="34.31053" pt_clust_6="150.84824"></scales>
<clustering>
<clus scale="   34.311">  4  5 -1 -1</clus>
<clus scale="   41.715">  1  3  2 -1</clus>
<clus scale="  150.848">  1  6  2 -1</clus>
<clus scale="   41.715">  1  3  2 -1</clus>
</clustering>
</event>
<event>
 6    0  0.1704145E+002  0.9323601E+02  0.7546771E-02  0.1295199E+00
         21   -1    0    0  505  501  0.00000000000E+00  0.00000000000E+00  0.23685637563E+03  0.23685637563E+03  0.00000000000E+00 0.  1.
         21   -1    0    0  506  502 -0.00000000000E+00 -0.00000000000E+00 -0.10816975353E+03  0.10816975353E+03  0.00000000000E+00 0. -1.
         21    1    1    2  503  502  0.10004337063E+02 -0.45381567477E+02 -0.13081102025E+02  0.48277206391E+02  0.00000000000E+00 0.  1.
         21    1    1    2  504  503  0.44891369355E+02  0.85969373160E+02  0.38087192217E+02  0.10419502087E+03  0.00000000000E+00 0. -1.
         21    1    1    2  505  504 -0.10380443212E+03 -0.44638012059E+02  0.76471519325E+02  0.13643975050E+03  0.00000000000E+00 0.  1.
         21    1    1    2  506  501  0.48908725704E+02  0.40502063766E+01  0.27209012579E+02  0.56114151399E+02  0.00000000000E+00 0. -1.
<scales pt_clust_3="46.47121" pt_clust_4="14000.00000" pt_clust_5="93.23601" pt_clust_6="50.96609"></scales>
<clustering>
<clus scale="   46.471">  2  3  1 -1</clus>
<clus scale="   50.966">  1  6  2 -1</clus>
<clus scale="   93.236">  1  5  2 -1</clus>
<clus scale="   50.966">  1  3  2 -1</clus>
</clustering>
</event>
<event>
 6    0  0.1704145E+002  0.1204764E+03  0.7546771E-02  0.1242313E+00
         21   -1    0    0  504  501  0.00000000000E+00  0.00000000000E+00  0.67137040884E+03  0.67137040884E+03  0.00000000000E+00 0. -1.
         21   -1    0    0  506  502 -0.00000000000E+00 -0.00000000000E+00 -0.10644642503E+04  0.10644642503E+04  0.00000000000E+00 0. -1.
         21    1    1    2  503  502  0.13407916703E+03 -0.40976258626E+02 -0.63598784702E+03  0.65125787394E+03  0.00000000000E+00 0. -1.
         21    1    1    2  504  503 -0.36062058621E+01 -0.33381972153E+02  0.64758363144E+03  0.64845348368E+03  0.00000000000E+00 0. -1.
         21    1    1    2  505  501 -0.99169841821E+02  0.69871672405E+02 -0.24567040752E+03  0.27399025031E+03  0.00000000000E+00 0. -1.
         21    1    1    2  506  505 -0.31303119344E+02  0.44865583739E+01 -0.15901921836E+03  0.16213305121E+03  0.00000000000E+00 0. -1.
<scales pt_clust_3="14000.00000" pt_clust_4="33.57567" pt_clust_5="120.47645" pt_clust_6="31.62301"></scales>
<clustering>
<clus scale="   31.623">  2  6  1 -1</clus>
<clus scale="   33.576">  1  4  2 -1</clus>
<clus scale="  120.476">  1  5  2 -1</clus>
<clus scale="   33.576">  1  3  2 -1</clus>
</clustering>
</event>
<event>
 6    0  0.1704145E+002  0.1137256E+03  0.7546771E-02  0.1253822E+00
         21   -1    0    0  503  501  0.00000000000E+00  0.00000000000E+00  0.26687276684E+03  0.26687276684E+03  0.00000000000E+00 0. -1.
         21   -1    0    0  505  502 -0.00000000000E+00 -0.00000000000E+00 -0.39436954468E+03  0.39436954468E+03  0.00000000000E+00 0. -1.
         21    1    1    2  503  504 -0.58351433450E+02  0.82750417628E+02 -0.58558435607E+02  0.11696842217E+03  0.00000000000E+00 0. -1.
         21    1    1    2  504  502  0.94952678266E+01  0.33905444960E+02 -0.28879521070E+02  0.45538621480E+02  0.00000000000E+00 0. -1.
         21    1    1    2  505  506  0.90288661484E+02 -0.44081860307E+02 -0.25179656682E+03  0.27110286583E+03  0.00000000000E+00 0. -1.
         21    1    1    2  506  501 -0.41432495860E+02 -0.72574002281E+02  0.21173774566E+03  0.22763240204E+03  0.00000000000E+00 0. -1.
<scales pt_clust_3="31.02264" pt_clust_4="31.02264" pt_clust_5="100.82600" pt_clust_6="83.56816"></scales>
<clustering>
<clus scale="   31.023">  3  4 -1 -1</clus>
<clus scale="   83.568">  1  6  2 -1</clus>
<clus scale="  100.826">  2  5  1 -1</clus>
<clus scale="   83.568">  1  3  2 -1</clus>
</clustering>
</event>
<event>
 6    0  0.1704145E+002  0.9900900E+02  0.7546771E-02  0.1282394E+00
         21   -1    0    0  506  501  0.00000000000E+00  0.00000000000E+00  0.12365559948E+03  0.12365559948E+03  0.00000000000E+00 0.  1.
         21   -1    0    0  504  502 -0.00000000000E+00 -0.00000000000E+00 -0.24713515217E+03  0.24713515217E+03  0.00000000000E+00 0.  1.
         21    1    1    2  503  502 -0.16924900240E+02 -0.12754501270E+03  0.32633405194E+02  0.13273703947E+03  0.00000000000E+00 0.  1.
         21    1    1    2  504  505 -0.37788360157E+02  0.34674417436E+02 -0.55846712588E+02  0.75823022195E+02  0.00000000000E+00 0.  1.
         21    1    1    2  505  501  0.60232267110E+02  0.61953352468E+02 -0.98132701412E+02  0.13075232682E+03  0.00000000000E+00 0.  1.
         21    1    1    2  506  503 -0.55190067124E+01  0.30917242799E+02 -0.21335438830E+01  0.31478363154E+02  0.00000000000E+00 0. -1.
<scales pt_clust_3="99.00900" pt_clust_4="53.60307" pt_clust_5="14000.00000" pt_clust_6="31.40598"></scales>
<clustering>
<clus scale="   31.406">  1  6  2 -1</clus>
<clus scale="   53.603">  2  4  1 -1</clus>
<clus scale="   99.009">  1  3  2 -1</clus>
<clus scale="   31.406">  1  3  2 -1</clus>
</clustering>
</event>
<event>
 6    0  0.1704145E+002  0.1999833E+03  0.7546771E-02  0.1149753E+00
         21   -1    0    0  506  501  0.00000000000E+00  0.00000000000E+00  0.33536422447E+03  0.33536422447E+03  0.00000000000E+00 0. -1.
         21   -1    0    0  501  502 -0.00000000000E+00 -0.00000000000E+00 -0.14315541157E+04  0.14315541157E+04  0.00000000000E+00 0.  1.
         21    1    1    2  503  502  0.13469868788E+03 -0.12096845396E+03 -0.64398341729E+03  0.66894823799E+03  0.00000000000E+00 0.  1.
         21    1    1    2  504  503 -0.61483622546E+02  0.77943335934E+02 -0.29342485616E+03  0.30976369328E+03  0.00000000000E+00 0.  1.
         21    1    1    2  505  504 -0.90063208145E+02  0.75621026975E+02 -0.46508005519E+03  0.47971802022E+03  0.00000000000E+00 0.  1.
         21    1    1    2  506  505  0.16848142809E+02 -0.32595908951E+02  0.30629843741E+03  0.30848838869E+03  0.00000000000E+00 0. -1.
<scales pt_clust_3="196.44359" pt_clust_4="34.41728" pt_clust_5="34.41728" pt_clust_6="36.69269"></scales>
<clustering>
<clus scale="   34.417">  4  5 -1 -1</clus>
<clus scale="   36.693">  1  6  2 -1</clus>
<clus scale="  196.444">  2  3  1 -1</clus>
<clus scale="   36.693">  1  3  2 -1</clus>
</clustering>
</event>
<event>
 6    0  0.1704145E+002  0.1205145E+03  0.7546771E-02  0.1242251E+00
         21   -1    0    0  504  501  0.00000000000E+00  0.00000000000E+00  0.10871765052E+03  0.10871765052E+03  0.00000000000E+00 0.  1.
         21   -1    0    0  506  502 -0.00000000000E+00 -0.00000000000E+00 -0.48784159606E+03  0.48784159606E+03  0.00000000000E+00 0.  1.
         21    1    1    2  503  501 -0.80559825098E+02 -0.81740876270E+02  0.53737529001E+02  0.12672481326E+03  0.00000000000E+00 0.  1.
         21    1    1    2  504  502  0.31785442275E+02 -0.17292612027E+02 -0.23659198204E+02  0.43233163555E+02  0.00000000000E+00 0.  1.
         21    1    1    2  505  503  0.30666389642E+02  0.65280256244E+02 -0.17488272212E+03  0.18917163055E+03  0.00000000000E+00 0.  1.
         21    1    1    2  506  505  0.18107993181E+02  0.33753232053E+02 -0.23431955422E+03  0.23742963922E+03  0.00000000000E+00 0.  1.
<scales pt_clust_3="110.30941" pt_clust_4="36.18492" pt_clust_5="35.36937" pt_clust_6="35.36937"></scales>
<clustering>
<clus scale="   35.369">  5  6 -1 -1</clus>
<clus scale="   36.185">  1  4  2 -1</clus>
<clus scale="  110.309">  1  3  2 -1</clus>
<clus scale="   36.185">  1  3  2 -1</clus>
</clustering>
</event>
<event>
 6    0  0.1704145E+002  0.1547231E+03  0.7546771E-02  0.1194787E+00
         21   -1    0    0  503  501  0.00000000000E+00  0.00000000000E+00  0.10724480831E+03  0.10724480831E+03  0.00000000000E+00 0.  1.
         21   -1    0    0  506  502 -0.00000000000E+00 -0.00000000000E+00 -0.12541759263E+04  0.12541759263E+04  0.00000000000E+00 0. -1.
         21    1    1    2  503  504  0.58994300309E+00 -0.77501964138E+02  0.59851298948E+02  0.97923850332E+02  0.00000000000E+00 0.  1.
         21    1    1    2  504  505  0.18447025029E+01  0.79201523374E+02 -0.77701065369E+03  0.78103894921E+03  0.00000000000E+00 0. -1.
         21    1    1    2  505  502  0.40590566831E+02  0.60510748013E+02 -0.39048406365E+03  0.39722405354E+03  0.00000000000E+00 0.  1.
         21    1    1    2  506  501 -0.43025212337E+02 -0.62210307248E+02 -0.39287699617E+02  0.85233881560E+02  0.00000000000E+00 0.  1.
<scales pt_clust_3="141.42035" pt_clust_4="60.19384" pt_clust_5="60.19384" pt_clust_6="75.63922"></scales>
<clustering>
<clus scale="   60.194">  4  5 -1 -1</clus>
<clus scale="   75.639">  1  6  2 -1</clus>
<clus scale="  141.420">  1  3  2 -1</clus>
<clus scale="   75.639">  1  3  2 -1</clus>
</clustering>
</event>
<event>
 6    0  0.1704145E+002  0.1197085E+03  0.7546771E-02  0.1243579E+00
         21   -1    0    0  505  501  0.00000000000E+00  0.00000000000E+00  0.15572676052E+03  0.15572676052E+03  0.00000000000E+00 0.  1.
         21   -1    0    0  506  502 -0.00000000000E+00 -0.00000000000E+00 -0.20722776711E+04  0.20722776711E+04  0.00000000000E+00 0. -1.
         21    1    1    2  503  502 -0.49569762497E+02 -0.28654974432E+02 -0.83625199932E+03  0.83820980385E+03  0.00000000000E+00 0. -1.
         21    1    1    2  504  503 -0.49330388070E+02 -0.53070047200E+02 -0.65685443741E+03  0.66083861044E+03  0.00000000000E+00 0. -1.
         21    1    1    2  505  504 -0.34170186258E+01  0.11723458808E+03 -0.55001065465E+03  0.56237651523E+03  0.00000000000E+00 0. -1.
         21    1    1    2  506  501  0.10231716919E+03 -0.35509566448E+02  0.12656618076E+03  0.16657950214E+03  0.00000000000E+00 0.  1.
<scales pt_clust_3="32.28580" pt_clust_4="32.28580" pt_clust_5="114.06586" pt_clust_6="108.30389"></scales>
<clustering>
<clus scale="   32.286">  3  4 -1 -1</clus>
<clus scale="  108.304">  1  6  2 -1</clus>
<clus scale="  114.066">  1  5  2 -1</clus>
<clus scale="  108.304">  1  3  2 -1</clus>
</clustering>
</event>
<event>
 6    0  0.1704145E+002  0.1162705E+03  0.7546771E-02  0.1249380E+00
         21   -1    0    0  503  501  0.00000000000E+00  0.00000000000E+00  0.42683402464E+03  0.42683402464E+03  0.00000000000E+00 0.  1.
         21   -1    0    0  501  502 -0.00000000000E+00 -0.00000000000E+00 -0.11003854734E+03  0.11003854734E+03  0.00000000000E+00 0.  1.
         21    1    1    2  503  504  0.27883695736E+01 -0.11393676810E+03  0.34541822384E+03  0.36373494676E+03  0.00000000000E+00 0.  1.
         21    1    1    2  504  506 -0.32894408353E+02  0.10665866821E+02 -0.62872149649E+01  0.35147288487E+02  0.00000000000E+00 0.  1.
         21    1    1    2  505  502  0.49369263507E+02  0.51805823711E+02  0.12894717230E+02  0.72714794107E+02  0.00000000000E+00 0.  1.
         21    1    1    2  506  505 -0.19263224727E+02  0.51465077566E+02 -0.35230248803E+02  0.65275542637E+02  0.00000000000E+00 0.  1.
<scales pt_clust_3="108.34411" pt_clust_4="33.47175" pt_clust_5="71.56233" pt_clust_6="33.47175"></scales>
<clustering>
<clus scale="   33.472">  4  6 -1 -1</clus>
<clus scale="   71.562">  2  5  1 -1</clus>
<clus scale="  108.344">  1  3  2 -1</clus>
<clus scale="  108.344">  1  3  2 -1</clus>
</clustering>
</event>
<event>
 6    0  0.1704145E+002  0.8884175E+02  0.7546771E-02  0.1305681E+00
         21   -1    0    0  506  501  0.00000000000E+00  0.00000000000E+00  0.30297937229E+03  0.30297937229E+03  0.00000000000E+00 0. -1.
         21   -1    0    0  505  502 -0.00000000000E+00 -0.00000000000E+00 -0.28241118332E+04  0.28241118332E+04  0.00000000000E+00 0.  1.
         21    1    1    2  503  504  0.61619515131E+02  0.51256053966E+01 -0.29546617693E+03  0.30186668943E+03  0.00000000000E+00 0. -1.
         21    1    1    2  504  501  0.41378326240E+02  0.81638691445E+01  0.29486749070E+03  0.29786851413E+03  0.00000000000E+00 0. -1.
         21    1    1    2  505  503  0.76925364584E+01  0.53056297563E+02 -0.55223742834E+03  0.55483359946E+03  0.00000000000E+00 0. -1.
         21    1    1    2  506  502 -0.11069037783E+03 -0.66345772104E+02 -0.19682963463E+04  0.19725224025E+04  0.00000000000E+00 0.  1.
<scales pt_clust_3="14000.00000" pt_clust_4="42.17600" pt_clust_5="56.90167" pt_clust_6="88.84175"></scales>
<clustering>
<clus scale="   42.176">  1  4  2 -1</clus>
<clus scale="   56.902">  2  5  1 -1</clus>
<clus scale="   88.842">  2  6  1 -1</clus>
<clus scale="   42.176">  1  3  2 -1</clus>
</clustering>
</event>
<event>
 6    0  0.1704145E+002  0.1181434E+03  0.7546771E-02  0.1246192E+00
         21   -1    0    0  504  501  0.00000000000E+00  0.00000000000E+00  0.26196582381E+02  0.26196582381E+02  0.00000000000E+00 0. -1.
         21   -1    0    0  505  502 -0.00000000000E+00 -0.00000000000E+00 -0.13926000891E+04  0.13926000891E+04  0.00000000000E+00 0.  1.
         21    1    1    2  503  502  0.92392124151E+02 -0.37419939590E+02 -0.69342576153E+03  0.70055395455E+03  0.00000000000E+00 0.  1.
         21    1    1    2  504  506 -0.55108826937E+02  0.91881609763E+02 -0.18676948607E+03  0.21531849421E+03  0.00000000000E+00 0. -1.
         21    1    1    2  505  501 -0.73943845359E+02 -0.53900790260E+02 -0.36474758470E+03  0.37605024664E+03  0.00000000000E+00 0. -1.
         21    1    1    2  506  503  0.36660548145E+02 -0.56087991227E+00 -0.12146067440E+03  0.12687397607E+03  0.00000000000E+00 0. -1.
<scales pt_clust_3="30.32361" pt_clust_4="107.04165" pt_clust_5="91.50403" pt_clust_6="30.32361"></scales>
<clustering>
<clus scale="   30.324">  3  6 -1 -1</clus>
<clus scale="   91.504">  2  5  1 -1</clus>
<clus scale="  107.042">  1  4  2 -1</clus>
<clus scale="  107.042">  1  3  2 -1</clus>
</clustering>
</event>
<event>
 6    0  0.1704145E+002  0.1586123E+03  0.7546771E-02  0.1190272E+00
         21   -1    0    0  506  501  0.00000000000E+00  0.00000000000E+00  0.16366847695E+03  0.16366847695E+03  0.00000000000E+00 0. -1.
         21   -1    0    0  504  502 -0.00000000000E+00 -0.00000000000E+00 -0.81506804554E+03  0.81506804554E+03  0.00000000000E+00 0. -1.
         21    1    1    2  503  505 -0.64738228707E+02 -0.15793800784E+02 -0.27138481984E+03  0.27944624321E+03  0.00000000000E+00 0. -1.
         21    1    1    2  504  501  0.14145552575E+03 -0.99745289874E+02 -0.27524454935E+03  0.32514358453E+03  0.00000000000E+00 0. -1.
         21    1    1    2  505  502 -0.82595593105E+02 -0.42964259630E+02 -0.17689994841E+03  0.19990385527E+03  0.00000000000E+00 0.  1.
         21    1    1    2  506  503  0.58782960599E+01  0.15850335029E+03  0.72129749014E+02  0.17424283948E+03  0.00000000000E+00 0. -1.
<scales pt_clust_3="51.16484" pt_clust_4="145.09297" pt_clust_5="51.16484" pt_clust_6="158.61231"></scales>
<clustering>
<clus scale="   51.165">  3  5 -1 -1</clus>
<clus scale="  158.612">  1  6  2 -1</clus>
<clus scale="  145.093">  1  4  2 -1</clus>
<clus scale="  158.612">  1  3  2 -1</clus>
</clustering>
</event>
<event>
 6    0  0.1704145E+002  0.1183342E+03  0.7546771E-02  0.1245871E+00
         21   -1    0    0  506  501  0.00000000000E+00  0.00000000000E+00  0.38258752757E+02  0.38258752757E+02  0.00000000000E+00 0.  1.
         21   -1    0    0  505  502 -0.00000000000E+00 -0.00000000000E+00 -0.66866621259E+03  0.66866621259E+03  0.00000000000E+00 0. -1.
         21    1    1    2  503  504  0.48564958939E+02 -0.13093063098E+02 -0.15189586658E+03  0.16000730552E+03  0.00000000000E+00 0. -1.
         21    1    1    2  504  502  0.61445633009E+02  0.91838435642E+01 -0.30594838998E+03  0.31219277079E+03  0.00000000000E+00 0. -1.
         21    1    1    2  505  501 -0.12249155554E+03 -0.26633084184E+02 -0.14550002237E+03  0.19205144847E+03  0.00000000000E+00 0.  1.
         21    1    1    2  506  503  0.12480963592E+02  0.30542303718E+02 -0.27063180905E+02  0.42673440561E+02  0.00000000000E+00 0. -1.
<scales pt_clust_3="31.60688" pt_clust_4="31.60688" pt_clust_5="113.00024" pt_clust_6="32.99404"></scales>
<clustering>
<clus scale="   31.607">  3  4 -1 -1</clus>
<clus scale="   32.994">  1  6  2 -1</clus>
<clus scale="  113.000">  1  5  2 -1</clus>
<clus scale="   32.994">  1  3  2 -1</clus>
</clustering>
</event>
<event>
 6    0  0.1704145E+002  0.1373496E+03  0.7546771E-02  0.1216940E+00
         21   -1    0    0  503  501  0.00000000000E+00  0.00000000000E+00  0.81169510708E+02  0.81169510708E+02  0.00000000000E+00 0.  1.
         21   -1    0    0  505  502 -0.00000000000E+00 -0.00000000000E+00 -0.56112430878E+03  0.56112430878E+03  0.00000000000E+00 0.  1.
         21    1    1    2  503  506  0.23592020154E+01  0.43361781117E+02 -0.48174787105E+02  0.64858461348E+02  0.00000000000E+00 0. -1.
         21    1    1    2  504  501  0.28163033190E+02  0.21748326571E+02 -0.74765430142E+01  0.36359934578E+02  0.00000000000E+00 0. -1.
         21    1    1    2  505  504  0.13035257061E+03 -0.19244600741E+02 -0.31446035035E+03  0.34095081649E+03  0.00000000000E+00 0.  1.
         21    1    1    2  506  502 -0.16087480581E+03 -0.45865506947E+02 -0.10984311761E+03  0.20012460708E+03  0.00000000000E+00 0.  1.
<scales pt_clust_3="46.45423" pt_clust_4="35.58295" pt_clust_5="137.34962" pt_clust_6="14000.00000"></scales>
<clustering>
<clus scale="   35.583">  1  4  2 -1</clus>
<clus scale="   46.454">  1  3  2 -1</clus>
<clus scale="  137.350">  2  5  1 -1</clus>
<clus scale="   35.583">  1  3  2 -1</clus>
</clustering>
</event>
<event>
 6    0  0.1704145E+002  0.7675981E+02  0.7546771E-02  0.1338506E+00
         21   -1    0    0  504  501  0.00000000000E+00  0.00000000000E+00  0.39581364758E+03  0.39581364758E+03  0.00000000000E+00 0.  1.
         21   -1    0    0  506  502 -0.00000000000E+00 -0.00000000000E+00 -0.45442546269E+02  0.45442546269E+02  0.00000000000E+00 0.  1.
         21    1    1    2  503  505 -0.31719683171E+02  0.40016621144E+02  0.39076195801E+02  0.64299435040E+02  0.00000000000E+00 0.  1.
         21    1    1    2  504  502 -0.19700630957E+02 -0.72352025828E+02  0.99206298854E+02  0.12435763038E+03  0.00000000000E+00 0.  1.
         21    1    1    2  505  501  0.84924837431E+02  0.37592085596E+02  0.19174028181E+03  0.21304865308E+03  0.00000000000E+00 0.  1.
         21    1    1    2  506  503 -0.33504523303E+02 -0.52566809114E+01  0.20348324847E+02  0.39550475345E+02  0.00000000000E+00 0.  1.
<scales pt_clust_3="57.87701" pt_clust_4="14000.00000" pt_clust_5="76.75981" pt_clust_6="33.91439"></scales>
<clustering>
<clus scale="   33.914">  2  6  1 -1</clus>
<clus scale="   57.877">  2  3  1 -1</clus>
<clus scale="   76.760">  1  5  2 -1</clus>
<clus scale="   76.760">  1  3  2 -1</clus>
</clustering>
</event>
<event>
 6    0  0.1704145E+002  0.1251094E+03  0.7546771E-02  0.1234898E+00
         21   -1    0    0  506  501  0.00000000000E+00  0.00000000000E+00  0.16688334043E+04  0.16688334043E+04  0.00000000000E+00 0. -1.
         21   -1    0    0  504  502 -0.00000000000E+00 -0.00000000000E+00 -0.75945733858E+02  0.75945733858E+02  0.00000000000E+00 0. -1.
         21    1    1    2  503  505 -0.99860815409E+02 -0.86561496332E+02  0.57877528462E+03  0.59367154656E+03  0.00000000000E+00 0. -1.
         21    1    1    2  504  503 -0.58459357335E+02 -0.46188358180E+02  0.64666796529E+02  0.98654221728E+02  0.00000000000E+00 0. -1.
         21    1    1    2  505  501  0.38178299957E+02 -0.74651286587E+01  0.83353138018E+03  0.83443865711E+03  0.00000000000E+00 0. -1.
         21    1    1    2  506  502  0.12014187279E+03  0.14021498317E+03  0.11591420908E+03  0.21801471273E+03  0.00000000000E+00 0. -1.
<scales pt_clust_3="125.10943" pt_clust_4="72.08448" pt_clust_5="38.90129" pt_clust_6="14000.00000"></scales>
<clustering>
<clus scale="   38.901">  1  5  2 -1</clus>
<clus scale="   72.084">  2  4  1 -1</clus>
<clus scale="  125.109">  1  3  2 -1</clus>
<clus scale="   38.901">  1  3  2 -1</clus>
</clustering>
</event>
