<event>
 5    0  0.5786117E-005  0.3918899E+03  0.7546771E-02  0.1046625E+00
         21   -1    0    0  502  501  0.00000000000E+00  0.00000000000E+00  0.31781834374E+03  0.31781834374E+03  0.00000000000E+00 0.  1.
         21   -1    0    0  501  502 -0.00000000000E+00 -0.00000000000E+00 -0.48322479255E+03  0.48322479255E+03  0.00000000000E+00 0.  1.
         25    1    1    2    0    0 -0.28994579554E+03 -0.50763783986E+02  0.60185997172E+02  0.32541186267E+03  0.12500000000E+03 0.  0.
         25    1    1    2    0    0  0.12299716863E+03  0.93337872948E+02 -0.15295118414E+03  0.25071762352E+03  0.12500000000E+03 0.  0.
         25    1    1    2    0    0  0.16694862691E+03 -0.42574088961E+02 -0.72641261848E+02  0.22491365010E+03  0.12500000000E+03 0.  0.
</event>
<event>
 5    0  0.5786117E-005  0.2937033E+03  0.7546771E-02  0.1088431E+00
         21   -1    0    0  502  501  0.00000000000E+00  0.00000000000E+00  0.14439660831E+04  0.14439660831E+04  0.00000000000E+00 0.  1.
         21   -1    0    0  501  502 -0.00000000000E+00 -0.00000000000E+00 -0.59739354527E+02  0.59739354527E+02  0.00000000000E+00 0.  1.
         25    1    1    2    0    0 -0.16529202885E+02  0.17061576116E+01  0.67030949937E+02  0.14280852135E+03  0.12500000000E+03 0.  0.
         25    1    1    2    0    0  0.10539009199E+03  0.52694075792E+02  0.53310401919E+03  0.56009698481E+03  0.12500000000E+03 0.  0.
         25    1    1    2    0    0 -0.88860889105E+02 -0.54400233404E+02  0.78409175948E+03  0.80079993150E+03  0.12500000000E+03 0.  0.
</event>
<event>
 5    0  0.5786117E-005  0.3158067E+03  0.7546771E-02  0.1077596E+00
         21   -1    0    0  502  501  0.00000000000E+00  0.00000000000E+00  0.97136099011E+02  0.97136099011E+02  0.00000000000E+00 0. -1.
         21   -1    0    0  501  502 -0.00000000000E+00 -0.00000000000E+00 -0.10267435793E+04  0.10267435793E+04  0.00000000000E+00 0. -1.
         25    1    1    2    0    0  0.15859054876E+03  0.16818366476E+02 -0.40939593951E+03  0.45679738933E+03  0.12500000000E+03 0.  0.
         25    1    1    2    0    0 -0.19016389354E+03  0.92637546889E+02 -0.34514556085E+03  0.42366788842E+03  0.12500000000E+03 0.  0.
         25    1    1    2    0    0  0.31573344776E+02 -0.10945591336E+03 -0.17506597989E+03  0.24341440053E+03  0.12500000000E+03 0.  0.
</event>
<event>
 5    0  0.5786117E-005  0.3975732E+03  0.7546771E-02  0.1044623E+00
         21   -1    0    0  502  501  0.00000000000E+00  0.00000000000E+00  0.18140287903E+04  0.18140287903E+04  0.00000000000E+00 0. -1.
         21   -1    0    0  501  502 -0.00000000000E+00 -0.00000000000E+00 -0.87134462564E+02  0.87134462564E+02  0.00000000000E+00 0. -1.
         25    1    1    2    0    0 -0.14427381963E+03 -0.14178893216E+03  0.13707142598E+04  0.13911871255E+04  0.12500000000E+03 0.  0.
         25    1    1    2    0    0  0.16285898653E+03  0.69278996287E+02  0.24232576325E+03  0.32506830722E+03  0.12500000000E+03 0.  0.
         25    1    1    2    0    0 -0.18585166906E+02  0.72509935872E+02  0.11385430466E+03  0.18490782006E+03  0.12500000000E+03 0.  0.
</event>
<event>
 5    0  0.5786117E-005  0.2429764E+03  0.7546771E-02  0.1117826E+00
         21   -1    0    0  502  501  0.00000000000E+00  0.00000000000E+00  0.80442725308E+02  0.80442725308E+02  0.00000000000E+00 0. -1.
         21   -1    0    0  501  502 -0.00000000000E+00 -0.00000000000E+00 -0.73390747083E+03  0.73390747083E+03  0.00000000000E+00 0. -1.
         25    1    1    2    0    0 -0.14702857241E+02 -0.14526739635E+02 -0.20231720777E+03  0.23871416534E+03  0.12500000000E+03 0.  0.
         25    1    1    2    0    0  0.87661960814E+02  0.71296751263E+01 -0.38900061329E+03  0.41794967255E+03  0.12500000000E+03 0.  0.
         25    1    1    2    0    0 -0.72959103573E+02  0.73970645084E+01 -0.62146924459E+02  0.15768635825E+03  0.12500000000E+03 0.  0.
</event>
<event>
 5    0  0.5786117E-005  0.2554125E+03  0.7546771E-02  0.1109931E+00
         21   -1    0    0  502  501  0.00000000000E+00  0.00000000000E+00  0.73074411802E+03  0.73074411802E+03  0.00000000000E+00 0.  1.
         21   -1    0    0  501  502 -0.00000000000E+00 -0.00000000000E+00 -0.89272743116E+02  0.89272743116E+02  0.00000000000E+00 0.  1.
         25    1    1    2    0    0  0.45477300157E+02 -0.63322779154E+02  0.12360597608E+03  0.19230547707E+03  0.12500000000E+03 0.  0.
         25    1    1    2    0    0 -0.43225376671E+02  0.13036531062E+03  0.40801317716E+03  0.44828930407E+03  0.12500000000E+03 0.  0.
         25    1    1    2    0    0 -0.22519234865E+01 -0.67042531471E+02  0.10985222165E+03  0.17942207999E+03  0.12500000000E+03 0.  0.
</event>
<event>
 5    0  0.5786117E-005  0.2721409E+03  0.7546771E-02  0.1100061E+00
         21   -1    0    0  502  501  0.00000000000E+00  0.00000000000E+00  0.27401184866E+03  0.27401184866E+03  0.00000000000E+00 0.  1.
         21   -1    0    0  501  502 -0.00000000000E+00 -0.00000000000E+00 -0.27028276695E+03  0.27028276695E+03  0.00000000000E+00 0.  1.
         25    1    1    2    0    0 -0.87704009687E+02  0.93916410422E+01 -0.68730049320E+02  0.16771707103E+03  0.12500000000E+03 0.  0.
         25    1    1    2    0    0  0.89193179499E+02 -0.12553187552E+03  0.49342860429E+02  0.20438540289E+03  0.12500000000E+03 0.  0.
         25    1    1    2    0    0 -0.14891698121E+01  0.11614023448E+03  0.23116270600E+02  0.17219214168E+03  0.12500000000E+03 0.  0.
</event>
<event>
 5    0  0.5786117E-005  0.2680535E+03  0.7546771E-02  0.1102399E+00
         21   -1    0    0  502  501  0.00000000000E+00  0.00000000000E+00  0.14606339050E+03  0.14606339050E+03  0.00000000000E+00 0. -1.
         21   -1    0    0  501  502 -0.00000000000E+00 -0.00000000000E+00 -0.49192793198E+03  0.49192793198E+03  0.00000000000E+00 0. -1.
         25    1    1    2    0    0  0.81752223666E+02 -0.16106378360E+02 -0.80991905092E+02  0.17066789443E+03  0.12500000000E+03 0.  0.
         25    1    1    2    0    0 -0.48661601157E+02 -0.90935112774E+02 -0.25115710064E+03  0.29890138067E+03  0.12500000000E+03 0.  0.
         25    1    1    2    0    0 -0.33090622509E+02  0.10704149113E+03 -0.13715535745E+02  0.16842204738E+03  0.12500000000E+03 0.  0.
</event>
<event>
 5    0  0.5786117E-005  0.3396352E+03  0.7546771E-02  0.1066951E+00
         21   -1    0    0  502  501  0.00000000000E+00  0.00000000000E+00  0.18364285796E+04  0.18364285796E+04  0.00000000000E+00 0.  1.
         21   -1    0    0  501  502 -0.00000000000E+00 -0.00000000000E+00 -0.62813273328E+02  0.62813273328E+02  0.00000000000E+00 0.  1.
         25    1    1    2    0    0  0.13093368254E+03  0.12181222017E+03  0.43340958255E+03  0.48523263746E+03  0.12500000000E+03 0.  0.
         25    1    1    2    0    0 -0.83674336467E+02 -0.17991610893E+02  0.11478768380E+04  0.11578304401E+04  0.12500000000E+03 0.  0.
         25    1    1    2    0    0 -0.47259346076E+02 -0.10382060927E+03  0.19232888571E+03  0.25617877543E+03  0.12500000000E+03 0.  0.
</event>
<event>
 5    0  0.5786117E-005  0.3342530E+03  0.7546771E-02  0.1069270E+00
         21   -1    0    0  502  501  0.00000000000E+00  0.00000000000E+00  0.30381670584E+03  0.30381670584E+03  0.00000000000E+00 0. -1.
         21   -1    0    0  501  502 -0.00000000000E+00 -0.00000000000E+00 -0.36773847392E+03  0.36773847392E+03  0.00000000000E+00 0. -1.
         25    1    1    2    0    0 -0.92447788909E+02 -0.94780093042E+02 -0.21904771765E+03  0.28484515499E+03  0.12500000000E+03 0.  0.
         25    1    1    2    0    0  0.58865395284E+02  0.17567361349E+02  0.18649740297E+03  0.23276603760E+03  0.12500000000E+03 0.  0.
         25    1    1    2    0    0  0.33582393625E+02  0.77212731693E+02 -0.31371453400E+02  0.15394398717E+03  0.12500000000E+03 0.  0.
</event>
<event>
 5    0  0.5786117E-005  0.2400089E+03  0.7546771E-02  0.1119787E+00
         21   -1    0    0  502  501  0.00000000000E+00  0.00000000000E+00  0.22347026256E+03  0.22347026256E+03  0.00000000000E+00 0.  1.
         21   -1    0    0  501  502 -0.00000000000E+00 -0.00000000000E+00 -0.25777145663E+03  0.25777145663E+03  0.00000000000E+00 0.  1.
         25    1    1    2    0    0 -0.22474244320E+02 -0.25556605955E+02  0.28026101564E+02  0.13254695068E+03  0.12500000000E+03 0.  0.
         25    1    1    2    0    0 -0.71973763160E+02 -0.68673085460E+02 -0.19669122469E+02  0.16095990069E+03  0.12500000000E+03 0.  0.
         25    1    1    2    0    0  0.94448007480E+02  0.94229691415E+02 -0.42658173166E+02  0.18773486783E+03  0.12500000000E+03 0.  0.
</event>
<event>
 5    0  0.5786117E-005  0.3074782E+03  0.7546771E-02  0.1081561E+00
         21   -1    0    0  502  501  0.00000000000E+00  0.00000000000E+00  0.16671462812E+03  0.16671462812E+03  0.00000000000E+00 0.  1.
         21   -1    0    0  501  502 -0.00000000000E+00 -0.00000000000E+00 -0.56709394928E+03  0.56709394928E+03  0.00000000000E+00 0.  1.
         25    1    1    2    0    0 -0.10691543674E+03 -0.43563303250E+01 -0.95691193544E+02  0.19034624438E+03  0.12500000000E+03 0.  0.
         25    1    1    2    0    0 -0.13082471973E+03 -0.81344087531E+01 -0.12376490845E+03  0.21937189533E+03  0.12500000000E+03 0.  0.
         25    1    1    2    0    0  0.23774015648E+03  0.12490739078E+02 -0.18092321916E+03  0.32409043768E+03  0.12500000000E+03 0.  0.
</event>
<event>
 5    0  0.5786117E-005  0.2236426E+03  0.7546771E-02  0.1131196E+00
         21   -1    0    0  502  501  0.00000000000E+00  0.00000000000E+00  0.45827741573E+02  0.45827741573E+02  0.00000000000E+00 0.  1.
         21   -1    0    0  501  502 -0.00000000000E+00 -0.00000000000E+00 -0.10913912091E+04  0.10913912091E+04  0.00000000000E+00 0.  1.
         25    1    1    2    0    0  0.33169787672E+02  0.53254654150E+02 -0.29625655298E+03  0.32761141339E+03  0.12500000000E+03 0.  0.
         25    1    1    2    0    0 -0.68021741150E+02 -0.90263169881E+02 -0.35785595516E+03  0.39555060581E+03  0.12500000000E+03 0.  0.
         25    1    1    2    0    0  0.34851953478E+02  0.37008515731E+02 -0.39145095934E+03  0.41405693143E+03  0.12500000000E+03 0.  0.
</event>
<event>
 5    0  0.5786117E-005  0.3708304E+03  0.7546771E-02  0.1054376E+00
         21   -1    0    0  502  501  0.00000000000E+00  0.00000000000E+00  0.39705535074E+03  0.39705535074E+03  0.00000000000E+00 0.  1.
         21   -1    0    0  501  502 -0.00000000000E+00 -0.00000000000E+00 -0.34633758539E+03  0.34633758539E+03  0.00000000000E+00 0.  1.
         25    1    1    2    0    0  0.73912112347E+02  0.16261998907E+03 -0.17456985767E+03  0.27929893735E+03  0.12500000000E+03 0.  0.
         25    1    1    2    0    0 -0.37267879872E+02  0.31833200398E+02  0.18185104901E+03  0.22604656942E+03  0.12500000000E+03 0.  0.
         25    1    1    2    0    0 -0.36644232476E+02 -0.19445318947E+03  0.43436574008E+02  0.23804742937E+03  0.12500000000E+03 0.  0.
</event>
<event>
 5    0  0.5786117E-005  0.3412571E+03  0.7546771E-02  0.1066262E+00
         21   -1    0    0  502  501  0.00000000000E+00  0.00000000000E+00  0.10718972794E+03  0.10718972794E+03  0.00000000000E+00 0. -1.
         21   -1    0    0  501  502 -0.00000000000E+00 -0.00000000000E+00 -0.10864513216E+04  0.10864513216E+04  0.00000000000E+00 0. -1.
         25    1    1    2    0    0 -0.14719773583E+03  0.68347730577E+02 -0.13150060589E+03  0.24342554315E+03  0.12500000000E+03 0.  0.
         25    1    1    2    0    0  0.97261788881E+02  0.11232473597E+03 -0.29352279527E+03  0.35193370573E+03  0.12500000000E+03 0.  0.
         25    1    1    2    0    0  0.49935946947E+02 -0.18067246655E+03 -0.55423819245E+03  0.59828180060E+03  0.12500000000E+03 0.  0.
</event>
<event>
 5    0  0.5786117E-005  0.3514224E+03  0.7546771E-02  0.1062033E+00
         21   -1    0    0  502  501  0.00000000000E+00  0.00000000000E+00  0.82889272226E+03  0.82889272226E+03  0.00000000000E+00 0.  1.
         21   -1    0    0  501  502 -0.00000000000E+00 -0.00000000000E+00 -0.14899121615E+03  0.14899121615E+03  0.00000000000E+00 0.  1.
         25    1    1    2    0    0 -0.21912646264E+03  0.86994737498E+02  0.31167093837E+03  0.41030265025E+03  0.12500000000E+03 0.  0.
         25    1    1    2    0    0  0.18838706857E+03 -0.16630805280E+03  0.24371619112E+03  0.37171311228E+03  0.12500000000E+03 0.  0.
         25    1    1    2    0    0  0.30739394072E+02  0.79313315300E+02  0.12451437663E+03  0.19586817587E+03  0.12500000000E+03 0.  0.
</event>
<event>
 5    0  0.5786117E-005  0.3080929E+03  0.7546771E-02  0.1081264E+00
         21   -1    0    0  502  501  0.00000000000E+00  0.00000000000E+00  0.40340689501E+03  0.40340689501E+03  0.00000000000E+00 0.  1.
         21   -1    0    0  501  502 -0.00000000000E+00 -0.00000000000E+00 -0.23529897510E+03  0.23529897510E+03  0.00000000000E+00 0.  1.
         25    1    1    2    0    0  0.34875782636E+01 -0.14525653348E+03  0.80866457647E+02  0.20802886265E+03  0.12500000000E+03 0.  0.
         25    1    1    2    0    0 -0.80736216849E+02 -0.67188688146E+02  0.39646648509E+02  0.16801640772E+03  0.12500000000E+03 0.  0.
         25    1    1    2    0    0  0.77248638585E+02  0.21244522163E+03  0.47594813753E+02  0.26266059973E+03  0.12500000000E+03 0.  0.
</event>
<event>
 5    0  0.5786117E-005  0.2803014E+03  0.7546771E-02  0.1095524E+00
         21   -1    0    0  502  501  0.00000000000E+00  0.00000000000E+00  0.16760097219E+04  0.16760097219E+04  0.00000000000E+00 0. -1.
         21   -1    0    0  501  502 -0.00000000000E+00 -0.00000000000E+00 -0.46878528899E+02  0.46878528899E+02  0.00000000000E+00 0.  1.
         25    1    1    2    0    0  0.25704160126E+02  0.25833240325E+01  0.30139003549E+03  0.32730464540E+03  0.12500000000E+03 0.  0.
         25    1    1    2    0    0 -0.26180595561E+02  0.12043837737E+03  0.26113514760E+03  0.31465440032E+03  0.12500000000E+03 0.  0.
         25    1    1    2    0    0  0.47643543474E+00 -0.12302170141E+03  0.10666060099E+04  0.10809292051E+04  0.12500000000E+03 0.  0.
</event>
<event>
 5    0  0.5786117E-005  0.4838853E+03  0.7546771E-02  0.1018073E+00
         21   -1    0    0  502  501  0.00000000000E+00  0.00000000000E+00  0.47784508161E+03  0.47784508161E+03  0.00000000000E+00 0. -1.
         21   -1    0    0  501  502 -0.00000000000E+00 -0.00000000000E+00 -0.49000178955E+03  0.49000178955E+03  0.00000000000E+00 0. -1.
         25    1    1    2    0    0  0.21890141844E+03  0.21934522804E+03 -0.14712238992E+03  0.36510294120E+03  0.12500000000E+03 0.  0.
         25    1    1    2    0    0 -0.11442425285E+03 -0.22126229395E+03  0.27231195688E+03  0.38965204250E+03  0.12500000000E+03 0.  0.
         25    1    1    2    0    0 -0.10447716559E+03  0.19170659108E+01 -0.13734627490E+03  0.21309188746E+03  0.12500000000E+03 0.  0.
</event>
<event>
 5    0  0.5786117E-005  0.2697154E+03  0.7546771E-02  0.1101443E+00
         21   -1    0    0  502  501  0.00000000000E+00  0.00000000000E+00  0.26656529790E+03  0.26656529790E+03  0.00000000000E+00 0.  1.
         21   -1    0    0  501  502 -0.00000000000E+00 -0.00000000000E+00 -0.27290269451E+03  0.27290269451E+03  0.00000000000E+00 0.  1.
         25    1    1    2    0    0 -0.10353949561E+03 -0.13442820201E+03  0.34428608427E+02  0.21354554017E+03  0.12500000000E+03 0.  0.
         25    1    1    2    0    0  0.32760136337E+02  0.76391201092E+01 -0.35602143037E+02  0.13425384642E+03  0.12500000000E+03 0.  0.
         25    1    1    2    0    0  0.70779359278E+02  0.12678908190E+03 -0.51638620050E+01  0.19166860583E+03  0.12500000000E+03 0.  0.
</event>
<event>
 5    0  0.5786117E-005  0.4517876E+03  0.7546771E-02  0.1027190E+00
         21   -1    0    0  502  501  0.00000000000E+00  0.00000000000E+00  0.31562322109E+03  0.31562322109E+03  0.00000000000E+00 0. -1.
         21   -1    0    0  501  502 -0.00000000000E+00 -0.00000000000E+00 -0.64669535813E+03  0.64669535813E+03  0.00000000000E+00 0. -1.
         25    1    1    2    0    0  0.13463709128E+03  0.28245197554E+03 -0.10092749954E+03  0.35173516315E+03  0.12500000000E+03 0.  0.
         25    1    1    2    0    0 -0.20628513887E+02 -0.24974440376E+02  0.96775274504E+02  0.16136824970E+03  0.12500000000E+03 0.  0.
         25    1    1    2    0    0 -0.11400857740E+03 -0.25747753516E+03 -0.32691991199E+03  0.44921516636E+03  0.12500000000E+03 0.  0.
</event>
<event>
 5    0  0.6049576E-005  0.2997047E+03  0.7546771E-02  0.1085388E+00
         21   -1    0    0  502  501  0.00000000000E+00  0.00000000000E+00  0.42182297218E+03  0.42182297218E+03  0.00000000000E+00 0.  1.
         21   -1    0    0  501  502 -0.00000000000E+00 -0.00000000000E+00 -0.21293987481E+03  0.21293987481E+03  0.00000000000E+00 0.  1.
         25    1    1    2    0    0  0.60614771632E+02 -0.11398261833E+03  0.12756192201E+03  0.22037066903E+03  0.12500000000E+03 0.  0.
         25    1    1    2    0    0 -0.13537799195E+02 -0.88945977147E+02 -0.11221748579E+02  0.15442016222E+03  0.12500000000E+03 0.  0.
         25    1    1    2    0    0 -0.47076972437E+02  0.20292859548E+03  0.92542923939E+02  0.25997201574E+03  0.12500000000E+03 0.  0.
</event>
<event>
 5    0  0.5786117E-005  0.4435180E+03  0.7546771E-02  0.1029673E+00
         21   -1    0    0  502  501  0.00000000000E+00  0.00000000000E+00  0.64334081173E+03  0.64334081173E+03  0.00000000000E+00 0. -1.
         21   -1    0    0  501  502 -0.00000000000E+00 -0.00000000000E+00 -0.30576054158E+03  0.30576054158E+03  0.00000000000E+00 0.  1.
         25    1    1    2    0    0 -0.12820393541E+03  0.19403716249E+03  0.86219768267E+02  0.27775081984E+03  0.12500000000E+03 0.  0.
         25    1    1    2    0    0 -0.17775043797E+03  0.16495840768E+02  0.15612287296E+03  0.26807961955E+03  0.12500000000E+03 0.  0.
         25    1    1    2    0    0  0.30595437338E+03 -0.21053300326E+03  0.95237628922E+02  0.40327091392E+03  0.12500000000E+03 0.  0.
</event>
<event>
 5    0  0.5786117E-005  0.2943339E+03  0.7546771E-02  0.1088108E+00
         21   -1    0    0  502  501  0.00000000000E+00  0.00000000000E+00  0.13364851822E+04  0.13364851822E+04  0.00000000000E+00 0.  1.
         21   -1    0    0  501  502 -0.00000000000E+00 -0.00000000000E+00 -0.64821107831E+02  0.64821107831E+02  0.00000000000E+00 0.  1.
         25    1    1    2    0    0 -0.16834104408E+02  0.57029852229E+02  0.10517744930E+04  0.10608441805E+04  0.12500000000E+03 0.  0.
         25    1    1    2    0    0  0.14298279516E+02 -0.19782173207E+02  0.86991785056E+02  0.15423471023E+03  0.12500000000E+03 0.  0.
         25    1    1    2    0    0  0.25358248925E+01 -0.37247679022E+02  0.13289779637E+03  0.18622739938E+03  0.12500000000E+03 0.  0.
</event>
<event>
 5    0  0.5786117E-005  0.2273161E+03  0.7546771E-02  0.1128543E+00
         21   -1    0    0  502  501  0.00000000000E+00  0.00000000000E+00  0.17051295863E+03  0.17051295863E+03  0.00000000000E+00 0. -1.
         21   -1    0    0  501  502 -0.00000000000E+00 -0.00000000000E+00 -0.30304202630E+03  0.30304202630E+03  0.00000000000E+00 0. -1.
         25    1    1    2    0    0  0.88519102600E+02 -0.41531675984E+02 -0.10301635783E+03  0.18920328120E+03  0.12500000000E+03 0.  0.
         25    1    1    2    0    0 -0.39601879009E+02 -0.20460120301E+02  0.39075016951E+01  0.13276744297E+03  0.12500000000E+03 0.  0.
         25    1    1    2    0    0 -0.48917223591E+02  0.61991796285E+02 -0.33420211539E+02  0.15158426076E+03  0.12500000000E+03 0.  0.
</event>
<event>
 5    0  0.5996599E-005  0.3561040E+03  0.7546771E-02  0.1060137E+00
         21   -1    0    0  502  501  0.00000000000E+00  0.00000000000E+00  0.12850121593E+04  0.12850121593E+04  0.00000000000E+00 0. -1.
         21   -1    0    0  501  502 -0.00000000000E+00 -0.00000000000E+00 -0.98683963324E+02  0.98683963324E+02  0.00000000000E+00 0. -1.
         25    1    1    2    0    0  0.38710272204E+02 -0.11532117031E+03  0.46243283750E+03  0.49423333224E+03  0.12500000000E+03 0.  0.
         25    1    1    2    0    0 -0.16543094907E+03 -0.10463249952E+03  0.36169445164E+03  0.42984094176E+03  0.12500000000E+03 0.  0.
         25    1    1    2    0    0  0.12672067687E+03  0.21995366984E+03  0.36220090685E+03  0.45962184864E+03  0.12500000000E+03 0.  0.
</event>
<event>
 5    0  0.5786117E-005  0.4344279E+03  0.7546771E-02  0.1032470E+00
         21   -1    0    0  502  501  0.00000000000E+00  0.00000000000E+00  0.17684047448E+03  0.17684047448E+03  0.00000000000E+00 0.  1.
         21   -1    0    0  501  502 -0.00000000000E+00 -0.00000000000E+00 -0.10672197015E+04  0.10672197015E+04  0.00000000000E+00 0.  1.
         25    1    1    2    0    0 -0.13671278013E+03  0.19731116371E+03 -0.21797642804E+03  0.34750655067E+03  0.12500000000E+03 0.  0.
         25    1    1    2    0    0  0.11713480214E+03 -0.19872069562E+03 -0.57271317536E+02  0.26854325639E+03  0.12500000000E+03 0.  0.
         25    1    1    2    0    0  0.19577977987E+02  0.14095319094E+01 -0.61513148145E+03  0.62801036892E+03  0.12500000000E+03 0.  0.
</event>
<event>
 5    0  0.5786117E-005  0.3790982E+03  0.7546771E-02  0.1051268E+00
         21   -1    0    0  502  501  0.00000000000E+00  0.00000000000E+00  0.21458026478E+03  0.21458026478E+03  0.00000000000E+00 0. -1.
         21   -1    0    0  501  502 -0.00000000000E+00 -0.00000000000E+00 -0.66975149230E+03  0.66975149230E+03  0.00000000000E+00 0. -1.
         25    1    1    2    0    0  0.14259949172E+03  0.77347952019E+02 -0.25645490126E+03  0.32819420638E+03  0.12500000000E+03 0.  0.
         25    1    1    2    0    0 -0.12391168937E+03 -0.21433216060E+03  0.84491416996E+01  0.27746850240E+03  0.12500000000E+03 0.  0.
         25    1    1    2    0    0 -0.18687802354E+02  0.13698420859E+03 -0.20716546796E+03  0.27866904829E+03  0.12500000000E+03 0.  0.
</event>
<event>
 5    0  0.5786117E-005  0.2560175E+03  0.7546771E-02  0.1109560E+00
         21   -1    0    0  502  501  0.00000000000E+00  0.00000000000E+00  0.38442897197E+02  0.38442897197E+02  0.00000000000E+00 0.  1.
         21   -1    0    0  501  502 -0.00000000000E+00 -0.00000000000E+00 -0.17049950649E+04  0.17049950649E+04  0.00000000000E+00 0.  1.
         25    1    1    2    0    0 -0.64493333394E+02  0.41779339923E+02 -0.26074212750E+03  0.29919284809E+03  0.12500000000E+03 0.  0.
         25    1    1    2    0    0 -0.34583118729E+02  0.26538999789E+02 -0.34860667494E+03  0.37289666722E+03  0.12500000000E+03 0.  0.
         25    1    1    2    0    0  0.99076452123E+02 -0.68318339712E+02 -0.10572033653E+04  0.10713484468E+04  0.12500000000E+03 0.  0.
</event>
<event>
 5    0  0.5786117E-005  0.2696019E+03  0.7546771E-02  0.1101508E+00
         21   -1    0    0  502  501  0.00000000000E+00  0.00000000000E+00  0.94753958891E+02  0.94753958891E+02  0.00000000000E+00 0. -1.
         21   -1    0    0  501  502 -0.00000000000E+00 -0.00000000000E+00 -0.76709395217E+03  0.76709395217E+03  0.00000000000E+00 0. -1.
         25    1    1    2    0    0 -0.18784545149E+02  0.69323550375E+02 -0.42039013235E+02  0.15016954554E+03  0.12500000000E+03 0.  0.
         25    1    1    2    0    0  0.94123007442E+02  0.22387768678E+02 -0.30594114041E+03  0.34436221354E+03  0.12500000000E+03 0.  0.
         25    1    1    2    0    0 -0.75338462293E+02 -0.91711319053E+02 -0.32435983963E+03  0.36731615199E+03  0.12500000000E+03 0.  0.
</event>
<event>
 5    0  0.5786117E-005  0.4726444E+03  0.7546771E-02  0.1021177E+00
         21   -1    0    0  502  501  0.00000000000E+00  0.00000000000E+00  0.32120430637E+03  0.32120430637E+03  0.00000000000E+00 0. -1.
         21   -1    0    0  501  502 -0.00000000000E+00 -0.00000000000E+00 -0.69548477753E+03  0.69548477753E+03  0.00000000000E+00 0. -1.
         25    1    1    2    0    0 -0.15134653757E+03  0.15856093806E+03 -0.40798088464E+03  0.47970902404E+03  0.12500000000E+03 0.  0.
         25    1    1    2    0    0  0.97838175961E+02  0.86536441979E+02  0.14863062675E+03  0.23404471298E+03  0.12500000000E+03 0.  0.
         25    1    1    2    0    0  0.53508361604E+02 -0.24509738004E+03 -0.11493021327E+03  0.30293534687E+03  0.12500000000E+03 0.  0.
</event>
<event>
 5    0  0.5786117E-005  0.2971829E+03  0.7546771E-02  0.1086657E+00
         21   -1    0    0  502  501  0.00000000000E+00  0.00000000000E+00  0.96345612324E+03  0.96345612324E+03  0.00000000000E+00 0. -1.
         21   -1    0    0  501  502 -0.00000000000E+00 -0.00000000000E+00 -0.91667580058E+02  0.91667580058E+02  0.00000000000E+00 0. -1.
         25    1    1    2    0    0  0.12338110359E+02  0.64903981761E+02  0.28726275255E+03  0.32017127419E+03  0.12500000000E+03 0.  0.
         25    1    1    2    0    0  0.10208097731E+03 -0.15361719240E+03  0.44672765294E+03  0.49920873754E+03  0.12500000000E+03 0.  0.
         25    1    1    2    0    0 -0.11441908766E+03  0.88713210638E+02  0.13779813769E+03  0.23574369157E+03  0.12500000000E+03 0.  0.
</event>
<event>
 5    0  0.5786117E-005  0.2837738E+03  0.7546771E-02  0.1093645E+00
         21   -1    0    0  502  501  0.00000000000E+00  0.00000000000E+00  0.36819839592E+03  0.36819839592E+03  0.00000000000E+00 0.  1.
         21   -1    0    0  501  502 -0.00000000000E+00 -0.00000000000E+00 -0.21870704059E+03  0.21870704059E+03  0.00000000000E+00 0.  1.
         25    1    1    2    0    0 -0.14377015726E+02 -0.10930125901E+03 -0.29871212123E+02  0.16932440201E+03  0.12500000000E+03 0.  0.
         25    1    1    2    0    0 -0.85081664402E+01  0.14899429291E+03  0.20422954141E+03  0.28214605048E+03  0.12500000000E+03 0.  0.
         25    1    1    2    0    0  0.22885182166E+02 -0.39693033891E+02 -0.24866973952E+02  0.13543498402E+03  0.12500000000E+03 0.  0.
</event>
<event>
 5    0  0.5790046E-005  0.2955547E+03  0.7546771E-02  0.1087484E+00
         21   -1    0    0  502  501  0.00000000000E+00  0.00000000000E+00  0.15595247776E+03  0.15595247776E+03  0.00000000000E+00 0.  1.
         21   -1    0    0  501  502 -0.00000000000E+00 -0.00000000000E+00 -0.56012309255E+03  0.56012309255E+03  0.00000000000E+00 0.  1.
         25    1    1    2    0    0  0.16073701414E+03  0.11380951278E+03 -0.28835050803E+03  0.37089083084E+03  0.12500000000E+03 0.  0.
         25    1    1    2    0    0 -0.87669761424E+02 -0.31551124748E+02 -0.78400512460E+02  0.17450816856E+03  0.12500000000E+03 0.  0.
         25    1    1    2    0    0 -0.73067252716E+02 -0.82258388035E+02 -0.37419594297E+02  0.17067657091E+03  0.12500000000E+03 0.  0.
</event>
<event>
 5    0  0.5786117E-005  0.3355812E+03  0.7546771E-02  0.1068694E+00
         21   -1    0    0  502  501  0.00000000000E+00  0.00000000000E+00  0.33820996274E+03  0.33820996274E+03  0.00000000000E+00 0. -1.
         21   -1    0    0  501  502 -0.00000000000E+00 -0.00000000000E+00 -0.33297277774E+03  0.33297277774E+03  0.00000000000E+00 0. -1.
         25    1    1    2    0    0  0.11584466674E+02  0.18095494603E+02 -0.14240701449E+02  0.12763010762E+03  0.12500000000E+03 0.  0.
         25    1    1    2    0    0 -0.15477672011E+02 -0.20685425055E+03 -0.12740846017E+03  0.27365334828E+03  0.12500000000E+03 0.  0.
         25    1    1    2    0    0  0.38932053366E+01  0.18875875595E+03  0.14688634662E+03  0.26989928458E+03  0.12500000000E+03 0.  0.
</event>
<event>
 5    0  0.5786117E-005  0.2555462E+03  0.7546771E-02  0.1109849E+00
         21   -1    0    0  502  501  0.00000000000E+00  0.00000000000E+00  0.87299489365E+02  0.87299489365E+02  0.00000000000E+00 0. -1.
         21   -1    0    0  501  502 -0.00000000000E+00 -0.00000000000E+00 -0.74804400412E+03  0.74804400412E+03  0.00000000000E+00 0. -1.
         25    1    1    2    0    0 -0.79618240919E+02 -0.30533488845E+02 -0.28088651089E+03  0.31905107777E+03  0.12500000000E+03 0.  0.
         25    1    1    2    0    0 -0.33793908214E+02  0.98868888945E+02 -0.22158127793E+03  0.27502790433E+03  0.12500000000E+03 0.  0.
         25    1    1    2    0    0  0.11341214913E+03 -0.68335400100E+02 -0.15827672594E+03  0.24126451138E+03  0.12500000000E+03 0.  0.
</event>
<event>
 5    0  0.5786117E-005  0.2530700E+03  0.7546771E-02  0.1111380E+00
         21   -1    0    0  502  501  0.00000000000E+00  0.00000000000E+00  0.84927225311E+02  0.84927225311E+02  0.00000000000E+00 0.  1.
         21   -1    0    0  501  502 -0.00000000000E+00 -0.00000000000E+00 -0.75410920424E+03  0.75410920424E+03  0.00000000000E+00 0.  1.
         25    1    1    2    0    0  0.12197407884E+03  0.21547967626E+02 -0.19352304778E+03  0.26156865416E+03  0.12500000000E+03 0.  0.
         25    1    1    2    0    0 -0.76636354778E+02 -0.83386652467E+02 -0.17558292522E+03  0.24347654571E+03  0.12500000000E+03 0.  0.
         25    1    1    2    0    0 -0.45337724063E+02  0.61838684840E+02 -0.30007600593E+03  0.33399122968E+03  0.12500000000E+03 0.  0.
</event>
<event>
 5    0  0.5786117E-005  0.2301681E+03  0.7546771E-02  0.1126521E+00
         21   -1    0    0  502  501  0.00000000000E+00  0.00000000000E+00  0.33865910435E+03  0.33865910435E+03  0.00000000000E+00 0.  1.
         21   -1    0    0  501  502 -0.00000000000E+00 -0.00000000000E+00 -0.15643270385E+03  0.15643270385E+03  0.00000000000E+00 0.  1.
         25    1    1    2    0    0 -0.57125704551E+02  0.57732662440E+02  0.96132225490E+02  0.17737759501E+03  0.12500000000E+03 0.  0.
         25    1    1    2    0    0  0.10411269704E+03 -0.84264860688E+01  0.55678731094E+02  0.17214987786E+03  0.12500000000E+03 0.  0.
         25    1    1    2    0    0 -0.46986992489E+02 -0.49306176372E+02  0.30415443907E+02  0.14556433533E+03  0.12500000000E+03 0.  0.
</event>
<event>
 5    0  0.5786117E-005  0.3067660E+03  0.7546771E-02  0.1081906E+00
         21   -1    0    0  502  501  0.00000000000E+00  0.00000000000E+00  0.42010578821E+03  0.42010578821E+03  0.00000000000E+00 0.  1.
         21   -1    0    0  501  502 -0.00000000000E+00 -0.00000000000E+00 -0.22400399224E+03  0.22400399224E+03  0.00000000000E+00 0.  1.
         25    1    1    2    0    0 -0.10127614591E+03  0.83694826922E+02 -0.62827654519E+02  0.19192184857E+03  0.12500000000E+03 0.  0.
         25    1    1    2    0    0  0.16095977628E+03 -0.37635499600E+02  0.82153787786E+02  0.22293210908E+03  0.12500000000E+03 0.  0.
         25    1    1    2    0    0 -0.59683630363E+02 -0.46059327322E+02  0.17677566271E+03  0.22925582281E+03  0.12500000000E+03 0.  0.
</event>
<event>
 5    0  0.7342797E-005  0.5638043E+03  0.7546771E-02  0.9983483E-01
         21   -1    0    0  502  501  0.00000000000E+00  0.00000000000E+00  0.56661416461E+03  0.56661416461E+03  0.00000000000E+00 0. -1.
         21   -1    0    0  501  502 -0.00000000000E+00 -0.00000000000E+00 -0.56100838945E+03  0.56100838945E+03  0.00000000000E+00 0. -1.
         25    1    1    2    0    0  0.13731882073E+03  0.19702825292E+03 -0.16642649862E+03  0.31780398113E+03  0.12500000000E+03 0.  0.
         25    1    1    2    0    0 -0.33634783188E+03 -0.18108690173E+03 -0.13394961445E+03  0.42366240003E+03  0.12500000000E+03 0.  0.
         25    1    1    2    0    0  0.19902901114E+03 -0.15941351193E+02  0.30598188822E+03  0.38615617291E+03  0.12500000000E+03 0.  0.
</event>
<event>
 5    0  0.5786117E-005  0.3849643E+03  0.7546771E-02  0.1049114E+00
         21   -1    0    0  502  501  0.00000000000E+00  0.00000000000E+00  0.71455734152E+03  0.71455734152E+03  0.00000000000E+00 0.  1.
         21   -1    0    0  501  502 -0.00000000000E+00 -0.00000000000E+00 -0.20739765419E+03  0.20739765419E+03  0.00000000000E+00 0.  1.
         25    1    1    2    0    0 -0.34702382437E+02 -0.11760928579E+03  0.11062128005E+03  0.20711896835E+03  0.12500000000E+03 0.  0.
         25    1    1    2    0    0  0.16219467110E+03  0.11888534079E+03  0.46643192437E+03  0.52309136454E+03  0.12500000000E+03 0.  0.
         25    1    1    2    0    0 -0.12749228866E+03 -0.12760550001E+01 -0.69893517102E+02  0.19174466281E+03  0.12500000000E+03 0.  0.
</event>
<event>
 5    0  0.5786117E-005  0.3324205E+03  0.7546771E-02  0.1070071E+00
         21   -1    0    0  502  501  0.00000000000E+00  0.00000000000E+00  0.11623417620E+04  0.11623417620E+04  0.00000000000E+00 0. -1.
         21   -1    0    0  501  502 -0.00000000000E+00 -0.00000000000E+00 -0.95069627168E+02  0.95069627168E+02  0.00000000000E+00 0. -1.
         25    1    1    2    0    0  0.70506667397E+02 -0.13683587804E+03  0.62877180917E+03  0.65929829036E+03  0.12500000000E+03 0.  0.
         25    1    1    2    0    0 -0.74476709230E+01 -0.55559799744E+01  0.36399919016E+03  0.38497629428E+03  0.12500000000E+03 0.  0.
         25    1    1    2    0    0 -0.63058996474E+02  0.14239185801E+03  0.74501135530E+02  0.21313680456E+03  0.12500000000E+03 0.  0.
</event>
<event>
 5    0  0.5786117E-005  0.5006436E+03  0.7546771E-02  0.1013611E+00
         21   -1    0    0  502  501  0.00000000000E+00  0.00000000000E+00  0.38894937481E+03  0.38894937481E+03  0.00000000000E+00 0. -1.
         21   -1    0    0  501  502 -0.00000000000E+00 -0.00000000000E+00 -0.64441296448E+03  0.64441296448E+03  0.00000000000E+00 0. -1.
         25    1    1    2    0    0 -0.69271445450E+02  0.24536059767E+03 -0.87158025239E+01  0.28407977974E+03  0.12500000000E+03 0.  0.
         25    1    1    2    0    0  0.23531106683E+03  0.10797336843E+03 -0.16434958606E+03  0.33115756507E+03  0.12500000000E+03 0.  0.
         25    1    1    2    0    0 -0.16603962138E+03 -0.35333396610E+03 -0.82398201082E+02  0.41812499448E+03  0.12500000000E+03 0.  0.
</event>
<event>
 5    0  0.5786117E-005  0.2775883E+03  0.7546771E-02  0.1097013E+00
         21   -1    0    0  502  501  0.00000000000E+00  0.00000000000E+00  0.45550185720E+03  0.45550185720E+03  0.00000000000E+00 0. -1.
         21   -1    0    0  501  502 -0.00000000000E+00 -0.00000000000E+00 -0.16916564791E+03  0.16916564791E+03  0.00000000000E+00 0. -1.
         25    1    1    2    0    0  0.67789203628E+02  0.70242780613E+02  0.51606661880E+02  0.16678630611E+03  0.12500000000E+03 0.  0.
         25    1    1    2    0    0 -0.10143314489E+03 -0.13849485132E+02  0.26788821252E+03  0.31284115063E+03  0.12500000000E+03 0.  0.
         25    1    1    2    0    0  0.33643941259E+02 -0.56393295481E+02 -0.33158665108E+02  0.14504004837E+03  0.12500000000E+03 0.  0.
</event>
<event>
 5    0  0.5786117E-005  0.3549493E+03  0.7546771E-02  0.1060602E+00
         21   -1    0    0  502  501  0.00000000000E+00  0.00000000000E+00  0.12048265657E+03  0.12048265657E+03  0.00000000000E+00 0.  1.
         21   -1    0    0  501  502 -0.00000000000E+00 -0.00000000000E+00 -0.10457022023E+04  0.10457022023E+04  0.00000000000E+00 0.  1.
         25    1    1    2    0    0  0.10375453193E+03  0.57128309594E+02 -0.82991171864E+03  0.84758899674E+03  0.12500000000E+03 0.  0.
         25    1    1    2    0    0 -0.74892043314E+02 -0.89757440313E+02 -0.44764085017E+02  0.17690121410E+03  0.12500000000E+03 0.  0.
         25    1    1    2    0    0 -0.28862488617E+02  0.32629130720E+02 -0.50543742082E+02  0.14169464804E+03  0.12500000000E+03 0.  0.
</event>
<event>
 5    0  0.5786117E-005  0.2532375E+03  0.7546771E-02  0.1111276E+00
         21   -1    0    0  502  501  0.00000000000E+00  0.00000000000E+00  0.83709245932E+02  0.83709245932E+02  0.00000000000E+00 0. -1.
         21   -1    0    0  501  502 -0.00000000000E+00 -0.00000000000E+00 -0.76609472338E+03  0.76609472338E+03  0.00000000000E+00 0. -1.
         25    1    1    2    0    0 -0.54421510920E+01 -0.63101397197E+02 -0.18880656272E+03  0.23512618200E+03  0.12500000000E+03 0.  0.
         25    1    1    2    0    0 -0.46843644193E+01  0.24769455944E+02 -0.46270633062E+03  0.47995584965E+03  0.12500000000E+03 0.  0.
         25    1    1    2    0    0  0.10126515511E+02  0.38331941253E+02 -0.30872584105E+02  0.13472193766E+03  0.12500000000E+03 0.  0.
</event>
<event>
 5    0  0.5786117E-005  0.2551866E+03  0.7546771E-02  0.1110070E+00
         21   -1    0    0  502  501  0.00000000000E+00  0.00000000000E+00  0.55622751411E+02  0.55622751411E+02  0.00000000000E+00 0.  1.
         21   -1    0    0  501  502 -0.00000000000E+00 -0.00000000000E+00 -0.11707475753E+04  0.11707475753E+04  0.00000000000E+00 0.  1.
         25    1    1    2    0    0  0.73414073319E+02  0.79099380393E+02 -0.25126251821E+03  0.30067289734E+03  0.12500000000E+03 0.  0.
         25    1    1    2    0    0  0.22328555876E+02 -0.72015399571E+02 -0.22906326631E+03  0.27162430333E+03  0.12500000000E+03 0.  0.
         25    1    1    2    0    0 -0.95742629195E+02 -0.70839808213E+01 -0.63479903937E+03  0.65407312604E+03  0.12500000000E+03 0.  0.
</event>
<event>
 5    0  0.5786117E-005  0.2215643E+03  0.7546771E-02  0.1132722E+00
         21   -1    0    0  502  501  0.00000000000E+00  0.00000000000E+00  0.19408458081E+03  0.19408458081E+03  0.00000000000E+00 0. -1.
         21   -1    0    0  501  502 -0.00000000000E+00 -0.00000000000E+00 -0.25293477563E+03  0.25293477563E+03  0.00000000000E+00 0. -1.
         25    1    1    2    0    0 -0.43133728227E+02 -0.11489164408E+02  0.53279403796E+02  0.14302522253E+03  0.12500000000E+03 0.  0.
         25    1    1    2    0    0  0.37745404411E+02 -0.75016754875E+01  0.59317262913E+01  0.13092431427E+03  0.12500000000E+03 0.  0.
         25    1    1    2    0    0  0.53883238163E+01  0.18990839895E+02 -0.11806132491E+03  0.17306981965E+03  0.12500000000E+03 0.  0.
</event>
<event>
 5    0  0.5786117E-005  0.2907256E+03  0.7546771E-02  0.1089971E+00
         21   -1    0    0  502  501  0.00000000000E+00  0.00000000000E+00  0.55143143380E+03  0.55143143380E+03  0.00000000000E+00 0. -1.
         21   -1    0    0  501  502 -0.00000000000E+00 -0.00000000000E+00 -0.15327633522E+03  0.15327633522E+03  0.00000000000E+00 0. -1.
         25    1    1    2    0    0 -0.44888047646E+02  0.48542155910E+02  0.14655148280E+03  0.20365071773E+03  0.12500000000E+03 0.  0.
         25    1    1    2    0    0 -0.76143018188E+02 -0.15799433886E+03  0.18800797799E+03  0.28588803773E+03  0.12500000000E+03 0.  0.
         25    1    1    2    0    0  0.12103106583E+03  0.10945218295E+03  0.63595637799E+02  0.21516901356E+03  0.12500000000E+03 0.  0.
</event>
<event>
 5    0  0.5786117E-005  0.2440584E+03  0.7546771E-02  0.1117118E+00
         21   -1    0    0  502  501  0.00000000000E+00  0.00000000000E+00  0.13752723893E+03  0.13752723893E+03  0.00000000000E+00 0. -1.
         21   -1    0    0  501  502 -0.00000000000E+00 -0.00000000000E+00 -0.43311068261E+03  0.43311068261E+03  0.00000000000E+00 0. -1.
         25    1    1    2    0    0  0.13053037489E+03 -0.49874627404E+02 -0.14272306633E+03  0.23562795014E+03  0.12500000000E+03 0.  0.
         25    1    1    2    0    0 -0.10367281558E+03  0.27554592113E+02 -0.11104484284E+03  0.19865363163E+03  0.12500000000E+03 0.  0.
         25    1    1    2    0    0 -0.26857559301E+02  0.22320035291E+02 -0.41815534503E+02  0.13635633976E+03  0.12500000000E+03 0.  0.
</event>
<event>
 5    0  0.5786117E-005  0.4448432E+03  0.7546771E-02  0.1029271E+00
         21   -1    0    0  502  501  0.00000000000E+00  0.00000000000E+00  0.51851557851E+03  0.51851557851E+03  0.00000000000E+00 0.  1.
         21   -1    0    0  501  502 -0.00000000000E+00 -0.00000000000E+00 -0.38163841746E+03  0.38163841746E+03  0.00000000000E+00 0.  1.
         25    1    1    2    0    0  0.64003613284E+02  0.62520178229E+02 -0.29672371341E+03  0.33417839143E+03  0.12500000000E+03 0.  0.
         25    1    1    2    0    0 -0.60776057088E+02  0.40566330170E+02  0.56312973744E+02  0.15535606609E+03  0.12500000000E+03 0.  0.
         25    1    1    2    0    0 -0.32275561966E+01 -0.10308650840E+03  0.37728790071E+03  0.41061953845E+03  0.12500000000E+03 0.  0.
</event>
<event>
 5    0  0.5786117E-005  0.3394608E+03  0.7546771E-02  0.1067026E+00
         21   -1    0    0  502  501  0.00000000000E+00  0.00000000000E+00  0.51422574996E+03  0.51422574996E+03  0.00000000000E+00 0. -1.
         21   -1    0    0  501  502 -0.00000000000E+00 -0.00000000000E+00 -0.22409152875E+03  0.22409152875E+03  0.00000000000E+00 0. -1.
         25    1    1    2    0    0 -0.52762706416E+02 -0.11098050700E+03 -0.13979260367E+03  0.22420425545E+03  0.12500000000E+03 0.  0.
         25    1    1    2    0    0  0.13435323349E+02  0.38737360335E+02  0.21960184207E+03  0.25599035146E+03  0.12500000000E+03 0.  0.
         25    1    1    2    0    0  0.39327383067E+02  0.72243146662E+02  0.21032498281E+03  0.25812267179E+03  0.12500000000E+03 0.  0.
</event>
<event>
 5    0  0.5786117E-005  0.6066657E+03  0.7546771E-02  0.9891672E-01
         21   -1    0    0  502  501  0.00000000000E+00  0.00000000000E+00  0.48758563775E+03  0.48758563775E+03  0.00000000000E+00 0.  1.
         21   -1    0    0  501  502 -0.00000000000E+00 -0.00000000000E+00 -0.75482807303E+03  0.75482807303E+03  0.00000000000E+00 0.  1.
         25    1    1    2    0    0 -0.32344411118E+03  0.48667808507E+02  0.99042672313E+02  0.36389435223E+03  0.12500000000E+03 0.  0.
         25    1    1    2    0    0 -0.20977187288E+03 -0.26022482232E+02 -0.15869357008E+03  0.29238682840E+03  0.12500000000E+03 0.  0.
         25    1    1    2    0    0  0.53321598406E+03 -0.22645326275E+02 -0.20759153750E+03  0.58613253016E+03  0.12500000000E+03 0.  0.
</event>
<event>
 5    0  0.5786117E-005  0.2124906E+03  0.7546771E-02  0.1139609E+00
         21   -1    0    0  502  501  0.00000000000E+00  0.00000000000E+00  0.20567072234E+03  0.20567072234E+03  0.00000000000E+00 0.  1.
         21   -1    0    0  501  502 -0.00000000000E+00 -0.00000000000E+00 -0.21953652308E+03  0.21953652308E+03  0.00000000000E+00 0.  1.
         25    1    1    2    0    0  0.11785264663E+02 -0.68956294824E+02  0.34996435241E+02  0.14745715832E+03  0.12500000000E+03 0.  0.
         25    1    1    2    0    0 -0.38598020537E+02  0.13497134220E+02 -0.48374259568E+01  0.13160691665E+03  0.12500000000E+03 0.  0.
         25    1    1    2    0    0  0.26812755874E+02  0.55459160604E+02 -0.44024810025E+02  0.14614317045E+03  0.12500000000E+03 0.  0.
</event>
<event>
 5    0  0.5786117E-005  0.2183683E+03  0.7546771E-02  0.1135105E+00
         21   -1    0    0  502  501  0.00000000000E+00  0.00000000000E+00  0.63055979259E+03  0.63055979259E+03  0.00000000000E+00 0.  1.
         21   -1    0    0  501  502 -0.00000000000E+00 -0.00000000000E+00 -0.75622803979E+02  0.75622803979E+02  0.00000000000E+00 0.  1.
         25    1    1    2    0    0  0.28959824357E+02  0.24340841579E+02  0.18312941129E+03  0.22492783126E+03  0.12500000000E+03 0.  0.
         25    1    1    2    0    0  0.51677694666E+02 -0.52187901039E+02  0.12343666777E+03  0.19040948530E+03  0.12500000000E+03 0.  0.
         25    1    1    2    0    0 -0.80637519023E+02  0.27847059460E+02  0.24837090956E+03  0.29084528002E+03  0.12500000000E+03 0.  0.
</event>
<event>
 5    0  0.5786117E-005  0.3292937E+03  0.7546771E-02  0.1071450E+00
         21   -1    0    0  502  501  0.00000000000E+00  0.00000000000E+00  0.14665608683E+03  0.14665608683E+03  0.00000000000E+00 0. -1.
         21   -1    0    0  501  502 -0.00000000000E+00 -0.00000000000E+00 -0.73937852142E+03  0.73937852142E+03  0.00000000000E+00 0. -1.
         25    1    1    2    0    0  0.14122827657E+03  0.11793742041E+03 -0.19291939371E+03  0.29444448323E+03  0.12500000000E+03 0.  0.
         25    1    1    2    0    0 -0.12973503237E+03 -0.21210084330E+03 -0.27306733059E+03  0.38988294831E+03  0.12500000000E+03 0.  0.
         25    1    1    2    0    0 -0.11493244203E+02  0.94163422893E+02 -0.12673571030E+03  0.20170717671E+03  0.12500000000E+03 0.  0.
</event>
<event>
 5    0  0.5786117E-005  0.3041725E+03  0.7546771E-02  0.1083173E+00
         21   -1    0    0  502  501  0.00000000000E+00  0.00000000000E+00  0.11355596360E+04  0.11355596360E+04  0.00000000000E+00 0.  1.
         21   -1    0    0  501  502 -0.00000000000E+00 -0.00000000000E+00 -0.81476068908E+02  0.81476068908E+02  0.00000000000E+00 0.  1.
         25    1    1    2    0    0 -0.22749244143E+02 -0.10746724977E+03  0.29869478704E+03  0.34192150223E+03  0.12500000000E+03 0.  0.
         25    1    1    2    0    0  0.15705810995E+03  0.14751719238E+03  0.49404361707E+03  0.55329256955E+03  0.12500000000E+03 0.  0.
         25    1    1    2    0    0 -0.13430886581E+03 -0.40049942613E+02  0.26134516299E+03  0.32182163313E+03  0.12500000000E+03 0.  0.
</event>
<event>
 5    0  0.5786117E-005  0.3475953E+03  0.7546771E-02  0.1063606E+00
         21   -1    0    0  502  501  0.00000000000E+00  0.00000000000E+00  0.15191187565E+03  0.15191187565E+03  0.00000000000E+00 0.  1.
         21   -1    0    0  501  502 -0.00000000000E+00 -0.00000000000E+00 -0.79534604302E+03  0.79534604302E+03  0.00000000000E+00 0.  1.
         25    1    1    2    0    0  0.11382536895E+03  0.53118634755E+02 -0.11305947620E+03  0.21020287613E+03  0.12500000000E+03 0.  0.
         25    1    1    2    0    0 -0.18646139831E+03 -0.18829523242E+03 -0.41484067584E+03  0.50787866065E+03  0.12500000000E+03 0.  0.
         25    1    1    2    0    0  0.72636029363E+02  0.13517659766E+03 -0.11553401533E+03  0.22917638189E+03  0.12500000000E+03 0.  0.
</event>
<event>
 5    0  0.5786117E-005  0.3668446E+03  0.7546771E-02  0.1055906E+00
         21   -1    0    0  502  501  0.00000000000E+00  0.00000000000E+00  0.14032892804E+03  0.14032892804E+03  0.00000000000E+00 0. -1.
         21   -1    0    0  501  502 -0.00000000000E+00 -0.00000000000E+00 -0.95899675614E+03  0.95899675614E+03  0.00000000000E+00 0. -1.
         25    1    1    2    0    0 -0.15532692458E+03 -0.54522932596E+02 -0.38590822344E+03  0.43777775251E+03  0.12500000000E+03 0.  0.
         25    1    1    2    0    0 -0.12998251452E+03  0.41410605286E+02 -0.20012071212E+03  0.27255016369E+03  0.12500000000E+03 0.  0.
         25    1    1    2    0    0  0.28530943910E+03  0.13112327310E+02 -0.23263889255E+03  0.38899776797E+03  0.12500000000E+03 0.  0.
</event>
<event>
 5    0  0.5786117E-005  0.2692827E+03  0.7546771E-02  0.1101691E+00
         21   -1    0    0  502  501  0.00000000000E+00  0.00000000000E+00  0.10494118968E+03  0.10494118968E+03  0.00000000000E+00 0.  1.
         21   -1    0    0  501  502 -0.00000000000E+00 -0.00000000000E+00 -0.69098885846E+03  0.69098885846E+03  0.00000000000E+00 0.  1.
         25    1    1    2    0    0  0.20220352085E+02  0.28354053612E+02 -0.66880617845E+02  0.14598230043E+03  0.12500000000E+03 0.  0.
         25    1    1    2    0    0 -0.24596955001E+02  0.64949555198E+02 -0.46222462008E+03  0.48383887227E+03  0.12500000000E+03 0.  0.
         25    1    1    2    0    0  0.43766029157E+01 -0.93303608810E+02 -0.56942430856E+02  0.16610887545E+03  0.12500000000E+03 0.  0.
</event>
<event>
 5    0  0.5786117E-005  0.3974474E+03  0.7546771E-02  0.1044667E+00
         21   -1    0    0  502  501  0.00000000000E+00  0.00000000000E+00  0.84276819772E+03  0.84276819772E+03  0.00000000000E+00 0. -1.
         21   -1    0    0  501  502 -0.00000000000E+00 -0.00000000000E+00 -0.18743525795E+03  0.18743525795E+03  0.00000000000E+00 0. -1.
         25    1    1    2    0    0  0.19053940637E+03  0.57180991121E+02  0.67962804399E+02  0.24457897274E+03  0.12500000000E+03 0.  0.
         25    1    1    2    0    0 -0.23196579373E+03 -0.19452757238E+03  0.32395840816E+03  0.46067684562E+03  0.12500000000E+03 0.  0.
         25    1    1    2    0    0  0.41426387356E+02  0.13734658126E+03  0.26341172721E+03  0.32494763730E+03  0.12500000000E+03 0.  0.
</event>
<event>
 5    0  0.5786117E-005  0.2783733E+03  0.7546771E-02  0.1096581E+00
         21   -1    0    0  502  501  0.00000000000E+00  0.00000000000E+00  0.73381125295E+02  0.73381125295E+02  0.00000000000E+00 0. -1.
         21   -1    0    0  501  502 -0.00000000000E+00 -0.00000000000E+00 -0.10560164348E+04  0.10560164348E+04  0.00000000000E+00 0. -1.
         25    1    1    2    0    0  0.10454564268E+03  0.37797714965E+02 -0.45131645638E+03  0.48132110119E+03  0.12500000000E+03 0.  0.
         25    1    1    2    0    0 -0.27052115910E+02 -0.14164618950E+03 -0.26271141874E+03  0.32471179454E+03  0.12500000000E+03 0.  0.
         25    1    1    2    0    0 -0.77493526766E+02  0.10384847453E+03 -0.26860743441E+03  0.32336466439E+03  0.12500000000E+03 0.  0.
</event>
<event>
 5    0  0.5786117E-005  0.3239720E+03  0.7546771E-02  0.1073836E+00
         21   -1    0    0  502  501  0.00000000000E+00  0.00000000000E+00  0.18836219648E+03  0.18836219648E+03  0.00000000000E+00 0.  1.
         21   -1    0    0  501  502 -0.00000000000E+00 -0.00000000000E+00 -0.55721296995E+03  0.55721296995E+03  0.00000000000E+00 0.  1.
         25    1    1    2    0    0  0.17564150267E+03 -0.13205505776E+03 -0.23354591937E+03  0.34417607732E+03  0.12500000000E+03 0.  0.
         25    1    1    2    0    0 -0.88228480092E+02  0.91415025490E+02  0.20743855968E+02  0.17943321639E+03  0.12500000000E+03 0.  0.
         25    1    1    2    0    0 -0.87413022581E+02  0.40640032275E+02 -0.15604871007E+03  0.22196587273E+03  0.12500000000E+03 0.  0.
</event>
<event>
 5    0  0.7065937E-005  0.6258319E+03  0.7546771E-02  0.9853216E-01
         21   -1    0    0  502  501  0.00000000000E+00  0.00000000000E+00  0.79683358510E+03  0.79683358510E+03  0.00000000000E+00 0.  1.
         21   -1    0    0  501  502 -0.00000000000E+00 -0.00000000000E+00 -0.49152741048E+03  0.49152741048E+03  0.00000000000E+00 0.  1.
         25    1    1    2    0    0  0.15408154876E+03 -0.25126870485E+03  0.18980869297E+03  0.37219541324E+03  0.12500000000E+03 0.  0.
         25    1    1    2    0    0 -0.34148301769E+03 -0.12267955724E+02 -0.22697739281E+03  0.42884133540E+03  0.12500000000E+03 0.  0.
         25    1    1    2    0    0  0.18740146892E+03  0.26353666058E+03  0.34247487446E+03  0.48732424694E+03  0.12500000000E+03 0.  0.
</event>
<event>
 5    0  0.5786117E-005  0.4469239E+03  0.7546771E-02  0.1028643E+00
         21   -1    0    0  502  501  0.00000000000E+00  0.00000000000E+00  0.62832944186E+03  0.62832944186E+03  0.00000000000E+00 0.  1.
         21   -1    0    0  501  502 -0.00000000000E+00 -0.00000000000E+00 -0.31789214737E+03  0.31789214737E+03  0.00000000000E+00 0.  1.
         25    1    1    2    0    0  0.15323337593E+03  0.26696801277E+03  0.16260211488E+03  0.36988759793E+03  0.12500000000E+03 0.  0.
         25    1    1    2    0    0 -0.12092968583E+03 -0.25197758663E+03  0.26228161396E+03  0.40315423612E+03  0.12500000000E+03 0.  0.
         25    1    1    2    0    0 -0.32303690104E+02 -0.14990426135E+02 -0.11444643435E+03  0.17317975518E+03  0.12500000000E+03 0.  0.
</event>
<event>
 5    0  0.6131762E-005  0.2670778E+03  0.7546771E-02  0.1102964E+00
         21   -1    0    0  502  501  0.00000000000E+00  0.00000000000E+00  0.34635971196E+03  0.34635971196E+03  0.00000000000E+00 0. -1.
         21   -1    0    0  501  502 -0.00000000000E+00 -0.00000000000E+00 -0.20594358263E+03  0.20594358263E+03  0.00000000000E+00 0. -1.
         25    1    1    2    0    0  0.11734570826E+03 -0.13669780510E+02  0.24842606094E+02  0.17377869036E+03  0.12500000000E+03 0.  0.
         25    1    1    2    0    0 -0.11459162675E+03  0.20816044385E+02  0.17086403076E+03  0.24162794878E+03  0.12500000000E+03 0.  0.
         25    1    1    2    0    0 -0.27540815188E+01 -0.71462638745E+01 -0.55290507514E+02  0.13689665545E+03  0.12500000000E+03 0.  0.
</event>
<event>
 5    0  0.5786117E-005  0.3362089E+03  0.7546771E-02  0.1068422E+00
         21   -1    0    0  502  501  0.00000000000E+00  0.00000000000E+00  0.17732849400E+03  0.17732849400E+03  0.00000000000E+00 0. -1.
         21   -1    0    0  501  502 -0.00000000000E+00 -0.00000000000E+00 -0.63744071827E+03  0.63744071827E+03  0.00000000000E+00 0. -1.
         25    1    1    2    0    0 -0.94661927533E+02  0.72863025472E+02 -0.10081793934E+03  0.20014784010E+03  0.12500000000E+03 0.  0.
         25    1    1    2    0    0 -0.14198156815E+02  0.13657530707E+03 -0.25982516071E+02  0.18749531541E+03  0.12500000000E+03 0.  0.
         25    1    1    2    0    0  0.10886008435E+03 -0.20943833254E+03 -0.33331176886E+03  0.42712605676E+03  0.12500000000E+03 0.  0.
</event>
<event>
 5    0  0.5786117E-005  0.5863419E+03  0.7546771E-02  0.9934154E-01
         21   -1    0    0  502  501  0.00000000000E+00  0.00000000000E+00  0.18661275522E+04  0.18661275522E+04  0.00000000000E+00 0.  1.
         21   -1    0    0  501  502 -0.00000000000E+00 -0.00000000000E+00 -0.18423009081E+03  0.18423009081E+03  0.00000000000E+00 0.  1.
         25    1    1    2    0    0  0.14785495549E+03 -0.55421598119E+02  0.41073176767E+02  0.20553502682E+03  0.12500000000E+03 0.  0.
         25    1    1    2    0    0 -0.38279800394E+03  0.87228102932E+02  0.14707979250E+04  0.15274208948E+04  0.12500000000E+03 0.  0.
         25    1    1    2    0    0  0.23494304844E+03 -0.31806504812E+02  0.17002635965E+03  0.31740172138E+03  0.12500000000E+03 0.  0.
</event>
<event>
 5    0  0.5786117E-005  0.2944146E+03  0.7546771E-02  0.1088067E+00
         21   -1    0    0  502  501  0.00000000000E+00  0.00000000000E+00  0.31616877125E+02  0.31616877125E+02  0.00000000000E+00 0. -1.
         21   -1    0    0  501  502 -0.00000000000E+00 -0.00000000000E+00 -0.27415723176E+04  0.27415723176E+04  0.00000000000E+00 0. -1.
         25    1    1    2    0    0 -0.18297576794E+02  0.14463472562E+03 -0.83641673938E+03  0.85817944923E+03  0.12500000000E+03 0.  0.
         25    1    1    2    0    0  0.55947669439E+02 -0.20314597814E+03 -0.98402508954E+03  0.10140654846E+04  0.12500000000E+03 0.  0.
         25    1    1    2    0    0 -0.37650092645E+02  0.58511252518E+02 -0.88951361159E+03  0.90094426095E+03  0.12500000000E+03 0.  0.
</event>
<event>
 5    0  0.5786117E-005  0.2226664E+03  0.7546771E-02  0.1131911E+00
         21   -1    0    0  502  501  0.00000000000E+00  0.00000000000E+00  0.21169149279E+03  0.21169149279E+03  0.00000000000E+00 0.  1.
         21   -1    0    0  501  502 -0.00000000000E+00 -0.00000000000E+00 -0.23421019248E+03  0.23421019248E+03  0.00000000000E+00 0.  1.
         25    1    1    2    0    0 -0.19365478008E+02 -0.54991293941E+02 -0.46285385305E+01  0.13800538945E+03  0.12500000000E+03 0.  0.
         25    1    1    2    0    0  0.41853411060E+02 -0.50393248080E+02  0.53878751458E+01  0.14122753509E+03  0.12500000000E+03 0.  0.
         25    1    1    2    0    0 -0.22487933052E+02  0.10538454202E+03 -0.23278036304E+02  0.16666876073E+03  0.12500000000E+03 0.  0.
</event>
<event>
 5    0  0.5786117E-005  0.2675058E+03  0.7546771E-02  0.1102716E+00
         21   -1    0    0  502  501  0.00000000000E+00  0.00000000000E+00  0.16541254602E+04  0.16541254602E+04  0.00000000000E+00 0. -1.
         21   -1    0    0  501  502 -0.00000000000E+00 -0.00000000000E+00 -0.43261124701E+02  0.43261124701E+02  0.00000000000E+00 0. -1.
         25    1    1    2    0    0  0.15250379965E+03  0.82048286744E+02  0.73841197245E+03  0.76867845769E+03  0.12500000000E+03 0.  0.
         25    1    1    2    0    0 -0.43745820484E+02 -0.15805842297E+02  0.46815882663E+03  0.48678661486E+03  0.12500000000E+03 0.  0.
         25    1    1    2    0    0 -0.10875797916E+03 -0.66242444447E+02  0.40429353639E+03  0.44192151231E+03  0.12500000000E+03 0.  0.
</event>
<event>
 5    0  0.5786117E-005  0.3132693E+03  0.7546771E-02  0.1078789E+00
         21   -1    0    0  502  501  0.00000000000E+00  0.00000000000E+00  0.79372927786E+02  0.79372927786E+02  0.00000000000E+00 0.  1.
         21   -1    0    0  501  502 -0.00000000000E+00 -0.00000000000E+00 -0.12364123184E+04  0.12364123184E+04  0.00000000000E+00 0.  1.
         25    1    1    2    0    0 -0.83354227449E+02 -0.44447594860E+02 -0.71636996376E+03  0.73330378486E+03  0.12500000000E+03 0.  0.
         25    1    1    2    0    0  0.66632124523E+02 -0.94355151104E+02 -0.31084822233E+03  0.35439293430E+03  0.12500000000E+03 0.  0.
         25    1    1    2    0    0  0.16722102927E+02  0.13880274596E+03 -0.12982120453E+03  0.22808852702E+03  0.12500000000E+03 0.  0.
</event>
<event>
 5    0  0.5786117E-005  0.2020737E+03  0.7546771E-02  0.1148001E+00
         21   -1    0    0  502  501  0.00000000000E+00  0.00000000000E+00  0.77531169843E+03  0.77531169843E+03  0.00000000000E+00 0.  1.
         21   -1    0    0  501  502 -0.00000000000E+00 -0.00000000000E+00 -0.52667573004E+02  0.52667573004E+02  0.00000000000E+00 0.  1.
         25    1    1    2    0    0  0.22058026612E+02 -0.66290922822E+02  0.26634988585E+03  0.30240420744E+03  0.12500000000E+03 0.  0.
         25    1    1    2    0    0 -0.17404830820E+02  0.44560886380E+02  0.23686491292E+03  0.27206357291E+03  0.12500000000E+03 0.  0.
         25    1    1    2    0    0 -0.46531957926E+01  0.21730036442E+02  0.21942932665E+03  0.25351149108E+03  0.12500000000E+03 0.  0.
</event>
<event>
 5    0  0.5786117E-005  0.2916030E+03  0.7546771E-02  0.1089515E+00
         21   -1    0    0  502  501  0.00000000000E+00  0.00000000000E+00  0.15926678355E+04  0.15926678355E+04  0.00000000000E+00 0. -1.
         21   -1    0    0  501  502 -0.00000000000E+00 -0.00000000000E+00 -0.53389875433E+02  0.53389875433E+02  0.00000000000E+00 0. -1.
         25    1    1    2    0    0 -0.25721208137E+01 -0.16058497746E+03  0.45202584228E+03  0.49572826517E+03  0.12500000000E+03 0.  0.
         25    1    1    2    0    0  0.29090547948E+02  0.10184357882E+03  0.23454593206E+03  0.28610342321E+03  0.12500000000E+03 0.  0.
         25    1    1    2    0    0 -0.26518427134E+02  0.58741398639E+02  0.85270618574E+03  0.86422602257E+03  0.12500000000E+03 0.  0.
</event>
<event>
 5    0  0.5786117E-005  0.3455637E+03  0.7546771E-02  0.1064451E+00
         21   -1    0    0  502  501  0.00000000000E+00  0.00000000000E+00  0.34535693454E+02  0.34535693454E+02  0.00000000000E+00 0.  1.
         21   -1    0    0  501  502 -0.00000000000E+00 -0.00000000000E+00 -0.34577058097E+04  0.34577058097E+04  0.00000000000E+00 0.  1.
         25    1    1    2    0    0  0.71734375661E+02 -0.15332732222E+03 -0.53734859071E+03  0.57708196673E+03  0.12500000000E+03 0.  0.
         25    1    1    2    0    0 -0.14060605247E+03 -0.13296258432E+02 -0.11212482740E+04  0.11370002394E+04  0.12500000000E+03 0.  0.
         25    1    1    2    0    0  0.68871676806E+02  0.16662358065E+03 -0.17645732516E+04  0.17781592970E+04  0.12500000000E+03 0.  0.
</event>
<event>
 5    0  0.5786117E-005  0.3991511E+03  0.7546771E-02  0.1044074E+00
         21   -1    0    0  502  501  0.00000000000E+00  0.00000000000E+00  0.23189153504E+03  0.23189153504E+03  0.00000000000E+00 0. -1.
         21   -1    0    0  501  502 -0.00000000000E+00 -0.00000000000E+00 -0.68705242089E+03  0.68705242089E+03  0.00000000000E+00 0.  1.
         25    1    1    2    0    0  0.13616298772E+03 -0.11012577852E+02 -0.18124486943E+03  0.25910680962E+03  0.12500000000E+03 0.  0.
         25    1    1    2    0    0  0.12511058805E+03 -0.13415073298E+03  0.19377553824E+02  0.22282183016E+03  0.12500000000E+03 0.  0.
         25    1    1    2    0    0 -0.26127357577E+03  0.14516331084E+03 -0.29329357025E+03  0.43701531616E+03  0.12500000000E+03 0.  0.
</event>
<event>
 5    0  0.5786117E-005  0.3600294E+03  0.7546771E-02  0.1058572E+00
         21   -1    0    0  502  501  0.00000000000E+00  0.00000000000E+00  0.18060564580E+03  0.18060564580E+03  0.00000000000E+00 0. -1.
         21   -1    0    0  501  502 -0.00000000000E+00 -0.00000000000E+00 -0.71770282509E+03  0.71770282509E+03  0.00000000000E+00 0. -1.
         25    1    1    2    0    0 -0.14361654021E+03  0.22149770130E+03 -0.20048961503E+03  0.35427112222E+03  0.12500000000E+03 0.  0.
         25    1    1    2    0    0  0.17122214855E+03 -0.15098041198E+03 -0.12989510653E+03  0.29087771942E+03  0.12500000000E+03 0.  0.
         25    1    1    2    0    0 -0.27605608333E+02 -0.70517289320E+02 -0.20671245772E+03  0.25315962924E+03  0.12500000000E+03 0.  0.
</event>
<event>
 5    0  0.5786117E-005  0.3005371E+03  0.7546771E-02  0.1084972E+00
         21   -1    0    0  502  501  0.00000000000E+00  0.00000000000E+00  0.15084646765E+03  0.15084646765E+03  0.00000000000E+00 0.  1.
         21   -1    0    0  501  502 -0.00000000000E+00 -0.00000000000E+00 -0.59877144427E+03  0.59877144427E+03  0.00000000000E+00 0.  1.
         25    1    1    2    0    0  0.36939725462E+02  0.43523616615E+02 -0.13513358401E+03  0.19273021052E+03  0.12500000000E+03 0.  0.
         25    1    1    2    0    0 -0.13703479888E+03 -0.12014296393E+03 -0.30037419279E+02  0.22302491889E+03  0.12500000000E+03 0.  0.
         25    1    1    2    0    0  0.10009507342E+03  0.76619347320E+02 -0.28275397333E+03  0.33386278250E+03  0.12500000000E+03 0.  0.
</event>
<event>
 5    0  0.5786117E-005  0.2998016E+03  0.7546771E-02  0.1085340E+00
         21   -1    0    0  502  501  0.00000000000E+00  0.00000000000E+00  0.19055673090E+04  0.19055673090E+04  0.00000000000E+00 0. -1.
         21   -1    0    0  501  502 -0.00000000000E+00 -0.00000000000E+00 -0.47167581939E+02  0.47167581939E+02  0.00000000000E+00 0. -1.
         25    1    1    2    0    0  0.10765645464E+03  0.18254927699E+03  0.66265174272E+03  0.70685676264E+03  0.12500000000E+03 0.  0.
         25    1    1    2    0    0 -0.98988945584E+02 -0.15207983176E+03  0.71983636641E+03  0.75280573920E+03  0.12500000000E+03 0.  0.
         25    1    1    2    0    0 -0.86675090595E+01 -0.30469445232E+02  0.47591161791E+03  0.49307238907E+03  0.12500000000E+03 0.  0.
</event>
<event>
 5    0  0.5786117E-005  0.2830409E+03  0.7546771E-02  0.1094040E+00
         21   -1    0    0  502  501  0.00000000000E+00  0.00000000000E+00  0.22250071955E+04  0.22250071955E+04  0.00000000000E+00 0.  1.
         21   -1    0    0  501  502 -0.00000000000E+00 -0.00000000000E+00 -0.36005344262E+02  0.36005344262E+02  0.00000000000E+00 0.  1.
         25    1    1    2    0    0  0.32276476298E+02 -0.26581124250E+02  0.95054681157E+03  0.95964189575E+03  0.12500000000E+03 0.  0.
         25    1    1    2    0    0  0.66475948795E+02  0.31088033247E+02  0.10238749253E+04  0.10340843197E+04  0.12500000000E+03 0.  0.
         25    1    1    2    0    0 -0.98752425092E+02 -0.45069089969E+01  0.21458011440E+03  0.26728632436E+03  0.12500000000E+03 0.  0.
</event>
<event>
 5    0  0.5786117E-005  0.2917239E+03  0.7546771E-02  0.1089452E+00
         21   -1    0    0  502  501  0.00000000000E+00  0.00000000000E+00  0.15445552757E+03  0.15445552757E+03  0.00000000000E+00 0. -1.
         21   -1    0    0  501  502 -0.00000000000E+00 -0.00000000000E+00 -0.55098605296E+03  0.55098605296E+03  0.00000000000E+00 0. -1.
         25    1    1    2    0    0  0.78818144128E+02  0.12309395416E+03 -0.24817100736E+03  0.31397176671E+03  0.12500000000E+03 0.  0.
         25    1    1    2    0    0 -0.43313607052E+02 -0.14886422212E+03 -0.16411529945E+03  0.25806095539E+03  0.12500000000E+03 0.  0.
         25    1    1    2    0    0 -0.35504537076E+02  0.25770267953E+02  0.15755781418E+02  0.13340885844E+03  0.12500000000E+03 0.  0.
</event>
<event>
 5    0  0.5786117E-005  0.3364115E+03  0.7546771E-02  0.1068335E+00
         21   -1    0    0  502  501  0.00000000000E+00  0.00000000000E+00  0.56636980762E+03  0.56636980762E+03  0.00000000000E+00 0. -1.
         21   -1    0    0  501  502 -0.00000000000E+00 -0.00000000000E+00 -0.19982116653E+03  0.19982116653E+03  0.00000000000E+00 0. -1.
         25    1    1    2    0    0 -0.14552929210E+03  0.12708882767E+03  0.42454215243E+02  0.23400364393E+03  0.12500000000E+03 0.  0.
         25    1    1    2    0    0 -0.20389887718E+02  0.25266295288E+02  0.15312440250E+02  0.13005231265E+03  0.12500000000E+03 0.  0.
         25    1    1    2    0    0  0.16591917982E+03 -0.15235512296E+03  0.30878198560E+03  0.40213501757E+03  0.12500000000E+03 0.  0.
</event>
<event>
 5    0  0.5786117E-005  0.3063633E+03  0.7546771E-02  0.1082102E+00
         21   -1    0    0  502  501  0.00000000000E+00  0.00000000000E+00  0.11908281502E+04  0.11908281502E+04  0.00000000000E+00 0. -1.
         21   -1    0    0  501  502 -0.00000000000E+00 -0.00000000000E+00 -0.78817816713E+02  0.78817816713E+02  0.00000000000E+00 0. -1.
         25    1    1    2    0    0  0.44991542013E+02  0.85992317298E+02  0.20690618269E+03  0.26048816849E+03  0.12500000000E+03 0.  0.
         25    1    1    2    0    0  0.12324114598E+03 -0.14137744919E+02  0.63933992814E+03  0.66315066132E+03  0.12500000000E+03 0.  0.
         25    1    1    2    0    0 -0.16823268799E+03 -0.71854572379E+02  0.26576422264E+03  0.34600713709E+03  0.12500000000E+03 0.  0.
</event>
<event>
 5    0  0.5786117E-005  0.3132760E+03  0.7546771E-02  0.1078786E+00
         21   -1    0    0  502  501  0.00000000000E+00  0.00000000000E+00  0.48991481388E+03  0.48991481388E+03  0.00000000000E+00 0. -1.
         21   -1    0    0  501  502 -0.00000000000E+00 -0.00000000000E+00 -0.20032426364E+03  0.20032426364E+03  0.00000000000E+00 0. -1.
         25    1    1    2    0    0  0.73575679296E+02  0.10515207520E+02  0.16292752637E+03  0.21839031348E+03  0.12500000000E+03 0.  0.
         25    1    1    2    0    0  0.24623308896E+02  0.15028282353E+03  0.14555581660E+03  0.24495454708E+03  0.12500000000E+03 0.  0.
         25    1    1    2    0    0 -0.98198988192E+02 -0.16079803105E+03 -0.18892792741E+02  0.22689421696E+03  0.12500000000E+03 0.  0.
</event>
<event>
 5    0  0.5786117E-005  0.3491124E+03  0.7546771E-02  0.1062980E+00
         21   -1    0    0  502  501  0.00000000000E+00  0.00000000000E+00  0.12468529596E+03  0.12468529596E+03  0.00000000000E+00 0. -1.
         21   -1    0    0  501  502 -0.00000000000E+00 -0.00000000000E+00 -0.97749681274E+03  0.97749681274E+03  0.00000000000E+00 0. -1.
         25    1    1    2    0    0 -0.55385672483E+02 -0.17657531995E+03 -0.27426133051E+03  0.35368162766E+03  0.12500000000E+03 0.  0.
         25    1    1    2    0    0 -0.13881307312E+03  0.13545466182E+03 -0.36176379047E+03  0.42908632555E+03  0.12500000000E+03 0.  0.
         25    1    1    2    0    0  0.19419874561E+03  0.41120658129E+02 -0.21678639580E+03  0.31941415548E+03  0.12500000000E+03 0.  0.
</event>
<event>
 5    0  0.5786117E-005  0.6394519E+03  0.7546771E-02  0.9826776E-01
         21   -1    0    0  502  501  0.00000000000E+00  0.00000000000E+00  0.96766115547E+03  0.96766115547E+03  0.00000000000E+00 0. -1.
         21   -1    0    0  501  502 -0.00000000000E+00 -0.00000000000E+00 -0.42256401508E+03  0.42256401508E+03  0.00000000000E+00 0. -1.
         25    1    1    2    0    0  0.23377799514E+03 -0.42958297693E+03  0.10035968212E+03  0.51467538397E+03  0.12500000000E+03 0.  0.
         25    1    1    2    0    0 -0.29936489573E+03  0.38365138666E+03  0.11715964283E+03  0.51590610501E+03  0.12500000000E+03 0.  0.
         25    1    1    2    0    0  0.65586900590E+02  0.45931590265E+02  0.32757781544E+03  0.35964368156E+03  0.12500000000E+03 0.  0.
</event>
<event>
 5    0  0.5786117E-005  0.3545231E+03  0.7546771E-02  0.1060774E+00
         21   -1    0    0  502  501  0.00000000000E+00  0.00000000000E+00  0.10344521211E+04  0.10344521211E+04  0.00000000000E+00 0. -1.
         21   -1    0    0  501  502 -0.00000000000E+00 -0.00000000000E+00 -0.12150065812E+03  0.12150065812E+03  0.00000000000E+00 0. -1.
         25    1    1    2    0    0  0.63916669134E+02 -0.51494203763E+02  0.63213575552E+03  0.64958264064E+03  0.12500000000E+03 0.  0.
         25    1    1    2    0    0  0.91940982978E+02 -0.68842012592E+02  0.47059244144E+02  0.17615884737E+03  0.12500000000E+03 0.  0.
         25    1    1    2    0    0 -0.15585765211E+03  0.12033621636E+03  0.23375646329E+03  0.33021129117E+03  0.12500000000E+03 0.  0.
</event>
<event>
 5    0  0.5786117E-005  0.2514493E+03  0.7546771E-02  0.1112392E+00
         21   -1    0    0  502  501  0.00000000000E+00  0.00000000000E+00  0.22523757252E+03  0.22523757252E+03  0.00000000000E+00 0. -1.
         21   -1    0    0  501  502 -0.00000000000E+00 -0.00000000000E+00 -0.28071133746E+03  0.28071133746E+03  0.00000000000E+00 0. -1.
         25    1    1    2    0    0  0.55467848954E+02  0.71265855727E+02 -0.82498184682E+02  0.17488983657E+03  0.12500000000E+03 0.  0.
         25    1    1    2    0    0 -0.10248909151E+03 -0.97059974576E+02 -0.13785023805E+02  0.18904941001E+03  0.12500000000E+03 0.  0.
         25    1    1    2    0    0  0.47021242553E+02  0.25794118849E+02  0.40809443547E+02  0.14200966341E+03  0.12500000000E+03 0.  0.
</event>
<event>
 5    0  0.5786117E-005  0.2396355E+03  0.7546771E-02  0.1120036E+00
         21   -1    0    0  502  501  0.00000000000E+00  0.00000000000E+00  0.34443177137E+03  0.34443177137E+03  0.00000000000E+00 0.  1.
         21   -1    0    0  501  502 -0.00000000000E+00 -0.00000000000E+00 -0.16672442647E+03  0.16672442647E+03  0.00000000000E+00 0.  1.
         25    1    1    2    0    0  0.24601822201E+02 -0.65322534830E+02  0.13382131926E+03  0.19597303054E+03  0.12500000000E+03 0.  0.
         25    1    1    2    0    0 -0.81023115783E+02  0.38376174690E+02 -0.30551918854E+02  0.15683078722E+03  0.12500000000E+03 0.  0.
         25    1    1    2    0    0  0.56421293582E+02  0.26946360140E+02  0.74437944502E+02  0.15835238008E+03  0.12500000000E+03 0.  0.
</event>
<event>
 5    0  0.5786117E-005  0.5288789E+03  0.7546771E-02  0.1006504E+00
         21   -1    0    0  502  501  0.00000000000E+00  0.00000000000E+00  0.60238337876E+03  0.60238337876E+03  0.00000000000E+00 0.  1.
         21   -1    0    0  501  502 -0.00000000000E+00 -0.00000000000E+00 -0.46434365179E+03  0.46434365179E+03  0.00000000000E+00 0.  1.
         25    1    1    2    0    0  0.20438463165E+02  0.22502767989E+03  0.17581409520E+03  0.31239523615E+03  0.12500000000E+03 0.  0.
         25    1    1    2    0    0 -0.31190619209E+03 -0.24748762590E+03  0.60194969101E+02  0.42164443782E+03  0.12500000000E+03 0.  0.
         25    1    1    2    0    0  0.29146772893E+03  0.22459946007E+02 -0.97969337333E+02  0.33268735659E+03  0.12500000000E+03 0.  0.
</event>
<event>
 5    0  0.5786117E-005  0.4931325E+03  0.7546771E-02  0.1015587E+00
         21   -1    0    0  502  501  0.00000000000E+00  0.00000000000E+00  0.17770796875E+03  0.17770796875E+03  0.00000000000E+00 0. -1.
         21   -1    0    0  501  502 -0.00000000000E+00 -0.00000000000E+00 -0.13684232230E+04  0.13684232230E+04  0.00000000000E+00 0. -1.
         25    1    1    2    0    0 -0.24139896101E+02  0.22209730170E+03 -0.87155357565E+02  0.27042744380E+03  0.12500000000E+03 0.  0.
         25    1    1    2    0    0 -0.12304610695E+03 -0.33791075314E+03 -0.87798996349E+03  0.95698244368E+03  0.12500000000E+03 0.  0.
         25    1    1    2    0    0  0.14718600305E+03  0.11581345144E+03 -0.22556993315E+03  0.31872130423E+03  0.12500000000E+03 0.  0.
</event>
<event>
 5    0  0.5786117E-005  0.2122475E+03  0.7546771E-02  0.1139798E+00
         21   -1    0    0  502  501  0.00000000000E+00  0.00000000000E+00  0.17142689979E+02  0.17142689979E+02  0.00000000000E+00 0. -1.
         21   -1    0    0  501  502 -0.00000000000E+00 -0.00000000000E+00 -0.26278840358E+04  0.26278840358E+04  0.00000000000E+00 0. -1.
         25    1    1    2    0    0  0.78283003062E+01  0.38962208532E+02 -0.43942235081E+03  0.45858078718E+03  0.12500000000E+03 0.  0.
         25    1    1    2    0    0  0.68732951375E+01 -0.23035072077E+02 -0.12424020747E+04  0.12489058299E+04  0.12500000000E+03 0.  0.
         25    1    1    2    0    0 -0.14701595444E+02 -0.15927136455E+02 -0.92891692037E+03  0.93754010876E+03  0.12500000000E+03 0.  0.
</event>
<event>
 5    0  0.5786117E-005  0.2899196E+03  0.7546771E-02  0.1090391E+00
         21   -1    0    0  502  501  0.00000000000E+00  0.00000000000E+00  0.20092161754E+04  0.20092161754E+04  0.00000000000E+00 0. -1.
         21   -1    0    0  501  502 -0.00000000000E+00 -0.00000000000E+00 -0.41833903523E+02  0.41833903523E+02  0.00000000000E+00 0. -1.
         25    1    1    2    0    0  0.81020385067E+02 -0.67399345465E+02  0.11300024831E+04  0.11417694980E+04  0.12500000000E+03 0.  0.
         25    1    1    2    0    0 -0.76771144083E+01 -0.35316163198E+02  0.59331560267E+03  0.60741631016E+03  0.12500000000E+03 0.  0.
         25    1    1    2    0    0 -0.73343270659E+02  0.10271550866E+03  0.24406418605E+03  0.30186427080E+03  0.12500000000E+03 0.  0.
</event>
<event>
 5    0  0.5786117E-005  0.5768593E+03  0.7546771E-02  0.9954614E-01
         21   -1    0    0  502  501  0.00000000000E+00  0.00000000000E+00  0.40935863568E+03  0.40935863568E+03  0.00000000000E+00 0.  1.
         21   -1    0    0  501  502 -0.00000000000E+00 -0.00000000000E+00 -0.81289766351E+03  0.81289766351E+03  0.00000000000E+00 0.  1.
         25    1    1    2    0    0 -0.34199241896E+02 -0.30548956118E+02  0.37309393265E+02  0.13827442892E+03  0.12500000000E+03 0.  0.
         25    1    1    2    0    0  0.14844628818E+03 -0.10971572608E+03 -0.70550924925E+03  0.73989333136E+03  0.12500000000E+03 0.  0.
         25    1    1    2    0    0 -0.11424704628E+03  0.14026468219E+03  0.26466082815E+03  0.34408853891E+03  0.12500000000E+03 0.  0.
</event>
<event>
 5    0  0.5786117E-005  0.2759890E+03  0.7546771E-02  0.1097900E+00
         21   -1    0    0  502  501  0.00000000000E+00  0.00000000000E+00  0.63088319612E+02  0.63088319612E+02  0.00000000000E+00 0. -1.
         21   -1    0    0  501  502 -0.00000000000E+00 -0.00000000000E+00 -0.12073541334E+04  0.12073541334E+04  0.00000000000E+00 0. -1.
         25    1    1    2    0    0 -0.53576915519E+01  0.42184403698E+02 -0.18154932803E+03  0.22448471503E+03  0.12500000000E+03 0.  0.
         25    1    1    2    0    0  0.14850445225E+02 -0.31600930047E+02 -0.76080137073E+02  0.15044049242E+03  0.12500000000E+03 0.  0.
         25    1    1    2    0    0 -0.94927536736E+01 -0.10583473651E+02 -0.88663634872E+03  0.89551724560E+03  0.12500000000E+03 0.  0.
</event>
<event>
 5    0  0.5786117E-005  0.3445465E+03  0.7546771E-02  0.1064876E+00
         21   -1    0    0  502  501  0.00000000000E+00  0.00000000000E+00  0.22171619698E+04  0.22171619698E+04  0.00000000000E+00 0. -1.
         21   -1    0    0  501  502 -0.00000000000E+00 -0.00000000000E+00 -0.53542438669E+02  0.53542438669E+02  0.00000000000E+00 0. -1.
         25    1    1    2    0    0  0.21087803744E+03  0.10835398390E+03  0.10634173950E+04  0.10966730089E+04  0.12500000000E+03 0.  0.
         25    1    1    2    0    0 -0.45506922470E+01 -0.97511847737E+02  0.31724934069E+03  0.35468494952E+03  0.12500000000E+03 0.  0.
         25    1    1    2    0    0 -0.20632734519E+03 -0.10842136166E+02  0.78295279546E+03  0.81934645005E+03  0.12500000000E+03 0.  0.
</event>
<event>
 5    0  0.5786117E-005  0.2564063E+03  0.7546771E-02  0.1109322E+00
         21   -1    0    0  502  501  0.00000000000E+00  0.00000000000E+00  0.91703337592E+02  0.91703337592E+02  0.00000000000E+00 0.  1.
         21   -1    0    0  501  502 -0.00000000000E+00 -0.00000000000E+00 -0.71692236884E+03  0.71692236884E+03  0.00000000000E+00 0.  1.
         25    1    1    2    0    0 -0.90964963762E+02 -0.41474155115E+02 -0.29556739842E+03  0.33612470481E+03  0.12500000000E+03 0.  0.
         25    1    1    2    0    0  0.36192146231E+02 -0.82435278314E+02 -0.15653552818E+03  0.21962198921E+03  0.12500000000E+03 0.  0.
         25    1    1    2    0    0  0.54772817531E+02  0.12390943343E+03 -0.17311610465E+03  0.25287901242E+03  0.12500000000E+03 0.  0.
</event>
<event>
 5    0  0.5786117E-005  0.4095071E+03  0.7546771E-02  0.1040537E+00
         21   -1    0    0  502  501  0.00000000000E+00  0.00000000000E+00  0.60514899825E+03  0.60514899825E+03  0.00000000000E+00 0. -1.
         21   -1    0    0  501  502 -0.00000000000E+00 -0.00000000000E+00 -0.27711538215E+03  0.27711538215E+03  0.00000000000E+00 0. -1.
         25    1    1    2    0    0 -0.87466632909E+02  0.18535360633E+03 -0.12760785019E+03  0.27187337987E+03  0.12500000000E+03 0.  0.
         25    1    1    2    0    0  0.15359496503E+03 -0.37705341144E+02  0.21855465871E+03  0.29732851339E+03  0.12500000000E+03 0.  0.
         25    1    1    2    0    0 -0.66128332117E+02 -0.14764826518E+03  0.23708680758E+03  0.31306248713E+03  0.12500000000E+03 0.  0.
</event>
<event>
 5    0  0.5786117E-005  0.3316300E+03  0.7546771E-02  0.1070418E+00
         21   -1    0    0  502  501  0.00000000000E+00  0.00000000000E+00  0.25658519960E+03  0.25658519960E+03  0.00000000000E+00 0. -1.
         21   -1    0    0  501  502 -0.00000000000E+00 -0.00000000000E+00 -0.42862344515E+03  0.42862344515E+03  0.00000000000E+00 0. -1.
         25    1    1    2    0    0  0.79258867943E+02  0.16992845394E+02 -0.23180150332E+02  0.15077481325E+03  0.12500000000E+03 0.  0.
         25    1    1    2    0    0  0.63033814944E+02  0.10564114550E+03 -0.23472792163E+03  0.29301111009E+03  0.12500000000E+03 0.  0.
         25    1    1    2    0    0 -0.14229268289E+03 -0.12263399089E+03  0.85869826408E+02  0.24142272141E+03  0.12500000000E+03 0.  0.
</event>
<event>
 5    0  0.5786117E-005  0.2845609E+03  0.7546771E-02  0.1093224E+00
         21   -1    0    0  502  501  0.00000000000E+00  0.00000000000E+00  0.38061972805E+03  0.38061972805E+03  0.00000000000E+00 0.  1.
         21   -1    0    0  501  502 -0.00000000000E+00 -0.00000000000E+00 -0.21274486195E+03  0.21274486195E+03  0.00000000000E+00 0.  1.
         25    1    1    2    0    0 -0.52385044959E+02 -0.80549073480E+02  0.35433115419E+02  0.16159471477E+03  0.12500000000E+03 0.  0.
         25    1    1    2    0    0  0.36017978546E+02  0.19847592051E+03  0.91644091982E+02  0.25438872891E+03  0.12500000000E+03 0.  0.
         25    1    1    2    0    0  0.16367066413E+02 -0.11792684703E+03  0.40797658697E+02  0.17738114632E+03  0.12500000000E+03 0.  0.
</event>
<event>
 5    0  0.5786117E-005  0.3426918E+03  0.7546771E-02  0.1065655E+00
         21   -1    0    0  502  501  0.00000000000E+00  0.00000000000E+00  0.27461698146E+03  0.27461698146E+03  0.00000000000E+00 0.  1.
         21   -1    0    0  501  502 -0.00000000000E+00 -0.00000000000E+00 -0.42764166652E+03  0.42764166652E+03  0.00000000000E+00 0.  1.
         25    1    1    2    0    0 -0.94126943121E+02  0.10240343410E+03  0.22246886582E+02  0.18832490196E+03  0.12500000000E+03 0.  0.
         25    1    1    2    0    0  0.16870816136E+03  0.19642829052E+02 -0.23409744792E+03  0.31507919570E+03  0.12500000000E+03 0.  0.
         25    1    1    2    0    0 -0.74581218235E+02 -0.12204626315E+03  0.58825876276E+02  0.19885455032E+03  0.12500000000E+03 0.  0.
</event>
<event>
 5    0  0.5786117E-005  0.2844655E+03  0.7546771E-02  0.1093275E+00
         21   -1    0    0  502  501  0.00000000000E+00  0.00000000000E+00  0.90933801797E+03  0.90933801797E+03  0.00000000000E+00 0. -1.
         21   -1    0    0  501  502 -0.00000000000E+00 -0.00000000000E+00 -0.88988477356E+02  0.88988477356E+02  0.00000000000E+00 0. -1.
         25    1    1    2    0    0  0.12759714044E+03  0.80934618084E+02  0.12335954852E+03  0.23167654362E+03  0.12500000000E+03 0.  0.
         25    1    1    2    0    0 -0.12528499972E+03 -0.33436429498E+02  0.46806046853E+03  0.50151762498E+03  0.12500000000E+03 0.  0.
         25    1    1    2    0    0 -0.23121407115E+01 -0.47498188585E+02  0.22892952357E+03  0.26513232672E+03  0.12500000000E+03 0.  0.
</event>
<event>
 5    0  0.5786117E-005  0.2650639E+03  0.7546771E-02  0.1104138E+00
         21   -1    0    0  502  501  0.00000000000E+00  0.00000000000E+00  0.78701162744E+03  0.78701162744E+03  0.00000000000E+00 0. -1.
         21   -1    0    0  501  502 -0.00000000000E+00 -0.00000000000E+00 -0.89273002181E+02  0.89273002181E+02  0.00000000000E+00 0. -1.
         25    1    1    2    0    0 -0.31357682214E+01 -0.35815258008E+02  0.43816214872E+03  0.45705977106E+03  0.12500000000E+03 0.  0.
         25    1    1    2    0    0 -0.51195862354E+02  0.84498502725E+02  0.54851466046E+02  0.16850725982E+03  0.12500000000E+03 0.  0.
         25    1    1    2    0    0  0.54331630576E+02 -0.48683244716E+02  0.20472501049E+03  0.25071759874E+03  0.12500000000E+03 0.  0.
</event>
<event>
 5    0  0.5786117E-005  0.2635321E+03  0.7546771E-02  0.1105039E+00
         21   -1    0    0  502  501  0.00000000000E+00  0.00000000000E+00  0.60903442338E+03  0.60903442338E+03  0.00000000000E+00 0.  1.
         21   -1    0    0  501  502 -0.00000000000E+00 -0.00000000000E+00 -0.11403156223E+03  0.11403156223E+03  0.00000000000E+00 0.  1.
         25    1    1    2    0    0 -0.57891181150E+02 -0.37616513403E+02  0.67309042516E+02  0.15786671004E+03  0.12500000000E+03 0.  0.
         25    1    1    2    0    0  0.57560001079E+00  0.13841858153E+03  0.29557553634E+03  0.34949954608E+03  0.12500000000E+03 0.  0.
         25    1    1    2    0    0  0.57315581139E+02 -0.10080206813E+03  0.13211828230E+03  0.21569972948E+03  0.12500000000E+03 0.  0.
</event>
<event>
 5    0  0.5786117E-005  0.2618768E+03  0.7546771E-02  0.1106021E+00
         21   -1    0    0  502  501  0.00000000000E+00  0.00000000000E+00  0.84871091862E+03  0.84871091862E+03  0.00000000000E+00 0. -1.
         21   -1    0    0  501  502 -0.00000000000E+00 -0.00000000000E+00 -0.80804235222E+02  0.80804235222E+02  0.00000000000E+00 0. -1.
         25    1    1    2    0    0 -0.55530779749E+02 -0.89936745524E+01  0.46244533207E+03  0.48233312019E+03  0.12500000000E+03 0.  0.
         25    1    1    2    0    0  0.42351101080E+02 -0.94590076668E+02  0.13222409864E+03  0.20940179232E+03  0.12500000000E+03 0.  0.
         25    1    1    2    0    0  0.13179678668E+02  0.10358375122E+03  0.17323725270E+03  0.23778024133E+03  0.12500000000E+03 0.  0.
</event>
<event>
 5    0  0.5786117E-005  0.4238764E+03  0.7546771E-02  0.1035812E+00
         21   -1    0    0  502  501  0.00000000000E+00  0.00000000000E+00  0.70753093301E+02  0.70753093301E+02  0.00000000000E+00 0. -1.
         21   -1    0    0  501  502 -0.00000000000E+00 -0.00000000000E+00 -0.25394116032E+04  0.25394116032E+04  0.00000000000E+00 0. -1.
         25    1    1    2    0    0  0.22445874381E+03  0.42510016427E+02 -0.41374085939E+03  0.48887148403E+03  0.12500000000E+03 0.  0.
         25    1    1    2    0    0  0.50050225056E+02 -0.53061980367E+02 -0.23114058420E+03  0.27271151141E+03  0.12500000000E+03 0.  0.
         25    1    1    2    0    0 -0.27450896886E+03  0.10551963940E+02 -0.18237770663E+04  0.18485817011E+04  0.12500000000E+03 0.  0.
</event>
<event>
 5    0  0.5786117E-005  0.4631901E+03  0.7546771E-02  0.1023860E+00
         21   -1    0    0  502  501  0.00000000000E+00  0.00000000000E+00  0.21680555531E+03  0.21680555531E+03  0.00000000000E+00 0. -1.
         21   -1    0    0  501  502 -0.00000000000E+00 -0.00000000000E+00 -0.98957349553E+03  0.98957349553E+03  0.00000000000E+00 0. -1.
         25    1    1    2    0    0 -0.15956442805E+03 -0.25445077787E+03 -0.16556390663E+03  0.36502385160E+03  0.12500000000E+03 0.  0.
         25    1    1    2    0    0 -0.23137276105E+01 -0.71201161891E+02 -0.35081381565E+03  0.37917053161E+03  0.12500000000E+03 0.  0.
         25    1    1    2    0    0  0.16187815566E+03  0.32565193976E+03 -0.25639021793E+03  0.46218466764E+03  0.12500000000E+03 0.  0.
</event>
<event>
 5    0  0.5786117E-005  0.2125452E+03  0.7546771E-02  0.1139566E+00
         21   -1    0    0  502  501  0.00000000000E+00  0.00000000000E+00  0.21237699434E+03  0.21237699434E+03  0.00000000000E+00 0. -1.
         21   -1    0    0  501  502 -0.00000000000E+00 -0.00000000000E+00 -0.21271347220E+03  0.21271347220E+03  0.00000000000E+00 0. -1.
         25    1    1    2    0    0  0.37257855789E+01  0.11389114084E+02 -0.44909388943E+01  0.12565334031E+03  0.12500000000E+03 0.  0.
         25    1    1    2    0    0 -0.28889187678E+02 -0.71984383241E+00 -0.75357428208E+02  0.14879128108E+03  0.12500000000E+03 0.  0.
         25    1    1    2    0    0  0.25163402099E+02 -0.10669270252E+02  0.79511889237E+02  0.15064584516E+03  0.12500000000E+03 0.  0.
</event>
<event>
 5    0  0.5786117E-005  0.2645347E+03  0.7546771E-02  0.1104449E+00
         21   -1    0    0  502  501  0.00000000000E+00  0.00000000000E+00  0.40255202765E+03  0.40255202765E+03  0.00000000000E+00 0. -1.
         21   -1    0    0  501  502 -0.00000000000E+00 -0.00000000000E+00 -0.17383745431E+03  0.17383745431E+03  0.00000000000E+00 0. -1.
         25    1    1    2    0    0  0.13004366147E+03 -0.60879950581E+02  0.57093557116E+02  0.19875209819E+03  0.12500000000E+03 0.  0.
         25    1    1    2    0    0 -0.12817987825E+03  0.41318317271E+02  0.27401617627E+02  0.18577710618E+03  0.12500000000E+03 0.  0.
         25    1    1    2    0    0 -0.18637832180E+01  0.19561633310E+02  0.14421939860E+03  0.19186027760E+03  0.12500000000E+03 0.  0.
</event>
<event>
 5    0  0.5786117E-005  0.3484825E+03  0.7546771E-02  0.1063240E+00
         21   -1    0    0  502  501  0.00000000000E+00  0.00000000000E+00  0.25176527942E+03  0.25176527942E+03  0.00000000000E+00 0. -1.
         21   -1    0    0  501  502 -0.00000000000E+00 -0.00000000000E+00 -0.48235438861E+03  0.48235438861E+03  0.00000000000E+00 0. -1.
         25    1    1    2    0    0  0.10732231359E+03 -0.76457019652E+02  0.68292746786E+02  0.19404291822E+03  0.12500000000E+03 0.  0.
         25    1    1    2    0    0  0.17287811272E+02  0.38277698089E+02  0.54925330796E+02  0.14284902013E+03  0.12500000000E+03 0.  0.
         25    1    1    2    0    0 -0.12461012486E+03  0.38179321563E+02 -0.35380718677E+03  0.39722772968E+03  0.12500000000E+03 0.  0.
</event>
<event>
 5    0  0.5786117E-005  0.3728780E+03  0.7546771E-02  0.1053598E+00
         21   -1    0    0  502  501  0.00000000000E+00  0.00000000000E+00  0.15507072235E+03  0.15507072235E+03  0.00000000000E+00 0.  1.
         21   -1    0    0  501  502 -0.00000000000E+00 -0.00000000000E+00 -0.89661026515E+03  0.89661026515E+03  0.00000000000E+00 0.  1.
         25    1    1    2    0    0 -0.59020634840E+01 -0.14278619346E+03 -0.20869248187E+03  0.28213522181E+03  0.12500000000E+03 0.  0.
         25    1    1    2    0    0  0.32132826939E+02  0.23504393534E+03 -0.65046149475E+02  0.27592421364E+03  0.12500000000E+03 0.  0.
         25    1    1    2    0    0 -0.26230763455E+02 -0.92257741879E+02 -0.46780091146E+03  0.49362155205E+03  0.12500000000E+03 0.  0.
</event>
<event>
 5    0  0.5786117E-005  0.4037452E+03  0.7546771E-02  0.1042491E+00
         21   -1    0    0  502  501  0.00000000000E+00  0.00000000000E+00  0.27980509396E+03  0.27980509396E+03  0.00000000000E+00 0.  1.
         21   -1    0    0  501  502 -0.00000000000E+00 -0.00000000000E+00 -0.58258468738E+03  0.58258468738E+03  0.00000000000E+00 0.  1.
         25    1    1    2    0    0  0.11683317416E+03  0.11467814391E+03 -0.96227595898E+02  0.22734515057E+03  0.12500000000E+03 0.  0.
         25    1    1    2    0    0  0.10019593082E+03 -0.23664715902E+03  0.40835843268E+01  0.28580199105E+03  0.12500000000E+03 0.  0.
         25    1    1    2    0    0 -0.21702910498E+03  0.12196901511E+03 -0.21063558185E+03  0.34924263972E+03  0.12500000000E+03 0.  0.
</event>
<event>
 5    0  0.5786117E-005  0.2901898E+03  0.7546771E-02  0.1090250E+00
         21   -1    0    0  502  501  0.00000000000E+00  0.00000000000E+00  0.18782252620E+03  0.18782252620E+03  0.00000000000E+00 0. -1.
         21   -1    0    0  501  502 -0.00000000000E+00 -0.00000000000E+00 -0.44834936579E+03  0.44834936579E+03  0.00000000000E+00 0. -1.
         25    1    1    2    0    0 -0.22741545096E+02  0.30459823705E+02 -0.16510649663E+03  0.21054722502E+03  0.12500000000E+03 0.  0.
         25    1    1    2    0    0 -0.54587562376E+02 -0.13914311258E+03 -0.13695291444E+03  0.23816319724E+03  0.12500000000E+03 0.  0.
         25    1    1    2    0    0  0.77329107472E+02  0.10868328887E+03  0.41532571483E+02  0.18746146974E+03  0.12500000000E+03 0.  0.
</event>
<event>
 5    0  0.5786117E-005  0.2587174E+03  0.7546771E-02  0.1107916E+00
         21   -1    0    0  502  501  0.00000000000E+00  0.00000000000E+00  0.27690912488E+03  0.27690912488E+03  0.00000000000E+00 0.  1.
         21   -1    0    0  501  502 -0.00000000000E+00 -0.00000000000E+00 -0.24172085502E+03  0.24172085502E+03  0.00000000000E+00 0.  1.
         25    1    1    2    0    0  0.63971043756E+02 -0.64347336483E+02 -0.40374377746E+02  0.15964950526E+03  0.12500000000E+03 0.  0.
         25    1    1    2    0    0  0.22710386440E+02 -0.15183944034E+02  0.12650508613E+03  0.17993012706E+03  0.12500000000E+03 0.  0.
         25    1    1    2    0    0 -0.86681430196E+02  0.79531280517E+02 -0.50942438522E+02  0.17905034757E+03  0.12500000000E+03 0.  0.
</event>
<event>
 5    0  0.6432507E-005  0.3416275E+03  0.7546771E-02  0.1066105E+00
         21   -1    0    0  502  501  0.00000000000E+00  0.00000000000E+00  0.53237109079E+03  0.53237109079E+03  0.00000000000E+00 0. -1.
         21   -1    0    0  501  502 -0.00000000000E+00 -0.00000000000E+00 -0.21922558858E+03  0.21922558858E+03  0.00000000000E+00 0. -1.
         25    1    1    2    0    0  0.12300270989E+03 -0.11013098177E+03 -0.73353370271E+02  0.21969118489E+03  0.12500000000E+03 0.  0.
         25    1    1    2    0    0 -0.12500552791E+03 -0.18763965204E+02  0.13664897217E+03  0.22422401743E+03  0.12500000000E+03 0.  0.
         25    1    1    2    0    0  0.20028180228E+01  0.12889494698E+03  0.24984990031E+03  0.30768147705E+03  0.12500000000E+03 0.  0.
</event>
<event>
 5    0  0.5786117E-005  0.4757541E+03  0.7546771E-02  0.1020309E+00
         21   -1    0    0  502  501  0.00000000000E+00  0.00000000000E+00  0.51861899684E+03  0.51861899684E+03  0.00000000000E+00 0. -1.
         21   -1    0    0  501  502 -0.00000000000E+00 -0.00000000000E+00 -0.43643203571E+03  0.43643203571E+03  0.00000000000E+00 0. -1.
         25    1    1    2    0    0  0.11727997272E+03 -0.39097688505E+02  0.35951825545E+03  0.40020194559E+03  0.12500000000E+03 0.  0.
         25    1    1    2    0    0 -0.21155486909E+03  0.53612965091E+02 -0.18735403250E+02  0.25220195875E+03  0.12500000000E+03 0.  0.
         25    1    1    2    0    0  0.94274896375E+02 -0.14515276587E+02 -0.25859589107E+03  0.30264712822E+03  0.12500000000E+03 0.  0.
</event>
<event>
 5    0  0.5786117E-005  0.3917981E+03  0.7546771E-02  0.1046657E+00
         21   -1    0    0  502  501  0.00000000000E+00  0.00000000000E+00  0.43541481510E+03  0.43541481510E+03  0.00000000000E+00 0.  1.
         21   -1    0    0  501  502 -0.00000000000E+00 -0.00000000000E+00 -0.35255057780E+03  0.35255057780E+03  0.00000000000E+00 0.  1.
         25    1    1    2    0    0  0.20086782805E+03  0.12153185393E+03 -0.11710384291E+03  0.29061346474E+03  0.12500000000E+03 0.  0.
         25    1    1    2    0    0  0.49034744463E+02 -0.42567256644E+02  0.14438755059E+03  0.20171549834E+03  0.12500000000E+03 0.  0.
         25    1    1    2    0    0 -0.24990257251E+03 -0.78964597285E+02  0.55580529616E+02  0.29563642983E+03  0.12500000000E+03 0.  0.
</event>
<event>
 5    0  0.5786117E-005  0.3163855E+03  0.7546771E-02  0.1077325E+00
         21   -1    0    0  502  501  0.00000000000E+00  0.00000000000E+00  0.39603043208E+02  0.39603043208E+02  0.00000000000E+00 0. -1.
         21   -1    0    0  501  502 -0.00000000000E+00 -0.00000000000E+00 -0.25275778572E+04  0.25275778572E+04  0.00000000000E+00 0. -1.
         25    1    1    2    0    0  0.14035056950E+03  0.20077007028E+02 -0.69509847704E+03  0.72033899058E+03  0.12500000000E+03 0.  0.
         25    1    1    2    0    0 -0.83675424048E+02 -0.16989613628E+03 -0.11655100572E+04  0.11873941920E+04  0.12500000000E+03 0.  0.
         25    1    1    2    0    0 -0.56675145454E+02  0.14981912925E+03 -0.62736627979E+03  0.65944771788E+03  0.12500000000E+03 0.  0.
</event>
<event>
 5    0  0.5786117E-005  0.3670363E+03  0.7546771E-02  0.1055832E+00
         21   -1    0    0  502  501  0.00000000000E+00  0.00000000000E+00  0.58973501291E+03  0.58973501291E+03  0.00000000000E+00 0.  1.
         21   -1    0    0  501  502 -0.00000000000E+00 -0.00000000000E+00 -0.22843425509E+03  0.22843425509E+03  0.00000000000E+00 0.  1.
         25    1    1    2    0    0 -0.18954452354E+02 -0.11201609347E+03 -0.16699525703E+02  0.16973729885E+03  0.12500000000E+03 0.  0.
         25    1    1    2    0    0 -0.11872675037E+03 -0.49849833026E+02 -0.19674509845E+02  0.18053568468E+03  0.12500000000E+03 0.  0.
         25    1    1    2    0    0  0.13768120272E+03  0.16186592650E+03  0.39767479337E+03  0.46789628447E+03  0.12500000000E+03 0.  0.
</event>
<event>
 5    0  0.5786117E-005  0.2686767E+03  0.7546771E-02  0.1102039E+00
         21   -1    0    0  502  501  0.00000000000E+00  0.00000000000E+00  0.13370473803E+03  0.13370473803E+03  0.00000000000E+00 0. -1.
         21   -1    0    0  501  502 -0.00000000000E+00 -0.00000000000E+00 -0.53989971785E+03  0.53989971785E+03  0.00000000000E+00 0. -1.
         25    1    1    2    0    0  0.16333530574E+02  0.63807134322E+02 -0.63582801108E+02  0.15493839811E+03  0.12500000000E+03 0.  0.
         25    1    1    2    0    0 -0.95388887657E+02  0.45935521182E+02 -0.27953113090E+03  0.32399346465E+03  0.12500000000E+03 0.  0.
         25    1    1    2    0    0  0.79055357083E+02 -0.10974265550E+03 -0.63081047805E+02  0.19467259312E+03  0.12500000000E+03 0.  0.
</event>
<event>
 5    0  0.5786117E-005  0.2842695E+03  0.7546771E-02  0.1093380E+00
         21   -1    0    0  502  501  0.00000000000E+00  0.00000000000E+00  0.27112402207E+04  0.27112402207E+04  0.00000000000E+00 0. -1.
         21   -1    0    0  501  502 -0.00000000000E+00 -0.00000000000E+00 -0.29805229952E+02  0.29805229952E+02  0.00000000000E+00 0. -1.
         25    1    1    2    0    0  0.73047267046E+02  0.11312746153E+03  0.98852600580E+03  0.10054563093E+04  0.12500000000E+03 0.  0.
         25    1    1    2    0    0 -0.13218564225E+03 -0.11061941956E+03  0.13352581928E+04  0.13521276351E+04  0.12500000000E+03 0.  0.
         25    1    1    2    0    0  0.59138375199E+02 -0.25080419622E+01  0.35765079212E+03  0.38346150628E+03  0.12500000000E+03 0.  0.
</event>
<event>
 5    0  0.5786117E-005  0.2946703E+03  0.7546771E-02  0.1087936E+00
         21   -1    0    0  502  501  0.00000000000E+00  0.00000000000E+00  0.13033366080E+03  0.13033366080E+03  0.00000000000E+00 0. -1.
         21   -1    0    0  501  502 -0.00000000000E+00 -0.00000000000E+00 -0.66621759333E+03  0.66621759333E+03  0.00000000000E+00 0. -1.
         25    1    1    2    0    0  0.20177948811E+03  0.58205720454E+02 -0.22220953344E+03  0.33031037596E+03  0.12500000000E+03 0.  0.
         25    1    1    2    0    0 -0.33786712251E+02 -0.86934604360E+01 -0.11848137839E+03  0.17572693363E+03  0.12500000000E+03 0.  0.
         25    1    1    2    0    0 -0.16799277586E+03 -0.49512260018E+02 -0.19519302071E+03  0.29051394453E+03  0.12500000000E+03 0.  0.
</event>
<event>
 5    0  0.5786117E-005  0.2794278E+03  0.7546771E-02  0.1096002E+00
         21   -1    0    0  502  501  0.00000000000E+00  0.00000000000E+00  0.12520497347E+04  0.12520497347E+04  0.00000000000E+00 0.  1.
         21   -1    0    0  501  502 -0.00000000000E+00 -0.00000000000E+00 -0.62361663204E+02  0.62361663204E+02  0.00000000000E+00 0.  1.
         25    1    1    2    0    0 -0.69512258663E+02 -0.21108101922E+02  0.82542829638E+03  0.83799425925E+03  0.12500000000E+03 0.  0.
         25    1    1    2    0    0 -0.29254339302E+02  0.60898197608E+02  0.15223229993E+03  0.20824043791E+03  0.12500000000E+03 0.  0.
         25    1    1    2    0    0  0.98766597966E+02 -0.39790095686E+02  0.21202747519E+03  0.26817670075E+03  0.12500000000E+03 0.  0.
</event>
<event>
 5    0  0.5786117E-005  0.2849909E+03  0.7546771E-02  0.1092994E+00
         21   -1    0    0  502  501  0.00000000000E+00  0.00000000000E+00  0.11481470183E+04  0.11481470183E+04  0.00000000000E+00 0.  1.
         21   -1    0    0  501  502 -0.00000000000E+00 -0.00000000000E+00 -0.70739893722E+02  0.70739893722E+02  0.00000000000E+00 0.  1.
         25    1    1    2    0    0 -0.31025492064E+02 -0.11738054597E+03  0.35272575379E+03  0.39342245883E+03  0.12500000000E+03 0.  0.
         25    1    1    2    0    0  0.16563978131E+02 -0.88103387304E+02  0.26268042532E+03  0.30440528588E+03  0.12500000000E+03 0.  0.
         25    1    1    2    0    0  0.14461513933E+02  0.20548393327E+03  0.46200094544E+03  0.52105916728E+03  0.12500000000E+03 0.  0.
</event>
<event>
 5    0  0.5786117E-005  0.4181376E+03  0.7546771E-02  0.1037674E+00
         21   -1    0    0  502  501  0.00000000000E+00  0.00000000000E+00  0.96647571667E+03  0.96647571667E+03  0.00000000000E+00 0. -1.
         21   -1    0    0  501  502 -0.00000000000E+00 -0.00000000000E+00 -0.18090375404E+03  0.18090375404E+03  0.00000000000E+00 0. -1.
         25    1    1    2    0    0 -0.22243118092E+03 -0.18429508986E+03  0.69313455325E+02  0.32228817149E+03  0.12500000000E+03 0.  0.
         25    1    1    2    0    0  0.14639253410E+03  0.17705218341E+03  0.49267499551E+03  0.55779198711E+03  0.12500000000E+03 0.  0.
         25    1    1    2    0    0  0.76038646817E+02  0.72429064589E+01  0.22358351180E+03  0.26729931211E+03  0.12500000000E+03 0.  0.
</event>
<event>
 5    0  0.5786117E-005  0.3179574E+03  0.7546771E-02  0.1076593E+00
         21   -1    0    0  502  501  0.00000000000E+00  0.00000000000E+00  0.64855665558E+02  0.64855665558E+02  0.00000000000E+00 0.  1.
         21   -1    0    0  501  502 -0.00000000000E+00 -0.00000000000E+00 -0.15587981351E+04  0.15587981351E+04  0.00000000000E+00 0.  1.
         25    1    1    2    0    0  0.17734760329E+03  0.72341080396E+02 -0.44481329158E+03  0.50016924003E+03  0.12500000000E+03 0.  0.
         25    1    1    2    0    0 -0.23571556892E+01 -0.11753390154E+03 -0.59051984357E+03  0.61494589993E+03  0.12500000000E+03 0.  0.
         25    1    1    2    0    0 -0.17499044760E+03  0.45192821146E+02 -0.45860933444E+03  0.50853866074E+03  0.12500000000E+03 0.  0.
</event>
<event>
 5    0  0.5786117E-005  0.2574469E+03  0.7546771E-02  0.1108687E+00
         21   -1    0    0  502  501  0.00000000000E+00  0.00000000000E+00  0.48734779025E+03  0.48734779025E+03  0.00000000000E+00 0.  1.
         21   -1    0    0  501  502 -0.00000000000E+00 -0.00000000000E+00 -0.13599916782E+03  0.13599916782E+03  0.00000000000E+00 0.  1.
         25    1    1    2    0    0 -0.36345777676E+02  0.12798101487E+03  0.19820713074E+03  0.26946469601E+03  0.12500000000E+03 0.  0.
         25    1    1    2    0    0  0.74232055139E+02 -0.28368547682E+02  0.36902650846E+02  0.15264985472E+03  0.12500000000E+03 0.  0.
         25    1    1    2    0    0 -0.37886277463E+02 -0.99612467186E+02  0.11623884084E+03  0.20123240733E+03  0.12500000000E+03 0.  0.
</event>
<event>
 5    0  0.5786117E-005  0.3606970E+03  0.7546771E-02  0.1058308E+00
         21   -1    0    0  502  501  0.00000000000E+00  0.00000000000E+00  0.12184109578E+04  0.12184109578E+04  0.00000000000E+00 0. -1.
         21   -1    0    0  501  502 -0.00000000000E+00 -0.00000000000E+00 -0.10678034191E+03  0.10678034191E+03  0.00000000000E+00 0. -1.
         25    1    1    2    0    0  0.10597232791E+03 -0.51443129942E+01 -0.28666696731E+01  0.16398114536E+03  0.12500000000E+03 0.  0.
         25    1    1    2    0    0 -0.11022399287E+03  0.66366014899E+02  0.74640469985E+03  0.76765796583E+03  0.12500000000E+03 0.  0.
         25    1    1    2    0    0  0.42516649605E+01 -0.61221701905E+02  0.36809258576E+03  0.39355218857E+03  0.12500000000E+03 0.  0.
</event>
<event>
 5    0  0.5786117E-005  0.3039408E+03  0.7546771E-02  0.1083287E+00
         21   -1    0    0  502  501  0.00000000000E+00  0.00000000000E+00  0.31331835214E+03  0.31331835214E+03  0.00000000000E+00 0. -1.
         21   -1    0    0  501  502 -0.00000000000E+00 -0.00000000000E+00 -0.29484397526E+03  0.29484397526E+03  0.00000000000E+00 0. -1.
         25    1    1    2    0    0 -0.94532846865E+01 -0.86548330687E+01  0.14983717443E+03  0.19555165448E+03  0.12500000000E+03 0.  0.
         25    1    1    2    0    0 -0.10198461841E+02 -0.14336015859E+03 -0.39486883424E+02  0.19452598196E+03  0.12500000000E+03 0.  0.
         25    1    1    2    0    0  0.19651746527E+02  0.15201499166E+03 -0.91875914128E+02  0.21808469095E+03  0.12500000000E+03 0.  0.
</event>
<event>
 5    0  0.5786117E-005  0.2729725E+03  0.7546771E-02  0.1099590E+00
         21   -1    0    0  502  501  0.00000000000E+00  0.00000000000E+00  0.76903313490E+02  0.76903313490E+02  0.00000000000E+00 0.  1.
         21   -1    0    0  501  502 -0.00000000000E+00 -0.00000000000E+00 -0.96893099573E+03  0.96893099573E+03  0.00000000000E+00 0.  1.
         25    1    1    2    0    0 -0.24867323352E+02  0.72758837521E+02 -0.53177497382E+03  0.55165374556E+03  0.12500000000E+03 0.  0.
         25    1    1    2    0    0 -0.39648478432E+02 -0.77595369208E+02 -0.30875031781E+03  0.34430335739E+03  0.12500000000E+03 0.  0.
         25    1    1    2    0    0  0.64515801784E+02  0.48365316870E+01 -0.51502390601E+02  0.14987720626E+03  0.12500000000E+03 0.  0.
</event>
<event>
 5    0  0.5786117E-005  0.3650585E+03  0.7546771E-02  0.1056599E+00
         21   -1    0    0  502  501  0.00000000000E+00  0.00000000000E+00  0.20176824929E+03  0.20176824929E+03  0.00000000000E+00 0.  1.
         21   -1    0    0  501  502 -0.00000000000E+00 -0.00000000000E+00 -0.66049903786E+03  0.66049903786E+03  0.00000000000E+00 0.  1.
         25    1    1    2    0    0  0.47360643544E+01 -0.56401043232E+02  0.99475977195E+02  0.16948149758E+03  0.12500000000E+03 0.  0.
         25    1    1    2    0    0 -0.12735144628E+03  0.12746612079E+03 -0.26516759012E+03  0.34410006346E+03  0.12500000000E+03 0.  0.
         25    1    1    2    0    0  0.12261538193E+03 -0.71065077561E+02 -0.29303917564E+03  0.34868572611E+03  0.12500000000E+03 0.  0.
</event>
<event>
 5    0  0.5786117E-005  0.3405475E+03  0.7546771E-02  0.1066563E+00
         21   -1    0    0  502  501  0.00000000000E+00  0.00000000000E+00  0.61238625347E+02  0.61238625347E+02  0.00000000000E+00 0.  1.
         21   -1    0    0  501  502 -0.00000000000E+00 -0.00000000000E+00 -0.18937822757E+04  0.18937822757E+04  0.00000000000E+00 0.  1.
         25    1    1    2    0    0 -0.91451071414E+02  0.74912919826E+02 -0.28460933781E+03  0.33256987114E+03  0.12500000000E+03 0.  0.
         25    1    1    2    0    0  0.22454076210E+03  0.50474855067E+02 -0.92238266533E+03  0.95884359837E+03  0.12500000000E+03 0.  0.
         25    1    1    2    0    0 -0.13308969069E+03 -0.12538777489E+03 -0.62555164720E+03  0.66360743152E+03  0.12500000000E+03 0.  0.
</event>
<event>
 5    0  0.5786117E-005  0.6556995E+03  0.7546771E-02  0.9796143E-01
         21   -1    0    0  502  501  0.00000000000E+00  0.00000000000E+00  0.49948947237E+03  0.49948947237E+03  0.00000000000E+00 0. -1.
         21   -1    0    0  501  502 -0.00000000000E+00 -0.00000000000E+00 -0.86076248968E+03  0.86076248968E+03  0.00000000000E+00 0. -1.
         25    1    1    2    0    0 -0.24578610896E+03 -0.12270024244E+03  0.51762727076E+02  0.30621975894E+03  0.12500000000E+03 0.  0.
         25    1    1    2    0    0  0.54906887797E+03 -0.76128843912E+02 -0.34408562457E+03  0.66429823925E+03  0.12500000000E+03 0.  0.
         25    1    1    2    0    0 -0.30328276901E+03  0.19882908635E+03 -0.68950119818E+02  0.38973396386E+03  0.12500000000E+03 0.  0.
</event>
<event>
 5    0  0.5786117E-005  0.3023265E+03  0.7546771E-02  0.1084083E+00
         21   -1    0    0  502  501  0.00000000000E+00  0.00000000000E+00  0.11731944873E+03  0.11731944873E+03  0.00000000000E+00 0. -1.
         21   -1    0    0  501  502 -0.00000000000E+00 -0.00000000000E+00 -0.77908042021E+03  0.77908042021E+03  0.00000000000E+00 0. -1.
         25    1    1    2    0    0 -0.17841104888E+03  0.76248113343E+02 -0.19210172959E+03  0.30028711537E+03  0.12500000000E+03 0.  0.
         25    1    1    2    0    0  0.16076091278E+03 -0.68411608360E+02 -0.18081958404E+03  0.28079341376E+03  0.12500000000E+03 0.  0.
         25    1    1    2    0    0  0.17650136097E+02 -0.78365049832E+01 -0.28883965785E+03  0.31531933981E+03  0.12500000000E+03 0.  0.
</event>
<event>
 5    0  0.5786117E-005  0.2950440E+03  0.7546771E-02  0.1087745E+00
         21   -1    0    0  502  501  0.00000000000E+00  0.00000000000E+00  0.16260301241E+03  0.16260301241E+03  0.00000000000E+00 0.  1.
         21   -1    0    0  501  502 -0.00000000000E+00 -0.00000000000E+00 -0.53535872480E+03  0.53535872480E+03  0.00000000000E+00 0.  1.
         25    1    1    2    0    0 -0.62735303203E+02  0.11761372944E+03 -0.84243167556E+02  0.20122280910E+03  0.12500000000E+03 0.  0.
         25    1    1    2    0    0  0.12803417352E+03  0.43169153292E+02 -0.89812237160E+02  0.20481104298E+03  0.12500000000E+03 0.  0.
         25    1    1    2    0    0 -0.65298870312E+02 -0.16078288273E+03 -0.19870030768E+03  0.29192788513E+03  0.12500000000E+03 0.  0.
</event>
<event>
 5    0  0.5786117E-005  0.2187410E+03  0.7546771E-02  0.1134825E+00
         21   -1    0    0  502  501  0.00000000000E+00  0.00000000000E+00  0.18442678279E+04  0.18442678279E+04  0.00000000000E+00 0. -1.
         21   -1    0    0  501  502 -0.00000000000E+00 -0.00000000000E+00 -0.25943956814E+02  0.25943956814E+02  0.00000000000E+00 0. -1.
         25    1    1    2    0    0 -0.30962683894E+02  0.53226761397E+02  0.51653378803E+03  0.53499900009E+03  0.12500000000E+03 0.  0.
         25    1    1    2    0    0 -0.25365246951E+02  0.34039382160E+02  0.66780798356E+03  0.68073091467E+03  0.12500000000E+03 0.  0.
         25    1    1    2    0    0  0.56327930845E+02 -0.87266143557E+02  0.63398209946E+03  0.65448186991E+03  0.12500000000E+03 0.  0.
</event>
<event>
 5    0  0.5786117E-005  0.4498136E+03  0.7546771E-02  0.1027778E+00
         21   -1    0    0  502  501  0.00000000000E+00  0.00000000000E+00  0.51896959949E+03  0.51896959949E+03  0.00000000000E+00 0. -1.
         21   -1    0    0  501  502 -0.00000000000E+00 -0.00000000000E+00 -0.38987300260E+03  0.38987300260E+03  0.00000000000E+00 0. -1.
         25    1    1    2    0    0 -0.25493937470E+02 -0.88353057287E+02  0.43725200274E+03  0.46397253958E+03  0.12500000000E+03 0.  0.
         25    1    1    2    0    0  0.20107755115E+02  0.75861658031E+02 -0.27924480887E+03  0.31585119322E+03  0.12500000000E+03 0.  0.
         25    1    1    2    0    0  0.53861823551E+01  0.12491399256E+02 -0.28910596985E+02  0.12901886929E+03  0.12500000000E+03 0.  0.
</event>
<event>
 5    0  0.5786117E-005  0.2356597E+03  0.7546771E-02  0.1122718E+00
         21   -1    0    0  502  501  0.00000000000E+00  0.00000000000E+00  0.38185291598E+02  0.38185291598E+02  0.00000000000E+00 0. -1.
         21   -1    0    0  501  502 -0.00000000000E+00 -0.00000000000E+00 -0.14543682113E+04  0.14543682113E+04  0.00000000000E+00 0. -1.
         25    1    1    2    0    0 -0.43754484388E+02  0.46298869506E+02 -0.43096841632E+03  0.45322931954E+03  0.12500000000E+03 0.  0.
         25    1    1    2    0    0  0.44633379447E+02  0.64399294263E+02 -0.30345833409E+03  0.33741868382E+03  0.12500000000E+03 0.  0.
         25    1    1    2    0    0 -0.87889505945E+00 -0.11069816377E+03 -0.68175616929E+03  0.70190549954E+03  0.12500000000E+03 0.  0.
</event>
<event>
 5    0  0.5786117E-005  0.2153629E+03  0.7546771E-02  0.1137388E+00
         21   -1    0    0  502  501  0.00000000000E+00  0.00000000000E+00  0.46714165039E+02  0.46714165039E+02  0.00000000000E+00 0.  1.
         21   -1    0    0  501  502 -0.00000000000E+00 -0.00000000000E+00 -0.99287178943E+03  0.99287178943E+03  0.00000000000E+00 0.  1.
         25    1    1    2    0    0  0.85910967899E+02 -0.46339892446E+02 -0.32378000490E+03  0.36053650524E+03  0.12500000000E+03 0.  0.
         25    1    1    2    0    0 -0.46041213953E+02  0.42116479915E+01 -0.32658658541E+03  0.35273407707E+03  0.12500000000E+03 0.  0.
         25    1    1    2    0    0 -0.39869753946E+02  0.42128244454E+02 -0.29579103408E+03  0.32631537215E+03  0.12500000000E+03 0.  0.
</event>
<event>
 5    0  0.5786117E-005  0.2471144E+03  0.7546771E-02  0.1115142E+00
         21   -1    0    0  502  501  0.00000000000E+00  0.00000000000E+00  0.51065799781E+02  0.51065799781E+02  0.00000000000E+00 0.  1.
         21   -1    0    0  501  502 -0.00000000000E+00 -0.00000000000E+00 -0.11958206218E+04  0.11958206218E+04  0.00000000000E+00 0.  1.
         25    1    1    2    0    0 -0.98766904862E+02  0.50965196794E+02 -0.48956110011E+03  0.51734652171E+03  0.12500000000E+03 0.  0.
         25    1    1    2    0    0  0.60979464301E+02 -0.70023847118E+02 -0.18824775435E+03  0.24430319533E+03  0.12500000000E+03 0.  0.
         25    1    1    2    0    0  0.37787440561E+02  0.19058650324E+02 -0.46694596754E+03  0.48523670453E+03  0.12500000000E+03 0.  0.
</event>
<event>
 5    0  0.5786117E-005  0.2086209E+03  0.7546771E-02  0.1142663E+00
         21   -1    0    0  502  501  0.00000000000E+00  0.00000000000E+00  0.11410906896E+03  0.11410906896E+03  0.00000000000E+00 0. -1.
         21   -1    0    0  501  502 -0.00000000000E+00 -0.00000000000E+00 -0.38141313613E+03  0.38141313613E+03  0.00000000000E+00 0. -1.
         25    1    1    2    0    0 -0.91744949895E+01 -0.10797191753E+02 -0.97142709862E+02  0.15894167731E+03  0.12500000000E+03 0.  0.
         25    1    1    2    0    0 -0.60595577418E+02 -0.24614502100E+02 -0.64239009944E+02  0.15501402554E+03  0.12500000000E+03 0.  0.
         25    1    1    2    0    0  0.69770072407E+02  0.35411693853E+02 -0.10592234736E+03  0.18156650224E+03  0.12500000000E+03 0.  0.
</event>
<event>
 5    0  0.5786117E-005  0.2763572E+03  0.7546771E-02  0.1097695E+00
         21   -1    0    0  502  501  0.00000000000E+00  0.00000000000E+00  0.13868011453E+03  0.13868011453E+03  0.00000000000E+00 0.  1.
         21   -1    0    0  501  502 -0.00000000000E+00 -0.00000000000E+00 -0.55071540102E+03  0.55071540102E+03  0.00000000000E+00 0.  1.
         25    1    1    2    0    0  0.29388815509E+02 -0.73391434292E+02 -0.36076478525E+02  0.15223835721E+03  0.12500000000E+03 0.  0.
         25    1    1    2    0    0 -0.55412142379E+02 -0.67629543680E+02 -0.29153330485E+03  0.32903028514E+03  0.12500000000E+03 0.  0.
         25    1    1    2    0    0  0.26023326869E+02  0.14102097797E+03 -0.84425503118E+02  0.20812687320E+03  0.12500000000E+03 0.  0.
</event>
<event>
 5    0  0.5786117E-005  0.3208028E+03  0.7546771E-02  0.1075280E+00
         21   -1    0    0  502  501  0.00000000000E+00  0.00000000000E+00  0.58420342907E+03  0.58420342907E+03  0.00000000000E+00 0. -1.
         21   -1    0    0  501  502 -0.00000000000E+00 -0.00000000000E+00 -0.17616197272E+03  0.17616197272E+03  0.00000000000E+00 0. -1.
         25    1    1    2    0    0 -0.16016059285E+02  0.19744448374E+03  0.10897863830E+03  0.25834508302E+03  0.12500000000E+03 0.  0.
         25    1    1    2    0    0  0.12732245690E+03 -0.10644037493E+03  0.11670896690E+03  0.23829927486E+03  0.12500000000E+03 0.  0.
         25    1    1    2    0    0 -0.11130639761E+03 -0.91004108814E+02  0.18235385116E+03  0.26372104391E+03  0.12500000000E+03 0.  0.
</event>
<event>
 5    0  0.5786117E-005  0.5407645E+03  0.7546771E-02  0.1003654E+00
         21   -1    0    0  502  501  0.00000000000E+00  0.00000000000E+00  0.42807773768E+03  0.42807773768E+03  0.00000000000E+00 0. -1.
         21   -1    0    0  501  502 -0.00000000000E+00 -0.00000000000E+00 -0.68311472118E+03  0.68311472118E+03  0.00000000000E+00 0. -1.
         25    1    1    2    0    0 -0.16341251268E+03  0.16943892219E+03  0.20048315177E+03  0.33351415532E+03  0.12500000000E+03 0.  0.
         25    1    1    2    0    0  0.14486642778E+02 -0.15397266001E+03  0.74932872954E+02  0.21250265481E+03  0.12500000000E+03 0.  0.
         25    1    1    2    0    0  0.14892586991E+03 -0.15466262176E+02 -0.53045300823E+03  0.56517564874E+03  0.12500000000E+03 0.  0.
</event>
<event>
 5    0  0.5786117E-005  0.3568479E+03  0.7546771E-02  0.1059839E+00
         21   -1    0    0  502  501  0.00000000000E+00  0.00000000000E+00  0.19674787943E+04  0.19674787943E+04  0.00000000000E+00 0. -1.
         21   -1    0    0  501  502 -0.00000000000E+00 -0.00000000000E+00 -0.64722637329E+02  0.64722637329E+02  0.00000000000E+00 0. -1.
         25    1    1    2    0    0 -0.15991751975E+03  0.33818083252E+02  0.72383713361E+03  0.75251742297E+03  0.12500000000E+03 0.  0.
         25    1    1    2    0    0  0.49090287078E+02 -0.16286382790E+03  0.92835574876E+03  0.95205245600E+03  0.12500000000E+03 0.  0.
         25    1    1    2    0    0  0.11082723267E+03  0.12904574465E+03  0.25056327457E+03  0.32763155263E+03  0.12500000000E+03 0.  0.
</event>
<event>
 5    0  0.5786117E-005  0.3339983E+03  0.7546771E-02  0.1069381E+00
         21   -1    0    0  502  501  0.00000000000E+00  0.00000000000E+00  0.11541297661E+04  0.11541297661E+04  0.00000000000E+00 0.  1.
         21   -1    0    0  501  502 -0.00000000000E+00 -0.00000000000E+00 -0.96657145353E+02  0.96657145353E+02  0.00000000000E+00 0.  1.
         25    1    1    2    0    0  0.25691194571E+02  0.34752042132E+02  0.36264340353E+03  0.38600904139E+03  0.12500000000E+03 0.  0.
         25    1    1    2    0    0  0.92127872319E+02  0.16278103549E+03  0.46444883314E+03  0.51606484959E+03  0.12500000000E+03 0.  0.
         25    1    1    2    0    0 -0.11781906689E+03 -0.19753307762E+03  0.23038038404E+03  0.34871302044E+03  0.12500000000E+03 0.  0.
</event>
<event>
 5    0  0.5786117E-005  0.2082316E+03  0.7546771E-02  0.1142974E+00
         21   -1    0    0  502  501  0.00000000000E+00  0.00000000000E+00  0.42950545089E+02  0.42950545089E+02  0.00000000000E+00 0. -1.
         21   -1    0    0  501  502 -0.00000000000E+00 -0.00000000000E+00 -0.10095422136E+04  0.10095422136E+04  0.00000000000E+00 0. -1.
         25    1    1    2    0    0 -0.27574427617E+02 -0.43872657520E+02 -0.30911024102E+03  0.33743043763E+03  0.12500000000E+03 0.  0.
         25    1    1    2    0    0 -0.40740581179E+02  0.20616800293E+02 -0.25788191265E+03  0.29019463862E+03  0.12500000000E+03 0.  0.
         25    1    1    2    0    0  0.68315008796E+02  0.23255857227E+02 -0.39959951483E+03  0.42486768243E+03  0.12500000000E+03 0.  0.
</event>
<event>
 5    0  0.5786117E-005  0.5064078E+03  0.7546771E-02  0.1012120E+00
         21   -1    0    0  502  501  0.00000000000E+00  0.00000000000E+00  0.18724768688E+03  0.18724768688E+03  0.00000000000E+00 0. -1.
         21   -1    0    0  501  502 -0.00000000000E+00 -0.00000000000E+00 -0.13695701653E+04  0.13695701653E+04  0.00000000000E+00 0. -1.
         25    1    1    2    0    0  0.35064653118E+03 -0.83098309838E+02 -0.46695555791E+03  0.60293516400E+03  0.12500000000E+03 0.  0.
         25    1    1    2    0    0 -0.14078042491E+03  0.24732429688E+03 -0.23166860987E+03  0.38766452077E+03  0.12500000000E+03 0.  0.
         25    1    1    2    0    0 -0.20986610627E+03 -0.16422598705E+03 -0.48369831066E+03  0.56621816742E+03  0.12500000000E+03 0.  0.
</event>
<event>
 5    0  0.5786117E-005  0.3159826E+03  0.7546771E-02  0.1077513E+00
         21   -1    0    0  502  501  0.00000000000E+00  0.00000000000E+00  0.23125728174E+03  0.23125728174E+03  0.00000000000E+00 0. -1.
         21   -1    0    0  501  502 -0.00000000000E+00 -0.00000000000E+00 -0.43174867174E+03  0.43174867174E+03  0.00000000000E+00 0. -1.
         25    1    1    2    0    0  0.29639437509E+02  0.17114430921E+03 -0.12121070260E+03  0.24593882421E+03  0.12500000000E+03 0.  0.
         25    1    1    2    0    0 -0.13609594633E+03 -0.43463234320E+02 -0.87250638424E+02  0.20892303188E+03  0.12500000000E+03 0.  0.
         25    1    1    2    0    0  0.10645650882E+03 -0.12768107489E+03  0.79699510262E+01  0.20814409738E+03  0.12500000000E+03 0.  0.
</event>
<event>
 5    0  0.5786117E-005  0.3042213E+03  0.7546771E-02  0.1083149E+00
         21   -1    0    0  502  501  0.00000000000E+00  0.00000000000E+00  0.18554429990E+03  0.18554429990E+03  0.00000000000E+00 0. -1.
         21   -1    0    0  501  502 -0.00000000000E+00 -0.00000000000E+00 -0.49880597025E+03  0.49880597025E+03  0.00000000000E+00 0. -1.
         25    1    1    2    0    0 -0.48401763785E+02 -0.11340526204E+03  0.47285409913E+02  0.18183617403E+03  0.12500000000E+03 0.  0.
         25    1    1    2    0    0  0.37694074210E+02  0.10645570271E+02 -0.30082830452E+02  0.13440293183E+03  0.12500000000E+03 0.  0.
         25    1    1    2    0    0  0.10707689575E+02  0.10275969177E+03 -0.33046424981E+03  0.36811116428E+03  0.12500000000E+03 0.  0.
</event>
<event>
 5    0  0.5786117E-005  0.2818104E+03  0.7546771E-02  0.1094704E+00
         21   -1    0    0  502  501  0.00000000000E+00  0.00000000000E+00  0.44006908441E+03  0.44006908441E+03  0.00000000000E+00 0. -1.
         21   -1    0    0  501  502 -0.00000000000E+00 -0.00000000000E+00 -0.18046511488E+03  0.18046511488E+03  0.00000000000E+00 0. -1.
         25    1    1    2    0    0 -0.20217277447E+02 -0.41834913435E+02 -0.10567237512E+03  0.17014860903E+03  0.12500000000E+03 0.  0.
         25    1    1    2    0    0  0.27570675706E+01  0.47675305616E+02  0.15213855424E+03  0.20261213160E+03  0.12500000000E+03 0.  0.
         25    1    1    2    0    0  0.17460209877E+02 -0.58403921803E+01  0.21313779042E+03  0.24777345866E+03  0.12500000000E+03 0.  0.
</event>
<event>
 5    0  0.5786117E-005  0.3329303E+03  0.7546771E-02  0.1069848E+00
         21   -1    0    0  502  501  0.00000000000E+00  0.00000000000E+00  0.22958373070E+03  0.22958373070E+03  0.00000000000E+00 0. -1.
         21   -1    0    0  501  502 -0.00000000000E+00 -0.00000000000E+00 -0.48279797373E+03  0.48279797373E+03  0.00000000000E+00 0. -1.
         25    1    1    2    0    0  0.62768071809E+02  0.32761043248E+02 -0.18134648595E+03  0.23135398151E+03  0.12500000000E+03 0.  0.
         25    1    1    2    0    0  0.33628119454E+02 -0.17759682606E+03  0.62084938521E+02  0.22836598397E+03  0.12500000000E+03 0.  0.
         25    1    1    2    0    0 -0.96396191263E+02  0.14483578281E+03 -0.13395269560E+03  0.25266173895E+03  0.12500000000E+03 0.  0.
</event>
<event>
 5    0  0.5880772E-005  0.2825818E+03  0.7546771E-02  0.1094287E+00
         21   -1    0    0  502  501  0.00000000000E+00  0.00000000000E+00  0.88251033140E+03  0.88251033140E+03  0.00000000000E+00 0.  1.
         21   -1    0    0  501  502 -0.00000000000E+00 -0.00000000000E+00 -0.90483332079E+02  0.90483332079E+02  0.00000000000E+00 0.  1.
         25    1    1    2    0    0 -0.12034826458E+03 -0.10702474592E+03  0.14640721964E+03  0.25099417321E+03  0.12500000000E+03 0.  0.
         25    1    1    2    0    0  0.11287633353E+03  0.19683415348E+02  0.31190257598E+03  0.35501650724E+03  0.12500000000E+03 0.  0.
         25    1    1    2    0    0  0.74719310419E+01  0.87341330572E+02  0.33371720370E+03  0.36698298302E+03  0.12500000000E+03 0.  0.
</event>
<event>
 5    0  0.5786117E-005  0.3592831E+03  0.7546771E-02  0.1058868E+00
         21   -1    0    0  502  501  0.00000000000E+00  0.00000000000E+00  0.10988072302E+03  0.10988072302E+03  0.00000000000E+00 0. -1.
         21   -1    0    0  501  502 -0.00000000000E+00 -0.00000000000E+00 -0.11747681392E+04  0.11747681392E+04  0.00000000000E+00 0. -1.
         25    1    1    2    0    0  0.33784894705E+02  0.23801517752E+03 -0.28759717076E+03  0.39513260618E+03  0.12500000000E+03 0.  0.
         25    1    1    2    0    0  0.98801127806E+02 -0.73757807547E+02 -0.22666497646E+03  0.28671220516E+03  0.12500000000E+03 0.  0.
         25    1    1    2    0    0 -0.13258602251E+03 -0.16425736997E+03 -0.55062526896E+03  0.60280405089E+03  0.12500000000E+03 0.  0.
</event>
<event>
 5    0  0.6209372E-005  0.2546834E+03  0.7546771E-02  0.1110380E+00
         21   -1    0    0  502  501  0.00000000000E+00  0.00000000000E+00  0.31549003255E+03  0.31549003255E+03  0.00000000000E+00 0. -1.
         21   -1    0    0  501  502 -0.00000000000E+00 -0.00000000000E+00 -0.20559642568E+03  0.20559642568E+03  0.00000000000E+00 0. -1.
         25    1    1    2    0    0 -0.26754143934E+02  0.12013031299E+03  0.11017719306E+03  0.20714992200E+03  0.12500000000E+03 0.  0.
         25    1    1    2    0    0 -0.11412426523E+02 -0.63418933064E+02 -0.67980356855E+02  0.15620029919E+03  0.12500000000E+03 0.  0.
         25    1    1    2    0    0  0.38166570457E+02 -0.56711379924E+02  0.67696770666E+02  0.15773623703E+03  0.12500000000E+03 0.  0.
</event>
<event>
 5    0  0.5786117E-005  0.2334189E+03  0.7546771E-02  0.1124256E+00
         21   -1    0    0  502  501  0.00000000000E+00  0.00000000000E+00  0.37257061850E+03  0.37257061850E+03  0.00000000000E+00 0. -1.
         21   -1    0    0  501  502 -0.00000000000E+00 -0.00000000000E+00 -0.14623902273E+03  0.14623902273E+03  0.00000000000E+00 0. -1.
         25    1    1    2    0    0 -0.40812066477E+01  0.47030188213E+02  0.12525711935E+03  0.18314704693E+03  0.12500000000E+03 0.  0.
         25    1    1    2    0    0  0.48481174866E+02 -0.30301390900E+02 -0.38134799746E+02  0.14264593075E+03  0.12500000000E+03 0.  0.
         25    1    1    2    0    0 -0.44399968219E+02 -0.16728797313E+02  0.13920927616E+03  0.19301666355E+03  0.12500000000E+03 0.  0.
</event>
<event>
 5    0  0.5786117E-005  0.3304577E+03  0.7546771E-02  0.1070935E+00
         21   -1    0    0  502  501  0.00000000000E+00  0.00000000000E+00  0.23672370872E+03  0.23672370872E+03  0.00000000000E+00 0.  1.
         21   -1    0    0  501  502 -0.00000000000E+00 -0.00000000000E+00 -0.46130705755E+03  0.46130705755E+03  0.00000000000E+00 0.  1.
         25    1    1    2    0    0 -0.17417021235E+02  0.10062105588E+03  0.26547428114E+01  0.16143109110E+03  0.12500000000E+03 0.  0.
         25    1    1    2    0    0 -0.44667873652E+02 -0.11253102758E+03 -0.32301573665E+03  0.36690954911E+03  0.12500000000E+03 0.  0.
         25    1    1    2    0    0  0.62084894888E+02  0.11909971704E+02  0.95777645003E+02  0.16969012606E+03  0.12500000000E+03 0.  0.
</event>
<event>
 5    0  0.5786117E-005  0.3141289E+03  0.7546771E-02  0.1078384E+00
         21   -1    0    0  502  501  0.00000000000E+00  0.00000000000E+00  0.70450363228E+02  0.70450363228E+02  0.00000000000E+00 0.  1.
         21   -1    0    0  501  502 -0.00000000000E+00 -0.00000000000E+00 -0.14006597121E+04  0.14006597121E+04  0.00000000000E+00 0.  1.
         25    1    1    2    0    0  0.11575722623E+03  0.36427951927E+00 -0.63094075190E+03  0.65353737501E+03  0.12500000000E+03 0.  0.
         25    1    1    2    0    0 -0.11140404289E+02  0.10489244535E+03 -0.10981419569E+03  0.19700429253E+03  0.12500000000E+03 0.  0.
         25    1    1    2    0    0 -0.10461682194E+03 -0.10525672487E+03 -0.58945440131E+03  0.62056840783E+03  0.12500000000E+03 0.  0.
</event>
<event>
 5    0  0.5786117E-005  0.2543160E+03  0.7546771E-02  0.1110607E+00
         21   -1    0    0  502  501  0.00000000000E+00  0.00000000000E+00  0.64987451616E+02  0.64987451616E+02  0.00000000000E+00 0. -1.
         21   -1    0    0  501  502 -0.00000000000E+00 -0.00000000000E+00 -0.99521685736E+03  0.99521685736E+03  0.00000000000E+00 0. -1.
         25    1    1    2    0    0  0.64539299370E+01 -0.56435654810E+02 -0.30597107243E+03  0.33536537315E+03  0.12500000000E+03 0.  0.
         25    1    1    2    0    0 -0.88105109454E+02  0.11223831662E+03 -0.22115409847E+03  0.29136589591E+03  0.12500000000E+03 0.  0.
         25    1    1    2    0    0  0.81651179517E+02 -0.55802661812E+02 -0.40310423485E+03  0.43347303992E+03  0.12500000000E+03 0.  0.
</event>
<event>
 5    0  0.5786117E-005  0.3179504E+03  0.7546771E-02  0.1076596E+00
         21   -1    0    0  502  501  0.00000000000E+00  0.00000000000E+00  0.29341103609E+03  0.29341103609E+03  0.00000000000E+00 0. -1.
         21   -1    0    0  501  502 -0.00000000000E+00 -0.00000000000E+00 -0.34454201829E+03  0.34454201829E+03  0.00000000000E+00 0. -1.
         25    1    1    2    0    0 -0.37072487411E+01  0.37527926062E+02 -0.13370059737E+02  0.13124727588E+03  0.12500000000E+03 0.  0.
         25    1    1    2    0    0  0.57127914931E+02  0.78881524247E+02 -0.20679614873E+03  0.26052934703E+03  0.12500000000E+03 0.  0.
         25    1    1    2    0    0 -0.53420666190E+02 -0.11640945031E+03  0.16903522627E+03  0.24617643148E+03  0.12500000000E+03 0.  0.
</event>
<event>
 5    0  0.5786117E-005  0.3069636E+03  0.7546771E-02  0.1081810E+00
         21   -1    0    0  502  501  0.00000000000E+00  0.00000000000E+00  0.84694915763E+02  0.84694915763E+02  0.00000000000E+00 0.  1.
         21   -1    0    0  501  502 -0.00000000000E+00 -0.00000000000E+00 -0.11125420879E+04  0.11125420879E+04  0.00000000000E+00 0.  1.
         25    1    1    2    0    0  0.84250854434E+02 -0.70509933816E+02 -0.29210342622E+03  0.33618338574E+03  0.12500000000E+03 0.  0.
         25    1    1    2    0    0 -0.18116679901E+03  0.97009368794E+02 -0.23908696530E+03  0.33914569682E+03  0.12500000000E+03 0.  0.
         25    1    1    2    0    0  0.96915944578E+02 -0.26499434978E+02 -0.49665678057E+03  0.52190792105E+03  0.12500000000E+03 0.  0.
</event>
<event>
 5    0  0.5786117E-005  0.2496409E+03  0.7546771E-02  0.1113532E+00
         21   -1    0    0  502  501  0.00000000000E+00  0.00000000000E+00  0.10192396476E+04  0.10192396476E+04  0.00000000000E+00 0.  1.
         21   -1    0    0  501  502 -0.00000000000E+00 -0.00000000000E+00 -0.61144175916E+02  0.61144175916E+02  0.00000000000E+00 0.  1.
         25    1    1    2    0    0  0.12142078423E+03 -0.39188217889E+02  0.36645173046E+03  0.40766480596E+03  0.12500000000E+03 0.  0.
         25    1    1    2    0    0 -0.43180380851E+02 -0.40455465704E+02  0.36884548106E+03  0.39392026972E+03  0.12500000000E+03 0.  0.
         25    1    1    2    0    0 -0.78240403380E+02  0.79643683593E+02  0.22279826013E+03  0.27879874780E+03  0.12500000000E+03 0.  0.
</event>
<event>
 5    0  0.5820330E-005  0.3767458E+03  0.7546771E-02  0.1052143E+00
         21   -1    0    0  502  501  0.00000000000E+00  0.00000000000E+00  0.22242695536E+03  0.22242695536E+03  0.00000000000E+00 0. -1.
         21   -1    0    0  501  502 -0.00000000000E+00 -0.00000000000E+00 -0.63813023058E+03  0.63813023058E+03  0.00000000000E+00 0. -1.
         25    1    1    2    0    0  0.85592197903E+02 -0.15781405665E+03 -0.74585965492E+02  0.23112630112E+03  0.12500000000E+03 0.  0.
         25    1    1    2    0    0 -0.64471853482E+01  0.72169672586E+02 -0.41779494967E+03  0.44207199392E+03  0.12500000000E+03 0.  0.
         25    1    1    2    0    0 -0.79145012555E+02  0.85644384068E+02  0.76677639933E+02  0.18735889090E+03  0.12500000000E+03 0.  0.
</event>
<event>
 5    0  0.5786117E-005  0.2870302E+03  0.7546771E-02  0.1091910E+00
         21   -1    0    0  502  501  0.00000000000E+00  0.00000000000E+00  0.12496318477E+04  0.12496318477E+04  0.00000000000E+00 0.  1.
         21   -1    0    0  501  502 -0.00000000000E+00 -0.00000000000E+00 -0.65928503160E+02  0.65928503160E+02  0.00000000000E+00 0.  1.
         25    1    1    2    0    0 -0.57470093279E+02 -0.22067706344E+01  0.46560560065E+03  0.48551133541E+03  0.12500000000E+03 0.  0.
         25    1    1    2    0    0 -0.13567103704E+03  0.14550716830E+02  0.29334975477E+03  0.34683920233E+03  0.12500000000E+03 0.  0.
         25    1    1    2    0    0  0.19314113032E+03 -0.12343946196E+02  0.42474798913E+03  0.48320981312E+03  0.12500000000E+03 0.  0.
</event>
<event>
 5    0  0.5786117E-005  0.2449798E+03  0.7546771E-02  0.1116519E+00
         21   -1    0    0  502  501  0.00000000000E+00  0.00000000000E+00  0.66180725955E+03  0.66180725955E+03  0.00000000000E+00 0.  1.
         21   -1    0    0  501  502 -0.00000000000E+00 -0.00000000000E+00 -0.90683634759E+02  0.90683634759E+02  0.00000000000E+00 0.  1.
         25    1    1    2    0    0  0.39878172657E+01  0.49376744187E+02  0.30063395994E+03  0.32933226902E+03  0.12500000000E+03 0.  0.
         25    1    1    2    0    0  0.12725495685E+02 -0.46815176365E+02  0.10877249081E+02  0.13452476919E+03  0.12500000000E+03 0.  0.
         25    1    1    2    0    0 -0.16713312951E+02 -0.25615678219E+01  0.25961241577E+03  0.28863385609E+03  0.12500000000E+03 0.  0.
</event>
<event>
 5    0  0.5786117E-005  0.9072541E+03  0.7546771E-02  0.9416559E-01
         21   -1    0    0  502  501  0.00000000000E+00  0.00000000000E+00  0.99331788068E+03  0.99331788068E+03  0.00000000000E+00 0.  1.
         21   -1    0    0  501  502 -0.00000000000E+00 -0.00000000000E+00 -0.82864712320E+03  0.82864712320E+03  0.00000000000E+00 0.  1.
         25    1    1    2    0    0 -0.37417287683E+03 -0.46759348571E+03 -0.49270798728E+03  0.78551586258E+03  0.12500000000E+03 0.  0.
         25    1    1    2    0    0  0.16443358990E+03  0.37853957789E+03  0.64548925548E+03  0.77628087472E+03  0.12500000000E+03 0.  0.
         25    1    1    2    0    0  0.20973928694E+03  0.89053907816E+02  0.11889489283E+02  0.26016826658E+03  0.12500000000E+03 0.  0.
</event>
<event>
 5    0  0.5786117E-005  0.2529957E+03  0.7546771E-02  0.1111426E+00
         21   -1    0    0  502  501  0.00000000000E+00  0.00000000000E+00  0.69553427834E+02  0.69553427834E+02  0.00000000000E+00 0. -1.
         21   -1    0    0  501  502 -0.00000000000E+00 -0.00000000000E+00 -0.92025424543E+03  0.92025424543E+03  0.00000000000E+00 0. -1.
         25    1    1    2    0    0 -0.78121725372E+02 -0.12991451555E+02 -0.25663136392E+03  0.29623713260E+03  0.12500000000E+03 0.  0.
         25    1    1    2    0    0  0.90741725427E+02 -0.35974334185E+02 -0.11504562509E+03  0.19593036851E+03  0.12500000000E+03 0.  0.
         25    1    1    2    0    0 -0.12620000055E+02  0.48965785740E+02 -0.47902382860E+03  0.49764017215E+03  0.12500000000E+03 0.  0.
</event>
<event>
 5    0  0.5786117E-005  0.2486081E+03  0.7546771E-02  0.1114188E+00
         21   -1    0    0  502  501  0.00000000000E+00  0.00000000000E+00  0.20843285311E+04  0.20843285311E+04  0.00000000000E+00 0. -1.
         21   -1    0    0  501  502 -0.00000000000E+00 -0.00000000000E+00 -0.29652710008E+02  0.29652710008E+02  0.00000000000E+00 0. -1.
         25    1    1    2    0    0 -0.16301801489E+02  0.11063131468E+03  0.64137023825E+03  0.66293726628E+03  0.12500000000E+03 0.  0.
         25    1    1    2    0    0  0.49339300025E+02  0.17929790494E+02  0.79264513020E+03  0.80415617037E+03  0.12500000000E+03 0.  0.
         25    1    1    2    0    0 -0.33037498535E+02 -0.12856110517E+03  0.62066045264E+03  0.64688780444E+03  0.12500000000E+03 0.  0.
</event>
<event>
 5    0  0.5786117E-005  0.2854663E+03  0.7546771E-02  0.1092740E+00
         21   -1    0    0  502  501  0.00000000000E+00  0.00000000000E+00  0.87264687674E+02  0.87264687674E+02  0.00000000000E+00 0. -1.
         21   -1    0    0  501  502 -0.00000000000E+00 -0.00000000000E+00 -0.93383741820E+03  0.93383741820E+03  0.00000000000E+00 0. -1.
         25    1    1    2    0    0  0.15089694217E+03 -0.96321195657E+00 -0.12783859998E+03  0.23396265210E+03  0.12500000000E+03 0.  0.
         25    1    1    2    0    0 -0.10276338582E+02  0.32347874093E+02 -0.31608219179E+03  0.34159177399E+03  0.12500000000E+03 0.  0.
         25    1    1    2    0    0 -0.14062060359E+03 -0.31384662136E+02 -0.40265193875E+03  0.44554767978E+03  0.12500000000E+03 0.  0.
</event>
<event>
 5    0  0.5786117E-005  0.3375577E+03  0.7546771E-02  0.1067841E+00
         21   -1    0    0  502  501  0.00000000000E+00  0.00000000000E+00  0.11724862062E+03  0.11724862062E+03  0.00000000000E+00 0.  1.
         21   -1    0    0  501  502 -0.00000000000E+00 -0.00000000000E+00 -0.97182540217E+03  0.97182540217E+03  0.00000000000E+00 0.  1.
         25    1    1    2    0    0 -0.71037586136E+02 -0.87704215506E+00 -0.17963901932E+03  0.23009190579E+03  0.12500000000E+03 0.  0.
         25    1    1    2    0    0  0.91584287558E+02 -0.17363674010E+03 -0.57694867967E+03  0.62211910291E+03  0.12500000000E+03 0.  0.
         25    1    1    2    0    0 -0.20546701423E+02  0.17451378226E+03 -0.97989082563E+02  0.23686301408E+03  0.12500000000E+03 0.  0.
</event>
<event>
 5    0  0.5786117E-005  0.3073839E+03  0.7546771E-02  0.1081607E+00
         21   -1    0    0  502  501  0.00000000000E+00  0.00000000000E+00  0.14169888863E+04  0.14169888863E+04  0.00000000000E+00 0.  1.
         21   -1    0    0  501  502 -0.00000000000E+00 -0.00000000000E+00 -0.66680049267E+02  0.66680049267E+02  0.00000000000E+00 0.  1.
         25    1    1    2    0    0  0.44112566864E+02  0.12133345028E+03  0.49588580982E+03  0.52744237704E+03  0.12500000000E+03 0.  0.
         25    1    1    2    0    0 -0.40121776244E+02  0.35517133877E+02  0.67021499472E+03  0.68387452275E+03  0.12500000000E+03 0.  0.
         25    1    1    2    0    0 -0.39907906201E+01 -0.15685058416E+03  0.18420803252E+03  0.27235203580E+03  0.12500000000E+03 0.  0.
</event>
<event>
 5    0  0.5786117E-005  0.2399725E+03  0.7546771E-02  0.1119811E+00
         21   -1    0    0  502  501  0.00000000000E+00  0.00000000000E+00  0.54382204306E+02  0.54382204306E+02  0.00000000000E+00 0.  1.
         21   -1    0    0  501  502 -0.00000000000E+00 -0.00000000000E+00 -0.10589271097E+04  0.10589271097E+04  0.00000000000E+00 0.  1.
         25    1    1    2    0    0  0.41868528796E+01  0.27612666736E+02 -0.12069988468E+03  0.17599275912E+03  0.12500000000E+03 0.  0.
         25    1    1    2    0    0  0.15545559151E+02  0.75896297972E+02 -0.37280448367E+03  0.40076189377E+03  0.12500000000E+03 0.  0.
         25    1    1    2    0    0 -0.19732412030E+02 -0.10350896471E+03 -0.51104053705E+03  0.53655466112E+03  0.12500000000E+03 0.  0.
</event>
<event>
 5    0  0.5786117E-005  0.3781808E+03  0.7546771E-02  0.1051608E+00
         21   -1    0    0  502  501  0.00000000000E+00  0.00000000000E+00  0.41374375369E+03  0.41374375369E+03  0.00000000000E+00 0. -1.
         21   -1    0    0  501  502 -0.00000000000E+00 -0.00000000000E+00 -0.34567465079E+03  0.34567465079E+03  0.00000000000E+00 0. -1.
         25    1    1    2    0    0  0.12131342555E+02 -0.14183389837E+02  0.13881614361E+03  0.18773188260E+03  0.12500000000E+03 0.  0.
         25    1    1    2    0    0 -0.21922557868E+03  0.14537569312E+03 -0.52231667481E+02  0.29588358114E+03  0.12500000000E+03 0.  0.
         25    1    1    2    0    0  0.20709423612E+03 -0.13119230328E+03 -0.18515373231E+02  0.27580294074E+03  0.12500000000E+03 0.  0.
</event>
<event>
 5    0  0.6159507E-005  0.2712530E+03  0.7546771E-02  0.1100565E+00
         21   -1    0    0  502  501  0.00000000000E+00  0.00000000000E+00  0.27600916643E+03  0.27600916643E+03  0.00000000000E+00 0. -1.
         21   -1    0    0  501  502 -0.00000000000E+00 -0.00000000000E+00 -0.26657871697E+03  0.26657871697E+03  0.00000000000E+00 0. -1.
         25    1    1    2    0    0 -0.47469889378E+02 -0.70643670299E+02  0.88559433878E+02  0.17524751604E+03  0.12500000000E+03 0.  0.
         25    1    1    2    0    0  0.70140302509E+02  0.97596767000E+02 -0.14099197553E+03  0.22349167351E+03  0.12500000000E+03 0.  0.
         25    1    1    2    0    0 -0.22670413130E+02 -0.26953096702E+02  0.61862991114E+02  0.14384869385E+03  0.12500000000E+03 0.  0.
</event>
<event>
 5    0  0.5786117E-005  0.4195846E+03  0.7546771E-02  0.1037202E+00
         21   -1    0    0  502  501  0.00000000000E+00  0.00000000000E+00  0.62481126916E+03  0.62481126916E+03  0.00000000000E+00 0. -1.
         21   -1    0    0  501  502 -0.00000000000E+00 -0.00000000000E+00 -0.28176701099E+03  0.28176701099E+03  0.00000000000E+00 0. -1.
         25    1    1    2    0    0  0.58053982196E+02 -0.31952860239E+02  0.73561650770E+02  0.15946023514E+03  0.12500000000E+03 0.  0.
         25    1    1    2    0    0 -0.10993013825E+03  0.31556232871E+03  0.42135314716E+02  0.35925562396E+03  0.12500000000E+03 0.  0.
         25    1    1    2    0    0  0.51876156050E+02 -0.28360946848E+03  0.22734729269E+03  0.38786242106E+03  0.12500000000E+03 0.  0.
</event>
<event>
 5    0  0.5786117E-005  0.5053685E+03  0.7546771E-02  0.1012387E+00
         21   -1    0    0  502  501  0.00000000000E+00  0.00000000000E+00  0.14003462417E+04  0.14003462417E+04  0.00000000000E+00 0.  1.
         21   -1    0    0  501  502 -0.00000000000E+00 -0.00000000000E+00 -0.18238157263E+03  0.18238157263E+03  0.00000000000E+00 0.  1.
         25    1    1    2    0    0  0.16723130231E+03  0.13041420219E+02 -0.52559747390E+02  0.21569402903E+03  0.12500000000E+03 0.  0.
         25    1    1    2    0    0 -0.10010012509E+03 -0.76950936612E+02  0.14094629999E+03  0.22678699515E+03  0.12500000000E+03 0.  0.
         25    1    1    2    0    0 -0.67131177215E+02  0.63909516392E+02  0.11295781165E+04  0.11402467902E+04  0.12500000000E+03 0.  0.
</event>
<event>
 5    0  0.5786117E-005  0.2901081E+03  0.7546771E-02  0.1090293E+00
         21   -1    0    0  502  501  0.00000000000E+00  0.00000000000E+00  0.87590316130E+02  0.87590316130E+02  0.00000000000E+00 0.  1.
         21   -1    0    0  501  502 -0.00000000000E+00 -0.00000000000E+00 -0.96086801952E+03  0.96086801952E+03  0.00000000000E+00 0.  1.
         25    1    1    2    0    0  0.79027381419E+02 -0.33425329673E+02 -0.58570602257E+03  0.60501167307E+03  0.12500000000E+03 0.  0.
         25    1    1    2    0    0  0.10391383975E+02 -0.40247502003E+02 -0.30840839494E+02  0.13529227494E+03  0.12500000000E+03 0.  0.
         25    1    1    2    0    0 -0.89418765394E+02  0.73672831676E+02 -0.25673084133E+03  0.30815438764E+03  0.12500000000E+03 0.  0.
</event>
<event>
 5    0  0.5786117E-005  0.4323884E+03  0.7546771E-02  0.1033108E+00
         21   -1    0    0  502  501  0.00000000000E+00  0.00000000000E+00  0.29555734401E+04  0.29555734401E+04  0.00000000000E+00 0. -1.
         21   -1    0    0  501  502 -0.00000000000E+00 -0.00000000000E+00 -0.63256659636E+02  0.63256659636E+02  0.00000000000E+00 0. -1.
         25    1    1    2    0    0  0.34335107877E+02  0.26718117439E+03  0.39743192522E+03  0.49612681319E+03  0.12500000000E+03 0.  0.
         25    1    1    2    0    0 -0.26760787202E+02 -0.10216503442E+03  0.12566085387E+04  0.12672189446E+04  0.12500000000E+03 0.  0.
         25    1    1    2    0    0 -0.75743206749E+01 -0.16501613997E+03  0.12382763165E+04  0.12554843419E+04  0.12500000000E+03 0.  0.
</event>
<event>
 5    0  0.5786117E-005  0.3114478E+03  0.7546771E-02  0.1079654E+00
         21   -1    0    0  502  501  0.00000000000E+00  0.00000000000E+00  0.46787683369E+03  0.46787683369E+03  0.00000000000E+00 0.  1.
         21   -1    0    0  501  502 -0.00000000000E+00 -0.00000000000E+00 -0.20731897343E+03  0.20731897343E+03  0.00000000000E+00 0.  1.
         25    1    1    2    0    0 -0.38343667282E+00  0.19248228822E+03  0.12415130613E+03  0.26093701370E+03  0.12500000000E+03 0.  0.
         25    1    1    2    0    0  0.32088678087E+02 -0.20689599931E+03  0.28523130168E+02  0.24550805841E+03  0.12500000000E+03 0.  0.
         25    1    1    2    0    0 -0.31705241414E+02  0.14413711086E+02  0.10788342397E+03  0.16875073501E+03  0.12500000000E+03 0.  0.
</event>
<event>
 5    0  0.5786117E-005  0.3422440E+03  0.7546771E-02  0.1065844E+00
         21   -1    0    0  502  501  0.00000000000E+00  0.00000000000E+00  0.31257925859E+02  0.31257925859E+02  0.00000000000E+00 0.  1.
         21   -1    0    0  501  502 -0.00000000000E+00 -0.00000000000E+00 -0.37472400842E+04  0.37472400842E+04  0.00000000000E+00 0.  1.
         25    1    1    2    0    0 -0.21206682848E+03  0.18668382712E+02 -0.20321635074E+04  0.20471038979E+04  0.12500000000E+03 0.  0.
         25    1    1    2    0    0  0.11924245272E+03 -0.11815581588E+03 -0.71016301777E+03  0.74036212164E+03  0.12500000000E+03 0.  0.
         25    1    1    2    0    0  0.92824375757E+02  0.99487433165E+02 -0.97365563323E+03  0.99103199051E+03  0.12500000000E+03 0.  0.
</event>
<event>
 5    0  0.6232013E-005  0.3190403E+03  0.7546771E-02  0.1076092E+00
         21   -1    0    0  502  501  0.00000000000E+00  0.00000000000E+00  0.16147196567E+03  0.16147196567E+03  0.00000000000E+00 0. -1.
         21   -1    0    0  501  502 -0.00000000000E+00 -0.00000000000E+00 -0.63036763550E+03  0.63036763550E+03  0.00000000000E+00 0. -1.
         25    1    1    2    0    0  0.14631406388E+03 -0.24080298609E+02 -0.12714512309E+03  0.23190202327E+03  0.12500000000E+03 0.  0.
         25    1    1    2    0    0  0.74375722043E+01 -0.31922645156E+02  0.32078762867E+02  0.13314811220E+03  0.12500000000E+03 0.  0.
         25    1    1    2    0    0 -0.15375163609E+03  0.56002943765E+02 -0.37382930962E+03  0.42678946571E+03  0.12500000000E+03 0.  0.
</event>
<event>
 5    0  0.5786117E-005  0.3714545E+03  0.7546771E-02  0.1054138E+00
         21   -1    0    0  502  501  0.00000000000E+00  0.00000000000E+00  0.10749086775E+03  0.10749086775E+03  0.00000000000E+00 0. -1.
         21   -1    0    0  501  502 -0.00000000000E+00 -0.00000000000E+00 -0.12836294278E+04  0.12836294278E+04  0.00000000000E+00 0. -1.
         25    1    1    2    0    0  0.20406168126E+03  0.47352014827E+02 -0.13943692757E+03  0.28098227674E+03  0.12500000000E+03 0.  0.
         25    1    1    2    0    0  0.82617469327E+01  0.45601624686E+02 -0.32503179018E+03  0.35130959176E+03  0.12500000000E+03 0.  0.
         25    1    1    2    0    0 -0.21232342820E+03 -0.92953639513E+02 -0.71166984235E+03  0.75882842710E+03  0.12500000000E+03 0.  0.
</event>
<event>
 5    0  0.5786117E-005  0.3514622E+03  0.7546771E-02  0.1062017E+00
         21   -1    0    0  502  501  0.00000000000E+00  0.00000000000E+00  0.17934822835E+03  0.17934822835E+03  0.00000000000E+00 0. -1.
         21   -1    0    0  501  502 -0.00000000000E+00 -0.00000000000E+00 -0.68874754854E+03  0.68874754854E+03  0.00000000000E+00 0. -1.
         25    1    1    2    0    0 -0.20243635379E+03 -0.11204581351E+03 -0.11262044896E+03  0.28608234337E+03  0.12500000000E+03 0.  0.
         25    1    1    2    0    0  0.13141680922E+03 -0.22290418566E+02 -0.60664201490E+02  0.19254190673E+03  0.12500000000E+03 0.  0.
         25    1    1    2    0    0  0.71019544570E+02  0.13433623208E+03 -0.33611466975E+03  0.38947152679E+03  0.12500000000E+03 0.  0.
</event>
<event>
 5    0  0.5786117E-005  0.3610414E+03  0.7546771E-02  0.1058172E+00
         21   -1    0    0  502  501  0.00000000000E+00  0.00000000000E+00  0.53606660666E+02  0.53606660666E+02  0.00000000000E+00 0. -1.
         21   -1    0    0  501  502 -0.00000000000E+00 -0.00000000000E+00 -0.24316174618E+04  0.24316174618E+04  0.00000000000E+00 0. -1.
         25    1    1    2    0    0 -0.25517921570E+03  0.14300853608E+03 -0.10439649459E+04  0.10913549752E+04  0.12500000000E+03 0.  0.
         25    1    1    2    0    0  0.16874322774E+03 -0.11288431878E+03 -0.95660150588E+03  0.98586438590E+03  0.12500000000E+03 0.  0.
         25    1    1    2    0    0  0.86435987952E+02 -0.30124217295E+02 -0.37744434938E+03  0.40800476145E+03  0.12500000000E+03 0.  0.
</event>
<event>
 5    0  0.5786117E-005  0.4847790E+03  0.7546771E-02  0.1017830E+00
         21   -1    0    0  502  501  0.00000000000E+00  0.00000000000E+00  0.45092871679E+03  0.45092871679E+03  0.00000000000E+00 0.  1.
         21   -1    0    0  501  502 -0.00000000000E+00 -0.00000000000E+00 -0.52117035749E+03  0.52117035749E+03  0.00000000000E+00 0.  1.
         25    1    1    2    0    0 -0.49809707371E+02  0.10751055410E+03 -0.24702562573E+03  0.30114147167E+03  0.12500000000E+03 0.  0.
         25    1    1    2    0    0 -0.85627429867E+02 -0.29556689444E+03  0.22779473395E+03  0.40274965755E+03  0.12500000000E+03 0.  0.
         25    1    1    2    0    0  0.13543713724E+03  0.18805634034E+03 -0.51010748924E+02  0.26820794506E+03  0.12500000000E+03 0.  0.
</event>
<event>
 5    0  0.5786117E-005  0.5314874E+03  0.7546771E-02  0.1005872E+00
         21   -1    0    0  502  501  0.00000000000E+00  0.00000000000E+00  0.33010768963E+03  0.33010768963E+03  0.00000000000E+00 0. -1.
         21   -1    0    0  501  502 -0.00000000000E+00 -0.00000000000E+00 -0.85571741067E+03  0.85571741067E+03  0.00000000000E+00 0. -1.
         25    1    1    2    0    0 -0.37677542974E+02 -0.15308411453E+03  0.67924159458E+02  0.21235120627E+03  0.12500000000E+03 0.  0.
         25    1    1    2    0    0  0.33240861868E+02  0.41351647613E+03 -0.51709709130E+03  0.67462228896E+03  0.12500000000E+03 0.  0.
         25    1    1    2    0    0  0.44366811058E+01 -0.26043236160E+03 -0.76436789203E+02  0.29885160506E+03  0.12500000000E+03 0.  0.
</event>
<event>
 5    0  0.5956837E-005  0.3096938E+03  0.7546771E-02  0.1080493E+00
         21   -1    0    0  502  501  0.00000000000E+00  0.00000000000E+00  0.56669679167E+03  0.56669679167E+03  0.00000000000E+00 0. -1.
         21   -1    0    0  501  502 -0.00000000000E+00 -0.00000000000E+00 -0.16924437638E+03  0.16924437638E+03  0.00000000000E+00 0. -1.
         25    1    1    2    0    0 -0.62954656041E+02  0.83169525719E+02  0.29041517627E+03  0.33293607996E+03  0.12500000000E+03 0.  0.
         25    1    1    2    0    0  0.61004429682E+02 -0.15250450407E+03 -0.25607663679E+02  0.20799018400E+03  0.12500000000E+03 0.  0.
         25    1    1    2    0    0  0.19502263597E+01  0.69334978349E+02  0.13264490270E+03  0.19501490409E+03  0.12500000000E+03 0.  0.
</event>
<event>
 5    0  0.5786117E-005  0.5359795E+03  0.7546771E-02  0.1004792E+00
         21   -1    0    0  502  501  0.00000000000E+00  0.00000000000E+00  0.18257946937E+03  0.18257946937E+03  0.00000000000E+00 0. -1.
         21   -1    0    0  501  502 -0.00000000000E+00 -0.00000000000E+00 -0.15734189932E+04  0.15734189932E+04  0.00000000000E+00 0. -1.
         25    1    1    2    0    0  0.12280450132E+03  0.17852530774E+03 -0.31670422643E+03  0.40358245513E+03  0.12500000000E+03 0.  0.
         25    1    1    2    0    0  0.27676006468E+03 -0.72792207619E+02 -0.18243547554E+03  0.36166634020E+03  0.12500000000E+03 0.  0.
         25    1    1    2    0    0 -0.39956456600E+03 -0.10573310012E+03 -0.89169982185E+03  0.99074966725E+03  0.12500000000E+03 0.  0.
</event>
<event>
 5    0  0.5786117E-005  0.2903691E+03  0.7546771E-02  0.1090157E+00
         21   -1    0    0  502  501  0.00000000000E+00  0.00000000000E+00  0.50163778303E+02  0.50163778303E+02  0.00000000000E+00 0.  1.
         21   -1    0    0  501  502 -0.00000000000E+00 -0.00000000000E+00 -0.16807784897E+04  0.16807784897E+04  0.00000000000E+00 0.  1.
         25    1    1    2    0    0  0.20337117262E+01 -0.90470531731E+02 -0.20454403288E+03  0.25622707601E+03  0.12500000000E+03 0.  0.
         25    1    1    2    0    0 -0.75352978647E+02  0.10921214135E+03 -0.11293310412E+04  0.11439488467E+04  0.12500000000E+03 0.  0.
         25    1    1    2    0    0  0.73319266921E+02 -0.18741609617E+02 -0.29673963732E+03  0.33076634531E+03  0.12500000000E+03 0.  0.
</event>
<event>
 5    0  0.6355089E-005  0.3025735E+03  0.7546771E-02  0.1083961E+00
         21   -1    0    0  502  501  0.00000000000E+00  0.00000000000E+00  0.18078095596E+03  0.18078095596E+03  0.00000000000E+00 0. -1.
         21   -1    0    0  501  502 -0.00000000000E+00 -0.00000000000E+00 -0.50641810713E+03  0.50641810713E+03  0.00000000000E+00 0. -1.
         25    1    1    2    0    0  0.46965922667E+01  0.11148523716E+03 -0.34776225529E+03  0.38602409548E+03  0.12500000000E+03 0.  0.
         25    1    1    2    0    0  0.24450804860E+02 -0.82266820078E+02 -0.38213665852E+02  0.15636801400E+03  0.12500000000E+03 0.  0.
         25    1    1    2    0    0 -0.29147397126E+02 -0.29218417079E+02  0.60338769972E+02  0.14480695362E+03  0.12500000000E+03 0.  0.
</event>
<event>
 5    0  0.5786117E-005  0.2540773E+03  0.7546771E-02  0.1110755E+00
         21   -1    0    0  502  501  0.00000000000E+00  0.00000000000E+00  0.32758101655E+03  0.32758101655E+03  0.00000000000E+00 0. -1.
         21   -1    0    0  501  502 -0.00000000000E+00 -0.00000000000E+00 -0.19706665026E+03  0.19706665026E+03  0.00000000000E+00 0. -1.
         25    1    1    2    0    0  0.12755620897E+03  0.56539452391E+02 -0.26648420162E+02  0.18921531233E+03  0.12500000000E+03 0.  0.
         25    1    1    2    0    0 -0.10429450225E+03 -0.34746804963E+02  0.75724227905E+02  0.18287657681E+03  0.12500000000E+03 0.  0.
         25    1    1    2    0    0 -0.23261706720E+02 -0.21792647428E+02  0.81438558555E+02  0.15255577767E+03  0.12500000000E+03 0.  0.
</event>
<event>
 5    0  0.5786117E-005  0.2420281E+03  0.7546771E-02  0.1118449E+00
         21   -1    0    0  502  501  0.00000000000E+00  0.00000000000E+00  0.60977634503E+02  0.60977634503E+02  0.00000000000E+00 0.  1.
         21   -1    0    0  501  502 -0.00000000000E+00 -0.00000000000E+00 -0.96064053666E+03  0.96064053666E+03  0.00000000000E+00 0.  1.
         25    1    1    2    0    0  0.73314373081E+02 -0.70774361353E+02 -0.35117168992E+03  0.38643312918E+03  0.12500000000E+03 0.  0.
         25    1    1    2    0    0 -0.17241848948E+02 -0.46834392181E+02 -0.29186858799E+03  0.32140786285E+03  0.12500000000E+03 0.  0.
         25    1    1    2    0    0 -0.56072524132E+02  0.11760875353E+03 -0.25662262425E+03  0.31377717914E+03  0.12500000000E+03 0.  0.
</event>
<event>
 5    0  0.5786117E-005  0.4170813E+03  0.7546771E-02  0.1038020E+00
         21   -1    0    0  502  501  0.00000000000E+00  0.00000000000E+00  0.31636148875E+03  0.31636148875E+03  0.00000000000E+00 0. -1.
         21   -1    0    0  501  502 -0.00000000000E+00 -0.00000000000E+00 -0.54986721743E+03  0.54986721743E+03  0.00000000000E+00 0. -1.
         25    1    1    2    0    0 -0.53836608647E+00  0.30858968115E+03 -0.25178086387E+03  0.41742841849E+03  0.12500000000E+03 0.  0.
         25    1    1    2    0    0 -0.98948469599E+02 -0.17971771080E+03 -0.15698309721E+02  0.24075026924E+03  0.12500000000E+03 0.  0.
         25    1    1    2    0    0  0.99486835686E+02 -0.12887197035E+03  0.33973444914E+02  0.20805001845E+03  0.12500000000E+03 0.  0.
</event>
<event>
 5    0  0.5786117E-005  0.2552374E+03  0.7546771E-02  0.1110039E+00
         21   -1    0    0  502  501  0.00000000000E+00  0.00000000000E+00  0.99319143071E+03  0.99319143071E+03  0.00000000000E+00 0.  1.
         21   -1    0    0  501  502 -0.00000000000E+00 -0.00000000000E+00 -0.65592707235E+02  0.65592707235E+02  0.00000000000E+00 0.  1.
         25    1    1    2    0    0 -0.56723137931E+02 -0.88378692763E+02  0.25757944465E+03  0.30495979738E+03  0.12500000000E+03 0.  0.
         25    1    1    2    0    0  0.10360817851E+03  0.11909303756E+03  0.47079604813E+03  0.51204660450E+03  0.12500000000E+03 0.  0.
         25    1    1    2    0    0 -0.46885040578E+02 -0.30714344800E+02  0.19922323070E+03  0.24177773607E+03  0.12500000000E+03 0.  0.
</event>
<event>
 5    0  0.5786117E-005  0.3085013E+03  0.7546771E-02  0.1081066E+00
         21   -1    0    0  502  501  0.00000000000E+00  0.00000000000E+00  0.23799982909E+03  0.23799982909E+03  0.00000000000E+00 0.  1.
         21   -1    0    0  501  502 -0.00000000000E+00 -0.00000000000E+00 -0.39988715007E+03  0.39988715007E+03  0.00000000000E+00 0.  1.
         25    1    1    2    0    0  0.38001398219E+02  0.10738116538E+03 -0.17896120669E+03  0.24622537327E+03  0.12500000000E+03 0.  0.
         25    1    1    2    0    0  0.54185053468E+02  0.66603644479E+02  0.41328154541E+02  0.15717850309E+03  0.12500000000E+03 0.  0.
         25    1    1    2    0    0 -0.92186451687E+02 -0.17398480986E+03 -0.24254268834E+02  0.23448310279E+03  0.12500000000E+03 0.  0.
</event>
<event>
 5    0  0.5786117E-005  0.3016485E+03  0.7546771E-02  0.1084419E+00
         21   -1    0    0  502  501  0.00000000000E+00  0.00000000000E+00  0.44557104786E+02  0.44557104786E+02  0.00000000000E+00 0. -1.
         21   -1    0    0  501  502 -0.00000000000E+00 -0.00000000000E+00 -0.20421394433E+04  0.20421394433E+04  0.00000000000E+00 0. -1.
         25    1    1    2    0    0  0.96331130160E+01  0.19477562510E+03 -0.11629236977E+04  0.11857684714E+04  0.12500000000E+03 0.  0.
         25    1    1    2    0    0 -0.32362950606E+02 -0.49151504455E+02 -0.25675283716E+03  0.29156517342E+03  0.12500000000E+03 0.  0.
         25    1    1    2    0    0  0.22729837590E+02 -0.14562412064E+03 -0.57790580365E+03  0.60936290330E+03  0.12500000000E+03 0.  0.
</event>
<event>
 5    0  0.5786117E-005  0.2952132E+03  0.7546771E-02  0.1087658E+00
         21   -1    0    0  502  501  0.00000000000E+00  0.00000000000E+00  0.38136156468E+03  0.38136156468E+03  0.00000000000E+00 0.  1.
         21   -1    0    0  501  502 -0.00000000000E+00 -0.00000000000E+00 -0.22852550308E+03  0.22852550308E+03  0.00000000000E+00 0.  1.
         25    1    1    2    0    0  0.71838688910E+02  0.61033901379E+02  0.24433632198E+03  0.29019161356E+03  0.12500000000E+03 0.  0.
         25    1    1    2    0    0  0.26769264538E+02  0.17082015609E+02 -0.39652342999E+02  0.13492848879E+03  0.12500000000E+03 0.  0.
         25    1    1    2    0    0 -0.98607953448E+02 -0.78115916988E+02 -0.51847917378E+02  0.18476696541E+03  0.12500000000E+03 0.  0.
</event>
<event>
 5    0  0.5786117E-005  0.4151559E+03  0.7546771E-02  0.1038655E+00
         21   -1    0    0  502  501  0.00000000000E+00  0.00000000000E+00  0.69241760857E+03  0.69241760857E+03  0.00000000000E+00 0. -1.
         21   -1    0    0  501  502 -0.00000000000E+00 -0.00000000000E+00 -0.24891690103E+03  0.24891690103E+03  0.00000000000E+00 0. -1.
         25    1    1    2    0    0  0.10284812473E+03 -0.19799411053E+03  0.39759979731E+03  0.47274729337E+03  0.12500000000E+03 0.  0.
         25    1    1    2    0    0  0.68283847897E+02  0.43341510048E+02 -0.89131401427E+02  0.17352399574E+03  0.12500000000E+03 0.  0.
         25    1    1    2    0    0 -0.17113197263E+03  0.15465260048E+03  0.13503231166E+03  0.29506322049E+03  0.12500000000E+03 0.  0.
</event>
<event>
 5    0  0.5786117E-005  0.4174509E+03  0.7546771E-02  0.1037899E+00
         21   -1    0    0  502  501  0.00000000000E+00  0.00000000000E+00  0.23069544038E+03  0.23069544038E+03  0.00000000000E+00 0. -1.
         21   -1    0    0  501  502 -0.00000000000E+00 -0.00000000000E+00 -0.75539106732E+03  0.75539106732E+03  0.00000000000E+00 0. -1.
         25    1    1    2    0    0 -0.26487845473E+03  0.51652256052E+02 -0.42824011935E+03  0.52138579877E+03  0.12500000000E+03 0.  0.
         25    1    1    2    0    0  0.22785009969E+03 -0.13762203767E+03 -0.93244965291E+02  0.30850464621E+03  0.12500000000E+03 0.  0.
         25    1    1    2    0    0  0.37028355038E+02  0.85969781613E+02 -0.32105422942E+01  0.15619606272E+03  0.12500000000E+03 0.  0.
</event>
<event>
 5    0  0.5786117E-005  0.2799177E+03  0.7546771E-02  0.1095734E+00
         21   -1    0    0  502  501  0.00000000000E+00  0.00000000000E+00  0.78201943665E+02  0.78201943665E+02  0.00000000000E+00 0.  1.
         21   -1    0    0  501  502 -0.00000000000E+00 -0.00000000000E+00 -0.10019436927E+04  0.10019436927E+04  0.00000000000E+00 0.  1.
         25    1    1    2    0    0  0.12672542567E+03  0.20478545726E+02 -0.33289987600E+03  0.37805559351E+03  0.12500000000E+03 0.  0.
         25    1    1    2    0    0  0.33815046149E+02  0.66605188043E+02 -0.15140499624E+03  0.21006708764E+03  0.12500000000E+03 0.  0.
         25    1    1    2    0    0 -0.16054047182E+03 -0.87083733769E+02 -0.43943687683E+03  0.49202295526E+03  0.12500000000E+03 0.  0.
</event>
<event>
 5    0  0.5786117E-005  0.2435510E+03  0.7546771E-02  0.1117450E+00
         21   -1    0    0  502  501  0.00000000000E+00  0.00000000000E+00  0.66245841844E+02  0.66245841844E+02  0.00000000000E+00 0.  1.
         21   -1    0    0  501  502 -0.00000000000E+00 -0.00000000000E+00 -0.89540833539E+03  0.89540833539E+03  0.00000000000E+00 0.  1.
         25    1    1    2    0    0 -0.41802512515E+02 -0.12508070231E+03 -0.32948606257E+03  0.37626944810E+03  0.12500000000E+03 0.  0.
         25    1    1    2    0    0  0.28641622783E+02  0.11222056319E+03 -0.35168325618E+03  0.39079394831E+03  0.12500000000E+03 0.  0.
         25    1    1    2    0    0  0.13160889732E+02  0.12860139114E+02 -0.14799317480E+03  0.19459078083E+03  0.12500000000E+03 0.  0.
</event>
<event>
 5    0  0.5786117E-005  0.2356185E+03  0.7546771E-02  0.1122747E+00
         21   -1    0    0  502  501  0.00000000000E+00  0.00000000000E+00  0.12616729314E+03  0.12616729314E+03  0.00000000000E+00 0. -1.
         21   -1    0    0  501  502 -0.00000000000E+00 -0.00000000000E+00 -0.44001947701E+03  0.44001947701E+03  0.00000000000E+00 0. -1.
         25    1    1    2    0    0 -0.29918875470E+01  0.54982383380E+02 -0.24883578789E+03  0.28385958361E+03  0.12500000000E+03 0.  0.
         25    1    1    2    0    0  0.32279554266E+02 -0.48009010007E+02 -0.68232657003E+02  0.15371249184E+03  0.12500000000E+03 0.  0.
         25    1    1    2    0    0 -0.29287666719E+02 -0.69733733730E+01  0.32162610266E+01  0.12861469470E+03  0.12500000000E+03 0.  0.
</event>
<event>
 5    0  0.5786117E-005  0.2802132E+03  0.7546771E-02  0.1095573E+00
         21   -1    0    0  502  501  0.00000000000E+00  0.00000000000E+00  0.20176499123E+03  0.20176499123E+03  0.00000000000E+00 0. -1.
         21   -1    0    0  501  502 -0.00000000000E+00 -0.00000000000E+00 -0.38916282622E+03  0.38916282622E+03  0.00000000000E+00 0. -1.
         25    1    1    2    0    0 -0.14175729171E+03 -0.48212708694E+02 -0.13440912845E+03  0.23687635771E+03  0.12500000000E+03 0.  0.
         25    1    1    2    0    0 -0.30991116461E+02 -0.60301541359E+01 -0.33265598678E+02  0.13314808340E+03  0.12500000000E+03 0.  0.
         25    1    1    2    0    0  0.17274840817E+03  0.54242862830E+02 -0.19723107864E+02  0.22090337634E+03  0.12500000000E+03 0.  0.
</event>
<event>
 5    0  0.5786117E-005  0.2636318E+03  0.7546771E-02  0.1104981E+00
         21   -1    0    0  502  501  0.00000000000E+00  0.00000000000E+00  0.32204931135E+03  0.32204931135E+03  0.00000000000E+00 0. -1.
         21   -1    0    0  501  502 -0.00000000000E+00 -0.00000000000E+00 -0.21581087676E+03  0.21581087676E+03  0.00000000000E+00 0. -1.
         25    1    1    2    0    0  0.12146095644E+03 -0.65510925563E+02  0.14723057618E+03  0.23737373037E+03  0.12500000000E+03 0.  0.
         25    1    1    2    0    0 -0.15730027286E+02  0.35758834976E+02 -0.24910531065E+02  0.13331039943E+03  0.12500000000E+03 0.  0.
         25    1    1    2    0    0 -0.10573092916E+03  0.29752090588E+02 -0.16081610527E+02  0.16717605831E+03  0.12500000000E+03 0.  0.
</event>
<event>
 5    0  0.5786117E-005  0.3192459E+03  0.7546771E-02  0.1075997E+00
         21   -1    0    0  502  501  0.00000000000E+00  0.00000000000E+00  0.35116950297E+03  0.35116950297E+03  0.00000000000E+00 0. -1.
         21   -1    0    0  501  502 -0.00000000000E+00 -0.00000000000E+00 -0.29022435688E+03  0.29022435688E+03  0.00000000000E+00 0. -1.
         25    1    1    2    0    0  0.13768679842E+03  0.43345173274E+02  0.48318813821E+02  0.19696742440E+03  0.12500000000E+03 0.  0.
         25    1    1    2    0    0 -0.23027484664E+03  0.43049643207E+02  0.20480910877E+02  0.26631606126E+03  0.12500000000E+03 0.  0.
         25    1    1    2    0    0  0.92588048219E+02 -0.86394816481E+02 -0.78545786098E+01  0.17811037419E+03  0.12500000000E+03 0.  0.
</event>
<event>
 5    0  0.5786117E-005  0.3454653E+03  0.7546771E-02  0.1064492E+00
         21   -1    0    0  502  501  0.00000000000E+00  0.00000000000E+00  0.67121846521E+03  0.67121846521E+03  0.00000000000E+00 0.  1.
         21   -1    0    0  501  502 -0.00000000000E+00 -0.00000000000E+00 -0.17780542490E+03  0.17780542490E+03  0.00000000000E+00 0.  1.
         25    1    1    2    0    0 -0.75699876919E+02  0.13138498280E+03  0.24591882338E+03  0.31479128445E+03  0.12500000000E+03 0.  0.
         25    1    1    2    0    0 -0.26347440404E+00 -0.18760958499E+03  0.29426673199E+03  0.37069574499E+03  0.12500000000E+03 0.  0.
         25    1    1    2    0    0  0.75963351323E+02  0.56224602192E+02 -0.46772515063E+02  0.16353686068E+03  0.12500000000E+03 0.  0.
</event>
<event>
 5    0  0.6816746E-005  0.2990219E+03  0.7546771E-02  0.1085731E+00
         21   -1    0    0  502  501  0.00000000000E+00  0.00000000000E+00  0.62823208066E+03  0.62823208066E+03  0.00000000000E+00 0.  1.
         21   -1    0    0  501  502 -0.00000000000E+00 -0.00000000000E+00 -0.14232653307E+03  0.14232653307E+03  0.00000000000E+00 0.  1.
         25    1    1    2    0    0  0.17390433642E+02 -0.19940844610E+03  0.17122412537E+03  0.29156278340E+03  0.12500000000E+03 0.  0.
         25    1    1    2    0    0  0.63497075671E+02  0.81128431849E+02  0.19832013597E+03  0.25606557247E+03  0.12500000000E+03 0.  0.
         25    1    1    2    0    0 -0.80887509314E+02  0.11828001425E+03  0.11636128625E+03  0.22293025787E+03  0.12500000000E+03 0.  0.
</event>
<event>
 5    0  0.5786117E-005  0.3230762E+03  0.7546771E-02  0.1074242E+00
         21   -1    0    0  502  501  0.00000000000E+00  0.00000000000E+00  0.35931078932E+03  0.35931078932E+03  0.00000000000E+00 0.  1.
         21   -1    0    0  501  502 -0.00000000000E+00 -0.00000000000E+00 -0.29049575544E+03  0.29049575544E+03  0.00000000000E+00 0.  1.
         25    1    1    2    0    0 -0.11343137919E+03 -0.10606439105E+03  0.13416102951E+03  0.24029256058E+03  0.12500000000E+03 0.  0.
         25    1    1    2    0    0 -0.82086257564E+02  0.10713414650E+01 -0.25741350143E+02  0.15174623080E+03  0.12500000000E+03 0.  0.
         25    1    1    2    0    0  0.19551763675E+03  0.10499304959E+03 -0.39604645484E+02  0.25776775339E+03  0.12500000000E+03 0.  0.
</event>
<event>
 5    0  0.5786117E-005  0.3819463E+03  0.7546771E-02  0.1050217E+00
         21   -1    0    0  502  501  0.00000000000E+00  0.00000000000E+00  0.58204908408E+02  0.58204908408E+02  0.00000000000E+00 0. -1.
         21   -1    0    0  501  502 -0.00000000000E+00 -0.00000000000E+00 -0.25063686371E+04  0.25063686371E+04  0.00000000000E+00 0. -1.
         25    1    1    2    0    0 -0.40729089403E+02  0.69352636610E+02 -0.90841602815E+03  0.92049623960E+03  0.12500000000E+03 0.  0.
         25    1    1    2    0    0 -0.22302770155E+02 -0.68259860725E+02 -0.57452584213E+02  0.15518576473E+03  0.12500000000E+03 0.  0.
         25    1    1    2    0    0  0.63031859558E+02 -0.10927758850E+01 -0.14822951163E+04  0.14888915412E+04  0.12500000000E+03 0.  0.
</event>
<event>
 5    0  0.5786117E-005  0.2936253E+03  0.7546771E-02  0.1088471E+00
         21   -1    0    0  502  501  0.00000000000E+00  0.00000000000E+00  0.64743996865E+03  0.64743996865E+03  0.00000000000E+00 0.  1.
         21   -1    0    0  501  502 -0.00000000000E+00 -0.00000000000E+00 -0.13316418822E+03  0.13316418822E+03  0.00000000000E+00 0.  1.
         25    1    1    2    0    0 -0.85369760451E+02 -0.44896199327E+02  0.68943587471E+02  0.17228430853E+03  0.12500000000E+03 0.  0.
         25    1    1    2    0    0  0.91182724077E+02 -0.76495558122E+02  0.38822512610E+03  0.42486422316E+03  0.12500000000E+03 0.  0.
         25    1    1    2    0    0 -0.58129636255E+01  0.12139175745E+03  0.57107066860E+02  0.18345562517E+03  0.12500000000E+03 0.  0.
</event>
<event>
 5    0  0.5786117E-005  0.2560851E+03  0.7546771E-02  0.1109518E+00
         21   -1    0    0  502  501  0.00000000000E+00  0.00000000000E+00  0.43180965531E+03  0.43180965531E+03  0.00000000000E+00 0.  1.
         21   -1    0    0  501  502 -0.00000000000E+00 -0.00000000000E+00 -0.15187147633E+03  0.15187147633E+03  0.00000000000E+00 0.  1.
         25    1    1    2    0    0  0.40153879526E+02  0.62252581824E+02  0.22948296967E+03  0.27161581573E+03  0.12500000000E+03 0.  0.
         25    1    1    2    0    0  0.31180693445E+02 -0.77996772390E+02 -0.18443731430E+02  0.15172640962E+03  0.12500000000E+03 0.  0.
         25    1    1    2    0    0 -0.71334572971E+02  0.15744190566E+02  0.68898940740E+02  0.16033890630E+03  0.12500000000E+03 0.  0.
</event>
<event>
 5    0  0.5786117E-005  0.3983958E+03  0.7546771E-02  0.1044337E+00
         21   -1    0    0  502  501  0.00000000000E+00  0.00000000000E+00  0.28574824292E+03  0.28574824292E+03  0.00000000000E+00 0. -1.
         21   -1    0    0  501  502 -0.00000000000E+00 -0.00000000000E+00 -0.55545132765E+03  0.55545132765E+03  0.00000000000E+00 0. -1.
         25    1    1    2    0    0  0.14748757014E+01 -0.63868816084E+02 -0.32797404054E+03  0.35675393789E+03  0.12500000000E+03 0.  0.
         25    1    1    2    0    0  0.67003355139E+02  0.21217258504E+03 -0.36797869321E+02  0.25784828607E+03  0.12500000000E+03 0.  0.
         25    1    1    2    0    0 -0.68478230840E+02 -0.14830376895E+03  0.95068825135E+02  0.22659734663E+03  0.12500000000E+03 0.  0.
</event>
<event>
 5    0  0.5786117E-005  0.3921188E+03  0.7546771E-02  0.1046543E+00
         21   -1    0    0  502  501  0.00000000000E+00  0.00000000000E+00  0.10998213761E+04  0.10998213761E+04  0.00000000000E+00 0. -1.
         21   -1    0    0  501  502 -0.00000000000E+00 -0.00000000000E+00 -0.13980196531E+03  0.13980196531E+03  0.00000000000E+00 0. -1.
         25    1    1    2    0    0  0.12800330098E+03 -0.83203845473E+02  0.68032792668E+02  0.20871316643E+03  0.12500000000E+03 0.  0.
         25    1    1    2    0    0 -0.26698834773E+03  0.36363875006E+02  0.36994298895E+03  0.47443432032E+03  0.12500000000E+03 0.  0.
         25    1    1    2    0    0  0.13898504675E+03  0.46839970467E+02  0.52204362913E+03  0.55647585461E+03  0.12500000000E+03 0.  0.
</event>
<event>
 5    0  0.5786117E-005  0.4107451E+03  0.7546771E-02  0.1040121E+00
         21   -1    0    0  502  501  0.00000000000E+00  0.00000000000E+00  0.36791937540E+03  0.36791937540E+03  0.00000000000E+00 0.  1.
         21   -1    0    0  501  502 -0.00000000000E+00 -0.00000000000E+00 -0.45855581123E+03  0.45855581123E+03  0.00000000000E+00 0.  1.
         25    1    1    2    0    0 -0.11160471412E+03 -0.38121724509E+02 -0.10670859260E+01  0.17185754789E+03  0.12500000000E+03 0.  0.
         25    1    1    2    0    0  0.31031502093E+03  0.16295542551E+03 -0.10974999294E+03  0.38796899860E+03  0.12500000000E+03 0.  0.
         25    1    1    2    0    0 -0.19871030682E+03 -0.12483370100E+03  0.20180643040E+02  0.26664864015E+03  0.12500000000E+03 0.  0.
</event>
<event>
 5    0  0.5786117E-005  0.2892037E+03  0.7546771E-02  0.1090766E+00
         21   -1    0    0  502  501  0.00000000000E+00  0.00000000000E+00  0.14462420256E+03  0.14462420256E+03  0.00000000000E+00 0. -1.
         21   -1    0    0  501  502 -0.00000000000E+00 -0.00000000000E+00 -0.57831808243E+03  0.57831808243E+03  0.00000000000E+00 0. -1.
         25    1    1    2    0    0  0.75001327046E+01 -0.22364788736E+02 -0.78386888450E+02  0.14941867369E+03  0.12500000000E+03 0.  0.
         25    1    1    2    0    0  0.15550688445E+03  0.10787712428E+03 -0.19734101162E+03  0.30064653652E+03  0.12500000000E+03 0.  0.
         25    1    1    2    0    0 -0.16300701715E+03 -0.85512335540E+02 -0.15796597980E+03  0.27287707478E+03  0.12500000000E+03 0.  0.
</event>
<event>
 5    0  0.5786117E-005  0.3841162E+03  0.7546771E-02  0.1049423E+00
         21   -1    0    0  502  501  0.00000000000E+00  0.00000000000E+00  0.24534414492E+03  0.24534414492E+03  0.00000000000E+00 0.  1.
         21   -1    0    0  501  502 -0.00000000000E+00 -0.00000000000E+00 -0.60138087240E+03  0.60138087240E+03  0.00000000000E+00 0.  1.
         25    1    1    2    0    0  0.20464369856E+02  0.20356138947E+03 -0.80243353405E+02  0.25282409988E+03  0.12500000000E+03 0.  0.
         25    1    1    2    0    0  0.15064118814E+03 -0.23673194476E+03 -0.12461719572E+03  0.33149543994E+03  0.12500000000E+03 0.  0.
         25    1    1    2    0    0 -0.17110555800E+03  0.33170555296E+02 -0.15117617836E+03  0.26240547750E+03  0.12500000000E+03 0.  0.
</event>
<event>
 5    0  0.5786117E-005  0.3071059E+03  0.7546771E-02  0.1081741E+00
         21   -1    0    0  502  501  0.00000000000E+00  0.00000000000E+00  0.22351169823E+03  0.22351169823E+03  0.00000000000E+00 0.  1.
         21   -1    0    0  501  502 -0.00000000000E+00 -0.00000000000E+00 -0.42196461175E+03  0.42196461175E+03  0.00000000000E+00 0.  1.
         25    1    1    2    0    0  0.41675557547E+02  0.11950984305E+03 -0.70354122905E+01  0.17802795204E+03  0.12500000000E+03 0.  0.
         25    1    1    2    0    0 -0.26126941689E+02 -0.59835103067E+01 -0.25587813425E+03  0.28603677922E+03  0.12500000000E+03 0.  0.
         25    1    1    2    0    0 -0.15548615858E+02 -0.11352633274E+03  0.64460633021E+02  0.18141157871E+03  0.12500000000E+03 0.  0.
</event>
<event>
 5    0  0.5786117E-005  0.2988242E+03  0.7546771E-02  0.1085830E+00
         21   -1    0    0  502  501  0.00000000000E+00  0.00000000000E+00  0.70544672718E+03  0.70544672718E+03  0.00000000000E+00 0.  1.
         21   -1    0    0  501  502 -0.00000000000E+00 -0.00000000000E+00 -0.12658066399E+03  0.12658066399E+03  0.00000000000E+00 0.  1.
         25    1    1    2    0    0 -0.96994080407E+02  0.12180374927E+03  0.38806825322E+02  0.20340839378E+03  0.12500000000E+03 0.  0.
         25    1    1    2    0    0  0.94643221388E+02 -0.15436147699E+02  0.26124227593E+03  0.30507071434E+03  0.12500000000E+03 0.  0.
         25    1    1    2    0    0  0.23508590188E+01 -0.10636760157E+03  0.27881696193E+03  0.32354828305E+03  0.12500000000E+03 0.  0.
</event>
<event>
 5    0  0.5786117E-005  0.3059748E+03  0.7546771E-02  0.1082291E+00
         21   -1    0    0  502  501  0.00000000000E+00  0.00000000000E+00  0.25531202936E+03  0.25531202936E+03  0.00000000000E+00 0.  1.
         21   -1    0    0  501  502 -0.00000000000E+00 -0.00000000000E+00 -0.36669075151E+03  0.36669075151E+03  0.00000000000E+00 0.  1.
         25    1    1    2    0    0 -0.23509411162E+02 -0.67223738737E+02 -0.64351572404E+02  0.15760028025E+03  0.12500000000E+03 0.  0.
         25    1    1    2    0    0 -0.14036030087E+03 -0.80671462430E+02 -0.50609291342E+02  0.21070168315E+03  0.12500000000E+03 0.  0.
         25    1    1    2    0    0  0.16386971203E+03  0.14789520117E+03  0.35821415893E+01  0.25370081748E+03  0.12500000000E+03 0.  0.
</event>
<event>
 5    0  0.5786117E-005  0.2968444E+03  0.7546771E-02  0.1086829E+00
         21   -1    0    0  502  501  0.00000000000E+00  0.00000000000E+00  0.14048200524E+04  0.14048200524E+04  0.00000000000E+00 0.  1.
         21   -1    0    0  501  502 -0.00000000000E+00 -0.00000000000E+00 -0.62724468984E+02  0.62724468984E+02  0.00000000000E+00 0.  1.
         25    1    1    2    0    0 -0.42111462485E+02 -0.44089590453E+02  0.29388204128E+03  0.32512908429E+03  0.12500000000E+03 0.  0.
         25    1    1    2    0    0  0.19581469245E+03 -0.22394064209E+02  0.68128434938E+03  0.72015154835E+03  0.12500000000E+03 0.  0.
         25    1    1    2    0    0 -0.15370322997E+03  0.66483654662E+02  0.36692919275E+03  0.42226388874E+03  0.12500000000E+03 0.  0.
</event>
<event>
 5    0  0.5786117E-005  0.3684185E+03  0.7546771E-02  0.1055299E+00
         21   -1    0    0  502  501  0.00000000000E+00  0.00000000000E+00  0.75866678655E+03  0.75866678655E+03  0.00000000000E+00 0. -1.
         21   -1    0    0  501  502 -0.00000000000E+00 -0.00000000000E+00 -0.17890888270E+03  0.17890888270E+03  0.00000000000E+00 0. -1.
         25    1    1    2    0    0  0.77910077741E+02  0.18699474607E+03  0.50453732964E+03  0.55787089211E+03  0.12500000000E+03 0.  0.
         25    1    1    2    0    0 -0.14278802847E+02 -0.19048441126E+03  0.71972168248E+02  0.23935995518E+03  0.12500000000E+03 0.  0.
         25    1    1    2    0    0 -0.63631274894E+02  0.34896651928E+01  0.32484059719E+01  0.14034482195E+03  0.12500000000E+03 0.  0.
</event>
<event>
 5    0  0.5786117E-005  0.2378439E+03  0.7546771E-02  0.1121238E+00
         21   -1    0    0  502  501  0.00000000000E+00  0.00000000000E+00  0.75387457099E+03  0.75387457099E+03  0.00000000000E+00 0. -1.
         21   -1    0    0  501  502 -0.00000000000E+00 -0.00000000000E+00 -0.75038613370E+02  0.75038613370E+02  0.00000000000E+00 0. -1.
         25    1    1    2    0    0  0.73608304309E+02 -0.10868341591E+03  0.18607895805E+03  0.25977037165E+03  0.12500000000E+03 0.  0.
         25    1    1    2    0    0 -0.41577539051E+02  0.71791658586E+02  0.27801505966E+03  0.31591154995E+03  0.12500000000E+03 0.  0.
         25    1    1    2    0    0 -0.32030765258E+02  0.36891757327E+02  0.21474193991E+03  0.25323126276E+03  0.12500000000E+03 0.  0.
</event>
<event>
 5    0  0.5786117E-005  0.3033257E+03  0.7546771E-02  0.1083590E+00
         21   -1    0    0  502  501  0.00000000000E+00  0.00000000000E+00  0.26948179216E+03  0.26948179216E+03  0.00000000000E+00 0. -1.
         21   -1    0    0  501  502 -0.00000000000E+00 -0.00000000000E+00 -0.34142010130E+03  0.34142010130E+03  0.00000000000E+00 0. -1.
         25    1    1    2    0    0  0.13232353814E+02  0.10143175795E+03 -0.98142206083E+01  0.16181722910E+03  0.12500000000E+03 0.  0.
         25    1    1    2    0    0  0.10724601900E+02 -0.23037337951E+03 -0.53387003471E+02  0.26769774600E+03  0.12500000000E+03 0.  0.
         25    1    1    2    0    0 -0.23956955714E+02  0.12894162157E+03 -0.87370850615E+01  0.18138691837E+03  0.12500000000E+03 0.  0.
</event>
<event>
 5    0  0.5786117E-005  0.3436619E+03  0.7546771E-02  0.1065247E+00
         21   -1    0    0  502  501  0.00000000000E+00  0.00000000000E+00  0.16496795071E+03  0.16496795071E+03  0.00000000000E+00 0. -1.
         21   -1    0    0  501  502 -0.00000000000E+00 -0.00000000000E+00 -0.71591797877E+03  0.71591797877E+03  0.00000000000E+00 0. -1.
         25    1    1    2    0    0 -0.97111854023E+02  0.13204853730E+03 -0.43812352924E+02  0.21074166807E+03  0.12500000000E+03 0.  0.
         25    1    1    2    0    0  0.11637574729E+03 -0.20740568733E+03 -0.42143376766E+03  0.49979181088E+03  0.12500000000E+03 0.  0.
         25    1    1    2    0    0 -0.19263893264E+02  0.75357150037E+02 -0.85703907470E+02  0.17035245053E+03  0.12500000000E+03 0.  0.
</event>
<event>
 5    0  0.5786117E-005  0.2535561E+03  0.7546771E-02  0.1111078E+00
         21   -1    0    0  502  501  0.00000000000E+00  0.00000000000E+00  0.18773915481E+03  0.18773915481E+03  0.00000000000E+00 0. -1.
         21   -1    0    0  501  502 -0.00000000000E+00 -0.00000000000E+00 -0.34244703264E+03  0.34244703264E+03  0.00000000000E+00 0. -1.
         25    1    1    2    0    0  0.65040666478E+02 -0.10198028563E+03 -0.84201606637E+02  0.19324900391E+03  0.12500000000E+03 0.  0.
         25    1    1    2    0    0  0.56393108103E+02  0.47640277678E+02 -0.48540591420E+02  0.15307177308E+03  0.12500000000E+03 0.  0.
         25    1    1    2    0    0 -0.12143377458E+03  0.54340007955E+02 -0.21965679766E+02  0.18386541045E+03  0.12500000000E+03 0.  0.
</event>
<event>
 5    0  0.5786117E-005  0.2814535E+03  0.7546771E-02  0.1094898E+00
         21   -1    0    0  502  501  0.00000000000E+00  0.00000000000E+00  0.13279507735E+04  0.13279507735E+04  0.00000000000E+00 0.  1.
         21   -1    0    0  501  502 -0.00000000000E+00 -0.00000000000E+00 -0.59652856348E+02  0.59652856348E+02  0.00000000000E+00 0.  1.
         25    1    1    2    0    0  0.69087790669E+02 -0.17381556314E+02  0.82844412643E+03  0.84084476090E+03  0.12500000000E+03 0.  0.
         25    1    1    2    0    0 -0.10489805075E+03  0.72866424740E+02  0.19889562962E+03  0.26739032965E+03  0.12500000000E+03 0.  0.
         25    1    1    2    0    0  0.35810260086E+02 -0.55484868426E+02  0.24095816113E+03  0.27936853933E+03  0.12500000000E+03 0.  0.
</event>
<event>
 5    0  0.5786117E-005  0.3791168E+03  0.7546771E-02  0.1051261E+00
         21   -1    0    0  502  501  0.00000000000E+00  0.00000000000E+00  0.20596188485E+04  0.20596188485E+04  0.00000000000E+00 0. -1.
         21   -1    0    0  501  502 -0.00000000000E+00 -0.00000000000E+00 -0.69784541619E+02  0.69784541619E+02  0.00000000000E+00 0. -1.
         25    1    1    2    0    0  0.20465309942E+03  0.19257840726E+03  0.63418488876E+03  0.70482962989E+03  0.12500000000E+03 0.  0.
         25    1    1    2    0    0 -0.18931944693E+03 -0.16541422947E+03  0.66225864532E+03  0.71931580936E+03  0.12500000000E+03 0.  0.
         25    1    1    2    0    0 -0.15333652492E+02 -0.27164177795E+02  0.69339077281E+03  0.70525795088E+03  0.12500000000E+03 0.  0.
</event>
<event>
 5    0  0.5786117E-005  0.3229783E+03  0.7546771E-02  0.1074287E+00
         21   -1    0    0  502  501  0.00000000000E+00  0.00000000000E+00  0.45652036926E+03  0.45652036926E+03  0.00000000000E+00 0. -1.
         21   -1    0    0  501  502 -0.00000000000E+00 -0.00000000000E+00 -0.22850023997E+03  0.22850023997E+03  0.00000000000E+00 0. -1.
         25    1    1    2    0    0  0.61926485280E+02 -0.13371549180E+03  0.29759327898E+03  0.35482598837E+03  0.12500000000E+03 0.  0.
         25    1    1    2    0    0 -0.87883457396E+02  0.64507349025E+02 -0.80892254083E+02  0.18453524577E+03  0.12500000000E+03 0.  0.
         25    1    1    2    0    0  0.25956972116E+02  0.69208142778E+02  0.11319104390E+02  0.14565937509E+03  0.12500000000E+03 0.  0.
</event>
<event>
 5    0  0.5786117E-005  0.3178621E+03  0.7546771E-02  0.1076637E+00
         21   -1    0    0  502  501  0.00000000000E+00  0.00000000000E+00  0.50536249026E+03  0.50536249026E+03  0.00000000000E+00 0.  1.
         21   -1    0    0  501  502 -0.00000000000E+00 -0.00000000000E+00 -0.19992838627E+03  0.19992838627E+03  0.00000000000E+00 0.  1.
         25    1    1    2    0    0  0.30017192715E+02  0.20276650709E+03  0.81281787895E+02  0.25346995344E+03  0.12500000000E+03 0.  0.
         25    1    1    2    0    0  0.44165980099E+02 -0.71742800922E+02  0.20603761426E+03  0.25529230653E+03  0.12500000000E+03 0.  0.
         25    1    1    2    0    0 -0.74183172814E+02 -0.13102370617E+03  0.18114701832E+02  0.19652861656E+03  0.12500000000E+03 0.  0.
</event>
<event>
 5    0  0.5786117E-005  0.2880352E+03  0.7546771E-02  0.1091379E+00
         21   -1    0    0  502  501  0.00000000000E+00  0.00000000000E+00  0.11256768513E+03  0.11256768513E+03  0.00000000000E+00 0.  1.
         21   -1    0    0  501  502 -0.00000000000E+00 -0.00000000000E+00 -0.73701695554E+03  0.73701695554E+03  0.00000000000E+00 0.  1.
         25    1    1    2    0    0 -0.41881403275E+01 -0.18112245051E+03 -0.17940898378E+03  0.28396384640E+03  0.12500000000E+03 0.  0.
         25    1    1    2    0    0  0.27550843390E+02  0.17986731300E+03 -0.30416723923E+03  0.37583774249E+03  0.12500000000E+03 0.  0.
         25    1    1    2    0    0 -0.23362703063E+02  0.12551375057E+01 -0.14087304740E+03  0.18978305179E+03  0.12500000000E+03 0.  0.
</event>
<event>
 5    0  0.5786117E-005  0.4647735E+03  0.7546771E-02  0.1023406E+00
         21   -1    0    0  502  501  0.00000000000E+00  0.00000000000E+00  0.11840852289E+04  0.11840852289E+04  0.00000000000E+00 0.  1.
         21   -1    0    0  501  502 -0.00000000000E+00 -0.00000000000E+00 -0.18243146856E+03  0.18243146856E+03  0.00000000000E+00 0.  1.
         25    1    1    2    0    0 -0.15759002924E+03 -0.17689566700E+03  0.81011404543E+03  0.85325052647E+03  0.12500000000E+03 0.  0.
         25    1    1    2    0    0  0.17996204249E+03  0.20367050066E+03  0.22284105947E+02  0.29998265109E+03  0.12500000000E+03 0.  0.
         25    1    1    2    0    0 -0.22372013250E+02 -0.26774833656E+02  0.16925560893E+03  0.21328351987E+03  0.12500000000E+03 0.  0.
</event>
<event>
 5    0  0.6381590E-005  0.2978895E+03  0.7546771E-02  0.1086300E+00
         21   -1    0    0  502  501  0.00000000000E+00  0.00000000000E+00  0.30009445665E+03  0.30009445665E+03  0.00000000000E+00 0. -1.
         21   -1    0    0  501  502 -0.00000000000E+00 -0.00000000000E+00 -0.29570076115E+03  0.29570076115E+03  0.00000000000E+00 0. -1.
         25    1    1    2    0    0 -0.12908351287E+03 -0.20926599392E+02  0.23492130856E+02  0.18242082137E+03  0.12500000000E+03 0.  0.
         25    1    1    2    0    0  0.13861811444E+03 -0.11127958677E+03  0.41761158253E+02  0.22128516087E+03  0.12500000000E+03 0.  0.
         25    1    1    2    0    0 -0.95346015725E+01  0.13220618616E+03 -0.60859593611E+02  0.19208923557E+03  0.12500000000E+03 0.  0.
</event>
<event>
 5    0  0.5786117E-005  0.2789095E+03  0.7546771E-02  0.1096286E+00
         21   -1    0    0  502  501  0.00000000000E+00  0.00000000000E+00  0.11119809747E+04  0.11119809747E+04  0.00000000000E+00 0.  1.
         21   -1    0    0  501  502 -0.00000000000E+00 -0.00000000000E+00 -0.69956677701E+02  0.69956677701E+02  0.00000000000E+00 0.  1.
         25    1    1    2    0    0 -0.98558961215E+02  0.46507326886E+02  0.43468647392E+03  0.46524631207E+03  0.12500000000E+03 0.  0.
         25    1    1    2    0    0  0.72782457941E+02 -0.15548902894E+03  0.32470365183E+03  0.38798400201E+03  0.12500000000E+03 0.  0.
         25    1    1    2    0    0  0.25776503274E+02  0.10898170206E+03  0.28263417127E+03  0.32870733833E+03  0.12500000000E+03 0.  0.
</event>
<event>
 5    0  0.5786117E-005  0.2602148E+03  0.7546771E-02  0.1107014E+00
         21   -1    0    0  502  501  0.00000000000E+00  0.00000000000E+00  0.16069423718E+04  0.16069423718E+04  0.00000000000E+00 0. -1.
         21   -1    0    0  501  502 -0.00000000000E+00 -0.00000000000E+00 -0.42137014128E+02  0.42137014128E+02  0.00000000000E+00 0. -1.
         25    1    1    2    0    0  0.52514688423E+01  0.14033034345E+02  0.21368332290E+03  0.24801223047E+03  0.12500000000E+03 0.  0.
         25    1    1    2    0    0 -0.40138494217E+02  0.12069730190E+03  0.54134163067E+03  0.56996026046E+03  0.12500000000E+03 0.  0.
         25    1    1    2    0    0  0.34887025375E+02 -0.13473033625E+03  0.80978040410E+03  0.83110689499E+03  0.12500000000E+03 0.  0.
</event>
<event>
 5    0  0.5786117E-005  0.2939432E+03  0.7546771E-02  0.1088308E+00
         21   -1    0    0  502  501  0.00000000000E+00  0.00000000000E+00  0.38920609459E+02  0.38920609459E+02  0.00000000000E+00 0. -1.
         21   -1    0    0  501  502 -0.00000000000E+00 -0.00000000000E+00 -0.22199706472E+04  0.22199706472E+04  0.00000000000E+00 0. -1.
         25    1    1    2    0    0  0.11661984805E+03  0.13717590282E+03 -0.86676593388E+03  0.89405011124E+03  0.12500000000E+03 0.  0.
         25    1    1    2    0    0  0.71512729726E+01  0.25972790220E+02 -0.43357794296E+03  0.45204043974E+03  0.12500000000E+03 0.  0.
         25    1    1    2    0    0 -0.12377112103E+03 -0.16314869304E+03 -0.88070616085E+03  0.91280070563E+03  0.12500000000E+03 0.  0.
</event>
<event>
 5    0  0.5786117E-005  0.2730770E+03  0.7546771E-02  0.1099531E+00
         21   -1    0    0  502  501  0.00000000000E+00  0.00000000000E+00  0.12898641196E+03  0.12898641196E+03  0.00000000000E+00 0.  1.
         21   -1    0    0  501  502 -0.00000000000E+00 -0.00000000000E+00 -0.57813120043E+03  0.57813120043E+03  0.00000000000E+00 0.  1.
         25    1    1    2    0    0 -0.14874204141E+03 -0.30938703473E+02 -0.22569935454E+03  0.29941041548E+03  0.12500000000E+03 0.  0.
         25    1    1    2    0    0  0.10053121088E+03 -0.19327626476E+02 -0.25674388766E+02  0.16359784761E+03  0.12500000000E+03 0.  0.
         25    1    1    2    0    0  0.48210830533E+02  0.50266329948E+02 -0.19777104517E+03  0.24410934930E+03  0.12500000000E+03 0.  0.
</event>
<event>
 5    0  0.5786117E-005  0.3012761E+03  0.7546771E-02  0.1084604E+00
         21   -1    0    0  502  501  0.00000000000E+00  0.00000000000E+00  0.43756665520E+03  0.43756665520E+03  0.00000000000E+00 0.  1.
         21   -1    0    0  501  502 -0.00000000000E+00 -0.00000000000E+00 -0.20743650094E+03  0.20743650094E+03  0.00000000000E+00 0.  1.
         25    1    1    2    0    0 -0.64336132680E+02 -0.60921053088E+01  0.74299569479E+02  0.15912786601E+03  0.12500000000E+03 0.  0.
         25    1    1    2    0    0  0.13907410174E+03 -0.55403697774E+01 -0.83982210817E+02  0.20506173023E+03  0.12500000000E+03 0.  0.
         25    1    1    2    0    0 -0.74737969057E+02  0.11632475086E+02  0.23981279559E+03  0.28081355990E+03  0.12500000000E+03 0.  0.
</event>
<event>
 5    0  0.5786117E-005  0.3042743E+03  0.7546771E-02  0.1083123E+00
         21   -1    0    0  502  501  0.00000000000E+00  0.00000000000E+00  0.17715236263E+04  0.17715236263E+04  0.00000000000E+00 0.  1.
         21   -1    0    0  501  502 -0.00000000000E+00 -0.00000000000E+00 -0.52261716461E+02  0.52261716461E+02  0.00000000000E+00 0.  1.
         25    1    1    2    0    0  0.12319264421E+03 -0.12785540822E+03  0.10549734480E+04  0.10770874658E+04  0.12500000000E+03 0.  0.
         25    1    1    2    0    0 -0.97942408666E+02 -0.21704674231E+01  0.31621292342E+03  0.35385454537E+03  0.12500000000E+03 0.  0.
         25    1    1    2    0    0 -0.25250235545E+02  0.13002587565E+03  0.34807553850E+03  0.39284333166E+03  0.12500000000E+03 0.  0.
</event>
<event>
 5    0  0.5786117E-005  0.2372204E+03  0.7546771E-02  0.1121658E+00
         21   -1    0    0  502  501  0.00000000000E+00  0.00000000000E+00  0.76750327199E+03  0.76750327199E+03  0.00000000000E+00 0.  1.
         21   -1    0    0  501  502 -0.00000000000E+00 -0.00000000000E+00 -0.73320218383E+02  0.73320218383E+02  0.00000000000E+00 0.  1.
         25    1    1    2    0    0 -0.38922443756E+02 -0.90842322937E+01  0.22505259731E+03  0.26052092327E+03  0.12500000000E+03 0.  0.
         25    1    1    2    0    0  0.40556502557E+02  0.10724494057E+03  0.32087090449E+03  0.36294551178E+03  0.12500000000E+03 0.  0.
         25    1    1    2    0    0 -0.16340588011E+01 -0.98160708272E+02  0.14825955181E+03  0.21735705533E+03  0.12500000000E+03 0.  0.
</event>
<event>
 5    0  0.5786117E-005  0.2622685E+03  0.7546771E-02  0.1105788E+00
         21   -1    0    0  502  501  0.00000000000E+00  0.00000000000E+00  0.78255053881E+03  0.78255053881E+03  0.00000000000E+00 0. -1.
         21   -1    0    0  501  502 -0.00000000000E+00 -0.00000000000E+00 -0.87898160103E+02  0.87898160103E+02  0.00000000000E+00 0. -1.
         25    1    1    2    0    0  0.11467656910E+03 -0.20575625406E+02  0.16312072417E+03  0.23623598904E+03  0.12500000000E+03 0.  0.
         25    1    1    2    0    0 -0.10538701861E+03  0.51435738904E+02  0.13799356979E+03  0.22004382343E+03  0.12500000000E+03 0.  0.
         25    1    1    2    0    0 -0.92895504915E+01 -0.30860113498E+02  0.39353808475E+03  0.41416888645E+03  0.12500000000E+03 0.  0.
</event>
<event>
 5    0  0.5786117E-005  0.3277131E+03  0.7546771E-02  0.1072153E+00
         21   -1    0    0  502  501  0.00000000000E+00  0.00000000000E+00  0.17887690544E+04  0.17887690544E+04  0.00000000000E+00 0.  1.
         21   -1    0    0  501  502 -0.00000000000E+00 -0.00000000000E+00 -0.60038983301E+02  0.60038983301E+02  0.00000000000E+00 0.  1.
         25    1    1    2    0    0 -0.89072088697E+01 -0.38449983754E+02  0.88180393677E+02  0.15798266186E+03  0.12500000000E+03 0.  0.
         25    1    1    2    0    0 -0.11600639810E+02  0.12479691679E+03  0.13569179212E+04  0.13684151746E+04  0.12500000000E+03 0.  0.
         25    1    1    2    0    0  0.20507848680E+02 -0.86346933035E+02  0.28363175619E+03  0.32241020117E+03  0.12500000000E+03 0.  0.
</event>
<event>
 5    0  0.5786117E-005  0.3302765E+03  0.7546771E-02  0.1071015E+00
         21   -1    0    0  502  501  0.00000000000E+00  0.00000000000E+00  0.55425223891E+03  0.55425223891E+03  0.00000000000E+00 0.  1.
         21   -1    0    0  501  502 -0.00000000000E+00 -0.00000000000E+00 -0.19681033064E+03  0.19681033064E+03  0.00000000000E+00 0.  1.
         25    1    1    2    0    0 -0.12157584175E+03  0.10273221274E+03  0.27885103354E+03  0.34455404763E+03  0.12500000000E+03 0.  0.
         25    1    1    2    0    0  0.78217829177E+02  0.11382953610E+02  0.15639420378E+03  0.21524810663E+03  0.12500000000E+03 0.  0.
         25    1    1    2    0    0  0.43358012569E+02 -0.11411516635E+03 -0.77803329043E+02  0.19126041529E+03  0.12500000000E+03 0.  0.
</event>
<event>
 5    0  0.5786117E-005  0.4531046E+03  0.7546771E-02  0.1026800E+00
         21   -1    0    0  502  501  0.00000000000E+00  0.00000000000E+00  0.19218896908E+03  0.19218896908E+03  0.00000000000E+00 0.  1.
         21   -1    0    0  501  502 -0.00000000000E+00 -0.00000000000E+00 -0.10682391654E+04  0.10682391654E+04  0.00000000000E+00 0.  1.
         25    1    1    2    0    0  0.19793919345E+03  0.35292132810E+02 -0.12913088709E+03  0.26967618535E+03  0.12500000000E+03 0.  0.
         25    1    1    2    0    0 -0.19696098882E+03  0.12313447048E+03 -0.74351357717E+03  0.78891898720E+03  0.12500000000E+03 0.  0.
         25    1    1    2    0    0 -0.97820463934E+00 -0.15842660329E+03 -0.34057320794E+01  0.20183296194E+03  0.12500000000E+03 0.  0.
</event>
<event>
 5    0  0.5786117E-005  0.2209535E+03  0.7546771E-02  0.1133174E+00
         21   -1    0    0  502  501  0.00000000000E+00  0.00000000000E+00  0.14169627617E+03  0.14169627617E+03  0.00000000000E+00 0.  1.
         21   -1    0    0  501  502 -0.00000000000E+00 -0.00000000000E+00 -0.34454283514E+03  0.34454283514E+03  0.00000000000E+00 0.  1.
         25    1    1    2    0    0 -0.23889283537E+02 -0.56192071590E+02 -0.15146862669E+03  0.20565989315E+03  0.12500000000E+03 0.  0.
         25    1    1    2    0    0  0.44366481302E+02  0.40379785453E+02 -0.63216973592E+02  0.15238207731E+03  0.12500000000E+03 0.  0.
         25    1    1    2    0    0 -0.20477197765E+02  0.15812286136E+02  0.11839041315E+02  0.12819714084E+03  0.12500000000E+03 0.  0.
</event>
<event>
 5    0  0.5786117E-005  0.2988038E+03  0.7546771E-02  0.1085840E+00
         21   -1    0    0  502  501  0.00000000000E+00  0.00000000000E+00  0.94225120148E+03  0.94225120148E+03  0.00000000000E+00 0. -1.
         21   -1    0    0  501  502 -0.00000000000E+00 -0.00000000000E+00 -0.94755725331E+02  0.94755725331E+02  0.00000000000E+00 0. -1.
         25    1    1    2    0    0  0.33357166586E+01 -0.44132158352E+02  0.29782956601E+02  0.13590731735E+03  0.12500000000E+03 0.  0.
         25    1    1    2    0    0  0.77455053825E+02  0.86041768614E+02  0.19257682922E+03  0.25712507941E+03  0.12500000000E+03 0.  0.
         25    1    1    2    0    0 -0.80790770483E+02 -0.41909610262E+02  0.62513569032E+03  0.64397453004E+03  0.12500000000E+03 0.  0.
</event>
<event>
 5    0  0.5786117E-005  0.2680472E+03  0.7546771E-02  0.1102402E+00
         21   -1    0    0  502  501  0.00000000000E+00  0.00000000000E+00  0.17830153471E+04  0.17830153471E+04  0.00000000000E+00 0. -1.
         21   -1    0    0  501  502 -0.00000000000E+00 -0.00000000000E+00 -0.40296513318E+02  0.40296513318E+02  0.00000000000E+00 0. -1.
         25    1    1    2    0    0 -0.76883963785E+02 -0.49163095614E+01  0.28335377128E+03  0.31913895670E+03  0.12500000000E+03 0.  0.
         25    1    1    2    0    0  0.46531728740E+02  0.11268487894E+02  0.21570271871E+03  0.25385988943E+03  0.12500000000E+03 0.  0.
         25    1    1    2    0    0  0.30352235045E+02 -0.63521783324E+01  0.12436623438E+04  0.12503130143E+04  0.12500000000E+03 0.  0.
</event>
<event>
 5    0  0.5786117E-005  0.4157527E+03  0.7546771E-02  0.1038458E+00
         21   -1    0    0  502  501  0.00000000000E+00  0.00000000000E+00  0.58737180251E+03  0.58737180251E+03  0.00000000000E+00 0.  1.
         21   -1    0    0  501  502 -0.00000000000E+00 -0.00000000000E+00 -0.29427752260E+03  0.29427752260E+03  0.00000000000E+00 0.  1.
         25    1    1    2    0    0 -0.22470937512E+03 -0.57031497397E+02  0.22547452522E+03  0.34671408463E+03  0.12500000000E+03 0.  0.
         25    1    1    2    0    0 -0.36279626112E+02 -0.12192445800E+03 -0.30258811796E+02  0.18089328462E+03  0.12500000000E+03 0.  0.
         25    1    1    2    0    0  0.26098900123E+03  0.17895595540E+03  0.97878566486E+02  0.35404195586E+03  0.12500000000E+03 0.  0.
</event>
<event>
 5    0  0.5786117E-005  0.4123227E+03  0.7546771E-02  0.1039594E+00
         21   -1    0    0  502  501  0.00000000000E+00  0.00000000000E+00  0.75486404699E+03  0.75486404699E+03  0.00000000000E+00 0.  1.
         21   -1    0    0  501  502 -0.00000000000E+00 -0.00000000000E+00 -0.22521933984E+03  0.22521933984E+03  0.00000000000E+00 0.  1.
         25    1    1    2    0    0 -0.48804228117E+01  0.16152444425E+03 -0.13763635671E+03  0.24633865167E+03  0.12500000000E+03 0.  0.
         25    1    1    2    0    0  0.12196025616E+02 -0.10146492306E+03  0.42271520925E+03  0.45250085280E+03  0.12500000000E+03 0.  0.
         25    1    1    2    0    0 -0.73156028047E+01 -0.60059521186E+02  0.24456585460E+03  0.28124388237E+03  0.12500000000E+03 0.  0.
</event>
<event>
 5    0  0.5786117E-005  0.2751347E+03  0.7546771E-02  0.1098376E+00
         21   -1    0    0  502  501  0.00000000000E+00  0.00000000000E+00  0.33891462655E+03  0.33891462655E+03  0.00000000000E+00 0. -1.
         21   -1    0    0  501  502 -0.00000000000E+00 -0.00000000000E+00 -0.22335740140E+03  0.22335740140E+03  0.00000000000E+00 0. -1.
         25    1    1    2    0    0  0.62594009054E+02  0.80805690797E+02  0.13201302769E+03  0.20856655800E+03  0.12500000000E+03 0.  0.
         25    1    1    2    0    0 -0.10217200964E+03 -0.26771559842E+02 -0.97376803561E+02  0.19042866865E+03  0.12500000000E+03 0.  0.
         25    1    1    2    0    0  0.39578000590E+02 -0.54034130956E+02  0.80921001012E+02  0.16327680130E+03  0.12500000000E+03 0.  0.
</event>
<event>
 5    0  0.5786117E-005  0.3134759E+03  0.7546771E-02  0.1078692E+00
         21   -1    0    0  502  501  0.00000000000E+00  0.00000000000E+00  0.12173979240E+03  0.12173979240E+03  0.00000000000E+00 0.  1.
         21   -1    0    0  501  502 -0.00000000000E+00 -0.00000000000E+00 -0.80719002277E+03  0.80719002277E+03  0.00000000000E+00 0.  1.
         25    1    1    2    0    0  0.24356170696E+02 -0.35686825325E+02 -0.34550043776E+03  0.36994908440E+03  0.12500000000E+03 0.  0.
         25    1    1    2    0    0  0.13120444087E+03  0.12576804977E+03 -0.13225917105E+03  0.25719583195E+03  0.12500000000E+03 0.  0.
         25    1    1    2    0    0 -0.15556061157E+03 -0.90081224443E+02 -0.20769062156E+03  0.30178489882E+03  0.12500000000E+03 0.  0.
</event>
<event>
 5    0  0.5786117E-005  0.2613555E+03  0.7546771E-02  0.1106332E+00
         21   -1    0    0  502  501  0.00000000000E+00  0.00000000000E+00  0.60440071590E+03  0.60440071590E+03  0.00000000000E+00 0. -1.
         21   -1    0    0  501  502 -0.00000000000E+00 -0.00000000000E+00 -0.11301553895E+03  0.11301553895E+03  0.00000000000E+00 0. -1.
         25    1    1    2    0    0 -0.81641509790E+02 -0.89356320358E+02  0.31965507119E+03  0.36394265022E+03  0.12500000000E+03 0.  0.
         25    1    1    2    0    0  0.75289322904E+01  0.62536149696E+01  0.13069806138E+03  0.18111536592E+03  0.12500000000E+03 0.  0.
         25    1    1    2    0    0  0.74112577500E+02  0.83102705388E+02  0.41032044372E+02  0.17235823871E+03  0.12500000000E+03 0.  0.
</event>
<event>
 5    0  0.5786117E-005  0.3303253E+03  0.7546771E-02  0.1070993E+00
         21   -1    0    0  502  501  0.00000000000E+00  0.00000000000E+00  0.36287976982E+03  0.36287976982E+03  0.00000000000E+00 0.  1.
         21   -1    0    0  501  502 -0.00000000000E+00 -0.00000000000E+00 -0.30069139748E+03  0.30069139748E+03  0.00000000000E+00 0.  1.
         25    1    1    2    0    0  0.94191536771E+02 -0.56632048774E+02  0.61506343274E+02  0.17744651253E+03  0.12500000000E+03 0.  0.
         25    1    1    2    0    0 -0.13784164546E+03  0.13647490330E+03 -0.14594598188E+03  0.27304019499E+03  0.12500000000E+03 0.  0.
         25    1    1    2    0    0  0.43650108692E+02 -0.79842854522E+02  0.14662801094E+03  0.21308445978E+03  0.12500000000E+03 0.  0.
</event>
<event>
 5    0  0.5786117E-005  0.4419179E+03  0.7546771E-02  0.1030160E+00
         21   -1    0    0  502  501  0.00000000000E+00  0.00000000000E+00  0.30036586196E+03  0.30036586196E+03  0.00000000000E+00 0.  1.
         21   -1    0    0  501  502 -0.00000000000E+00 -0.00000000000E+00 -0.65017857104E+03  0.65017857104E+03  0.00000000000E+00 0.  1.
         25    1    1    2    0    0  0.60570416167E+02  0.11354580265E+03 -0.51099956458E+03  0.54157823037E+03  0.12500000000E+03 0.  0.
         25    1    1    2    0    0 -0.50107678288E+02 -0.15708418748E+03  0.91490237780E+01  0.20711090270E+03  0.12500000000E+03 0.  0.
         25    1    1    2    0    0 -0.10462737878E+02  0.43538384834E+02  0.15203783172E+03  0.20185529994E+03  0.12500000000E+03 0.  0.
</event>
<event>
 5    0  0.6009855E-005  0.3830986E+03  0.7546771E-02  0.1049794E+00
         21   -1    0    0  502  501  0.00000000000E+00  0.00000000000E+00  0.43485961658E+03  0.43485961658E+03  0.00000000000E+00 0. -1.
         21   -1    0    0  501  502 -0.00000000000E+00 -0.00000000000E+00 -0.33749862219E+03  0.33749862219E+03  0.00000000000E+00 0. -1.
         25    1    1    2    0    0  0.10020845331E+03 -0.48525155640E+02 -0.21772841531E+03  0.27463992368E+03  0.12500000000E+03 0.  0.
         25    1    1    2    0    0 -0.18901541516E+03  0.21018258531E+02  0.16239793180E+03  0.27958305137E+03  0.12500000000E+03 0.  0.
         25    1    1    2    0    0  0.88806961848E+02  0.27506897109E+02  0.15269147789E+03  0.21813526373E+03  0.12500000000E+03 0.  0.
</event>
<event>
 5    0  0.5786117E-005  0.4899340E+03  0.7546771E-02  0.1016440E+00
         21   -1    0    0  502  501  0.00000000000E+00  0.00000000000E+00  0.75210907960E+02  0.75210907960E+02  0.00000000000E+00 0.  1.
         21   -1    0    0  501  502 -0.00000000000E+00 -0.00000000000E+00 -0.31914964833E+04  0.31914964833E+04  0.00000000000E+00 0.  1.
         25    1    1    2    0    0  0.17704013894E+03 -0.73369106240E+02 -0.14258441694E+03  0.26959516409E+03  0.12500000000E+03 0.  0.
         25    1    1    2    0    0 -0.15226150708E+03 -0.46846398391E+01 -0.11039783513E+04  0.11214270874E+04  0.12500000000E+03 0.  0.
         25    1    1    2    0    0 -0.24778631867E+02  0.78053746079E+02 -0.18697228071E+04  0.18756851397E+04  0.12500000000E+03 0.  0.
</event>
<event>
 5    0  0.5786117E-005  0.3097598E+03  0.7546771E-02  0.1080461E+00
         21   -1    0    0  502  501  0.00000000000E+00  0.00000000000E+00  0.16264536838E+03  0.16264536838E+03  0.00000000000E+00 0. -1.
         21   -1    0    0  501  502 -0.00000000000E+00 -0.00000000000E+00 -0.58994095674E+03  0.58994095674E+03  0.00000000000E+00 0. -1.
         25    1    1    2    0    0  0.27869162123E+01  0.63622663385E+02 -0.35854085025E+03  0.38500928755E+03  0.12500000000E+03 0.  0.
         25    1    1    2    0    0  0.37177298695E+02  0.88978799142E+02 -0.11352927618E+02  0.15828223906E+03  0.12500000000E+03 0.  0.
         25    1    1    2    0    0 -0.39964214907E+02 -0.15260146253E+03 -0.57401810487E+02  0.20929479852E+03  0.12500000000E+03 0.  0.
</event>
<event>
 5    0  0.5851882E-005  0.3713938E+03  0.7546771E-02  0.1054161E+00
         21   -1    0    0  502  501  0.00000000000E+00  0.00000000000E+00  0.27275221895E+03  0.27275221895E+03  0.00000000000E+00 0. -1.
         21   -1    0    0  501  502 -0.00000000000E+00 -0.00000000000E+00 -0.50570946734E+03  0.50570946734E+03  0.00000000000E+00 0. -1.
         25    1    1    2    0    0  0.13077048676E+03  0.58704485173E+02  0.59059530997E+02  0.19914860027E+03  0.12500000000E+03 0.  0.
         25    1    1    2    0    0  0.59873829621E+02  0.12713395264E+03 -0.19170382295E+03  0.26855776496E+03  0.12500000000E+03 0.  0.
         25    1    1    2    0    0 -0.19064431638E+03 -0.18583843781E+03 -0.10031295643E+03  0.31075532106E+03  0.12500000000E+03 0.  0.
</event>
<event>
 5    0  0.5786117E-005  0.4094249E+03  0.7546771E-02  0.1040564E+00
         21   -1    0    0  502  501  0.00000000000E+00  0.00000000000E+00  0.52700839821E+03  0.52700839821E+03  0.00000000000E+00 0. -1.
         21   -1    0    0  501  502 -0.00000000000E+00 -0.00000000000E+00 -0.31807606247E+03  0.31807606247E+03  0.00000000000E+00 0. -1.
         25    1    1    2    0    0  0.21957688123E+02  0.56665607207E+02 -0.19914851560E+03  0.24285440571E+03  0.12500000000E+03 0.  0.
         25    1    1    2    0    0 -0.33992747695E+02 -0.10546486465E+03  0.43399656260E+03  0.46503372020E+03  0.12500000000E+03 0.  0.
         25    1    1    2    0    0  0.12035059573E+02  0.48799257445E+02 -0.25915711267E+02  0.13719633478E+03  0.12500000000E+03 0.  0.
</event>
<event>
 5    0  0.5786117E-005  0.4101191E+03  0.7546771E-02  0.1040331E+00
         21   -1    0    0  502  501  0.00000000000E+00  0.00000000000E+00  0.30019527335E+03  0.30019527335E+03  0.00000000000E+00 0.  1.
         21   -1    0    0  501  502 -0.00000000000E+00 -0.00000000000E+00 -0.56029421956E+03  0.56029421956E+03  0.00000000000E+00 0.  1.
         25    1    1    2    0    0 -0.23399975374E+02 -0.26195518339E+02 -0.33140782157E+02  0.13400401289E+03  0.12500000000E+03 0.  0.
         25    1    1    2    0    0 -0.31923364494E+02 -0.13304242586E+03  0.18643493622E+03  0.26287330356E+03  0.12500000000E+03 0.  0.
         25    1    1    2    0    0  0.55323339868E+02  0.15923794420E+03 -0.41339310028E+03  0.46361217646E+03  0.12500000000E+03 0.  0.
</event>
<event>
 5    0  0.5974380E-005  0.6056824E+03  0.7546771E-02  0.9893687E-01
         21   -1    0    0  502  501  0.00000000000E+00  0.00000000000E+00  0.16642048398E+04  0.16642048398E+04  0.00000000000E+00 0.  1.
         21   -1    0    0  501  502 -0.00000000000E+00 -0.00000000000E+00 -0.22043629532E+03  0.22043629532E+03  0.00000000000E+00 0.  1.
         25    1    1    2    0    0  0.27945906351E+03  0.12588357945E+03  0.57932521388E+03  0.66722316146E+03  0.12500000000E+03 0.  0.
         25    1    1    2    0    0 -0.38218840738E+03 -0.10326971389E+03  0.94726931832E+03  0.10342517943E+04  0.12500000000E+03 0.  0.
         25    1    1    2    0    0  0.10272934387E+03 -0.22613865558E+02 -0.82825987763E+02  0.18316617934E+03  0.12500000000E+03 0.  0.
</event>
<event>
 5    0  0.5786117E-005  0.2197487E+03  0.7546771E-02  0.1134071E+00
         21   -1    0    0  502  501  0.00000000000E+00  0.00000000000E+00  0.57636681971E+02  0.57636681971E+02  0.00000000000E+00 0. -1.
         21   -1    0    0  501  502 -0.00000000000E+00 -0.00000000000E+00 -0.83782534138E+03  0.83782534138E+03  0.00000000000E+00 0. -1.
         25    1    1    2    0    0 -0.53899539064E+02  0.25573668117E+02 -0.34647140745E+03  0.37313082021E+03  0.12500000000E+03 0.  0.
         25    1    1    2    0    0  0.31843748368E+02  0.53458809006E+02 -0.23938849129E+03  0.27713483781E+03  0.12500000000E+03 0.  0.
         25    1    1    2    0    0  0.22055790696E+02 -0.79032477123E+02 -0.19432876067E+03  0.24519636533E+03  0.12500000000E+03 0.  0.
</event>
<event>
 5    0  0.5786117E-005  0.2961325E+03  0.7546771E-02  0.1087190E+00
         21   -1    0    0  502  501  0.00000000000E+00  0.00000000000E+00  0.42926253389E+03  0.42926253389E+03  0.00000000000E+00 0.  1.
         21   -1    0    0  501  502 -0.00000000000E+00 -0.00000000000E+00 -0.20429095822E+03  0.20429095822E+03  0.00000000000E+00 0.  1.
         25    1    1    2    0    0 -0.11026700649E+03 -0.31277139007E+02 -0.65390095121E+02  0.18176340854E+03  0.12500000000E+03 0.  0.
         25    1    1    2    0    0  0.20145901182E+02 -0.28083138321E+02  0.14795459641E+02  0.13053132045E+03  0.12500000000E+03 0.  0.
         25    1    1    2    0    0  0.90121105313E+02  0.59360277328E+02  0.27556621115E+03  0.32125876311E+03  0.12500000000E+03 0.  0.
</event>
<event>
 5    0  0.5786117E-005  0.3802542E+03  0.7546771E-02  0.1050840E+00
         21   -1    0    0  502  501  0.00000000000E+00  0.00000000000E+00  0.29582860115E+03  0.29582860115E+03  0.00000000000E+00 0. -1.
         21   -1    0    0  501  502 -0.00000000000E+00 -0.00000000000E+00 -0.48877379700E+03  0.48877379700E+03  0.00000000000E+00 0. -1.
         25    1    1    2    0    0 -0.69605110281E+02 -0.23083151570E+02 -0.12774746183E+03  0.19318933011E+03  0.12500000000E+03 0.  0.
         25    1    1    2    0    0  0.50525083130E+02 -0.13433740305E+03 -0.25236664610E+03  0.31609056605E+03  0.12500000000E+03 0.  0.
         25    1    1    2    0    0  0.19080027151E+02  0.15742055462E+03  0.18716891208E+03  0.27532250199E+03  0.12500000000E+03 0.  0.
</event>
<event>
 5    0  0.5786117E-005  0.3481308E+03  0.7546771E-02  0.1063385E+00
         21   -1    0    0  502  501  0.00000000000E+00  0.00000000000E+00  0.38941439212E+03  0.38941439212E+03  0.00000000000E+00 0.  1.
         21   -1    0    0  501  502 -0.00000000000E+00 -0.00000000000E+00 -0.31122383727E+03  0.31122383727E+03  0.00000000000E+00 0.  1.
         25    1    1    2    0    0 -0.17700941348E+03 -0.47208902817E+02 -0.23649658296E+01  0.22179180785E+03  0.12500000000E+03 0.  0.
         25    1    1    2    0    0  0.10033200533E+02  0.17481685431E+03 -0.16487014865E+02  0.21577400057E+03  0.12500000000E+03 0.  0.
         25    1    1    2    0    0  0.16697621294E+03 -0.12760795149E+03  0.97042535551E+02  0.26307242098E+03  0.12500000000E+03 0.  0.
</event>
<event>
 5    0  0.5786117E-005  0.4942272E+03  0.7546771E-02  0.1015297E+00
         21   -1    0    0  502  501  0.00000000000E+00  0.00000000000E+00  0.20829245791E+04  0.20829245791E+04  0.00000000000E+00 0.  1.
         21   -1    0    0  501  502 -0.00000000000E+00 -0.00000000000E+00 -0.11726804577E+03  0.11726804577E+03  0.00000000000E+00 0.  1.
         25    1    1    2    0    0 -0.26647048817E+03  0.25498190812E+03  0.70892197642E+03  0.80883722910E+03  0.12500000000E+03 0.  0.
         25    1    1    2    0    0  0.28447594900E+03 -0.30648110598E+03  0.76171166606E+03  0.87788774687E+03  0.12500000000E+03 0.  0.
         25    1    1    2    0    0 -0.18005460839E+02  0.51499197861E+02  0.49502289089E+03  0.51346764894E+03  0.12500000000E+03 0.  0.
</event>
<event>
 5    0  0.5786117E-005  0.4716210E+03  0.7546771E-02  0.1021464E+00
         21   -1    0    0  502  501  0.00000000000E+00  0.00000000000E+00  0.19856297858E+04  0.19856297858E+04  0.00000000000E+00 0. -1.
         21   -1    0    0  501  502 -0.00000000000E+00 -0.00000000000E+00 -0.11201802477E+03  0.11201802477E+03  0.00000000000E+00 0. -1.
         25    1    1    2    0    0 -0.17279783738E+03 -0.14911595162E+02  0.13716481476E+04  0.13882093103E+04  0.12500000000E+03 0.  0.
         25    1    1    2    0    0  0.11448953494E+03  0.20246773886E+03  0.31361942566E+03  0.40997949101E+03  0.12500000000E+03 0.  0.
         25    1    1    2    0    0  0.58308302432E+02 -0.18755614370E+03  0.18834418771E+03  0.29945900924E+03  0.12500000000E+03 0.  0.
</event>
<event>
 5    0  0.5786117E-005  0.2682347E+03  0.7546771E-02  0.1102294E+00
         21   -1    0    0  502  501  0.00000000000E+00  0.00000000000E+00  0.57026758467E+03  0.57026758467E+03  0.00000000000E+00 0. -1.
         21   -1    0    0  501  502 -0.00000000000E+00 -0.00000000000E+00 -0.12616861149E+03  0.12616861149E+03  0.00000000000E+00 0. -1.
         25    1    1    2    0    0 -0.15332698625E+02 -0.21310452490E+01 -0.44650242379E+01  0.12603400114E+03  0.12500000000E+03 0.  0.
         25    1    1    2    0    0 -0.10851639533E+03  0.39794558593E+02  0.24958566353E+03  0.30212152917E+03  0.12500000000E+03 0.  0.
         25    1    1    2    0    0  0.12384909396E+03 -0.37663513344E+02  0.19897833390E+03  0.26828066586E+03  0.12500000000E+03 0.  0.
</event>
<event>
 5    0  0.5786117E-005  0.2879530E+03  0.7546771E-02  0.1091423E+00
         21   -1    0    0  502  501  0.00000000000E+00  0.00000000000E+00  0.83460951298E+02  0.83460951298E+02  0.00000000000E+00 0. -1.
         21   -1    0    0  501  502 -0.00000000000E+00 -0.00000000000E+00 -0.99348195261E+03  0.99348195261E+03  0.00000000000E+00 0. -1.
         25    1    1    2    0    0 -0.16765592984E+02 -0.95757460522E+02 -0.10245063230E+03  0.18860463518E+03  0.12500000000E+03 0.  0.
         25    1    1    2    0    0 -0.52654280722E+02  0.39411834421E+02 -0.12479269993E+03  0.18847807280E+03  0.12500000000E+03 0.  0.
         25    1    1    2    0    0  0.69419873706E+02  0.56345626102E+02 -0.68277766908E+03  0.69986019592E+03  0.12500000000E+03 0.  0.
</event>
<event>
 5    0  0.5786117E-005  0.5170975E+03  0.7546771E-02  0.1009410E+00
         21   -1    0    0  502  501  0.00000000000E+00  0.00000000000E+00  0.10262583042E+04  0.10262583042E+04  0.00000000000E+00 0. -1.
         21   -1    0    0  501  502 -0.00000000000E+00 -0.00000000000E+00 -0.26054831265E+03  0.26054831265E+03  0.00000000000E+00 0. -1.
         25    1    1    2    0    0 -0.14519793847E+03  0.18144974156E+02 -0.11920907399E+03  0.22637907311E+03  0.12500000000E+03 0.  0.
         25    1    1    2    0    0  0.67469464704E+02  0.15637817252E+03  0.83570238396E+02  0.22718989030E+03  0.12500000000E+03 0.  0.
         25    1    1    2    0    0  0.77728473761E+02 -0.17452314668E+03  0.80134882711E+03  0.83323765342E+03  0.12500000000E+03 0.  0.
</event>
<event>
 5    0  0.5786117E-005  0.2382268E+03  0.7546771E-02  0.1120980E+00
         21   -1    0    0  502  501  0.00000000000E+00  0.00000000000E+00  0.80607430088E+02  0.80607430088E+02  0.00000000000E+00 0. -1.
         21   -1    0    0  501  502 -0.00000000000E+00 -0.00000000000E+00 -0.70405405861E+03  0.70405405861E+03  0.00000000000E+00 0. -1.
         25    1    1    2    0    0  0.30641679985E+02 -0.70410999598E+02 -0.93434133849E+02  0.17392975244E+03  0.12500000000E+03 0.  0.
         25    1    1    2    0    0 -0.89615202148E+02  0.42280175302E+02 -0.32294218313E+03  0.36018766126E+03  0.12500000000E+03 0.  0.
         25    1    1    2    0    0  0.58973522163E+02  0.28130824296E+02 -0.20707031154E+03  0.25054407499E+03  0.12500000000E+03 0.  0.
</event>
<event>
 5    0  0.5786117E-005  0.3362953E+03  0.7546771E-02  0.1068385E+00
         21   -1    0    0  502  501  0.00000000000E+00  0.00000000000E+00  0.10863957464E+04  0.10863957464E+04  0.00000000000E+00 0. -1.
         21   -1    0    0  501  502 -0.00000000000E+00 -0.00000000000E+00 -0.10410070094E+03  0.10410070094E+03  0.00000000000E+00 0. -1.
         25    1    1    2    0    0 -0.33880034164E+02 -0.61633665609E+02  0.61857977917E+03  0.63499016422E+03  0.12500000000E+03 0.  0.
         25    1    1    2    0    0  0.91122515637E+02  0.27809377928E+02 -0.83738701394E+01  0.15739058440E+03  0.12500000000E+03 0.  0.
         25    1    1    2    0    0 -0.57242481473E+02  0.33824287681E+02  0.37208913644E+03  0.39811569873E+03  0.12500000000E+03 0.  0.
</event>
<event>
 5    0  0.5786117E-005  0.3903574E+03  0.7546771E-02  0.1047171E+00
         21   -1    0    0  502  501  0.00000000000E+00  0.00000000000E+00  0.66995989359E+03  0.66995989359E+03  0.00000000000E+00 0. -1.
         21   -1    0    0  501  502 -0.00000000000E+00 -0.00000000000E+00 -0.22744480827E+03  0.22744480827E+03  0.00000000000E+00 0. -1.
         25    1    1    2    0    0 -0.11587552362E+02 -0.12409174278E+03 -0.90475803545E+02  0.19835297584E+03  0.12500000000E+03 0.  0.
         25    1    1    2    0    0 -0.68986883495E+02  0.25393779991E+02  0.87717118927E+01  0.14527896299E+03  0.12500000000E+03 0.  0.
         25    1    1    2    0    0  0.80574435857E+02  0.98697962793E+02  0.52421917698E+03  0.55377276304E+03  0.12500000000E+03 0.  0.
</event>
<event>
 5    0  0.5786117E-005  0.4171829E+03  0.7546771E-02  0.1037987E+00
         21   -1    0    0  502  501  0.00000000000E+00  0.00000000000E+00  0.76025581469E+03  0.76025581469E+03  0.00000000000E+00 0. -1.
         21   -1    0    0  501  502 -0.00000000000E+00 -0.00000000000E+00 -0.22892499621E+03  0.22892499621E+03  0.00000000000E+00 0. -1.
         25    1    1    2    0    0  0.40958452541E+02 -0.70518862535E+02  0.63729692813E+03  0.65454020458E+03  0.12500000000E+03 0.  0.
         25    1    1    2    0    0  0.20450438450E+02  0.61264105145E+02 -0.13168869908E+03  0.19271332200E+03  0.12500000000E+03 0.  0.
         25    1    1    2    0    0 -0.61408890990E+02  0.92547573895E+01  0.25722589430E+02  0.14192728432E+03  0.12500000000E+03 0.  0.
</event>
<event>
 5    0  0.5786117E-005  0.2481262E+03  0.7546771E-02  0.1114495E+00
         21   -1    0    0  502  501  0.00000000000E+00  0.00000000000E+00  0.44411450991E+02  0.44411450991E+02  0.00000000000E+00 0.  1.
         21   -1    0    0  501  502 -0.00000000000E+00 -0.00000000000E+00 -0.13862782662E+04  0.13862782662E+04  0.00000000000E+00 0.  1.
         25    1    1    2    0    0 -0.39846423392E+02 -0.88775520228E+02 -0.67205305306E+03  0.69047022860E+03  0.12500000000E+03 0.  0.
         25    1    1    2    0    0  0.92092586919E+02  0.29647368265E+02 -0.43417867383E+03  0.46205641628E+03  0.12500000000E+03 0.  0.
         25    1    1    2    0    0 -0.52246163527E+02  0.59128151963E+02 -0.23563508832E+03  0.27816307233E+03  0.12500000000E+03 0.  0.
</event>
<event>
 5    0  0.5786117E-005  0.6898174E+03  0.7546771E-02  0.9734806E-01
         21   -1    0    0  502  501  0.00000000000E+00  0.00000000000E+00  0.37425423588E+04  0.37425423588E+04  0.00000000000E+00 0.  1.
         21   -1    0    0  501  502 -0.00000000000E+00 -0.00000000000E+00 -0.12714567192E+03  0.12714567192E+03  0.00000000000E+00 0.  1.
         25    1    1    2    0    0  0.51075298459E+02  0.45045225597E+03  0.15827118579E+04  0.16510959228E+04  0.12500000000E+03 0.  0.
         25    1    1    2    0    0  0.17709655190E+03 -0.23109220763E+02  0.13579294748E+03  0.25683058495E+03  0.12500000000E+03 0.  0.
         25    1    1    2    0    0 -0.22817185036E+03 -0.42734303521E+03  0.18968918815E+04  0.19617615230E+04  0.12500000000E+03 0.  0.
</event>
<event>
 5    0  0.5786117E-005  0.3851812E+03  0.7546771E-02  0.1049035E+00
         21   -1    0    0  502  501  0.00000000000E+00  0.00000000000E+00  0.17035542353E+03  0.17035542353E+03  0.00000000000E+00 0. -1.
         21   -1    0    0  501  502 -0.00000000000E+00 -0.00000000000E+00 -0.87091198076E+03  0.87091198076E+03  0.00000000000E+00 0. -1.
         25    1    1    2    0    0 -0.15796041852E+03  0.88788427874E+02 -0.52282750130E+03  0.56728165390E+03  0.12500000000E+03 0.  0.
         25    1    1    2    0    0  0.58572913494E+02  0.49981953265E+02  0.57445853583E+02  0.15765153961E+03  0.12500000000E+03 0.  0.
         25    1    1    2    0    0  0.99387505029E+02 -0.13877038114E+03 -0.23517490952E+03  0.31633421077E+03  0.12500000000E+03 0.  0.
</event>
<event>
 5    0  0.5786117E-005  0.2705583E+03  0.7546771E-02  0.1100960E+00
         21   -1    0    0  502  501  0.00000000000E+00  0.00000000000E+00  0.30518395886E+03  0.30518395886E+03  0.00000000000E+00 0. -1.
         21   -1    0    0  501  502 -0.00000000000E+00 -0.00000000000E+00 -0.23986129034E+03  0.23986129034E+03  0.00000000000E+00 0. -1.
         25    1    1    2    0    0  0.70347849917E+01  0.95651323156E+02  0.48120778948E+02  0.16474001696E+03  0.12500000000E+03 0.  0.
         25    1    1    2    0    0  0.12614557902E+03 -0.85029687350E+02  0.55553068534E+01  0.19697364360E+03  0.12500000000E+03 0.  0.
         25    1    1    2    0    0 -0.13318036401E+03 -0.10621635805E+02  0.11646582720E+02  0.18333158865E+03  0.12500000000E+03 0.  0.
</event>
<event>
 5    0  0.5786117E-005  0.3910977E+03  0.7546771E-02  0.1046907E+00
         21   -1    0    0  502  501  0.00000000000E+00  0.00000000000E+00  0.14258870090E+03  0.14258870090E+03  0.00000000000E+00 0.  1.
         21   -1    0    0  501  502 -0.00000000000E+00 -0.00000000000E+00 -0.10727178399E+04  0.10727178399E+04  0.00000000000E+00 0.  1.
         25    1    1    2    0    0  0.11286553379E+03  0.18941090434E+03 -0.38542103042E+03  0.46129111209E+03  0.12500000000E+03 0.  0.
         25    1    1    2    0    0 -0.20345993272E+03 -0.10860903930E+03 -0.10774928859E+03  0.28359615095E+03  0.12500000000E+03 0.  0.
         25    1    1    2    0    0  0.90594398935E+02 -0.80801865035E+02 -0.43695881997E+03  0.47041927773E+03  0.12500000000E+03 0.  0.
</event>
<event>
 5    0  0.5786117E-005  0.2431048E+03  0.7546771E-02  0.1117742E+00
         21   -1    0    0  502  501  0.00000000000E+00  0.00000000000E+00  0.15257484862E+04  0.15257484862E+04  0.00000000000E+00 0. -1.
         21   -1    0    0  501  502 -0.00000000000E+00 -0.00000000000E+00 -0.38735062914E+02  0.38735062914E+02  0.00000000000E+00 0. -1.
         25    1    1    2    0    0 -0.47855211655E+01  0.83571346486E+02  0.35874957217E+03  0.38901584376E+03  0.12500000000E+03 0.  0.
         25    1    1    2    0    0 -0.37516352974E+02 -0.52657151989E+02  0.25070113912E+03  0.28750011053E+03  0.12500000000E+03 0.  0.
         25    1    1    2    0    0  0.42301874139E+02 -0.30914194497E+02  0.87756271198E+03  0.88796759481E+03  0.12500000000E+03 0.  0.
</event>
<event>
 5    0  0.5786117E-005  0.2508588E+03  0.7546771E-02  0.1112763E+00
         21   -1    0    0  502  501  0.00000000000E+00  0.00000000000E+00  0.17420273941E+03  0.17420273941E+03  0.00000000000E+00 0. -1.
         21   -1    0    0  501  502 -0.00000000000E+00 -0.00000000000E+00 -0.36124661692E+03  0.36124661692E+03  0.00000000000E+00 0. -1.
         25    1    1    2    0    0 -0.82835287660E+02 -0.42062611414E+02 -0.16332298449E+03  0.22567752530E+03  0.12500000000E+03 0.  0.
         25    1    1    2    0    0  0.34805666256E+02 -0.43190283235E+02  0.33898691856E+02  0.14089342170E+03  0.12500000000E+03 0.  0.
         25    1    1    2    0    0  0.48029621404E+02  0.85252894649E+02 -0.57619584876E+02  0.16887840933E+03  0.12500000000E+03 0.  0.
</event>
<event>
 5    0  0.5786117E-005  0.4729690E+03  0.7546771E-02  0.1021086E+00
         21   -1    0    0  502  501  0.00000000000E+00  0.00000000000E+00  0.48558478784E+03  0.48558478784E+03  0.00000000000E+00 0.  1.
         21   -1    0    0  501  502 -0.00000000000E+00 -0.00000000000E+00 -0.46068089489E+03  0.46068089489E+03  0.00000000000E+00 0.  1.
         25    1    1    2    0    0  0.19317279155E+03 -0.13788067800E+03 -0.13580279132E+03  0.30065629362E+03  0.12500000000E+03 0.  0.
         25    1    1    2    0    0 -0.18771485157E+03 -0.23045293281E+02  0.31631315178E+03  0.38916186997E+03  0.12500000000E+03 0.  0.
         25    1    1    2    0    0 -0.54579399759E+01  0.16092597128E+03 -0.15560646751E+03  0.25644751914E+03  0.12500000000E+03 0.  0.
</event>
<event>
 5    0  0.5786117E-005  0.3117818E+03  0.7546771E-02  0.1079495E+00
         21   -1    0    0  502  501  0.00000000000E+00  0.00000000000E+00  0.29785250912E+02  0.29785250912E+02  0.00000000000E+00 0. -1.
         21   -1    0    0  501  502 -0.00000000000E+00 -0.00000000000E+00 -0.32636240251E+04  0.32636240251E+04  0.00000000000E+00 0. -1.
         25    1    1    2    0    0  0.17291841224E+01 -0.37314609267E+02 -0.49354861892E+03  0.51050035198E+03  0.12500000000E+03 0.  0.
         25    1    1    2    0    0  0.83898933430E+02 -0.55096615337E+02 -0.33819620721E+03  0.37426774190E+03  0.12500000000E+03 0.  0.
         25    1    1    2    0    0 -0.85628117552E+02  0.92411224604E+02 -0.24020939481E+04  0.24086411822E+04  0.12500000000E+03 0.  0.
</event>
<event>
 5    0  0.5786117E-005  0.3125558E+03  0.7546771E-02  0.1079127E+00
         21   -1    0    0  502  501  0.00000000000E+00  0.00000000000E+00  0.45930463705E+03  0.45930463705E+03  0.00000000000E+00 0.  1.
         21   -1    0    0  501  502 -0.00000000000E+00 -0.00000000000E+00 -0.21269354056E+03  0.21269354056E+03  0.00000000000E+00 0.  1.
         25    1    1    2    0    0 -0.25316820953E+02  0.81393731092E+02  0.10284675072E+03  0.18294352959E+03  0.12500000000E+03 0.  0.
         25    1    1    2    0    0 -0.34619508844E+02 -0.18057639300E+02  0.26415276795E+03  0.29483261954E+03  0.12500000000E+03 0.  0.
         25    1    1    2    0    0  0.59936329797E+02 -0.63336091792E+02 -0.12038842218E+03  0.19422202848E+03  0.12500000000E+03 0.  0.
</event>
<event>
 5    0  0.5786117E-005  0.2480352E+03  0.7546771E-02  0.1114553E+00
         21   -1    0    0  502  501  0.00000000000E+00  0.00000000000E+00  0.35400991575E+03  0.35400991575E+03  0.00000000000E+00 0. -1.
         21   -1    0    0  501  502 -0.00000000000E+00 -0.00000000000E+00 -0.17378455956E+03  0.17378455956E+03  0.00000000000E+00 0. -1.
         25    1    1    2    0    0  0.93765110470E+02  0.37326983934E+02  0.35148525568E+02  0.16445552141E+03  0.12500000000E+03 0.  0.
         25    1    1    2    0    0 -0.13983449954E+03  0.17607223709E+02  0.93256199686E+02  0.21020328344E+03  0.12500000000E+03 0.  0.
         25    1    1    2    0    0  0.46069389072E+02 -0.54934207644E+02  0.51820630928E+02  0.15313567046E+03  0.12500000000E+03 0.  0.
</event>
<event>
 5    0  0.5786117E-005  0.2638760E+03  0.7546771E-02  0.1104837E+00
         21   -1    0    0  502  501  0.00000000000E+00  0.00000000000E+00  0.75573223823E+02  0.75573223823E+02  0.00000000000E+00 0. -1.
         21   -1    0    0  501  502 -0.00000000000E+00 -0.00000000000E+00 -0.92136515161E+03  0.92136515161E+03  0.00000000000E+00 0. -1.
         25    1    1    2    0    0 -0.84460110182E+02 -0.83125928644E+02 -0.20589557710E+03  0.26844258025E+03  0.12500000000E+03 0.  0.
         25    1    1    2    0    0 -0.17961377040E+02  0.12191873804E+03 -0.39822690037E+03  0.43519702886E+03  0.12500000000E+03 0.  0.
         25    1    1    2    0    0  0.10242148722E+03 -0.38792809399E+02 -0.24166945032E+03  0.29329876632E+03  0.12500000000E+03 0.  0.
</event>
<event>
 5    0  0.5786117E-005  0.3178165E+03  0.7546771E-02  0.1076659E+00
         21   -1    0    0  502  501  0.00000000000E+00  0.00000000000E+00  0.24961416834E+03  0.24961416834E+03  0.00000000000E+00 0.  1.
         21   -1    0    0  501  502 -0.00000000000E+00 -0.00000000000E+00 -0.40465394790E+03  0.40465394790E+03  0.00000000000E+00 0.  1.
         25    1    1    2    0    0 -0.20884507708E+03  0.53407196078E+02 -0.12433042856E+03  0.27848096933E+03  0.12500000000E+03 0.  0.
         25    1    1    2    0    0  0.57071243700E+02  0.27511089328E+01  0.62593236371E+02  0.15102188152E+03  0.12500000000E+03 0.  0.
         25    1    1    2    0    0  0.15177383338E+03 -0.56158305010E+02 -0.93302587368E+02  0.22476526540E+03  0.12500000000E+03 0.  0.
</event>
<event>
 5    0  0.5786117E-005  0.2585525E+03  0.7546771E-02  0.1108016E+00
         21   -1    0    0  502  501  0.00000000000E+00  0.00000000000E+00  0.10713597474E+04  0.10713597474E+04  0.00000000000E+00 0. -1.
         21   -1    0    0  501  502 -0.00000000000E+00 -0.00000000000E+00 -0.62396759108E+02  0.62396759108E+02  0.00000000000E+00 0. -1.
         25    1    1    2    0    0  0.13330924674E+03  0.39197777458E+02  0.22157696814E+03  0.28987786020E+03  0.12500000000E+03 0.  0.
         25    1    1    2    0    0 -0.38771734041E+02 -0.10493794453E+02  0.48025907538E+03  0.49788266346E+03  0.12500000000E+03 0.  0.
         25    1    1    2    0    0 -0.94537512697E+02 -0.28703983005E+02  0.30712694478E+03  0.34599598286E+03  0.12500000000E+03 0.  0.
</event>
<event>
 5    0  0.5786117E-005  0.2972086E+03  0.7546771E-02  0.1086644E+00
         21   -1    0    0  502  501  0.00000000000E+00  0.00000000000E+00  0.97880566309E+03  0.97880566309E+03  0.00000000000E+00 0.  1.
         21   -1    0    0  501  502 -0.00000000000E+00 -0.00000000000E+00 -0.90245658620E+02  0.90245658620E+02  0.00000000000E+00 0.  1.
         25    1    1    2    0    0  0.85784637427E+02 -0.57556554794E+02  0.36651133135E+03  0.40078337918E+03  0.12500000000E+03 0.  0.
         25    1    1    2    0    0 -0.62885556102E+02 -0.12427235200E+03  0.17401680301E+03  0.25554854405E+03  0.12500000000E+03 0.  0.
         25    1    1    2    0    0 -0.22899081325E+02  0.18182890679E+03  0.34803187011E+03  0.41271939848E+03  0.12500000000E+03 0.  0.
</event>
<event>
 5    0  0.5786117E-005  0.3159436E+03  0.7546771E-02  0.1077531E+00
         21   -1    0    0  502  501  0.00000000000E+00  0.00000000000E+00  0.58062069340E+03  0.58062069340E+03  0.00000000000E+00 0.  1.
         21   -1    0    0  501  502 -0.00000000000E+00 -0.00000000000E+00 -0.17192003286E+03  0.17192003286E+03  0.00000000000E+00 0.  1.
         25    1    1    2    0    0  0.72484682613E+02 -0.11179928241E+03  0.18342797433E+01  0.18270597512E+03  0.12500000000E+03 0.  0.
         25    1    1    2    0    0 -0.76419804201E+02  0.59258728992E+02  0.40437572823E+03  0.43416162085E+03  0.12500000000E+03 0.  0.
         25    1    1    2    0    0  0.39351215878E+01  0.52540553418E+02  0.24906525654E+01  0.13567313030E+03  0.12500000000E+03 0.  0.
</event>
<event>
 5    0  0.5786117E-005  0.3299482E+03  0.7546771E-02  0.1071160E+00
         21   -1    0    0  502  501  0.00000000000E+00  0.00000000000E+00  0.12173110278E+03  0.12173110278E+03  0.00000000000E+00 0.  1.
         21   -1    0    0  501  502 -0.00000000000E+00 -0.00000000000E+00 -0.89431404389E+03  0.89431404389E+03  0.00000000000E+00 0.  1.
         25    1    1    2    0    0  0.18275406805E+03  0.12778441484E+02 -0.41674967682E+03  0.47208858394E+03  0.12500000000E+03 0.  0.
         25    1    1    2    0    0 -0.13813941022E+03 -0.11964265095E+03 -0.11657786495E+03  0.25022441763E+03  0.12500000000E+03 0.  0.
         25    1    1    2    0    0 -0.44614657836E+02  0.10686420946E+03 -0.23925539934E+03  0.29373214511E+03  0.12500000000E+03 0.  0.
</event>
<event>
 5    0  0.5786117E-005  0.2611990E+03  0.7546771E-02  0.1106425E+00
         21   -1    0    0  502  501  0.00000000000E+00  0.00000000000E+00  0.34804182708E+03  0.34804182708E+03  0.00000000000E+00 0.  1.
         21   -1    0    0  501  502 -0.00000000000E+00 -0.00000000000E+00 -0.19602507857E+03  0.19602507857E+03  0.00000000000E+00 0.  1.
         25    1    1    2    0    0 -0.28317381195E+02 -0.96779934056E+02 -0.12678216831E+02  0.16110234913E+03  0.12500000000E+03 0.  0.
         25    1    1    2    0    0 -0.76609051071E+02  0.10276675617E+03  0.11278602538E+03  0.21160255292E+03  0.12500000000E+03 0.  0.
         25    1    1    2    0    0  0.10492643227E+03 -0.59868221183E+01  0.51908939960E+02  0.17136200359E+03  0.12500000000E+03 0.  0.
</event>
<event>
 5    0  0.5786117E-005  0.2600657E+03  0.7546771E-02  0.1107104E+00
         21   -1    0    0  502  501  0.00000000000E+00  0.00000000000E+00  0.16108201111E+03  0.16108201111E+03  0.00000000000E+00 0. -1.
         21   -1    0    0  501  502 -0.00000000000E+00 -0.00000000000E+00 -0.41987396836E+03  0.41987396836E+03  0.00000000000E+00 0. -1.
         25    1    1    2    0    0  0.39657912756E+02  0.27853573019E+02  0.29733342965E+02  0.13732313446E+03  0.12500000000E+03 0.  0.
         25    1    1    2    0    0 -0.77205564800E+02  0.63966713703E+02 -0.21443118499E+03  0.26769044211E+03  0.12500000000E+03 0.  0.
         25    1    1    2    0    0  0.37547652044E+02 -0.91820286722E+02 -0.74094115230E+02  0.17594240290E+03  0.12500000000E+03 0.  0.
</event>
<event>
 5    0  0.6281166E-005  0.2732292E+03  0.7546771E-02  0.1099446E+00
         21   -1    0    0  502  501  0.00000000000E+00  0.00000000000E+00  0.19815837971E+03  0.19815837971E+03  0.00000000000E+00 0. -1.
         21   -1    0    0  501  502 -0.00000000000E+00 -0.00000000000E+00 -0.37674000872E+03  0.37674000872E+03  0.00000000000E+00 0. -1.
         25    1    1    2    0    0 -0.51911267871E+02  0.76466609453E+02 -0.69024147299E+01  0.15561029986E+03  0.12500000000E+03 0.  0.
         25    1    1    2    0    0  0.78619628228E+01  0.56273491821E+01  0.60829081640E+02  0.13935083312E+03  0.12500000000E+03 0.  0.
         25    1    1    2    0    0  0.44049305048E+02 -0.82093958636E+02 -0.23250829592E+03  0.27993725545E+03  0.12500000000E+03 0.  0.
</event>
<event>
 5    0  0.5786117E-005  0.4311991E+03  0.7546771E-02  0.1033482E+00
         21   -1    0    0  502  501  0.00000000000E+00  0.00000000000E+00  0.14509413246E+03  0.14509413246E+03  0.00000000000E+00 0.  1.
         21   -1    0    0  501  502 -0.00000000000E+00 -0.00000000000E+00 -0.12814623093E+04  0.12814623093E+04  0.00000000000E+00 0.  1.
         25    1    1    2    0    0  0.26120170620E+03  0.10398027823E+03 -0.45070781168E+03  0.54571124332E+03  0.12500000000E+03 0.  0.
         25    1    1    2    0    0 -0.81713168640E+02 -0.22618198168E+03 -0.20867768020E+03  0.34206242849E+03  0.12500000000E+03 0.  0.
         25    1    1    2    0    0 -0.17948853756E+03  0.12220170346E+03 -0.47698268493E+03  0.53878276992E+03  0.12500000000E+03 0.  0.
</event>
<event>
 5    0  0.5786117E-005  0.4809787E+03  0.7546771E-02  0.1018867E+00
         21   -1    0    0  502  501  0.00000000000E+00  0.00000000000E+00  0.36806869717E+03  0.36806869717E+03  0.00000000000E+00 0.  1.
         21   -1    0    0  501  502 -0.00000000000E+00 -0.00000000000E+00 -0.62852539434E+03  0.62852539434E+03  0.00000000000E+00 0.  1.
         25    1    1    2    0    0  0.99358275437E+02 -0.23032749295E+03 -0.68815490211E+02  0.28858862175E+03  0.12500000000E+03 0.  0.
         25    1    1    2    0    0  0.12506350259E+03 -0.15163144160E+02 -0.28939615838E+03  0.33947891998E+03  0.12500000000E+03 0.  0.
         25    1    1    2    0    0 -0.22442177803E+03  0.24549063711E+03  0.97754951431E+02  0.36852654978E+03  0.12500000000E+03 0.  0.
</event>
<event>
 5    0  0.5786117E-005  0.5789798E+03  0.7546771E-02  0.9950002E-01
         21   -1    0    0  502  501  0.00000000000E+00  0.00000000000E+00  0.55206802922E+03  0.55206802922E+03  0.00000000000E+00 0. -1.
         21   -1    0    0  501  502 -0.00000000000E+00 -0.00000000000E+00 -0.60720343207E+03  0.60720343207E+03  0.00000000000E+00 0. -1.
         25    1    1    2    0    0 -0.29211289140E+03 -0.22969186589E+03  0.15851324382E+03  0.42289448216E+03  0.12500000000E+03 0.  0.
         25    1    1    2    0    0 -0.30856044131E+02 -0.12757918598E+03  0.27703446244E+02  0.18336036946E+03  0.12500000000E+03 0.  0.
         25    1    1    2    0    0  0.32296893553E+03  0.35727105187E+03 -0.24135209291E+03  0.55301660967E+03  0.12500000000E+03 0.  0.
</event>
<event>
 5    0  0.5786117E-005  0.3665632E+03  0.7546771E-02  0.1056015E+00
         21   -1    0    0  502  501  0.00000000000E+00  0.00000000000E+00  0.51015719117E+03  0.51015719117E+03  0.00000000000E+00 0. -1.
         21   -1    0    0  501  502 -0.00000000000E+00 -0.00000000000E+00 -0.26338660006E+03  0.26338660006E+03  0.00000000000E+00 0. -1.
         25    1    1    2    0    0 -0.68124420384E+02  0.64077800851E+02  0.23490935018E+03  0.28205372541E+03  0.12500000000E+03 0.  0.
         25    1    1    2    0    0 -0.79347938362E+02 -0.60113378915E+02 -0.16481914040E+03  0.22956494220E+03  0.12500000000E+03 0.  0.
         25    1    1    2    0    0  0.14747235875E+03 -0.39644219363E+01  0.17668038133E+03  0.26192512362E+03  0.12500000000E+03 0.  0.
</event>
<event>
 5    0  0.5786117E-005  0.2560800E+03  0.7546771E-02  0.1109522E+00
         21   -1    0    0  502  501  0.00000000000E+00  0.00000000000E+00  0.13376504802E+04  0.13376504802E+04  0.00000000000E+00 0.  1.
         21   -1    0    0  501  502 -0.00000000000E+00 -0.00000000000E+00 -0.49023977818E+02  0.49023977818E+02  0.00000000000E+00 0.  1.
         25    1    1    2    0    0  0.66480958909E+02 -0.12037923140E+03  0.45157975934E+03  0.48832382319E+03  0.12500000000E+03 0.  0.
         25    1    1    2    0    0 -0.18770923669E+02  0.13803327958E+03  0.55433733812E+03  0.58508154841E+03  0.12500000000E+03 0.  0.
         25    1    1    2    0    0 -0.47710035239E+02 -0.17654048184E+02  0.28270940496E+03  0.31326908646E+03  0.12500000000E+03 0.  0.
</event>
<event>
 5    0  0.5786117E-005  0.3094695E+03  0.7546771E-02  0.1080600E+00
         21   -1    0    0  502  501  0.00000000000E+00  0.00000000000E+00  0.21308498611E+04  0.21308498611E+04  0.00000000000E+00 0. -1.
         21   -1    0    0  501  502 -0.00000000000E+00 -0.00000000000E+00 -0.44945166171E+02  0.44945166171E+02  0.00000000000E+00 0. -1.
         25    1    1    2    0    0 -0.20530423140E+03  0.44821121554E+02  0.79492605125E+03  0.83167973844E+03  0.12500000000E+03 0.  0.
         25    1    1    2    0    0  0.72250207345E+02 -0.91382199853E+02  0.42876771060E+03  0.46155990788E+03  0.12500000000E+03 0.  0.
         25    1    1    2    0    0  0.13305402405E+03  0.46561078299E+02  0.86221093309E+03  0.88255538097E+03  0.12500000000E+03 0.  0.
</event>
<event>
 5    0  0.6236370E-005  0.5027039E+03  0.7546771E-02  0.1013076E+00
         21   -1    0    0  502  501  0.00000000000E+00  0.00000000000E+00  0.10833745501E+04  0.10833745501E+04  0.00000000000E+00 0. -1.
         21   -1    0    0  501  502 -0.00000000000E+00 -0.00000000000E+00 -0.23326303942E+03  0.23326303942E+03  0.00000000000E+00 0. -1.
         25    1    1    2    0    0  0.18377417118E+03  0.36067853868E+02  0.46847492832E+03  0.51977648518E+03  0.12500000000E+03 0.  0.
         25    1    1    2    0    0 -0.36863769934E+02  0.29143585079E+03  0.16486237050E+03  0.35930264940E+03  0.12500000000E+03 0.  0.
         25    1    1    2    0    0 -0.14691040125E+03 -0.32750370466E+03  0.21677421187E+03  0.43755845494E+03  0.12500000000E+03 0.  0.
</event>
<event>
 5    0  0.5786117E-005  0.3592001E+03  0.7546771E-02  0.1058901E+00
         21   -1    0    0  502  501  0.00000000000E+00  0.00000000000E+00  0.41814081219E+03  0.41814081219E+03  0.00000000000E+00 0.  1.
         21   -1    0    0  501  502 -0.00000000000E+00 -0.00000000000E+00 -0.30856759912E+03  0.30856759912E+03  0.00000000000E+00 0.  1.
         25    1    1    2    0    0 -0.44292507303E+02  0.17543667878E+03  0.28756350072E+03  0.36201881361E+03  0.12500000000E+03 0.  0.
         25    1    1    2    0    0  0.42171078930E+02 -0.12440772869E+03 -0.12176480133E+03  0.21842012201E+03  0.12500000000E+03 0.  0.
         25    1    1    2    0    0  0.21214283734E+01 -0.51028950092E+02 -0.56225486308E+02  0.14626947568E+03  0.12500000000E+03 0.  0.
</event>
<event>
 5    0  0.5786117E-005  0.3116526E+03  0.7546771E-02  0.1079556E+00
         21   -1    0    0  502  501  0.00000000000E+00  0.00000000000E+00  0.26034001879E+04  0.26034001879E+04  0.00000000000E+00 0. -1.
         21   -1    0    0  501  502 -0.00000000000E+00 -0.00000000000E+00 -0.37307876678E+02  0.37307876678E+02  0.00000000000E+00 0. -1.
         25    1    1    2    0    0 -0.67896730874E+01 -0.14140758071E+03  0.69337981468E+03  0.71863952783E+03  0.12500000000E+03 0.  0.
         25    1    1    2    0    0  0.91472810403E+02  0.18949746851E+03  0.14524301979E+04  0.14729070050E+04  0.12500000000E+03 0.  0.
         25    1    1    2    0    0 -0.84683137315E+02 -0.48089887799E+02  0.42028229865E+03  0.44916153176E+03  0.12500000000E+03 0.  0.
</event>
<event>
 5    0  0.5786117E-005  0.3030900E+03  0.7546771E-02  0.1083706E+00
         21   -1    0    0  502  501  0.00000000000E+00  0.00000000000E+00  0.15478351526E+04  0.15478351526E+04  0.00000000000E+00 0.  1.
         21   -1    0    0  501  502 -0.00000000000E+00 -0.00000000000E+00 -0.59349678853E+02  0.59349678853E+02  0.00000000000E+00 0.  1.
         25    1    1    2    0    0 -0.13192647740E+03 -0.17547095084E+03  0.80436799763E+03  0.84310588045E+03  0.12500000000E+03 0.  0.
         25    1    1    2    0    0  0.85789424025E+02  0.82011408709E+02  0.28523892210E+03  0.33327457016E+03  0.12500000000E+03 0.  0.
         25    1    1    2    0    0  0.46137053373E+02  0.93459542127E+02  0.39887855405E+03  0.43080438089E+03  0.12500000000E+03 0.  0.
</event>
<event>
 5    0  0.5786117E-005  0.4468626E+03  0.7546771E-02  0.1028662E+00
         21   -1    0    0  502  501  0.00000000000E+00  0.00000000000E+00  0.14091441137E+04  0.14091441137E+04  0.00000000000E+00 0. -1.
         21   -1    0    0  501  502 -0.00000000000E+00 -0.00000000000E+00 -0.14170745539E+03  0.14170745539E+03  0.00000000000E+00 0. -1.
         25    1    1    2    0    0 -0.67830821572E+00  0.19185794260E+03  0.85654534985E+03  0.88662555038E+03  0.12500000000E+03 0.  0.
         25    1    1    2    0    0 -0.66371630677E+02  0.11382237365E+03  0.18014435820E+03  0.25580796683E+03  0.12500000000E+03 0.  0.
         25    1    1    2    0    0  0.67049938893E+02 -0.30568031625E+03  0.23074695024E+03  0.40841805187E+03  0.12500000000E+03 0.  0.
</event>
<event>
 5    0  0.5786117E-005  0.3273177E+03  0.7546771E-02  0.1072330E+00
         21   -1    0    0  502  501  0.00000000000E+00  0.00000000000E+00  0.95542190086E+03  0.95542190086E+03  0.00000000000E+00 0.  1.
         21   -1    0    0  501  502 -0.00000000000E+00 -0.00000000000E+00 -0.11213568409E+03  0.11213568409E+03  0.00000000000E+00 0.  1.
         25    1    1    2    0    0  0.94765610261E+02 -0.18651992038E+03  0.44847720123E+03  0.51041845736E+03  0.12500000000E+03 0.  0.
         25    1    1    2    0    0  0.26374973409E+02 -0.82804856925E+01  0.16770524192E+03  0.21098401322E+03  0.12500000000E+03 0.  0.
         25    1    1    2    0    0 -0.12114058367E+03  0.19480040607E+03  0.22710377361E+03  0.34615511437E+03  0.12500000000E+03 0.  0.
</event>
<event>
 5    0  0.5786117E-005  0.2754286E+03  0.7546771E-02  0.1098212E+00
         21   -1    0    0  502  501  0.00000000000E+00  0.00000000000E+00  0.65206418194E+03  0.65206418194E+03  0.00000000000E+00 0.  1.
         21   -1    0    0  501  502 -0.00000000000E+00 -0.00000000000E+00 -0.11633960274E+03  0.11633960274E+03  0.00000000000E+00 0.  1.
         25    1    1    2    0    0 -0.11199434596E+03  0.97429952948E+02  0.10142941576E+03  0.21897090135E+03  0.12500000000E+03 0.  0.
         25    1    1    2    0    0  0.13886997406E+03 -0.24609608146E+02  0.22323592813E+03  0.29214685026E+03  0.12500000000E+03 0.  0.
         25    1    1    2    0    0 -0.26875628099E+02 -0.72820344803E+02  0.21105923531E+03  0.25728603307E+03  0.12500000000E+03 0.  0.
</event>
<event>
 5    0  0.5786117E-005  0.2789741E+03  0.7546771E-02  0.1096251E+00
         21   -1    0    0  502  501  0.00000000000E+00  0.00000000000E+00  0.70456469355E+02  0.70456469355E+02  0.00000000000E+00 0.  1.
         21   -1    0    0  501  502 -0.00000000000E+00 -0.00000000000E+00 -0.11046046394E+04  0.11046046394E+04  0.00000000000E+00 0.  1.
         25    1    1    2    0    0 -0.19215038437E+01 -0.13509505415E+03 -0.33085999142E+03  0.37861286263E+03  0.12500000000E+03 0.  0.
         25    1    1    2    0    0  0.40654964028E+02  0.17204251469E+02 -0.94785499854E+02  0.16296657127E+03  0.12500000000E+03 0.  0.
         25    1    1    2    0    0 -0.38733460185E+02  0.11789080268E+03 -0.60850267874E+03  0.63348167482E+03  0.12500000000E+03 0.  0.
</event>
<event>
 5    0  0.5786117E-005  0.3316535E+03  0.7546771E-02  0.1070408E+00
         21   -1    0    0  502  501  0.00000000000E+00  0.00000000000E+00  0.32112145159E+03  0.32112145159E+03  0.00000000000E+00 0. -1.
         21   -1    0    0  501  502 -0.00000000000E+00 -0.00000000000E+00 -0.34253102842E+03  0.34253102842E+03  0.00000000000E+00 0. -1.
         25    1    1    2    0    0 -0.97835431603E+02  0.17046225462E+02  0.13033453820E+03  0.20609327337E+03  0.12500000000E+03 0.  0.
         25    1    1    2    0    0  0.15259917858E+03 -0.12600908508E+03 -0.15867924216E+03  0.28278773085E+03  0.12500000000E+03 0.  0.
         25    1    1    2    0    0 -0.54763746979E+02  0.10896285962E+03  0.69351271313E+01  0.17477147579E+03  0.12500000000E+03 0.  0.
</event>
<event>
 5    0  0.5786117E-005  0.8084937E+03  0.7546771E-02  0.9547804E-01
         21   -1    0    0  502  501  0.00000000000E+00  0.00000000000E+00  0.17189960700E+04  0.17189960700E+04  0.00000000000E+00 0. -1.
         21   -1    0    0  501  502 -0.00000000000E+00 -0.00000000000E+00 -0.38025800297E+03  0.38025800297E+03  0.00000000000E+00 0. -1.
         25    1    1    2    0    0 -0.90821249738E+02 -0.33042140610E+03  0.22284862499E+03  0.42744978029E+03  0.12500000000E+03 0.  0.
         25    1    1    2    0    0 -0.22217040462E+03  0.62053881772E+03  0.28396755719E+03  0.72848519994E+03  0.12500000000E+03 0.  0.
         25    1    1    2    0    0  0.31299165436E+03 -0.29011741162E+03  0.83192188482E+03  0.94331909271E+03  0.12500000000E+03 0.  0.
</event>
<event>
 5    0  0.5786117E-005  0.2408366E+03  0.7546771E-02  0.1119237E+00
         21   -1    0    0  502  501  0.00000000000E+00  0.00000000000E+00  0.18561032201E+03  0.18561032201E+03  0.00000000000E+00 0.  1.
         21   -1    0    0  501  502 -0.00000000000E+00 -0.00000000000E+00 -0.31249487297E+03  0.31249487297E+03  0.00000000000E+00 0.  1.
         25    1    1    2    0    0 -0.11113181009E+03  0.23014096232E+01 -0.14010033420E+03  0.21819413224E+03  0.12500000000E+03 0.  0.
         25    1    1    2    0    0  0.73889822332E+02  0.92263950633E+01  0.27908300677E+02  0.14815095496E+03  0.12500000000E+03 0.  0.
         25    1    1    2    0    0  0.37241987761E+02 -0.11527804686E+02 -0.14692517428E+02  0.13176010778E+03  0.12500000000E+03 0.  0.
</event>
<event>
 5    0  0.5786117E-005  0.3924441E+03  0.7546771E-02  0.1046428E+00
         21   -1    0    0  502  501  0.00000000000E+00  0.00000000000E+00  0.94777186068E+02  0.94777186068E+02  0.00000000000E+00 0. -1.
         21   -1    0    0  501  502 -0.00000000000E+00 -0.00000000000E+00 -0.16249942156E+04  0.16249942156E+04  0.00000000000E+00 0. -1.
         25    1    1    2    0    0 -0.75824287341E+02  0.21560982686E+03 -0.59856578115E+03  0.65279622728E+03  0.12500000000E+03 0.  0.
         25    1    1    2    0    0  0.88822029767E+02 -0.38362053418E+02 -0.79440500451E+03  0.80997858694E+03  0.12500000000E+03 0.  0.
         25    1    1    2    0    0 -0.12997742426E+02 -0.17724777344E+03 -0.13724624385E+03  0.25699658743E+03  0.12500000000E+03 0.  0.
</event>
<event>
 5    0  0.5786117E-005  0.3031107E+03  0.7546771E-02  0.1083696E+00
         21   -1    0    0  502  501  0.00000000000E+00  0.00000000000E+00  0.10897728960E+04  0.10897728960E+04  0.00000000000E+00 0. -1.
         21   -1    0    0  501  502 -0.00000000000E+00 -0.00000000000E+00 -0.84307576313E+02  0.84307576313E+02  0.00000000000E+00 0. -1.
         25    1    1    2    0    0  0.17221502828E+02 -0.13485623161E+03  0.22310922073E+03  0.28962994966E+03  0.12500000000E+03 0.  0.
         25    1    1    2    0    0 -0.10713065628E+03  0.22610200181E+02  0.14947953981E+03  0.22351136769E+03  0.12500000000E+03 0.  0.
         25    1    1    2    0    0  0.89909153447E+02  0.11224603143E+03  0.63287655919E+03  0.66093915500E+03  0.12500000000E+03 0.  0.
</event>
<event>
 5    0  0.5990951E-005  0.3490191E+03  0.7546771E-02  0.1063018E+00
         21   -1    0    0  502  501  0.00000000000E+00  0.00000000000E+00  0.54645753945E+03  0.54645753945E+03  0.00000000000E+00 0. -1.
         21   -1    0    0  501  502 -0.00000000000E+00 -0.00000000000E+00 -0.22291631948E+03  0.22291631948E+03  0.00000000000E+00 0. -1.
         25    1    1    2    0    0  0.72484208126E+02 -0.45986957932E+02 -0.56587663438E+02  0.16185155044E+03  0.12500000000E+03 0.  0.
         25    1    1    2    0    0 -0.46987731919E+00 -0.16193361323E+03  0.92780496885E+02  0.22462398910E+03  0.12500000000E+03 0.  0.
         25    1    1    2    0    0 -0.72014330807E+02  0.20792057116E+03  0.28734838652E+03  0.38289831939E+03  0.12500000000E+03 0.  0.
</event>
<event>
 5    0  0.5786117E-005  0.4059407E+03  0.7546771E-02  0.1041742E+00
         21   -1    0    0  502  501  0.00000000000E+00  0.00000000000E+00  0.49281457993E+03  0.49281457993E+03  0.00000000000E+00 0.  1.
         21   -1    0    0  501  502 -0.00000000000E+00 -0.00000000000E+00 -0.33438105568E+03  0.33438105568E+03  0.00000000000E+00 0.  1.
         25    1    1    2    0    0  0.23485903388E+03 -0.12348397237E+03  0.11600723634E+03  0.31541993614E+03  0.12500000000E+03 0.  0.
         25    1    1    2    0    0 -0.14791919311E+03  0.24704718299E+03  0.28153887162E+02  0.31516668554E+03  0.12500000000E+03 0.  0.
         25    1    1    2    0    0 -0.86939840774E+02 -0.12356321062E+03  0.14272400748E+02  0.19660901392E+03  0.12500000000E+03 0.  0.
</event>
<event>
 5    0  0.5786117E-005  0.2338419E+03  0.7546771E-02  0.1123965E+00
         21   -1    0    0  502  501  0.00000000000E+00  0.00000000000E+00  0.55878352380E+03  0.55878352380E+03  0.00000000000E+00 0. -1.
         21   -1    0    0  501  502 -0.00000000000E+00 -0.00000000000E+00 -0.97859028448E+02  0.97859028448E+02  0.00000000000E+00 0. -1.
         25    1    1    2    0    0  0.51850182974E+02 -0.26789136092E+02  0.12860921437E+03  0.18860389526E+03  0.12500000000E+03 0.  0.
         25    1    1    2    0    0  0.92884450671E+01 -0.68650061885E+02  0.77931563181E+02  0.16278032666E+03  0.12500000000E+03 0.  0.
         25    1    1    2    0    0 -0.61138628041E+02  0.95439197978E+02  0.25438371780E+03  0.30525833032E+03  0.12500000000E+03 0.  0.
</event>
<event>
 5    0  0.5786117E-005  0.2449145E+03  0.7546771E-02  0.1116562E+00
         21   -1    0    0  502  501  0.00000000000E+00  0.00000000000E+00  0.79892195033E+02  0.79892195033E+02  0.00000000000E+00 0. -1.
         21   -1    0    0  501  502 -0.00000000000E+00 -0.00000000000E+00 -0.75080091327E+03  0.75080091327E+03  0.00000000000E+00 0. -1.
         25    1    1    2    0    0 -0.13179088777E+03  0.56132014133E+02 -0.21494139690E+03  0.28695721843E+03  0.12500000000E+03 0.  0.
         25    1    1    2    0    0  0.49536674037E+02 -0.39950373339E+02 -0.27207281385E+03  0.30610215687E+03  0.12500000000E+03 0.  0.
         25    1    1    2    0    0  0.82254213729E+02 -0.16181640795E+02 -0.18389450749E+03  0.23763373300E+03  0.12500000000E+03 0.  0.
</event>
<event>
 5    0  0.5786117E-005  0.3610480E+03  0.7546771E-02  0.1058170E+00
         21   -1    0    0  502  501  0.00000000000E+00  0.00000000000E+00  0.74265634563E+03  0.74265634563E+03  0.00000000000E+00 0.  1.
         21   -1    0    0  501  502 -0.00000000000E+00 -0.00000000000E+00 -0.17552622385E+03  0.17552622385E+03  0.00000000000E+00 0.  1.
         25    1    1    2    0    0 -0.18565976216E+01 -0.12067411807E+03 -0.88957875155E+02  0.19520295407E+03  0.12500000000E+03 0.  0.
         25    1    1    2    0    0 -0.47282168787E+02  0.18919070702E+02  0.30623740931E+03  0.33466383967E+03  0.12500000000E+03 0.  0.
         25    1    1    2    0    0  0.49138766408E+02  0.10175504736E+03  0.34985058762E+03  0.38831577574E+03  0.12500000000E+03 0.  0.
</event>
<event>
 5    0  0.5786117E-005  0.3275914E+03  0.7546771E-02  0.1072208E+00
         21   -1    0    0  502  501  0.00000000000E+00  0.00000000000E+00  0.56874972194E+02  0.56874972194E+02  0.00000000000E+00 0.  1.
         21   -1    0    0  501  502 -0.00000000000E+00 -0.00000000000E+00 -0.18868781683E+04  0.18868781683E+04  0.00000000000E+00 0.  1.
         25    1    1    2    0    0 -0.22499189019E+02  0.16891614102E+02 -0.68379095357E+03  0.69569146058E+03  0.12500000000E+03 0.  0.
         25    1    1    2    0    0  0.15586019157E+02 -0.21297621081E+03 -0.73589482121E+03  0.77638133559E+03  0.12500000000E+03 0.  0.
         25    1    1    2    0    0  0.69131698618E+01  0.19608459671E+03 -0.41031742129E+03  0.47168034430E+03  0.12500000000E+03 0.  0.
</event>
<event>
 5    0  0.5786117E-005  0.2407305E+03  0.7546771E-02  0.1119307E+00
         21   -1    0    0  502  501  0.00000000000E+00  0.00000000000E+00  0.52378786769E+03  0.52378786769E+03  0.00000000000E+00 0.  1.
         21   -1    0    0  501  502 -0.00000000000E+00 -0.00000000000E+00 -0.11063861740E+03  0.11063861740E+03  0.00000000000E+00 0.  1.
         25    1    1    2    0    0  0.12506104329E+02 -0.12089351972E+03  0.94667459289E+02  0.19838995338E+03  0.12500000000E+03 0.  0.
         25    1    1    2    0    0  0.31483662762E+02  0.19405669516E+02  0.12656912588E+03  0.18169354600E+03  0.12500000000E+03 0.  0.
         25    1    1    2    0    0 -0.43989767090E+02  0.10148785020E+03  0.19191266511E+03  0.25434298571E+03  0.12500000000E+03 0.  0.
</event>
<event>
 5    0  0.5786117E-005  0.4863836E+03  0.7546771E-02  0.1017395E+00
         21   -1    0    0  502  501  0.00000000000E+00  0.00000000000E+00  0.92857398924E+03  0.92857398924E+03  0.00000000000E+00 0. -1.
         21   -1    0    0  501  502 -0.00000000000E+00 -0.00000000000E+00 -0.25476589902E+03  0.25476589902E+03  0.00000000000E+00 0. -1.
         25    1    1    2    0    0  0.34104119096E+03  0.16575851876E+03  0.11960390964E+03  0.41679140547E+03  0.12500000000E+03 0.  0.
         25    1    1    2    0    0 -0.34040922494E+03 -0.14008079903E+03  0.48436451720E+03  0.62107572502E+03  0.12500000000E+03 0.  0.
         25    1    1    2    0    0 -0.63196602397E+00 -0.25677719730E+02  0.69839663381E+02  0.14547275777E+03  0.12500000000E+03 0.  0.
</event>
<event>
 5    0  0.5786117E-005  0.2201636E+03  0.7546771E-02  0.1133761E+00
         21   -1    0    0  502  501  0.00000000000E+00  0.00000000000E+00  0.16927358023E+04  0.16927358023E+04  0.00000000000E+00 0.  1.
         21   -1    0    0  501  502 -0.00000000000E+00 -0.00000000000E+00 -0.28635304761E+02  0.28635304761E+02  0.00000000000E+00 0.  1.
         25    1    1    2    0    0  0.20545836196E+02  0.29112600370E+01  0.48870386403E+03  0.50486342068E+03  0.12500000000E+03 0.  0.
         25    1    1    2    0    0 -0.75353353601E+02 -0.25142517690E+02  0.85212952835E+03  0.86490462317E+03  0.12500000000E+03 0.  0.
         25    1    1    2    0    0  0.54807517405E+02  0.22231257653E+02  0.32326710512E+03  0.35160306317E+03  0.12500000000E+03 0.  0.
</event>
<event>
 5    0  0.5786117E-005  0.3269073E+03  0.7546771E-02  0.1072514E+00
         21   -1    0    0  502  501  0.00000000000E+00  0.00000000000E+00  0.80377592031E+02  0.80377592031E+02  0.00000000000E+00 0.  1.
         21   -1    0    0  501  502 -0.00000000000E+00 -0.00000000000E+00 -0.13295792490E+04  0.13295792490E+04  0.00000000000E+00 0.  1.
         25    1    1    2    0    0  0.89843207347E+02 -0.13442136030E+03 -0.65347566230E+03  0.68468704181E+03  0.12500000000E+03 0.  0.
         25    1    1    2    0    0  0.25914315768E+02  0.15224402946E+03 -0.15363974734E+03  0.25115725797E+03  0.12500000000E+03 0.  0.
         25    1    1    2    0    0 -0.11575752311E+03 -0.17822669155E+02 -0.44208624736E+03  0.47411254128E+03  0.12500000000E+03 0.  0.
</event>
<event>
 5    0  0.5786117E-005  0.2897650E+03  0.7546771E-02  0.1090472E+00
         21   -1    0    0  502  501  0.00000000000E+00  0.00000000000E+00  0.60896656197E+02  0.60896656197E+02  0.00000000000E+00 0.  1.
         21   -1    0    0  501  502 -0.00000000000E+00 -0.00000000000E+00 -0.13787912511E+04  0.13787912511E+04  0.00000000000E+00 0.  1.
         25    1    1    2    0    0  0.17191316218E+02 -0.93305059108E+02 -0.20440276443E+03  0.25769529587E+03  0.12500000000E+03 0.  0.
         25    1    1    2    0    0 -0.97511693268E+02  0.20734213002E+02 -0.88850430635E+03  0.90277535429E+03  0.12500000000E+03 0.  0.
         25    1    1    2    0    0  0.80320377050E+02  0.72570846106E+02 -0.22498752416E+03  0.27921725717E+03  0.12500000000E+03 0.  0.
</event>
<event>
 5    0  0.5786117E-005  0.4596224E+03  0.7546771E-02  0.1024891E+00
         21   -1    0    0  502  501  0.00000000000E+00  0.00000000000E+00  0.31042437697E+03  0.31042437697E+03  0.00000000000E+00 0.  1.
         21   -1    0    0  501  502 -0.00000000000E+00 -0.00000000000E+00 -0.68052873858E+03  0.68052873858E+03  0.00000000000E+00 0.  1.
         25    1    1    2    0    0  0.25709081386E+03  0.63045807063E+02 -0.22613762245E+03  0.36991037380E+03  0.12500000000E+03 0.  0.
         25    1    1    2    0    0 -0.31553723239E+03  0.13246131719E+03 -0.74526889998E+02  0.37187229382E+03  0.12500000000E+03 0.  0.
         25    1    1    2    0    0  0.58446418525E+02 -0.19550712425E+03 -0.69439849161E+02  0.24917044793E+03  0.12500000000E+03 0.  0.
</event>
<event>
 5    0  0.5786117E-005  0.2888254E+03  0.7546771E-02  0.1090964E+00
         21   -1    0    0  502  501  0.00000000000E+00  0.00000000000E+00  0.48001296986E+03  0.48001296986E+03  0.00000000000E+00 0.  1.
         21   -1    0    0  501  502 -0.00000000000E+00 -0.00000000000E+00 -0.17378726008E+03  0.17378726008E+03  0.00000000000E+00 0.  1.
         25    1    1    2    0    0  0.17141469167E+03 -0.47136527757E+02  0.83481169115E+02  0.23280668883E+03  0.12500000000E+03 0.  0.
         25    1    1    2    0    0  0.34894214526E+01  0.47780555971E+02  0.13085277836E+03  0.18719670722E+03  0.12500000000E+03 0.  0.
         25    1    1    2    0    0 -0.17490411312E+03 -0.64402821375E+00  0.91891762306E+02  0.23379683389E+03  0.12500000000E+03 0.  0.
</event>
<event>
 5    0  0.5786117E-005  0.3950666E+03  0.7546771E-02  0.1045501E+00
         21   -1    0    0  502  501  0.00000000000E+00  0.00000000000E+00  0.55113203610E+03  0.55113203610E+03  0.00000000000E+00 0.  1.
         21   -1    0    0  501  502 -0.00000000000E+00 -0.00000000000E+00 -0.28319465548E+03  0.28319465548E+03  0.00000000000E+00 0.  1.
         25    1    1    2    0    0  0.36287028014E+02  0.30275962563E+02  0.37253582900E+02  0.13873071668E+03  0.12500000000E+03 0.  0.
         25    1    1    2    0    0 -0.29728038810E+03  0.41121368562E+02  0.10935926452E+02  0.32528632093E+03  0.12500000000E+03 0.  0.
         25    1    1    2    0    0  0.26099336008E+03 -0.71397331125E+02  0.21974787127E+03  0.37030965397E+03  0.12500000000E+03 0.  0.
</event>
<event>
 5    0  0.5786117E-005  0.3531948E+03  0.7546771E-02  0.1061311E+00
         21   -1    0    0  502  501  0.00000000000E+00  0.00000000000E+00  0.16731087472E+04  0.16731087472E+04  0.00000000000E+00 0. -1.
         21   -1    0    0  501  502 -0.00000000000E+00 -0.00000000000E+00 -0.74559741711E+02  0.74559741711E+02  0.00000000000E+00 0. -1.
         25    1    1    2    0    0  0.11057416434E+03 -0.62214919129E+02  0.12123317388E+04  0.12253450889E+04  0.12500000000E+03 0.  0.
         25    1    1    2    0    0  0.31630629566E+01  0.35080830433E+02  0.30775026812E+03  0.33402978484E+03  0.12500000000E+03 0.  0.
         25    1    1    2    0    0 -0.11373722730E+03  0.27134088696E+02  0.78466998531E+02  0.18829361514E+03  0.12500000000E+03 0.  0.
</event>
<event>
 5    0  0.5786117E-005  0.3819648E+03  0.7546771E-02  0.1050210E+00
         21   -1    0    0  502  501  0.00000000000E+00  0.00000000000E+00  0.14285878093E+04  0.14285878093E+04  0.00000000000E+00 0. -1.
         21   -1    0    0  501  502 -0.00000000000E+00 -0.00000000000E+00 -0.10212680919E+03  0.10212680919E+03  0.00000000000E+00 0. -1.
         25    1    1    2    0    0  0.17727992779E+03 -0.15478821608E+03  0.30721195650E+03  0.40668384631E+03  0.12500000000E+03 0.  0.
         25    1    1    2    0    0 -0.15287673895E+03 -0.68418648125E+02  0.35709422030E+03  0.41375559319E+03  0.12500000000E+03 0.  0.
         25    1    1    2    0    0 -0.24403188840E+02  0.22320686421E+03  0.66215482336E+03  0.71027517904E+03  0.12500000000E+03 0.  0.
</event>
<event>
 5    0  0.6080711E-005  0.3499850E+03  0.7546771E-02  0.1062621E+00
         21   -1    0    0  502  501  0.00000000000E+00  0.00000000000E+00  0.26373408582E+03  0.26373408582E+03  0.00000000000E+00 0. -1.
         21   -1    0    0  501  502 -0.00000000000E+00 -0.00000000000E+00 -0.46444326612E+03  0.46444326612E+03  0.00000000000E+00 0. -1.
         25    1    1    2    0    0 -0.69760773524E+02 -0.34203203042E+02  0.85524991270E+02  0.17022323212E+03  0.12500000000E+03 0.  0.
         25    1    1    2    0    0  0.16931290834E+03  0.16359876213E+03 -0.20738868089E+03  0.33773729563E+03  0.12500000000E+03 0.  0.
         25    1    1    2    0    0 -0.99552134815E+02 -0.12939555909E+03 -0.78845490684E+02  0.22021682420E+03  0.12500000000E+03 0.  0.
</event>
<event>
 5    0  0.5786117E-005  0.4205227E+03  0.7546771E-02  0.1036896E+00
         21   -1    0    0  502  501  0.00000000000E+00  0.00000000000E+00  0.53684061876E+03  0.53684061876E+03  0.00000000000E+00 0.  1.
         21   -1    0    0  501  502 -0.00000000000E+00 -0.00000000000E+00 -0.32940748694E+03  0.32940748694E+03  0.00000000000E+00 0.  1.
         25    1    1    2    0    0 -0.14937099683E+03 -0.33407612919E+03  0.98485968851E+02  0.39905267929E+03  0.12500000000E+03 0.  0.
         25    1    1    2    0    0  0.80123215557E+02  0.19709344012E+03  0.10770339059E+03  0.26924073643E+03  0.12500000000E+03 0.  0.
         25    1    1    2    0    0  0.69247781275E+02  0.13698268906E+03  0.12437723842E+01  0.19795468998E+03  0.12500000000E+03 0.  0.
</event>
<event>
 5    0  0.5838539E-005  0.2854063E+03  0.7546771E-02  0.1092772E+00
         21   -1    0    0  502  501  0.00000000000E+00  0.00000000000E+00  0.46704725312E+03  0.46704725312E+03  0.00000000000E+00 0. -1.
         21   -1    0    0  501  502 -0.00000000000E+00 -0.00000000000E+00 -0.17440797513E+03  0.17440797513E+03  0.00000000000E+00 0. -1.
         25    1    1    2    0    0 -0.66064652259E+02 -0.10360073973E+03  0.10413553323E+03  0.20387952529E+03  0.12500000000E+03 0.  0.
         25    1    1    2    0    0  0.70529689571E+02 -0.65642469417E+02  0.42742150360E+01  0.15788172730E+03  0.12500000000E+03 0.  0.
         25    1    1    2    0    0 -0.44650373121E+01  0.16924320914E+03  0.18422952972E+03  0.27969397566E+03  0.12500000000E+03 0.  0.
</event>
<event>
 5    0  0.5786117E-005  0.2834062E+03  0.7546771E-02  0.1093843E+00
         21   -1    0    0  502  501  0.00000000000E+00  0.00000000000E+00  0.12858841192E+03  0.12858841192E+03  0.00000000000E+00 0. -1.
         21   -1    0    0  501  502 -0.00000000000E+00 -0.00000000000E+00 -0.62462123625E+03  0.62462123625E+03  0.00000000000E+00 0. -1.
         25    1    1    2    0    0  0.31404205220E+02 -0.16618924509E+03 -0.10953435062E+03  0.23712415156E+03  0.12500000000E+03 0.  0.
         25    1    1    2    0    0 -0.95236262312E+02  0.10106893685E+03 -0.19848342187E+03  0.27259043346E+03  0.12500000000E+03 0.  0.
         25    1    1    2    0    0  0.63832057092E+02  0.65120308243E+02 -0.18801505185E+03  0.24349506315E+03  0.12500000000E+03 0.  0.
</event>
<event>
 5    0  0.5786117E-005  0.6851089E+03  0.7546771E-02  0.9743042E-01
         21   -1    0    0  502  501  0.00000000000E+00  0.00000000000E+00  0.62725103230E+03  0.62725103230E+03  0.00000000000E+00 0. -1.
         21   -1    0    0  501  502 -0.00000000000E+00 -0.00000000000E+00 -0.74830364040E+03  0.74830364040E+03  0.00000000000E+00 0. -1.
         25    1    1    2    0    0 -0.27660424468E+03 -0.11821871468E+03 -0.13180512374E+03  0.35140171218E+03  0.12500000000E+03 0.  0.
         25    1    1    2    0    0 -0.24220135042E+03 -0.24840750718E+03  0.64890557374E+02  0.37443766932E+03  0.12500000000E+03 0.  0.
         25    1    1    2    0    0  0.51880559510E+03  0.36662622186E+03 -0.54138041737E+02  0.64971529120E+03  0.12500000000E+03 0.  0.
</event>
<event>
 5    0  0.5786117E-005  0.2511809E+03  0.7546771E-02  0.1112561E+00
         21   -1    0    0  502  501  0.00000000000E+00  0.00000000000E+00  0.17028670663E+04  0.17028670663E+04  0.00000000000E+00 0. -1.
         21   -1    0    0  501  502 -0.00000000000E+00 -0.00000000000E+00 -0.37050378176E+02  0.37050378176E+02  0.00000000000E+00 0. -1.
         25    1    1    2    0    0 -0.11708390000E+03  0.99886691898E+02  0.72789305576E+03  0.75441321004E+03  0.12500000000E+03 0.  0.
         25    1    1    2    0    0  0.85786042939E+02 -0.80392019406E+02  0.56336140825E+03  0.58891697059E+03  0.12500000000E+03 0.  0.
         25    1    1    2    0    0  0.31297857057E+02 -0.19494672492E+02  0.37456222416E+03  0.39658726389E+03  0.12500000000E+03 0.  0.
</event>
<event>
 5    0  0.5786117E-005  0.6412506E+03  0.7546771E-02  0.9823337E-01
         21   -1    0    0  502  501  0.00000000000E+00  0.00000000000E+00  0.11918026885E+04  0.11918026885E+04  0.00000000000E+00 0. -1.
         21   -1    0    0  501  502 -0.00000000000E+00 -0.00000000000E+00 -0.34502554679E+03  0.34502554679E+03  0.00000000000E+00 0. -1.
         25    1    1    2    0    0 -0.19849684861E+03  0.17676498243E+02 -0.26371860232E+02  0.23671487598E+03  0.12500000000E+03 0.  0.
         25    1    1    2    0    0  0.29082539912E+03 -0.38012062780E+03  0.72745072513E+03  0.87970487207E+03  0.12500000000E+03 0.  0.
         25    1    1    2    0    0 -0.92328550508E+02  0.36244412956E+03  0.14569827684E+03  0.42040848727E+03  0.12500000000E+03 0.  0.
</event>
<event>
 5    0  0.5786117E-005  0.3391683E+03  0.7546771E-02  0.1067151E+00
         21   -1    0    0  502  501  0.00000000000E+00  0.00000000000E+00  0.19521036677E+03  0.19521036677E+03  0.00000000000E+00 0. -1.
         21   -1    0    0  501  502 -0.00000000000E+00 -0.00000000000E+00 -0.58928792775E+03  0.58928792775E+03  0.00000000000E+00 0. -1.
         25    1    1    2    0    0 -0.24550061983E+03 -0.12265020180E+03 -0.21829501750E+03  0.37227857983E+03  0.12500000000E+03 0.  0.
         25    1    1    2    0    0  0.10330592725E+03  0.57236746607E+02 -0.92729098903E+02  0.19537616424E+03  0.12500000000E+03 0.  0.
         25    1    1    2    0    0  0.14219469257E+03  0.65413455194E+02 -0.83053444584E+02  0.21684355045E+03  0.12500000000E+03 0.  0.
</event>
<event>
 5    0  0.5786117E-005  0.2575828E+03  0.7546771E-02  0.1108604E+00
         21   -1    0    0  502  501  0.00000000000E+00  0.00000000000E+00  0.66876866305E+03  0.66876866305E+03  0.00000000000E+00 0. -1.
         21   -1    0    0  501  502 -0.00000000000E+00 -0.00000000000E+00 -0.99210524398E+02  0.99210524398E+02  0.00000000000E+00 0. -1.
         25    1    1    2    0    0 -0.21728841778E+02 -0.14043510419E+03  0.29862711441E+03  0.35354959272E+03  0.12500000000E+03 0.  0.
         25    1    1    2    0    0  0.59392211904E+02  0.91133667499E+02  0.19379919886E+03  0.25498217519E+03  0.12500000000E+03 0.  0.
         25    1    1    2    0    0 -0.37663370126E+02  0.49301436693E+02  0.77131825386E+02  0.15944741954E+03  0.12500000000E+03 0.  0.
</event>
<event>
 5    0  0.5786117E-005  0.1072988E+04  0.7546771E-02  0.9231927E-01
         21   -1    0    0  502  501  0.00000000000E+00  0.00000000000E+00  0.95827928912E+03  0.95827928912E+03  0.00000000000E+00 0.  1.
         21   -1    0    0  501  502 -0.00000000000E+00 -0.00000000000E+00 -0.12014278164E+04  0.12014278164E+04  0.00000000000E+00 0.  1.
         25    1    1    2    0    0  0.38640089906E+03  0.42434763426E+03 -0.87689024439E+03  0.10554326460E+04  0.12500000000E+03 0.  0.
         25    1    1    2    0    0  0.87473502737E+02 -0.93937666132E+02 -0.63619455048E+02  0.19012715182E+03  0.12500000000E+03 0.  0.
         25    1    1    2    0    0 -0.47387440180E+03 -0.33040996813E+03  0.69736117218E+03  0.91414730770E+03  0.12500000000E+03 0.  0.
</event>
<event>
 5    0  0.5786117E-005  0.4333018E+03  0.7546771E-02  0.1032822E+00
         21   -1    0    0  502  501  0.00000000000E+00  0.00000000000E+00  0.43269166233E+03  0.43269166233E+03  0.00000000000E+00 0.  1.
         21   -1    0    0  501  502 -0.00000000000E+00 -0.00000000000E+00 -0.43391288493E+03  0.43391288493E+03  0.00000000000E+00 0. -1.
         25    1    1    2    0    0 -0.30685296420E+03  0.62716189517E+02 -0.56012100474E+02  0.34183975407E+03  0.12500000000E+03 0.  0.
         25    1    1    2    0    0 -0.38602907018E+02 -0.28393855534E+02  0.78217819099E+02  0.15504651782E+03  0.12500000000E+03 0.  0.
         25    1    1    2    0    0  0.34545587121E+03 -0.34322333983E+02 -0.23426941222E+02  0.36971827537E+03  0.12500000000E+03 0.  0.
</event>
<event>
 5    0  0.5786117E-005  0.3036679E+03  0.7546771E-02  0.1083421E+00
         21   -1    0    0  502  501  0.00000000000E+00  0.00000000000E+00  0.64391769296E+03  0.64391769296E+03  0.00000000000E+00 0. -1.
         21   -1    0    0  501  502 -0.00000000000E+00 -0.00000000000E+00 -0.14320805416E+03  0.14320805416E+03  0.00000000000E+00 0. -1.
         25    1    1    2    0    0 -0.12118205793E+03 -0.14636175827E+03  0.32310683808E+03  0.39513274258E+03  0.12500000000E+03 0.  0.
         25    1    1    2    0    0  0.87370769959E+02  0.14352874337E+03  0.62070581714E+02  0.21843055814E+03  0.12500000000E+03 0.  0.
         25    1    1    2    0    0  0.33811287975E+02  0.28330148992E+01  0.11553221901E+03  0.17356244639E+03  0.12500000000E+03 0.  0.
</event>
<event>
 5    0  0.5786117E-005  0.3083689E+03  0.7546771E-02  0.1081130E+00
         21   -1    0    0  502  501  0.00000000000E+00  0.00000000000E+00  0.15555684258E+03  0.15555684258E+03  0.00000000000E+00 0.  1.
         21   -1    0    0  501  502 -0.00000000000E+00 -0.00000000000E+00 -0.61129655514E+03  0.61129655514E+03  0.00000000000E+00 0.  1.
         25    1    1    2    0    0  0.24962965749E+02  0.18144824526E+03 -0.34703502505E+03  0.41183118383E+03  0.12500000000E+03 0.  0.
         25    1    1    2    0    0 -0.16858668823E+02 -0.11875824472E+03 -0.12553129039E+03  0.21394120751E+03  0.12500000000E+03 0.  0.
         25    1    1    2    0    0 -0.81042969261E+01 -0.62690000541E+02  0.16826602874E+02  0.14108100638E+03  0.12500000000E+03 0.  0.
</event>
<event>
 5    0  0.5786117E-005  0.3462927E+03  0.7546771E-02  0.1064147E+00
         21   -1    0    0  502  501  0.00000000000E+00  0.00000000000E+00  0.18479517295E+04  0.18479517295E+04  0.00000000000E+00 0. -1.
         21   -1    0    0  501  502 -0.00000000000E+00 -0.00000000000E+00 -0.64892720283E+02  0.64892720283E+02  0.00000000000E+00 0. -1.
         25    1    1    2    0    0 -0.12450152874E+03 -0.12646316269E+03  0.13029496537E+04  0.13209074011E+04  0.12500000000E+03 0.  0.
         25    1    1    2    0    0 -0.14694811760E+01  0.60823802919E+02  0.30027607515E+03  0.33089638209E+03  0.12500000000E+03 0.  0.
         25    1    1    2    0    0  0.12597100991E+03  0.65639359769E+02  0.17983328036E+03  0.26104066659E+03  0.12500000000E+03 0.  0.
</event>
<event>
 5    0  0.5786117E-005  0.2533657E+03  0.7546771E-02  0.1111196E+00
         21   -1    0    0  502  501  0.00000000000E+00  0.00000000000E+00  0.11448986491E+04  0.11448986491E+04  0.00000000000E+00 0. -1.
         21   -1    0    0  501  502 -0.00000000000E+00 -0.00000000000E+00 -0.56069754345E+02  0.56069754345E+02  0.00000000000E+00 0. -1.
         25    1    1    2    0    0 -0.25750088785E+02 -0.10812070566E+03  0.65003679282E+03  0.67121232563E+03  0.12500000000E+03 0.  0.
         25    1    1    2    0    0 -0.11514463806E+02  0.26165923922E+00  0.21793958217E+03  0.25150608903E+03  0.12500000000E+03 0.  0.
         25    1    1    2    0    0  0.37264552591E+02  0.10785904642E+03  0.22085251980E+03  0.27824998881E+03  0.12500000000E+03 0.  0.
</event>
<event>
 5    0  0.5786117E-005  0.3308031E+03  0.7546771E-02  0.1070782E+00
         21   -1    0    0  502  501  0.00000000000E+00  0.00000000000E+00  0.32420366350E+03  0.32420366350E+03  0.00000000000E+00 0. -1.
         21   -1    0    0  501  502 -0.00000000000E+00 -0.00000000000E+00 -0.33753685538E+03  0.33753685538E+03  0.00000000000E+00 0. -1.
         25    1    1    2    0    0  0.78535921278E+02  0.14255628970E+03 -0.11106556346E+03  0.23334683638E+03  0.12500000000E+03 0.  0.
         25    1    1    2    0    0 -0.12635444057E+03 -0.17883353243E+03 -0.10708942071E+02  0.25236195912E+03  0.12500000000E+03 0.  0.
         25    1    1    2    0    0  0.47818519294E+02  0.36277242727E+02  0.10844131365E+03  0.17603172337E+03  0.12500000000E+03 0.  0.
</event>
<event>
 5    0  0.5786117E-005  0.3674105E+03  0.7546771E-02  0.1055688E+00
         21   -1    0    0  502  501  0.00000000000E+00  0.00000000000E+00  0.20891942972E+03  0.20891942972E+03  0.00000000000E+00 0. -1.
         21   -1    0    0  501  502 -0.00000000000E+00 -0.00000000000E+00 -0.64613663558E+03  0.64613663558E+03  0.00000000000E+00 0. -1.
         25    1    1    2    0    0 -0.27758214950E+03 -0.64568297539E+02 -0.13938990894E+03  0.34099187891E+03  0.12500000000E+03 0.  0.
         25    1    1    2    0    0  0.22139792572E+03  0.10635157998E+03 -0.18984115723E+03  0.33465260354E+03  0.12500000000E+03 0.  0.
         25    1    1    2    0    0  0.56184223780E+02 -0.41783282442E+02 -0.10798613969E+03  0.17941158284E+03  0.12500000000E+03 0.  0.
</event>
<event>
 5    0  0.5786117E-005  0.2863783E+03  0.7546771E-02  0.1092255E+00
         21   -1    0    0  502  501  0.00000000000E+00  0.00000000000E+00  0.81079365410E+02  0.81079365410E+02  0.00000000000E+00 0.  1.
         21   -1    0    0  501  502 -0.00000000000E+00 -0.00000000000E+00 -0.10115095714E+04  0.10115095714E+04  0.00000000000E+00 0.  1.
         25    1    1    2    0    0  0.18035129897E+02 -0.16350939708E+02 -0.30488886189E+03  0.33041615766E+03  0.12500000000E+03 0.  0.
         25    1    1    2    0    0 -0.15010118035E+03 -0.69584283375E+02 -0.44895269689E+03  0.49452589506E+03  0.12500000000E+03 0.  0.
         25    1    1    2    0    0  0.13206605045E+03  0.85935223082E+02 -0.17658864724E+03  0.26764688413E+03  0.12500000000E+03 0.  0.
</event>
<event>
 5    0  0.5786117E-005  0.2244847E+03  0.7546771E-02  0.1130583E+00
         21   -1    0    0  502  501  0.00000000000E+00  0.00000000000E+00  0.57823779953E+03  0.57823779953E+03  0.00000000000E+00 0.  1.
         21   -1    0    0  501  502 -0.00000000000E+00 -0.00000000000E+00 -0.87149907229E+02  0.87149907229E+02  0.00000000000E+00 0.  1.
         25    1    1    2    0    0 -0.32403787720E+02 -0.12210435139E+02  0.92448275094E+02  0.15928208861E+03  0.12500000000E+03 0.  0.
         25    1    1    2    0    0  0.42236075863E+02  0.85099534885E+02  0.14390672710E+03  0.21297878544E+03  0.12500000000E+03 0.  0.
         25    1    1    2    0    0 -0.98322881431E+01 -0.72889099746E+02  0.25473289011E+03  0.29312683271E+03  0.12500000000E+03 0.  0.
</event>
<event>
 5    0  0.5786117E-005  0.3032372E+03  0.7546771E-02  0.1083633E+00
         21   -1    0    0  502  501  0.00000000000E+00  0.00000000000E+00  0.11553033505E+03  0.11553033505E+03  0.00000000000E+00 0. -1.
         21   -1    0    0  501  502 -0.00000000000E+00 -0.00000000000E+00 -0.79591893681E+03  0.79591893681E+03  0.00000000000E+00 0. -1.
         25    1    1    2    0    0 -0.10777380926E+01  0.68349766209E+02 -0.49736319894E+03  0.51736641147E+03  0.12500000000E+03 0.  0.
         25    1    1    2    0    0 -0.11028585207E+03 -0.29602399902E+02 -0.13244464795E+03  0.21495547450E+03  0.12500000000E+03 0.  0.
         25    1    1    2    0    0  0.11136359016E+03 -0.38747366307E+02 -0.50580754871E+02  0.17912738588E+03  0.12500000000E+03 0.  0.
</event>
<event>
 5    0  0.5786117E-005  0.2313962E+03  0.7546771E-02  0.1125661E+00
         21   -1    0    0  502  501  0.00000000000E+00  0.00000000000E+00  0.12947310524E+03  0.12947310524E+03  0.00000000000E+00 0.  1.
         21   -1    0    0  501  502 -0.00000000000E+00 -0.00000000000E+00 -0.41355466990E+03  0.41355466990E+03  0.00000000000E+00 0.  1.
         25    1    1    2    0    0  0.72328660822E+01  0.15480633882E+02  0.20051058671E+02  0.12774587794E+03  0.12500000000E+03 0.  0.
         25    1    1    2    0    0 -0.39369023021E+02  0.42880798446E+02 -0.18140609656E+03  0.22786367574E+03  0.12500000000E+03 0.  0.
         25    1    1    2    0    0  0.32136156938E+02 -0.58361432329E+02 -0.12272652676E+03  0.18741822146E+03  0.12500000000E+03 0.  0.
</event>
<event>
 5    0  0.5786117E-005  0.3874986E+03  0.7546771E-02  0.1048197E+00
         21   -1    0    0  502  501  0.00000000000E+00  0.00000000000E+00  0.18377406352E+04  0.18377406352E+04  0.00000000000E+00 0.  1.
         21   -1    0    0  501  502 -0.00000000000E+00 -0.00000000000E+00 -0.81706396942E+02  0.81706396942E+02  0.00000000000E+00 0.  1.
         25    1    1    2    0    0  0.14651297100E+03  0.64051649380E+02  0.65733589176E+03  0.68795649503E+03  0.12500000000E+03 0.  0.
         25    1    1    2    0    0  0.51285983446E+02 -0.10757592000E+02  0.33532307590E+02  0.13962590568E+03  0.12500000000E+03 0.  0.
         25    1    1    2    0    0 -0.19779895444E+03 -0.53294057379E+02  0.10651660389E+04  0.10918646314E+04  0.12500000000E+03 0.  0.
</event>
<event>
 5    0  0.5786117E-005  0.2302147E+03  0.7546771E-02  0.1126489E+00
         21   -1    0    0  502  501  0.00000000000E+00  0.00000000000E+00  0.34853969568E+03  0.34853969568E+03  0.00000000000E+00 0. -1.
         21   -1    0    0  501  502 -0.00000000000E+00 -0.00000000000E+00 -0.15205961095E+03  0.15205961095E+03  0.00000000000E+00 0. -1.
         25    1    1    2    0    0 -0.24626123208E+02  0.47780068951E+02  0.16073089389E+03  0.21059155060E+03  0.12500000000E+03 0.  0.
         25    1    1    2    0    0  0.91900777432E+01 -0.30448296515E+02 -0.48156919068E+02  0.13767950154E+03  0.12500000000E+03 0.  0.
         25    1    1    2    0    0  0.15436045464E+02 -0.17331772436E+02  0.83906109920E+02  0.15232825449E+03  0.12500000000E+03 0.  0.
</event>
<event>
 5    0  0.5786117E-005  0.3024393E+03  0.7546771E-02  0.1084028E+00
         21   -1    0    0  502  501  0.00000000000E+00  0.00000000000E+00  0.64278639866E+02  0.64278639866E+02  0.00000000000E+00 0.  1.
         21   -1    0    0  501  502 -0.00000000000E+00 -0.00000000000E+00 -0.14230163808E+04  0.14230163808E+04  0.00000000000E+00 0.  1.
         25    1    1    2    0    0  0.83987636573E+01  0.12689697689E+03 -0.32429962036E+03  0.37009272586E+03  0.12500000000E+03 0.  0.
         25    1    1    2    0    0  0.50032629523E+01 -0.95912460631E+02 -0.13223480294E+03  0.20575537867E+03  0.12500000000E+03 0.  0.
         25    1    1    2    0    0 -0.13402026610E+02 -0.30984516257E+02 -0.90220331762E+03  0.91144691612E+03  0.12500000000E+03 0.  0.
</event>
<event>
 5    0  0.5786117E-005  0.2229038E+03  0.7546771E-02  0.1131736E+00
         21   -1    0    0  502  501  0.00000000000E+00  0.00000000000E+00  0.34634779911E+02  0.34634779911E+02  0.00000000000E+00 0.  1.
         21   -1    0    0  501  502 -0.00000000000E+00 -0.00000000000E+00 -0.14345730324E+04  0.14345730324E+04  0.00000000000E+00 0.  1.
         25    1    1    2    0    0  0.26501262530E+02  0.48941070801E+02 -0.32680330112E+03  0.35429217173E+03  0.12500000000E+03 0.  0.
         25    1    1    2    0    0  0.37906443861E+02 -0.78077283710E+02 -0.43589544212E+03  0.46169556764E+03  0.12500000000E+03 0.  0.
         25    1    1    2    0    0 -0.64407706392E+02  0.29136212909E+02 -0.63723950927E+03  0.65322007296E+03  0.12500000000E+03 0.  0.
</event>
<event>
 5    0  0.6000863E-005  0.3581297E+03  0.7546771E-02  0.1059327E+00
         21   -1    0    0  502  501  0.00000000000E+00  0.00000000000E+00  0.78183494749E+03  0.78183494749E+03  0.00000000000E+00 0.  1.
         21   -1    0    0  501  502 -0.00000000000E+00 -0.00000000000E+00 -0.16404595744E+03  0.16404595744E+03  0.00000000000E+00 0.  1.
         25    1    1    2    0    0  0.11418774165E+02 -0.76307974842E+02  0.42749514799E+03  0.45202919926E+03  0.12500000000E+03 0.  0.
         25    1    1    2    0    0  0.12406966943E+03 -0.87941611431E+02  0.14083314892E+03  0.24204542080E+03  0.12500000000E+03 0.  0.
         25    1    1    2    0    0 -0.13548844359E+03  0.16424958627E+03  0.49460693142E+02  0.25180628488E+03  0.12500000000E+03 0.  0.
</event>
<event>
 5    0  0.6227494E-005  0.2752926E+03  0.7546771E-02  0.1098288E+00
         21   -1    0    0  502  501  0.00000000000E+00  0.00000000000E+00  0.39458024267E+03  0.39458024267E+03  0.00000000000E+00 0.  1.
         21   -1    0    0  501  502 -0.00000000000E+00 -0.00000000000E+00 -0.19206747371E+03  0.19206747371E+03  0.00000000000E+00 0.  1.
         25    1    1    2    0    0  0.84242458319E+02  0.15946918409E+03  0.13126732433E+03  0.25570162865E+03  0.12500000000E+03 0.  0.
         25    1    1    2    0    0  0.34774066803E-01 -0.10218976162E+03  0.44463184475E+02  0.16746558859E+03  0.12500000000E+03 0.  0.
         25    1    1    2    0    0 -0.84277232386E+02 -0.57279422471E+02  0.26782260151E+02  0.16348049913E+03  0.12500000000E+03 0.  0.
</event>
<event>
 5    0  0.5786117E-005  0.2421340E+03  0.7546771E-02  0.1118379E+00
         21   -1    0    0  502  501  0.00000000000E+00  0.00000000000E+00  0.46475463646E+03  0.46475463646E+03  0.00000000000E+00 0. -1.
         21   -1    0    0  501  502 -0.00000000000E+00 -0.00000000000E+00 -0.12615015377E+03  0.12615015377E+03  0.00000000000E+00 0. -1.
         25    1    1    2    0    0 -0.26870700487E+01  0.58731336765E+01  0.30710544716E+03  0.33163303473E+03  0.12500000000E+03 0.  0.
         25    1    1    2    0    0 -0.77895870960E+01 -0.50164747715E+01  0.44842542688E+02  0.13312286175E+03  0.12500000000E+03 0.  0.
         25    1    1    2    0    0  0.10476657145E+02 -0.85665890502E+00 -0.13343507161E+02  0.12614889374E+03  0.12500000000E+03 0.  0.
</event>
<event>
 5    0  0.5786117E-005  0.3078761E+03  0.7546771E-02  0.1081368E+00
         21   -1    0    0  502  501  0.00000000000E+00  0.00000000000E+00  0.11646220353E+04  0.11646220353E+04  0.00000000000E+00 0. -1.
         21   -1    0    0  501  502 -0.00000000000E+00 -0.00000000000E+00 -0.81389243929E+02  0.81389243929E+02  0.00000000000E+00 0. -1.
         25    1    1    2    0    0 -0.36835742395E+02  0.35574850456E+02  0.27198242353E+03  0.30368055686E+03  0.12500000000E+03 0.  0.
         25    1    1    2    0    0 -0.10507509553E+03 -0.26344016332E+01  0.71859547702E+02  0.17842788563E+03  0.12500000000E+03 0.  0.
         25    1    1    2    0    0  0.14191083793E+03 -0.32940448823E+02  0.73939082018E+03  0.76390283679E+03  0.12500000000E+03 0.  0.
</event>
<event>
 5    0  0.5786117E-005  0.3843902E+03  0.7546771E-02  0.1049323E+00
         21   -1    0    0  502  501  0.00000000000E+00  0.00000000000E+00  0.11520055080E+04  0.11520055080E+04  0.00000000000E+00 0.  1.
         21   -1    0    0  501  502 -0.00000000000E+00 -0.00000000000E+00 -0.12825968398E+03  0.12825968398E+03  0.00000000000E+00 0.  1.
         25    1    1    2    0    0  0.19603773027E+02  0.19144215164E+03  0.54841892351E+03  0.59449366776E+03  0.12500000000E+03 0.  0.
         25    1    1    2    0    0 -0.12448162078E+02 -0.22341800309E+03  0.77936510678E+02  0.26789860123E+03  0.12500000000E+03 0.  0.
         25    1    1    2    0    0 -0.71556109496E+01  0.31975851443E+02  0.39739038978E+03  0.41787292295E+03  0.12500000000E+03 0.  0.
</event>
<event>
 5    0  0.5786117E-005  0.3176201E+03  0.7546771E-02  0.1076750E+00
         21   -1    0    0  502  501  0.00000000000E+00  0.00000000000E+00  0.55291997829E+04  0.55291997829E+04  0.00000000000E+00 0.  1.
         21   -1    0    0  501  502 -0.00000000000E+00 -0.00000000000E+00 -0.18245416151E+02  0.18245416151E+02  0.00000000000E+00 0.  1.
         25    1    1    2    0    0 -0.92695579764E+01 -0.69922743017E+02  0.73361807972E+03  0.74752632167E+03  0.12500000000E+03 0.  0.
         25    1    1    2    0    0 -0.65370122268E+02 -0.58142199990E+02  0.38251066405E+04  0.38281483226E+04  0.12500000000E+03 0.  0.
         25    1    1    2    0    0  0.74639680244E+02  0.12806494301E+03  0.95222964650E+03  0.97177055479E+03  0.12500000000E+03 0.  0.
</event>
<event>
 5    0  0.6058429E-005  0.2686178E+03  0.7546771E-02  0.1102073E+00
         21   -1    0    0  502  501  0.00000000000E+00  0.00000000000E+00  0.51153653693E+03  0.51153653693E+03  0.00000000000E+00 0. -1.
         21   -1    0    0  501  502 -0.00000000000E+00 -0.00000000000E+00 -0.14105648910E+03  0.14105648910E+03  0.00000000000E+00 0. -1.
         25    1    1    2    0    0 -0.50405460744E+02 -0.91454216038E+02  0.12170949089E+03  0.20332925091E+03  0.12500000000E+03 0.  0.
         25    1    1    2    0    0 -0.85757286968E+02  0.57002335411E+02  0.37106129759E+02  0.16614885909E+03  0.12500000000E+03 0.  0.
         25    1    1    2    0    0  0.13616274771E+03  0.34451880627E+02  0.21166442719E+03  0.28311491603E+03  0.12500000000E+03 0.  0.
</event>
<event>
 5    0  0.5786117E-005  0.4193978E+03  0.7546771E-02  0.1037262E+00
         21   -1    0    0  502  501  0.00000000000E+00  0.00000000000E+00  0.13737344672E+03  0.13737344672E+03  0.00000000000E+00 0. -1.
         21   -1    0    0  501  502 -0.00000000000E+00 -0.00000000000E+00 -0.12804112858E+04  0.12804112858E+04  0.00000000000E+00 0. -1.
         25    1    1    2    0    0 -0.12067327603E+03  0.17500794953E+03 -0.17772284935E+03  0.30397406654E+03  0.12500000000E+03 0.  0.
         25    1    1    2    0    0  0.15142733753E+03 -0.21941011796E+03 -0.92658043506E+03  0.97223831495E+03  0.12500000000E+03 0.  0.
         25    1    1    2    0    0 -0.30754061499E+02  0.44402168422E+02 -0.38734554717E+02  0.14157235107E+03  0.12500000000E+03 0.  0.
</event>
<event>
 5    0  0.5786117E-005  0.2802638E+03  0.7546771E-02  0.1095545E+00
         21   -1    0    0  502  501  0.00000000000E+00  0.00000000000E+00  0.13904860466E+04  0.13904860466E+04  0.00000000000E+00 0. -1.
         21   -1    0    0  501  502 -0.00000000000E+00 -0.00000000000E+00 -0.56489471264E+02  0.56489471264E+02  0.00000000000E+00 0. -1.
         25    1    1    2    0    0 -0.45879729277E+02  0.11830265117E+03  0.26571032542E+03  0.31988661095E+03  0.12500000000E+03 0.  0.
         25    1    1    2    0    0 -0.66349071298E+02  0.13136575051E+02  0.34860636609E+03  0.37646536009E+03  0.12500000000E+03 0.  0.
         25    1    1    2    0    0  0.11222880058E+03 -0.13143922622E+03  0.71967988385E+03  0.75062354685E+03  0.12500000000E+03 0.  0.
</event>
<event>
 5    0  0.5786117E-005  0.4019164E+03  0.7546771E-02  0.1043118E+00
         21   -1    0    0  502  501  0.00000000000E+00  0.00000000000E+00  0.51497704962E+03  0.51497704962E+03  0.00000000000E+00 0. -1.
         21   -1    0    0  501  502 -0.00000000000E+00 -0.00000000000E+00 -0.31367761896E+03  0.31367761896E+03  0.00000000000E+00 0. -1.
         25    1    1    2    0    0  0.68855974072E+02 -0.22253636980E+03  0.22467335422E+03  0.34693903953E+03  0.12500000000E+03 0.  0.
         25    1    1    2    0    0 -0.36995263937E+02  0.27017319636E+03 -0.10963765971E+03  0.31938632095E+03  0.12500000000E+03 0.  0.
         25    1    1    2    0    0 -0.31860710135E+02 -0.47636826558E+02  0.86263736149E+02  0.16232930810E+03  0.12500000000E+03 0.  0.
</event>
<event>
 5    0  0.5786117E-005  0.2890008E+03  0.7546771E-02  0.1090872E+00
         21   -1    0    0  502  501  0.00000000000E+00  0.00000000000E+00  0.78399683996E+03  0.78399683996E+03  0.00000000000E+00 0. -1.
         21   -1    0    0  501  502 -0.00000000000E+00 -0.00000000000E+00 -0.10653293149E+03  0.10653293149E+03  0.00000000000E+00 0. -1.
         25    1    1    2    0    0  0.12189782686E+02  0.16033965541E+03  0.20462211325E+03  0.28870851239E+03  0.12500000000E+03 0.  0.
         25    1    1    2    0    0  0.82613172984E+02 -0.11169006136E+03  0.34980583079E+03  0.39659642637E+03  0.12500000000E+03 0.  0.
         25    1    1    2    0    0 -0.94802955670E+02 -0.48649594054E+02  0.12303596444E+03  0.20522483269E+03  0.12500000000E+03 0.  0.
</event>
<event>
 5    0  0.5786117E-005  0.2649966E+03  0.7546771E-02  0.1104178E+00
         21   -1    0    0  502  501  0.00000000000E+00  0.00000000000E+00  0.19280597041E+03  0.19280597041E+03  0.00000000000E+00 0. -1.
         21   -1    0    0  501  502 -0.00000000000E+00 -0.00000000000E+00 -0.36421696272E+03  0.36421696272E+03  0.00000000000E+00 0. -1.
         25    1    1    2    0    0 -0.11233933295E+03 -0.41814436306E+02 -0.16889958974E+03  0.24191040537E+03  0.12500000000E+03 0.  0.
         25    1    1    2    0    0  0.79217555935E+02 -0.48265026615E+02  0.15787109501E+02  0.15645819502E+03  0.12500000000E+03 0.  0.
         25    1    1    2    0    0  0.33121777016E+02  0.90079462921E+02 -0.18298512075E+02  0.15865433274E+03  0.12500000000E+03 0.  0.
</event>
<event>
 5    0  0.5786117E-005  0.3961006E+03  0.7546771E-02  0.1045138E+00
         21   -1    0    0  502  501  0.00000000000E+00  0.00000000000E+00  0.51403337356E+03  0.51403337356E+03  0.00000000000E+00 0.  1.
         21   -1    0    0  501  502 -0.00000000000E+00 -0.00000000000E+00 -0.30522465062E+03  0.30522465062E+03  0.00000000000E+00 0.  1.
         25    1    1    2    0    0 -0.21966117299E+03  0.27366880558E+02  0.23657619088E+03  0.34726541890E+03  0.12500000000E+03 0.  0.
         25    1    1    2    0    0  0.11944640209E+03  0.15070284910E+03  0.96247912720E+01  0.22955702626E+03  0.12500000000E+03 0.  0.
         25    1    1    2    0    0  0.10021477090E+03 -0.17806972966E+03 -0.37392259211E+02  0.24243557902E+03  0.12500000000E+03 0.  0.
</event>
<event>
 5    0  0.5786117E-005  0.2775387E+03  0.7546771E-02  0.1097041E+00
         21   -1    0    0  502  501  0.00000000000E+00  0.00000000000E+00  0.14917868990E+03  0.14917868990E+03  0.00000000000E+00 0. -1.
         21   -1    0    0  501  502 -0.00000000000E+00 -0.00000000000E+00 -0.51634535892E+03  0.51634535892E+03  0.00000000000E+00 0. -1.
         25    1    1    2    0    0  0.24336612295E+02  0.53238476217E+02  0.42344922304E+02  0.14437693200E+03  0.12500000000E+03 0.  0.
         25    1    1    2    0    0  0.34746857282E+02 -0.10567572266E+03 -0.27123339303E+03  0.31869618126E+03  0.12500000000E+03 0.  0.
         25    1    1    2    0    0 -0.59083469577E+02  0.52437246446E+02 -0.13827819829E+03  0.20245093557E+03  0.12500000000E+03 0.  0.
</event>
<event>
 5    0  0.5786117E-005  0.3622893E+03  0.7546771E-02  0.1057681E+00
         21   -1    0    0  502  501  0.00000000000E+00  0.00000000000E+00  0.29588389026E+03  0.29588389026E+03  0.00000000000E+00 0.  1.
         21   -1    0    0  501  502 -0.00000000000E+00 -0.00000000000E+00 -0.44359818557E+03  0.44359818557E+03  0.00000000000E+00 0.  1.
         25    1    1    2    0    0  0.22228984915E+03  0.17406413096E+03  0.43441790709E+02  0.31180649111E+03  0.12500000000E+03 0.  0.
         25    1    1    2    0    0 -0.92091062008E+02 -0.78808689036E+02 -0.56021785537E+02  0.18290711748E+03  0.12500000000E+03 0.  0.
         25    1    1    2    0    0 -0.13019878714E+03 -0.95255441922E+02 -0.13513430049E+03  0.24476846724E+03  0.12500000000E+03 0.  0.
</event>
<event>
 5    0  0.5786117E-005  0.3321051E+03  0.7546771E-02  0.1070209E+00
         21   -1    0    0  502  501  0.00000000000E+00  0.00000000000E+00  0.14896107436E+03  0.14896107436E+03  0.00000000000E+00 0. -1.
         21   -1    0    0  501  502 -0.00000000000E+00 -0.00000000000E+00 -0.74042031537E+03  0.74042031537E+03  0.00000000000E+00 0. -1.
         25    1    1    2    0    0  0.27559063174E+02 -0.86196694996E+02 -0.34238287842E+03  0.37555346840E+03  0.12500000000E+03 0.  0.
         25    1    1    2    0    0  0.11054121116E+03  0.10196430134E+03 -0.26143844929E+03  0.32648298713E+03  0.12500000000E+03 0.  0.
         25    1    1    2    0    0 -0.13810027434E+03 -0.15767606349E+02  0.12362086711E+02  0.18734493420E+03  0.12500000000E+03 0.  0.
</event>
<event>
 5    0  0.5786117E-005  0.2382550E+03  0.7546771E-02  0.1120961E+00
         21   -1    0    0  502  501  0.00000000000E+00  0.00000000000E+00  0.16615543435E+03  0.16615543435E+03  0.00000000000E+00 0. -1.
         21   -1    0    0  501  502 -0.00000000000E+00 -0.00000000000E+00 -0.34164057404E+03  0.34164057404E+03  0.00000000000E+00 0. -1.
         25    1    1    2    0    0 -0.11857038425E+03  0.36763648873E+02 -0.16290220759E+02  0.17692052790E+03  0.12500000000E+03 0.  0.
         25    1    1    2    0    0  0.88825742597E+02  0.76840884049E+01 -0.74136880297E+02  0.17050024863E+03  0.12500000000E+03 0.  0.
         25    1    1    2    0    0  0.29744641651E+02 -0.44447737278E+02 -0.85058038633E+02  0.16037523185E+03  0.12500000000E+03 0.  0.
</event>
<event>
 5    0  0.7227792E-005  0.7497859E+03  0.7546771E-02  0.9635686E-01
         21   -1    0    0  502  501  0.00000000000E+00  0.00000000000E+00  0.33065582306E+03  0.33065582306E+03  0.00000000000E+00 0. -1.
         21   -1    0    0  501  502 -0.00000000000E+00 -0.00000000000E+00 -0.17001935192E+04  0.17001935192E+04  0.00000000000E+00 0. -1.
         25    1    1    2    0    0 -0.31140371584E+03  0.14545644849E+03 -0.52613385660E+03  0.64075868133E+03  0.12500000000E+03 0.  0.
         25    1    1    2    0    0 -0.77104664760E+02 -0.52325148300E+03 -0.34835918273E+03  0.64553571860E+03  0.12500000000E+03 0.  0.
         25    1    1    2    0    0  0.38850838060E+03  0.37779503451E+03 -0.49504465678E+03  0.74455494230E+03  0.12500000000E+03 0.  0.
</event>
<event>
 5    0  0.5786117E-005  0.3983082E+03  0.7546771E-02  0.1044367E+00
         21   -1    0    0  502  501  0.00000000000E+00  0.00000000000E+00  0.17554684090E+04  0.17554684090E+04  0.00000000000E+00 0. -1.
         21   -1    0    0  501  502 -0.00000000000E+00 -0.00000000000E+00 -0.90374430936E+02  0.90374430936E+02  0.00000000000E+00 0. -1.
         25    1    1    2    0    0  0.17058565410E+03  0.11289091649E+03  0.99593154643E+03  0.10243771130E+04  0.12500000000E+03 0.  0.
         25    1    1    2    0    0  0.11637939456E+01  0.26505625488E+02  0.26639872000E+02  0.13053193241E+03  0.12500000000E+03 0.  0.
         25    1    1    2    0    0 -0.17174944804E+03 -0.13939654198E+03  0.64252255967E+03  0.69093379459E+03  0.12500000000E+03 0.  0.
</event>
<event>
 5    0  0.5786117E-005  0.2949440E+03  0.7546771E-02  0.1087796E+00
         21   -1    0    0  502  501  0.00000000000E+00  0.00000000000E+00  0.18876121360E+03  0.18876121360E+03  0.00000000000E+00 0.  1.
         21   -1    0    0  501  502 -0.00000000000E+00 -0.00000000000E+00 -0.46085723897E+03  0.46085723897E+03  0.00000000000E+00 0.  1.
         25    1    1    2    0    0  0.60850685680E+02  0.11402501639E+03 -0.26806190470E+03  0.32277963854E+03  0.12500000000E+03 0.  0.
         25    1    1    2    0    0  0.31854169701E+02 -0.25229251182E+02  0.48530210506E+02  0.14011204293E+03  0.12500000000E+03 0.  0.
         25    1    1    2    0    0 -0.92704855381E+02 -0.88795765204E+02 -0.52564331186E+02  0.18672677109E+03  0.12500000000E+03 0.  0.
</event>
<event>
 5    0  0.5786117E-005  0.3527919E+03  0.7546771E-02  0.1061475E+00
         21   -1    0    0  502  501  0.00000000000E+00  0.00000000000E+00  0.27451092661E+03  0.27451092661E+03  0.00000000000E+00 0. -1.
         21   -1    0    0  501  502 -0.00000000000E+00 -0.00000000000E+00 -0.45339600851E+03  0.45339600851E+03  0.00000000000E+00 0. -1.
         25    1    1    2    0    0  0.57258049787E+02  0.15529547623E+03 -0.78256055115E+02  0.22168486499E+03  0.12500000000E+03 0.  0.
         25    1    1    2    0    0  0.24036277449E+02  0.10633535544E+03  0.44801401625E+02  0.17180545986E+03  0.12500000000E+03 0.  0.
         25    1    1    2    0    0 -0.81294327235E+02 -0.26163083167E+03 -0.14543042841E+03  0.33441661028E+03  0.12500000000E+03 0.  0.
</event>
<event>
 5    0  0.5786117E-005  0.2638709E+03  0.7546771E-02  0.1104840E+00
         21   -1    0    0  502  501  0.00000000000E+00  0.00000000000E+00  0.29771549857E+03  0.29771549857E+03  0.00000000000E+00 0. -1.
         21   -1    0    0  501  502 -0.00000000000E+00 -0.00000000000E+00 -0.23387385172E+03  0.23387385172E+03  0.00000000000E+00 0. -1.
         25    1    1    2    0    0 -0.16496888283E+02  0.92288689077E+02 -0.11852451324E+03  0.19611835634E+03  0.12500000000E+03 0.  0.
         25    1    1    2    0    0 -0.74571836971E+01 -0.76223940789E+02  0.60698561610E+02  0.15866636102E+03  0.12500000000E+03 0.  0.
         25    1    1    2    0    0  0.23954071980E+02 -0.16064748288E+02  0.12166759848E+03  0.17680463292E+03  0.12500000000E+03 0.  0.
</event>
<event>
 5    0  0.5786117E-005  0.2744402E+03  0.7546771E-02  0.1098765E+00
         21   -1    0    0  502  501  0.00000000000E+00  0.00000000000E+00  0.50250121928E+03  0.50250121928E+03  0.00000000000E+00 0.  1.
         21   -1    0    0  501  502 -0.00000000000E+00 -0.00000000000E+00 -0.14988505226E+03  0.14988505226E+03  0.00000000000E+00 0. -1.
         25    1    1    2    0    0  0.37971044361E+02  0.49025530868E+01  0.14685778113E+03  0.19661648740E+03  0.12500000000E+03 0.  0.
         25    1    1    2    0    0  0.11206930496E+03  0.33315254448E+02  0.22922612020E+01  0.17117152145E+03  0.12500000000E+03 0.  0.
         25    1    1    2    0    0 -0.15004034933E+03 -0.38217807535E+02  0.20346612468E+03  0.28459826270E+03  0.12500000000E+03 0.  0.
</event>
<event>
 5    0  0.5786117E-005  0.2489093E+03  0.7546771E-02  0.1113996E+00
         21   -1    0    0  502  501  0.00000000000E+00  0.00000000000E+00  0.13707955362E+03  0.13707955362E+03  0.00000000000E+00 0.  1.
         21   -1    0    0  501  502 -0.00000000000E+00 -0.00000000000E+00 -0.45196981825E+03  0.45196981825E+03  0.00000000000E+00 0.  1.
         25    1    1    2    0    0 -0.12729946461E+02 -0.14582336701E+02 -0.87988412365E+02  0.15408327875E+03  0.12500000000E+03 0.  0.
         25    1    1    2    0    0 -0.12197147941E+03  0.31826037369E+02 -0.15894155159E+03  0.23827999343E+03  0.12500000000E+03 0.  0.
         25    1    1    2    0    0  0.13470142587E+03 -0.17243700668E+02 -0.67960300671E+02  0.19668609969E+03  0.12500000000E+03 0.  0.
</event>
<event>
 5    0  0.5786117E-005  0.2376550E+03  0.7546771E-02  0.1121365E+00
         21   -1    0    0  502  501  0.00000000000E+00  0.00000000000E+00  0.21711289302E+03  0.21711289302E+03  0.00000000000E+00 0. -1.
         21   -1    0    0  501  502 -0.00000000000E+00 -0.00000000000E+00 -0.26014071376E+03  0.26014071376E+03  0.00000000000E+00 0. -1.
         25    1    1    2    0    0 -0.43247678053E+02 -0.50352420966E+02 -0.70777011025E+01  0.14170681637E+03  0.12500000000E+03 0.  0.
         25    1    1    2    0    0 -0.74658734256E+02 -0.21435871325E+02 -0.21927945138E+02  0.14879266769E+03  0.12500000000E+03 0.  0.
         25    1    1    2    0    0  0.11790641231E+03  0.71788292290E+02 -0.14022174496E+02  0.18675412272E+03  0.12500000000E+03 0.  0.
</event>
<event>
 5    0  0.5786117E-005  0.5072736E+03  0.7546771E-02  0.1011898E+00
         21   -1    0    0  502  501  0.00000000000E+00  0.00000000000E+00  0.76879439795E+03  0.76879439795E+03  0.00000000000E+00 0.  1.
         21   -1    0    0  501  502 -0.00000000000E+00 -0.00000000000E+00 -0.33471439883E+03  0.33471439883E+03  0.00000000000E+00 0.  1.
         25    1    1    2    0    0  0.15162672655E+03 -0.33330314661E+02  0.33542782584E+03  0.39017739610E+03  0.12500000000E+03 0.  0.
         25    1    1    2    0    0 -0.33477280489E+02  0.15363895234E+03  0.33911465753E+03  0.39414389116E+03  0.12500000000E+03 0.  0.
         25    1    1    2    0    0 -0.11814944606E+03 -0.12030863768E+03 -0.24046248424E+03  0.31918750952E+03  0.12500000000E+03 0.  0.
</event>
<event>
 5    0  0.5786117E-005  0.5298380E+03  0.7546771E-02  0.1006271E+00
         21   -1    0    0  502  501  0.00000000000E+00  0.00000000000E+00  0.36016333605E+03  0.36016333605E+03  0.00000000000E+00 0.  1.
         21   -1    0    0  501  502 -0.00000000000E+00 -0.00000000000E+00 -0.77944710478E+03  0.77944710478E+03  0.00000000000E+00 0.  1.
         25    1    1    2    0    0 -0.24421931216E+02 -0.19868717573E+03  0.94307240430E+02  0.25414932642E+03  0.12500000000E+03 0.  0.
         25    1    1    2    0    0  0.20248302971E+03  0.36677558966E+03 -0.24529637590E+03  0.50131728727E+03  0.12500000000E+03 0.  0.
         25    1    1    2    0    0 -0.17806109849E+03 -0.16808841393E+03 -0.26829463326E+03  0.38414382714E+03  0.12500000000E+03 0.  0.
</event>
<event>
 5    0  0.5786117E-005  0.3066762E+03  0.7546771E-02  0.1081950E+00
         21   -1    0    0  502  501  0.00000000000E+00  0.00000000000E+00  0.22874525738E+03  0.22874525738E+03  0.00000000000E+00 0.  1.
         21   -1    0    0  501  502 -0.00000000000E+00 -0.00000000000E+00 -0.41115731762E+03  0.41115731762E+03  0.00000000000E+00 0.  1.
         25    1    1    2    0    0  0.59842147419E+02  0.90694642812E+02 -0.38516610910E+02  0.17004449464E+03  0.12500000000E+03 0.  0.
         25    1    1    2    0    0 -0.12095866866E+03  0.90327783675E+02  0.71003862605E+01  0.19612629480E+03  0.12500000000E+03 0.  0.
         25    1    1    2    0    0  0.61116521237E+02 -0.18102242649E+03 -0.15099583559E+03  0.27373178556E+03  0.12500000000E+03 0.  0.
</event>
<event>
 5    0  0.5786117E-005  0.2926793E+03  0.7546771E-02  0.1088958E+00
         21   -1    0    0  502  501  0.00000000000E+00  0.00000000000E+00  0.72780829472E+03  0.72780829472E+03  0.00000000000E+00 0. -1.
         21   -1    0    0  501  502 -0.00000000000E+00 -0.00000000000E+00 -0.11769744410E+03  0.11769744410E+03  0.00000000000E+00 0. -1.
         25    1    1    2    0    0  0.11765505760E+03  0.12898843747E+03  0.31944820024E+03  0.38490632915E+03  0.12500000000E+03 0.  0.
         25    1    1    2    0    0  0.23992817378E+01 -0.56178854869E+02  0.22113144674E+03  0.26016521102E+03  0.12500000000E+03 0.  0.
         25    1    1    2    0    0 -0.12005433934E+03 -0.72809582601E+02  0.69531203634E+02  0.20043419866E+03  0.12500000000E+03 0.  0.
</event>
<event>
 5    0  0.5786117E-005  0.3583202E+03  0.7546771E-02  0.1059251E+00
         21   -1    0    0  502  501  0.00000000000E+00  0.00000000000E+00  0.76080013738E+02  0.76080013738E+02  0.00000000000E+00 0. -1.
         21   -1    0    0  501  502 -0.00000000000E+00 -0.00000000000E+00 -0.16876094127E+04  0.16876094127E+04  0.00000000000E+00 0. -1.
         25    1    1    2    0    0 -0.13293226632E+02  0.19650029518E+03 -0.86573408595E+03  0.89661005095E+03  0.12500000000E+03 0.  0.
         25    1    1    2    0    0  0.14714926965E+03 -0.12308793013E+03 -0.28336504083E+03  0.36431345359E+03  0.12500000000E+03 0.  0.
         25    1    1    2    0    0 -0.13385604302E+03 -0.73412365052E+02 -0.46243027219E+03  0.50276592191E+03  0.12500000000E+03 0.  0.
</event>
<event>
 5    0  0.5786117E-005  0.2804677E+03  0.7546771E-02  0.1095434E+00
         21   -1    0    0  502  501  0.00000000000E+00  0.00000000000E+00  0.14904081345E+03  0.14904081345E+03  0.00000000000E+00 0.  1.
         21   -1    0    0  501  502 -0.00000000000E+00 -0.00000000000E+00 -0.52778901312E+03  0.52778901312E+03  0.00000000000E+00 0.  1.
         25    1    1    2    0    0  0.11258705917E+03  0.77336849437E+02 -0.16300601126E+03  0.24668359062E+03  0.12500000000E+03 0.  0.
         25    1    1    2    0    0 -0.61497457226E+02  0.19307061945E+02  0.19722411510E+02  0.14201645469E+03  0.12500000000E+03 0.  0.
         25    1    1    2    0    0 -0.51089601946E+02 -0.96643911382E+02 -0.23546459993E+03  0.28812978127E+03  0.12500000000E+03 0.  0.
</event>
<event>
 5    0  0.5786117E-005  0.2623429E+03  0.7546771E-02  0.1105744E+00
         21   -1    0    0  502  501  0.00000000000E+00  0.00000000000E+00  0.31158575396E+02  0.31158575396E+02  0.00000000000E+00 0.  1.
         21   -1    0    0  501  502 -0.00000000000E+00 -0.00000000000E+00 -0.22088242119E+04  0.22088242119E+04  0.00000000000E+00 0.  1.
         25    1    1    2    0    0 -0.10606381502E+02  0.63024845966E+02 -0.82367188866E+03  0.83555072061E+03  0.12500000000E+03 0.  0.
         25    1    1    2    0    0 -0.75484116862E+02 -0.10412218010E+03 -0.10152819756E+04  0.10310003735E+04  0.12500000000E+03 0.  0.
         25    1    1    2    0    0  0.86090498364E+02  0.41097334131E+02 -0.33871177223E+03  0.37343169313E+03  0.12500000000E+03 0.  0.
</event>
<event>
 5    0  0.5786117E-005  0.2410128E+03  0.7546771E-02  0.1119120E+00
         21   -1    0    0  502  501  0.00000000000E+00  0.00000000000E+00  0.15345895608E+03  0.15345895608E+03  0.00000000000E+00 0. -1.
         21   -1    0    0  501  502 -0.00000000000E+00 -0.00000000000E+00 -0.37851932969E+03  0.37851932969E+03  0.00000000000E+00 0. -1.
         25    1    1    2    0    0  0.51594665085E+01  0.88106083416E+02 -0.44206244039E+02  0.15927490085E+03  0.12500000000E+03 0.  0.
         25    1    1    2    0    0  0.89620307884E+02 -0.23721490396E+02 -0.98656281299E+02  0.18426223306E+03  0.12500000000E+03 0.  0.
         25    1    1    2    0    0 -0.94779774393E+02 -0.64384593020E+02 -0.82197848275E+02  0.18844115186E+03  0.12500000000E+03 0.  0.
</event>
<event>
 5    0  0.5786117E-005  0.2745190E+03  0.7546771E-02  0.1098721E+00
         21   -1    0    0  502  501  0.00000000000E+00  0.00000000000E+00  0.55041057921E+02  0.55041057921E+02  0.00000000000E+00 0.  1.
         21   -1    0    0  501  502 -0.00000000000E+00 -0.00000000000E+00 -0.13691724227E+04  0.13691724227E+04  0.00000000000E+00 0.  1.
         25    1    1    2    0    0  0.16697200532E+01 -0.85686873586E+02 -0.48869446638E+03  0.51165643721E+03  0.12500000000E+03 0.  0.
         25    1    1    2    0    0  0.65356925625E+02 -0.75204416856E+02 -0.23362783392E+03  0.28307984178E+03  0.12500000000E+03 0.  0.
         25    1    1    2    0    0 -0.67026645678E+02  0.16089129044E+03 -0.59180906451E+03  0.62947720166E+03  0.12500000000E+03 0.  0.
</event>
<event>
 5    0  0.5786117E-005  0.2800121E+03  0.7546771E-02  0.1095682E+00
         21   -1    0    0  502  501  0.00000000000E+00  0.00000000000E+00  0.56320515157E+02  0.56320515157E+02  0.00000000000E+00 0. -1.
         21   -1    0    0  501  502 -0.00000000000E+00 -0.00000000000E+00 -0.13921527448E+04  0.13921527448E+04  0.00000000000E+00 0. -1.
         25    1    1    2    0    0 -0.16813606953E+03  0.63796518001E+01 -0.33539137595E+03  0.39550324005E+03  0.12500000000E+03 0.  0.
         25    1    1    2    0    0  0.52887782468E+02 -0.48248983721E+02 -0.57795592042E+03  0.59563674157E+03  0.12500000000E+03 0.  0.
         25    1    1    2    0    0  0.11524828706E+03  0.41869331921E+02 -0.42248493331E+03  0.45733327837E+03  0.12500000000E+03 0.  0.
</event>
<event>
 5    0  0.5786117E-005  0.2838291E+03  0.7546771E-02  0.1093616E+00
         21   -1    0    0  502  501  0.00000000000E+00  0.00000000000E+00  0.13010847614E+03  0.13010847614E+03  0.00000000000E+00 0. -1.
         21   -1    0    0  501  502 -0.00000000000E+00 -0.00000000000E+00 -0.61916777838E+03  0.61916777838E+03  0.00000000000E+00 0. -1.
         25    1    1    2    0    0  0.43336901557E+02 -0.16388184732E+03 -0.89300857247E+02  0.22876842007E+03  0.12500000000E+03 0.  0.
         25    1    1    2    0    0 -0.41500839815E+02  0.14181272818E+03 -0.16811849917E+03  0.25636302257E+03  0.12500000000E+03 0.  0.
         25    1    1    2    0    0 -0.18360617418E+01  0.22069119135E+02 -0.23163994583E+03  0.26414481188E+03  0.12500000000E+03 0.  0.
</event>
<event>
 5    0  0.6554155E-005  0.3359189E+03  0.7546771E-02  0.1068548E+00
         21   -1    0    0  502  501  0.00000000000E+00  0.00000000000E+00  0.13821272790E+03  0.13821272790E+03  0.00000000000E+00 0. -1.
         21   -1    0    0  501  502 -0.00000000000E+00 -0.00000000000E+00 -0.81643364664E+03  0.81643364664E+03  0.00000000000E+00 0. -1.
         25    1    1    2    0    0 -0.94283473727E+02  0.91364189293E+02 -0.56430763205E+03  0.59270978741E+03  0.12500000000E+03 0.  0.
         25    1    1    2    0    0  0.64148286447E+02 -0.95153938017E+02 -0.15196603506E+03  0.22778926749E+03  0.12500000000E+03 0.  0.
         25    1    1    2    0    0  0.30135187280E+02  0.37897487232E+01  0.38052748369E+02  0.13414731964E+03  0.12500000000E+03 0.  0.
</event>
<event>
 5    0  0.5786117E-005  0.3982661E+03  0.7546771E-02  0.1044382E+00
         21   -1    0    0  502  501  0.00000000000E+00  0.00000000000E+00  0.12900276544E+04  0.12900276544E+04  0.00000000000E+00 0. -1.
         21   -1    0    0  501  502 -0.00000000000E+00 -0.00000000000E+00 -0.12295543151E+03  0.12295543151E+03  0.00000000000E+00 0. -1.
         25    1    1    2    0    0 -0.15110440593E+02  0.35023993386E+02 -0.34339632591E+02  0.13512666611E+03  0.12500000000E+03 0.  0.
         25    1    1    2    0    0  0.13815689287E+02 -0.15686117024E+03  0.95466997791E+03  0.97561061224E+03  0.12500000000E+03 0.  0.
         25    1    1    2    0    0  0.12947513058E+01  0.12183717685E+03  0.24674187757E+03  0.30224580756E+03  0.12500000000E+03 0.  0.
</event>
<event>
 5    0  0.5786117E-005  0.2778865E+03  0.7546771E-02  0.1096849E+00
         21   -1    0    0  502  501  0.00000000000E+00  0.00000000000E+00  0.58610043105E+02  0.58610043105E+02  0.00000000000E+00 0.  1.
         21   -1    0    0  501  502 -0.00000000000E+00 -0.00000000000E+00 -0.13175367054E+04  0.13175367054E+04  0.00000000000E+00 0.  1.
         25    1    1    2    0    0  0.10918489702E+03 -0.66628045087E+02 -0.30908370228E+03  0.35709714805E+03  0.12500000000E+03 0.  0.
         25    1    1    2    0    0 -0.50352483022E+02 -0.66108051232E+02 -0.23393928675E+03  0.27795365957E+03  0.12500000000E+03 0.  0.
         25    1    1    2    0    0 -0.58832413993E+02  0.13273609632E+03 -0.71590367325E+03  0.74109594087E+03  0.12500000000E+03 0.  0.
</event>
<event>
 5    0  0.5911768E-005  0.3363622E+03  0.7546771E-02  0.1068356E+00
         21   -1    0    0  502  501  0.00000000000E+00  0.00000000000E+00  0.46272523551E+03  0.46272523551E+03  0.00000000000E+00 0. -1.
         21   -1    0    0  501  502 -0.00000000000E+00 -0.00000000000E+00 -0.24450693152E+03  0.24450693152E+03  0.00000000000E+00 0. -1.
         25    1    1    2    0    0 -0.14500657763E+03 -0.26814809556E+02 -0.88772099444E+02  0.21272382849E+03  0.12500000000E+03 0.  0.
         25    1    1    2    0    0  0.21818883442E+02 -0.15290049059E+02  0.28543877379E+03  0.31274613164E+03  0.12500000000E+03 0.  0.
         25    1    1    2    0    0  0.12318769418E+03  0.42104858615E+02  0.21551629653E+02  0.18176220690E+03  0.12500000000E+03 0.  0.
</event>
<event>
 5    0  0.5786117E-005  0.3340106E+03  0.7546771E-02  0.1069376E+00
         21   -1    0    0  502  501  0.00000000000E+00  0.00000000000E+00  0.93489704453E+03  0.93489704453E+03  0.00000000000E+00 0. -1.
         21   -1    0    0  501  502 -0.00000000000E+00 -0.00000000000E+00 -0.11933195072E+03  0.11933195072E+03  0.00000000000E+00 0. -1.
         25    1    1    2    0    0 -0.17952579582E+03 -0.94445806094E+02  0.13387571899E+03  0.27330793949E+03  0.12500000000E+03 0.  0.
         25    1    1    2    0    0  0.38712269854E+02  0.91548558283E+02  0.15905589859E+03  0.22539644460E+03  0.12500000000E+03 0.  0.
         25    1    1    2    0    0  0.14081352597E+03  0.28972478108E+01  0.52263347623E+03  0.55552461117E+03  0.12500000000E+03 0.  0.
</event>
<event>
 5    0  0.5786117E-005  0.4432096E+03  0.7546771E-02  0.1029767E+00
         21   -1    0    0  502  501  0.00000000000E+00  0.00000000000E+00  0.39852778077E+03  0.39852778077E+03  0.00000000000E+00 0.  1.
         21   -1    0    0  501  502 -0.00000000000E+00 -0.00000000000E+00 -0.49290092992E+03  0.49290092992E+03  0.00000000000E+00 0.  1.
         25    1    1    2    0    0  0.25661877545E+03 -0.22275592977E+03  0.58748806636E+02  0.36681033579E+03  0.12500000000E+03 0.  0.
         25    1    1    2    0    0 -0.13298120666E+03  0.15659525458E+03 -0.21929110906E+03  0.32545301596E+03  0.12500000000E+03 0.  0.
         25    1    1    2    0    0 -0.12363756879E+03  0.66160675190E+02  0.66169153280E+02  0.19916535895E+03  0.12500000000E+03 0.  0.
</event>
<event>
 5    0  0.5786117E-005  0.2531824E+03  0.7546771E-02  0.1111310E+00
         21   -1    0    0  502  501  0.00000000000E+00  0.00000000000E+00  0.75575209961E+02  0.75575209961E+02  0.00000000000E+00 0. -1.
         21   -1    0    0  501  502 -0.00000000000E+00 -0.00000000000E+00 -0.84817905505E+03  0.84817905505E+03  0.00000000000E+00 0. -1.
         25    1    1    2    0    0  0.62455012754E+01 -0.25347649276E+02 -0.14371795607E+03  0.19225337580E+03  0.12500000000E+03 0.  0.
         25    1    1    2    0    0  0.11721673223E+02 -0.53899932276E+02 -0.70879433051E+02  0.15392041564E+03  0.12500000000E+03 0.  0.
         25    1    1    2    0    0 -0.17967174498E+02  0.79247581553E+02 -0.55800645597E+03  0.57758047357E+03  0.12500000000E+03 0.  0.
</event>
<event>
 5    0  0.5786117E-005  0.3430861E+03  0.7546771E-02  0.1065489E+00
         21   -1    0    0  502  501  0.00000000000E+00  0.00000000000E+00  0.65603200235E+03  0.65603200235E+03  0.00000000000E+00 0. -1.
         21   -1    0    0  501  502 -0.00000000000E+00 -0.00000000000E+00 -0.17942423179E+03  0.17942423179E+03  0.00000000000E+00 0. -1.
         25    1    1    2    0    0 -0.33042335421E+02  0.54273125660E+02  0.47818432064E+02  0.14815184961E+03  0.12500000000E+03 0.  0.
         25    1    1    2    0    0  0.46459074334E+02  0.18681519648E+03  0.75765864110E+02  0.24171021780E+03  0.12500000000E+03 0.  0.
         25    1    1    2    0    0 -0.13416738914E+02 -0.24108832214E+03  0.35302347439E+03  0.44559416673E+03  0.12500000000E+03 0.  0.
</event>
<event>
 5    0  0.5786117E-005  0.3997433E+03  0.7546771E-02  0.1043869E+00
         21   -1    0    0  502  501  0.00000000000E+00  0.00000000000E+00  0.16373322842E+04  0.16373322842E+04  0.00000000000E+00 0.  1.
         21   -1    0    0  501  502 -0.00000000000E+00 -0.00000000000E+00 -0.97594544180E+02  0.97594544180E+02  0.00000000000E+00 0. -1.
         25    1    1    2    0    0 -0.18497292439E+03  0.11448373224E+01  0.66532212230E+03  0.70177975165E+03  0.12500000000E+03 0.  0.
         25    1    1    2    0    0  0.15656371689E+03 -0.11860325581E+03  0.12584822001E+03  0.26465393293E+03  0.12500000000E+03 0.  0.
         25    1    1    2    0    0  0.28409207504E+02  0.11745841849E+03  0.74856739769E+03  0.76849314377E+03  0.12500000000E+03 0.  0.
</event>
<event>
 5    0  0.5786117E-005  0.2561005E+03  0.7546771E-02  0.1109509E+00
         21   -1    0    0  502  501  0.00000000000E+00  0.00000000000E+00  0.26176543873E+03  0.26176543873E+03  0.00000000000E+00 0. -1.
         21   -1    0    0  501  502 -0.00000000000E+00 -0.00000000000E+00 -0.25055813734E+03  0.25055813734E+03  0.00000000000E+00 0. -1.
         25    1    1    2    0    0  0.46993405687E+02  0.76522105433E+02 -0.70026491347E+02  0.16909382688E+03  0.12500000000E+03 0.  0.
         25    1    1    2    0    0 -0.55159801960E+02 -0.46077545243E+02  0.14052037194E+03  0.20133732604E+03  0.12500000000E+03 0.  0.
         25    1    1    2    0    0  0.81663962724E+01 -0.30444560190E+02 -0.59286579209E+02  0.14189242315E+03  0.12500000000E+03 0.  0.
</event>
<event>
 5    0  0.5786117E-005  0.2214028E+03  0.7546771E-02  0.1132842E+00
         21   -1    0    0  502  501  0.00000000000E+00  0.00000000000E+00  0.64722555617E+02  0.64722555617E+02  0.00000000000E+00 0. -1.
         21   -1    0    0  501  502 -0.00000000000E+00 -0.00000000000E+00 -0.75737433537E+03  0.75737433537E+03  0.00000000000E+00 0. -1.
         25    1    1    2    0    0 -0.77362887849E+02  0.19597245795E+02 -0.16335068361E+03  0.22062981280E+03  0.12500000000E+03 0.  0.
         25    1    1    2    0    0  0.48328739171E+02 -0.47044568728E+02 -0.18665426489E+03  0.23454993728E+03  0.12500000000E+03 0.  0.
         25    1    1    2    0    0  0.29034148678E+02  0.27447322933E+02 -0.34264683126E+03  0.36691714091E+03  0.12500000000E+03 0.  0.
</event>
<event>
 5    0  0.5786117E-005  0.2578313E+03  0.7546771E-02  0.1108453E+00
         21   -1    0    0  502  501  0.00000000000E+00  0.00000000000E+00  0.34021191040E+03  0.34021191040E+03  0.00000000000E+00 0. -1.
         21   -1    0    0  501  502 -0.00000000000E+00 -0.00000000000E+00 -0.19539880368E+03  0.19539880368E+03  0.00000000000E+00 0. -1.
         25    1    1    2    0    0 -0.49986671077E+02  0.11276426031E+03 -0.29641227514E+01  0.17563664684E+03  0.12500000000E+03 0.  0.
         25    1    1    2    0    0  0.19856655281E+02  0.34480142775E+02  0.76776818593E+02  0.15199620679E+03  0.12500000000E+03 0.  0.
         25    1    1    2    0    0  0.30130015796E+02 -0.14724440309E+03  0.71000410879E+02  0.20797786045E+03  0.12500000000E+03 0.  0.
</event>
<event>
 5    0  0.5786117E-005  0.2312727E+03  0.7546771E-02  0.1125747E+00
         21   -1    0    0  502  501  0.00000000000E+00  0.00000000000E+00  0.12140159799E+03  0.12140159799E+03  0.00000000000E+00 0.  1.
         21   -1    0    0  501  502 -0.00000000000E+00 -0.00000000000E+00 -0.44057943033E+03  0.44057943033E+03  0.00000000000E+00 0.  1.
         25    1    1    2    0    0 -0.54123990263E+02 -0.20904712278E+02 -0.16964477327E+03  0.21856523606E+03  0.12500000000E+03 0.  0.
         25    1    1    2    0    0 -0.56767501842E+02 -0.12139448980E+02 -0.80613235283E+02  0.15966655627E+03  0.12500000000E+03 0.  0.
         25    1    1    2    0    0  0.11089149210E+03  0.33044161258E+02 -0.68919823786E+02  0.18374923599E+03  0.12500000000E+03 0.  0.
</event>
<event>
 5    0  0.5786117E-005  0.2545527E+03  0.7546771E-02  0.1110461E+00
         21   -1    0    0  502  501  0.00000000000E+00  0.00000000000E+00  0.56611343658E+02  0.56611343658E+02  0.00000000000E+00 0.  1.
         21   -1    0    0  501  502 -0.00000000000E+00 -0.00000000000E+00 -0.11445953453E+04  0.11445953453E+04  0.00000000000E+00 0.  1.
         25    1    1    2    0    0 -0.47299838585E+02 -0.37524870242E+02 -0.29112806275E+03  0.32253052497E+03  0.12500000000E+03 0.  0.
         25    1    1    2    0    0  0.13909725093E+02 -0.10061587113E+03 -0.22794343963E+03  0.27910615480E+03  0.12500000000E+03 0.  0.
         25    1    1    2    0    0  0.33390113492E+02  0.13814074137E+03 -0.56891249926E+03  0.59957000919E+03  0.12500000000E+03 0.  0.
</event>
<event>
 5    0  0.5808220E-005  0.3797843E+03  0.7546771E-02  0.1051014E+00
         21   -1    0    0  502  501  0.00000000000E+00  0.00000000000E+00  0.57347974753E+03  0.57347974753E+03  0.00000000000E+00 0.  1.
         21   -1    0    0  501  502 -0.00000000000E+00 -0.00000000000E+00 -0.25151037057E+03  0.25151037057E+03  0.00000000000E+00 0.  1.
         25    1    1    2    0    0 -0.91941835723E+02 -0.14112247406E+03  0.31236469491E+03  0.37625198534E+03  0.12500000000E+03 0.  0.
         25    1    1    2    0    0 -0.10521867328E+03  0.91065420360E+02  0.74467453613E+02  0.20133127338E+03  0.12500000000E+03 0.  0.
         25    1    1    2    0    0  0.19716050901E+03  0.50057053702E+02 -0.64862771571E+02  0.24740685939E+03  0.12500000000E+03 0.  0.
</event>
<event>
 5    0  0.5786117E-005  0.2976176E+03  0.7546771E-02  0.1086438E+00
         21   -1    0    0  502  501  0.00000000000E+00  0.00000000000E+00  0.40374242378E+03  0.40374242378E+03  0.00000000000E+00 0. -1.
         21   -1    0    0  501  502 -0.00000000000E+00 -0.00000000000E+00 -0.21938791023E+03  0.21938791023E+03  0.00000000000E+00 0. -1.
         25    1    1    2    0    0  0.15690406677E+03 -0.13574295079E+03  0.16250527012E+02  0.24276349496E+03  0.12500000000E+03 0.  0.
         25    1    1    2    0    0 -0.35602983396E+02  0.34283344926E+02  0.35298692531E+02  0.13897452234E+03  0.12500000000E+03 0.  0.
         25    1    1    2    0    0 -0.12130108337E+03  0.10145960587E+03  0.13280529400E+03  0.24139231671E+03  0.12500000000E+03 0.  0.
</event>
<event>
 5    0  0.5786117E-005  0.6087665E+03  0.7546771E-02  0.9887383E-01
         21   -1    0    0  502  501  0.00000000000E+00  0.00000000000E+00  0.23772978410E+03  0.23772978410E+03  0.00000000000E+00 0. -1.
         21   -1    0    0  501  502 -0.00000000000E+00 -0.00000000000E+00 -0.15588987991E+04  0.15588987991E+04  0.00000000000E+00 0. -1.
         25    1    1    2    0    0  0.11548925225E+03  0.85046529858E+02  0.18043830650E+02  0.19110536217E+03  0.12500000000E+03 0.  0.
         25    1    1    2    0    0 -0.37323432729E+02 -0.17851199545E+02 -0.14188805110E+04  0.14249767045E+04  0.12500000000E+03 0.  0.
         25    1    1    2    0    0 -0.78165819525E+02 -0.67195330314E+02  0.79667665265E+02  0.18054651657E+03  0.12500000000E+03 0.  0.
</event>
<event>
 5    0  0.5786117E-005  0.2377735E+03  0.7546771E-02  0.1121285E+00
         21   -1    0    0  502  501  0.00000000000E+00  0.00000000000E+00  0.34343797263E+03  0.34343797263E+03  0.00000000000E+00 0. -1.
         21   -1    0    0  501  502 -0.00000000000E+00 -0.00000000000E+00 -0.16461854906E+03  0.16461854906E+03  0.00000000000E+00 0. -1.
         25    1    1    2    0    0 -0.44228328671E+02  0.97595801838E+02  0.30711549099E+02  0.16747920719E+03  0.12500000000E+03 0.  0.
         25    1    1    2    0    0 -0.36248004196E+01 -0.90035709557E+02  0.13677572349E+03  0.20603923585E+03  0.12500000000E+03 0.  0.
         25    1    1    2    0    0  0.47853129091E+02 -0.75600922803E+01  0.11332150984E+02  0.13453807864E+03  0.12500000000E+03 0.  0.
</event>
<event>
 5    0  0.5786117E-005  0.3194803E+03  0.7546771E-02  0.1075889E+00
         21   -1    0    0  502  501  0.00000000000E+00  0.00000000000E+00  0.18408305514E+03  0.18408305514E+03  0.00000000000E+00 0.  1.
         21   -1    0    0  501  502 -0.00000000000E+00 -0.00000000000E+00 -0.55446518654E+03  0.55446518654E+03  0.00000000000E+00 0.  1.
         25    1    1    2    0    0  0.41944542444E+02 -0.11486344535E+02 -0.21007495906E+03  0.24828968802E+03  0.12500000000E+03 0.  0.
         25    1    1    2    0    0  0.93126108744E+02  0.14467068780E+03 -0.77863309251E+00  0.21266801900E+03  0.12500000000E+03 0.  0.
         25    1    1    2    0    0 -0.13507065119E+03 -0.13318434326E+03 -0.15952853924E+03  0.27759053466E+03  0.12500000000E+03 0.  0.
</event>
<event>
 5    0  0.6011799E-005  0.3004740E+03  0.7546771E-02  0.1085004E+00
         21   -1    0    0  502  501  0.00000000000E+00  0.00000000000E+00  0.21455503498E+03  0.21455503498E+03  0.00000000000E+00 0. -1.
         21   -1    0    0  501  502 -0.00000000000E+00 -0.00000000000E+00 -0.42079945628E+03  0.42079945628E+03  0.00000000000E+00 0. -1.
         25    1    1    2    0    0 -0.68437249153E+02  0.69874314810E+02  0.26052931176E+02  0.16084101518E+03  0.12500000000E+03 0.  0.
         25    1    1    2    0    0  0.14898038848E+03 -0.19892583386E+02 -0.24920086307E+03  0.31672849758E+03  0.12500000000E+03 0.  0.
         25    1    1    2    0    0 -0.80543139324E+02 -0.49981731424E+02  0.16903510600E+02  0.15778497850E+03  0.12500000000E+03 0.  0.
</event>
<event>
 5    0  0.5786117E-005  0.2968755E+03  0.7546771E-02  0.1086813E+00
         21   -1    0    0  502  501  0.00000000000E+00  0.00000000000E+00  0.12422637339E+04  0.12422637339E+04  0.00000000000E+00 0. -1.
         21   -1    0    0  501  502 -0.00000000000E+00 -0.00000000000E+00 -0.70947150374E+02  0.70947150374E+02  0.00000000000E+00 0. -1.
         25    1    1    2    0    0  0.11070222243E+03  0.94545157717E+01  0.13875649920E+03  0.21730792896E+03  0.12500000000E+03 0.  0.
         25    1    1    2    0    0 -0.16696751817E+03  0.54884856060E+02  0.59531478546E+03  0.63317864252E+03  0.12500000000E+03 0.  0.
         25    1    1    2    0    0  0.56265295742E+02 -0.64339371832E+02  0.43724529885E+03  0.46272431278E+03  0.12500000000E+03 0.  0.
</event>
<event>
 5    0  0.5786117E-005  0.3400623E+03  0.7546771E-02  0.1066769E+00
         21   -1    0    0  502  501  0.00000000000E+00  0.00000000000E+00  0.27256248394E+03  0.27256248394E+03  0.00000000000E+00 0. -1.
         21   -1    0    0  501  502 -0.00000000000E+00 -0.00000000000E+00 -0.42427837438E+03  0.42427837438E+03  0.00000000000E+00 0. -1.
         25    1    1    2    0    0  0.10684597293E+03  0.93457140968E+02  0.93617426338E+02  0.21104388559E+03  0.12500000000E+03 0.  0.
         25    1    1    2    0    0 -0.14108139273E+03  0.16025346908E+02 -0.20292496231E+01  0.18918215818E+03  0.12500000000E+03 0.  0.
         25    1    1    2    0    0  0.34235419802E+02 -0.10948248788E+03 -0.24330406715E+03  0.29661481455E+03  0.12500000000E+03 0.  0.
</event>
<event>
 5    0  0.5786117E-005  0.3669480E+03  0.7546771E-02  0.1055866E+00
         21   -1    0    0  502  501  0.00000000000E+00  0.00000000000E+00  0.27655155166E+03  0.27655155166E+03  0.00000000000E+00 0. -1.
         21   -1    0    0  501  502 -0.00000000000E+00 -0.00000000000E+00 -0.48689223819E+03  0.48689223819E+03  0.00000000000E+00 0. -1.
         25    1    1    2    0    0  0.25312020183E+02  0.95664831003E+02 -0.76701689898E+02  0.17691977699E+03  0.12500000000E+03 0.  0.
         25    1    1    2    0    0  0.17615293198E+03 -0.15745482390E+03 -0.19865431967E+03  0.33303215421E+03  0.12500000000E+03 0.  0.
         25    1    1    2    0    0 -0.20146495216E+03  0.61789992897E+02  0.65015323031E+02  0.25349185865E+03  0.12500000000E+03 0.  0.
</event>
<event>
 5    0  0.5786117E-005  0.3418555E+03  0.7546771E-02  0.1066008E+00
         21   -1    0    0  502  501  0.00000000000E+00  0.00000000000E+00  0.13925611765E+04  0.13925611765E+04  0.00000000000E+00 0.  1.
         21   -1    0    0  501  502 -0.00000000000E+00 -0.00000000000E+00 -0.83921060409E+02  0.83921060409E+02  0.00000000000E+00 0.  1.
         25    1    1    2    0    0  0.18438325063E+03  0.29625370594E+02  0.62154442613E+03  0.66092156822E+03  0.12500000000E+03 0.  0.
         25    1    1    2    0    0 -0.89830717583E+02  0.10174258708E+03  0.51904059762E+03  0.55086228209E+03  0.12500000000E+03 0.  0.
         25    1    1    2    0    0 -0.94552533047E+02 -0.13136795767E+03  0.16805509236E+03  0.26469838662E+03  0.12500000000E+03 0.  0.
</event>
<event>
 5    0  0.5786117E-005  0.5406820E+03  0.7546771E-02  0.1003674E+00
         21   -1    0    0  502  501  0.00000000000E+00  0.00000000000E+00  0.38368039688E+03  0.38368039688E+03  0.00000000000E+00 0.  1.
         21   -1    0    0  501  502 -0.00000000000E+00 -0.00000000000E+00 -0.76192841040E+03  0.76192841040E+03  0.00000000000E+00 0.  1.
         25    1    1    2    0    0 -0.19443069489E+03  0.59330534985E+02 -0.27685673000E+03  0.36551067897E+03  0.12500000000E+03 0.  0.
         25    1    1    2    0    0  0.96024000374E+02  0.11522151356E+03  0.27408759332E+03  0.33651985773E+03  0.12500000000E+03 0.  0.
         25    1    1    2    0    0  0.98406694511E+02 -0.17455204854E+03 -0.37547887684E+03  0.44357827058E+03  0.12500000000E+03 0.  0.
</event>
<event>
 5    0  0.5786117E-005  0.2297782E+03  0.7546771E-02  0.1126796E+00
         21   -1    0    0  502  501  0.00000000000E+00  0.00000000000E+00  0.10424250510E+03  0.10424250510E+03  0.00000000000E+00 0.  1.
         21   -1    0    0  501  502 -0.00000000000E+00 -0.00000000000E+00 -0.50649241006E+03  0.50649241006E+03  0.00000000000E+00 0.  1.
         25    1    1    2    0    0  0.69491058657E+02 -0.44767159412E+02 -0.71138061213E+02  0.16588770162E+03  0.12500000000E+03 0.  0.
         25    1    1    2    0    0 -0.44585150589E+02 -0.84424671610E+01 -0.71999096375E+02  0.15122162803E+03  0.12500000000E+03 0.  0.
         25    1    1    2    0    0 -0.24905908068E+02  0.53209626573E+02 -0.25911274737E+03  0.29362558551E+03  0.12500000000E+03 0.  0.
</event>
<event>
 5    0  0.5786117E-005  0.3057242E+03  0.7546771E-02  0.1082414E+00
         21   -1    0    0  502  501  0.00000000000E+00  0.00000000000E+00  0.48861460240E+02  0.48861460240E+02  0.00000000000E+00 0. -1.
         21   -1    0    0  501  502 -0.00000000000E+00 -0.00000000000E+00 -0.19129043409E+04  0.19129043409E+04  0.00000000000E+00 0. -1.
         25    1    1    2    0    0 -0.11234442407E+03 -0.69151171733E+02 -0.92894383412E+03  0.94655417231E+03  0.12500000000E+03 0.  0.
         25    1    1    2    0    0  0.47563014409E+02  0.15754614681E+03 -0.34515937434E+03  0.40229718170E+03  0.12500000000E+03 0.  0.
         25    1    1    2    0    0  0.64781409665E+02 -0.88394975073E+02 -0.58993967221E+03  0.61291444713E+03  0.12500000000E+03 0.  0.
</event>
<event>
 5    0  0.5786117E-005  0.7262823E+03  0.7546771E-02  0.9673312E-01
         21   -1    0    0  502  501  0.00000000000E+00  0.00000000000E+00  0.37036690740E+03  0.37036690740E+03  0.00000000000E+00 0. -1.
         21   -1    0    0  501  502 -0.00000000000E+00 -0.00000000000E+00 -0.14242253230E+04  0.14242253230E+04  0.00000000000E+00 0. -1.
         25    1    1    2    0    0  0.41653818459E+02 -0.21240340472E+03 -0.39904966358E+03  0.47086715847E+03  0.12500000000E+03 0.  0.
         25    1    1    2    0    0 -0.43370519134E+03 -0.26151470131E+03 -0.26793646309E+03  0.58643420794E+03  0.12500000000E+03 0.  0.
         25    1    1    2    0    0  0.39205137288E+03  0.47391810603E+03 -0.38687228898E+03  0.73729086402E+03  0.12500000000E+03 0.  0.
</event>
<event>
 5    0  0.5786117E-005  0.2491520E+03  0.7546771E-02  0.1113842E+00
         21   -1    0    0  502  501  0.00000000000E+00  0.00000000000E+00  0.27887906133E+03  0.27887906133E+03  0.00000000000E+00 0.  1.
         21   -1    0    0  501  502 -0.00000000000E+00 -0.00000000000E+00 -0.22259367755E+03  0.22259367755E+03  0.00000000000E+00 0.  1.
         25    1    1    2    0    0 -0.71518536797E+02 -0.27778954080E+01  0.49172819095E+02  0.15220244396E+03  0.12500000000E+03 0.  0.
         25    1    1    2    0    0  0.14530975924E+03 -0.42416195000E+02  0.16125948436E+02  0.19697488658E+03  0.12500000000E+03 0.  0.
         25    1    1    2    0    0 -0.73791222443E+02  0.45194090408E+02 -0.90133837445E+01  0.15229540835E+03  0.12500000000E+03 0.  0.
</event>
<event>
 5    0  0.5786117E-005  0.2497477E+03  0.7546771E-02  0.1113464E+00
         21   -1    0    0  502  501  0.00000000000E+00  0.00000000000E+00  0.15951962920E+03  0.15951962920E+03  0.00000000000E+00 0.  1.
         21   -1    0    0  501  502 -0.00000000000E+00 -0.00000000000E+00 -0.39101089255E+03  0.39101089255E+03  0.00000000000E+00 0.  1.
         25    1    1    2    0    0 -0.83386865049E+02  0.88907705778E+02 -0.46281693768E+02  0.18062376529E+03  0.12500000000E+03 0.  0.
         25    1    1    2    0    0 -0.33898672157E+02 -0.59319730434E+02 -0.55319923480E+02  0.15281768329E+03  0.12500000000E+03 0.  0.
         25    1    1    2    0    0  0.11728553721E+03 -0.29587975344E+02 -0.12988964610E+03  0.21708907316E+03  0.12500000000E+03 0.  0.
</event>
<event>
 5    0  0.5786117E-005  0.4422827E+03  0.7546771E-02  0.1030049E+00
         21   -1    0    0  502  501  0.00000000000E+00  0.00000000000E+00  0.25668943545E+03  0.25668943545E+03  0.00000000000E+00 0. -1.
         21   -1    0    0  501  502 -0.00000000000E+00 -0.00000000000E+00 -0.76206492518E+03  0.76206492518E+03  0.00000000000E+00 0. -1.
         25    1    1    2    0    0  0.37240134888E+02  0.38967305052E+02 -0.50504064222E+03  0.52306436392E+03  0.12500000000E+03 0.  0.
         25    1    1    2    0    0 -0.22456117338E+03 -0.37906257858E+02 -0.51276379752E+02  0.26479968296E+03  0.12500000000E+03 0.  0.
         25    1    1    2    0    0  0.18732103849E+03 -0.10610471949E+01  0.50941532243E+02  0.23089031376E+03  0.12500000000E+03 0.  0.
</event>
<event>
 5    0  0.5786117E-005  0.5318592E+03  0.7546771E-02  0.1005782E+00
         21   -1    0    0  502  501  0.00000000000E+00  0.00000000000E+00  0.55898304077E+03  0.55898304077E+03  0.00000000000E+00 0.  1.
         21   -1    0    0  501  502 -0.00000000000E+00 -0.00000000000E+00 -0.50605144662E+03  0.50605144662E+03  0.00000000000E+00 0.  1.
         25    1    1    2    0    0  0.57864983000E+02 -0.30366729427E+03 -0.13304907010E+03  0.35901147185E+03  0.12500000000E+03 0.  0.
         25    1    1    2    0    0 -0.14709238445E+03  0.40529196590E+03  0.66308511781E+01  0.44896181951E+03  0.12500000000E+03 0.  0.
         25    1    1    2    0    0  0.89227401451E+02 -0.10162467163E+03  0.17934981307E+03  0.25706119603E+03  0.12500000000E+03 0.  0.
</event>
<event>
 5    0  0.5786117E-005  0.2721677E+03  0.7546771E-02  0.1100045E+00
         21   -1    0    0  502  501  0.00000000000E+00  0.00000000000E+00  0.26602344805E+04  0.26602344805E+04  0.00000000000E+00 0.  1.
         21   -1    0    0  501  502 -0.00000000000E+00 -0.00000000000E+00 -0.27845383040E+02  0.27845383040E+02  0.00000000000E+00 0.  1.
         25    1    1    2    0    0  0.20476529969E+02  0.43117013988E+01  0.12455433269E+04  0.12519748633E+04  0.12500000000E+03 0.  0.
         25    1    1    2    0    0 -0.24128344562E+02 -0.17803896509E+02  0.12220567827E+04  0.12287989811E+04  0.12500000000E+03 0.  0.
         25    1    1    2    0    0  0.36518145931E+01  0.13492195110E+02  0.16478898785E+03  0.20730601920E+03  0.12500000000E+03 0.  0.
</event>
<event>
 5    0  0.5786117E-005  0.2470962E+03  0.7546771E-02  0.1115154E+00
         21   -1    0    0  502  501  0.00000000000E+00  0.00000000000E+00  0.19943397386E+03  0.19943397386E+03  0.00000000000E+00 0. -1.
         21   -1    0    0  501  502 -0.00000000000E+00 -0.00000000000E+00 -0.30614920120E+03  0.30614920120E+03  0.00000000000E+00 0. -1.
         25    1    1    2    0    0 -0.34968319189E+02  0.11432826743E+03  0.32114820662E+02  0.17592639878E+03  0.12500000000E+03 0.  0.
         25    1    1    2    0    0 -0.27535688749E+02 -0.34512522965E+02 -0.31655608453E+02  0.13629528951E+03  0.12500000000E+03 0.  0.
         25    1    1    2    0    0  0.62504007938E+02 -0.79815744470E+02 -0.10717443955E+03  0.19336148677E+03  0.12500000000E+03 0.  0.
</event>
<event>
 5    0  0.5786117E-005  0.3506109E+03  0.7546771E-02  0.1062365E+00
         21   -1    0    0  502  501  0.00000000000E+00  0.00000000000E+00  0.19047981744E+03  0.19047981744E+03  0.00000000000E+00 0. -1.
         21   -1    0    0  501  502 -0.00000000000E+00 -0.00000000000E+00 -0.64535987735E+03  0.64535987735E+03  0.00000000000E+00 0. -1.
         25    1    1    2    0    0 -0.21436277998E+03  0.52562949793E+02 -0.33675914696E+03  0.42159932186E+03  0.12500000000E+03 0.  0.
         25    1    1    2    0    0  0.97789812591E+02 -0.18185264572E+02 -0.16907267080E+03  0.23260292196E+03  0.12500000000E+03 0.  0.
         25    1    1    2    0    0  0.11657296739E+03 -0.34377685221E+02  0.50951757854E+02  0.18163745097E+03  0.12500000000E+03 0.  0.
</event>
<event>
 5    0  0.5786117E-005  0.2733733E+03  0.7546771E-02  0.1099364E+00
         21   -1    0    0  502  501  0.00000000000E+00  0.00000000000E+00  0.37240066509E+03  0.37240066509E+03  0.00000000000E+00 0. -1.
         21   -1    0    0  501  502 -0.00000000000E+00 -0.00000000000E+00 -0.20067892487E+03  0.20067892487E+03  0.00000000000E+00 0. -1.
         25    1    1    2    0    0 -0.45712319114E+02  0.13053373369E+03  0.14847731320E+02  0.18701370772E+03  0.12500000000E+03 0.  0.
         25    1    1    2    0    0  0.93350815473E+02 -0.71744181163E+02  0.46205632558E-01  0.17171663989E+03  0.12500000000E+03 0.  0.
         25    1    1    2    0    0 -0.47638496359E+02 -0.58789552526E+02  0.15682780327E+03  0.21434924236E+03  0.12500000000E+03 0.  0.
</event>
<event>
 5    0  0.6101189E-005  0.3184028E+03  0.7546771E-02  0.1076387E+00
         21   -1    0    0  502  501  0.00000000000E+00  0.00000000000E+00  0.26971347836E+03  0.26971347836E+03  0.00000000000E+00 0. -1.
         21   -1    0    0  501  502 -0.00000000000E+00 -0.00000000000E+00 -0.37588153742E+03  0.37588153742E+03  0.00000000000E+00 0. -1.
         25    1    1    2    0    0  0.15215334756E+02 -0.63824786904E+02 -0.54708350936E+02  0.15140380939E+03  0.12500000000E+03 0.  0.
         25    1    1    2    0    0  0.18907052348E+02 -0.59017541418E+02 -0.21219341712E+03  0.25395195036E+03  0.12500000000E+03 0.  0.
         25    1    1    2    0    0 -0.34122387104E+02  0.12284232832E+03  0.16073370900E+03  0.24023925603E+03  0.12500000000E+03 0.  0.
</event>
<event>
 5    0  0.5786117E-005  0.2288956E+03  0.7546771E-02  0.1127419E+00
         21   -1    0    0  502  501  0.00000000000E+00  0.00000000000E+00  0.12428511040E+04  0.12428511040E+04  0.00000000000E+00 0.  1.
         21   -1    0    0  501  502 -0.00000000000E+00 -0.00000000000E+00 -0.42155656489E+02  0.42155656489E+02  0.00000000000E+00 0.  1.
         25    1    1    2    0    0 -0.28061851432E+02  0.22129706629E+02  0.49891780986E+03  0.51557848328E+03  0.12500000000E+03 0.  0.
         25    1    1    2    0    0 -0.30039213983E+02 -0.25758074545E+02  0.54540135708E+03  0.56093981235E+03  0.12500000000E+03 0.  0.
         25    1    1    2    0    0  0.58101065415E+02  0.36283679164E+01  0.15637628059E+03  0.20848846488E+03  0.12500000000E+03 0.  0.
</event>
<event>
 5    0  0.5786117E-005  0.4071372E+03  0.7546771E-02  0.1041336E+00
         21   -1    0    0  502  501  0.00000000000E+00  0.00000000000E+00  0.37821994164E+03  0.37821994164E+03  0.00000000000E+00 0.  1.
         21   -1    0    0  501  502 -0.00000000000E+00 -0.00000000000E+00 -0.43826532986E+03  0.43826532986E+03  0.00000000000E+00 0.  1.
         25    1    1    2    0    0  0.16048148470E+03 -0.20832686386E+03  0.52002826412E+02  0.29577640726E+03  0.12500000000E+03 0.  0.
         25    1    1    2    0    0 -0.21857228593E+03  0.22401844381E+03 -0.16112302010E+03  0.37355553128E+03  0.12500000000E+03 0.  0.
         25    1    1    2    0    0  0.58090801228E+02 -0.15691579954E+02  0.49074805464E+02  0.14715333296E+03  0.12500000000E+03 0.  0.
</event>
<event>
 5    0  0.7335518E-005  0.7024880E+03  0.7546771E-02  0.9712987E-01
         21   -1    0    0  502  501  0.00000000000E+00  0.00000000000E+00  0.81489430359E+03  0.81489430359E+03  0.00000000000E+00 0.  1.
         21   -1    0    0  501  502 -0.00000000000E+00 -0.00000000000E+00 -0.60558700699E+03  0.60558700699E+03  0.00000000000E+00 0.  1.
         25    1    1    2    0    0 -0.25164422225E+03  0.30538488484E+03  0.21141665746E+03  0.46573248279E+03  0.12500000000E+03 0.  0.
         25    1    1    2    0    0  0.50584052676E+03 -0.85547655930E+02 -0.17553608512E+03  0.55644492731E+03  0.12500000000E+03 0.  0.
         25    1    1    2    0    0 -0.25419630452E+03 -0.21983722891E+03  0.17342672427E+03  0.39830390047E+03  0.12500000000E+03 0.  0.
</event>
<event>
 5    0  0.5786117E-005  0.3073316E+03  0.7546771E-02  0.1081632E+00
         21   -1    0    0  502  501  0.00000000000E+00  0.00000000000E+00  0.15971660551E+03  0.15971660551E+03  0.00000000000E+00 0.  1.
         21   -1    0    0  501  502 -0.00000000000E+00 -0.00000000000E+00 -0.59137686623E+03  0.59137686623E+03  0.00000000000E+00 0.  1.
         25    1    1    2    0    0  0.84840338114E+02  0.30572674886E+02 -0.21475489087E+03  0.26434302445E+03  0.12500000000E+03 0.  0.
         25    1    1    2    0    0  0.90539369192E+02 -0.84098182562E+02  0.94688355292E+00  0.17577194962E+03  0.12500000000E+03 0.  0.
         25    1    1    2    0    0 -0.17537970731E+03  0.53525507676E+02 -0.21785225340E+03  0.31097849768E+03  0.12500000000E+03 0.  0.
</event>
<event>
 5    0  0.5786117E-005  0.5270764E+03  0.7546771E-02  0.1006944E+00
         21   -1    0    0  502  501  0.00000000000E+00  0.00000000000E+00  0.10202123068E+03  0.10202123068E+03  0.00000000000E+00 0. -1.
         21   -1    0    0  501  502 -0.00000000000E+00 -0.00000000000E+00 -0.27230556243E+04  0.27230556243E+04  0.00000000000E+00 0. -1.
         25    1    1    2    0    0  0.24263353401E+03  0.15569680835E+03 -0.12825079570E+04  0.13204409066E+04  0.12500000000E+03 0.  0.
         25    1    1    2    0    0 -0.22319107884E+03 -0.17061295532E+03 -0.21807663849E+03  0.37696877650E+03  0.12500000000E+03 0.  0.
         25    1    1    2    0    0 -0.19442455170E+02  0.14916146971E+02 -0.11204497981E+04  0.11276671719E+04  0.12500000000E+03 0.  0.
</event>
<event>
 5    0  0.5786117E-005  0.2784959E+03  0.7546771E-02  0.1096513E+00
         21   -1    0    0  502  501  0.00000000000E+00  0.00000000000E+00  0.15151828699E+03  0.15151828699E+03  0.00000000000E+00 0. -1.
         21   -1    0    0  501  502 -0.00000000000E+00 -0.00000000000E+00 -0.51188509789E+03  0.51188509789E+03  0.00000000000E+00 0. -1.
         25    1    1    2    0    0 -0.34898882380E+02 -0.15941329126E+03 -0.10752472947E+03  0.23198512209E+03  0.12500000000E+03 0.  0.
         25    1    1    2    0    0 -0.38857907091E+02  0.12730949755E+03 -0.20663730749E+03  0.27575645406E+03  0.12500000000E+03 0.  0.
         25    1    1    2    0    0  0.73756789470E+02  0.32103793709E+02 -0.46204773943E+02  0.15566180873E+03  0.12500000000E+03 0.  0.
</event>
<event>
 5    0  0.5786117E-005  0.4082842E+03  0.7546771E-02  0.1040948E+00
         21   -1    0    0  502  501  0.00000000000E+00  0.00000000000E+00  0.46783985259E+03  0.46783985259E+03  0.00000000000E+00 0.  1.
         21   -1    0    0  501  502 -0.00000000000E+00 -0.00000000000E+00 -0.35630989589E+03  0.35630989589E+03  0.00000000000E+00 0.  1.
         25    1    1    2    0    0  0.72143187758E+02 -0.87254850647E+02  0.30700653681E+03  0.35027997680E+03  0.12500000000E+03 0.  0.
         25    1    1    2    0    0  0.10912553231E+03  0.35289422059E+02  0.76613885366E+01  0.16981584727E+03  0.12500000000E+03 0.  0.
         25    1    1    2    0    0 -0.18126872007E+03  0.51965428589E+02 -0.20313796864E+03  0.30405392441E+03  0.12500000000E+03 0.  0.
</event>
<event>
 5    0  0.5786117E-005  0.2671224E+03  0.7546771E-02  0.1102938E+00
         21   -1    0    0  502  501  0.00000000000E+00  0.00000000000E+00  0.11693705336E+04  0.11693705336E+04  0.00000000000E+00 0.  1.
         21   -1    0    0  501  502 -0.00000000000E+00 -0.00000000000E+00 -0.61019468185E+02  0.61019468185E+02  0.00000000000E+00 0.  1.
         25    1    1    2    0    0 -0.89274502346E+02 -0.68811268386E+02  0.39074430227E+03  0.42545391899E+03  0.12500000000E+03 0.  0.
         25    1    1    2    0    0 -0.78853097183E+02  0.20319631837E+02  0.31293786609E+03  0.34667824622E+03  0.12500000000E+03 0.  0.
         25    1    1    2    0    0  0.16812759953E+03  0.48491636549E+02  0.40466889708E+03  0.45825783660E+03  0.12500000000E+03 0.  0.
</event>
<event>
 5    0  0.5786117E-005  0.3297457E+03  0.7546771E-02  0.1071249E+00
         21   -1    0    0  502  501  0.00000000000E+00  0.00000000000E+00  0.37717435562E+03  0.37717435562E+03  0.00000000000E+00 0. -1.
         21   -1    0    0  501  502 -0.00000000000E+00 -0.00000000000E+00 -0.28828106076E+03  0.28828106076E+03  0.00000000000E+00 0. -1.
         25    1    1    2    0    0  0.18711914913E+03 -0.17783576613E+02  0.95760375500E+02  0.24520375422E+03  0.12500000000E+03 0.  0.
         25    1    1    2    0    0 -0.23319231971E+03  0.51777749802E+02  0.44949197615E+02  0.27332219762E+03  0.12500000000E+03 0.  0.
         25    1    1    2    0    0  0.46073170576E+02 -0.33994173190E+02 -0.51816278256E+02  0.14692946454E+03  0.12500000000E+03 0.  0.
</event>
<event>
 5    0  0.5786117E-005  0.2717348E+03  0.7546771E-02  0.1100291E+00
         21   -1    0    0  502  501  0.00000000000E+00  0.00000000000E+00  0.29326958930E+03  0.29326958930E+03  0.00000000000E+00 0. -1.
         21   -1    0    0  501  502 -0.00000000000E+00 -0.00000000000E+00 -0.25178136928E+03  0.25178136928E+03  0.00000000000E+00 0. -1.
         25    1    1    2    0    0 -0.59898107423E+01 -0.14350408107E+02 -0.71146231506E+02  0.14466719844E+03  0.12500000000E+03 0.  0.
         25    1    1    2    0    0 -0.82585742542E+02  0.12495475020E+03  0.51226614136E+02  0.20170091835E+03  0.12500000000E+03 0.  0.
         25    1    1    2    0    0  0.88575553284E+02 -0.11060434209E+03  0.61407837387E+02  0.19868284179E+03  0.12500000000E+03 0.  0.
</event>
<event>
 5    0  0.5786117E-005  0.4702012E+03  0.7546771E-02  0.1021863E+00
         21   -1    0    0  502  501  0.00000000000E+00  0.00000000000E+00  0.13944703567E+04  0.13944703567E+04  0.00000000000E+00 0. -1.
         21   -1    0    0  501  502 -0.00000000000E+00 -0.00000000000E+00 -0.15854703544E+03  0.15854703544E+03  0.00000000000E+00 0. -1.
         25    1    1    2    0    0  0.20649662463E+03  0.72484073421E+02  0.33819860890E+03  0.42177967702E+03  0.12500000000E+03 0.  0.
         25    1    1    2    0    0 -0.17136923847E+02 -0.50719105337E+02 -0.58638554507E+02  0.14808640005E+03  0.12500000000E+03 0.  0.
         25    1    1    2    0    0 -0.18935970078E+03 -0.21764968084E+02  0.95636326690E+03  0.98315131510E+03  0.12500000000E+03 0.  0.
</event>
<event>
 5    0  0.5786117E-005  0.3656587E+03  0.7546771E-02  0.1056365E+00
         21   -1    0    0  502  501  0.00000000000E+00  0.00000000000E+00  0.15543097317E+03  0.15543097317E+03  0.00000000000E+00 0. -1.
         21   -1    0    0  501  502 -0.00000000000E+00 -0.00000000000E+00 -0.86022914597E+03  0.86022914597E+03  0.00000000000E+00 0. -1.
         25    1    1    2    0    0 -0.14149102863E+03 -0.66732403747E+02  0.40009987826E+02  0.20420265429E+03  0.12500000000E+03 0.  0.
         25    1    1    2    0    0  0.66674337570E+02 -0.31865681551E+02 -0.36789264085E+03  0.39551344370E+03  0.12500000000E+03 0.  0.
         25    1    1    2    0    0  0.74816691060E+02  0.98598085299E+02 -0.37691551977E+03  0.41594402115E+03  0.12500000000E+03 0.  0.
</event>
<event>
 5    0  0.5786117E-005  0.2873380E+03  0.7546771E-02  0.1091747E+00
         21   -1    0    0  502  501  0.00000000000E+00  0.00000000000E+00  0.14468919043E+03  0.14468919043E+03  0.00000000000E+00 0.  1.
         21   -1    0    0  501  502 -0.00000000000E+00 -0.00000000000E+00 -0.57062407824E+03  0.57062407824E+03  0.00000000000E+00 0.  1.
         25    1    1    2    0    0 -0.35483440718E+02  0.84814655625E+02 -0.28466804228E+03  0.32421211370E+03  0.12500000000E+03 0.  0.
         25    1    1    2    0    0 -0.14422367928E+02 -0.12518632186E+03  0.18353201130E+02  0.17844175484E+03  0.12500000000E+03 0.  0.
         25    1    1    2    0    0  0.49905808647E+02  0.40371666234E+02 -0.15962004667E+03  0.21265940014E+03  0.12500000000E+03 0.  0.
</event>
<event>
 5    0  0.5786117E-005  0.4095193E+03  0.7546771E-02  0.1040532E+00
         21   -1    0    0  502  501  0.00000000000E+00  0.00000000000E+00  0.10929126483E+03  0.10929126483E+03  0.00000000000E+00 0. -1.
         21   -1    0    0  501  502 -0.00000000000E+00 -0.00000000000E+00 -0.15344876332E+04  0.15344876332E+04  0.00000000000E+00 0. -1.
         25    1    1    2    0    0  0.18676590585E+03 -0.41535599105E+02 -0.56015925654E+03  0.60498768770E+03  0.12500000000E+03 0.  0.
         25    1    1    2    0    0 -0.31430893322E+03  0.83203964251E+02 -0.73688620029E+03  0.81507010578E+03  0.12500000000E+03 0.  0.
         25    1    1    2    0    0  0.12754302738E+03 -0.41668365147E+02 -0.12815091152E+03  0.22372110453E+03  0.12500000000E+03 0.  0.
</event>
<event>
 5    0  0.5786117E-005  0.2499500E+03  0.7546771E-02  0.1113336E+00
         21   -1    0    0  502  501  0.00000000000E+00  0.00000000000E+00  0.82881658995E+03  0.82881658995E+03  0.00000000000E+00 0.  1.
         21   -1    0    0  501  502 -0.00000000000E+00 -0.00000000000E+00 -0.75378562992E+02  0.75378562992E+02  0.00000000000E+00 0.  1.
         25    1    1    2    0    0  0.37069710634E+02 -0.47374601891E+02  0.54437017567E+02  0.14901981490E+03  0.12500000000E+03 0.  0.
         25    1    1    2    0    0 -0.60633002758E+02  0.51155732961E+02  0.27283294772E+03  0.31041276939E+03  0.12500000000E+03 0.  0.
         25    1    1    2    0    0  0.23563292123E+02 -0.37811310698E+01  0.42616806167E+03  0.44476256866E+03  0.12500000000E+03 0.  0.
</event>
<event>
 5    0  0.6848471E-005  0.3283330E+03  0.7546771E-02  0.1071877E+00
         21   -1    0    0  502  501  0.00000000000E+00  0.00000000000E+00  0.41014591388E+03  0.41014591388E+03  0.00000000000E+00 0. -1.
         21   -1    0    0  501  502 -0.00000000000E+00 -0.00000000000E+00 -0.26283953407E+03  0.26283953407E+03  0.00000000000E+00 0. -1.
         25    1    1    2    0    0 -0.16501218945E+03 -0.59108294728E+02  0.36525149345E+02  0.21836185497E+03  0.12500000000E+03 0.  0.
         25    1    1    2    0    0  0.12332768868E+03 -0.44422736372E+02  0.19578641690E+03  0.26672161394E+03  0.12500000000E+03 0.  0.
         25    1    1    2    0    0  0.41684500772E+02  0.10353103110E+03 -0.85005186429E+02  0.18790197903E+03  0.12500000000E+03 0.  0.
</event>
<event>
 5    0  0.5786117E-005  0.4358136E+03  0.7546771E-02  0.1032039E+00
         21   -1    0    0  502  501  0.00000000000E+00  0.00000000000E+00  0.24165406932E+03  0.24165406932E+03  0.00000000000E+00 0. -1.
         21   -1    0    0  501  502 -0.00000000000E+00 -0.00000000000E+00 -0.78597266920E+03  0.78597266920E+03  0.00000000000E+00 0. -1.
         25    1    1    2    0    0  0.15031563515E+03  0.10430520115E+02 -0.29691763815E+03  0.35565245643E+03  0.12500000000E+03 0.  0.
         25    1    1    2    0    0 -0.17003121530E+03  0.24103802076E+03 -0.41167758643E+02  0.32300112380E+03  0.12500000000E+03 0.  0.
         25    1    1    2    0    0  0.19715580149E+02 -0.25146854087E+03 -0.20623320309E+03  0.34897315829E+03  0.12500000000E+03 0.  0.
</event>
<event>
 5    0  0.5786117E-005  0.3299175E+03  0.7546771E-02  0.1071173E+00
         21   -1    0    0  502  501  0.00000000000E+00  0.00000000000E+00  0.12597323728E+04  0.12597323728E+04  0.00000000000E+00 0. -1.
         21   -1    0    0  501  502 -0.00000000000E+00 -0.00000000000E+00 -0.86403737124E+02  0.86403737124E+02  0.00000000000E+00 0. -1.
         25    1    1    2    0    0 -0.77276729857E+01  0.67979774226E+02  0.15525554859E+03  0.21073740058E+03  0.12500000000E+03 0.  0.
         25    1    1    2    0    0 -0.11050823659E+03 -0.17179329437E+03  0.81600065018E+03  0.85041582031E+03  0.12500000000E+03 0.  0.
         25    1    1    2    0    0  0.11823590958E+03  0.10381352015E+03  0.20207243687E+03  0.28498288900E+03  0.12500000000E+03 0.  0.
</event>
<event>
 5    0  0.5786117E-005  0.2754258E+03  0.7546771E-02  0.1098214E+00
         21   -1    0    0  502  501  0.00000000000E+00  0.00000000000E+00  0.83834925538E+02  0.83834925538E+02  0.00000000000E+00 0.  1.
         21   -1    0    0  501  502 -0.00000000000E+00 -0.00000000000E+00 -0.90486629121E+03  0.90486629121E+03  0.00000000000E+00 0.  1.
         25    1    1    2    0    0  0.43811387231E+02 -0.13744857238E+02 -0.57540779273E+03  0.59061619237E+03  0.12500000000E+03 0.  0.
         25    1    1    2    0    0  0.52153459238E+02 -0.42452487712E+02 -0.81298230724E+02  0.16357444587E+03  0.12500000000E+03 0.  0.
         25    1    1    2    0    0 -0.95964846469E+02  0.56197344951E+02 -0.16432534222E+03  0.23451057851E+03  0.12500000000E+03 0.  0.
</event>
<event>
 5    0  0.5786117E-005  0.5236618E+03  0.7546771E-02  0.1007781E+00
         21   -1    0    0  502  501  0.00000000000E+00  0.00000000000E+00  0.36122539057E+03  0.36122539057E+03  0.00000000000E+00 0. -1.
         21   -1    0    0  501  502 -0.00000000000E+00 -0.00000000000E+00 -0.75914278289E+03  0.75914278289E+03  0.00000000000E+00 0. -1.
         25    1    1    2    0    0  0.20375996871E+03  0.41139584250E+03 -0.77093153450E+02  0.48200935508E+03  0.12500000000E+03 0.  0.
         25    1    1    2    0    0 -0.18978335286E+03 -0.22740155155E+03 -0.13702699204E+03  0.34947186327E+03  0.12500000000E+03 0.  0.
         25    1    1    2    0    0 -0.13976615854E+02 -0.18399429095E+03 -0.18379724683E+03  0.28888695511E+03  0.12500000000E+03 0.  0.
</event>
<event>
 5    0  0.5786117E-005  0.3483140E+03  0.7546771E-02  0.1063309E+00
         21   -1    0    0  502  501  0.00000000000E+00  0.00000000000E+00  0.46023341868E+02  0.46023341868E+02  0.00000000000E+00 0.  1.
         21   -1    0    0  501  502 -0.00000000000E+00 -0.00000000000E+00 -0.26361115586E+04  0.26361115586E+04  0.00000000000E+00 0.  1.
         25    1    1    2    0    0 -0.17891292007E+03 -0.80060833081E+02 -0.49996796842E+03  0.55137332127E+03  0.12500000000E+03 0.  0.
         25    1    1    2    0    0 -0.59304134514E+01  0.15235328626E+02 -0.29698993848E+03  0.32263804580E+03  0.12500000000E+03 0.  0.
         25    1    1    2    0    0  0.18484333352E+03  0.64825504455E+02 -0.17931303099E+04  0.18081235334E+04  0.12500000000E+03 0.  0.
</event>
<event>
 5    0  0.6563586E-005  0.2949598E+03  0.7546771E-02  0.1087788E+00
         21   -1    0    0  502  501  0.00000000000E+00  0.00000000000E+00  0.22616499192E+03  0.22616499192E+03  0.00000000000E+00 0.  1.
         21   -1    0    0  501  502 -0.00000000000E+00 -0.00000000000E+00 -0.38468053776E+03  0.38468053776E+03  0.00000000000E+00 0.  1.
         25    1    1    2    0    0 -0.16719947988E+02 -0.10745992258E+03  0.29098783929E+02  0.16822286066E+03  0.12500000000E+03 0.  0.
         25    1    1    2    0    0 -0.20169816212E+02  0.93936813402E+02  0.54926057932E+02  0.16695154458E+03  0.12500000000E+03 0.  0.
         25    1    1    2    0    0  0.36889764200E+02  0.13523109175E+02 -0.24254038770E+03  0.27567112444E+03  0.12500000000E+03 0.  0.
</event>
<event>
 5    0  0.5786117E-005  0.4232567E+03  0.7546771E-02  0.1036012E+00
         21   -1    0    0  502  501  0.00000000000E+00  0.00000000000E+00  0.45504413265E+03  0.45504413265E+03  0.00000000000E+00 0.  1.
         21   -1    0    0  501  502 -0.00000000000E+00 -0.00000000000E+00 -0.39368988344E+03  0.39368988344E+03  0.00000000000E+00 0.  1.
         25    1    1    2    0    0 -0.95470280715E+02 -0.60778167801E+02  0.28274878863E+03  0.32921184312E+03  0.12500000000E+03 0.  0.
         25    1    1    2    0    0 -0.95293290919E+02  0.12964694358E+03 -0.19113322283E+03  0.27936723169E+03  0.12500000000E+03 0.  0.
         25    1    1    2    0    0  0.19076357163E+03 -0.68868775776E+02 -0.30261316593E+02  0.24015494128E+03  0.12500000000E+03 0.  0.
</event>
<event>
 5    0  0.6046857E-005  0.2922442E+03  0.7546771E-02  0.1089183E+00
         21   -1    0    0  502  501  0.00000000000E+00  0.00000000000E+00  0.20229688865E+03  0.20229688865E+03  0.00000000000E+00 0. -1.
         21   -1    0    0  501  502 -0.00000000000E+00 -0.00000000000E+00 -0.42218469317E+03  0.42218469317E+03  0.00000000000E+00 0. -1.
         25    1    1    2    0    0  0.83029840780E+02 -0.18753481227E+03 -0.82853843724E+02  0.25407286296E+03  0.12500000000E+03 0.  0.
         25    1    1    2    0    0 -0.86133247534E+02  0.68864548425E+02 -0.35794338007E+02  0.17049192648E+03  0.12500000000E+03 0.  0.
         25    1    1    2    0    0  0.31034067542E+01  0.11867026384E+03 -0.10123962279E+03  0.19991679238E+03  0.12500000000E+03 0.  0.
</event>
<event>
 5    0  0.5786117E-005  0.2766935E+03  0.7546771E-02  0.1097509E+00
         21   -1    0    0  502  501  0.00000000000E+00  0.00000000000E+00  0.14996386103E+03  0.14996386103E+03  0.00000000000E+00 0. -1.
         21   -1    0    0  501  502 -0.00000000000E+00 -0.00000000000E+00 -0.51051825804E+03  0.51051825804E+03  0.00000000000E+00 0. -1.
         25    1    1    2    0    0 -0.14747535475E+02 -0.25908668435E+02 -0.25476898630E+02  0.13100695121E+03  0.12500000000E+03 0.  0.
         25    1    1    2    0    0  0.10835172662E+03  0.66514682923E+02 -0.25150214374E+02  0.18006063698E+03  0.12500000000E+03 0.  0.
         25    1    1    2    0    0 -0.93604191149E+02 -0.40606014488E+02 -0.30992728401E+03  0.34941453087E+03  0.12500000000E+03 0.  0.
</event>
<event>
 5    0  0.5955945E-005  0.3662586E+03  0.7546771E-02  0.1056133E+00
         21   -1    0    0  502  501  0.00000000000E+00  0.00000000000E+00  0.22704751046E+03  0.22704751046E+03  0.00000000000E+00 0. -1.
         21   -1    0    0  501  502 -0.00000000000E+00 -0.00000000000E+00 -0.59082499313E+03  0.59082499313E+03  0.00000000000E+00 0. -1.
         25    1    1    2    0    0 -0.14654179253E+03 -0.24810502790E+02 -0.31938721686E+03  0.37379573607E+03  0.12500000000E+03 0.  0.
         25    1    1    2    0    0  0.77652831704E+02  0.15737410413E+03 -0.10553351456E+03  0.23991434642E+03  0.12500000000E+03 0.  0.
         25    1    1    2    0    0  0.68888960828E+02 -0.13256360134E+03  0.61143248750E+02  0.20416242110E+03  0.12500000000E+03 0.  0.
</event>
<event>
 5    0  0.5786117E-005  0.3101280E+03  0.7546771E-02  0.1080285E+00
         21   -1    0    0  502  501  0.00000000000E+00  0.00000000000E+00  0.10479497687E+04  0.10479497687E+04  0.00000000000E+00 0.  1.
         21   -1    0    0  501  502 -0.00000000000E+00 -0.00000000000E+00 -0.91778635080E+02  0.91778635080E+02  0.00000000000E+00 0.  1.
         25    1    1    2    0    0 -0.81804657025E+01  0.83092588274E+02  0.19044547968E+03  0.24262270911E+03  0.12500000000E+03 0.  0.
         25    1    1    2    0    0  0.28239199835E+00  0.12721917407E+02  0.72284579490E+03  0.73368451676E+03  0.12500000000E+03 0.  0.
         25    1    1    2    0    0  0.78980737042E+01 -0.95814505682E+02  0.42879858991E+02  0.16342117786E+03  0.12500000000E+03 0.  0.
</event>
<event>
 5    0  0.5786117E-005  0.3748491E+03  0.7546771E-02  0.1052854E+00
         21   -1    0    0  502  501  0.00000000000E+00  0.00000000000E+00  0.15206772583E+04  0.15206772583E+04  0.00000000000E+00 0. -1.
         21   -1    0    0  501  502 -0.00000000000E+00 -0.00000000000E+00 -0.92400856044E+02  0.92400856044E+02  0.00000000000E+00 0. -1.
         25    1    1    2    0    0  0.13483985467E+03  0.37528608590E+02  0.53786063794E+03  0.56965713259E+03  0.12500000000E+03 0.  0.
         25    1    1    2    0    0  0.13662776648E+03 -0.13547881637E+03  0.37638803882E+03  0.44081131114E+03  0.12500000000E+03 0.  0.
         25    1    1    2    0    0 -0.27146762115E+03  0.97950207779E+02  0.51402772550E+03  0.60260967062E+03  0.12500000000E+03 0.  0.
</event>
<event>
 5    0  0.5786117E-005  0.2825825E+03  0.7546771E-02  0.1094287E+00
         21   -1    0    0  502  501  0.00000000000E+00  0.00000000000E+00  0.12810723714E+04  0.12810723714E+04  0.00000000000E+00 0. -1.
         21   -1    0    0  501  502 -0.00000000000E+00 -0.00000000000E+00 -0.62332817698E+02  0.62332817698E+02  0.00000000000E+00 0. -1.
         25    1    1    2    0    0 -0.52791597673E+02 -0.61866058059E+02  0.84464978706E+02  0.17138755659E+03  0.12500000000E+03 0.  0.
         25    1    1    2    0    0  0.34554581990E+02  0.49130129560E+02  0.33265035325E+03  0.36040122958E+03  0.12500000000E+03 0.  0.
         25    1    1    2    0    0  0.18237015682E+02  0.12735928499E+02  0.80162422178E+03  0.81161640297E+03  0.12500000000E+03 0.  0.
</event>
<event>
 5    0  0.5786117E-005  0.4202575E+03  0.7546771E-02  0.1036983E+00
         21   -1    0    0  502  501  0.00000000000E+00  0.00000000000E+00  0.56344389080E+03  0.56344389080E+03  0.00000000000E+00 0. -1.
         21   -1    0    0  501  502 -0.00000000000E+00 -0.00000000000E+00 -0.31345869846E+03  0.31345869846E+03  0.00000000000E+00 0. -1.
         25    1    1    2    0    0  0.15907390020E+03  0.12126740854E+03  0.36165503360E+03  0.43177500324E+03  0.12500000000E+03 0.  0.
         25    1    1    2    0    0  0.45584985345E+02 -0.21435381283E+00  0.36996029916E+02  0.13810048177E+03  0.12500000000E+03 0.  0.
         25    1    1    2    0    0 -0.20465888555E+03 -0.12105305472E+03 -0.14866587118E+03  0.30702710425E+03  0.12500000000E+03 0.  0.
</event>
<event>
 5    0  0.5786117E-005  0.2794535E+03  0.7546771E-02  0.1095988E+00
         21   -1    0    0  502  501  0.00000000000E+00  0.00000000000E+00  0.73110903417E+03  0.73110903417E+03  0.00000000000E+00 0.  1.
         21   -1    0    0  501  502 -0.00000000000E+00 -0.00000000000E+00 -0.10681619344E+03  0.10681619344E+03  0.00000000000E+00 0.  1.
         25    1    1    2    0    0 -0.14968442676E+02 -0.63568229437E+02  0.73268693522E+01  0.14122201346E+03  0.12500000000E+03 0.  0.
         25    1    1    2    0    0 -0.79894820365E+02  0.73856550799E+02  0.33895333298E+03  0.37729608315E+03  0.12500000000E+03 0.  0.
         25    1    1    2    0    0  0.94863263041E+02 -0.10288321362E+02  0.27801263840E+03  0.31940713101E+03  0.12500000000E+03 0.  0.
</event>
<event>
 5    0  0.5786117E-005  0.2719462E+03  0.7546771E-02  0.1100171E+00
         21   -1    0    0  502  501  0.00000000000E+00  0.00000000000E+00  0.32845762486E+03  0.32845762486E+03  0.00000000000E+00 0. -1.
         21   -1    0    0  501  502 -0.00000000000E+00 -0.00000000000E+00 -0.22515768042E+03  0.22515768042E+03  0.00000000000E+00 0. -1.
         25    1    1    2    0    0  0.79866327942E+02 -0.83790401519E+01 -0.11803049972E+03  0.18974993417E+03  0.12500000000E+03 0.  0.
         25    1    1    2    0    0 -0.96822340897E+02  0.21987280826E+02  0.10035655910E+03  0.18855886394E+03  0.12500000000E+03 0.  0.
         25    1    1    2    0    0  0.16956012956E+02 -0.13608240674E+02  0.12097388506E+03  0.17530650717E+03  0.12500000000E+03 0.  0.
</event>
<event>
 5    0  0.5786117E-005  0.3971291E+03  0.7546771E-02  0.1044778E+00
         21   -1    0    0  502  501  0.00000000000E+00  0.00000000000E+00  0.13184402084E+04  0.13184402084E+04  0.00000000000E+00 0. -1.
         21   -1    0    0  501  502 -0.00000000000E+00 -0.00000000000E+00 -0.11961975911E+03  0.11961975911E+03  0.00000000000E+00 0. -1.
         25    1    1    2    0    0  0.26394150090E+02  0.12772583326E+03  0.30601360494E+03  0.35535878496E+03  0.12500000000E+03 0.  0.
         25    1    1    2    0    0  0.10297894148E+03 -0.12823135717E+03  0.87824965208E+03  0.90221693330E+03  0.12500000000E+03 0.  0.
         25    1    1    2    0    0 -0.12937309157E+03  0.50552390730E+00  0.14557192258E+02  0.18048424924E+03  0.12500000000E+03 0.  0.
</event>
<event>
 5    0  0.5786117E-005  0.2259228E+03  0.7546771E-02  0.1129543E+00
         21   -1    0    0  502  501  0.00000000000E+00  0.00000000000E+00  0.74627252924E+02  0.74627252924E+02  0.00000000000E+00 0. -1.
         21   -1    0    0  501  502 -0.00000000000E+00 -0.00000000000E+00 -0.68394705176E+03  0.68394705176E+03  0.00000000000E+00 0. -1.
         25    1    1    2    0    0  0.63527884399E+01  0.40878943767E+02 -0.13954634735E+03  0.19185835667E+03  0.12500000000E+03 0.  0.
         25    1    1    2    0    0 -0.58476786694E+02  0.11087195110E+02 -0.10378484514E+03  0.17302819007E+03  0.12500000000E+03 0.  0.
         25    1    1    2    0    0  0.52123998255E+02 -0.51966138878E+02 -0.36598860635E+03  0.39368775795E+03  0.12500000000E+03 0.  0.
</event>
<event>
 5    0  0.5786117E-005  0.2467604E+03  0.7546771E-02  0.1115369E+00
         21   -1    0    0  502  501  0.00000000000E+00  0.00000000000E+00  0.50421393398E+03  0.50421393398E+03  0.00000000000E+00 0.  1.
         21   -1    0    0  501  502 -0.00000000000E+00 -0.00000000000E+00 -0.12076357328E+03  0.12076357328E+03  0.00000000000E+00 0.  1.
         25    1    1    2    0    0 -0.73608216390E+02 -0.34871062394E+02  0.91397665890E+02  0.17496483602E+03  0.12500000000E+03 0.  0.
         25    1    1    2    0    0 -0.54663721644E+02 -0.43754601016E+02  0.15560921707E+03  0.21152261348E+03  0.12500000000E+03 0.  0.
         25    1    1    2    0    0  0.12827193803E+03  0.78625663409E+02  0.13644347775E+03  0.23849005777E+03  0.12500000000E+03 0.  0.
</event>
<event>
 5    0  0.5786117E-005  0.3629912E+03  0.7546771E-02  0.1057406E+00
         21   -1    0    0  502  501  0.00000000000E+00  0.00000000000E+00  0.10836451688E+03  0.10836451688E+03  0.00000000000E+00 0. -1.
         21   -1    0    0  501  502 -0.00000000000E+00 -0.00000000000E+00 -0.12159200137E+04  0.12159200137E+04  0.00000000000E+00 0. -1.
         25    1    1    2    0    0  0.13788981532E+03  0.19427852383E+03 -0.42778034628E+03  0.50535014659E+03  0.12500000000E+03 0.  0.
         25    1    1    2    0    0 -0.15667106869E+03 -0.21273374840E+03 -0.30256302642E+03  0.42067904206E+03  0.12500000000E+03 0.  0.
         25    1    1    2    0    0  0.18781253372E+02  0.18455224572E+02 -0.37721212411E+03  0.39825534192E+03  0.12500000000E+03 0.  0.
</event>
<event>
 5    0  0.5786117E-005  0.4129482E+03  0.7546771E-02  0.1039386E+00
         21   -1    0    0  502  501  0.00000000000E+00  0.00000000000E+00  0.46109900761E+03  0.46109900761E+03  0.00000000000E+00 0. -1.
         21   -1    0    0  501  502 -0.00000000000E+00 -0.00000000000E+00 -0.36982552731E+03  0.36982552731E+03  0.00000000000E+00 0. -1.
         25    1    1    2    0    0  0.27568814292E+02  0.32006219330E+03  0.10902035998E+03  0.36153877522E+03  0.12500000000E+03 0.  0.
         25    1    1    2    0    0 -0.11228577098E+03 -0.20357068837E+03 -0.67169802431E+02  0.27237089031E+03  0.12500000000E+03 0.  0.
         25    1    1    2    0    0  0.84716956687E+02 -0.11649150492E+03  0.49422922743E+02  0.19701486939E+03  0.12500000000E+03 0.  0.
</event>
<event>
 5    0  0.5786117E-005  0.3107434E+03  0.7546771E-02  0.1079990E+00
         21   -1    0    0  502  501  0.00000000000E+00  0.00000000000E+00  0.98903446862E+02  0.98903446862E+02  0.00000000000E+00 0. -1.
         21   -1    0    0  501  502 -0.00000000000E+00 -0.00000000000E+00 -0.97632042260E+03  0.97632042260E+03  0.00000000000E+00 0. -1.
         25    1    1    2    0    0 -0.11679329490E+03 -0.13749823021E+03 -0.17655244008E+03  0.28167747717E+03  0.12500000000E+03 0.  0.
         25    1    1    2    0    0  0.26671104109E+02  0.12226285121E+03 -0.18936634415E+03  0.25912191123E+03  0.12500000000E+03 0.  0.
         25    1    1    2    0    0  0.90122190796E+02  0.15235379000E+02 -0.51149819152E+03  0.53442448107E+03  0.12500000000E+03 0.  0.
</event>
<event>
 5    0  0.5786117E-005  0.3141748E+03  0.7546771E-02  0.1078362E+00
         21   -1    0    0  502  501  0.00000000000E+00  0.00000000000E+00  0.28665546440E+03  0.28665546440E+03  0.00000000000E+00 0.  1.
         21   -1    0    0  501  502 -0.00000000000E+00 -0.00000000000E+00 -0.34433600899E+03  0.34433600899E+03  0.00000000000E+00 0.  1.
         25    1    1    2    0    0  0.11059003728E+03 -0.19506912597E+03 -0.89168783155E+02  0.27176863715E+03  0.12500000000E+03 0.  0.
         25    1    1    2    0    0 -0.10319897374E+03  0.15466786671E+03  0.39076964675E+02  0.22742951951E+03  0.12500000000E+03 0.  0.
         25    1    1    2    0    0 -0.73910635356E+01  0.40401259254E+02 -0.75887261107E+01  0.13179331673E+03  0.12500000000E+03 0.  0.
</event>
<event>
 5    0  0.5786117E-005  0.2148602E+03  0.7546771E-02  0.1137774E+00
         21   -1    0    0  502  501  0.00000000000E+00  0.00000000000E+00  0.87576736449E+02  0.87576736449E+02  0.00000000000E+00 0.  1.
         21   -1    0    0  501  502 -0.00000000000E+00 -0.00000000000E+00 -0.52713646048E+03  0.52713646048E+03  0.00000000000E+00 0.  1.
         25    1    1    2    0    0 -0.14097047511E+01  0.11456476071E+02 -0.12933960725E+03  0.18024142730E+03  0.12500000000E+03 0.  0.
         25    1    1    2    0    0  0.73204826142E+02 -0.49575389519E+02 -0.13243411689E+03  0.20243631377E+03  0.12500000000E+03 0.  0.
         25    1    1    2    0    0 -0.71795121391E+02  0.38118913448E+02 -0.17778599988E+03  0.23203545585E+03  0.12500000000E+03 0.  0.
</event>
<event>
 5    0  0.5786117E-005  0.1999769E+03  0.7546771E-02  0.1149758E+00
         21   -1    0    0  502  501  0.00000000000E+00  0.00000000000E+00  0.35862599268E+03  0.35862599268E+03  0.00000000000E+00 0. -1.
         21   -1    0    0  501  502 -0.00000000000E+00 -0.00000000000E+00 -0.11151105650E+03  0.11151105650E+03  0.00000000000E+00 0. -1.
         25    1    1    2    0    0  0.21119902495E+00 -0.14368981496E+01  0.61878254600E+02  0.13948486539E+03  0.12500000000E+03 0.  0.
         25    1    1    2    0    0 -0.51538134906E+02 -0.84690166825E+01  0.11673643322E+03  0.17883036217E+03  0.12500000000E+03 0.  0.
         25    1    1    2    0    0  0.51326935881E+02  0.99059148321E+01  0.68500248360E+02  0.15182182162E+03  0.12500000000E+03 0.  0.
</event>
<event>
 5    0  0.5786117E-005  0.3900511E+03  0.7546771E-02  0.1047280E+00
         21   -1    0    0  502  501  0.00000000000E+00  0.00000000000E+00  0.33299122415E+03  0.33299122415E+03  0.00000000000E+00 0.  1.
         21   -1    0    0  501  502 -0.00000000000E+00 -0.00000000000E+00 -0.45688842536E+03  0.45688842536E+03  0.00000000000E+00 0.  1.
         25    1    1    2    0    0  0.32155751011E+02 -0.64835723098E+02  0.10698229888E+03  0.17974391669E+03  0.12500000000E+03 0.  0.
         25    1    1    2    0    0 -0.24206916716E+02 -0.18977262449E+03  0.22617418430E+02  0.22964357478E+03  0.12500000000E+03 0.  0.
         25    1    1    2    0    0 -0.79488342957E+01  0.25460834759E+03 -0.25349691853E+03  0.38049215804E+03  0.12500000000E+03 0.  0.
</event>
<event>
 5    0  0.5786117E-005  0.3321804E+03  0.7546771E-02  0.1070176E+00
         21   -1    0    0  502  501  0.00000000000E+00  0.00000000000E+00  0.14210588422E+03  0.14210588422E+03  0.00000000000E+00 0.  1.
         21   -1    0    0  501  502 -0.00000000000E+00 -0.00000000000E+00 -0.77649023109E+03  0.77649023109E+03  0.00000000000E+00 0.  1.
         25    1    1    2    0    0 -0.55949901083E+02 -0.43492964640E+02 -0.39797756043E+03  0.42312311212E+03  0.12500000000E+03 0.  0.
         25    1    1    2    0    0 -0.79528356234E+01  0.88987148922E+02  0.59535231152E+02  0.16477683094E+03  0.12500000000E+03 0.  0.
         25    1    1    2    0    0  0.63902736706E+02 -0.45494184281E+02 -0.29594201759E+03  0.33069617225E+03  0.12500000000E+03 0.  0.
</event>
<event>
 5    0  0.5786117E-005  0.2972034E+03  0.7546771E-02  0.1086647E+00
         21   -1    0    0  502  501  0.00000000000E+00  0.00000000000E+00  0.78650372291E+02  0.78650372291E+02  0.00000000000E+00 0.  1.
         21   -1    0    0  501  502 -0.00000000000E+00 -0.00000000000E+00 -0.11230698412E+04  0.11230698412E+04  0.00000000000E+00 0.  1.
         25    1    1    2    0    0 -0.48729124241E+02 -0.73774204324E+02 -0.28693487381E+03  0.32522881573E+03  0.12500000000E+03 0.  0.
         25    1    1    2    0    0  0.49946638068E+02  0.11978468397E+03 -0.71397414333E+03  0.73636072310E+03  0.12500000000E+03 0.  0.
         25    1    1    2    0    0 -0.12175138273E+01 -0.46010479647E+02 -0.43510451807E+02  0.14013067471E+03  0.12500000000E+03 0.  0.
</event>
<event>
 5    0  0.5786117E-005  0.2705232E+03  0.7546771E-02  0.1100981E+00
         21   -1    0    0  502  501  0.00000000000E+00  0.00000000000E+00  0.42754124216E+02  0.42754124216E+02  0.00000000000E+00 0. -1.
         21   -1    0    0  501  502 -0.00000000000E+00 -0.00000000000E+00 -0.17117128593E+04  0.17117128593E+04  0.00000000000E+00 0. -1.
         25    1    1    2    0    0  0.16470665678E+02  0.70532895315E+02 -0.44076241684E+03  0.46383475532E+03  0.12500000000E+03 0.  0.
         25    1    1    2    0    0 -0.33968800654E+02  0.57830992431E+02 -0.94131921631E+03  0.95194809213E+03  0.12500000000E+03 0.  0.
         25    1    1    2    0    0  0.17498134976E+02 -0.12836388775E+03 -0.28687710190E+03  0.33868413603E+03  0.12500000000E+03 0.  0.
</event>
<event>
 5    0  0.5786117E-005  0.3605898E+03  0.7546771E-02  0.1058351E+00
         21   -1    0    0  502  501  0.00000000000E+00  0.00000000000E+00  0.75256963529E+03  0.75256963529E+03  0.00000000000E+00 0.  1.
         21   -1    0    0  501  502 -0.00000000000E+00 -0.00000000000E+00 -0.17277472577E+03  0.17277472577E+03  0.00000000000E+00 0.  1.
         25    1    1    2    0    0 -0.51752346549E+02  0.82480677311E+02  0.66556861979E+02  0.17186094198E+03  0.12500000000E+03 0.  0.
         25    1    1    2    0    0  0.35942245451E+02  0.14306315617E+03  0.44662942668E+03  0.48668445263E+03  0.12500000000E+03 0.  0.
         25    1    1    2    0    0  0.15810101098E+02 -0.22554383349E+03  0.66608620863E+02  0.26679896644E+03  0.12500000000E+03 0.  0.
</event>
<event>
 5    0  0.5988024E-005  0.2981166E+03  0.7546771E-02  0.1086186E+00
         21   -1    0    0  502  501  0.00000000000E+00  0.00000000000E+00  0.20318965251E+03  0.20318965251E+03  0.00000000000E+00 0.  1.
         21   -1    0    0  501  502 -0.00000000000E+00 -0.00000000000E+00 -0.43739197521E+03  0.43739197521E+03  0.00000000000E+00 0.  1.
         25    1    1    2    0    0 -0.15210179899E+03  0.93637512120E+02 -0.19284652247E+03  0.29106308966E+03  0.12500000000E+03 0.  0.
         25    1    1    2    0    0  0.53483489426E+02 -0.12467853246E+03 -0.13906342416E+02  0.18499623363E+03  0.12500000000E+03 0.  0.
         25    1    1    2    0    0  0.98618309561E+02  0.31041020338E+02 -0.27449457813E+02  0.16452230444E+03  0.12500000000E+03 0.  0.
</event>
<event>
 5    0  0.5786117E-005  0.2887944E+03  0.7546771E-02  0.1090980E+00
         21   -1    0    0  502  501  0.00000000000E+00  0.00000000000E+00  0.79074685607E+03  0.79074685607E+03  0.00000000000E+00 0.  1.
         21   -1    0    0  501  502 -0.00000000000E+00 -0.00000000000E+00 -0.10547272299E+03  0.10547272299E+03  0.00000000000E+00 0.  1.
         25    1    1    2    0    0 -0.12655118577E+02 -0.17603411095E+03  0.32466860390E+03  0.39010621964E+03  0.12500000000E+03 0.  0.
         25    1    1    2    0    0  0.71854906973E+02  0.54744892791E+02  0.88965915300E+02  0.17804512076E+03  0.12500000000E+03 0.  0.
         25    1    1    2    0    0 -0.59199788395E+02  0.12128921816E+03  0.27163961388E+03  0.32806823866E+03  0.12500000000E+03 0.  0.
</event>
<event>
 5    0  0.5786117E-005  0.2909295E+03  0.7546771E-02  0.1089865E+00
         21   -1    0    0  502  501  0.00000000000E+00  0.00000000000E+00  0.63920595674E+03  0.63920595674E+03  0.00000000000E+00 0.  1.
         21   -1    0    0  501  502 -0.00000000000E+00 -0.00000000000E+00 -0.13241420927E+03  0.13241420927E+03  0.00000000000E+00 0.  1.
         25    1    1    2    0    0 -0.23951742195E+02 -0.92925983879E+02  0.84618586260E+02  0.17886930864E+03  0.12500000000E+03 0.  0.
         25    1    1    2    0    0  0.39690397651E+02 -0.11277901928E+03  0.20444212847E+03  0.26779846667E+03  0.12500000000E+03 0.  0.
         25    1    1    2    0    0 -0.15738655456E+02  0.20570500316E+03  0.21773103274E+03  0.32495239070E+03  0.12500000000E+03 0.  0.
</event>
<event>
 5    0  0.5786117E-005  0.2499138E+03  0.7546771E-02  0.1113359E+00
         21   -1    0    0  502  501  0.00000000000E+00  0.00000000000E+00  0.58957578153E+03  0.58957578153E+03  0.00000000000E+00 0.  1.
         21   -1    0    0  501  502 -0.00000000000E+00 -0.00000000000E+00 -0.10593534618E+03  0.10593534618E+03  0.00000000000E+00 0.  1.
         25    1    1    2    0    0 -0.51001334091E+02 -0.37608789565E+02  0.24470384141E+03  0.28199384237E+03  0.12500000000E+03 0.  0.
         25    1    1    2    0    0  0.76544164309E+02  0.21698957341E+02  0.70103410809E+01  0.14833744882E+03  0.12500000000E+03 0.  0.
         25    1    1    2    0    0 -0.25542830218E+02  0.15909832224E+02  0.23192625286E+03  0.26517983653E+03  0.12500000000E+03 0.  0.
</event>
<event>
 5    0  0.5786117E-005  0.3272047E+03  0.7546771E-02  0.1072380E+00
         21   -1    0    0  502  501  0.00000000000E+00  0.00000000000E+00  0.82373757527E+02  0.82373757527E+02  0.00000000000E+00 0.  1.
         21   -1    0    0  501  502 -0.00000000000E+00 -0.00000000000E+00 -0.12997214396E+04  0.12997214396E+04  0.00000000000E+00 0.  1.
         25    1    1    2    0    0  0.40393338137E+02 -0.88326557982E+02 -0.17519177298E+03  0.23611514126E+03  0.12500000000E+03 0.  0.
         25    1    1    2    0    0 -0.12397670929E+03 -0.28281217086E+02 -0.14779262704E+03  0.23159816988E+03  0.12500000000E+03 0.  0.
         25    1    1    2    0    0  0.83583371150E+02  0.11660777507E+03 -0.89436328201E+03  0.91438188595E+03  0.12500000000E+03 0.  0.
</event>
<event>
 5    0  0.5786117E-005  0.3424947E+03  0.7546771E-02  0.1065738E+00
         21   -1    0    0  502  501  0.00000000000E+00  0.00000000000E+00  0.26304291256E+03  0.26304291256E+03  0.00000000000E+00 0. -1.
         21   -1    0    0  501  502 -0.00000000000E+00 -0.00000000000E+00 -0.44594473939E+03  0.44594473939E+03  0.00000000000E+00 0.  1.
         25    1    1    2    0    0  0.81105903781E+02 -0.18739637244E+03  0.15099478540E+02  0.23989281416E+03  0.12500000000E+03 0.  0.
         25    1    1    2    0    0  0.34641343887E+02 -0.41963577337E+02 -0.37507671845E+02  0.14139586266E+03  0.12500000000E+03 0.  0.
         25    1    1    2    0    0 -0.11574724767E+03  0.22935994978E+03 -0.16049363353E+03  0.32769897514E+03  0.12500000000E+03 0.  0.
</event>
<event>
 5    0  0.5786117E-005  0.2952944E+03  0.7546771E-02  0.1087617E+00
         21   -1    0    0  502  501  0.00000000000E+00  0.00000000000E+00  0.78243171332E+02  0.78243171332E+02  0.00000000000E+00 0.  1.
         21   -1    0    0  501  502 -0.00000000000E+00 -0.00000000000E+00 -0.11144586103E+04  0.11144586103E+04  0.00000000000E+00 0.  1.
         25    1    1    2    0    0  0.10343799086E+03  0.81374790416E+01 -0.20034019503E+03  0.25792795557E+03  0.12500000000E+03 0.  0.
         25    1    1    2    0    0  0.16729863933E+02 -0.82135053013E+02 -0.66002630595E+03  0.67696807888E+03  0.12500000000E+03 0.  0.
         25    1    1    2    0    0 -0.12016785480E+03  0.73997573971E+02 -0.17584893794E+03  0.25780574714E+03  0.12500000000E+03 0.  0.
</event>
<event>
 5    0  0.5786117E-005  0.3005892E+03  0.7546771E-02  0.1084946E+00
         21   -1    0    0  502  501  0.00000000000E+00  0.00000000000E+00  0.10289616100E+03  0.10289616100E+03  0.00000000000E+00 0.  1.
         21   -1    0    0  501  502 -0.00000000000E+00 -0.00000000000E+00 -0.87810754441E+03  0.87810754441E+03  0.00000000000E+00 0.  1.
         25    1    1    2    0    0 -0.75429659042E+02  0.19337354544E+02 -0.22439553792E+03  0.26840626703E+03  0.12500000000E+03 0.  0.
         25    1    1    2    0    0  0.17826426987E+02  0.58781708401E+02  0.22901491697E+00  0.13927714525E+03  0.12500000000E+03 0.  0.
         25    1    1    2    0    0  0.57603232055E+02 -0.78119062945E+02 -0.55104486040E+03  0.57332029313E+03  0.12500000000E+03 0.  0.
</event>
<event>
 5    0  0.7137991E-005  0.2770495E+03  0.7546771E-02  0.1097311E+00
         21   -1    0    0  502  501  0.00000000000E+00  0.00000000000E+00  0.52983644113E+03  0.52983644113E+03  0.00000000000E+00 0. -1.
         21   -1    0    0  501  502 -0.00000000000E+00 -0.00000000000E+00 -0.14486815029E+03  0.14486815029E+03  0.00000000000E+00 0. -1.
         25    1    1    2    0    0 -0.99107792950E+02  0.52844490936E+02  0.12187596664E+03  0.20759009150E+03  0.12500000000E+03 0.  0.
         25    1    1    2    0    0  0.84351303766E+02 -0.13491856862E+03  0.24189008735E+03  0.31536324606E+03  0.12500000000E+03 0.  0.
         25    1    1    2    0    0  0.14756489185E+02  0.82074077687E+02  0.21202236843E+02  0.15175125386E+03  0.12500000000E+03 0.  0.
</event>
<event>
 5    0  0.5786117E-005  0.3406157E+03  0.7546771E-02  0.1066534E+00
         21   -1    0    0  502  501  0.00000000000E+00  0.00000000000E+00  0.33182001772E+03  0.33182001772E+03  0.00000000000E+00 0. -1.
         21   -1    0    0  501  502 -0.00000000000E+00 -0.00000000000E+00 -0.34964449878E+03  0.34964449878E+03  0.00000000000E+00 0. -1.
         25    1    1    2    0    0 -0.85617892612E+02  0.61602263526E+02  0.14033600273E+03  0.21550975864E+03  0.12500000000E+03 0.  0.
         25    1    1    2    0    0 -0.10727543454E+02  0.54110498748E+02  0.79512027570E+02  0.15808285420E+03  0.12500000000E+03 0.  0.
         25    1    1    2    0    0  0.96345436066E+02 -0.11571276227E+03 -0.23767251136E+03  0.30787190366E+03  0.12500000000E+03 0.  0.
</event>
<event>
 5    0  0.5786117E-005  0.3165339E+03  0.7546771E-02  0.1077256E+00
         21   -1    0    0  502  501  0.00000000000E+00  0.00000000000E+00  0.13902555443E+03  0.13902555443E+03  0.00000000000E+00 0.  1.
         21   -1    0    0  501  502 -0.00000000000E+00 -0.00000000000E+00 -0.72068542420E+03  0.72068542420E+03  0.00000000000E+00 0.  1.
         25    1    1    2    0    0  0.33077678355E+02 -0.43269067642E+02 -0.46529914894E+02  0.14407073957E+03  0.12500000000E+03 0.  0.
         25    1    1    2    0    0  0.14731451786E+03 -0.94017126706E+02 -0.21526410577E+03  0.30414539700E+03  0.12500000000E+03 0.  0.
         25    1    1    2    0    0 -0.18039219621E+03  0.13728619435E+03 -0.31986584911E+03  0.41149484206E+03  0.12500000000E+03 0.  0.
</event>
<event>
 5    0  0.5786117E-005  0.2627961E+03  0.7546771E-02  0.1105475E+00
         21   -1    0    0  502  501  0.00000000000E+00  0.00000000000E+00  0.31799045602E+03  0.31799045602E+03  0.00000000000E+00 0.  1.
         21   -1    0    0  501  502 -0.00000000000E+00 -0.00000000000E+00 -0.21718199755E+03  0.21718199755E+03  0.00000000000E+00 0.  1.
         25    1    1    2    0    0  0.47305692615E+02 -0.27507435933E+02 -0.48831533365E+02  0.14492758963E+03  0.12500000000E+03 0.  0.
         25    1    1    2    0    0  0.43292866172E+01  0.93336891565E+01 -0.60839768284E+02  0.13939992066E+03  0.12500000000E+03 0.  0.
         25    1    1    2    0    0 -0.51634979232E+02  0.18173746776E+02  0.21047976012E+03  0.25084494328E+03  0.12500000000E+03 0.  0.
</event>
<event>
 5    0  0.5786117E-005  0.2649625E+03  0.7546771E-02  0.1104198E+00
         21   -1    0    0  502  501  0.00000000000E+00  0.00000000000E+00  0.29086079894E+03  0.29086079894E+03  0.00000000000E+00 0. -1.
         21   -1    0    0  501  502 -0.00000000000E+00 -0.00000000000E+00 -0.24137023688E+03  0.24137023688E+03  0.00000000000E+00 0. -1.
         25    1    1    2    0    0 -0.78012466816E+02 -0.53580082320E+02  0.45854669615E+02  0.16335366823E+03  0.12500000000E+03 0.  0.
         25    1    1    2    0    0 -0.29099722961E+02 -0.77072387586E+02  0.41454496499E+02  0.15533969900E+03  0.12500000000E+03 0.  0.
         25    1    1    2    0    0  0.10711218978E+03  0.13065246991E+03 -0.37818604060E+02  0.21353766858E+03  0.12500000000E+03 0.  0.
</event>
<event>
 5    0  0.5786117E-005  0.4041006E+03  0.7546771E-02  0.1042369E+00
         21   -1    0    0  502  501  0.00000000000E+00  0.00000000000E+00  0.77427273929E+02  0.77427273929E+02  0.00000000000E+00 0.  1.
         21   -1    0    0  501  502 -0.00000000000E+00 -0.00000000000E+00 -0.21090405600E+04  0.21090405600E+04  0.00000000000E+00 0. -1.
         25    1    1    2    0    0  0.13698396503E+03  0.13511871206E+02 -0.41128904272E+03  0.45136554365E+03  0.12500000000E+03 0.  0.
         25    1    1    2    0    0  0.33084000215E+02  0.21242318177E+03 -0.36091007046E+03  0.43829127094E+03  0.12500000000E+03 0.  0.
         25    1    1    2    0    0 -0.17006796525E+03 -0.22593505298E+03 -0.12594141729E+04  0.12968110193E+04  0.12500000000E+03 0.  0.
</event>
<event>
 5    0  0.5786117E-005  0.2588218E+03  0.7546771E-02  0.1107853E+00
         21   -1    0    0  502  501  0.00000000000E+00  0.00000000000E+00  0.66455232666E+02  0.66455232666E+02  0.00000000000E+00 0.  1.
         21   -1    0    0  501  502 -0.00000000000E+00 -0.00000000000E+00 -0.10080281695E+04  0.10080281695E+04  0.00000000000E+00 0.  1.
         25    1    1    2    0    0 -0.13005895010E+02  0.47716570623E+02 -0.62165875109E+03  0.63602722208E+03  0.12500000000E+03 0.  0.
         25    1    1    2    0    0  0.45036669203E+02  0.29461458101E+02 -0.87999328917E+02  0.16206529849E+03  0.12500000000E+03 0.  0.
         25    1    1    2    0    0 -0.32030774193E+02 -0.77178028723E+02 -0.23191485685E+03  0.27639088162E+03  0.12500000000E+03 0.  0.
</event>
<event>
 5    0  0.5786117E-005  0.2997628E+03  0.7546771E-02  0.1085359E+00
         21   -1    0    0  502  501  0.00000000000E+00  0.00000000000E+00  0.52094329614E+03  0.52094329614E+03  0.00000000000E+00 0.  1.
         21   -1    0    0  501  502 -0.00000000000E+00 -0.00000000000E+00 -0.17249045657E+03  0.17249045657E+03  0.00000000000E+00 0.  1.
         25    1    1    2    0    0  0.12465188672E+03  0.38207243883E+02  0.30333030226E+03  0.35303280105E+03  0.12500000000E+03 0.  0.
         25    1    1    2    0    0 -0.15994816164E+03 -0.28425214447E+02  0.87648201345E+01  0.20516634544E+03  0.12500000000E+03 0.  0.
         25    1    1    2    0    0  0.35296274919E+02 -0.97820294363E+01  0.36357717171E+02  0.13523460623E+03  0.12500000000E+03 0.  0.
</event>
<event>
 5    0  0.5786117E-005  0.2902229E+03  0.7546771E-02  0.1090233E+00
         21   -1    0    0  502  501  0.00000000000E+00  0.00000000000E+00  0.45874783265E+03  0.45874783265E+03  0.00000000000E+00 0. -1.
         21   -1    0    0  501  502 -0.00000000000E+00 -0.00000000000E+00 -0.18360706225E+03  0.18360706225E+03  0.00000000000E+00 0. -1.
         25    1    1    2    0    0  0.60006594766E+01 -0.62535421904E+02  0.36560308556E+02  0.14459717517E+03  0.12500000000E+03 0.  0.
         25    1    1    2    0    0  0.12287711871E+02 -0.49420364608E+02 -0.65452814001E+02  0.15000810365E+03  0.12500000000E+03 0.  0.
         25    1    1    2    0    0 -0.18288371347E+02  0.11195578651E+03  0.30403327585E+03  0.34774961608E+03  0.12500000000E+03 0.  0.
</event>
<event>
 5    0  0.5786117E-005  0.3556104E+03  0.7546771E-02  0.1060336E+00
         21   -1    0    0  502  501  0.00000000000E+00  0.00000000000E+00  0.96018283953E+03  0.96018283953E+03  0.00000000000E+00 0. -1.
         21   -1    0    0  501  502 -0.00000000000E+00 -0.00000000000E+00 -0.13170275986E+03  0.13170275986E+03  0.00000000000E+00 0. -1.
         25    1    1    2    0    0  0.11731935094E+03  0.21766811770E+03  0.54541584967E+03  0.61175705034E+03  0.12500000000E+03 0.  0.
         25    1    1    2    0    0 -0.45636558998E+02 -0.20270072824E+03  0.18847391480E+03  0.30711186448E+03  0.12500000000E+03 0.  0.
         25    1    1    2    0    0 -0.71682791939E+02 -0.14967389463E+02  0.94590315205E+02  0.17301668457E+03  0.12500000000E+03 0.  0.
</event>
<event>
 5    0  0.5786117E-005  0.3114943E+03  0.7546771E-02  0.1079632E+00
         21   -1    0    0  502  501  0.00000000000E+00  0.00000000000E+00  0.12378636596E+04  0.12378636596E+04  0.00000000000E+00 0.  1.
         21   -1    0    0  501  502 -0.00000000000E+00 -0.00000000000E+00 -0.78383976735E+02  0.78383976735E+02  0.00000000000E+00 0.  1.
         25    1    1    2    0    0  0.98784362552E+02  0.11440689271E+03  0.19704788706E+03  0.27802905816E+03  0.12500000000E+03 0.  0.
         25    1    1    2    0    0 -0.11553444272E+03  0.46969224618E+02  0.34263287801E+03  0.38545635889E+03  0.12500000000E+03 0.  0.
         25    1    1    2    0    0  0.16750080173E+02 -0.16137611733E+03  0.61979891775E+03  0.65276221925E+03  0.12500000000E+03 0.  0.
</event>
<event>
 5    0  0.5786117E-005  0.3720747E+03  0.7546771E-02  0.1053902E+00
         21   -1    0    0  502  501  0.00000000000E+00  0.00000000000E+00  0.24393590734E+03  0.24393590734E+03  0.00000000000E+00 0. -1.
         21   -1    0    0  501  502 -0.00000000000E+00 -0.00000000000E+00 -0.56752452483E+03  0.56752452483E+03  0.00000000000E+00 0. -1.
         25    1    1    2    0    0  0.14242882677E+03 -0.18863619231E+02 -0.19443260633E+03  0.27215959515E+03  0.12500000000E+03 0.  0.
         25    1    1    2    0    0  0.21835732196E+02 -0.92356513362E+02  0.11970162363E+03  0.19738288543E+03  0.12500000000E+03 0.  0.
         25    1    1    2    0    0 -0.16426455897E+03  0.11122013259E+03 -0.24885763480E+03  0.34191795159E+03  0.12500000000E+03 0.  0.
</event>
<event>
 5    0  0.5786117E-005  0.3603652E+03  0.7546771E-02  0.1058439E+00
         21   -1    0    0  502  501  0.00000000000E+00  0.00000000000E+00  0.93650980275E+02  0.93650980275E+02  0.00000000000E+00 0. -1.
         21   -1    0    0  501  502 -0.00000000000E+00 -0.00000000000E+00 -0.13866706611E+04  0.13866706611E+04  0.00000000000E+00 0. -1.
         25    1    1    2    0    0 -0.31406505953E+02  0.45427919508E+02 -0.26222924628E+03  0.29570127171E+03  0.12500000000E+03 0.  0.
         25    1    1    2    0    0  0.18097494135E+03  0.10469742634E+03 -0.83612922873E+03  0.87089067489E+03  0.12500000000E+03 0.  0.
         25    1    1    2    0    0 -0.14956843540E+03 -0.15012534585E+03 -0.19466120584E+03  0.31372969479E+03  0.12500000000E+03 0.  0.
</event>
<event>
 5    0  0.5786117E-005  0.4005528E+03  0.7546771E-02  0.1043588E+00
         21   -1    0    0  502  501  0.00000000000E+00  0.00000000000E+00  0.62266540451E+03  0.62266540451E+03  0.00000000000E+00 0.  1.
         21   -1    0    0  501  502 -0.00000000000E+00 -0.00000000000E+00 -0.25767053849E+03  0.25767053849E+03  0.00000000000E+00 0.  1.
         25    1    1    2    0    0  0.80571358900E+02 -0.39234056631E+02  0.30445009153E+03  0.34109516752E+03  0.12500000000E+03 0.  0.
         25    1    1    2    0    0 -0.10980593230E+02 -0.21190283327E+03  0.39848219348E+02  0.24947197189E+03  0.12500000000E+03 0.  0.
         25    1    1    2    0    0 -0.69590765670E+02  0.25113688990E+03  0.20696555143E+02  0.28976880358E+03  0.12500000000E+03 0.  0.
</event>
<event>
 5    0  0.5786117E-005  0.2487167E+03  0.7546771E-02  0.1114119E+00
         21   -1    0    0  502  501  0.00000000000E+00  0.00000000000E+00  0.55120790970E+02  0.55120790970E+02  0.00000000000E+00 0. -1.
         21   -1    0    0  501  502 -0.00000000000E+00 -0.00000000000E+00 -0.11222620701E+04  0.11222620701E+04  0.00000000000E+00 0. -1.
         25    1    1    2    0    0 -0.58856859943E+02  0.31278919271E+02 -0.45127756036E+03  0.47298936271E+03  0.12500000000E+03 0.  0.
         25    1    1    2    0    0  0.13353131267E+03 -0.59629755341E+02 -0.31876960756E+03  0.37232429667E+03  0.12500000000E+03 0.  0.
         25    1    1    2    0    0 -0.74674452730E+02  0.28350836069E+02 -0.29709411123E+03  0.33206920171E+03  0.12500000000E+03 0.  0.
</event>
<event>
 5    0  0.5786117E-005  0.2801816E+03  0.7546771E-02  0.1095590E+00
         21   -1    0    0  502  501  0.00000000000E+00  0.00000000000E+00  0.22606163429E+03  0.22606163429E+03  0.00000000000E+00 0.  1.
         21   -1    0    0  501  502 -0.00000000000E+00 -0.00000000000E+00 -0.34725812802E+03  0.34725812802E+03  0.00000000000E+00 0.  1.
         25    1    1    2    0    0 -0.14460713896E+02  0.26950006347E+01  0.11386139824E+03  0.16972269526E+03  0.12500000000E+03 0.  0.
         25    1    1    2    0    0  0.63989101661E+02 -0.44934860203E+02 -0.21579292467E+03  0.26135289004E+03  0.12500000000E+03 0.  0.
         25    1    1    2    0    0 -0.49528387765E+02  0.42239859568E+02 -0.19264967298E+02  0.14224417702E+03  0.12500000000E+03 0.  0.
</event>
<event>
 5    0  0.5786117E-005  0.2169124E+03  0.7546771E-02  0.1136206E+00
         21   -1    0    0  502  501  0.00000000000E+00  0.00000000000E+00  0.15192745540E+03  0.15192745540E+03  0.00000000000E+00 0. -1.
         21   -1    0    0  501  502 -0.00000000000E+00 -0.00000000000E+00 -0.30969379106E+03  0.30969379106E+03  0.00000000000E+00 0. -1.
         25    1    1    2    0    0 -0.40270220258E+02  0.41885504480E+02 -0.10520836972E+02  0.13824534038E+03  0.12500000000E+03 0.  0.
         25    1    1    2    0    0  0.19176299886E+02 -0.54604363779E+02 -0.13902100154E+03  0.19570693879E+03  0.12500000000E+03 0.  0.
         25    1    1    2    0    0  0.21093920372E+02  0.12718859298E+02 -0.82244971471E+01  0.12766896730E+03  0.12500000000E+03 0.  0.
</event>
<event>
 5    0  0.5786117E-005  0.2138724E+03  0.7546771E-02  0.1138536E+00
         21   -1    0    0  502  501  0.00000000000E+00  0.00000000000E+00  0.55624635889E+02  0.55624635889E+02  0.00000000000E+00 0.  1.
         21   -1    0    0  501  502 -0.00000000000E+00 -0.00000000000E+00 -0.82232300133E+03  0.82232300133E+03  0.00000000000E+00 0.  1.
         25    1    1    2    0    0  0.17435019032E+01  0.29349540995E+02 -0.12584186879E+03  0.17979324597E+03  0.12500000000E+03 0.  0.
         25    1    1    2    0    0  0.17628383980E+02 -0.67513816656E+02 -0.29444463625E+03  0.32740115940E+03  0.12500000000E+03 0.  0.
         25    1    1    2    0    0 -0.19371885883E+02  0.38164275662E+02 -0.34641186040E+03  0.37075323185E+03  0.12500000000E+03 0.  0.
</event>
<event>
 5    0  0.5786117E-005  0.2127431E+03  0.7546771E-02  0.1139412E+00
         21   -1    0    0  502  501  0.00000000000E+00  0.00000000000E+00  0.93857035910E+03  0.93857035910E+03  0.00000000000E+00 0.  1.
         21   -1    0    0  501  502 -0.00000000000E+00 -0.00000000000E+00 -0.48221878119E+02  0.48221878119E+02  0.00000000000E+00 0.  1.
         25    1    1    2    0    0  0.99755696122E+01  0.23168981390E+01  0.37500975349E+03  0.39542659903E+03  0.12500000000E+03 0.  0.
         25    1    1    2    0    0 -0.61041297689E+02  0.22953308194E+02  0.34389674884E+03  0.37167575687E+03  0.12500000000E+03 0.  0.
         25    1    1    2    0    0  0.51065728077E+02 -0.25270206333E+02  0.17144197865E+03  0.21968988132E+03  0.12500000000E+03 0.  0.
</event>
<event>
 5    0  0.5786117E-005  0.2187310E+03  0.7546771E-02  0.1134833E+00
         21   -1    0    0  502  501  0.00000000000E+00  0.00000000000E+00  0.62650138602E+03  0.62650138602E+03  0.00000000000E+00 0. -1.
         21   -1    0    0  501  502 -0.00000000000E+00 -0.00000000000E+00 -0.76365782832E+02  0.76365782832E+02  0.00000000000E+00 0. -1.
         25    1    1    2    0    0  0.80409914312E+02 -0.31405150955E+02  0.11950729736E+03  0.19328484666E+03  0.12500000000E+03 0.  0.
         25    1    1    2    0    0 -0.27285816822E+02  0.26333616868E+02  0.26402964696E+03  0.29457533782E+03  0.12500000000E+03 0.  0.
         25    1    1    2    0    0 -0.53124097490E+02  0.50715340878E+01  0.16659865886E+03  0.21500698436E+03  0.12500000000E+03 0.  0.
</event>
<event>
 5    0  0.5786117E-005  0.4041513E+03  0.7546771E-02  0.1042352E+00
         21   -1    0    0  502  501  0.00000000000E+00  0.00000000000E+00  0.18664604974E+04  0.18664604974E+04  0.00000000000E+00 0. -1.
         21   -1    0    0  501  502 -0.00000000000E+00 -0.00000000000E+00 -0.87512302506E+02  0.87512302506E+02  0.00000000000E+00 0. -1.
         25    1    1    2    0    0 -0.11875789664E+03  0.22570023026E+02  0.15578736580E+04  0.15675484612E+04  0.12500000000E+03 0.  0.
         25    1    1    2    0    0  0.85992677104E+00 -0.16268545314E+02  0.30396688033E+02  0.12967021124E+03  0.12500000000E+03 0.  0.
         25    1    1    2    0    0  0.11789796987E+03 -0.63014777117E+01  0.19067784890E+03  0.25675412749E+03  0.12500000000E+03 0.  0.
</event>
<event>
 5    0  0.5786117E-005  0.2233277E+03  0.7546771E-02  0.1131426E+00
         21   -1    0    0  502  501  0.00000000000E+00  0.00000000000E+00  0.13687636903E+02  0.13687636903E+02  0.00000000000E+00 0. -1.
         21   -1    0    0  501  502 -0.00000000000E+00 -0.00000000000E+00 -0.36438185238E+04  0.36438185238E+04  0.00000000000E+00 0. -1.
         25    1    1    2    0    0 -0.27349165532E+02 -0.91276714207E+01 -0.72794430381E+03  0.73916114663E+03  0.12500000000E+03 0.  0.
         25    1    1    2    0    0  0.95325695445E+02  0.13028705466E+02 -0.12217577221E+04  0.12318983996E+04  0.12500000000E+03 0.  0.
         25    1    1    2    0    0 -0.67976529914E+02 -0.39010340455E+01 -0.16804288609E+04  0.16864466144E+04  0.12500000000E+03 0.  0.
</event>
<event>
 5    0  0.5786117E-005  0.2493335E+03  0.7546771E-02  0.1113727E+00
         21   -1    0    0  502  501  0.00000000000E+00  0.00000000000E+00  0.62314638306E+03  0.62314638306E+03  0.00000000000E+00 0.  1.
         21   -1    0    0  501  502 -0.00000000000E+00 -0.00000000000E+00 -0.99763383537E+02  0.99763383537E+02  0.00000000000E+00 0.  1.
         25    1    1    2    0    0 -0.33614173234E+02 -0.10624975063E+03  0.11774289494E+03  0.20471275353E+03  0.12500000000E+03 0.  0.
         25    1    1    2    0    0  0.34933986209E+02  0.10322538515E+03  0.11502085851E+03  0.20181838723E+03  0.12500000000E+03 0.  0.
         25    1    1    2    0    0 -0.13198129754E+01  0.30243654730E+01  0.29061924608E+03  0.31637862583E+03  0.12500000000E+03 0.  0.
</event>
<event>
 5    0  0.5786117E-005  0.3629690E+03  0.7546771E-02  0.1057414E+00
         21   -1    0    0  502  501  0.00000000000E+00  0.00000000000E+00  0.31405934928E+03  0.31405934928E+03  0.00000000000E+00 0.  1.
         21   -1    0    0  501  502 -0.00000000000E+00 -0.00000000000E+00 -0.41949549632E+03  0.41949549632E+03  0.00000000000E+00 0.  1.
         25    1    1    2    0    0  0.26710552536E+03 -0.12215011262E+01 -0.11959365626E+03  0.31823654153E+03  0.12500000000E+03 0.  0.
         25    1    1    2    0    0 -0.17935186809E+03  0.35581673701E+02 -0.76606031526E+02  0.23436431502E+03  0.12500000000E+03 0.  0.
         25    1    1    2    0    0 -0.87753657277E+02 -0.34360172574E+02  0.90763540747E+02  0.18095398905E+03  0.12500000000E+03 0.  0.
</event>
<event>
 5    0  0.5786117E-005  0.3103853E+03  0.7546771E-02  0.1080161E+00
         21   -1    0    0  502  501  0.00000000000E+00  0.00000000000E+00  0.10533467435E+03  0.10533467435E+03  0.00000000000E+00 0. -1.
         21   -1    0    0  501  502 -0.00000000000E+00 -0.00000000000E+00 -0.91459921216E+03  0.91459921216E+03  0.00000000000E+00 0. -1.
         25    1    1    2    0    0  0.56954222770E+02 -0.91995475553E+02 -0.34614461343E+03  0.38359880660E+03  0.12500000000E+03 0.  0.
         25    1    1    2    0    0 -0.63278290198E+02  0.19802085743E+03 -0.15673354957E+03  0.28880236763E+03  0.12500000000E+03 0.  0.
         25    1    1    2    0    0  0.63240674286E+01 -0.10602538188E+03 -0.30638637481E+03  0.34753271228E+03  0.12500000000E+03 0.  0.
</event>
<event>
 5    0  0.5786117E-005  0.3257627E+03  0.7546771E-02  0.1073027E+00
         21   -1    0    0  502  501  0.00000000000E+00  0.00000000000E+00  0.49736088636E+03  0.49736088636E+03  0.00000000000E+00 0.  1.
         21   -1    0    0  501  502 -0.00000000000E+00 -0.00000000000E+00 -0.21336890372E+03  0.21336890372E+03  0.00000000000E+00 0.  1.
         25    1    1    2    0    0  0.18229834437E+03  0.93508541497E+02 -0.95204094912E+01  0.24019194801E+03  0.12500000000E+03 0.  0.
         25    1    1    2    0    0  0.21035950989E+01 -0.57855540666E+02  0.76863299098E+02  0.15774870981E+03  0.12500000000E+03 0.  0.
         25    1    1    2    0    0 -0.18440193947E+03 -0.35653000832E+02  0.21664909303E+03  0.31278913226E+03  0.12500000000E+03 0.  0.
</event>
<event>
 5    0  0.5786117E-005  0.2993595E+03  0.7546771E-02  0.1085561E+00
         21   -1    0    0  502  501  0.00000000000E+00  0.00000000000E+00  0.40239350769E+03  0.40239350769E+03  0.00000000000E+00 0. -1.
         21   -1    0    0  501  502 -0.00000000000E+00 -0.00000000000E+00 -0.22270765436E+03  0.22270765436E+03  0.00000000000E+00 0. -1.
         25    1    1    2    0    0  0.10044221508E+03 -0.34035958206E+02  0.19775439066E+03  0.25686355142E+03  0.12500000000E+03 0.  0.
         25    1    1    2    0    0 -0.12659578757E+03  0.64846435865E+02 -0.99265213033E+02  0.21379928950E+03  0.12500000000E+03 0.  0.
         25    1    1    2    0    0  0.26153572488E+02 -0.30810477658E+02  0.81196675700E+02  0.15443832113E+03  0.12500000000E+03 0.  0.
</event>
<event>
 5    0  0.5786117E-005  0.3802103E+03  0.7546771E-02  0.1050856E+00
         21   -1    0    0  502  501  0.00000000000E+00  0.00000000000E+00  0.24484238370E+03  0.24484238370E+03  0.00000000000E+00 0. -1.
         21   -1    0    0  501  502 -0.00000000000E+00 -0.00000000000E+00 -0.59042011472E+03  0.59042011472E+03  0.00000000000E+00 0. -1.
         25    1    1    2    0    0 -0.78915943096E+02  0.28489310170E+03 -0.16343860130E+03  0.36017909693E+03  0.12500000000E+03 0.  0.
         25    1    1    2    0    0 -0.16494530275E+02 -0.35890772608E+02 -0.45279994650E+01  0.13117057546E+03  0.12500000000E+03 0.  0.
         25    1    1    2    0    0  0.95410473371E+02 -0.24900232909E+03 -0.17761113026E+03  0.34391282604E+03  0.12500000000E+03 0.  0.
</event>
<event>
 5    0  0.5786117E-005  0.3543858E+03  0.7546771E-02  0.1060829E+00
         21   -1    0    0  502  501  0.00000000000E+00  0.00000000000E+00  0.10635330327E+04  0.10635330327E+04  0.00000000000E+00 0. -1.
         21   -1    0    0  501  502 -0.00000000000E+00 -0.00000000000E+00 -0.11808684600E+03  0.11808684600E+03  0.00000000000E+00 0. -1.
         25    1    1    2    0    0 -0.22978318059E+01 -0.11807957824E+03  0.10156549529E+03  0.19972134754E+03  0.12500000000E+03 0.  0.
         25    1    1    2    0    0 -0.12407534465E+03  0.37857128713E+02  0.86544388252E+02  0.19985691002E+03  0.12500000000E+03 0.  0.
         25    1    1    2    0    0  0.12637317645E+03  0.80222449524E+02  0.75733630318E+03  0.78204162117E+03  0.12500000000E+03 0.  0.
</event>
<event>
 5    0  0.5786117E-005  0.3371336E+03  0.7546771E-02  0.1068023E+00
         21   -1    0    0  502  501  0.00000000000E+00  0.00000000000E+00  0.13767066379E+04  0.13767066379E+04  0.00000000000E+00 0.  1.
         21   -1    0    0  501  502 -0.00000000000E+00 -0.00000000000E+00 -0.82558657342E+02  0.82558657342E+02  0.00000000000E+00 0.  1.
         25    1    1    2    0    0  0.90908515481E+02 -0.11375594728E+03  0.35129752704E+03  0.40029954563E+03  0.12500000000E+03 0.  0.
         25    1    1    2    0    0  0.72041363337E+02 -0.69727590647E+02  0.14940918599E+03  0.21908902252E+03  0.12500000000E+03 0.  0.
         25    1    1    2    0    0 -0.16294987882E+03  0.18348353793E+03  0.79344126750E+03  0.83987672707E+03  0.12500000000E+03 0.  0.
</event>
<event>
 5    0  0.5786117E-005  0.3368891E+03  0.7546771E-02  0.1068129E+00
         21   -1    0    0  502  501  0.00000000000E+00  0.00000000000E+00  0.30019931303E+03  0.30019931303E+03  0.00000000000E+00 0.  1.
         21   -1    0    0  501  502 -0.00000000000E+00 -0.00000000000E+00 -0.37806310181E+03  0.37806310181E+03  0.00000000000E+00 0.  1.
         25    1    1    2    0    0  0.42941218941E+02 -0.98814964297E+02  0.61066429504E+02  0.17596151359E+03  0.12500000000E+03 0.  0.
         25    1    1    2    0    0 -0.29931442857E+02  0.24969928971E+03 -0.44266225220E+02  0.28430639326E+03  0.12500000000E+03 0.  0.
         25    1    1    2    0    0 -0.13009776084E+02 -0.15088432541E+03 -0.94663993070E+02  0.21799450799E+03  0.12500000000E+03 0.  0.
</event>
<event>
 5    0  0.5786117E-005  0.2876368E+03  0.7546771E-02  0.1091589E+00
         21   -1    0    0  502  501  0.00000000000E+00  0.00000000000E+00  0.26937540402E+03  0.26937540402E+03  0.00000000000E+00 0.  1.
         21   -1    0    0  501  502 -0.00000000000E+00 -0.00000000000E+00 -0.30713618908E+03  0.30713618908E+03  0.00000000000E+00 0.  1.
         25    1    1    2    0    0  0.28699043150E+02  0.14279857944E+03  0.13154410297E+03  0.23268846210E+03  0.12500000000E+03 0.  0.
         25    1    1    2    0    0 -0.13104116982E+02 -0.92173042575E+02 -0.12867199077E+03  0.20211152582E+03  0.12500000000E+03 0.  0.
         25    1    1    2    0    0 -0.15594926168E+02 -0.50625536861E+02 -0.40632897261E+02  0.14171160519E+03  0.12500000000E+03 0.  0.
</event>
<event>
 5    0  0.5786117E-005  0.2809622E+03  0.7546771E-02  0.1095165E+00
         21   -1    0    0  502  501  0.00000000000E+00  0.00000000000E+00  0.59052836183E+03  0.59052836183E+03  0.00000000000E+00 0.  1.
         21   -1    0    0  501  502 -0.00000000000E+00 -0.00000000000E+00 -0.13367644274E+03  0.13367644274E+03  0.00000000000E+00 0.  1.
         25    1    1    2    0    0 -0.50898029749E+02 -0.14576763667E+03  0.15825116948E+03  0.25398276708E+03  0.12500000000E+03 0.  0.
         25    1    1    2    0    0  0.12949391061E+03  0.71306872305E+02  0.19665181656E+03  0.27595340165E+03  0.12500000000E+03 0.  0.
         25    1    1    2    0    0 -0.78595880866E+02  0.74460764363E+02  0.10194893306E+03  0.19426863584E+03  0.12500000000E+03 0.  0.
</event>
<event>
 5    0  0.5786117E-005  0.2925145E+03  0.7546771E-02  0.1089044E+00
         21   -1    0    0  502  501  0.00000000000E+00  0.00000000000E+00  0.70960433341E+03  0.70960433341E+03  0.00000000000E+00 0.  1.
         21   -1    0    0  501  502 -0.00000000000E+00 -0.00000000000E+00 -0.12058093184E+03  0.12058093184E+03  0.00000000000E+00 0.  1.
         25    1    1    2    0    0  0.18878127787E+01 -0.39708876723E+02  0.12730646437E+03  0.18279030225E+03  0.12500000000E+03 0.  0.
         25    1    1    2    0    0 -0.59750230807E+01 -0.72288076902E+02 -0.11795751883E+02  0.14500140250E+03  0.12500000000E+03 0.  0.
         25    1    1    2    0    0  0.40872103021E+01  0.11199695363E+03  0.47351268909E+03  0.50239356051E+03  0.12500000000E+03 0.  0.
</event>
<event>
 5    0  0.5786117E-005  0.2934939E+03  0.7546771E-02  0.1088539E+00
         21   -1    0    0  502  501  0.00000000000E+00  0.00000000000E+00  0.18492263286E+03  0.18492263286E+03  0.00000000000E+00 0.  1.
         21   -1    0    0  501  502 -0.00000000000E+00 -0.00000000000E+00 -0.46580933021E+03  0.46580933021E+03  0.00000000000E+00 0.  1.
         25    1    1    2    0    0 -0.89561344343E+02  0.19814413205E+02 -0.23949767563E+03  0.28530331579E+03  0.12500000000E+03 0.  0.
         25    1    1    2    0    0  0.13227182265E+03 -0.92389938038E+02 -0.61993662914E+02  0.21330717278E+03  0.12500000000E+03 0.  0.
         25    1    1    2    0    0 -0.42710478311E+02  0.72575524833E+02  0.20604641197E+02  0.15212147449E+03  0.12500000000E+03 0.  0.
</event>
<event>
 5    0  0.5786117E-005  0.3679065E+03  0.7546771E-02  0.1055496E+00
         21   -1    0    0  502  501  0.00000000000E+00  0.00000000000E+00  0.15781363935E+03  0.15781363935E+03  0.00000000000E+00 0.  1.
         21   -1    0    0  501  502 -0.00000000000E+00 -0.00000000000E+00 -0.85769016310E+03  0.85769016310E+03  0.00000000000E+00 0.  1.
         25    1    1    2    0    0 -0.24330054618E+03  0.89897067725E+02 -0.24114078258E+03  0.37556692557E+03  0.12500000000E+03 0.  0.
         25    1    1    2    0    0  0.23899580766E+03  0.15019928426E+02 -0.35662040502E+03  0.44737870714E+03  0.12500000000E+03 0.  0.
         25    1    1    2    0    0  0.43047385271E+01 -0.10491699615E+03 -0.10211533616E+03  0.19255816974E+03  0.12500000000E+03 0.  0.
</event>
<event>
 5    0  0.5786117E-005  0.3126484E+03  0.7546771E-02  0.1079083E+00
         21   -1    0    0  502  501  0.00000000000E+00  0.00000000000E+00  0.12283174088E+04  0.12283174088E+04  0.00000000000E+00 0. -1.
         21   -1    0    0  501  502 -0.00000000000E+00 -0.00000000000E+00 -0.79579599332E+02  0.79579599332E+02  0.00000000000E+00 0. -1.
         25    1    1    2    0    0 -0.66336190775E+02 -0.12166663786E+03  0.44994599773E+03  0.48711360261E+03  0.12500000000E+03 0.  0.
         25    1    1    2    0    0  0.43775582992E+02  0.19328033483E+03  0.60140733834E+03  0.64543735258E+03  0.12500000000E+03 0.  0.
         25    1    1    2    0    0  0.22560607783E+02 -0.71613696969E+02  0.97384473361E+02  0.17534605290E+03  0.12500000000E+03 0.  0.
</event>
<event>
 5    0  0.5786117E-005  0.2927593E+03  0.7546771E-02  0.1088917E+00
         21   -1    0    0  502  501  0.00000000000E+00  0.00000000000E+00  0.11876471354E+04  0.11876471354E+04  0.00000000000E+00 0.  1.
         21   -1    0    0  501  502 -0.00000000000E+00 -0.00000000000E+00 -0.72166207689E+02  0.72166207689E+02  0.00000000000E+00 0.  1.
         25    1    1    2    0    0  0.56351106469E+01 -0.92221472302E+02  0.20645122614E+03  0.25842535324E+03  0.12500000000E+03 0.  0.
         25    1    1    2    0    0  0.12544299940E+03  0.13532804649E+03  0.37983999161E+03  0.44040100532E+03  0.12500000000E+03 0.  0.
         25    1    1    2    0    0 -0.13107811004E+03 -0.43106574183E+02  0.52918970993E+03  0.56098698449E+03  0.12500000000E+03 0.  0.
</event>
<event>
 5    0  0.5786117E-005  0.3513208E+03  0.7546771E-02  0.1062074E+00
         21   -1    0    0  502  501  0.00000000000E+00  0.00000000000E+00  0.14405243550E+03  0.14405243550E+03  0.00000000000E+00 0.  1.
         21   -1    0    0  501  502 -0.00000000000E+00 -0.00000000000E+00 -0.85681512695E+03  0.85681512695E+03  0.00000000000E+00 0.  1.
         25    1    1    2    0    0  0.24254315616E+03 -0.20179802833E+02 -0.30499279821E+03  0.40973163657E+03  0.12500000000E+03 0.  0.
         25    1    1    2    0    0 -0.19340284117E+03  0.28281833233E+02 -0.39219336676E+03  0.45568098270E+03  0.12500000000E+03 0.  0.
         25    1    1    2    0    0 -0.49140314992E+02 -0.81020303994E+01 -0.15576526484E+02  0.13545494318E+03  0.12500000000E+03 0.  0.
</event>
<event>
 5    0  0.5786117E-005  0.4049041E+03  0.7546771E-02  0.1042095E+00
         21   -1    0    0  502  501  0.00000000000E+00  0.00000000000E+00  0.22575521281E+04  0.22575521281E+04  0.00000000000E+00 0. -1.
         21   -1    0    0  501  502 -0.00000000000E+00 -0.00000000000E+00 -0.72621710597E+02  0.72621710597E+02  0.00000000000E+00 0. -1.
         25    1    1    2    0    0 -0.13151091761E+03 -0.21919156693E+03  0.52114845802E+03  0.59376828794E+03  0.12500000000E+03 0.  0.
         25    1    1    2    0    0 -0.10274717471E+03  0.92951866717E+02  0.87342243129E+03  0.89313424239E+03  0.12500000000E+03 0.  0.
         25    1    1    2    0    0  0.23425809232E+03  0.12623970021E+03  0.79035952819E+03  0.84327130838E+03  0.12500000000E+03 0.  0.
</event>
<event>
 5    0  0.5786117E-005  0.2102525E+03  0.7546771E-02  0.1141366E+00
         21   -1    0    0  502  501  0.00000000000E+00  0.00000000000E+00  0.21230193229E+02  0.21230193229E+02  0.00000000000E+00 0. -1.
         21   -1    0    0  501  502 -0.00000000000E+00 -0.00000000000E+00 -0.20822275580E+04  0.20822275580E+04  0.00000000000E+00 0. -1.
         25    1    1    2    0    0 -0.48810137524E+02  0.62915740064E+00 -0.90077874440E+03  0.91071959006E+03  0.12500000000E+03 0.  0.
         25    1    1    2    0    0  0.52942626371E+02  0.30102135304E+02 -0.45196738876E+03  0.47287268978E+03  0.12500000000E+03 0.  0.
         25    1    1    2    0    0 -0.41324888473E+01 -0.30731292705E+02 -0.70825123164E+03  0.71986547142E+03  0.12500000000E+03 0.  0.
</event>
<event>
 5    0  0.5786117E-005  0.2515905E+03  0.7546771E-02  0.1112304E+00
         21   -1    0    0  502  501  0.00000000000E+00  0.00000000000E+00  0.42370159765E+03  0.42370159765E+03  0.00000000000E+00 0.  1.
         21   -1    0    0  501  502 -0.00000000000E+00 -0.00000000000E+00 -0.14939237278E+03  0.14939237278E+03  0.00000000000E+00 0.  1.
         25    1    1    2    0    0 -0.93661736285E+01  0.14284776810E+03  0.69230224150E+02  0.20226476212E+03  0.12500000000E+03 0.  0.
         25    1    1    2    0    0 -0.33378644925E+02 -0.43558633096E+02  0.53635627371E+02  0.14667402285E+03  0.12500000000E+03 0.  0.
         25    1    1    2    0    0  0.42744818553E+02 -0.99289134999E+02  0.15144337335E+03  0.22415518547E+03  0.12500000000E+03 0.  0.
</event>
<event>
 5    0  0.5786117E-005  0.2795167E+03  0.7546771E-02  0.1095953E+00
         21   -1    0    0  502  501  0.00000000000E+00  0.00000000000E+00  0.32827678610E+02  0.32827678610E+02  0.00000000000E+00 0.  1.
         21   -1    0    0  501  502 -0.00000000000E+00 -0.00000000000E+00 -0.23799904618E+04  0.23799904618E+04  0.00000000000E+00 0.  1.
         25    1    1    2    0    0  0.49875168490E+02  0.67201908322E+02 -0.47342214832E+03  0.49674657466E+03  0.12500000000E+03 0.  0.
         25    1    1    2    0    0 -0.13866134067E+03 -0.99586800729E+02 -0.14279281136E+04  0.14435193784E+04  0.12500000000E+03 0.  0.
         25    1    1    2    0    0  0.88786172182E+02  0.32384892407E+02 -0.44581252127E+03  0.47255218733E+03  0.12500000000E+03 0.  0.
</event>
<event>
 5    0  0.5786117E-005  0.2923392E+03  0.7546771E-02  0.1089134E+00
         21   -1    0    0  502  501  0.00000000000E+00  0.00000000000E+00  0.25996739909E+03  0.25996739909E+03  0.00000000000E+00 0.  1.
         21   -1    0    0  501  502 -0.00000000000E+00 -0.00000000000E+00 -0.32874193336E+03  0.32874193336E+03  0.00000000000E+00 0.  1.
         25    1    1    2    0    0  0.14531148468E+03 -0.59643966635E+02 -0.89744245734E+02  0.21989056364E+03  0.12500000000E+03 0.  0.
         25    1    1    2    0    0 -0.18872421240E+03  0.92225155754E+01  0.16215614975E+02  0.22713394574E+03  0.12500000000E+03 0.  0.
         25    1    1    2    0    0  0.43412727722E+02  0.50421451059E+02  0.47540964920E+01  0.14168482307E+03  0.12500000000E+03 0.  0.
</event>
<event>
 5    0  0.5786117E-005  0.4340561E+03  0.7546771E-02  0.1032586E+00
         21   -1    0    0  502  501  0.00000000000E+00  0.00000000000E+00  0.70438757096E+03  0.70438757096E+03  0.00000000000E+00 0. -1.
         21   -1    0    0  501  502 -0.00000000000E+00 -0.00000000000E+00 -0.26747300043E+03  0.26747300043E+03  0.00000000000E+00 0. -1.
         25    1    1    2    0    0  0.20620265837E+02 -0.34284674163E+03  0.32998344490E+03  0.49242578884E+03  0.12500000000E+03 0.  0.
         25    1    1    2    0    0 -0.59039153756E+02  0.87755804245E+02 -0.21821125157E+02  0.16519038821E+03  0.12500000000E+03 0.  0.
         25    1    1    2    0    0  0.38418887919E+02  0.25509093738E+03  0.12875225079E+03  0.31424439433E+03  0.12500000000E+03 0.  0.
</event>
<event>
 5    0  0.5786117E-005  0.3678829E+03  0.7546771E-02  0.1055505E+00
         21   -1    0    0  502  501  0.00000000000E+00  0.00000000000E+00  0.72443397510E+02  0.72443397510E+02  0.00000000000E+00 0.  1.
         21   -1    0    0  501  502 -0.00000000000E+00 -0.00000000000E+00 -0.18681869224E+04  0.18681869224E+04  0.00000000000E+00 0.  1.
         25    1    1    2    0    0  0.47026385577E+02  0.50434928139E+02 -0.12389740717E+04  0.12471715653E+04  0.12500000000E+03 0.  0.
         25    1    1    2    0    0 -0.96269478002E+02  0.11807729418E+03 -0.24428898942E+03  0.31386648459E+03  0.12500000000E+03 0.  0.
         25    1    1    2    0    0  0.49243092425E+02 -0.16851222232E+03 -0.31248046370E+03  0.37959226996E+03  0.12500000000E+03 0.  0.
</event>
<event>
 5    0  0.5786117E-005  0.2695156E+03  0.7546771E-02  0.1101557E+00
         21   -1    0    0  502  501  0.00000000000E+00  0.00000000000E+00  0.29072137636E+04  0.29072137636E+04  0.00000000000E+00 0. -1.
         21   -1    0    0  501  502 -0.00000000000E+00 -0.00000000000E+00 -0.24985660147E+02  0.24985660147E+02  0.00000000000E+00 0. -1.
         25    1    1    2    0    0 -0.12187581005E+03  0.11751042849E+03  0.12628425638E+04  0.12802573003E+04  0.12500000000E+03 0.  0.
         25    1    1    2    0    0  0.82915591368E+02 -0.12479592505E+03  0.98736271297E+03  0.10064587151E+04  0.12500000000E+03 0.  0.
         25    1    1    2    0    0  0.38960218680E+02  0.72854965646E+01  0.63202282662E+03  0.64548340836E+03  0.12500000000E+03 0.  0.
</event>
<event>
 5    0  0.5786117E-005  0.2772229E+03  0.7546771E-02  0.1097215E+00
         21   -1    0    0  502  501  0.00000000000E+00  0.00000000000E+00  0.26748576207E+03  0.26748576207E+03  0.00000000000E+00 0.  1.
         21   -1    0    0  501  502 -0.00000000000E+00 -0.00000000000E+00 -0.28731447520E+03  0.28731447520E+03  0.00000000000E+00 0.  1.
         25    1    1    2    0    0 -0.69363772974E+02  0.25201238096E+02  0.61988348328E+02  0.15784166348E+03  0.12500000000E+03 0.  0.
         25    1    1    2    0    0 -0.57594236727E+02  0.70947977944E+02  0.40982049179E+02  0.16017253208E+03  0.12500000000E+03 0.  0.
         25    1    1    2    0    0  0.12695800970E+03 -0.96149216040E+02 -0.12279911064E+03  0.23678604170E+03  0.12500000000E+03 0.  0.
</event>
<event>
 5    0  0.5786117E-005  0.3424218E+03  0.7546771E-02  0.1065769E+00
         21   -1    0    0  502  501  0.00000000000E+00  0.00000000000E+00  0.99244844891E+03  0.99244844891E+03  0.00000000000E+00 0.  1.
         21   -1    0    0  501  502 -0.00000000000E+00 -0.00000000000E+00 -0.11814486340E+03  0.11814486340E+03  0.00000000000E+00 0.  1.
         25    1    1    2    0    0  0.10418050040E+03 -0.18338576974E+03  0.48171037334E+03  0.54051253546E+03  0.12500000000E+03 0.  0.
         25    1    1    2    0    0  0.11473543430E+02 -0.40357703287E+02  0.13592905650E+03  0.18937289884E+03  0.12500000000E+03 0.  0.
         25    1    1    2    0    0 -0.11565404383E+03  0.22374347303E+03  0.25666415568E+03  0.38070787802E+03  0.12500000000E+03 0.  0.
</event>
<event>
 5    0  0.5786117E-005  0.4217046E+03  0.7546771E-02  0.1036513E+00
         21   -1    0    0  502  501  0.00000000000E+00  0.00000000000E+00  0.62235987208E+03  0.62235987208E+03  0.00000000000E+00 0.  1.
         21   -1    0    0  501  502 -0.00000000000E+00 -0.00000000000E+00 -0.28574265024E+03  0.28574265024E+03  0.00000000000E+00 0.  1.
         25    1    1    2    0    0  0.14380719744E+02  0.27227092420E+03  0.69768219720E+02  0.30794620593E+03  0.12500000000E+03 0.  0.
         25    1    1    2    0    0 -0.19220980733E+03 -0.10425605305E+03  0.18811333846E+03  0.31436533323E+03  0.12500000000E+03 0.  0.
         25    1    1    2    0    0  0.17782908758E+03 -0.16801487115E+03  0.78735663660E+02  0.28579098315E+03  0.12500000000E+03 0.  0.
</event>
<event>
 5    0  0.5786117E-005  0.3101669E+03  0.7546771E-02  0.1080266E+00
         21   -1    0    0  502  501  0.00000000000E+00  0.00000000000E+00  0.38347754593E+03  0.38347754593E+03  0.00000000000E+00 0.  1.
         21   -1    0    0  501  502 -0.00000000000E+00 -0.00000000000E+00 -0.25087130581E+03  0.25087130581E+03  0.00000000000E+00 0.  1.
         25    1    1    2    0    0  0.86164746900E+02  0.10510227978E+02  0.19209261343E+03  0.24507019533E+03  0.12500000000E+03 0.  0.
         25    1    1    2    0    0 -0.63924318715E+02  0.12640387787E+03  0.12102961924E+02  0.18930330307E+03  0.12500000000E+03 0.  0.
         25    1    1    2    0    0 -0.22240428185E+02 -0.13691410585E+03 -0.71589335237E+02  0.19997535335E+03  0.12500000000E+03 0.  0.
</event>
<event>
 5    0  0.5786117E-005  0.4226832E+03  0.7546771E-02  0.1036197E+00
         21   -1    0    0  502  501  0.00000000000E+00  0.00000000000E+00  0.11335851324E+04  0.11335851324E+04  0.00000000000E+00 0. -1.
         21   -1    0    0  501  502 -0.00000000000E+00 -0.00000000000E+00 -0.15760713494E+03  0.15760713494E+03  0.00000000000E+00 0. -1.
         25    1    1    2    0    0  0.90531554541E+02 -0.32941672716E+02  0.41702869376E+03  0.44589129571E+03  0.12500000000E+03 0.  0.
         25    1    1    2    0    0 -0.28329282452E+03 -0.14652018606E+03  0.30621274006E+03  0.45947168740E+03  0.12500000000E+03 0.  0.
         25    1    1    2    0    0  0.19276126998E+03  0.17946185878E+03  0.25273656362E+03  0.38582928421E+03  0.12500000000E+03 0.  0.
</event>
<event>
 5    0  0.5786117E-005  0.3516683E+03  0.7546771E-02  0.1061932E+00
         21   -1    0    0  502  501  0.00000000000E+00  0.00000000000E+00  0.20137479072E+03  0.20137479072E+03  0.00000000000E+00 0. -1.
         21   -1    0    0  501  502 -0.00000000000E+00 -0.00000000000E+00 -0.61413134929E+03  0.61413134929E+03  0.00000000000E+00 0.  1.
         25    1    1    2    0    0 -0.18677933597E+01  0.18752826920E+03 -0.11643261994E+02  0.22567876717E+03  0.12500000000E+03 0.  0.
         25    1    1    2    0    0  0.62414328008E+02 -0.24468500048E+03 -0.24823420723E+03  0.37551500561E+03  0.12500000000E+03 0.  0.
         25    1    1    2    0    0 -0.60546534649E+02  0.57156731282E+02 -0.15287908934E+03  0.21431236723E+03  0.12500000000E+03 0.  0.
</event>
<event>
 5    0  0.5786117E-005  0.6326306E+03  0.7546771E-02  0.9839929E-01
         21   -1    0    0  502  501  0.00000000000E+00  0.00000000000E+00  0.20320880768E+04  0.20320880768E+04  0.00000000000E+00 0. -1.
         21   -1    0    0  501  502 -0.00000000000E+00 -0.00000000000E+00 -0.19695085534E+03  0.19695085534E+03  0.00000000000E+00 0. -1.
         25    1    1    2    0    0 -0.11932398721E+03  0.30272169748E+03  0.97714016459E+02  0.36201059247E+03  0.12500000000E+03 0.  0.
         25    1    1    2    0    0  0.13482177718E+03 -0.43566110510E+02  0.14420949495E+04  0.14544200772E+04  0.12500000000E+03 0.  0.
         25    1    1    2    0    0 -0.15497789972E+02 -0.25915558697E+03  0.29532825547E+03  0.41260826243E+03  0.12500000000E+03 0.  0.
</event>
<event>
 5    0  0.5786117E-005  0.3464418E+03  0.7546771E-02  0.1064085E+00
         21   -1    0    0  502  501  0.00000000000E+00  0.00000000000E+00  0.21989781622E+03  0.21989781622E+03  0.00000000000E+00 0.  1.
         21   -1    0    0  501  502 -0.00000000000E+00 -0.00000000000E+00 -0.54580766201E+03  0.54580766201E+03  0.00000000000E+00 0.  1.
         25    1    1    2    0    0  0.13061536055E+03  0.15257576320E+03 -0.18978586409E+03  0.30328766895E+03  0.12500000000E+03 0.  0.
         25    1    1    2    0    0 -0.16241249356E+03 -0.10067324790E+03 -0.20535984185E+03  0.30710028582E+03  0.12500000000E+03 0.  0.
         25    1    1    2    0    0  0.31797133002E+02 -0.51902515300E+02  0.69235860154E+02  0.15531752346E+03  0.12500000000E+03 0.  0.
</event>
<event>
 5    0  0.5786117E-005  0.2537223E+03  0.7546771E-02  0.1110975E+00
         21   -1    0    0  502  501  0.00000000000E+00  0.00000000000E+00  0.35053685774E+03  0.35053685774E+03  0.00000000000E+00 0.  1.
         21   -1    0    0  501  502 -0.00000000000E+00 -0.00000000000E+00 -0.18364696352E+03  0.18364696352E+03  0.00000000000E+00 0.  1.
         25    1    1    2    0    0  0.44490898982E+02 -0.13393029700E+03  0.13468293461E+03  0.23169216089E+03  0.12500000000E+03 0.  0.
         25    1    1    2    0    0 -0.77916024953E+01  0.98501716838E+02  0.48377245780E+02  0.16651923372E+03  0.12500000000E+03 0.  0.
         25    1    1    2    0    0 -0.36699296486E+02  0.35428580157E+02 -0.16170286169E+02  0.13597242665E+03  0.12500000000E+03 0.  0.
</event>
<event>
 5    0  0.5786117E-005  0.3308981E+03  0.7546771E-02  0.1070740E+00
         21   -1    0    0  502  501  0.00000000000E+00  0.00000000000E+00  0.75899022661E+02  0.75899022661E+02  0.00000000000E+00 0. -1.
         21   -1    0    0  501  502 -0.00000000000E+00 -0.00000000000E+00 -0.14426214900E+04  0.14426214900E+04  0.00000000000E+00 0. -1.
         25    1    1    2    0    0  0.11761896983E+01 -0.11641003423E+03 -0.83577629237E+03  0.85305315800E+03  0.12500000000E+03 0.  0.
         25    1    1    2    0    0  0.45937170853E+01  0.19497674491E+03 -0.42371285431E+03  0.48290228432E+03  0.12500000000E+03 0.  0.
         25    1    1    2    0    0 -0.57699067836E+01 -0.78566710677E+02 -0.10723332068E+03  0.18256507036E+03  0.12500000000E+03 0.  0.
</event>
<event>
 5    0  0.5786117E-005  0.2361902E+03  0.7546771E-02  0.1122357E+00
         21   -1    0    0  502  501  0.00000000000E+00  0.00000000000E+00  0.86183528864E+02  0.86183528864E+02  0.00000000000E+00 0.  1.
         21   -1    0    0  501  502 -0.00000000000E+00 -0.00000000000E+00 -0.64729063669E+03  0.64729063669E+03  0.00000000000E+00 0.  1.
         25    1    1    2    0    0 -0.41630378704E+02 -0.80834849358E+02 -0.13066856085E+03  0.20240215932E+03  0.12500000000E+03 0.  0.
         25    1    1    2    0    0  0.14456193587E+01  0.10052361282E+03 -0.32162930973E+03  0.35941271461E+03  0.12500000000E+03 0.  0.
         25    1    1    2    0    0  0.40184759345E+02 -0.19688763460E+02 -0.10880923724E+03  0.17165929162E+03  0.12500000000E+03 0.  0.
</event>
<event>
 5    0  0.5786117E-005  0.2511852E+03  0.7546771E-02  0.1112558E+00
         21   -1    0    0  502  501  0.00000000000E+00  0.00000000000E+00  0.41203904653E+03  0.41203904653E+03  0.00000000000E+00 0.  1.
         21   -1    0    0  501  502 -0.00000000000E+00 -0.00000000000E+00 -0.15312632891E+03  0.15312632891E+03  0.00000000000E+00 0.  1.
         25    1    1    2    0    0 -0.62548513280E+02  0.74595623991E+02  0.17032244505E+03  0.23261891350E+03  0.12500000000E+03 0.  0.
         25    1    1    2    0    0 -0.20514454856E+02 -0.10294529526E+03  0.73671578782E+02  0.17908399760E+03  0.12500000000E+03 0.  0.
         25    1    1    2    0    0  0.83062968136E+02  0.28349671274E+02  0.14918693791E+02  0.15346246434E+03  0.12500000000E+03 0.  0.
</event>
<event>
 5    0  0.5786117E-005  0.2688084E+03  0.7546771E-02  0.1101964E+00
         21   -1    0    0  502  501  0.00000000000E+00  0.00000000000E+00  0.11408671336E+03  0.11408671336E+03  0.00000000000E+00 0.  1.
         21   -1    0    0  501  502 -0.00000000000E+00 -0.00000000000E+00 -0.63336012558E+03  0.63336012558E+03  0.00000000000E+00 0.  1.
         25    1    1    2    0    0  0.10586398625E+01  0.44633286339E+02 -0.39032923806E+02  0.13835396673E+03  0.12500000000E+03 0.  0.
         25    1    1    2    0    0 -0.12413725406E+03  0.89440620043E+01 -0.32062597621E+03  0.36594544773E+03  0.12500000000E+03 0.  0.
         25    1    1    2    0    0  0.12307861420E+03 -0.53577348343E+02 -0.15961451220E+03  0.24314742448E+03  0.12500000000E+03 0.  0.
</event>
<event>
 5    0  0.5786117E-005  0.3681155E+03  0.7546771E-02  0.1055416E+00
         21   -1    0    0  502  501  0.00000000000E+00  0.00000000000E+00  0.23920534813E+04  0.23920534813E+04  0.00000000000E+00 0.  1.
         21   -1    0    0  501  502 -0.00000000000E+00 -0.00000000000E+00 -0.56649650128E+02  0.56649650128E+02  0.00000000000E+00 0.  1.
         25    1    1    2    0    0  0.14764576721E+03  0.10781071697E+01  0.14294730647E+04  0.14425043076E+04  0.12500000000E+03 0.  0.
         25    1    1    2    0    0  0.24099220416E+02  0.77876023712E+02  0.63829458722E+03  0.65550776316E+03  0.12500000000E+03 0.  0.
         25    1    1    2    0    0 -0.17174498762E+03 -0.78954130882E+02  0.26763617930E+03  0.35069106066E+03  0.12500000000E+03 0.  0.
</event>
<event>
 5    0  0.5786117E-005  0.2169123E+03  0.7546771E-02  0.1136206E+00
         21   -1    0    0  502  501  0.00000000000E+00  0.00000000000E+00  0.94011211709E+02  0.94011211709E+02  0.00000000000E+00 0. -1.
         21   -1    0    0  501  502 -0.00000000000E+00 -0.00000000000E+00 -0.50048250525E+03  0.50048250525E+03  0.00000000000E+00 0. -1.
         25    1    1    2    0    0 -0.84194341731E+01 -0.65861849297E+02 -0.20599618833E+03  0.24993619120E+03  0.12500000000E+03 0.  0.
         25    1    1    2    0    0  0.91994742919E+01  0.80205871706E+01 -0.15502541965E+03  0.19951651782E+03  0.12500000000E+03 0.  0.
         25    1    1    2    0    0 -0.78004011875E+00  0.57841262126E+02 -0.45449685565E+02  0.14504100794E+03  0.12500000000E+03 0.  0.
</event>
<event>
 5    0  0.5786117E-005  0.3314632E+03  0.7546771E-02  0.1070491E+00
         21   -1    0    0  502  501  0.00000000000E+00  0.00000000000E+00  0.36328342972E+03  0.36328342972E+03  0.00000000000E+00 0.  1.
         21   -1    0    0  501  502 -0.00000000000E+00 -0.00000000000E+00 -0.30243014567E+03  0.30243014567E+03  0.00000000000E+00 0.  1.
         25    1    1    2    0    0 -0.75377494015E+02 -0.25388304552E+02 -0.12859091449E+03  0.19618092644E+03  0.12500000000E+03 0.  0.
         25    1    1    2    0    0  0.15288458490E+03 -0.11189841830E+03  0.81205371700E+02  0.24106900404E+03  0.12500000000E+03 0.  0.
         25    1    1    2    0    0 -0.77507090881E+02  0.13728672286E+03  0.10823882683E+03  0.22846364491E+03  0.12500000000E+03 0.  0.
</event>
<event>
 5    0  0.5786117E-005  0.3629572E+03  0.7546771E-02  0.1057419E+00
         21   -1    0    0  502  501  0.00000000000E+00  0.00000000000E+00  0.88179531203E+03  0.88179531203E+03  0.00000000000E+00 0. -1.
         21   -1    0    0  501  502 -0.00000000000E+00 -0.00000000000E+00 -0.14939740502E+03  0.14939740502E+03  0.00000000000E+00 0. -1.
         25    1    1    2    0    0  0.15148040477E+02  0.14748666583E+03  0.33377762848E+03  0.38602368451E+03  0.12500000000E+03 0.  0.
         25    1    1    2    0    0 -0.66497614541E+02 -0.12367088384E+03  0.45843231717E+03  0.49548119003E+03  0.12500000000E+03 0.  0.
         25    1    1    2    0    0  0.51349574064E+02 -0.23815781983E+02 -0.59812038644E+02  0.14968784251E+03  0.12500000000E+03 0.  0.
</event>
<event>
 5    0  0.5786117E-005  0.3923037E+03  0.7546771E-02  0.1046478E+00
         21   -1    0    0  502  501  0.00000000000E+00  0.00000000000E+00  0.89956614830E+02  0.89956614830E+02  0.00000000000E+00 0.  1.
         21   -1    0    0  501  502 -0.00000000000E+00 -0.00000000000E+00 -0.17108486685E+04  0.17108486685E+04  0.00000000000E+00 0.  1.
         25    1    1    2    0    0 -0.39795417592E+02  0.10848667679E+03 -0.14063757486E+03  0.22080978639E+03  0.12500000000E+03 0.  0.
         25    1    1    2    0    0  0.18420270013E+03  0.24424322426E+02 -0.28580961220E+03  0.36309684202E+03  0.12500000000E+03 0.  0.
         25    1    1    2    0    0 -0.14440728254E+03 -0.13291099922E+03 -0.11944448666E+04  0.12168986549E+04  0.12500000000E+03 0.  0.
</event>
<event>
 5    0  0.5786117E-005  0.3320480E+03  0.7546771E-02  0.1070234E+00
         21   -1    0    0  502  501  0.00000000000E+00  0.00000000000E+00  0.93614254199E+03  0.93614254199E+03  0.00000000000E+00 0.  1.
         21   -1    0    0  501  502 -0.00000000000E+00 -0.00000000000E+00 -0.11777681572E+03  0.11777681572E+03  0.00000000000E+00 0.  1.
         25    1    1    2    0    0  0.14319065440E+03 -0.55280503410E+02  0.16048176803E+02  0.19860020530E+03  0.12500000000E+03 0.  0.
         25    1    1    2    0    0 -0.91768081295E+02  0.33454945976E+02  0.39808066282E+03  0.42852517810E+03  0.12500000000E+03 0.  0.
         25    1    1    2    0    0 -0.51422573105E+02  0.21825557434E+02  0.40423688665E+03  0.42679397431E+03  0.12500000000E+03 0.  0.
</event>
<event>
 5    0  0.5786117E-005  0.2343309E+03  0.7546771E-02  0.1123628E+00
         21   -1    0    0  502  501  0.00000000000E+00  0.00000000000E+00  0.23288501248E+03  0.23288501248E+03  0.00000000000E+00 0.  1.
         21   -1    0    0  501  502 -0.00000000000E+00 -0.00000000000E+00 -0.23578583817E+03  0.23578583817E+03  0.00000000000E+00 0.  1.
         25    1    1    2    0    0  0.26734725515E+02  0.41554242828E+02  0.56454270800E+02  0.14578609446E+03  0.12500000000E+03 0.  0.
         25    1    1    2    0    0  0.24548638909E+01 -0.47981186180E+01 -0.12257434514E+03  0.17515284293E+03  0.12500000000E+03 0.  0.
         25    1    1    2    0    0 -0.29189589406E+02 -0.36756124210E+02  0.63219248651E+02  0.14773191326E+03  0.12500000000E+03 0.  0.
</event>
<event>
 5    0  0.5786117E-005  0.4303382E+03  0.7546771E-02  0.1033753E+00
         21   -1    0    0  502  501  0.00000000000E+00  0.00000000000E+00  0.95114560648E+03  0.95114560648E+03  0.00000000000E+00 0.  1.
         21   -1    0    0  501  502 -0.00000000000E+00 -0.00000000000E+00 -0.19470303960E+03  0.19470303960E+03  0.00000000000E+00 0.  1.
         25    1    1    2    0    0  0.14037819839E+03  0.10626522146E+03  0.36209026046E+03  0.42158355352E+03  0.12500000000E+03 0.  0.
         25    1    1    2    0    0  0.14137677765E+03  0.10628317962E+03  0.66410316805E+02  0.22653661450E+03  0.12500000000E+03 0.  0.
         25    1    1    2    0    0 -0.28175497604E+03 -0.21254840108E+03  0.32794198961E+03  0.49772847806E+03  0.12500000000E+03 0.  0.
</event>
<event>
 5    0  0.5786117E-005  0.3567033E+03  0.7546771E-02  0.1059897E+00
         21   -1    0    0  502  501  0.00000000000E+00  0.00000000000E+00  0.74178443847E+03  0.74178443847E+03  0.00000000000E+00 0. -1.
         21   -1    0    0  501  502 -0.00000000000E+00 -0.00000000000E+00 -0.17152863037E+03  0.17152863037E+03  0.00000000000E+00 0. -1.
         25    1    1    2    0    0  0.72630292678E+02  0.13295817564E+02 -0.18441364148E+02  0.14634555713E+03  0.12500000000E+03 0.  0.
         25    1    1    2    0    0 -0.90873674182E+01  0.19665030177E+03  0.22354212448E+03  0.32303251052E+03  0.12500000000E+03 0.  0.
         25    1    1    2    0    0 -0.63542925260E+02 -0.20994611934E+03  0.36515504777E+03  0.44393500120E+03  0.12500000000E+03 0.  0.
</event>
<event>
 5    0  0.5786117E-005  0.3630572E+03  0.7546771E-02  0.1057380E+00
         21   -1    0    0  502  501  0.00000000000E+00  0.00000000000E+00  0.36669759979E+03  0.36669759979E+03  0.00000000000E+00 0.  1.
         21   -1    0    0  501  502 -0.00000000000E+00 -0.00000000000E+00 -0.35945285931E+03  0.35945285931E+03  0.00000000000E+00 0.  1.
         25    1    1    2    0    0  0.74142695668E+02  0.34881576255E+02  0.40861511107E+01  0.14951775919E+03  0.12500000000E+03 0.  0.
         25    1    1    2    0    0 -0.17442789764E+03  0.13727354301E+03  0.15356763138E+03  0.29745106235E+03  0.12500000000E+03 0.  0.
         25    1    1    2    0    0  0.10028520197E+03 -0.17215511927E+03 -0.15040904202E+03  0.27918163755E+03  0.12500000000E+03 0.  0.
</event>
<event>
 5    0  0.5786117E-005  0.3428699E+03  0.7546771E-02  0.1065580E+00
         21   -1    0    0  502  501  0.00000000000E+00  0.00000000000E+00  0.37185177849E+03  0.37185177849E+03  0.00000000000E+00 0. -1.
         21   -1    0    0  501  502 -0.00000000000E+00 -0.00000000000E+00 -0.31614691393E+03  0.31614691393E+03  0.00000000000E+00 0. -1.
         25    1    1    2    0    0  0.20342436493E+03  0.11760585213E+03  0.58984661948E+02  0.27261107654E+03  0.12500000000E+03 0.  0.
         25    1    1    2    0    0 -0.10447861065E+03 -0.10871877082E+03  0.10522945098E+03  0.22233710569E+03  0.12500000000E+03 0.  0.
         25    1    1    2    0    0 -0.98945754284E+02 -0.88870813096E+01 -0.10850924836E+03  0.19305051019E+03  0.12500000000E+03 0.  0.
</event>
<event>
 5    0  0.5786117E-005  0.3660276E+03  0.7546771E-02  0.1056222E+00
         21   -1    0    0  502  501  0.00000000000E+00  0.00000000000E+00  0.25324093176E+03  0.25324093176E+03  0.00000000000E+00 0.  1.
         21   -1    0    0  501  502 -0.00000000000E+00 -0.00000000000E+00 -0.52904629355E+03  0.52904629355E+03  0.00000000000E+00 0.  1.
         25    1    1    2    0    0 -0.16628539001E+03 -0.36540592840E+02  0.40509795297E+01  0.21125211547E+03  0.12500000000E+03 0.  0.
         25    1    1    2    0    0 -0.11608024947E+03  0.41248046820E+02 -0.16690698699E+03  0.24219613538E+03  0.12500000000E+03 0.  0.
         25    1    1    2    0    0  0.28236563948E+03 -0.47074539795E+01 -0.11294935432E+03  0.32883897446E+03  0.12500000000E+03 0.  0.
</event>
<event>
 5    0  0.7527987E-005  0.6479732E+03  0.7546771E-02  0.9810590E-01
         21   -1    0    0  502  501  0.00000000000E+00  0.00000000000E+00  0.10858290866E+04  0.10858290866E+04  0.00000000000E+00 0.  1.
         21   -1    0    0  501  502 -0.00000000000E+00 -0.00000000000E+00 -0.38668079329E+03  0.38668079329E+03  0.00000000000E+00 0.  1.
         25    1    1    2    0    0 -0.22411899813E+03  0.10670387645E+03  0.46746932677E+03  0.54384521147E+03  0.12500000000E+03 0.  0.
         25    1    1    2    0    0  0.45899443838E+03 -0.27558349639E+03  0.26768691055E+03  0.61147644274E+03  0.12500000000E+03 0.  0.
         25    1    1    2    0    0 -0.23487544025E+03  0.16887961994E+03 -0.36007944033E+02  0.31718822566E+03  0.12500000000E+03 0.  0.
</event>
<event>
 5    0  0.5786117E-005  0.3948074E+03  0.7546771E-02  0.1045593E+00
         21   -1    0    0  502  501  0.00000000000E+00  0.00000000000E+00  0.10049130632E+04  0.10049130632E+04  0.00000000000E+00 0.  1.
         21   -1    0    0  501  502 -0.00000000000E+00 -0.00000000000E+00 -0.15511080451E+03  0.15511080451E+03  0.00000000000E+00 0.  1.
         25    1    1    2    0    0 -0.37456586178E+02 -0.94839065608E+02  0.30197336569E+03  0.34235998276E+03  0.12500000000E+03 0.  0.
         25    1    1    2    0    0  0.76610912745E+02 -0.14442882957E+03  0.13432087604E+00  0.20580072110E+03  0.12500000000E+03 0.  0.
         25    1    1    2    0    0 -0.39154326567E+02  0.23926789517E+03  0.54769457212E+03  0.61186316386E+03  0.12500000000E+03 0.  0.
</event>
<event>
 5    0  0.5786117E-005  0.2669680E+03  0.7546771E-02  0.1103028E+00
         21   -1    0    0  502  501  0.00000000000E+00  0.00000000000E+00  0.95325115045E+02  0.95325115045E+02  0.00000000000E+00 0.  1.
         21   -1    0    0  501  502 -0.00000000000E+00 -0.00000000000E+00 -0.74767187478E+03  0.74767187478E+03  0.00000000000E+00 0.  1.
         25    1    1    2    0    0 -0.35243656468E+02 -0.99874951012E+02 -0.38300201901E+03  0.41657252397E+03  0.12500000000E+03 0.  0.
         25    1    1    2    0    0 -0.82153698607E+01  0.11861037540E+03 -0.69465680626E+02  0.18597417627E+03  0.12500000000E+03 0.  0.
         25    1    1    2    0    0  0.43459026329E+02 -0.18735424386E+02 -0.19987906009E+03  0.24045028958E+03  0.12500000000E+03 0.  0.
</event>
<event>
 5    0  0.5786117E-005  0.2114178E+03  0.7546771E-02  0.1140448E+00
         21   -1    0    0  502  501  0.00000000000E+00  0.00000000000E+00  0.14152381993E+03  0.14152381993E+03  0.00000000000E+00 0.  1.
         21   -1    0    0  501  502 -0.00000000000E+00 -0.00000000000E+00 -0.31583017544E+03  0.31583017544E+03  0.00000000000E+00 0.  1.
         25    1    1    2    0    0 -0.32029466014E+02 -0.68038980313E+02 -0.61159612369E+02  0.15817928980E+03  0.12500000000E+03 0.  0.
         25    1    1    2    0    0  0.50294443237E+02  0.35396715178E+02 -0.92122881143E+02  0.16701521995E+03  0.12500000000E+03 0.  0.
         25    1    1    2    0    0 -0.18264977223E+02  0.32642265135E+02 -0.21023862005E+02  0.13215948562E+03  0.12500000000E+03 0.  0.
</event>
<event>
 5    0  0.5786117E-005  0.4305454E+03  0.7546771E-02  0.1033688E+00
         21   -1    0    0  502  501  0.00000000000E+00  0.00000000000E+00  0.18087619711E+04  0.18087619711E+04  0.00000000000E+00 0.  1.
         21   -1    0    0  501  502 -0.00000000000E+00 -0.00000000000E+00 -0.10248411343E+03  0.10248411343E+03  0.00000000000E+00 0.  1.
         25    1    1    2    0    0  0.17829401095E+03  0.24707073947E+03  0.91660961574E+03  0.97397684383E+03  0.12500000000E+03 0.  0.
         25    1    1    2    0    0 -0.90736573422E+01 -0.17270734707E+03  0.15283750062E+03  0.26247754301E+03  0.12500000000E+03 0.  0.
         25    1    1    2    0    0 -0.16922035360E+03 -0.74363392406E+02  0.63683074129E+03  0.67479169768E+03  0.12500000000E+03 0.  0.
</event>
<event>
 5    0  0.5786117E-005  0.2405878E+03  0.7546771E-02  0.1119402E+00
         21   -1    0    0  502  501  0.00000000000E+00  0.00000000000E+00  0.53724007535E+02  0.53724007535E+02  0.00000000000E+00 0.  1.
         21   -1    0    0  501  502 -0.00000000000E+00 -0.00000000000E+00 -0.10774041280E+04  0.10774041280E+04  0.00000000000E+00 0.  1.
         25    1    1    2    0    0  0.30377297153E+02  0.11168199001E+03 -0.55511463160E+03  0.58066591195E+03  0.12500000000E+03 0.  0.
         25    1    1    2    0    0  0.21449636744E+02 -0.56602031817E+02 -0.27358523779E+03  0.30681877267E+03  0.12500000000E+03 0.  0.
         25    1    1    2    0    0 -0.51826933897E+02 -0.55079958191E+02 -0.19498025107E+03  0.24364345093E+03  0.12500000000E+03 0.  0.
</event>
<event>
 5    0  0.5786117E-005  0.2322555E+03  0.7546771E-02  0.1125062E+00
         21   -1    0    0  502  501  0.00000000000E+00  0.00000000000E+00  0.91541176027E+02  0.91541176027E+02  0.00000000000E+00 0.  1.
         21   -1    0    0  501  502 -0.00000000000E+00 -0.00000000000E+00 -0.58927140803E+03  0.58927140803E+03  0.00000000000E+00 0.  1.
         25    1    1    2    0    0  0.54106130810E+02 -0.41614455622E+02 -0.93576534175E+02  0.17041362638E+03  0.12500000000E+03 0.  0.
         25    1    1    2    0    0  0.57953832232E+01 -0.94805429324E+01 -0.66905657295E+02  0.14221404340E+03  0.12500000000E+03 0.  0.
         25    1    1    2    0    0 -0.59901514033E+02  0.51094998554E+02 -0.33724804053E+03  0.36818491428E+03  0.12500000000E+03 0.  0.
</event>
<event>
 5    0  0.6110765E-005  0.3173609E+03  0.7546771E-02  0.1076870E+00
         21   -1    0    0  502  501  0.00000000000E+00  0.00000000000E+00  0.54169521393E+03  0.54169521393E+03  0.00000000000E+00 0. -1.
         21   -1    0    0  501  502 -0.00000000000E+00 -0.00000000000E+00 -0.18593105499E+03  0.18593105499E+03  0.00000000000E+00 0. -1.
         25    1    1    2    0    0 -0.26410543714E+02 -0.16469950787E+02  0.24091271598E+03  0.27318988418E+03  0.12500000000E+03 0.  0.
         25    1    1    2    0    0 -0.16377391704E+03  0.43272241591E+02  0.55907284787E+02  0.21781874871E+03  0.12500000000E+03 0.  0.
         25    1    1    2    0    0  0.19018446075E+03 -0.26802290805E+02  0.58944158177E+02  0.23661763605E+03  0.12500000000E+03 0.  0.
</event>
<event>
 5    0  0.5786117E-005  0.2435349E+03  0.7546771E-02  0.1117460E+00
         21   -1    0    0  502  501  0.00000000000E+00  0.00000000000E+00  0.47287574165E+03  0.47287574165E+03  0.00000000000E+00 0.  1.
         21   -1    0    0  501  502 -0.00000000000E+00 -0.00000000000E+00 -0.12542245091E+03  0.12542245091E+03  0.00000000000E+00 0.  1.
         25    1    1    2    0    0 -0.11968729412E+03  0.73250789521E+02  0.86472808111E+02  0.20686535012E+03  0.12500000000E+03 0.  0.
         25    1    1    2    0    0  0.30678653333E+02 -0.28825228756E+02  0.11339300957E+03  0.17393978327E+03  0.12500000000E+03 0.  0.
         25    1    1    2    0    0  0.89008640784E+02 -0.44425560765E+02  0.14758747306E+03  0.21749305917E+03  0.12500000000E+03 0.  0.
</event>
<event>
 5    0  0.5786117E-005  0.2761047E+03  0.7546771E-02  0.1097836E+00
         21   -1    0    0  502  501  0.00000000000E+00  0.00000000000E+00  0.24849574374E+03  0.24849574374E+03  0.00000000000E+00 0.  1.
         21   -1    0    0  501  502 -0.00000000000E+00 -0.00000000000E+00 -0.30678119203E+03  0.30678119203E+03  0.00000000000E+00 0.  1.
         25    1    1    2    0    0  0.85302645870E+02  0.30856616269E+02  0.76934521334E+02  0.17254736374E+03  0.12500000000E+03 0.  0.
         25    1    1    2    0    0 -0.12757467326E+03  0.59223173496E+01  0.15117889971E+02  0.17934302801E+03  0.12500000000E+03 0.  0.
         25    1    1    2    0    0  0.42272027389E+02 -0.36778933619E+02 -0.15033785960E+03  0.20338654401E+03  0.12500000000E+03 0.  0.
</event>
<event>
 5    0  0.5816390E-005  0.2729654E+03  0.7546771E-02  0.1099594E+00
         21   -1    0    0  502  501  0.00000000000E+00  0.00000000000E+00  0.54967053258E+03  0.54967053258E+03  0.00000000000E+00 0.  1.
         21   -1    0    0  501  502 -0.00000000000E+00 -0.00000000000E+00 -0.13555408928E+03  0.13555408928E+03  0.00000000000E+00 0.  1.
         25    1    1    2    0    0  0.84672263572E+02 -0.65054881524E+02  0.29938710343E+03  0.34155404774E+03  0.12500000000E+03 0.  0.
         25    1    1    2    0    0  0.40875110414E+02  0.25282673133E+02  0.10558805033E+02  0.13433717496E+03  0.12500000000E+03 0.  0.
         25    1    1    2    0    0 -0.12554737399E+03  0.39772208391E+02  0.10417053484E+03  0.20933339916E+03  0.12500000000E+03 0.  0.
</event>
<event>
 5    0  0.5786117E-005  0.3522965E+03  0.7546771E-02  0.1061676E+00
         21   -1    0    0  502  501  0.00000000000E+00  0.00000000000E+00  0.34335203196E+03  0.34335203196E+03  0.00000000000E+00 0.  1.
         21   -1    0    0  501  502 -0.00000000000E+00 -0.00000000000E+00 -0.36147398000E+03  0.36147398000E+03  0.00000000000E+00 0.  1.
         25    1    1    2    0    0 -0.12351529269E+03  0.13642758699E+03 -0.99056850765E+01  0.22269179737E+03  0.12500000000E+03 0.  0.
         25    1    1    2    0    0  0.18595319373E+03 -0.22335088837E+03  0.10313144460E+02  0.31653683916E+03  0.12500000000E+03 0.  0.
         25    1    1    2    0    0 -0.62437901044E+02  0.86923301383E+02 -0.18529407429E+02  0.16559737543E+03  0.12500000000E+03 0.  0.
</event>
<event>
 5    0  0.5786117E-005  0.2993565E+03  0.7546771E-02  0.1085563E+00
         21   -1    0    0  502  501  0.00000000000E+00  0.00000000000E+00  0.76012130952E+03  0.76012130952E+03  0.00000000000E+00 0. -1.
         21   -1    0    0  501  502 -0.00000000000E+00 -0.00000000000E+00 -0.11789471455E+03  0.11789471455E+03  0.00000000000E+00 0. -1.
         25    1    1    2    0    0 -0.14896945800E+03 -0.57343342950E+01  0.35675320534E+03  0.40635284117E+03  0.12500000000E+03 0.  0.
         25    1    1    2    0    0  0.14801165932E+02  0.17843517870E+02  0.25560825570E+03  0.28547862622E+03  0.12500000000E+03 0.  0.
         25    1    1    2    0    0  0.13416829207E+03 -0.12109183575E+02  0.29865133930E+02  0.18618455669E+03  0.12500000000E+03 0.  0.
</event>
<event>
 5    0  0.5786117E-005  0.3822566E+03  0.7546771E-02  0.1050103E+00
         21   -1    0    0  502  501  0.00000000000E+00  0.00000000000E+00  0.66615541554E+03  0.66615541554E+03  0.00000000000E+00 0. -1.
         21   -1    0    0  501  502 -0.00000000000E+00 -0.00000000000E+00 -0.21934839843E+03  0.21934839843E+03  0.00000000000E+00 0. -1.
         25    1    1    2    0    0  0.21567243329E+02 -0.19727810344E+03  0.29314606352E+03  0.37542430747E+03  0.12500000000E+03 0.  0.
         25    1    1    2    0    0 -0.11183065013E+03 -0.66308626974E+02  0.44277447542E+02  0.18571058312E+03  0.12500000000E+03 0.  0.
         25    1    1    2    0    0  0.90263406806E+02  0.26358673041E+03  0.10938350605E+03  0.32436892338E+03  0.12500000000E+03 0.  0.
</event>
<event>
 5    0  0.5786117E-005  0.2839782E+03  0.7546771E-02  0.1093536E+00
         21   -1    0    0  502  501  0.00000000000E+00  0.00000000000E+00  0.24416436797E+03  0.24416436797E+03  0.00000000000E+00 0. -1.
         21   -1    0    0  501  502 -0.00000000000E+00 -0.00000000000E+00 -0.33028418959E+03  0.33028418959E+03  0.00000000000E+00 0. -1.
         25    1    1    2    0    0  0.11497156597E+03  0.84676294413E+02 -0.65046776797E+02  0.20061061534E+03  0.12500000000E+03 0.  0.
         25    1    1    2    0    0  0.18927710650E+02 -0.12780380758E+03 -0.41646855742E+02  0.18453057214E+03  0.12500000000E+03 0.  0.
         25    1    1    2    0    0 -0.13389927662E+03  0.43127513163E+02  0.20573810924E+02  0.18930737008E+03  0.12500000000E+03 0.  0.
</event>
<event>
 5    0  0.5786117E-005  0.2813962E+03  0.7546771E-02  0.1094929E+00
         21   -1    0    0  502  501  0.00000000000E+00  0.00000000000E+00  0.94582199459E+02  0.94582199459E+02  0.00000000000E+00 0.  1.
         21   -1    0    0  501  502 -0.00000000000E+00 -0.00000000000E+00 -0.83719560067E+03  0.83719560067E+03  0.00000000000E+00 0.  1.
         25    1    1    2    0    0 -0.35036485799E+02 -0.14326263910E+02 -0.12226996605E+03  0.17890707580E+03  0.12500000000E+03 0.  0.
         25    1    1    2    0    0  0.21215430024E+02  0.50026352999E+02 -0.19163388337E+02  0.13764071316E+03  0.12500000000E+03 0.  0.
         25    1    1    2    0    0  0.13821055775E+02 -0.35700089089E+02 -0.60118004683E+03  0.61523001117E+03  0.12500000000E+03 0.  0.
</event>
<event>
 5    0  0.5786117E-005  0.2628031E+03  0.7546771E-02  0.1105471E+00
         21   -1    0    0  502  501  0.00000000000E+00  0.00000000000E+00  0.38440620585E+03  0.38440620585E+03  0.00000000000E+00 0. -1.
         21   -1    0    0  501  502 -0.00000000000E+00 -0.00000000000E+00 -0.17966792637E+03  0.17966792637E+03  0.00000000000E+00 0. -1.
         25    1    1    2    0    0  0.19707659245E+02 -0.10899419450E+03  0.66239993852E+02  0.17966875925E+03  0.12500000000E+03 0.  0.
         25    1    1    2    0    0  0.65466908827E+02  0.73656796128E+01 -0.20229753334E+02  0.14273896562E+03  0.12500000000E+03 0.  0.
         25    1    1    2    0    0 -0.85174568072E+02  0.10162851488E+03  0.15872803896E+03  0.24166640734E+03  0.12500000000E+03 0.  0.
</event>
<event>
 5    0  0.5786117E-005  0.6169184E+03  0.7546771E-02  0.9870914E-01
         21   -1    0    0  502  501  0.00000000000E+00  0.00000000000E+00  0.16766086765E+04  0.16766086765E+04  0.00000000000E+00 0.  1.
         21   -1    0    0  501  502 -0.00000000000E+00 -0.00000000000E+00 -0.22699886064E+03  0.22699886064E+03  0.00000000000E+00 0.  1.
         25    1    1    2    0    0  0.21818860602E+03 -0.13653197395E+02  0.45378570774E+03  0.51897894576E+03  0.12500000000E+03 0.  0.
         25    1    1    2    0    0  0.21144826338E+03  0.20334183887E+03  0.52087210958E+02  0.32310423870E+03  0.12500000000E+03 0.  0.
         25    1    1    2    0    0 -0.42963686941E+03 -0.18968864147E+03  0.94373689720E+03  0.10615243527E+04  0.12500000000E+03 0.  0.
</event>
<event>
 5    0  0.5786117E-005  0.3203473E+03  0.7546771E-02  0.1075490E+00
         21   -1    0    0  502  501  0.00000000000E+00  0.00000000000E+00  0.30732343484E+03  0.30732343484E+03  0.00000000000E+00 0.  1.
         21   -1    0    0  501  502 -0.00000000000E+00 -0.00000000000E+00 -0.33392317143E+03  0.33392317143E+03  0.00000000000E+00 0.  1.
         25    1    1    2    0    0  0.15024639072E+02 -0.14589230842E+03 -0.10137122647E+03  0.21774166113E+03  0.12500000000E+03 0.  0.
         25    1    1    2    0    0  0.10041225115E+02  0.15116606214E+03  0.17358192265E+03  0.26212151460E+03  0.12500000000E+03 0.  0.
         25    1    1    2    0    0 -0.25065864187E+02 -0.52737537192E+01 -0.98810432769E+02  0.16138343053E+03  0.12500000000E+03 0.  0.
</event>
<event>
 5    0  0.5786117E-005  0.2342105E+03  0.7546771E-02  0.1123711E+00
         21   -1    0    0  502  501  0.00000000000E+00  0.00000000000E+00  0.41346414100E+03  0.41346414100E+03  0.00000000000E+00 0. -1.
         21   -1    0    0  501  502 -0.00000000000E+00 -0.00000000000E+00 -0.13267069921E+03  0.13267069921E+03  0.00000000000E+00 0. -1.
         25    1    1    2    0    0  0.36798080952E+02 -0.21872464105E+02  0.17998598490E+03  0.22327664054E+03  0.12500000000E+03 0.  0.
         25    1    1    2    0    0  0.27883127898E+02  0.80380561333E+02  0.73063125313E+02  0.16793368853E+03  0.12500000000E+03 0.  0.
         25    1    1    2    0    0 -0.64681208850E+02 -0.58508097228E+02  0.27744331570E+02  0.15492451115E+03  0.12500000000E+03 0.  0.
</event>
<event>
 5    0  0.5786117E-005  0.3604913E+03  0.7546771E-02  0.1058389E+00
         21   -1    0    0  502  501  0.00000000000E+00  0.00000000000E+00  0.21400036802E+03  0.21400036802E+03  0.00000000000E+00 0.  1.
         21   -1    0    0  501  502 -0.00000000000E+00 -0.00000000000E+00 -0.60726053647E+03  0.60726053647E+03  0.00000000000E+00 0.  1.
         25    1    1    2    0    0  0.24016944467E+03  0.89137613838E+02 -0.17854074198E+02  0.28560574980E+03  0.12500000000E+03 0.  0.
         25    1    1    2    0    0 -0.14893337353E+03 -0.50190873649E+02 -0.29526750216E+03  0.35708286347E+03  0.12500000000E+03 0.  0.
         25    1    1    2    0    0 -0.91236071139E+02 -0.38946740189E+02 -0.80138592093E+02  0.17857229122E+03  0.12500000000E+03 0.  0.
</event>
<event>
 5    0  0.5786117E-005  0.3723199E+03  0.7546771E-02  0.1053809E+00
         21   -1    0    0  502  501  0.00000000000E+00  0.00000000000E+00  0.15089155934E+03  0.15089155934E+03  0.00000000000E+00 0. -1.
         21   -1    0    0  501  502 -0.00000000000E+00 -0.00000000000E+00 -0.91868704240E+03  0.91868704240E+03  0.00000000000E+00 0. -1.
         25    1    1    2    0    0  0.14267870259E+03 -0.67342427899E+02 -0.45728107820E+03  0.49962305716E+03  0.12500000000E+03 0.  0.
         25    1    1    2    0    0 -0.20116782247E+03 -0.10337580719E+03 -0.16718149511E+03  0.30778190755E+03  0.12500000000E+03 0.  0.
         25    1    1    2    0    0  0.58489119876E+02  0.17071823509E+03 -0.14333290976E+03  0.26217363703E+03  0.12500000000E+03 0.  0.
</event>
<event>
 5    0  0.5786117E-005  0.3687569E+03  0.7546771E-02  0.1055169E+00
         21   -1    0    0  502  501  0.00000000000E+00  0.00000000000E+00  0.30715674286E+03  0.30715674286E+03  0.00000000000E+00 0. -1.
         21   -1    0    0  501  502 -0.00000000000E+00 -0.00000000000E+00 -0.44271088573E+03  0.44271088573E+03  0.00000000000E+00 0. -1.
         25    1    1    2    0    0 -0.12229297519E+03  0.16859914211E+03  0.14148491211E+03  0.28111247368E+03  0.12500000000E+03 0.  0.
         25    1    1    2    0    0  0.80639563417E+02  0.17736709196E+02 -0.10433669494E+03  0.18256088286E+03  0.12500000000E+03 0.  0.
         25    1    1    2    0    0  0.41653411771E+02 -0.18633585131E+03 -0.17270236004E+03  0.28619427205E+03  0.12500000000E+03 0.  0.
</event>
<event>
 5    0  0.5786117E-005  0.4625923E+03  0.7546771E-02  0.1024032E+00
         21   -1    0    0  502  501  0.00000000000E+00  0.00000000000E+00  0.12588992456E+03  0.12588992456E+03  0.00000000000E+00 0.  1.
         21   -1    0    0  501  502 -0.00000000000E+00 -0.00000000000E+00 -0.16998313661E+04  0.16998313661E+04  0.00000000000E+00 0.  1.
         25    1    1    2    0    0  0.10317997303E+02  0.14732715234E+03 -0.35196385858E+01  0.19351779955E+03  0.12500000000E+03 0.  0.
         25    1    1    2    0    0  0.15480404011E+03 -0.26984735679E+02 -0.60216818256E+03  0.63476293755E+03  0.12500000000E+03 0.  0.
         25    1    1    2    0    0 -0.16512203741E+03 -0.12034241667E+03 -0.96825362042E+03  0.99744055359E+03  0.12500000000E+03 0.  0.
</event>
<event>
 5    0  0.5786117E-005  0.3016394E+03  0.7546771E-02  0.1084424E+00
         21   -1    0    0  502  501  0.00000000000E+00  0.00000000000E+00  0.66370858099E+02  0.66370858099E+02  0.00000000000E+00 0.  1.
         21   -1    0    0  501  502 -0.00000000000E+00 -0.00000000000E+00 -0.13708777365E+04  0.13708777365E+04  0.00000000000E+00 0. -1.
         25    1    1    2    0    0  0.13221292080E+03  0.94047986686E+02 -0.61080225673E+03  0.64422796979E+03  0.12500000000E+03 0.  0.
         25    1    1    2    0    0  0.38423327351E+02  0.12615150544E+02 -0.14674204165E+03  0.19696121673E+03  0.12500000000E+03 0.  0.
         25    1    1    2    0    0 -0.17063624815E+03 -0.10666313723E+03 -0.54696258006E+03  0.59605940812E+03  0.12500000000E+03 0.  0.
</event>
<event>
 5    0  0.5786117E-005  0.5185793E+03  0.7546771E-02  0.1009040E+00
         21   -1    0    0  502  501  0.00000000000E+00  0.00000000000E+00  0.27717443770E+03  0.27717443770E+03  0.00000000000E+00 0.  1.
         21   -1    0    0  501  502 -0.00000000000E+00 -0.00000000000E+00 -0.97023546631E+03  0.97023546631E+03  0.00000000000E+00 0.  1.
         25    1    1    2    0    0  0.94822988564E+02  0.10517279994E+03 -0.27712519671E+03  0.33537455428E+03  0.12500000000E+03 0.  0.
         25    1    1    2    0    0 -0.22948970693E+03  0.27963013126E+03 -0.16097178600E+03  0.41520531281E+03  0.12500000000E+03 0.  0.
         25    1    1    2    0    0  0.13466671836E+03 -0.38480293120E+03 -0.25496404589E+03  0.49683003693E+03  0.12500000000E+03 0.  0.
</event>
<event>
 5    0  0.5786117E-005  0.2753957E+03  0.7546771E-02  0.1098231E+00
         21   -1    0    0  502  501  0.00000000000E+00  0.00000000000E+00  0.49495117107E+03  0.49495117107E+03  0.00000000000E+00 0. -1.
         21   -1    0    0  501  502 -0.00000000000E+00 -0.00000000000E+00 -0.15323282793E+03  0.15323282793E+03  0.00000000000E+00 0. -1.
         25    1    1    2    0    0  0.11172108396E+03  0.76337882684E+02  0.35470782578E+02  0.18759597371E+03  0.12500000000E+03 0.  0.
         25    1    1    2    0    0 -0.12492155728E+03 -0.14945376085E+02  0.25706364742E+03  0.31230670593E+03  0.12500000000E+03 0.  0.
         25    1    1    2    0    0  0.13200473323E+02 -0.61392506599E+02  0.49183913145E+02  0.14828131937E+03  0.12500000000E+03 0.  0.
</event>
<event>
 5    0  0.5905138E-005  0.4693557E+03  0.7546771E-02  0.1022102E+00
         21   -1    0    0  502  501  0.00000000000E+00  0.00000000000E+00  0.80485351176E+03  0.80485351176E+03  0.00000000000E+00 0. -1.
         21   -1    0    0  501  502 -0.00000000000E+00 -0.00000000000E+00 -0.27370793735E+03  0.27370793735E+03  0.00000000000E+00 0. -1.
         25    1    1    2    0    0 -0.10506706223E+02  0.18853039526E+02 -0.10807704224E+03  0.16664775737E+03  0.12500000000E+03 0.  0.
         25    1    1    2    0    0  0.25687319045E+03  0.15345655175E+03  0.30118595350E+03  0.44257285031E+03  0.12500000000E+03 0.  0.
         25    1    1    2    0    0 -0.24636648422E+03 -0.17230959128E+03  0.33803666316E+03  0.46934084143E+03  0.12500000000E+03 0.  0.
</event>
<event>
 5    0  0.5786117E-005  0.3066370E+03  0.7546771E-02  0.1081969E+00
         21   -1    0    0  502  501  0.00000000000E+00  0.00000000000E+00  0.17748141595E+03  0.17748141595E+03  0.00000000000E+00 0. -1.
         21   -1    0    0  501  502 -0.00000000000E+00 -0.00000000000E+00 -0.52978079751E+03  0.52978079751E+03  0.00000000000E+00 0. -1.
         25    1    1    2    0    0  0.64298350355E+01 -0.19192934801E+03 -0.11854012849E+03  0.25798251776E+03  0.12500000000E+03 0.  0.
         25    1    1    2    0    0  0.30493222438E+02  0.15416063777E+03 -0.27915156150E+02  0.20273034996E+03  0.12500000000E+03 0.  0.
         25    1    1    2    0    0 -0.36923057474E+02  0.37768710240E+02 -0.20584409693E+03  0.24654934574E+03  0.12500000000E+03 0.  0.
</event>
<event>
 5    0  0.5786117E-005  0.2472789E+03  0.7546771E-02  0.1115037E+00
         21   -1    0    0  502  501  0.00000000000E+00  0.00000000000E+00  0.16071461044E+03  0.16071461044E+03  0.00000000000E+00 0. -1.
         21   -1    0    0  501  502 -0.00000000000E+00 -0.00000000000E+00 -0.38046844965E+03  0.38046844965E+03  0.00000000000E+00 0. -1.
         25    1    1    2    0    0 -0.14259849896E+01  0.22399383451E+02 -0.17113660312E+03  0.21311147960E+03  0.12500000000E+03 0.  0.
         25    1    1    2    0    0 -0.47598018209E+02  0.82551289740E+01 -0.11369840881E+03  0.17574426493E+03  0.12500000000E+03 0.  0.
         25    1    1    2    0    0  0.49024003198E+02 -0.30654512425E+02  0.65081172716E+02  0.15232731555E+03  0.12500000000E+03 0.  0.
</event>
<event>
 5    0  0.5786117E-005  0.5037758E+03  0.7546771E-02  0.1012798E+00
         21   -1    0    0  502  501  0.00000000000E+00  0.00000000000E+00  0.36236281654E+03  0.36236281654E+03  0.00000000000E+00 0. -1.
         21   -1    0    0  501  502 -0.00000000000E+00 -0.00000000000E+00 -0.70037561258E+03  0.70037561258E+03  0.00000000000E+00 0. -1.
         25    1    1    2    0    0 -0.13902339893E+03 -0.16564148592E+02 -0.19281067934E+03  0.26907774812E+03  0.12500000000E+03 0.  0.
         25    1    1    2    0    0 -0.18932792698E+03  0.23427729292E+03 -0.19078401509E+03  0.37782860443E+03  0.12500000000E+03 0.  0.
         25    1    1    2    0    0  0.32835132591E+03 -0.21771314433E+03  0.45581898381E+02  0.41583207656E+03  0.12500000000E+03 0.  0.
</event>
<event>
 5    0  0.5786117E-005  0.3079214E+03  0.7546771E-02  0.1081347E+00
         21   -1    0    0  502  501  0.00000000000E+00  0.00000000000E+00  0.27903233853E+03  0.27903233853E+03  0.00000000000E+00 0. -1.
         21   -1    0    0  501  502 -0.00000000000E+00 -0.00000000000E+00 -0.33980134844E+03  0.33980134844E+03  0.00000000000E+00 0. -1.
         25    1    1    2    0    0  0.90698086943E+01  0.49148988058E+02 -0.18989322580E+03  0.23277096395E+03  0.12500000000E+03 0.  0.
         25    1    1    2    0    0 -0.12023546619E+03  0.52057774252E+01  0.11796355170E+03  0.20981912920E+03  0.12500000000E+03 0.  0.
         25    1    1    2    0    0  0.11116565749E+03 -0.54354765484E+02  0.11160664176E+02  0.17624359382E+03  0.12500000000E+03 0.  0.
</event>
<event>
 5    0  0.5786117E-005  0.3291955E+03  0.7546771E-02  0.1071493E+00
         21   -1    0    0  502  501  0.00000000000E+00  0.00000000000E+00  0.21956923524E+03  0.21956923524E+03  0.00000000000E+00 0. -1.
         21   -1    0    0  501  502 -0.00000000000E+00 -0.00000000000E+00 -0.49355588207E+03  0.49355588207E+03  0.00000000000E+00 0. -1.
         25    1    1    2    0    0 -0.10607336962E+03  0.79239670541E+02  0.82371983666E+02  0.19985151694E+03  0.12500000000E+03 0.  0.
         25    1    1    2    0    0 -0.59296187636E+02 -0.84240532109E+02 -0.16108342267E+03  0.22844118319E+03  0.12500000000E+03 0.  0.
         25    1    1    2    0    0  0.16536955725E+03  0.50008615679E+01 -0.19527520783E+03  0.28483241718E+03  0.12500000000E+03 0.  0.
</event>
<event>
 5    0  0.5786117E-005  0.2645470E+03  0.7546771E-02  0.1104442E+00
         21   -1    0    0  502  501  0.00000000000E+00  0.00000000000E+00  0.10215666405E+04  0.10215666405E+04  0.00000000000E+00 0. -1.
         21   -1    0    0  501  502 -0.00000000000E+00 -0.00000000000E+00 -0.68507653592E+02  0.68507653592E+02  0.00000000000E+00 0. -1.
         25    1    1    2    0    0 -0.52428790482E+02  0.72461578362E+02  0.18057420720E+03  0.23713182561E+03  0.12500000000E+03 0.  0.
         25    1    1    2    0    0 -0.86193512705E+02 -0.27856946403E+01  0.43841085860E+03  0.46396784659E+03  0.12500000000E+03 0.  0.
         25    1    1    2    0    0  0.13862230319E+03 -0.69675883722E+02  0.33407392107E+03  0.38897462186E+03  0.12500000000E+03 0.  0.
</event>
<event>
 5    0  0.5786117E-005  0.3662136E+03  0.7546771E-02  0.1056150E+00
         21   -1    0    0  502  501  0.00000000000E+00  0.00000000000E+00  0.23717021571E+04  0.23717021571E+04  0.00000000000E+00 0.  1.
         21   -1    0    0  501  502 -0.00000000000E+00 -0.00000000000E+00 -0.56546884867E+02  0.56546884867E+02  0.00000000000E+00 0.  1.
         25    1    1    2    0    0 -0.15285884548E+03 -0.14527669425E+03  0.14056318270E+04  0.14268486176E+04  0.12500000000E+03 0.  0.
         25    1    1    2    0    0 -0.49829272257E+02 -0.88947915393E+01  0.31552826456E+03  0.34314014546E+03  0.12500000000E+03 0.  0.
         25    1    1    2    0    0  0.20268811774E+03  0.15417148579E+03  0.59399518075E+03  0.65826027896E+03  0.12500000000E+03 0.  0.
</event>
<event>
 5    0  0.5786117E-005  0.2352033E+03  0.7546771E-02  0.1123030E+00
         21   -1    0    0  502  501  0.00000000000E+00  0.00000000000E+00  0.60803219384E+02  0.60803219384E+02  0.00000000000E+00 0. -1.
         21   -1    0    0  501  502 -0.00000000000E+00 -0.00000000000E+00 -0.90982962886E+03  0.90982962886E+03  0.00000000000E+00 0. -1.
         25    1    1    2    0    0 -0.21444484949E+02 -0.99190051820E+02 -0.23500063884E+03  0.28486634159E+03  0.12500000000E+03 0.  0.
         25    1    1    2    0    0  0.31053508011E+02  0.12252298455E+03 -0.36509052639E+03  0.40606932236E+03  0.12500000000E+03 0.  0.
         25    1    1    2    0    0 -0.96090230616E+01 -0.23332932730E+02 -0.24893524424E+03  0.27969718429E+03  0.12500000000E+03 0.  0.
</event>
<event>
 5    0  0.5786117E-005  0.2472272E+03  0.7546771E-02  0.1115070E+00
         21   -1    0    0  502  501  0.00000000000E+00  0.00000000000E+00  0.72153559739E+03  0.72153559739E+03  0.00000000000E+00 0. -1.
         21   -1    0    0  501  502 -0.00000000000E+00 -0.00000000000E+00 -0.84710033983E+02  0.84710033983E+02  0.00000000000E+00 0. -1.
         25    1    1    2    0    0 -0.29654128862E+01 -0.89587726617E+02  0.12656505386E+03  0.19919454634E+03  0.12500000000E+03 0.  0.
         25    1    1    2    0    0  0.34348395408E+02 -0.49893740006E+02  0.22041855269E+03  0.26053509539E+03  0.12500000000E+03 0.  0.
         25    1    1    2    0    0 -0.31382982521E+02  0.13948146662E+03  0.28984195685E+03  0.34651598964E+03  0.12500000000E+03 0.  0.
</event>
<event>
 5    0  0.5786117E-005  0.2399513E+03  0.7546771E-02  0.1119825E+00
         21   -1    0    0  502  501  0.00000000000E+00  0.00000000000E+00  0.28248037597E+02  0.28248037597E+02  0.00000000000E+00 0.  1.
         21   -1    0    0  501  502 -0.00000000000E+00 -0.00000000000E+00 -0.20382524748E+04  0.20382524748E+04  0.00000000000E+00 0.  1.
         25    1    1    2    0    0  0.28483835884E+02 -0.48040123650E+02 -0.81423038132E+03  0.82566052119E+03  0.12500000000E+03 0.  0.
         25    1    1    2    0    0 -0.95836971970E+02  0.59190380916E+02 -0.85667906884E+03  0.87304768104E+03  0.12500000000E+03 0.  0.
         25    1    1    2    0    0  0.67353136086E+02 -0.11150257267E+02 -0.33909498706E+03  0.36779231018E+03  0.12500000000E+03 0.  0.
</event>
<event>
 5    0  0.5786117E-005  0.3031553E+03  0.7546771E-02  0.1083674E+00
         21   -1    0    0  502  501  0.00000000000E+00  0.00000000000E+00  0.96215571095E+02  0.96215571095E+02  0.00000000000E+00 0.  1.
         21   -1    0    0  501  502 -0.00000000000E+00 -0.00000000000E+00 -0.95517918924E+03  0.95517918924E+03  0.00000000000E+00 0.  1.
         25    1    1    2    0    0 -0.34167179362E+02  0.57210248370E+02 -0.52882177946E+03  0.54746496061E+03  0.12500000000E+03 0.  0.
         25    1    1    2    0    0 -0.68059040299E+02 -0.10652182316E+03 -0.27281082379E+03  0.32562198537E+03  0.12500000000E+03 0.  0.
         25    1    1    2    0    0  0.10222621966E+03  0.49311574788E+02 -0.57331014897E+02  0.17830781436E+03  0.12500000000E+03 0.  0.
</event>
<event>
 5    0  0.5786117E-005  0.4318145E+03  0.7546771E-02  0.1033288E+00
         21   -1    0    0  502  501  0.00000000000E+00  0.00000000000E+00  0.48532567154E+03  0.48532567154E+03  0.00000000000E+00 0.  1.
         21   -1    0    0  501  502 -0.00000000000E+00 -0.00000000000E+00 -0.38420337228E+03  0.38420337228E+03  0.00000000000E+00 0.  1.
         25    1    1    2    0    0 -0.14138969293E+03 -0.29558199901E+02  0.37550447606E+03  0.42129958935E+03  0.12500000000E+03 0.  0.
         25    1    1    2    0    0  0.10402122184E+03 -0.67192221830E+02 -0.20882857853E+03  0.27307432043E+03  0.12500000000E+03 0.  0.
         25    1    1    2    0    0  0.37368471091E+02  0.96750421731E+02 -0.65553598266E+02  0.17515513405E+03  0.12500000000E+03 0.  0.
</event>
<event>
 5    0  0.5786117E-005  0.3533180E+03  0.7546771E-02  0.1061261E+00
         21   -1    0    0  502  501  0.00000000000E+00  0.00000000000E+00  0.72827396847E+03  0.72827396847E+03  0.00000000000E+00 0.  1.
         21   -1    0    0  501  502 -0.00000000000E+00 -0.00000000000E+00 -0.17141018257E+03  0.17141018257E+03  0.00000000000E+00 0.  1.
         25    1    1    2    0    0 -0.41501457653E+02  0.17883712235E+03  0.14946941530E+03  0.26771476132E+03  0.12500000000E+03 0.  0.
         25    1    1    2    0    0 -0.15217962974E+03 -0.12188542073E+03  0.27703270223E+03  0.36109114306E+03  0.12500000000E+03 0.  0.
         25    1    1    2    0    0  0.19368108740E+03 -0.56951701623E+02  0.13036166837E+03  0.27087824666E+03  0.12500000000E+03 0.  0.
</event>
<event>
 5    0  0.5786117E-005  0.3240819E+03  0.7546771E-02  0.1073786E+00
         21   -1    0    0  502  501  0.00000000000E+00  0.00000000000E+00  0.11959609463E+03  0.11959609463E+03  0.00000000000E+00 0. -1.
         21   -1    0    0  501  502 -0.00000000000E+00 -0.00000000000E+00 -0.87819815292E+03  0.87819815292E+03  0.00000000000E+00 0. -1.
         25    1    1    2    0    0  0.48989820590E+02 -0.15069504334E+03 -0.24631418485E+03  0.31844100909E+03  0.12500000000E+03 0.  0.
         25    1    1    2    0    0  0.14974500452E+02  0.18108772972E+03 -0.98893921637E+02  0.24170645265E+03  0.12500000000E+03 0.  0.
         25    1    1    2    0    0 -0.63964321043E+02 -0.30392686380E+02 -0.41339395179E+03  0.43764678581E+03  0.12500000000E+03 0.  0.
</event>
<event>
 5    0  0.5786117E-005  0.2549613E+03  0.7546771E-02  0.1110209E+00
         21   -1    0    0  502  501  0.00000000000E+00  0.00000000000E+00  0.55170707989E+03  0.55170707989E+03  0.00000000000E+00 0. -1.
         21   -1    0    0  501  502 -0.00000000000E+00 -0.00000000000E+00 -0.11782568892E+03  0.11782568892E+03  0.00000000000E+00 0. -1.
         25    1    1    2    0    0 -0.44246311016E+01 -0.11586731821E+02  0.20161997967E+03  0.23754882849E+03  0.12500000000E+03 0.  0.
         25    1    1    2    0    0 -0.12269103169E+03  0.47257860439E+02  0.13203179137E+03  0.22437421546E+03  0.12500000000E+03 0.  0.
         25    1    1    2    0    0  0.12711566280E+03 -0.35671128617E+02  0.10022961993E+03  0.20760972486E+03  0.12500000000E+03 0.  0.
</event>
<event>
 5    0  0.5786117E-005  0.3404144E+03  0.7546771E-02  0.1066620E+00
         21   -1    0    0  502  501  0.00000000000E+00  0.00000000000E+00  0.22781940785E+03  0.22781940785E+03  0.00000000000E+00 0. -1.
         21   -1    0    0  501  502 -0.00000000000E+00 -0.00000000000E+00 -0.50865706221E+03  0.50865706221E+03  0.00000000000E+00 0. -1.
         25    1    1    2    0    0  0.29632887076E+02  0.12412124066E+03 -0.10309484444E+01  0.17863441223E+03  0.12500000000E+03 0.  0.
         25    1    1    2    0    0  0.17544421584E+03 -0.52811988441E+02 -0.74640187587E+02  0.23402123108E+03  0.12500000000E+03 0.  0.
         25    1    1    2    0    0 -0.20507710292E+03 -0.71309252220E+02 -0.20516651832E+03  0.32382082674E+03  0.12500000000E+03 0.  0.
</event>
<event>
 5    0  0.5786117E-005  0.2725616E+03  0.7546771E-02  0.1099822E+00
         21   -1    0    0  502  501  0.00000000000E+00  0.00000000000E+00  0.10375875459E+04  0.10375875459E+04  0.00000000000E+00 0. -1.
         21   -1    0    0  501  502 -0.00000000000E+00 -0.00000000000E+00 -0.71598626503E+02  0.71598626503E+02  0.00000000000E+00 0. -1.
         25    1    1    2    0    0  0.40200093463E+02  0.75851745164E+02  0.70897212529E+03  0.72500759251E+03  0.12500000000E+03 0.  0.
         25    1    1    2    0    0 -0.59755825833E+02 -0.35182249619E+02  0.18249359780E+03  0.23181342206E+03  0.12500000000E+03 0.  0.
         25    1    1    2    0    0  0.19555732370E+02 -0.40669495545E+02  0.74523196327E+02  0.15236515785E+03  0.12500000000E+03 0.  0.
</event>
<event>
 5    0  0.6919212E-005  0.4244114E+03  0.7546771E-02  0.1035640E+00
         21   -1    0    0  502  501  0.00000000000E+00  0.00000000000E+00  0.37887738234E+03  0.37887738234E+03  0.00000000000E+00 0. -1.
         21   -1    0    0  501  502 -0.00000000000E+00 -0.00000000000E+00 -0.47541765409E+03  0.47541765409E+03  0.00000000000E+00 0. -1.
         25    1    1    2    0    0 -0.30771406642E+01  0.16183983499E+03  0.11308154000E+03  0.23369646055E+03  0.12500000000E+03 0.  0.
         25    1    1    2    0    0  0.37128207868E+02 -0.32507313447E+03 -0.41228311121E+02  0.35266956235E+03  0.12500000000E+03 0.  0.
         25    1    1    2    0    0 -0.34051067204E+02  0.16323329947E+03 -0.16839350063E+03  0.26792901353E+03  0.12500000000E+03 0.  0.
</event>
<event>
 5    0  0.5786117E-005  0.3050705E+03  0.7546771E-02  0.1082733E+00
         21   -1    0    0  502  501  0.00000000000E+00  0.00000000000E+00  0.19939572491E+03  0.19939572491E+03  0.00000000000E+00 0.  1.
         21   -1    0    0  501  502 -0.00000000000E+00 -0.00000000000E+00 -0.46675029281E+03  0.46675029281E+03  0.00000000000E+00 0.  1.
         25    1    1    2    0    0 -0.98580392511E+02  0.44564261194E+02  0.10269347041E+03  0.19461504574E+03  0.12500000000E+03 0.  0.
         25    1    1    2    0    0  0.25173689870E+02 -0.33737592782E+02 -0.25137335658E+03  0.28387586059E+03  0.12500000000E+03 0.  0.
         25    1    1    2    0    0  0.73406702642E+02 -0.10826668412E+02 -0.11867468174E+03  0.18765511138E+03  0.12500000000E+03 0.  0.
</event>
<event>
 5    0  0.5786117E-005  0.2345555E+03  0.7546771E-02  0.1123474E+00
         21   -1    0    0  502  501  0.00000000000E+00  0.00000000000E+00  0.67842243640E+02  0.67842243640E+02  0.00000000000E+00 0. -1.
         21   -1    0    0  501  502 -0.00000000000E+00 -0.00000000000E+00 -0.81094461863E+03  0.81094461863E+03  0.00000000000E+00 0. -1.
         25    1    1    2    0    0  0.10147017169E+03  0.35808178961E+02 -0.18110581773E+03  0.24495456444E+03  0.12500000000E+03 0.  0.
         25    1    1    2    0    0 -0.55457265217E+02 -0.25297282011E+02 -0.16969487144E+03  0.21940102583E+03  0.12500000000E+03 0.  0.
         25    1    1    2    0    0 -0.46012906473E+02 -0.10510896949E+02 -0.39230168582E+03  0.41443127200E+03  0.12500000000E+03 0.  0.
</event>
<event>
 5    0  0.5786117E-005  0.5049322E+03  0.7546771E-02  0.1012500E+00
         21   -1    0    0  502  501  0.00000000000E+00  0.00000000000E+00  0.10113160258E+04  0.10113160258E+04  0.00000000000E+00 0. -1.
         21   -1    0    0  501  502 -0.00000000000E+00 -0.00000000000E+00 -0.25210369803E+03  0.25210369803E+03  0.00000000000E+00 0. -1.
         25    1    1    2    0    0 -0.17106197811E+03 -0.39172538101E+03  0.57734639785E+03  0.72915350757E+03  0.12500000000E+03 0.  0.
         25    1    1    2    0    0  0.40372646982E+02  0.13763755389E+03  0.61168755677E+02  0.19985160379E+03  0.12500000000E+03 0.  0.
         25    1    1    2    0    0  0.13068933113E+03  0.25408782712E+03  0.12069717421E+03  0.33441461246E+03  0.12500000000E+03 0.  0.
</event>
<event>
 5    0  0.5786117E-005  0.2855891E+03  0.7546771E-02  0.1092675E+00
         21   -1    0    0  502  501  0.00000000000E+00  0.00000000000E+00  0.10567671408E+04  0.10567671408E+04  0.00000000000E+00 0. -1.
         21   -1    0    0  501  502 -0.00000000000E+00 -0.00000000000E+00 -0.77179844687E+02  0.77179844687E+02  0.00000000000E+00 0. -1.
         25    1    1    2    0    0  0.32804364538E+02  0.80190840768E+02  0.35179049962E+03  0.38326003301E+03  0.12500000000E+03 0.  0.
         25    1    1    2    0    0  0.88984239147E+02 -0.14324474477E+03  0.22792934418E+03  0.30986132004E+03  0.12500000000E+03 0.  0.
         25    1    1    2    0    0 -0.12178860369E+03  0.63053904001E+02  0.39986745232E+03  0.44082563245E+03  0.12500000000E+03 0.  0.
</event>
<event>
 5    0  0.5786117E-005  0.2821711E+03  0.7546771E-02  0.1094509E+00
         21   -1    0    0  502  501  0.00000000000E+00  0.00000000000E+00  0.31341219403E+04  0.31341219403E+04  0.00000000000E+00 0. -1.
         21   -1    0    0  501  502 -0.00000000000E+00 -0.00000000000E+00 -0.25404409538E+02  0.25404409538E+02  0.00000000000E+00 0. -1.
         25    1    1    2    0    0 -0.98675478793E+02 -0.32540740040E+02  0.18985233301E+04  0.19054688622E+04  0.12500000000E+03 0.  0.
         25    1    1    2    0    0  0.93734318701E+02 -0.65839977683E+02  0.61076609025E+03  0.63386216338E+03  0.12500000000E+03 0.  0.
         25    1    1    2    0    0  0.49411600918E+01  0.98380717723E+02  0.59942811042E+03  0.62019532426E+03  0.12500000000E+03 0.  0.
</event>
<event>
 5    0  0.5786117E-005  0.2721447E+03  0.7546771E-02  0.1100058E+00
         21   -1    0    0  502  501  0.00000000000E+00  0.00000000000E+00  0.12071336119E+03  0.12071336119E+03  0.00000000000E+00 0. -1.
         21   -1    0    0  501  502 -0.00000000000E+00 -0.00000000000E+00 -0.61354197994E+03  0.61354197994E+03  0.00000000000E+00 0. -1.
         25    1    1    2    0    0  0.90043131459E+02 -0.12219479920E+03 -0.92786976758E+02  0.21742529184E+03  0.12500000000E+03 0.  0.
         25    1    1    2    0    0 -0.71827028346E+02  0.34832415990E+02 -0.97373743169E+02  0.17742340619E+03  0.12500000000E+03 0.  0.
         25    1    1    2    0    0 -0.18216103113E+02  0.87362383209E+02 -0.30266789881E+03  0.33940664311E+03  0.12500000000E+03 0.  0.
</event>
<event>
 5    0  0.5786117E-005  0.3179522E+03  0.7546771E-02  0.1076596E+00
         21   -1    0    0  502  501  0.00000000000E+00  0.00000000000E+00  0.50739772481E+03  0.50739772481E+03  0.00000000000E+00 0. -1.
         21   -1    0    0  501  502 -0.00000000000E+00 -0.00000000000E+00 -0.19923938542E+03  0.19923938542E+03  0.00000000000E+00 0. -1.
         25    1    1    2    0    0  0.40852868573E+02 -0.13995842010E+03 -0.60162975478E+02  0.20125083812E+03  0.12500000000E+03 0.  0.
         25    1    1    2    0    0 -0.82118020210E+02  0.26086506147E+02  0.25787979763E+03  0.29925050555E+03  0.12500000000E+03 0.  0.
         25    1    1    2    0    0  0.41265151638E+02  0.11387191395E+03  0.11044151723E+03  0.20613576656E+03  0.12500000000E+03 0.  0.
</event>
<event>
 5    0  0.5786117E-005  0.3974957E+03  0.7546771E-02  0.1044650E+00
         21   -1    0    0  502  501  0.00000000000E+00  0.00000000000E+00  0.19391658954E+03  0.19391658954E+03  0.00000000000E+00 0.  1.
         21   -1    0    0  501  502 -0.00000000000E+00 -0.00000000000E+00 -0.81479798122E+03  0.81479798122E+03  0.00000000000E+00 0.  1.
         25    1    1    2    0    0 -0.11972220219E+03 -0.17709852959E+03 -0.12599676216E+01  0.24763659341E+03  0.12500000000E+03 0.  0.
         25    1    1    2    0    0  0.82633428325E+02  0.23567131110E+03 -0.50805655579E+03  0.57975487426E+03  0.12500000000E+03 0.  0.
         25    1    1    2    0    0  0.37088773866E+02 -0.58572781517E+02 -0.11156486827E+03  0.18132310309E+03  0.12500000000E+03 0.  0.
</event>
<event>
 5    0  0.5786117E-005  0.3567786E+03  0.7546771E-02  0.1059867E+00
         21   -1    0    0  502  501  0.00000000000E+00  0.00000000000E+00  0.69720766310E+03  0.69720766310E+03  0.00000000000E+00 0.  1.
         21   -1    0    0  501  502 -0.00000000000E+00 -0.00000000000E+00 -0.18257252483E+03  0.18257252483E+03  0.00000000000E+00 0.  1.
         25    1    1    2    0    0  0.15505562198E+03  0.16433623006E+03  0.27321980332E+03  0.37592912011E+03  0.12500000000E+03 0.  0.
         25    1    1    2    0    0 -0.19619351869E+03 -0.13266679327E+03  0.54853373725E+02  0.27336105688E+03  0.12500000000E+03 0.  0.
         25    1    1    2    0    0  0.41137896706E+02 -0.31669436788E+02  0.18656196122E+03  0.23049001094E+03  0.12500000000E+03 0.  0.
</event>
<event>
 5    0  0.5786117E-005  0.2446417E+03  0.7546771E-02  0.1116739E+00
         21   -1    0    0  502  501  0.00000000000E+00  0.00000000000E+00  0.59453559500E+02  0.59453559500E+02  0.00000000000E+00 0. -1.
         21   -1    0    0  501  502 -0.00000000000E+00 -0.00000000000E+00 -0.10066608301E+04  0.10066608301E+04  0.00000000000E+00 0. -1.
         25    1    1    2    0    0  0.68101604486E+02  0.66828399971E+02 -0.35350079150E+03  0.38690008163E+03  0.12500000000E+03 0.  0.
         25    1    1    2    0    0 -0.26746594892E+02  0.48424206262E+02 -0.37491465405E+03  0.39905674021E+03  0.12500000000E+03 0.  0.
         25    1    1    2    0    0 -0.41355009594E+02 -0.11525260623E+03 -0.21879182507E+03  0.28015756777E+03  0.12500000000E+03 0.  0.
</event>
<event>
 5    0  0.5786117E-005  0.3863617E+03  0.7546771E-02  0.1048607E+00
         21   -1    0    0  502  501  0.00000000000E+00  0.00000000000E+00  0.77103802845E+02  0.77103802845E+02  0.00000000000E+00 0. -1.
         21   -1    0    0  501  502 -0.00000000000E+00 -0.00000000000E+00 -0.19360312879E+04  0.19360312879E+04  0.00000000000E+00 0. -1.
         25    1    1    2    0    0  0.74088189259E+02  0.13730463465E+03 -0.15298899602E+04  0.15428965983E+04  0.12500000000E+03 0.  0.
         25    1    1    2    0    0  0.81619159425E+01 -0.12471607792E+03 -0.12325552345E+03  0.21549394661E+03  0.12500000000E+03 0.  0.
         25    1    1    2    0    0 -0.82250105202E+02 -0.12588556727E+02 -0.20578200136E+03  0.25474454587E+03  0.12500000000E+03 0.  0.
</event>
<event>
 5    0  0.6131016E-005  0.4686809E+03  0.7546771E-02  0.1022293E+00
         21   -1    0    0  502  501  0.00000000000E+00  0.00000000000E+00  0.11408664861E+04  0.11408664861E+04  0.00000000000E+00 0. -1.
         21   -1    0    0  501  502 -0.00000000000E+00 -0.00000000000E+00 -0.19253943247E+03  0.19253943247E+03  0.00000000000E+00 0.  1.
         25    1    1    2    0    0  0.19959866967E+03  0.15457331306E+03  0.64317783911E+03  0.70216470345E+03  0.12500000000E+03 0.  0.
         25    1    1    2    0    0  0.36335257402E+02 -0.52580472988E+01 -0.69421083551E+02  0.14762176274E+03  0.12500000000E+03 0.  0.
         25    1    1    2    0    0 -0.23593392707E+03 -0.14931526576E+03  0.37457029807E+03  0.48361945239E+03  0.12500000000E+03 0.  0.
</event>
<event>
 5    0  0.5786117E-005  0.3277187E+03  0.7546771E-02  0.1072151E+00
         21   -1    0    0  502  501  0.00000000000E+00  0.00000000000E+00  0.78899965731E+03  0.78899965731E+03  0.00000000000E+00 0. -1.
         21   -1    0    0  501  502 -0.00000000000E+00 -0.00000000000E+00 -0.13612118026E+03  0.13612118026E+03  0.00000000000E+00 0. -1.
         25    1    1    2    0    0 -0.27032633590E+02 -0.40215796581E+02  0.73394388949E+02  0.15283916351E+03  0.12500000000E+03 0.  0.
         25    1    1    2    0    0 -0.16249568828E+03  0.11988214561E+02  0.48137000461E+03  0.52334562894E+03  0.12500000000E+03 0.  0.
         25    1    1    2    0    0  0.18952832187E+03  0.28227582021E+02  0.98114083487E+02  0.24893604511E+03  0.12500000000E+03 0.  0.
</event>
<event>
 5    0  0.5786117E-005  0.3201024E+03  0.7546771E-02  0.1075602E+00
         21   -1    0    0  502  501  0.00000000000E+00  0.00000000000E+00  0.43613668930E+03  0.43613668930E+03  0.00000000000E+00 0.  1.
         21   -1    0    0  501  502 -0.00000000000E+00 -0.00000000000E+00 -0.23493904449E+03  0.23493904449E+03  0.00000000000E+00 0.  1.
         25    1    1    2    0    0  0.15320383371E+03  0.34575195824E+02  0.23585121724E+03  0.30970575633E+03  0.12500000000E+03 0.  0.
         25    1    1    2    0    0 -0.99865470227E+02  0.82775637790E+02 -0.16177541876E+02  0.18086357073E+03  0.12500000000E+03 0.  0.
         25    1    1    2    0    0 -0.53338363483E+02 -0.11735083361E+03 -0.18476030553E+02  0.18050640674E+03  0.12500000000E+03 0.  0.
</event>
<event>
 5    0  0.5786117E-005  0.4348728E+03  0.7546771E-02  0.1032332E+00
         21   -1    0    0  502  501  0.00000000000E+00  0.00000000000E+00  0.13642045993E+03  0.13642045993E+03  0.00000000000E+00 0.  1.
         21   -1    0    0  501  502 -0.00000000000E+00 -0.00000000000E+00 -0.13862608080E+04  0.13862608080E+04  0.00000000000E+00 0.  1.
         25    1    1    2    0    0 -0.64727134898E+02 -0.28427408125E+03 -0.49295938683E+03  0.58620415584E+03  0.12500000000E+03 0.  0.
         25    1    1    2    0    0 -0.13244455967E+03  0.45840742469E+02 -0.13690802934E+03  0.23240426750E+03  0.12500000000E+03 0.  0.
         25    1    1    2    0    0  0.19717169456E+03  0.23843333878E+03 -0.61997293189E+03  0.70407284456E+03  0.12500000000E+03 0.  0.
</event>
<event>
 5    0  0.5786117E-005  0.2719291E+03  0.7546771E-02  0.1100181E+00
         21   -1    0    0  502  501  0.00000000000E+00  0.00000000000E+00  0.24747736747E+03  0.24747736747E+03  0.00000000000E+00 0. -1.
         21   -1    0    0  501  502 -0.00000000000E+00 -0.00000000000E+00 -0.29879669208E+03  0.29879669208E+03  0.00000000000E+00 0. -1.
         25    1    1    2    0    0 -0.18716637432E+03 -0.55063732634E+01 -0.26123271959E+02  0.22664729683E+03  0.12500000000E+03 0.  0.
         25    1    1    2    0    0  0.11136125584E+03  0.25375797125E+02  0.33530144935E+01  0.16935614275E+03  0.12500000000E+03 0.  0.
         25    1    1    2    0    0  0.75805118480E+02 -0.19869423862E+02 -0.28549067148E+02  0.15027061997E+03  0.12500000000E+03 0.  0.
</event>
<event>
 5    0  0.5786117E-005  0.2116559E+03  0.7546771E-02  0.1140261E+00
         21   -1    0    0  502  501  0.00000000000E+00  0.00000000000E+00  0.35670206945E+02  0.35670206945E+02  0.00000000000E+00 0. -1.
         21   -1    0    0  501  502 -0.00000000000E+00 -0.00000000000E+00 -0.12558997178E+04  0.12558997178E+04  0.00000000000E+00 0. -1.
         25    1    1    2    0    0 -0.57812265963E+01  0.26554512610E+02 -0.36053802058E+03  0.38255879157E+03  0.12500000000E+03 0.  0.
         25    1    1    2    0    0  0.78543130386E+02 -0.11748822654E+02 -0.48474537589E+03  0.50686303634E+03  0.12500000000E+03 0.  0.
         25    1    1    2    0    0 -0.72761903789E+02 -0.14805689956E+02 -0.37494611444E+03  0.40214809689E+03  0.12500000000E+03 0.  0.
</event>
<event>
 5    0  0.5786117E-005  0.3589465E+03  0.7546771E-02  0.1059002E+00
         21   -1    0    0  502  501  0.00000000000E+00  0.00000000000E+00  0.36583475925E+03  0.36583475925E+03  0.00000000000E+00 0. -1.
         21   -1    0    0  501  502 -0.00000000000E+00 -0.00000000000E+00 -0.35218793860E+03  0.35218793860E+03  0.00000000000E+00 0. -1.
         25    1    1    2    0    0  0.21831369693E+02  0.90374260385E+02  0.24802585285E+03  0.29289236816E+03  0.12500000000E+03 0.  0.
         25    1    1    2    0    0  0.85096066797E+02  0.31280417607E+01 -0.16440371689E+03  0.22339361530E+03  0.12500000000E+03 0.  0.
         25    1    1    2    0    0 -0.10692743649E+03 -0.93502302146E+02 -0.69975315316E+02  0.20173671439E+03  0.12500000000E+03 0.  0.
</event>
<event>
 5    0  0.5786117E-005  0.4776820E+03  0.7546771E-02  0.1019774E+00
         21   -1    0    0  502  501  0.00000000000E+00  0.00000000000E+00  0.11919143390E+04  0.11919143390E+04  0.00000000000E+00 0. -1.
         21   -1    0    0  501  502 -0.00000000000E+00 -0.00000000000E+00 -0.19144004097E+03  0.19144004097E+03  0.00000000000E+00 0. -1.
         25    1    1    2    0    0 -0.23762406998E+02  0.16698817164E+03  0.33262667492E+03  0.39333853908E+03  0.12500000000E+03 0.  0.
         25    1    1    2    0    0 -0.12741407163E+03  0.10042501482E+03 -0.39684228868E+02  0.20861296046E+03  0.12500000000E+03 0.  0.
         25    1    1    2    0    0  0.15117647863E+03 -0.26741318646E+03  0.70753185201E+03  0.78140288046E+03  0.12500000000E+03 0.  0.
</event>
<event>
 5    0  0.5786117E-005  0.6229772E+03  0.7546771E-02  0.9858850E-01
         21   -1    0    0  502  501  0.00000000000E+00  0.00000000000E+00  0.29666868833E+03  0.29666868833E+03  0.00000000000E+00 0.  1.
         21   -1    0    0  501  502 -0.00000000000E+00 -0.00000000000E+00 -0.13081954304E+04  0.13081954304E+04  0.00000000000E+00 0.  1.
         25    1    1    2    0    0 -0.12829803910E+03  0.60737520972E+02  0.21848895908E+03  0.28898418388E+03  0.12500000000E+03 0.  0.
         25    1    1    2    0    0  0.52439969871E+02 -0.21286805365E+03 -0.75635048360E+03  0.79734171642E+03  0.12500000000E+03 0.  0.
         25    1    1    2    0    0  0.75858069230E+02  0.15213053268E+03 -0.47366521753E+03  0.51853821839E+03  0.12500000000E+03 0.  0.
</event>
<event>
 5    0  0.5786117E-005  0.2639637E+03  0.7546771E-02  0.1104785E+00
         21   -1    0    0  502  501  0.00000000000E+00  0.00000000000E+00  0.75369224840E+03  0.75369224840E+03  0.00000000000E+00 0.  1.
         21   -1    0    0  501  502 -0.00000000000E+00 -0.00000000000E+00 -0.92447357759E+02  0.92447357759E+02  0.00000000000E+00 0.  1.
         25    1    1    2    0    0 -0.61922810500E+02  0.16051519173E+01  0.27737294749E+03  0.31047989141E+03  0.12500000000E+03 0.  0.
         25    1    1    2    0    0  0.15813062881E+03 -0.19367160223E+02  0.14581375017E+03  0.24953362980E+03  0.12500000000E+03 0.  0.
         25    1    1    2    0    0 -0.96207818307E+02  0.17762008306E+02  0.23805819298E+03  0.28612608495E+03  0.12500000000E+03 0.  0.
</event>
<event>
 5    0  0.5786117E-005  0.4812819E+03  0.7546771E-02  0.1018783E+00
         21   -1    0    0  502  501  0.00000000000E+00  0.00000000000E+00  0.22449308826E+04  0.22449308826E+04  0.00000000000E+00 0.  1.
         21   -1    0    0  501  502 -0.00000000000E+00 -0.00000000000E+00 -0.10318014051E+03  0.10318014051E+03  0.00000000000E+00 0.  1.
         25    1    1    2    0    0  0.32536269367E+03 -0.57880068729E+02  0.99226043016E+03  0.10532885388E+04  0.12500000000E+03 0.  0.
         25    1    1    2    0    0 -0.69408584698E+02  0.85251654990E+02  0.74460937336E+02  0.18235906201E+03  0.12500000000E+03 0.  0.
         25    1    1    2    0    0 -0.25595410898E+03 -0.27371586261E+02  0.10750293746E+04  0.11124634222E+04  0.12500000000E+03 0.  0.
</event>
<event>
 5    0  0.5786117E-005  0.3290358E+03  0.7546771E-02  0.1071564E+00
         21   -1    0    0  502  501  0.00000000000E+00  0.00000000000E+00  0.12992991686E+04  0.12992991686E+04  0.00000000000E+00 0.  1.
         21   -1    0    0  501  502 -0.00000000000E+00 -0.00000000000E+00 -0.83325367556E+02  0.83325367556E+02  0.00000000000E+00 0.  1.
         25    1    1    2    0    0  0.27392729512E+01  0.11018324345E+03  0.28552366204E+03  0.33060038164E+03  0.12500000000E+03 0.  0.
         25    1    1    2    0    0  0.44891165411E+02 -0.23354103942E+03  0.74608684769E+03  0.79298626604E+03  0.12500000000E+03 0.  0.
         25    1    1    2    0    0 -0.47630438362E+02  0.12335779597E+03  0.18436329132E+03  0.25903788849E+03  0.12500000000E+03 0.  0.
</event>
<event>
 5    0  0.5786117E-005  0.4039154E+03  0.7546771E-02  0.1042432E+00
         21   -1    0    0  502  501  0.00000000000E+00  0.00000000000E+00  0.11373237833E+04  0.11373237833E+04  0.00000000000E+00 0. -1.
         21   -1    0    0  501  502 -0.00000000000E+00 -0.00000000000E+00 -0.14344874287E+03  0.14344874287E+03  0.00000000000E+00 0. -1.
         25    1    1    2    0    0  0.12562310349E+03 -0.56122117193E+02  0.55806548915E+02  0.19408819405E+03  0.12500000000E+03 0.  0.
         25    1    1    2    0    0 -0.10768111882E+03  0.53460325930E+02  0.94442333528E+03  0.96021542688E+03  0.12500000000E+03 0.  0.
         25    1    1    2    0    0 -0.17941984673E+02  0.26617912627E+01 -0.63548437823E+01  0.12646890521E+03  0.12500000000E+03 0.  0.
</event>
<event>
 5    0  0.5786117E-005  0.2836843E+03  0.7546771E-02  0.1093693E+00
         21   -1    0    0  502  501  0.00000000000E+00  0.00000000000E+00  0.11094725102E+04  0.11094725102E+04  0.00000000000E+00 0. -1.
         21   -1    0    0  501  502 -0.00000000000E+00 -0.00000000000E+00 -0.72536096951E+02  0.72536096951E+02  0.00000000000E+00 0. -1.
         25    1    1    2    0    0 -0.81568152339E+02 -0.44325341231E+01  0.15379852735E+03  0.21436417110E+03  0.12500000000E+03 0.  0.
         25    1    1    2    0    0  0.13275279061E+03  0.10143272098E+03  0.33344111692E+03  0.39334447848E+03  0.12500000000E+03 0.  0.
         25    1    1    2    0    0 -0.51184638269E+02 -0.97000186853E+02  0.54969676898E+03  0.57429995758E+03  0.12500000000E+03 0.  0.
</event>
<event>
 5    0  0.5786117E-005  0.2730674E+03  0.7546771E-02  0.1099537E+00
         21   -1    0    0  502  501  0.00000000000E+00  0.00000000000E+00  0.18013844865E+04  0.18013844865E+04  0.00000000000E+00 0. -1.
         21   -1    0    0  501  502 -0.00000000000E+00 -0.00000000000E+00 -0.41393602602E+02  0.41393602602E+02  0.00000000000E+00 0. -1.
         25    1    1    2    0    0 -0.95963440325E+02 -0.91450441273E+02  0.58993338323E+03  0.61742899328E+03  0.12500000000E+03 0.  0.
         25    1    1    2    0    0  0.13052364430E+03 -0.32360882087E+02  0.63801223283E+03  0.66390380150E+03  0.12500000000E+03 0.  0.
         25    1    1    2    0    0 -0.34560203972E+02  0.12381132336E+03  0.53204526788E+03  0.56144529436E+03  0.12500000000E+03 0.  0.
</event>
<event>
 5    0  0.5786117E-005  0.2374822E+03  0.7546771E-02  0.1121482E+00
         21   -1    0    0  502  501  0.00000000000E+00  0.00000000000E+00  0.87824634469E+02  0.87824634469E+02  0.00000000000E+00 0. -1.
         21   -1    0    0  501  502 -0.00000000000E+00 -0.00000000000E+00 -0.64216374835E+03  0.64216374835E+03  0.00000000000E+00 0. -1.
         25    1    1    2    0    0  0.76371393521E+02  0.26230119308E+02 -0.19506729614E+03  0.24535048182E+03  0.12500000000E+03 0.  0.
         25    1    1    2    0    0 -0.87627384386E+01  0.25496626370E+02 -0.44457694348E+02  0.13538223712E+03  0.12500000000E+03 0.  0.
         25    1    1    2    0    0 -0.67608655082E+02 -0.51726745678E+02 -0.31481412339E+03  0.34925566387E+03  0.12500000000E+03 0.  0.
</event>
<event>
 5    0  0.5786117E-005  0.3108309E+03  0.7546771E-02  0.1079948E+00
         21   -1    0    0  502  501  0.00000000000E+00  0.00000000000E+00  0.46383315616E+03  0.46383315616E+03  0.00000000000E+00 0.  1.
         21   -1    0    0  501  502 -0.00000000000E+00 -0.00000000000E+00 -0.20829870629E+03  0.20829870629E+03  0.00000000000E+00 0.  1.
         25    1    1    2    0    0 -0.45788616909E+02 -0.13680537198E+02  0.14337941640E+03  0.19612855882E+03  0.12500000000E+03 0.  0.
         25    1    1    2    0    0  0.21361446217E+03  0.41871439083E+02  0.71161673236E+02  0.26090868057E+03  0.12500000000E+03 0.  0.
         25    1    1    2    0    0 -0.16782584527E+03 -0.28190901885E+02  0.40993360231E+02  0.21509462306E+03  0.12500000000E+03 0.  0.
</event>
<event>
 5    0  0.5786117E-005  0.2755972E+03  0.7546771E-02  0.1098118E+00
         21   -1    0    0  502  501  0.00000000000E+00  0.00000000000E+00  0.64910304292E+02  0.64910304292E+02  0.00000000000E+00 0.  1.
         21   -1    0    0  501  502 -0.00000000000E+00 -0.00000000000E+00 -0.11701350444E+04  0.11701350444E+04  0.00000000000E+00 0.  1.
         25    1    1    2    0    0  0.13449468875E+03 -0.20956273039E+02 -0.44141597117E+03  0.47854053776E+03  0.12500000000E+03 0.  0.
         25    1    1    2    0    0 -0.26921694735E+02 -0.32724585356E+02 -0.97113631550E+02  0.16386498579E+03  0.12500000000E+03 0.  0.
         25    1    1    2    0    0 -0.10757299401E+03  0.53680858395E+02 -0.56669513735E+03  0.59263982510E+03  0.12500000000E+03 0.  0.
</event>
<event>
 5    0  0.5786117E-005  0.2550072E+03  0.7546771E-02  0.1110181E+00
         21   -1    0    0  502  501  0.00000000000E+00  0.00000000000E+00  0.99221817732E+03  0.99221817732E+03  0.00000000000E+00 0.  1.
         21   -1    0    0  501  502 -0.00000000000E+00 -0.00000000000E+00 -0.65538697657E+02  0.65538697657E+02  0.00000000000E+00 0.  1.
         25    1    1    2    0    0  0.24270678016E+02  0.79219816771E+02  0.57351087837E+03  0.59279387040E+03  0.12500000000E+03 0.  0.
         25    1    1    2    0    0  0.59898738494E+02 -0.37056621803E+02  0.19864929897E+03  0.24504611009E+03  0.12500000000E+03 0.  0.
         25    1    1    2    0    0 -0.84169416510E+02 -0.42163194968E+02  0.15451930233E+03  0.21991689448E+03  0.12500000000E+03 0.  0.
</event>
<event>
 5    0  0.6550706E-005  0.4065242E+03  0.7546771E-02  0.1041544E+00
         21   -1    0    0  502  501  0.00000000000E+00  0.00000000000E+00  0.12197559342E+03  0.12197559342E+03  0.00000000000E+00 0.  1.
         21   -1    0    0  501  502 -0.00000000000E+00 -0.00000000000E+00 -0.13548771861E+04  0.13548771861E+04  0.00000000000E+00 0.  1.
         25    1    1    2    0    0  0.86066409801E+02 -0.11784492906E+03 -0.10844604228E+03  0.22063634852E+03  0.12500000000E+03 0.  0.
         25    1    1    2    0    0  0.11607698250E+03 -0.57555695913E+02 -0.78885189642E+03  0.80913462321E+03  0.12500000000E+03 0.  0.
         25    1    1    2    0    0 -0.20214339230E+03  0.17540062497E+03 -0.33560365399E+03  0.44708180780E+03  0.12500000000E+03 0.  0.
</event>
<event>
 5    0  0.5786117E-005  0.3317126E+03  0.7546771E-02  0.1070382E+00
         21   -1    0    0  502  501  0.00000000000E+00  0.00000000000E+00  0.13846540792E+04  0.13846540792E+04  0.00000000000E+00 0. -1.
         21   -1    0    0  501  502 -0.00000000000E+00 -0.00000000000E+00 -0.79466247318E+02  0.79466247318E+02  0.00000000000E+00 0. -1.
         25    1    1    2    0    0 -0.85397900536E+02  0.63550737478E+02  0.85946394887E+02  0.18531940115E+03  0.12500000000E+03 0.  0.
         25    1    1    2    0    0  0.28627573341E+02 -0.34083339836E+02  0.10524189494E+04  0.10607506102E+04  0.12500000000E+03 0.  0.
         25    1    1    2    0    0  0.56770327195E+02 -0.29467397641E+02  0.16682248763E+03  0.21805031518E+03  0.12500000000E+03 0.  0.
</event>
<event>
 5    0  0.5786117E-005  0.2499292E+03  0.7546771E-02  0.1113350E+00
         21   -1    0    0  502  501  0.00000000000E+00  0.00000000000E+00  0.12373105495E+03  0.12373105495E+03  0.00000000000E+00 0. -1.
         21   -1    0    0  501  502 -0.00000000000E+00 -0.00000000000E+00 -0.50484189081E+03  0.50484189081E+03  0.00000000000E+00 0. -1.
         25    1    1    2    0    0 -0.78048595743E+01 -0.30400142906E+01 -0.16126125948E+03  0.20420663879E+03  0.12500000000E+03 0.  0.
         25    1    1    2    0    0 -0.84789176510E+02 -0.89553366416E+02 -0.68794424789E+02  0.18859131150E+03  0.12500000000E+03 0.  0.
         25    1    1    2    0    0  0.92594036084E+02  0.92593380707E+02 -0.15105515159E+03  0.23577499548E+03  0.12500000000E+03 0.  0.
</event>
<event>
 5    0  0.5786117E-005  0.2472988E+03  0.7546771E-02  0.1115024E+00
         21   -1    0    0  502  501  0.00000000000E+00  0.00000000000E+00  0.89585041265E+02  0.89585041265E+02  0.00000000000E+00 0.  1.
         21   -1    0    0  501  502 -0.00000000000E+00 -0.00000000000E+00 -0.68266654338E+03  0.68266654338E+03  0.00000000000E+00 0.  1.
         25    1    1    2    0    0  0.54230647713E+02 -0.64600588027E+02 -0.11596576232E+03  0.19022948550E+03  0.12500000000E+03 0.  0.
         25    1    1    2    0    0  0.12956227270E+02  0.12475382892E+03 -0.28756520137E+03  0.33771308339E+03  0.12500000000E+03 0.  0.
         25    1    1    2    0    0 -0.67186874983E+02 -0.60153240889E+02 -0.18955053842E+03  0.24430901575E+03  0.12500000000E+03 0.  0.
</event>
<event>
 5    0  0.5786117E-005  0.3450044E+03  0.7546771E-02  0.1064684E+00
         21   -1    0    0  502  501  0.00000000000E+00  0.00000000000E+00  0.14915263175E+03  0.14915263175E+03  0.00000000000E+00 0. -1.
         21   -1    0    0  501  502 -0.00000000000E+00 -0.00000000000E+00 -0.79802834520E+03  0.79802834520E+03  0.00000000000E+00 0. -1.
         25    1    1    2    0    0  0.25755986513E+02 -0.10649192585E+03 -0.17266095389E+03  0.23966790797E+03  0.12500000000E+03 0.  0.
         25    1    1    2    0    0 -0.93998924741E+02 -0.14844372928E+03 -0.28921708280E+03  0.36075318377E+03  0.12500000000E+03 0.  0.
         25    1    1    2    0    0  0.68242938228E+02  0.25493565514E+03 -0.18699767676E+03  0.34675988521E+03  0.12500000000E+03 0.  0.
</event>
<event>
 5    0  0.5786117E-005  0.5154006E+03  0.7546771E-02  0.1009835E+00
         21   -1    0    0  502  501  0.00000000000E+00  0.00000000000E+00  0.14832591182E+04  0.14832591182E+04  0.00000000000E+00 0.  1.
         21   -1    0    0  501  502 -0.00000000000E+00 -0.00000000000E+00 -0.17909063778E+03  0.17909063778E+03  0.00000000000E+00 0.  1.
         25    1    1    2    0    0 -0.19627793664E+03 -0.52459252247E+02  0.83354096132E+03  0.86700203907E+03  0.12500000000E+03 0.  0.
         25    1    1    2    0    0 -0.45015669371E+02  0.25165120701E+03  0.31407328647E+03  0.42381808569E+03  0.12500000000E+03 0.  0.
         25    1    1    2    0    0  0.24129360601E+03 -0.19919195477E+03  0.15655423267E+03  0.37152963127E+03  0.12500000000E+03 0.  0.
</event>
<event>
 5    0  0.5786117E-005  0.2269777E+03  0.7546771E-02  0.1128785E+00
         21   -1    0    0  502  501  0.00000000000E+00  0.00000000000E+00  0.22786720099E+04  0.22786720099E+04  0.00000000000E+00 0.  1.
         21   -1    0    0  501  502 -0.00000000000E+00 -0.00000000000E+00 -0.22609160373E+02  0.22609160373E+02  0.00000000000E+00 0.  1.
         25    1    1    2    0    0 -0.72557960235E+02 -0.48916218126E+02  0.46747741467E+03  0.49174951675E+03  0.12500000000E+03 0.  0.
         25    1    1    2    0    0  0.78013873720E+01  0.10029214667E+02  0.95786663993E+03  0.96607191590E+03  0.12500000000E+03 0.  0.
         25    1    1    2    0    0  0.64756572863E+02  0.38887003459E+02  0.83071879489E+03  0.84345973760E+03  0.12500000000E+03 0.  0.
</event>
<event>
 5    0  0.5786117E-005  0.4445652E+03  0.7546771E-02  0.1029355E+00
         21   -1    0    0  502  501  0.00000000000E+00  0.00000000000E+00  0.44317965233E+03  0.44317965233E+03  0.00000000000E+00 0. -1.
         21   -1    0    0  501  502 -0.00000000000E+00 -0.00000000000E+00 -0.44595501996E+03  0.44595501996E+03  0.00000000000E+00 0. -1.
         25    1    1    2    0    0  0.18466788752E+03  0.20272433832E+03 -0.47939143708E+01  0.30140897074E+03  0.12500000000E+03 0.  0.
         25    1    1    2    0    0  0.79251428260E+02  0.26243924451E+02  0.12635097288E+03  0.19636471373E+03  0.12500000000E+03 0.  0.
         25    1    1    2    0    0 -0.26391931578E+03 -0.22896826277E+03 -0.12433242613E+03  0.39136098782E+03  0.12500000000E+03 0.  0.
</event>
<event>
 5    0  0.5786117E-005  0.3243475E+03  0.7546771E-02  0.1073666E+00
         21   -1    0    0  502  501  0.00000000000E+00  0.00000000000E+00  0.23289579726E+03  0.23289579726E+03  0.00000000000E+00 0.  1.
         21   -1    0    0  501  502 -0.00000000000E+00 -0.00000000000E+00 -0.45170986497E+03  0.45170986497E+03  0.00000000000E+00 0.  1.
         25    1    1    2    0    0 -0.32496817121E+02 -0.80045280043E+02 -0.77414115191E+02  0.17053221165E+03  0.12500000000E+03 0.  0.
         25    1    1    2    0    0 -0.19078484877E+03  0.37254992705E+02 -0.97982038926E+02  0.25102245508E+03  0.12500000000E+03 0.  0.
         25    1    1    2    0    0  0.22328166589E+03  0.42790287338E+02 -0.43417913590E+02  0.26305099550E+03  0.12500000000E+03 0.  0.
</event>
<event>
 5    0  0.5786117E-005  0.2566015E+03  0.7546771E-02  0.1109202E+00
         21   -1    0    0  502  501  0.00000000000E+00  0.00000000000E+00  0.22198752640E+04  0.22198752640E+04  0.00000000000E+00 0. -1.
         21   -1    0    0  501  502 -0.00000000000E+00 -0.00000000000E+00 -0.29661276715E+02  0.29661276715E+02  0.00000000000E+00 0. -1.
         25    1    1    2    0    0 -0.50973453667E+02  0.17768934810E+02  0.46635655909E+03  0.48582658246E+03  0.12500000000E+03 0.  0.
         25    1    1    2    0    0  0.37341817176E+02  0.24086058297E+02  0.24232777865E+03  0.27626491239E+03  0.12500000000E+03 0.  0.
         25    1    1    2    0    0  0.13631636490E+02 -0.41854993107E+02  0.14815296496E+04  0.14874450459E+04  0.12500000000E+03 0.  0.
</event>
<event>
 5    0  0.5786117E-005  0.3824136E+03  0.7546771E-02  0.1050045E+00
         21   -1    0    0  502  501  0.00000000000E+00  0.00000000000E+00  0.32200922564E+03  0.32200922564E+03  0.00000000000E+00 0. -1.
         21   -1    0    0  501  502 -0.00000000000E+00 -0.00000000000E+00 -0.45414906352E+03  0.45414906352E+03  0.00000000000E+00 0. -1.
         25    1    1    2    0    0 -0.70704297673E+02  0.51544939794E+02  0.33336094718E+02  0.15618026040E+03  0.12500000000E+03 0.  0.
         25    1    1    2    0    0 -0.19767910739E+02 -0.21807981741E+03 -0.27053434360E+03  0.36981537032E+03  0.12500000000E+03 0.  0.
         25    1    1    2    0    0  0.90472208412E+02  0.16653487762E+03  0.10505841100E+03  0.25016265845E+03  0.12500000000E+03 0.  0.
</event>
<event>
 5    0  0.5786117E-005  0.2388952E+03  0.7546771E-02  0.1120531E+00
         21   -1    0    0  502  501  0.00000000000E+00  0.00000000000E+00  0.10982420130E+04  0.10982420130E+04  0.00000000000E+00 0.  1.
         21   -1    0    0  501  502 -0.00000000000E+00 -0.00000000000E+00 -0.51965683362E+02  0.51965683362E+02  0.00000000000E+00 0.  1.
         25    1    1    2    0    0  0.10653359266E+03 -0.63132496826E+02  0.48389071457E+03  0.51488866968E+03  0.12500000000E+03 0.  0.
         25    1    1    2    0    0 -0.19814484129E+02  0.46091182281E+02  0.33639751369E+03  0.36236072923E+03  0.12500000000E+03 0.  0.
         25    1    1    2    0    0 -0.86719108529E+02  0.17041314546E+02  0.22598810137E+03  0.27295829745E+03  0.12500000000E+03 0.  0.
</event>
<event>
 5    0  0.5786117E-005  0.3580702E+03  0.7546771E-02  0.1059351E+00
         21   -1    0    0  502  501  0.00000000000E+00  0.00000000000E+00  0.15874596811E+03  0.15874596811E+03  0.00000000000E+00 0. -1.
         21   -1    0    0  501  502 -0.00000000000E+00 -0.00000000000E+00 -0.80766936284E+03  0.80766936284E+03  0.00000000000E+00 0. -1.
         25    1    1    2    0    0  0.21316147316E+03  0.75374090170E+02 -0.23981857827E+03  0.35250108878E+03  0.12500000000E+03 0.  0.
         25    1    1    2    0    0 -0.74975809700E+02  0.10451362485E+03 -0.83442715504E+02  0.19781849406E+03  0.12500000000E+03 0.  0.
         25    1    1    2    0    0 -0.13818566346E+03 -0.17988771502E+03 -0.32566210095E+03  0.41609574811E+03  0.12500000000E+03 0.  0.
</event>
<event>
 5    0  0.5786117E-005  0.2832576E+03  0.7546771E-02  0.1093923E+00
         21   -1    0    0  502  501  0.00000000000E+00  0.00000000000E+00  0.13957214319E+03  0.13957214319E+03  0.00000000000E+00 0. -1.
         21   -1    0    0  501  502 -0.00000000000E+00 -0.00000000000E+00 -0.57486307220E+03  0.57486307220E+03  0.00000000000E+00 0. -1.
         25    1    1    2    0    0  0.58271668121E+02  0.29632185295E+02 -0.88146040546E+00  0.14106534189E+03  0.12500000000E+03 0.  0.
         25    1    1    2    0    0  0.45598499125E+02  0.72576716348E+02 -0.30865530975E+03  0.34386000511E+03  0.12500000000E+03 0.  0.
         25    1    1    2    0    0 -0.10387016725E+03 -0.10220890164E+03 -0.12575415884E+03  0.22950986838E+03  0.12500000000E+03 0.  0.
</event>
<event>
 5    0  0.5786117E-005  0.2925632E+03  0.7546771E-02  0.1089018E+00
         21   -1    0    0  502  501  0.00000000000E+00  0.00000000000E+00  0.13125885915E+03  0.13125885915E+03  0.00000000000E+00 0.  1.
         21   -1    0    0  501  502 -0.00000000000E+00 -0.00000000000E+00 -0.65209502481E+03  0.65209502481E+03  0.00000000000E+00 0.  1.
         25    1    1    2    0    0 -0.86350496984E+02 -0.10758999701E+03 -0.24128500257E+03  0.30475476740E+03  0.12500000000E+03 0.  0.
         25    1    1    2    0    0  0.12348418524E+03  0.15188146684E+03 -0.10139578745E+03  0.25342144678E+03  0.12500000000E+03 0.  0.
         25    1    1    2    0    0 -0.37133688261E+02 -0.44291469827E+02 -0.17815537563E+03  0.22517766978E+03  0.12500000000E+03 0.  0.
</event>
<event>
 5    0  0.5786117E-005  0.3168686E+03  0.7546771E-02  0.1077100E+00
         21   -1    0    0  502  501  0.00000000000E+00  0.00000000000E+00  0.11377526563E+04  0.11377526563E+04  0.00000000000E+00 0.  1.
         21   -1    0    0  501  502 -0.00000000000E+00 -0.00000000000E+00 -0.88249143011E+02  0.88249143011E+02  0.00000000000E+00 0.  1.
         25    1    1    2    0    0 -0.15547239575E+03  0.10157761536E+03  0.31985421141E+03  0.39041182659E+03  0.12500000000E+03 0.  0.
         25    1    1    2    0    0  0.69151714521E+02  0.46152212862E+02  0.50470494297E+03  0.52655870123E+03  0.12500000000E+03 0.  0.
         25    1    1    2    0    0  0.86320681225E+02 -0.14772982822E+03  0.22494435885E+03  0.30903127145E+03  0.12500000000E+03 0.  0.
</event>
<event>
 5    0  0.5786117E-005  0.4365173E+03  0.7546771E-02  0.1031821E+00
         21   -1    0    0  502  501  0.00000000000E+00  0.00000000000E+00  0.12403362111E+03  0.12403362111E+03  0.00000000000E+00 0.  1.
         21   -1    0    0  501  502 -0.00000000000E+00 -0.00000000000E+00 -0.15362556543E+04  0.15362556543E+04  0.00000000000E+00 0.  1.
         25    1    1    2    0    0  0.85607778902E+02  0.21314102288E+03 -0.31989133763E+03  0.41317460636E+03  0.12500000000E+03 0.  0.
         25    1    1    2    0    0 -0.21883274033E+03 -0.24566065574E+03 -0.41161489396E+03  0.54156139721E+03  0.12500000000E+03 0.  0.
         25    1    1    2    0    0  0.13322496143E+03  0.32519632854E+02 -0.68071580163E+03  0.70555327188E+03  0.12500000000E+03 0.  0.
</event>
<event>
 5    0  0.5786117E-005  0.4651297E+03  0.7546771E-02  0.1023304E+00
         21   -1    0    0  502  501  0.00000000000E+00  0.00000000000E+00  0.24615340776E+04  0.24615340776E+04  0.00000000000E+00 0. -1.
         21   -1    0    0  501  502 -0.00000000000E+00 -0.00000000000E+00 -0.87890578704E+02  0.87890578704E+02  0.00000000000E+00 0. -1.
         25    1    1    2    0    0  0.38660912034E+03 -0.89491350419E+02  0.14593731508E+04  0.15175211059E+04  0.12500000000E+03 0.  0.
         25    1    1    2    0    0 -0.19365338275E+03  0.88540418093E+01  0.37689019553E+03  0.44187243203E+03  0.12500000000E+03 0.  0.
         25    1    1    2    0    0 -0.19295573759E+03  0.80637308610E+02  0.53738015254E+03  0.59003111829E+03  0.12500000000E+03 0.  0.
</event>
<event>
 5    0  0.5786117E-005  0.3907301E+03  0.7546771E-02  0.1047038E+00
         21   -1    0    0  502  501  0.00000000000E+00  0.00000000000E+00  0.32798193622E+03  0.32798193622E+03  0.00000000000E+00 0.  1.
         21   -1    0    0  501  502 -0.00000000000E+00 -0.00000000000E+00 -0.46548302677E+03  0.46548302677E+03  0.00000000000E+00 0.  1.
         25    1    1    2    0    0 -0.13004082060E+03  0.20105814128E+03  0.11743585996E+02  0.27036623866E+03  0.12500000000E+03 0.  0.
         25    1    1    2    0    0  0.73930261821E+02  0.44319010119E+01  0.96712334625E+02  0.17453825090E+03  0.12500000000E+03 0.  0.
         25    1    1    2    0    0  0.56110558783E+02 -0.20549004229E+03 -0.24595701117E+03  0.34856047342E+03  0.12500000000E+03 0.  0.
</event>
<event>
 5    0  0.5786117E-005  0.2810841E+03  0.7546771E-02  0.1095098E+00
         21   -1    0    0  502  501  0.00000000000E+00  0.00000000000E+00  0.71963987512E+03  0.71963987512E+03  0.00000000000E+00 0. -1.
         21   -1    0    0  501  502 -0.00000000000E+00 -0.00000000000E+00 -0.10978860691E+03  0.10978860691E+03  0.00000000000E+00 0. -1.
         25    1    1    2    0    0 -0.16866491905E+02  0.44289473380E+02  0.20896534940E+03  0.24806763846E+03  0.12500000000E+03 0.  0.
         25    1    1    2    0    0 -0.12606315516E+03 -0.11876233229E+03  0.16768864695E+03  0.27155274437E+03  0.12500000000E+03 0.  0.
         25    1    1    2    0    0  0.14292964706E+03  0.74472858914E+02  0.23319727186E+03  0.30980809920E+03  0.12500000000E+03 0.  0.
</event>
<event>
 5    0  0.5786117E-005  0.4132273E+03  0.7546771E-02  0.1039293E+00
         21   -1    0    0  502  501  0.00000000000E+00  0.00000000000E+00  0.57874931057E+03  0.57874931057E+03  0.00000000000E+00 0. -1.
         21   -1    0    0  501  502 -0.00000000000E+00 -0.00000000000E+00 -0.29504457052E+03  0.29504457052E+03  0.00000000000E+00 0. -1.
         25    1    1    2    0    0  0.81889177517E+02 -0.74163683290E+02  0.93669932470E+02  0.19132471237E+03  0.12500000000E+03 0.  0.
         25    1    1    2    0    0  0.90782948995E+02  0.26304658599E+03  0.24639402554E+03  0.39213526499E+03  0.12500000000E+03 0.  0.
         25    1    1    2    0    0 -0.17267212651E+03 -0.18888290270E+03 -0.56359217970E+02  0.29033390373E+03  0.12500000000E+03 0.  0.
</event>
<event>
 5    0  0.5786117E-005  0.3647805E+03  0.7546771E-02  0.1056707E+00
         21   -1    0    0  502  501  0.00000000000E+00  0.00000000000E+00  0.18677414554E+03  0.18677414554E+03  0.00000000000E+00 0.  1.
         21   -1    0    0  501  502 -0.00000000000E+00 -0.00000000000E+00 -0.71243709188E+03  0.71243709188E+03  0.00000000000E+00 0.  1.
         25    1    1    2    0    0 -0.24803917451E+02  0.44072884865E+02 -0.35087298518E+02  0.13933331267E+03  0.12500000000E+03 0.  0.
         25    1    1    2    0    0 -0.20876293721E+03  0.10805684204E+03 -0.29387316736E+03  0.39654089771E+03  0.12500000000E+03 0.  0.
         25    1    1    2    0    0  0.23356685466E+03 -0.15212972691E+03 -0.19670248047E+03  0.36333702705E+03  0.12500000000E+03 0.  0.
</event>
<event>
 5    0  0.5786117E-005  0.2140763E+03  0.7546771E-02  0.1138378E+00
         21   -1    0    0  502  501  0.00000000000E+00  0.00000000000E+00  0.15236855897E+03  0.15236855897E+03  0.00000000000E+00 0.  1.
         21   -1    0    0  501  502 -0.00000000000E+00 -0.00000000000E+00 -0.30077510220E+03  0.30077510220E+03  0.00000000000E+00 0.  1.
         25    1    1    2    0    0  0.92244797877E+01 -0.31495913665E+02  0.10609164329E+02  0.12967126888E+03  0.12500000000E+03 0.  0.
         25    1    1    2    0    0 -0.29137980304E+02  0.27971598349E+02 -0.15807657590E+02  0.13231142902E+03  0.12500000000E+03 0.  0.
         25    1    1    2    0    0  0.19913500516E+02  0.35243153159E+01 -0.14320804998E+03  0.19116096327E+03  0.12500000000E+03 0.  0.
</event>
<event>
 5    0  0.5786117E-005  0.3201132E+03  0.7546771E-02  0.1075597E+00
         21   -1    0    0  502  501  0.00000000000E+00  0.00000000000E+00  0.11838188741E+04  0.11838188741E+04  0.00000000000E+00 0.  1.
         21   -1    0    0  501  502 -0.00000000000E+00 -0.00000000000E+00 -0.86560933154E+02  0.86560933154E+02  0.00000000000E+00 0.  1.
         25    1    1    2    0    0  0.26342445482E+01  0.18617243933E+03  0.37903324911E+03  0.44040699398E+03  0.12500000000E+03 0.  0.
         25    1    1    2    0    0  0.10966362364E+03 -0.15370147617E+03  0.52559245183E+03  0.57229597198E+03  0.12500000000E+03 0.  0.
         25    1    1    2    0    0 -0.11229786819E+03 -0.32470963160E+02  0.19263223998E+03  0.25767684127E+03  0.12500000000E+03 0.  0.
</event>
<event>
 5    0  0.5786117E-005  0.2996957E+03  0.7546771E-02  0.1085393E+00
         21   -1    0    0  502  501  0.00000000000E+00  0.00000000000E+00  0.14505407648E+04  0.14505407648E+04  0.00000000000E+00 0. -1.
         21   -1    0    0  501  502 -0.00000000000E+00 -0.00000000000E+00 -0.61920019928E+02  0.61920019928E+02  0.00000000000E+00 0. -1.
         25    1    1    2    0    0 -0.16562935449E+03 -0.11836326138E+03  0.67797956202E+03  0.71883532970E+03  0.12500000000E+03 0.  0.
         25    1    1    2    0    0  0.16255706230E+03  0.78388828119E+02  0.39774595544E+03  0.45430876279E+03  0.12500000000E+03 0.  0.
         25    1    1    2    0    0  0.30722921875E+01  0.39974433259E+02  0.31289522741E+03  0.33931669224E+03  0.12500000000E+03 0.  0.
</event>
<event>
 5    0  0.5786117E-005  0.3152559E+03  0.7546771E-02  0.1077854E+00
         21   -1    0    0  502  501  0.00000000000E+00  0.00000000000E+00  0.18854305696E+03  0.18854305696E+03  0.00000000000E+00 0. -1.
         21   -1    0    0  501  502 -0.00000000000E+00 -0.00000000000E+00 -0.52712763660E+03  0.52712763660E+03  0.00000000000E+00 0. -1.
         25    1    1    2    0    0 -0.10322518433E+03  0.14711756907E+02  0.13784062721E+02  0.16336117916E+03  0.12500000000E+03 0.  0.
         25    1    1    2    0    0 -0.10119636424E+03 -0.42273099477E+02 -0.22432242080E+03  0.27923693801E+03  0.12500000000E+03 0.  0.
         25    1    1    2    0    0  0.20442154857E+03  0.27561342570E+02 -0.12804622156E+03  0.27307257640E+03  0.12500000000E+03 0.  0.
</event>
<event>
 5    0  0.5786117E-005  0.3846816E+03  0.7546771E-02  0.1049217E+00
         21   -1    0    0  502  501  0.00000000000E+00  0.00000000000E+00  0.40414327769E+03  0.40414327769E+03  0.00000000000E+00 0.  1.
         21   -1    0    0  501  502 -0.00000000000E+00 -0.00000000000E+00 -0.36615706308E+03  0.36615706308E+03  0.00000000000E+00 0.  1.
         25    1    1    2    0    0 -0.79938474805E+02  0.27718480203E+03 -0.16936470496E+01  0.31440331212E+03  0.12500000000E+03 0.  0.
         25    1    1    2    0    0  0.13460997615E+03 -0.22377261927E+03 -0.34692053501E+02  0.29158629835E+03  0.12500000000E+03 0.  0.
         25    1    1    2    0    0 -0.54671501343E+02 -0.53412182764E+02  0.74371915156E+02  0.16431073030E+03  0.12500000000E+03 0.  0.
</event>
<event>
 5    0  0.5786117E-005  0.2441874E+03  0.7546771E-02  0.1117034E+00
         21   -1    0    0  502  501  0.00000000000E+00  0.00000000000E+00  0.18759623769E+04  0.18759623769E+04  0.00000000000E+00 0.  1.
         21   -1    0    0  501  502 -0.00000000000E+00 -0.00000000000E+00 -0.31785011681E+02  0.31785011681E+02  0.00000000000E+00 0.  1.
         25    1    1    2    0    0  0.16474562443E+02 -0.25771363935E+02  0.92212711855E+03  0.93106336904E+03  0.12500000000E+03 0.  0.
         25    1    1    2    0    0  0.97795518044E+01 -0.50213419447E+02  0.67496376254E+03  0.68834446890E+03  0.12500000000E+03 0.  0.
         25    1    1    2    0    0 -0.26254114247E+02  0.75984783383E+02  0.24708648411E+03  0.28833955062E+03  0.12500000000E+03 0.  0.
</event>
<event>
 5    0  0.5786117E-005  0.2365317E+03  0.7546771E-02  0.1122125E+00
         21   -1    0    0  502  501  0.00000000000E+00  0.00000000000E+00  0.61291988077E+03  0.61291988077E+03  0.00000000000E+00 0.  1.
         21   -1    0    0  501  502 -0.00000000000E+00 -0.00000000000E+00 -0.91279841252E+02  0.91279841252E+02  0.00000000000E+00 0.  1.
         25    1    1    2    0    0 -0.20594780025E+02  0.10625824590E+03  0.17594913807E+03  0.24144990986E+03  0.12500000000E+03 0.  0.
         25    1    1    2    0    0  0.30786073284E+02 -0.16367464035E+02  0.71607918681E+02  0.14821730737E+03  0.12500000000E+03 0.  0.
         25    1    1    2    0    0 -0.10191293259E+02 -0.89890781868E+02  0.27408298277E+03  0.31453250479E+03  0.12500000000E+03 0.  0.
</event>
<event>
 5    0  0.5786117E-005  0.2254970E+03  0.7546771E-02  0.1129850E+00
         21   -1    0    0  502  501  0.00000000000E+00  0.00000000000E+00  0.12517053174E+03  0.12517053174E+03  0.00000000000E+00 0.  1.
         21   -1    0    0  501  502 -0.00000000000E+00 -0.00000000000E+00 -0.40623710886E+03  0.40623710886E+03  0.00000000000E+00 0.  1.
         25    1    1    2    0    0  0.15413538154E+01  0.41039717562E+02  0.63781515335E+01  0.13172818607E+03  0.12500000000E+03 0.  0.
         25    1    1    2    0    0  0.47046937735E+02  0.93287756357E+01 -0.12620802727E+03  0.18399431120E+03  0.12500000000E+03 0.  0.
         25    1    1    2    0    0 -0.48588291550E+02 -0.50368493197E+02 -0.16123670138E+03  0.21568514333E+03  0.12500000000E+03 0.  0.
</event>
<event>
 5    0  0.5786117E-005  0.3975150E+03  0.7546771E-02  0.1044644E+00
         21   -1    0    0  502  501  0.00000000000E+00  0.00000000000E+00  0.84231365043E+02  0.84231365043E+02  0.00000000000E+00 0. -1.
         21   -1    0    0  501  502 -0.00000000000E+00 -0.00000000000E+00 -0.18760012702E+04  0.18760012702E+04  0.00000000000E+00 0. -1.
         25    1    1    2    0    0 -0.23270850868E+03 -0.92597736469E+02 -0.12959212026E+04  0.13258070576E+04  0.12500000000E+03 0.  0.
         25    1    1    2    0    0  0.16210793110E+03  0.69427480055E+02 -0.16151274314E+03  0.26983425007E+03  0.12500000000E+03 0.  0.
         25    1    1    2    0    0  0.70600577573E+02  0.23170256415E+02 -0.33433595944E+03  0.36459132753E+03  0.12500000000E+03 0.  0.
</event>
<event>
 5    0  0.5790272E-005  0.2844115E+03  0.7546771E-02  0.1093304E+00
         21   -1    0    0  502  501  0.00000000000E+00  0.00000000000E+00  0.16017190958E+03  0.16017190958E+03  0.00000000000E+00 0.  1.
         21   -1    0    0  501  502 -0.00000000000E+00 -0.00000000000E+00 -0.50501911709E+03  0.50501911709E+03  0.00000000000E+00 0.  1.
         25    1    1    2    0    0  0.88101631883E+02 -0.10624144587E+02 -0.50737037275E+01  0.15338028706E+03  0.12500000000E+03 0.  0.
         25    1    1    2    0    0  0.76383717020E+02  0.32975150682E+02 -0.23555149916E+03  0.27934090560E+03  0.12500000000E+03 0.  0.
         25    1    1    2    0    0 -0.16448534890E+03 -0.22351006095E+02 -0.10422200462E+03  0.23246983401E+03  0.12500000000E+03 0.  0.
</event>
<event>
 5    0  0.5786117E-005  0.2560534E+03  0.7546771E-02  0.1109538E+00
         21   -1    0    0  502  501  0.00000000000E+00  0.00000000000E+00  0.10343565287E+03  0.10343565287E+03  0.00000000000E+00 0.  1.
         21   -1    0    0  501  502 -0.00000000000E+00 -0.00000000000E+00 -0.63385644287E+03  0.63385644287E+03  0.00000000000E+00 0.  1.
         25    1    1    2    0    0  0.41647977273E-02  0.58992853740E+02 -0.10515131379E+03  0.17367197702E+03  0.12500000000E+03 0.  0.
         25    1    1    2    0    0 -0.24565660628E+02  0.97646289448E+02 -0.13331494277E+03  0.20865316554E+03  0.12500000000E+03 0.  0.
         25    1    1    2    0    0  0.24561495830E+02 -0.15663914319E+03 -0.29195453345E+03  0.35496695319E+03  0.12500000000E+03 0.  0.
</event>
<event>
 5    0  0.5786117E-005  0.2691269E+03  0.7546771E-02  0.1101780E+00
         21   -1    0    0  502  501  0.00000000000E+00  0.00000000000E+00  0.27952263479E+03  0.27952263479E+03  0.00000000000E+00 0.  1.
         21   -1    0    0  501  502 -0.00000000000E+00 -0.00000000000E+00 -0.25911778458E+03  0.25911778458E+03  0.00000000000E+00 0.  1.
         25    1    1    2    0    0 -0.91251000038E+02 -0.10611302701E+03  0.16525212753E+02  0.18837410163E+03  0.12500000000E+03 0.  0.
         25    1    1    2    0    0  0.78753710018E+02 -0.41406681880E+02 -0.21194531951E+02  0.15488985871E+03  0.12500000000E+03 0.  0.
         25    1    1    2    0    0  0.12497290021E+02  0.14751970889E+03  0.25074169410E+02  0.19537645903E+03  0.12500000000E+03 0.  0.
</event>
<event>
 5    0  0.5786117E-005  0.2827012E+03  0.7546771E-02  0.1094223E+00
         21   -1    0    0  502  501  0.00000000000E+00  0.00000000000E+00  0.41708206845E+03  0.41708206845E+03  0.00000000000E+00 0.  1.
         21   -1    0    0  501  502 -0.00000000000E+00 -0.00000000000E+00 -0.19161685658E+03  0.19161685658E+03  0.00000000000E+00 0.  1.
         25    1    1    2    0    0 -0.56343996176E+02  0.17317240906E+01 -0.55297292927E+02  0.14785274897E+03  0.12500000000E+03 0.  0.
         25    1    1    2    0    0  0.95349293504E+02  0.61964651589E+02  0.26511713805E+03  0.31439338846E+03  0.12500000000E+03 0.  0.
         25    1    1    2    0    0 -0.39005297328E+02 -0.63696375680E+02  0.15645366743E+02  0.14645278760E+03  0.12500000000E+03 0.  0.
</event>
<event>
 5    0  0.5786117E-005  0.2458628E+03  0.7546771E-02  0.1115948E+00
         21   -1    0    0  502  501  0.00000000000E+00  0.00000000000E+00  0.43064721282E+03  0.43064721282E+03  0.00000000000E+00 0. -1.
         21   -1    0    0  501  502 -0.00000000000E+00 -0.00000000000E+00 -0.14036666912E+03  0.14036666912E+03  0.00000000000E+00 0. -1.
         25    1    1    2    0    0 -0.16955288525E+02 -0.22787648268E+02 -0.36173579926E+02  0.13319266724E+03  0.12500000000E+03 0.  0.
         25    1    1    2    0    0 -0.39632615414E+02 -0.16142686492E+02  0.84116050570E+02  0.15662643613E+03  0.12500000000E+03 0.  0.
         25    1    1    2    0    0  0.56587903938E+02  0.38930334760E+02  0.24233807306E+03  0.28119477856E+03  0.12500000000E+03 0.  0.
</event>
<event>
 5    0  0.5786117E-005  0.3079855E+03  0.7546771E-02  0.1081315E+00
         21   -1    0    0  502  501  0.00000000000E+00  0.00000000000E+00  0.27313934967E+03  0.27313934967E+03  0.00000000000E+00 0.  1.
         21   -1    0    0  501  502 -0.00000000000E+00 -0.00000000000E+00 -0.34727723064E+03  0.34727723064E+03  0.00000000000E+00 0.  1.
         25    1    1    2    0    0  0.13386257893E+03 -0.57702593396E+02 -0.28886141420E+02  0.19418596367E+03  0.12500000000E+03 0.  0.
         25    1    1    2    0    0  0.21716913940E+02  0.28681530484E+02 -0.15035628028E+03  0.19881213635E+03  0.12500000000E+03 0.  0.
         25    1    1    2    0    0 -0.15557949287E+03  0.29021062912E+02  0.10510454073E+03  0.22741848029E+03  0.12500000000E+03 0.  0.
</event>
<event>
 5    0  0.5786117E-005  0.2305101E+03  0.7546771E-02  0.1126281E+00
         21   -1    0    0  502  501  0.00000000000E+00  0.00000000000E+00  0.10046037504E+03  0.10046037504E+03  0.00000000000E+00 0.  1.
         21   -1    0    0  501  502 -0.00000000000E+00 -0.00000000000E+00 -0.52891418520E+03  0.52891418520E+03  0.00000000000E+00 0.  1.
         25    1    1    2    0    0  0.19391508488E+02  0.66008219901E+02 -0.67154887667E+02  0.15769557582E+03  0.12500000000E+03 0.  0.
         25    1    1    2    0    0 -0.35324219989E+00  0.14487273823E+02 -0.69796850993E+02  0.14389790232E+03  0.12500000000E+03 0.  0.
         25    1    1    2    0    0 -0.19038266288E+02 -0.80495493724E+02 -0.29150207150E+03  0.32778108210E+03  0.12500000000E+03 0.  0.
</event>
<event>
 5    0  0.5786117E-005  0.2476401E+03  0.7546771E-02  0.1114805E+00
         21   -1    0    0  502  501  0.00000000000E+00  0.00000000000E+00  0.91999203518E+03  0.91999203518E+03  0.00000000000E+00 0.  1.
         21   -1    0    0  501  502 -0.00000000000E+00 -0.00000000000E+00 -0.66658834439E+02  0.66658834439E+02  0.00000000000E+00 0.  1.
         25    1    1    2    0    0 -0.11066513970E+03 -0.58915255483E+02  0.34382139303E+03  0.38672461879E+03  0.12500000000E+03 0.  0.
         25    1    1    2    0    0  0.10877500316E+03 -0.14347053523E+02  0.21618102663E+03  0.27275827308E+03  0.12500000000E+03 0.  0.
         25    1    1    2    0    0  0.18901365391E+01  0.73262309006E+02  0.29333078107E+03  0.32716797775E+03  0.12500000000E+03 0.  0.
</event>
<event>
 5    0  0.5786117E-005  0.4866800E+03  0.7546771E-02  0.1017315E+00
         21   -1    0    0  502  501  0.00000000000E+00  0.00000000000E+00  0.20016034271E+03  0.20016034271E+03  0.00000000000E+00 0.  1.
         21   -1    0    0  501  502 -0.00000000000E+00 -0.00000000000E+00 -0.11833383475E+04  0.11833383475E+04  0.00000000000E+00 0.  1.
         25    1    1    2    0    0  0.11615335742E+03  0.16308886134E+03 -0.61055182511E+03  0.65459003222E+03  0.12500000000E+03 0.  0.
         25    1    1    2    0    0 -0.14027720218E+03 -0.27597474015E+03 -0.43441616324E+03  0.54788881494E+03  0.12500000000E+03 0.  0.
         25    1    1    2    0    0  0.24123844753E+02  0.11288587881E+03  0.61789983549E+02  0.18101984307E+03  0.12500000000E+03 0.  0.
</event>
<event>
 5    0  0.5786117E-005  0.2540066E+03  0.7546771E-02  0.1110799E+00
         21   -1    0    0  502  501  0.00000000000E+00  0.00000000000E+00  0.73557184777E+03  0.73557184777E+03  0.00000000000E+00 0. -1.
         21   -1    0    0  501  502 -0.00000000000E+00 -0.00000000000E+00 -0.87713165730E+02  0.87713165730E+02  0.00000000000E+00 0. -1.
         25    1    1    2    0    0  0.11106148922E+03 -0.10688800248E+02  0.21113529089E+03  0.26954037897E+03  0.12500000000E+03 0.  0.
         25    1    1    2    0    0 -0.56341367847E+02 -0.30297689899E+02  0.63227593087E+02  0.15399684501E+03  0.12500000000E+03 0.  0.
         25    1    1    2    0    0 -0.54720121369E+02  0.40986490148E+02  0.37349579806E+03  0.39974778952E+03  0.12500000000E+03 0.  0.
</event>
<event>
 5    0  0.5786117E-005  0.2877908E+03  0.7546771E-02  0.1091508E+00
         21   -1    0    0  502  501  0.00000000000E+00  0.00000000000E+00  0.16577261315E+03  0.16577261315E+03  0.00000000000E+00 0. -1.
         21   -1    0    0  501  502 -0.00000000000E+00 -0.00000000000E+00 -0.49962126393E+03  0.49962126393E+03  0.00000000000E+00 0. -1.
         25    1    1    2    0    0 -0.14576207208E+03  0.67375716882E+02  0.99899104370E+01  0.20374215860E+03  0.12500000000E+03 0.  0.
         25    1    1    2    0    0  0.67725910112E+02 -0.29948963971E+02 -0.22865514568E+03  0.27090942211E+03  0.12500000000E+03 0.  0.
         25    1    1    2    0    0  0.78036161968E+02 -0.37426752911E+02 -0.11518341554E+03  0.19074229637E+03  0.12500000000E+03 0.  0.
</event>
<event>
 5    0  0.5786117E-005  0.3951862E+03  0.7546771E-02  0.1045459E+00
         21   -1    0    0  502  501  0.00000000000E+00  0.00000000000E+00  0.16498522173E+03  0.16498522173E+03  0.00000000000E+00 0. -1.
         21   -1    0    0  501  502 -0.00000000000E+00 -0.00000000000E+00 -0.94658254865E+03  0.94658254865E+03  0.00000000000E+00 0. -1.
         25    1    1    2    0    0  0.78561473497E+02 -0.97282977170E+02  0.45398925840E+02  0.18254299557E+03  0.12500000000E+03 0.  0.
         25    1    1    2    0    0 -0.16763616065E+03  0.15351834342E+03 -0.48752710221E+03  0.55224762518E+03  0.12500000000E+03 0.  0.
         25    1    1    2    0    0  0.89074687157E+02 -0.56235366246E+02 -0.33946915055E+03  0.37677714963E+03  0.12500000000E+03 0.  0.
</event>
<event>
 5    0  0.5786117E-005  0.2526977E+03  0.7546771E-02  0.1111612E+00
         21   -1    0    0  502  501  0.00000000000E+00  0.00000000000E+00  0.38718048396E+03  0.38718048396E+03  0.00000000000E+00 0.  1.
         21   -1    0    0  501  502 -0.00000000000E+00 -0.00000000000E+00 -0.16492606043E+03  0.16492606043E+03  0.00000000000E+00 0.  1.
         25    1    1    2    0    0  0.14424153315E+03  0.49436467464E+02  0.12430823737E+03  0.23308179268E+03  0.12500000000E+03 0.  0.
         25    1    1    2    0    0 -0.10471854053E+03  0.86208486282E+00  0.57282326150E+02  0.17283801900E+03  0.12500000000E+03 0.  0.
         25    1    1    2    0    0 -0.39522992618E+02 -0.50298552327E+02  0.40663860014E+02  0.14618673272E+03  0.12500000000E+03 0.  0.
</event>
<event>
 5    0  0.5786117E-005  0.6095342E+03  0.7546771E-02  0.9885821E-01
         21   -1    0    0  502  501  0.00000000000E+00  0.00000000000E+00  0.13895019786E+03  0.13895019786E+03  0.00000000000E+00 0. -1.
         21   -1    0    0  501  502 -0.00000000000E+00 -0.00000000000E+00 -0.26738497078E+04  0.26738497078E+04  0.00000000000E+00 0. -1.
         25    1    1    2    0    0 -0.24398712725E+03 -0.26749065186E+03 -0.11949042877E+04  0.12547917054E+04  0.12500000000E+03 0.  0.
         25    1    1    2    0    0  0.18347901967E+03  0.43973683728E+03 -0.55338754828E+03  0.74087503353E+03  0.12500000000E+03 0.  0.
         25    1    1    2    0    0  0.60508107580E+02 -0.17224618542E+03 -0.78660767395E+03  0.81713316675E+03  0.12500000000E+03 0.  0.
</event>
<event>
 5    0  0.5786117E-005  0.4685762E+03  0.7546771E-02  0.1022323E+00
         21   -1    0    0  502  501  0.00000000000E+00  0.00000000000E+00  0.17112784479E+04  0.17112784479E+04  0.00000000000E+00 0. -1.
         21   -1    0    0  501  502 -0.00000000000E+00 -0.00000000000E+00 -0.12830389990E+03  0.12830389990E+03  0.00000000000E+00 0. -1.
         25    1    1    2    0    0  0.20322413144E+02  0.85152358147E+02  0.12948783589E+04  0.13038400550E+04  0.12500000000E+03 0.  0.
         25    1    1    2    0    0  0.16180003949E+03 -0.10039188260E+03  0.17415319724E+03  0.28672655786E+03  0.12500000000E+03 0.  0.
         25    1    1    2    0    0 -0.18212245264E+03  0.15239524449E+02  0.11394299182E+03  0.24901573493E+03  0.12500000000E+03 0.  0.
</event>
<event>
 5    0  0.5786117E-005  0.2411071E+03  0.7546771E-02  0.1119058E+00
         21   -1    0    0  502  501  0.00000000000E+00  0.00000000000E+00  0.11671641410E+03  0.11671641410E+03  0.00000000000E+00 0.  1.
         21   -1    0    0  501  502 -0.00000000000E+00 -0.00000000000E+00 -0.49806723551E+03  0.49806723551E+03  0.00000000000E+00 0.  1.
         25    1    1    2    0    0  0.15852511615E+02  0.84921779554E+02 -0.28802374737E+03  0.32564657194E+03  0.12500000000E+03 0.  0.
         25    1    1    2    0    0  0.10150861241E+02 -0.72761920214E+02 -0.57469490199E+02  0.15596499390E+03  0.12500000000E+03 0.  0.
         25    1    1    2    0    0 -0.26003372856E+02 -0.12159859340E+02 -0.35857583842E+02  0.13317208378E+03  0.12500000000E+03 0.  0.
</event>
<event>
 5    0  0.5786117E-005  0.2792556E+03  0.7546771E-02  0.1096096E+00
         21   -1    0    0  502  501  0.00000000000E+00  0.00000000000E+00  0.14232644352E+04  0.14232644352E+04  0.00000000000E+00 0.  1.
         21   -1    0    0  501  502 -0.00000000000E+00 -0.00000000000E+00 -0.54792119656E+02  0.54792119656E+02  0.00000000000E+00 0.  1.
         25    1    1    2    0    0  0.11778990845E+03  0.82411566864E+02  0.28646756450E+03  0.34402731635E+03  0.12500000000E+03 0.  0.
         25    1    1    2    0    0 -0.39884475794E+02  0.16237647074E+02  0.24437689406E+03  0.27784797812E+03  0.12500000000E+03 0.  0.
         25    1    1    2    0    0 -0.77905432655E+02 -0.98649213938E+02  0.83762785699E+03  0.85618126040E+03  0.12500000000E+03 0.  0.
</event>
<event>
 5    0  0.5786117E-005  0.4740240E+03  0.7546771E-02  0.1020791E+00
         21   -1    0    0  502  501  0.00000000000E+00  0.00000000000E+00  0.20003789578E+04  0.20003789578E+04  0.00000000000E+00 0. -1.
         21   -1    0    0  501  502 -0.00000000000E+00 -0.00000000000E+00 -0.11232807939E+03  0.11232807939E+03  0.00000000000E+00 0. -1.
         25    1    1    2    0    0  0.32533720760E+03  0.14228367337E+03  0.11740528489E+04  0.12329290468E+04  0.12500000000E+03 0.  0.
         25    1    1    2    0    0 -0.14193427897E+03  0.36266571557E+02  0.45781946679E+03  0.49667320034E+03  0.12500000000E+03 0.  0.
         25    1    1    2    0    0 -0.18340292863E+03 -0.17855024493E+03  0.25617856273E+03  0.38310479010E+03  0.12500000000E+03 0.  0.
</event>
<event>
 5    0  0.5786117E-005  0.3883653E+03  0.7546771E-02  0.1047884E+00
         21   -1    0    0  502  501  0.00000000000E+00  0.00000000000E+00  0.74444267146E+02  0.74444267146E+02  0.00000000000E+00 0. -1.
         21   -1    0    0  501  502 -0.00000000000E+00 -0.00000000000E+00 -0.20260475156E+04  0.20260475156E+04  0.00000000000E+00 0. -1.
         25    1    1    2    0    0 -0.21502513483E+02  0.10399928049E+03 -0.23770485656E+03  0.28880236713E+03  0.12500000000E+03 0.  0.
         25    1    1    2    0    0  0.20206826425E+03  0.92287093814E+02 -0.11215386095E+04  0.11501401409E+04  0.12500000000E+03 0.  0.
         25    1    1    2    0    0 -0.18056575077E+03 -0.19628637430E+03 -0.59235978238E+03  0.66154927471E+03  0.12500000000E+03 0.  0.
</event>
<event>
 5    0  0.5786117E-005  0.3570102E+03  0.7546771E-02  0.1059774E+00
         21   -1    0    0  502  501  0.00000000000E+00  0.00000000000E+00  0.18075215224E+04  0.18075215224E+04  0.00000000000E+00 0. -1.
         21   -1    0    0  501  502 -0.00000000000E+00 -0.00000000000E+00 -0.70514382512E+02  0.70514382512E+02  0.00000000000E+00 0. -1.
         25    1    1    2    0    0 -0.17895322482E+03 -0.39878593682E+02  0.18857490798E+03  0.29120448971E+03  0.12500000000E+03 0.  0.
         25    1    1    2    0    0  0.54253491109E+02 -0.43787700601E+02  0.83262778600E+03  0.84484012336E+03  0.12500000000E+03 0.  0.
         25    1    1    2    0    0  0.12469973371E+03  0.83666294283E+02  0.71580444587E+03  0.74199129181E+03  0.12500000000E+03 0.  0.
</event>
<event>
 5    0  0.5786117E-005  0.3415456E+03  0.7546771E-02  0.1066140E+00
         21   -1    0    0  502  501  0.00000000000E+00  0.00000000000E+00  0.32101085587E+03  0.32101085587E+03  0.00000000000E+00 0. -1.
         21   -1    0    0  501  502 -0.00000000000E+00 -0.00000000000E+00 -0.36339400439E+03  0.36339400439E+03  0.00000000000E+00 0. -1.
         25    1    1    2    0    0 -0.14806492952E+03  0.12719018269E+02 -0.16303942451E+02  0.19487384462E+03  0.12500000000E+03 0.  0.
         25    1    1    2    0    0  0.22176869984E+03  0.52352432394E+02  0.10807274239E+03  0.28147264708E+03  0.12500000000E+03 0.  0.
         25    1    1    2    0    0 -0.73703770326E+02 -0.65071450663E+02 -0.13415194846E+03  0.20805836856E+03  0.12500000000E+03 0.  0.
</event>
<event>
 5    0  0.6456138E-005  0.3051519E+03  0.7546771E-02  0.1082693E+00
         21   -1    0    0  502  501  0.00000000000E+00  0.00000000000E+00  0.54665878023E+03  0.54665878023E+03  0.00000000000E+00 0. -1.
         21   -1    0    0  501  502 -0.00000000000E+00 -0.00000000000E+00 -0.17033966150E+03  0.17033966150E+03  0.00000000000E+00 0. -1.
         25    1    1    2    0    0 -0.99044555582E+02 -0.12782892413E+02  0.34851161310E+02  0.16374623591E+03  0.12500000000E+03 0.  0.
         25    1    1    2    0    0  0.20601516116E+03 -0.68042423929E+02  0.22039150876E+03  0.33357073496E+03  0.12500000000E+03 0.  0.
         25    1    1    2    0    0 -0.10697060558E+03  0.80825316342E+02  0.12107644866E+03  0.21968147086E+03  0.12500000000E+03 0.  0.
</event>
<event>
 5    0  0.5786117E-005  0.2989878E+03  0.7546771E-02  0.1085748E+00
         21   -1    0    0  502  501  0.00000000000E+00  0.00000000000E+00  0.35279930863E+03  0.35279930863E+03  0.00000000000E+00 0. -1.
         21   -1    0    0  501  502 -0.00000000000E+00 -0.00000000000E+00 -0.25338402356E+03  0.25338402356E+03  0.00000000000E+00 0. -1.
         25    1    1    2    0    0  0.13920096258E+03  0.45753539313E+02  0.23357727717E+01  0.19261555019E+03  0.12500000000E+03 0.  0.
         25    1    1    2    0    0 -0.67577673917E+02 -0.79445595828E+01 -0.94548104849E+02  0.17086310945E+03  0.12500000000E+03 0.  0.
         25    1    1    2    0    0 -0.71623288658E+02 -0.37808979731E+02  0.19162761715E+03  0.24270467255E+03  0.12500000000E+03 0.  0.
</event>
<event>
 5    0  0.5786117E-005  0.3118668E+03  0.7546771E-02  0.1079455E+00
         21   -1    0    0  502  501  0.00000000000E+00  0.00000000000E+00  0.99502423410E+02  0.99502423410E+02  0.00000000000E+00 0. -1.
         21   -1    0    0  501  502 -0.00000000000E+00 -0.00000000000E+00 -0.97747257878E+03  0.97747257878E+03  0.00000000000E+00 0. -1.
         25    1    1    2    0    0  0.53776595563E+01 -0.50412143591E+01  0.20682531730E+02  0.12691375096E+03  0.12500000000E+03 0.  0.
         25    1    1    2    0    0 -0.21330991992E+02 -0.83370088125E+02 -0.38471673392E+03  0.41356686058E+03  0.12500000000E+03 0.  0.
         25    1    1    2    0    0  0.15953332436E+02  0.88411302484E+02 -0.51393595318E+03  0.53649439065E+03  0.12500000000E+03 0.  0.
</event>
<event>
 5    0  0.5803603E-005  0.3046213E+03  0.7546771E-02  0.1082953E+00
         21   -1    0    0  502  501  0.00000000000E+00  0.00000000000E+00  0.83032686435E+03  0.83032686435E+03  0.00000000000E+00 0. -1.
         21   -1    0    0  501  502 -0.00000000000E+00 -0.00000000000E+00 -0.11175617186E+03  0.11175617186E+03  0.00000000000E+00 0. -1.
         25    1    1    2    0    0 -0.15638277785E+02 -0.14743407221E+03  0.10813991604E+03  0.22203739060E+03  0.12500000000E+03 0.  0.
         25    1    1    2    0    0 -0.43784534720E+02  0.13301998026E+03  0.15377453029E+03  0.24265820982E+03  0.12500000000E+03 0.  0.
         25    1    1    2    0    0  0.59422812504E+02  0.14414091949E+02  0.45665624616E+03  0.47738743579E+03  0.12500000000E+03 0.  0.
</event>
<event>
 5    0  0.5786117E-005  0.5827266E+03  0.7546771E-02  0.9941905E-01
         21   -1    0    0  502  501  0.00000000000E+00  0.00000000000E+00  0.83263925454E+03  0.83263925454E+03  0.00000000000E+00 0. -1.
         21   -1    0    0  501  502 -0.00000000000E+00 -0.00000000000E+00 -0.40782404491E+03  0.40782404491E+03  0.00000000000E+00 0. -1.
         25    1    1    2    0    0 -0.86393450635E+02 -0.57058212221E+02  0.70501175953E+03  0.72345424802E+03  0.12500000000E+03 0.  0.
         25    1    1    2    0    0 -0.16301323750E+02  0.10223033063E+03  0.29250682749E+02  0.16491626996E+03  0.12500000000E+03 0.  0.
         25    1    1    2    0    0  0.10269477439E+03 -0.45172118408E+02 -0.30944723265E+03  0.35209278147E+03  0.12500000000E+03 0.  0.
</event>
<event>
 5    0  0.5786117E-005  0.3151792E+03  0.7546771E-02  0.1077890E+00
         21   -1    0    0  502  501  0.00000000000E+00  0.00000000000E+00  0.13787050143E+03  0.13787050143E+03  0.00000000000E+00 0.  1.
         21   -1    0    0  501  502 -0.00000000000E+00 -0.00000000000E+00 -0.72051598912E+03  0.72051598912E+03  0.00000000000E+00 0.  1.
         25    1    1    2    0    0  0.89195100876E+00 -0.21102178042E+02 -0.28674152749E+03  0.31351523262E+03  0.12500000000E+03 0.  0.
         25    1    1    2    0    0  0.15592982514E+03 -0.73589632561E+02 -0.23012106853E+03  0.31354465482E+03  0.12500000000E+03 0.  0.
         25    1    1    2    0    0 -0.15682177615E+03  0.94691810602E+02 -0.65782891677E+02  0.23132660311E+03  0.12500000000E+03 0.  0.
</event>
<event>
 5    0  0.5786117E-005  0.2682968E+03  0.7546771E-02  0.1102258E+00
         21   -1    0    0  502  501  0.00000000000E+00  0.00000000000E+00  0.93991692419E+03  0.93991692419E+03  0.00000000000E+00 0.  1.
         21   -1    0    0  501  502 -0.00000000000E+00 -0.00000000000E+00 -0.76584620931E+02  0.76584620931E+02  0.00000000000E+00 0.  1.
         25    1    1    2    0    0 -0.77994579584E+01  0.12077814526E+02  0.25857619002E+03  0.28756451658E+03  0.12500000000E+03 0.  0.
         25    1    1    2    0    0 -0.10700966255E+03 -0.19134568626E+02  0.50604320386E+03  0.53246776782E+03  0.12500000000E+03 0.  0.
         25    1    1    2    0    0  0.11480912051E+03  0.70567540996E+01  0.98712909372E+02  0.19646926072E+03  0.12500000000E+03 0.  0.
</event>
<event>
 5    0  0.5786117E-005  0.3341942E+03  0.7546771E-02  0.1069296E+00
         21   -1    0    0  502  501  0.00000000000E+00  0.00000000000E+00  0.29294646204E+03  0.29294646204E+03  0.00000000000E+00 0.  1.
         21   -1    0    0  501  502 -0.00000000000E+00 -0.00000000000E+00 -0.38124970290E+03  0.38124970290E+03  0.00000000000E+00 0.  1.
         25    1    1    2    0    0 -0.23548124828E+03  0.77311691106E+02 -0.13625022034E+03  0.30922101871E+03  0.12500000000E+03 0.  0.
         25    1    1    2    0    0  0.17369823308E+03 -0.46069451310E+02  0.27289435951E+02  0.22059733415E+03  0.12500000000E+03 0.  0.
         25    1    1    2    0    0  0.61783015194E+02 -0.31242239797E+02  0.20657543526E+02  0.14437781207E+03  0.12500000000E+03 0.  0.
</event>
<event>
 5    0  0.5786117E-005  0.2324168E+03  0.7546771E-02  0.1124950E+00
         21   -1    0    0  502  501  0.00000000000E+00  0.00000000000E+00  0.58729853994E+02  0.58729853994E+02  0.00000000000E+00 0.  1.
         21   -1    0    0  501  502 -0.00000000000E+00 -0.00000000000E+00 -0.91976350511E+03  0.91976350511E+03  0.00000000000E+00 0.  1.
         25    1    1    2    0    0 -0.61685183612E+02  0.92924978579E+02 -0.21120924364E+03  0.26958200630E+03  0.12500000000E+03 0.  0.
         25    1    1    2    0    0  0.38579247289E+02 -0.93768809256E+01 -0.29279199462E+03  0.32082461927E+03  0.12500000000E+03 0.  0.
         25    1    1    2    0    0  0.23105936323E+02 -0.83548097653E+02 -0.35703241286E+03  0.38808673354E+03  0.12500000000E+03 0.  0.
</event>
<event>
 5    0  0.5786117E-005  0.2538425E+03  0.7546771E-02  0.1110900E+00
         21   -1    0    0  502  501  0.00000000000E+00  0.00000000000E+00  0.10099812752E+03  0.10099812752E+03  0.00000000000E+00 0. -1.
         21   -1    0    0  501  502 -0.00000000000E+00 -0.00000000000E+00 -0.63799209181E+03  0.63799209181E+03  0.00000000000E+00 0. -1.
         25    1    1    2    0    0  0.32770859719E+02  0.15126168627E+02 -0.10412544577E+03  0.16664284767E+03  0.12500000000E+03 0.  0.
         25    1    1    2    0    0 -0.10483494213E+03  0.96634524905E+02 -0.25232112473E+03  0.31562564294E+03  0.12500000000E+03 0.  0.
         25    1    1    2    0    0  0.72064082415E+02 -0.11176069353E+03 -0.18054739379E+03  0.25672172872E+03  0.12500000000E+03 0.  0.
</event>
<event>
 5    0  0.5786117E-005  0.5334807E+03  0.7546771E-02  0.1005391E+00
         21   -1    0    0  502  501  0.00000000000E+00  0.00000000000E+00  0.93886665745E+03  0.93886665745E+03  0.00000000000E+00 0. -1.
         21   -1    0    0  501  502 -0.00000000000E+00 -0.00000000000E+00 -0.30313319163E+03  0.30313319163E+03  0.00000000000E+00 0. -1.
         25    1    1    2    0    0  0.23681507498E+03 -0.16109536541E+03  0.58537328043E+03  0.66356610367E+03  0.12500000000E+03 0.  0.
         25    1    1    2    0    0 -0.21911433529E+03  0.16645478538E+03 -0.15320108997E+03  0.33884194173E+03  0.12500000000E+03 0.  0.
         25    1    1    2    0    0 -0.17700739694E+02 -0.53594199730E+01  0.20356127535E+03  0.23959180368E+03  0.12500000000E+03 0.  0.
</event>
<event>
 5    0  0.5786117E-005  0.2222427E+03  0.7546771E-02  0.1132222E+00
         21   -1    0    0  502  501  0.00000000000E+00  0.00000000000E+00  0.19062259114E+03  0.19062259114E+03  0.00000000000E+00 0.  1.
         21   -1    0    0  501  502 -0.00000000000E+00 -0.00000000000E+00 -0.25910796494E+03  0.25910796494E+03  0.00000000000E+00 0.  1.
         25    1    1    2    0    0 -0.55369959091E+02  0.38710378520E+02  0.25962620248E+02  0.14444162636E+03  0.12500000000E+03 0.  0.
         25    1    1    2    0    0  0.61938276369E+02 -0.70733817760E+01  0.88195282084E+01  0.13996130496E+03  0.12500000000E+03 0.  0.
         25    1    1    2    0    0 -0.65683172783E+01 -0.31636996744E+02 -0.10326752226E+03  0.16532762476E+03  0.12500000000E+03 0.  0.
</event>
<event>
 5    0  0.5786117E-005  0.2118952E+03  0.7546771E-02  0.1140074E+00
         21   -1    0    0  502  501  0.00000000000E+00  0.00000000000E+00  0.38487763135E+03  0.38487763135E+03  0.00000000000E+00 0.  1.
         21   -1    0    0  501  502 -0.00000000000E+00 -0.00000000000E+00 -0.11665933329E+03  0.11665933329E+03  0.00000000000E+00 0.  1.
         25    1    1    2    0    0  0.26611927661E+02 -0.14929048672E+02  0.12767578561E+03  0.18126548877E+03  0.12500000000E+03 0.  0.
         25    1    1    2    0    0  0.14893911648E+02  0.44460514232E+02  0.12759200024E+03  0.18467074607E+03  0.12500000000E+03 0.  0.
         25    1    1    2    0    0 -0.41505839309E+02 -0.29531465560E+02  0.12950512203E+02  0.13560072980E+03  0.12500000000E+03 0.  0.
</event>
<event>
 5    0  0.5786117E-005  0.3854165E+03  0.7546771E-02  0.1048950E+00
         21   -1    0    0  502  501  0.00000000000E+00  0.00000000000E+00  0.69734550709E+03  0.69734550709E+03  0.00000000000E+00 0.  1.
         21   -1    0    0  501  502 -0.00000000000E+00 -0.00000000000E+00 -0.21301621614E+03  0.21301621614E+03  0.00000000000E+00 0.  1.
         25    1    1    2    0    0  0.85858384562E+02  0.14011068881E+03  0.15351731434E+02  0.20703464197E+03  0.12500000000E+03 0.  0.
         25    1    1    2    0    0  0.16003430392E+03 -0.23822915857E+01  0.11302695007E+03  0.23241502788E+03  0.12500000000E+03 0.  0.
         25    1    1    2    0    0 -0.24589268848E+03 -0.13772839723E+03  0.35595060944E+03  0.47091205337E+03  0.12500000000E+03 0.  0.
</event>
<event>
 5    0  0.5786117E-005  0.2593568E+03  0.7546771E-02  0.1107530E+00
         21   -1    0    0  502  501  0.00000000000E+00  0.00000000000E+00  0.27099025416E+02  0.27099025416E+02  0.00000000000E+00 0. -1.
         21   -1    0    0  501  502 -0.00000000000E+00 -0.00000000000E+00 -0.24822283422E+04  0.24822283422E+04  0.00000000000E+00 0. -1.
         25    1    1    2    0    0 -0.41353286682E+02 -0.43746138667E+01 -0.27580565086E+03  0.30565174401E+03  0.12500000000E+03 0.  0.
         25    1    1    2    0    0  0.53514853639E+02  0.20785880325E+02 -0.47131759874E+03  0.49097980739E+03  0.12500000000E+03 0.  0.
         25    1    1    2    0    0 -0.12161566957E+02 -0.16411266458E+02 -0.17080060672E+04  0.17126958162E+04  0.12500000000E+03 0.  0.
</event>
<event>
 5    0  0.5786117E-005  0.2602293E+03  0.7546771E-02  0.1107006E+00
         21   -1    0    0  502  501  0.00000000000E+00  0.00000000000E+00  0.11218347672E+04  0.11218347672E+04  0.00000000000E+00 0. -1.
         21   -1    0    0  501  502 -0.00000000000E+00 -0.00000000000E+00 -0.60364760109E+02  0.60364760109E+02  0.00000000000E+00 0. -1.
         25    1    1    2    0    0  0.13788461882E+03  0.56414209821E+02  0.30936861422E+03  0.36541575040E+03  0.12500000000E+03 0.  0.
         25    1    1    2    0    0 -0.65845294194E+02 -0.17545255763E+02  0.53226926419E+03  0.55098004353E+03  0.12500000000E+03 0.  0.
         25    1    1    2    0    0 -0.72039324622E+02 -0.38868954059E+02  0.21983212873E+03  0.26580373343E+03  0.12500000000E+03 0.  0.
</event>
<event>
 5    0  0.5786117E-005  0.2557711E+03  0.7546771E-02  0.1109711E+00
         21   -1    0    0  502  501  0.00000000000E+00  0.00000000000E+00  0.23291542882E+03  0.23291542882E+03  0.00000000000E+00 0. -1.
         21   -1    0    0  501  502 -0.00000000000E+00 -0.00000000000E+00 -0.28086954693E+03  0.28086954693E+03  0.00000000000E+00 0. -1.
         25    1    1    2    0    0  0.80053350993E+01  0.16017215321E+03 -0.38982837732E+02  0.20703590435E+03  0.12500000000E+03 0.  0.
         25    1    1    2    0    0  0.10311891710E+02 -0.39305830014E+02 -0.10979687989E+02  0.13189706946E+03  0.12500000000E+03 0.  0.
         25    1    1    2    0    0 -0.18317226810E+02 -0.12086632319E+03  0.20084076113E+01  0.17485200194E+03  0.12500000000E+03 0.  0.
</event>
<event>
 5    0  0.5786117E-005  0.2998682E+03  0.7546771E-02  0.1085307E+00
         21   -1    0    0  502  501  0.00000000000E+00  0.00000000000E+00  0.32293404803E+03  0.32293404803E+03  0.00000000000E+00 0.  1.
         21   -1    0    0  501  502 -0.00000000000E+00 -0.00000000000E+00 -0.27844981194E+03  0.27844981194E+03  0.00000000000E+00 0.  1.
         25    1    1    2    0    0 -0.16007718952E+03  0.88407102905E+01 -0.25416944600E+02  0.20487529338E+03  0.12500000000E+03 0.  0.
         25    1    1    2    0    0  0.10199599849E+03  0.11884445692E+03  0.15878523274E+02  0.20100824896E+03  0.12500000000E+03 0.  0.
         25    1    1    2    0    0  0.58081191030E+02 -0.12768516721E+03  0.54022657415E+02  0.19550031762E+03  0.12500000000E+03 0.  0.
</event>
<event>
 5    0  0.5786117E-005  0.2084261E+03  0.7546771E-02  0.1142818E+00
         21   -1    0    0  502  501  0.00000000000E+00  0.00000000000E+00  0.89923579932E+03  0.89923579932E+03  0.00000000000E+00 0. -1.
         21   -1    0    0  501  502 -0.00000000000E+00 -0.00000000000E+00 -0.48309290864E+02  0.48309290864E+02  0.00000000000E+00 0. -1.
         25    1    1    2    0    0 -0.80986941570E+01 -0.11000520838E+02  0.44540413606E+03  0.46281361769E+03  0.12500000000E+03 0.  0.
         25    1    1    2    0    0 -0.27136242519E+02 -0.24977877677E+02  0.18514213937E+03  0.22641307780E+03  0.12500000000E+03 0.  0.
         25    1    1    2    0    0  0.35234936676E+02  0.35978398515E+02  0.22038023303E+03  0.25831839469E+03  0.12500000000E+03 0.  0.
</event>
<event>
 5    0  0.5786117E-005  0.4280244E+03  0.7546771E-02  0.1034486E+00
         21   -1    0    0  502  501  0.00000000000E+00  0.00000000000E+00  0.35364186021E+04  0.35364186021E+04  0.00000000000E+00 0. -1.
         21   -1    0    0  501  502 -0.00000000000E+00 -0.00000000000E+00 -0.51805207359E+02  0.51805207359E+02  0.00000000000E+00 0. -1.
         25    1    1    2    0    0  0.68486908294E+02  0.27269857158E+03  0.13049728660E+04  0.13407587958E+04  0.12500000000E+03 0.  0.
         25    1    1    2    0    0 -0.73871871482E+02  0.32052822713E+01  0.21407200942E+03  0.25868736430E+03  0.12500000000E+03 0.  0.
         25    1    1    2    0    0  0.53849631879E+01 -0.27590385385E+03  0.19655685193E+04  0.19887776493E+04  0.12500000000E+03 0.  0.
</event>
<event>
 5    0  0.5786117E-005  0.2385952E+03  0.7546771E-02  0.1120732E+00
         21   -1    0    0  502  501  0.00000000000E+00  0.00000000000E+00  0.17143617933E+03  0.17143617933E+03  0.00000000000E+00 0.  1.
         21   -1    0    0  501  502 -0.00000000000E+00 -0.00000000000E+00 -0.33206324388E+03  0.33206324388E+03  0.00000000000E+00 0.  1.
         25    1    1    2    0    0 -0.20495482127E+02  0.78781729167E+02  0.79616348160E+01  0.14938210491E+03  0.12500000000E+03 0.  0.
         25    1    1    2    0    0 -0.36823800360E+02 -0.61646704467E+02 -0.11463817028E+02  0.14461233538E+03  0.12500000000E+03 0.  0.
         25    1    1    2    0    0  0.57319282487E+02 -0.17135024700E+02 -0.15712488234E+03  0.20950498292E+03  0.12500000000E+03 0.  0.
</event>
<event>
 5    0  0.5786117E-005  0.2521450E+03  0.7546771E-02  0.1111957E+00
         21   -1    0    0  502  501  0.00000000000E+00  0.00000000000E+00  0.14763112612E+03  0.14763112612E+03  0.00000000000E+00 0.  1.
         21   -1    0    0  501  502 -0.00000000000E+00 -0.00000000000E+00 -0.43064828423E+03  0.43064828423E+03  0.00000000000E+00 0.  1.
         25    1    1    2    0    0  0.12015872992E+03  0.59224114538E+02 -0.11959618003E+03  0.21880096526E+03  0.12500000000E+03 0.  0.
         25    1    1    2    0    0 -0.10123237891E+03 -0.89870095254E+02 -0.61589056461E+02  0.19427516680E+03  0.12500000000E+03 0.  0.
         25    1    1    2    0    0 -0.18926351013E+02  0.30645980716E+02 -0.10183192162E+03  0.16520327829E+03  0.12500000000E+03 0.  0.
</event>
<event>
 5    0  0.5786117E-005  0.4037929E+03  0.7546771E-02  0.1042474E+00
         21   -1    0    0  502  501  0.00000000000E+00  0.00000000000E+00  0.21666188421E+03  0.21666188421E+03  0.00000000000E+00 0. -1.
         21   -1    0    0  501  502 -0.00000000000E+00 -0.00000000000E+00 -0.75254895447E+03  0.75254895447E+03  0.00000000000E+00 0. -1.
         25    1    1    2    0    0  0.25282673726E+02 -0.10597765140E+03 -0.89795273993E+02  0.18857005971E+03  0.12500000000E+03 0.  0.
         25    1    1    2    0    0 -0.81883618837E+02  0.33849584095E+03 -0.24079822476E+03  0.44146703889E+03  0.12500000000E+03 0.  0.
         25    1    1    2    0    0  0.56600945111E+02 -0.23251818955E+03 -0.20529357150E+03  0.33917374008E+03  0.12500000000E+03 0.  0.
</event>
<event>
 5    0  0.5786117E-005  0.3549213E+03  0.7546771E-02  0.1060613E+00
         21   -1    0    0  502  501  0.00000000000E+00  0.00000000000E+00  0.35721163737E+03  0.35721163737E+03  0.00000000000E+00 0. -1.
         21   -1    0    0  501  502 -0.00000000000E+00 -0.00000000000E+00 -0.35264566599E+03  0.35264566599E+03  0.00000000000E+00 0. -1.
         25    1    1    2    0    0  0.89984101358E+02 -0.16214127965E+03 -0.16168073328E+03  0.27595759199E+03  0.12500000000E+03 0.  0.
         25    1    1    2    0    0  0.20767427238E+02 -0.11503169489E+02 -0.20759292437E+02  0.12891686145E+03  0.12500000000E+03 0.  0.
         25    1    1    2    0    0 -0.11075152860E+03  0.17364444914E+03  0.18700599709E+03  0.30498284993E+03  0.12500000000E+03 0.  0.
</event>
<event>
 5    0  0.5786117E-005  0.4450409E+03  0.7546771E-02  0.1029211E+00
         21   -1    0    0  502  501  0.00000000000E+00  0.00000000000E+00  0.23870501216E+03  0.23870501216E+03  0.00000000000E+00 0. -1.
         21   -1    0    0  501  502 -0.00000000000E+00 -0.00000000000E+00 -0.82973278473E+03  0.82973278473E+03  0.00000000000E+00 0. -1.
         25    1    1    2    0    0  0.14257549687E+03  0.35447633812E+03 -0.24869050077E+03  0.47270837921E+03  0.12500000000E+03 0.  0.
         25    1    1    2    0    0 -0.12797126554E+03 -0.10347097107E+03 -0.13928898680E+03  0.24921739205E+03  0.12500000000E+03 0.  0.
         25    1    1    2    0    0 -0.14604231332E+02 -0.25100536706E+03 -0.20304828501E+03  0.34651202563E+03  0.12500000000E+03 0.  0.
</event>
<event>
 5    0  0.5786117E-005  0.2718587E+03  0.7546771E-02  0.1100221E+00
         21   -1    0    0  502  501  0.00000000000E+00  0.00000000000E+00  0.34419209668E+03  0.34419209668E+03  0.00000000000E+00 0.  1.
         21   -1    0    0  501  502 -0.00000000000E+00 -0.00000000000E+00 -0.21472641461E+03  0.21472641461E+03  0.00000000000E+00 0.  1.
         25    1    1    2    0    0 -0.66118103804E+02  0.12399311687E+03  0.13267355547E+03  0.23015900809E+03  0.12500000000E+03 0.  0.
         25    1    1    2    0    0  0.51273827022E+02 -0.12395585834E+03 -0.56794767238E+02  0.19194974795E+03  0.12500000000E+03 0.  0.
         25    1    1    2    0    0  0.14844276782E+02 -0.37258537827E-01  0.53586893836E+02  0.13680975525E+03  0.12500000000E+03 0.  0.
</event>
<event>
 5    0  0.5786117E-005  0.5053415E+03  0.7546771E-02  0.1012394E+00
         21   -1    0    0  502  501  0.00000000000E+00  0.00000000000E+00  0.12609393231E+04  0.12609393231E+04  0.00000000000E+00 0. -1.
         21   -1    0    0  501  502 -0.00000000000E+00 -0.00000000000E+00 -0.20252361728E+03  0.20252361728E+03  0.00000000000E+00 0. -1.
         25    1    1    2    0    0 -0.24617282989E+03  0.29051952684E+03  0.21206759371E+03  0.45343171697E+03  0.12500000000E+03 0.  0.
         25    1    1    2    0    0  0.12979593481E+03  0.34574652044E+02  0.30294027336E+03  0.35417538097E+03  0.12500000000E+03 0.  0.
         25    1    1    2    0    0  0.11637689508E+03 -0.32509417889E+03  0.54340783878E+03  0.65585584247E+03  0.12500000000E+03 0.  0.
</event>
<event>
 5    0  0.5786117E-005  0.2503969E+03  0.7546771E-02  0.1113054E+00
         21   -1    0    0  502  501  0.00000000000E+00  0.00000000000E+00  0.22301944453E+02  0.22301944453E+02  0.00000000000E+00 0. -1.
         21   -1    0    0  501  502 -0.00000000000E+00 -0.00000000000E+00 -0.28113523420E+04  0.28113523420E+04  0.00000000000E+00 0. -1.
         25    1    1    2    0    0  0.36367641491E+02 -0.24600453000E+02 -0.45344593781E+03  0.47240449421E+03  0.12500000000E+03 0.  0.
         25    1    1    2    0    0 -0.42483752928E+02  0.99897958359E+02 -0.70773552784E+03  0.72684183198E+03  0.12500000000E+03 0.  0.
         25    1    1    2    0    0  0.61161114377E+01 -0.75297505359E+02 -0.16278689319E+04  0.16344079603E+04  0.12500000000E+03 0.  0.
</event>
<event>
 5    0  0.5998369E-005  0.2828092E+03  0.7546771E-02  0.1094164E+00
         21   -1    0    0  502  501  0.00000000000E+00  0.00000000000E+00  0.11292258987E+03  0.11292258987E+03  0.00000000000E+00 0. -1.
         21   -1    0    0  501  502 -0.00000000000E+00 -0.00000000000E+00 -0.70828195161E+03  0.70828195161E+03  0.00000000000E+00 0. -1.
         25    1    1    2    0    0  0.12217153867E+03 -0.63424826530E+02 -0.10251014866E+03  0.21232504341E+03  0.12500000000E+03 0.  0.
         25    1    1    2    0    0 -0.98683005695E+02  0.12508742712E+03 -0.36914955973E+03  0.42104821278E+03  0.12500000000E+03 0.  0.
         25    1    1    2    0    0 -0.23488532977E+02 -0.61662600592E+02 -0.12369965336E+03  0.18783128529E+03  0.12500000000E+03 0.  0.
</event>
<event>
 5    0  0.5786117E-005  0.3916679E+03  0.7546771E-02  0.1046704E+00
         21   -1    0    0  502  501  0.00000000000E+00  0.00000000000E+00  0.13521739279E+04  0.13521739279E+04  0.00000000000E+00 0.  1.
         21   -1    0    0  501  502 -0.00000000000E+00 -0.00000000000E+00 -0.11344971506E+03  0.11344971506E+03  0.00000000000E+00 0.  1.
         25    1    1    2    0    0 -0.24460110272E+03  0.34743081810E+02  0.17773826394E+03  0.32901773759E+03  0.12500000000E+03 0.  0.
         25    1    1    2    0    0  0.24205439510E+03 -0.51039440999E+02  0.80236657504E+03  0.84888896534E+03  0.12500000000E+03 0.  0.
         25    1    1    2    0    0  0.25467076175E+01  0.16296359189E+02  0.25861937385E+03  0.28771694002E+03  0.12500000000E+03 0.  0.
</event>
<event>
 5    0  0.5786117E-005  0.2013601E+03  0.7546771E-02  0.1148597E+00
         21   -1    0    0  502  501  0.00000000000E+00  0.00000000000E+00  0.10445949454E+03  0.10445949454E+03  0.00000000000E+00 0.  1.
         21   -1    0    0  501  502 -0.00000000000E+00 -0.00000000000E+00 -0.38814950842E+03  0.38814950842E+03  0.00000000000E+00 0.  1.
         25    1    1    2    0    0  0.35443060121E+01  0.23771685408E+01 -0.17966190381E+03  0.21891005622E+03  0.12500000000E+03 0.  0.
         25    1    1    2    0    0 -0.21265709342E+02  0.10912889323E+01 -0.49131064833E+02  0.13598633327E+03  0.12500000000E+03 0.  0.
         25    1    1    2    0    0  0.17721403330E+02 -0.34684574731E+01 -0.54897045233E+02  0.13771261347E+03  0.12500000000E+03 0.  0.
</event>
<event>
 5    0  0.6009791E-005  0.2910891E+03  0.7546771E-02  0.1089782E+00
         21   -1    0    0  502  501  0.00000000000E+00  0.00000000000E+00  0.15201143184E+03  0.15201143184E+03  0.00000000000E+00 0. -1.
         21   -1    0    0  501  502 -0.00000000000E+00 -0.00000000000E+00 -0.55741122541E+03  0.55741122541E+03  0.00000000000E+00 0. -1.
         25    1    1    2    0    0 -0.74407306657E+02 -0.15564669871E+03 -0.41027834924E+02  0.21695765795E+03  0.12500000000E+03 0.  0.
         25    1    1    2    0    0  0.86868462882E+02  0.53217865522E+02 -0.23536248597E+03  0.28530469827E+03  0.12500000000E+03 0.  0.
         25    1    1    2    0    0 -0.12461156225E+02  0.10242883319E+03 -0.12900947267E+03  0.20716030103E+03  0.12500000000E+03 0.  0.
</event>
<event>
 5    0  0.6073467E-005  0.2565663E+03  0.7546771E-02  0.1109224E+00
         21   -1    0    0  502  501  0.00000000000E+00  0.00000000000E+00  0.26090728214E+03  0.26090728214E+03  0.00000000000E+00 0.  1.
         21   -1    0    0  501  502 -0.00000000000E+00 -0.00000000000E+00 -0.25229745022E+03  0.25229745022E+03  0.00000000000E+00 0.  1.
         25    1    1    2    0    0  0.10094216923E+03 -0.36816251165E+02  0.79651844109E+02  0.18306876891E+03  0.12500000000E+03 0.  0.
         25    1    1    2    0    0 -0.50961394523E+02  0.13299368680E+02  0.52947972130E+02  0.14561052397E+03  0.12500000000E+03 0.  0.
         25    1    1    2    0    0 -0.49980774710E+02  0.23516882485E+02 -0.12398998433E+03  0.18452543948E+03  0.12500000000E+03 0.  0.
</event>
<event>
 5    0  0.5786117E-005  0.2640373E+03  0.7546771E-02  0.1104742E+00
         21   -1    0    0  502  501  0.00000000000E+00  0.00000000000E+00  0.54826386982E+02  0.54826386982E+02  0.00000000000E+00 0.  1.
         21   -1    0    0  501  502 -0.00000000000E+00 -0.00000000000E+00 -0.12715716788E+04  0.12715716788E+04  0.00000000000E+00 0.  1.
         25    1    1    2    0    0  0.39429968174E+02  0.54632073722E+02 -0.10830351023E+03  0.17858901477E+03  0.12500000000E+03 0.  0.
         25    1    1    2    0    0  0.52190453454E+01  0.32099816500E+02 -0.35252333428E+03  0.37544019213E+03  0.12500000000E+03 0.  0.
         25    1    1    2    0    0 -0.44649013520E+02 -0.86731890222E+02 -0.75591844735E+03  0.77236885892E+03  0.12500000000E+03 0.  0.
</event>
<event>
 5    0  0.5786117E-005  0.2585732E+03  0.7546771E-02  0.1108004E+00
         21   -1    0    0  502  501  0.00000000000E+00  0.00000000000E+00  0.16642903336E+03  0.16642903336E+03  0.00000000000E+00 0. -1.
         21   -1    0    0  501  502 -0.00000000000E+00 -0.00000000000E+00 -0.40173333897E+03  0.40173333897E+03  0.00000000000E+00 0. -1.
         25    1    1    2    0    0  0.83150238625E+02 -0.10499951561E+03 -0.14403721630E+03  0.23304630471E+03  0.12500000000E+03 0.  0.
         25    1    1    2    0    0  0.11729610231E+02  0.84638189459E+02 -0.91415642421E+02  0.17687008382E+03  0.12500000000E+03 0.  0.
         25    1    1    2    0    0 -0.94879848856E+02  0.20361326149E+02  0.14855311369E+00  0.15824598380E+03  0.12500000000E+03 0.  0.
</event>
<event>
 5    0  0.5786117E-005  0.3076254E+03  0.7546771E-02  0.1081490E+00
         21   -1    0    0  502  501  0.00000000000E+00  0.00000000000E+00  0.51612596597E+03  0.51612596597E+03  0.00000000000E+00 0.  1.
         21   -1    0    0  501  502 -0.00000000000E+00 -0.00000000000E+00 -0.18335327566E+03  0.18335327566E+03  0.00000000000E+00 0.  1.
         25    1    1    2    0    0  0.92234174934E+02 -0.29228646577E+02  0.30143060563E+03  0.34036284582E+03  0.12500000000E+03 0.  0.
         25    1    1    2    0    0 -0.45847573706E+02  0.58039228417E+02  0.12665465631E+03  0.19270950681E+03  0.12500000000E+03 0.  0.
         25    1    1    2    0    0 -0.46386601228E+02 -0.28810581840E+02 -0.95312571623E+02  0.16640688901E+03  0.12500000000E+03 0.  0.
</event>
<event>
 5    0  0.5786117E-005  0.2183481E+03  0.7546771E-02  0.1135121E+00
         21   -1    0    0  502  501  0.00000000000E+00  0.00000000000E+00  0.13735162983E+03  0.13735162983E+03  0.00000000000E+00 0. -1.
         21   -1    0    0  501  502 -0.00000000000E+00 -0.00000000000E+00 -0.34710841910E+03  0.34710841910E+03  0.00000000000E+00 0. -1.
         25    1    1    2    0    0 -0.79220677804E+01  0.10565561164E+02 -0.67729734319E+02  0.14278202671E+03  0.12500000000E+03 0.  0.
         25    1    1    2    0    0 -0.24500998419E+02  0.47758881688E+02 -0.14648621236E+03  0.19991103050E+03  0.12500000000E+03 0.  0.
         25    1    1    2    0    0  0.32423066199E+02 -0.58324442853E+02  0.44591574071E+01  0.14176699172E+03  0.12500000000E+03 0.  0.
</event>
<event>
 5    0  0.5786117E-005  0.3403812E+03  0.7546771E-02  0.1066634E+00
         21   -1    0    0  502  501  0.00000000000E+00  0.00000000000E+00  0.12692195395E+03  0.12692195395E+03  0.00000000000E+00 0. -1.
         21   -1    0    0  501  502 -0.00000000000E+00 -0.00000000000E+00 -0.91283923220E+03  0.91283923220E+03  0.00000000000E+00 0. -1.
         25    1    1    2    0    0 -0.15954445644E+03 -0.28734300756E+00 -0.41210905464E+02  0.20682808048E+03  0.12500000000E+03 0.  0.
         25    1    1    2    0    0  0.19009241337E+03  0.33050538534E+02 -0.56086027982E+03  0.60614908826E+03  0.12500000000E+03 0.  0.
         25    1    1    2    0    0 -0.30547956930E+02 -0.32763195527E+02 -0.18384609297E+03  0.22678401741E+03  0.12500000000E+03 0.  0.
</event>
<event>
 5    0  0.5786117E-005  0.4931468E+03  0.7546771E-02  0.1015583E+00
         21   -1    0    0  502  501  0.00000000000E+00  0.00000000000E+00  0.12532023990E+04  0.12532023990E+04  0.00000000000E+00 0.  1.
         21   -1    0    0  501  502 -0.00000000000E+00 -0.00000000000E+00 -0.19405782572E+03  0.19405782572E+03  0.00000000000E+00 0.  1.
         25    1    1    2    0    0  0.13748511862E+03 -0.20419643553E+03  0.53524104479E+03  0.60225104247E+03  0.12500000000E+03 0.  0.
         25    1    1    2    0    0 -0.15361804506E+03  0.38503383883E+03  0.41253627372E+03  0.59804743787E+03  0.12500000000E+03 0.  0.
         25    1    1    2    0    0  0.16132926440E+02 -0.18083740329E+03  0.11136725476E+03  0.24696174436E+03  0.12500000000E+03 0.  0.
</event>
<event>
 5    0  0.5786117E-005  0.2936444E+03  0.7546771E-02  0.1088462E+00
         21   -1    0    0  502  501  0.00000000000E+00  0.00000000000E+00  0.10716416108E+03  0.10716416108E+03  0.00000000000E+00 0. -1.
         21   -1    0    0  501  502 -0.00000000000E+00 -0.00000000000E+00 -0.80462556900E+03  0.80462556900E+03  0.00000000000E+00 0. -1.
         25    1    1    2    0    0 -0.71826963175E+02  0.20118987494E+02 -0.39240780270E+02  0.15076048930E+03  0.12500000000E+03 0.  0.
         25    1    1    2    0    0 -0.30360748635E+02  0.47396200892E+02 -0.52074342794E+03  0.53848574044E+03  0.12500000000E+03 0.  0.
         25    1    1    2    0    0  0.10218771181E+03 -0.67515188386E+02 -0.13747719971E+03  0.22254350035E+03  0.12500000000E+03 0.  0.
</event>
<event>
 5    0  0.5786117E-005  0.3178589E+03  0.7546771E-02  0.1076639E+00
         21   -1    0    0  502  501  0.00000000000E+00  0.00000000000E+00  0.13421635419E+03  0.13421635419E+03  0.00000000000E+00 0. -1.
         21   -1    0    0  501  502 -0.00000000000E+00 -0.00000000000E+00 -0.75277168954E+03  0.75277168954E+03  0.00000000000E+00 0. -1.
         25    1    1    2    0    0  0.40831638260E+02 -0.19090129260E+03 -0.16559449429E+03  0.28488078689E+03  0.12500000000E+03 0.  0.
         25    1    1    2    0    0  0.90083322216E+00  0.22765371701E+03 -0.30473047868E+03  0.40039067297E+03  0.12500000000E+03 0.  0.
         25    1    1    2    0    0 -0.41732471482E+02 -0.36752424409E+02 -0.14823036238E+03  0.20171658387E+03  0.12500000000E+03 0.  0.
</event>
<event>
 5    0  0.5786117E-005  0.2870053E+03  0.7546771E-02  0.1091923E+00
         21   -1    0    0  502  501  0.00000000000E+00  0.00000000000E+00  0.11382497594E+03  0.11382497594E+03  0.00000000000E+00 0. -1.
         21   -1    0    0  501  502 -0.00000000000E+00 -0.00000000000E+00 -0.72367295267E+03  0.72367295267E+03  0.00000000000E+00 0. -1.
         25    1    1    2    0    0 -0.34136370073E+02 -0.38659476635E+02 -0.19410187352E+02  0.13660747516E+03  0.12500000000E+03 0.  0.
         25    1    1    2    0    0  0.74141827210E+02 -0.91732916636E+02 -0.17089776084E+03  0.24236951788E+03  0.12500000000E+03 0.  0.
         25    1    1    2    0    0 -0.40005457137E+02  0.13039239327E+03 -0.41954002853E+03  0.45852093558E+03  0.12500000000E+03 0.  0.
</event>
<event>
 5    0  0.5786117E-005  0.4939104E+03  0.7546771E-02  0.1015381E+00
         21   -1    0    0  502  501  0.00000000000E+00  0.00000000000E+00  0.19592512932E+03  0.19592512932E+03  0.00000000000E+00 0. -1.
         21   -1    0    0  501  502 -0.00000000000E+00 -0.00000000000E+00 -0.12451057012E+04  0.12451057012E+04  0.00000000000E+00 0.  1.
         25    1    1    2    0    0 -0.23787796013E+03 -0.34802947633E+03 -0.46098970347E+03  0.63706117996E+03  0.12500000000E+03 0.  0.
         25    1    1    2    0    0  0.16514338261E+03  0.10614075727E+03 -0.13147423260E+03  0.26729884215E+03  0.12500000000E+03 0.  0.
         25    1    1    2    0    0  0.72734577516E+02  0.24188871906E+03 -0.45671663580E+03  0.53667080840E+03  0.12500000000E+03 0.  0.
</event>
<event>
 5    0  0.5786117E-005  0.2946162E+03  0.7546771E-02  0.1087963E+00
         21   -1    0    0  502  501  0.00000000000E+00  0.00000000000E+00  0.35422507139E+03  0.35422507139E+03  0.00000000000E+00 0.  1.
         21   -1    0    0  501  502 -0.00000000000E+00 -0.00000000000E+00 -0.24503825281E+03  0.24503825281E+03  0.00000000000E+00 0.  1.
         25    1    1    2    0    0 -0.13392676972E+03  0.94883588170E+02  0.57820989520E+02  0.21426045314E+03  0.12500000000E+03 0.  0.
         25    1    1    2    0    0  0.86131678483E+02  0.45237154958E+02  0.97267922852E+02  0.18587930235E+03  0.12500000000E+03 0.  0.
         25    1    1    2    0    0  0.47795091234E+02 -0.14012074313E+03 -0.45902093792E+02  0.19912356871E+03  0.12500000000E+03 0.  0.
</event>
<event>
 5    0  0.5786117E-005  0.2585043E+03  0.7546771E-02  0.1108045E+00
         21   -1    0    0  502  501  0.00000000000E+00  0.00000000000E+00  0.40232908332E+02  0.40232908332E+02  0.00000000000E+00 0. -1.
         21   -1    0    0  501  502 -0.00000000000E+00 -0.00000000000E+00 -0.16609402304E+04  0.16609402304E+04  0.00000000000E+00 0. -1.
         25    1    1    2    0    0 -0.14227774675E+02 -0.11712101212E+03 -0.84167617471E+03  0.85904804530E+03  0.12500000000E+03 0.  0.
         25    1    1    2    0    0  0.77885158820E+02  0.97573656809E+02 -0.39121542522E+03  0.42925659622E+03  0.12500000000E+03 0.  0.
         25    1    1    2    0    0 -0.63657384145E+02  0.19547355307E+02 -0.38781572212E+03  0.41286849720E+03  0.12500000000E+03 0.  0.
</event>
<event>
 5    0  0.5786117E-005  0.3266729E+03  0.7546771E-02  0.1072619E+00
         21   -1    0    0  502  501  0.00000000000E+00  0.00000000000E+00  0.30226808751E+03  0.30226808751E+03  0.00000000000E+00 0.  1.
         21   -1    0    0  501  502 -0.00000000000E+00 -0.00000000000E+00 -0.35304804014E+03  0.35304804014E+03  0.00000000000E+00 0.  1.
         25    1    1    2    0    0  0.48162856984E+02 -0.14464605864E+03 -0.15654231216E+02  0.19776804096E+03  0.12500000000E+03 0.  0.
         25    1    1    2    0    0 -0.13447296906E+03  0.21841372821E+03 -0.42725848971E+02  0.28851002452E+03  0.12500000000E+03 0.  0.
         25    1    1    2    0    0  0.86310112077E+02 -0.73767669573E+02  0.76001275528E+01  0.16903806216E+03  0.12500000000E+03 0.  0.
</event>
<event>
 5    0  0.5786117E-005  0.2608167E+03  0.7546771E-02  0.1106654E+00
         21   -1    0    0  502  501  0.00000000000E+00  0.00000000000E+00  0.10101508611E+03  0.10101508611E+03  0.00000000000E+00 0.  1.
         21   -1    0    0  501  502 -0.00000000000E+00 -0.00000000000E+00 -0.67341783311E+03  0.67341783311E+03  0.00000000000E+00 0.  1.
         25    1    1    2    0    0 -0.60256625564E+02  0.36031204084E+02 -0.88683383603E+02  0.16857891659E+03  0.12500000000E+03 0.  0.
         25    1    1    2    0    0  0.24649092276E+02 -0.11743651036E+03 -0.11899817156E+03  0.21020103842E+03  0.12500000000E+03 0.  0.
         25    1    1    2    0    0  0.35607533288E+02  0.81405306278E+02 -0.36472119183E+03  0.39565296421E+03  0.12500000000E+03 0.  0.
</event>
<event>
 5    0  0.5786117E-005  0.2564193E+03  0.7546771E-02  0.1109314E+00
         21   -1    0    0  502  501  0.00000000000E+00  0.00000000000E+00  0.93478835342E+02  0.93478835342E+02  0.00000000000E+00 0.  1.
         21   -1    0    0  501  502 -0.00000000000E+00 -0.00000000000E+00 -0.70337721250E+03  0.70337721250E+03  0.00000000000E+00 0.  1.
         25    1    1    2    0    0  0.52259401667E+02  0.13784139582E+02 -0.30787479837E+03  0.33664957900E+03  0.12500000000E+03 0.  0.
         25    1    1    2    0    0  0.54161859862E+01 -0.11806340642E+03 -0.12312366085E+03  0.21154843149E+03  0.12500000000E+03 0.  0.
         25    1    1    2    0    0 -0.57675587653E+02  0.10427926684E+03 -0.17889991793E+03  0.24865803735E+03  0.12500000000E+03 0.  0.
</event>
<event>
 5    0  0.7132651E-005  0.2732865E+03  0.7546771E-02  0.1099413E+00
         21   -1    0    0  502  501  0.00000000000E+00  0.00000000000E+00  0.21246518919E+03  0.21246518919E+03  0.00000000000E+00 0.  1.
         21   -1    0    0  501  502 -0.00000000000E+00 -0.00000000000E+00 -0.35151875715E+03  0.35151875715E+03  0.00000000000E+00 0.  1.
         25    1    1    2    0    0  0.10537074898E+03 -0.16137002243E+02  0.24278700184E+02  0.16606580884E+03  0.12500000000E+03 0.  0.
         25    1    1    2    0    0  0.24658499652E+02  0.96241205855E+02 -0.38011572206E+02  0.16413497778E+03  0.12500000000E+03 0.  0.
         25    1    1    2    0    0 -0.13002924863E+03 -0.80104203612E+02 -0.12532069594E+03  0.23378315972E+03  0.12500000000E+03 0.  0.
</event>
<event>
 5    0  0.5786117E-005  0.3176911E+03  0.7546771E-02  0.1076717E+00
         21   -1    0    0  502  501  0.00000000000E+00  0.00000000000E+00  0.27381061719E+03  0.27381061719E+03  0.00000000000E+00 0.  1.
         21   -1    0    0  501  502 -0.00000000000E+00 -0.00000000000E+00 -0.36860376113E+03  0.36860376113E+03  0.00000000000E+00 0.  1.
         25    1    1    2    0    0 -0.25837489525E-01  0.68522177006E+02  0.11797779385E+03  0.18503796705E+03  0.12500000000E+03 0.  0.
         25    1    1    2    0    0 -0.87431523987E+02 -0.15700168157E+03 -0.68043321036E+02  0.22923501683E+03  0.12500000000E+03 0.  0.
         25    1    1    2    0    0  0.87457361476E+02  0.88479504567E+02 -0.14472761676E+03  0.22814139444E+03  0.12500000000E+03 0.  0.
</event>
<event>
 5    0  0.5786117E-005  0.2481976E+03  0.7546771E-02  0.1114449E+00
         21   -1    0    0  502  501  0.00000000000E+00  0.00000000000E+00  0.32459540507E+03  0.32459540507E+03  0.00000000000E+00 0.  1.
         21   -1    0    0  501  502 -0.00000000000E+00 -0.00000000000E+00 -0.18978105351E+03  0.18978105351E+03  0.00000000000E+00 0.  1.
         25    1    1    2    0    0 -0.59674235052E+02 -0.62645635272E+02  0.12010755979E+03  0.19374291178E+03  0.12500000000E+03 0.  0.
         25    1    1    2    0    0  0.47351440568E+02  0.82619352253E+02  0.81455964614E+02  0.17699771315E+03  0.12500000000E+03 0.  0.
         25    1    1    2    0    0  0.12322794483E+02 -0.19973716981E+02 -0.66749172841E+02  0.14363583365E+03  0.12500000000E+03 0.  0.
</event>
<event>
 5    0  0.5786117E-005  0.2372624E+03  0.7546771E-02  0.1121630E+00
         21   -1    0    0  502  501  0.00000000000E+00  0.00000000000E+00  0.94244828755E+03  0.94244828755E+03  0.00000000000E+00 0. -1.
         21   -1    0    0  501  502 -0.00000000000E+00 -0.00000000000E+00 -0.59731083721E+02  0.59731083721E+02  0.00000000000E+00 0. -1.
         25    1    1    2    0    0  0.96914036718E+02 -0.66318170752E+02  0.29927858003E+03  0.34493926820E+03  0.12500000000E+03 0.  0.
         25    1    1    2    0    0 -0.21217677958E+02  0.88704001862E+02  0.29457528825E+03  0.33274343006E+03  0.12500000000E+03 0.  0.
         25    1    1    2    0    0 -0.75696358760E+02 -0.22385831110E+02  0.28886333556E+03  0.32449667301E+03  0.12500000000E+03 0.  0.
</event>
<event>
 5    0  0.5786117E-005  0.2283551E+03  0.7546771E-02  0.1127803E+00
         21   -1    0    0  502  501  0.00000000000E+00  0.00000000000E+00  0.35541707121E+03  0.35541707121E+03  0.00000000000E+00 0.  1.
         21   -1    0    0  501  502 -0.00000000000E+00 -0.00000000000E+00 -0.14671794296E+03  0.14671794296E+03  0.00000000000E+00 0.  1.
         25    1    1    2    0    0  0.59920326331E+02 -0.25222929683E+02  0.51475532256E+02  0.15000457363E+03  0.12500000000E+03 0.  0.
         25    1    1    2    0    0 -0.30244827632E+02  0.99728840825E+02  0.10943360245E+03  0.19611553900E+03  0.12500000000E+03 0.  0.
         25    1    1    2    0    0 -0.29675498699E+02 -0.74505911142E+02  0.47789993544E+02  0.15601490154E+03  0.12500000000E+03 0.  0.
</event>
<event>
 5    0  0.5786117E-005  0.4156017E+03  0.7546771E-02  0.1038507E+00
         21   -1    0    0  502  501  0.00000000000E+00  0.00000000000E+00  0.69952159646E+03  0.69952159646E+03  0.00000000000E+00 0.  1.
         21   -1    0    0  501  502 -0.00000000000E+00 -0.00000000000E+00 -0.24691841318E+03  0.24691841318E+03  0.00000000000E+00 0.  1.
         25    1    1    2    0    0 -0.22904526495E+03  0.15594588652E+03  0.33963294494E+03  0.45580301689E+03  0.12500000000E+03 0.  0.
         25    1    1    2    0    0  0.24999670017E+03 -0.11647436614E+03  0.16874571773E+03  0.34664786934E+03  0.12500000000E+03 0.  0.
         25    1    1    2    0    0 -0.20951435220E+02 -0.39471520378E+02 -0.55775479389E+02  0.14398912341E+03  0.12500000000E+03 0.  0.
</event>
<event>
 5    0  0.5786117E-005  0.5448146E+03  0.7546771E-02  0.1002701E+00
         21   -1    0    0  502  501  0.00000000000E+00  0.00000000000E+00  0.76276606987E+03  0.76276606987E+03  0.00000000000E+00 0. -1.
         21   -1    0    0  501  502 -0.00000000000E+00 -0.00000000000E+00 -0.38914024697E+03  0.38914024697E+03  0.00000000000E+00 0. -1.
         25    1    1    2    0    0 -0.10907556034E+03 -0.40942854240E+03  0.41044721379E+03  0.60301005340E+03  0.12500000000E+03 0.  0.
         25    1    1    2    0    0  0.30671180431E+02  0.25897139330E+03 -0.13172231621E+03  0.31777770917E+03  0.12500000000E+03 0.  0.
         25    1    1    2    0    0  0.78404379906E+02  0.15045714910E+03  0.94900925315E+02  0.23111855427E+03  0.12500000000E+03 0.  0.
</event>
<event>
 5    0  0.5786117E-005  0.4094888E+03  0.7546771E-02  0.1040543E+00
         21   -1    0    0  502  501  0.00000000000E+00  0.00000000000E+00  0.19332969295E+04  0.19332969295E+04  0.00000000000E+00 0.  1.
         21   -1    0    0  501  502 -0.00000000000E+00 -0.00000000000E+00 -0.86733229684E+02  0.86733229684E+02  0.00000000000E+00 0.  1.
         25    1    1    2    0    0 -0.24781979351E+03 -0.17576300283E+03  0.64209687593E+03  0.72126325381E+03  0.12500000000E+03 0.  0.
         25    1    1    2    0    0  0.20479959201E+03  0.17247775767E+03  0.10704771243E+04  0.11105123698E+04  0.12500000000E+03 0.  0.
         25    1    1    2    0    0  0.43020201506E+02  0.32852451508E+01  0.13398969954E+03  0.18825453556E+03  0.12500000000E+03 0.  0.
</event>
<event>
 5    0  0.5786117E-005  0.3572041E+03  0.7546771E-02  0.1059696E+00
         21   -1    0    0  502  501  0.00000000000E+00  0.00000000000E+00  0.43346431011E+03  0.43346431011E+03  0.00000000000E+00 0. -1.
         21   -1    0    0  501  502 -0.00000000000E+00 -0.00000000000E+00 -0.29436044379E+03  0.29436044379E+03  0.00000000000E+00 0. -1.
         25    1    1    2    0    0 -0.12295729816E+03  0.31875510925E+02  0.11706983674E+03  0.21322497987E+03  0.12500000000E+03 0.  0.
         25    1    1    2    0    0  0.26467213450E+02  0.12772671605E+03  0.16808075225E+03  0.24676054518E+03  0.12500000000E+03 0.  0.
         25    1    1    2    0    0  0.96490084714E+02 -0.15960222698E+03 -0.14604672267E+03  0.26783922884E+03  0.12500000000E+03 0.  0.
</event>
<event>
 5    0  0.5786117E-005  0.2702605E+03  0.7546771E-02  0.1101131E+00
         21   -1    0    0  502  501  0.00000000000E+00  0.00000000000E+00  0.19760747357E+03  0.19760747357E+03  0.00000000000E+00 0.  1.
         21   -1    0    0  501  502 -0.00000000000E+00 -0.00000000000E+00 -0.36962529234E+03  0.36962529234E+03  0.00000000000E+00 0.  1.
         25    1    1    2    0    0  0.99014853421E+02  0.12805698457E+03 -0.27692077062E+02  0.20638406825E+03  0.12500000000E+03 0.  0.
         25    1    1    2    0    0 -0.10087141822E+03 -0.52476320036E+02 -0.22182500033E+02  0.17042849083E+03  0.12500000000E+03 0.  0.
         25    1    1    2    0    0  0.18565647946E+01 -0.75580664530E+02 -0.12214324167E+03  0.19042020683E+03  0.12500000000E+03 0.  0.
</event>
<event>
 5    0  0.5786117E-005  0.2905048E+03  0.7546771E-02  0.1090086E+00
         21   -1    0    0  502  501  0.00000000000E+00  0.00000000000E+00  0.56707363838E+03  0.56707363838E+03  0.00000000000E+00 0. -1.
         21   -1    0    0  501  502 -0.00000000000E+00 -0.00000000000E+00 -0.14882205023E+03  0.14882205023E+03  0.00000000000E+00 0. -1.
         25    1    1    2    0    0  0.12750350215E+03 -0.49292778481E+02  0.27285950831E+03  0.32979422728E+03  0.12500000000E+03 0.  0.
         25    1    1    2    0    0 -0.50334824424E+02 -0.82659665406E+02  0.43821668712E+02  0.16404741230E+03  0.12500000000E+03 0.  0.
         25    1    1    2    0    0 -0.77168677729E+02  0.13195244389E+03  0.10157041113E+03  0.22205404902E+03  0.12500000000E+03 0.  0.
</event>
<event>
 5    0  0.5786117E-005  0.4966423E+03  0.7546771E-02  0.1014659E+00
         21   -1    0    0  502  501  0.00000000000E+00  0.00000000000E+00  0.18803890241E+03  0.18803890241E+03  0.00000000000E+00 0. -1.
         21   -1    0    0  501  502 -0.00000000000E+00 -0.00000000000E+00 -0.13117155476E+04  0.13117155476E+04  0.00000000000E+00 0. -1.
         25    1    1    2    0    0  0.38371856926E+02 -0.95229383504E+00 -0.23517470382E+03  0.26908260365E+03  0.12500000000E+03 0.  0.
         25    1    1    2    0    0  0.36921398860E+03 -0.18884683250E+02 -0.25275680540E+03  0.46495871141E+03  0.12500000000E+03 0.  0.
         25    1    1    2    0    0 -0.40758584553E+03  0.19836977085E+02 -0.63574513602E+03  0.76571313500E+03  0.12500000000E+03 0.  0.
</event>
<event>
 5    0  0.5786117E-005  0.4223805E+03  0.7546771E-02  0.1036294E+00
         21   -1    0    0  502  501  0.00000000000E+00  0.00000000000E+00  0.12491304310E+04  0.12491304310E+04  0.00000000000E+00 0. -1.
         21   -1    0    0  501  502 -0.00000000000E+00 -0.00000000000E+00 -0.14282355863E+03  0.14282355863E+03  0.00000000000E+00 0. -1.
         25    1    1    2    0    0  0.54687910118E+02  0.37175643256E+02 -0.19347359971E+02  0.14273092273E+03  0.12500000000E+03 0.  0.
         25    1    1    2    0    0  0.17707294709E+03  0.44535371470E+02  0.26365510607E+03  0.34420523363E+03  0.12500000000E+03 0.  0.
         25    1    1    2    0    0 -0.23176085721E+03 -0.81711014726E+02  0.86199912632E+03  0.90501783332E+03  0.12500000000E+03 0.  0.
</event>
<event>
 5    0  0.5786117E-005  0.2279106E+03  0.7546771E-02  0.1128119E+00
         21   -1    0    0  502  501  0.00000000000E+00  0.00000000000E+00  0.14199220444E+03  0.14199220444E+03  0.00000000000E+00 0.  1.
         21   -1    0    0  501  502 -0.00000000000E+00 -0.00000000000E+00 -0.36581741265E+03  0.36581741265E+03  0.00000000000E+00 0.  1.
         25    1    1    2    0    0  0.40786965665E+02 -0.76825382667E+02 -0.86587193019E+02  0.17518007302E+03  0.12500000000E+03 0.  0.
         25    1    1    2    0    0 -0.77667657893E+02  0.89029060874E+02 -0.82217186917E+02  0.19063867548E+03  0.12500000000E+03 0.  0.
         25    1    1    2    0    0  0.36880692228E+02 -0.12203678206E+02 -0.55020828272E+02  0.14199086860E+03  0.12500000000E+03 0.  0.
</event>
<event>
 5    0  0.5786117E-005  0.2495757E+03  0.7546771E-02  0.1113573E+00
         21   -1    0    0  502  501  0.00000000000E+00  0.00000000000E+00  0.15505321790E+03  0.15505321790E+03  0.00000000000E+00 0. -1.
         21   -1    0    0  501  502 -0.00000000000E+00 -0.00000000000E+00 -0.40172019807E+03  0.40172019807E+03  0.00000000000E+00 0. -1.
         25    1    1    2    0    0  0.10412958548E+02 -0.72462399680E+02 -0.33760935226E+02  0.14874148655E+03  0.12500000000E+03 0.  0.
         25    1    1    2    0    0 -0.98022943685E+02  0.73916121575E+02 -0.18133447115E+03  0.25214932271E+03  0.12500000000E+03 0.  0.
         25    1    1    2    0    0  0.87609985137E+02 -0.14537218956E+01 -0.31571573796E+02  0.15588260671E+03  0.12500000000E+03 0.  0.
</event>
<event>
 5    0  0.5786117E-005  0.3121626E+03  0.7546771E-02  0.1079314E+00
         21   -1    0    0  502  501  0.00000000000E+00  0.00000000000E+00  0.11166450948E+04  0.11166450948E+04  0.00000000000E+00 0.  1.
         21   -1    0    0  501  502 -0.00000000000E+00 -0.00000000000E+00 -0.87266304225E+02  0.87266304225E+02  0.00000000000E+00 0.  1.
         25    1    1    2    0    0 -0.24594005550E+02 -0.11270224627E+02  0.23464422408E+03  0.26723546727E+03  0.12500000000E+03 0.  0.
         25    1    1    2    0    0  0.63570088450E+02  0.21292344830E+03  0.39137724312E+03  0.46709602591E+03  0.12500000000E+03 0.  0.
         25    1    1    2    0    0 -0.38976082900E+02 -0.20165322367E+03  0.40335732333E+03  0.46957990581E+03  0.12500000000E+03 0.  0.
</event>
<event>
 5    0  0.5786117E-005  0.2988477E+03  0.7546771E-02  0.1085818E+00
         21   -1    0    0  502  501  0.00000000000E+00  0.00000000000E+00  0.22334998180E+04  0.22334998180E+04  0.00000000000E+00 0.  1.
         21   -1    0    0  501  502 -0.00000000000E+00 -0.00000000000E+00 -0.39986541296E+02  0.39986541296E+02  0.00000000000E+00 0.  1.
         25    1    1    2    0    0 -0.66818700547E+02 -0.16046686741E+03  0.79223722368E+03  0.82065776842E+03  0.12500000000E+03 0.  0.
         25    1    1    2    0    0  0.21566038510E+02 -0.18382681781E+02  0.25854372029E+03  0.28857039402E+03  0.12500000000E+03 0.  0.
         25    1    1    2    0    0  0.45252662036E+02  0.17884954919E+03  0.11427323328E+04  0.11642581969E+04  0.12500000000E+03 0.  0.
</event>
<event>
 5    0  0.6113067E-005  0.3246235E+03  0.7546771E-02  0.1073541E+00
         21   -1    0    0  502  501  0.00000000000E+00  0.00000000000E+00  0.13431472891E+03  0.13431472891E+03  0.00000000000E+00 0.  1.
         21   -1    0    0  501  502 -0.00000000000E+00 -0.00000000000E+00 -0.78457829745E+03  0.78457829745E+03  0.00000000000E+00 0.  1.
         25    1    1    2    0    0 -0.92673421361E+02  0.14346424579E+03 -0.22048938999E+03  0.30563200739E+03  0.12500000000E+03 0.  0.
         25    1    1    2    0    0 -0.21113166302E+01 -0.67167319872E+01  0.11148735054E+02  0.12569354176E+03  0.12500000000E+03 0.  0.
         25    1    1    2    0    0  0.94784737991E+02 -0.13674751380E+03 -0.44092291360E+03  0.48756747720E+03  0.12500000000E+03 0.  0.
</event>
<event>
 5    0  0.5786117E-005  0.2255049E+03  0.7546771E-02  0.1129844E+00
         21   -1    0    0  502  501  0.00000000000E+00  0.00000000000E+00  0.41312939358E+02  0.41312939358E+02  0.00000000000E+00 0.  1.
         21   -1    0    0  501  502 -0.00000000000E+00 -0.00000000000E+00 -0.12309082753E+04  0.12309082753E+04  0.00000000000E+00 0.  1.
         25    1    1    2    0    0 -0.15441499741E+01 -0.24340622993E+02 -0.40534248375E+03  0.42487925280E+03  0.12500000000E+03 0.  0.
         25    1    1    2    0    0 -0.56164421453E+02  0.83052177282E+02 -0.51414250946E+03  0.53853470308E+03  0.12500000000E+03 0.  0.
         25    1    1    2    0    0  0.57708571428E+02 -0.58711554289E+02 -0.27011034273E+03  0.30880725878E+03  0.12500000000E+03 0.  0.
</event>
<event>
 5    0  0.5786117E-005  0.7124271E+03  0.7546771E-02  0.9696213E-01
         21   -1    0    0  502  501  0.00000000000E+00  0.00000000000E+00  0.11262925816E+04  0.11262925816E+04  0.00000000000E+00 0. -1.
         21   -1    0    0  501  502 -0.00000000000E+00 -0.00000000000E+00 -0.45063989349E+03  0.45063989349E+03  0.00000000000E+00 0. -1.
         25    1    1    2    0    0 -0.51816728846E+03 -0.40587984559E+03  0.20832753304E+03  0.70161324739E+03  0.12500000000E+03 0.  0.
         25    1    1    2    0    0  0.46425997511E+03  0.30187972245E+03  0.37885556682E+03  0.68251390595E+03  0.12500000000E+03 0.  0.
         25    1    1    2    0    0  0.53907313356E+02  0.10400012314E+03  0.88469588234E+02  0.19280532174E+03  0.12500000000E+03 0.  0.
</event>
<event>
 5    0  0.5786117E-005  0.3265734E+03  0.7546771E-02  0.1072663E+00
         21   -1    0    0  502  501  0.00000000000E+00  0.00000000000E+00  0.58435645213E+03  0.58435645213E+03  0.00000000000E+00 0. -1.
         21   -1    0    0  501  502 -0.00000000000E+00 -0.00000000000E+00 -0.18250882891E+03  0.18250882891E+03  0.00000000000E+00 0. -1.
         25    1    1    2    0    0  0.61497875522E+02 -0.13936204518E+03  0.26835364518E+03  0.33293009358E+03  0.12500000000E+03 0.  0.
         25    1    1    2    0    0 -0.31070173568E+02 -0.69754028539E+02  0.11769906522E+03  0.18790702525E+03  0.12500000000E+03 0.  0.
         25    1    1    2    0    0 -0.30427701954E+02  0.20911607372E+03  0.15794912825E+02  0.24602816222E+03  0.12500000000E+03 0.  0.
</event>
<event>
 5    0  0.5786117E-005  0.3772439E+03  0.7546771E-02  0.1051957E+00
         21   -1    0    0  502  501  0.00000000000E+00  0.00000000000E+00  0.28325985875E+03  0.28325985875E+03  0.00000000000E+00 0. -1.
         21   -1    0    0  501  502 -0.00000000000E+00 -0.00000000000E+00 -0.50241136377E+03  0.50241136377E+03  0.00000000000E+00 0. -1.
         25    1    1    2    0    0 -0.11408196902E+03  0.13211054620E+03  0.12770536142E+03  0.24980302522E+03  0.12500000000E+03 0.  0.
         25    1    1    2    0    0  0.15497610642E+03 -0.91947926628E+02 -0.33152733827E+03  0.39750143496E+03  0.12500000000E+03 0.  0.
         25    1    1    2    0    0 -0.40894137405E+02 -0.40162619573E+02 -0.15329528170E+02  0.13836676233E+03  0.12500000000E+03 0.  0.
</event>
<event>
 5    0  0.5786117E-005  0.3057678E+03  0.7546771E-02  0.1082392E+00
         21   -1    0    0  502  501  0.00000000000E+00  0.00000000000E+00  0.95642036690E+02  0.95642036690E+02  0.00000000000E+00 0.  1.
         21   -1    0    0  501  502 -0.00000000000E+00 -0.00000000000E+00 -0.97754053074E+03  0.97754053074E+03  0.00000000000E+00 0.  1.
         25    1    1    2    0    0  0.35887217303E+02  0.56070478758E+02 -0.24605606887E+02  0.14374361497E+03  0.12500000000E+03 0.  0.
         25    1    1    2    0    0  0.21485492504E+02 -0.13933691422E+03 -0.35302306372E+03  0.40015832563E+03  0.12500000000E+03 0.  0.
         25    1    1    2    0    0 -0.57372709807E+02  0.83266435460E+02 -0.50426982344E+03  0.52928062683E+03  0.12500000000E+03 0.  0.
</event>
<event>
 5    0  0.5786117E-005  0.3808211E+03  0.7546771E-02  0.1050631E+00
         21   -1    0    0  502  501  0.00000000000E+00  0.00000000000E+00  0.26029111575E+04  0.26029111575E+04  0.00000000000E+00 0. -1.
         21   -1    0    0  501  502 -0.00000000000E+00 -0.00000000000E+00 -0.55716346778E+02  0.55716346778E+02  0.00000000000E+00 0. -1.
         25    1    1    2    0    0  0.10572913835E+03  0.57841964863E+02  0.33270058142E+03  0.37528525214E+03  0.12500000000E+03 0.  0.
         25    1    1    2    0    0  0.52067068062E+02 -0.38728560351E+02  0.13852410300E+03  0.19754697688E+03  0.12500000000E+03 0.  0.
         25    1    1    2    0    0 -0.15779620641E+03 -0.19113404512E+02  0.20759701263E+04  0.20857952752E+04  0.12500000000E+03 0.  0.
</event>
<event>
 5    0  0.5786117E-005  0.2351301E+03  0.7546771E-02  0.1123080E+00
         21   -1    0    0  502  501  0.00000000000E+00  0.00000000000E+00  0.20559369290E+03  0.20559369290E+03  0.00000000000E+00 0.  1.
         21   -1    0    0  501  502 -0.00000000000E+00 -0.00000000000E+00 -0.26890976774E+03  0.26890976774E+03  0.00000000000E+00 0.  1.
         25    1    1    2    0    0 -0.64964389741E+02 -0.80670007660E+01  0.22626763162E+01  0.14112252882E+03  0.12500000000E+03 0.  0.
         25    1    1    2    0    0  0.93035737647E+02  0.43036747394E+02  0.36687768535E+02  0.16576731423E+03  0.12500000000E+03 0.  0.
         25    1    1    2    0    0 -0.28071347907E+02 -0.34969746628E+02 -0.10226651970E+03  0.16761361760E+03  0.12500000000E+03 0.  0.
</event>
<event>
 5    0  0.5786117E-005  0.2717088E+03  0.7546771E-02  0.1100306E+00
         21   -1    0    0  502  501  0.00000000000E+00  0.00000000000E+00  0.31947455979E+04  0.31947455979E+04  0.00000000000E+00 0. -1.
         21   -1    0    0  501  502 -0.00000000000E+00 -0.00000000000E+00 -0.23108458677E+02  0.23108458677E+02  0.00000000000E+00 0. -1.
         25    1    1    2    0    0  0.36347527644E+02  0.92396891440E+02  0.89234270532E+03  0.90650914615E+03  0.12500000000E+03 0.  0.
         25    1    1    2    0    0 -0.14242812915E+02 -0.97639726568E+00  0.18527978316E+04  0.18570645158E+04  0.12500000000E+03 0.  0.
         25    1    1    2    0    0 -0.22104714730E+02 -0.91420494175E+02  0.42649660236E+03  0.45428039468E+03  0.12500000000E+03 0.  0.
</event>
<event>
 5    0  0.5786117E-005  0.2773217E+03  0.7546771E-02  0.1097161E+00
         21   -1    0    0  502  501  0.00000000000E+00  0.00000000000E+00  0.34925436778E+03  0.34925436778E+03  0.00000000000E+00 0. -1.
         21   -1    0    0  501  502 -0.00000000000E+00 -0.00000000000E+00 -0.22020426865E+03  0.22020426865E+03  0.00000000000E+00 0. -1.
         25    1    1    2    0    0  0.93269351102E+02 -0.10177903107E+03 -0.98234117589E+01  0.18649300909E+03  0.12500000000E+03 0.  0.
         25    1    1    2    0    0 -0.91874391852E+02  0.15551520377E+03  0.10070787887E+03  0.24164635182E+03  0.12500000000E+03 0.  0.
         25    1    1    2    0    0 -0.13949592503E+01 -0.53736172693E+02  0.38165632029E+02  0.14131927553E+03  0.12500000000E+03 0.  0.
</event>
<event>
 5    0  0.5786117E-005  0.4014417E+03  0.7546771E-02  0.1043282E+00
         21   -1    0    0  502  501  0.00000000000E+00  0.00000000000E+00  0.24905400856E+03  0.24905400856E+03  0.00000000000E+00 0. -1.
         21   -1    0    0  501  502 -0.00000000000E+00 -0.00000000000E+00 -0.64707015513E+03  0.64707015513E+03  0.00000000000E+00 0. -1.
         25    1    1    2    0    0 -0.16036917409E+03 -0.96201879531E+01 -0.22287969971E+03  0.30184628630E+03  0.12500000000E+03 0.  0.
         25    1    1    2    0    0 -0.87868165204E+02 -0.16638595094E+03 -0.98473991165E+01  0.22611295937E+03  0.12500000000E+03 0.  0.
         25    1    1    2    0    0  0.24823733930E+03  0.17600613889E+03 -0.16528904775E+03  0.36816491801E+03  0.12500000000E+03 0.  0.
</event>
<event>
 5    0  0.5786117E-005  0.2456889E+03  0.7546771E-02  0.1116060E+00
         21   -1    0    0  502  501  0.00000000000E+00  0.00000000000E+00  0.91237383292E+03  0.91237383292E+03  0.00000000000E+00 0.  1.
         21   -1    0    0  501  502 -0.00000000000E+00 -0.00000000000E+00 -0.66160431610E+02  0.66160431610E+02  0.00000000000E+00 0.  1.
         25    1    1    2    0    0 -0.94373834199E+02 -0.72189510700E+02  0.19098816821E+03  0.25733096672E+03  0.12500000000E+03 0.  0.
         25    1    1    2    0    0  0.85758031656E+02  0.25309603325E+02  0.24029314145E+03  0.28523816337E+03  0.12500000000E+03 0.  0.
         25    1    1    2    0    0  0.86158025438E+01  0.46879907375E+02  0.41493209164E+03  0.43596513443E+03  0.12500000000E+03 0.  0.
</event>
<event>
 5    0  0.5786117E-005  0.3428313E+03  0.7546771E-02  0.1065596E+00
         21   -1    0    0  502  501  0.00000000000E+00  0.00000000000E+00  0.12044871113E+04  0.12044871113E+04  0.00000000000E+00 0.  1.
         21   -1    0    0  501  502 -0.00000000000E+00 -0.00000000000E+00 -0.97579532263E+02  0.97579532263E+02  0.00000000000E+00 0.  1.
         25    1    1    2    0    0 -0.78246324408E+02 -0.37951998005E+02  0.29313600980E+03  0.33032796079E+03  0.12500000000E+03 0.  0.
         25    1    1    2    0    0  0.99903354979E+02 -0.88223684753E+02  0.76466838613E+03  0.78619771027E+03  0.12500000000E+03 0.  0.
         25    1    1    2    0    0 -0.21657030571E+02  0.12617568276E+03  0.49103183126E+02  0.18554097253E+03  0.12500000000E+03 0.  0.
</event>
<event>
 5    0  0.5786117E-005  0.3526241E+03  0.7546771E-02  0.1061543E+00
         21   -1    0    0  502  501  0.00000000000E+00  0.00000000000E+00  0.41733464235E+03  0.41733464235E+03  0.00000000000E+00 0.  1.
         21   -1    0    0  501  502 -0.00000000000E+00 -0.00000000000E+00 -0.29794733239E+03  0.29794733239E+03  0.00000000000E+00 0.  1.
         25    1    1    2    0    0 -0.13947609682E+03  0.37741390228E+02  0.64420299892E+02  0.20162581471E+03  0.12500000000E+03 0.  0.
         25    1    1    2    0    0 -0.79598130042E+02 -0.14327039430E+03  0.11166233931E+03  0.23442641961E+03  0.12500000000E+03 0.  0.
         25    1    1    2    0    0  0.21907422686E+03  0.10552900408E+03 -0.56695329243E+02  0.27922974042E+03  0.12500000000E+03 0.  0.
</event>
<event>
 5    0  0.5786117E-005  0.2004112E+03  0.7546771E-02  0.1149393E+00
         21   -1    0    0  502  501  0.00000000000E+00  0.00000000000E+00  0.83049875557E+03  0.83049875557E+03  0.00000000000E+00 0.  1.
         21   -1    0    0  501  502 -0.00000000000E+00 -0.00000000000E+00 -0.48362068210E+02  0.48362068210E+02  0.00000000000E+00 0.  1.
         25    1    1    2    0    0 -0.31163557981E+02  0.14118536438E+02  0.25867836426E+03  0.28932679888E+03  0.12500000000E+03 0.  0.
         25    1    1    2    0    0 -0.29168726383E+01 -0.46855437877E+02  0.21102008585E+03  0.24971667312E+03  0.12500000000E+03 0.  0.
         25    1    1    2    0    0  0.34080430620E+02  0.32736901439E+02  0.31243823726E+03  0.33981735178E+03  0.12500000000E+03 0.  0.
</event>
<event>
 5    0  0.5786117E-005  0.4125609E+03  0.7546771E-02  0.1039515E+00
         21   -1    0    0  502  501  0.00000000000E+00  0.00000000000E+00  0.17711689329E+03  0.17711689329E+03  0.00000000000E+00 0.  1.
         21   -1    0    0  501  502 -0.00000000000E+00 -0.00000000000E+00 -0.96098402323E+03  0.96098402323E+03  0.00000000000E+00 0.  1.
         25    1    1    2    0    0  0.17691648797E+03  0.15852407672E+03 -0.38626429397E+03  0.47037690357E+03  0.12500000000E+03 0.  0.
         25    1    1    2    0    0 -0.74649049041E+02 -0.24359674496E+03 -0.39347297746E+03  0.48513692775E+03  0.12500000000E+03 0.  0.
         25    1    1    2    0    0 -0.10226743893E+03  0.85072668237E+02 -0.41298585083E+01  0.18258708519E+03  0.12500000000E+03 0.  0.
</event>
<event>
 5    0  0.5786117E-005  0.4178535E+03  0.7546771E-02  0.1037767E+00
         21   -1    0    0  502  501  0.00000000000E+00  0.00000000000E+00  0.12087631523E+04  0.12087631523E+04  0.00000000000E+00 0.  1.
         21   -1    0    0  501  502 -0.00000000000E+00 -0.00000000000E+00 -0.14444644362E+03  0.14444644362E+03  0.00000000000E+00 0.  1.
         25    1    1    2    0    0  0.18076996497E+03 -0.16352478472E+03  0.15388912161E+03  0.31420534242E+03  0.12500000000E+03 0.  0.
         25    1    1    2    0    0  0.58957302409E+02  0.61025047802E+02  0.10699866231E+03  0.18513166586E+03  0.12500000000E+03 0.  0.
         25    1    1    2    0    0 -0.23972726738E+03  0.10249973692E+03  0.80342892475E+03  0.85387258764E+03  0.12500000000E+03 0.  0.
</event>
<event>
 5    0  0.5786117E-005  0.5884659E+03  0.7546771E-02  0.9929629E-01
         21   -1    0    0  502  501  0.00000000000E+00  0.00000000000E+00  0.47824525718E+03  0.47824525718E+03  0.00000000000E+00 0. -1.
         21   -1    0    0  501  502 -0.00000000000E+00 -0.00000000000E+00 -0.72408909188E+03  0.72408909188E+03  0.00000000000E+00 0. -1.
         25    1    1    2    0    0 -0.19816056023E+03 -0.46453046721E+03 -0.81351296003E+02  0.52659205839E+03  0.12500000000E+03 0.  0.
         25    1    1    2    0    0 -0.29588473130E+02  0.12233397655E+02 -0.65959529415E+02  0.14491650452E+03  0.12500000000E+03 0.  0.
         25    1    1    2    0    0  0.22774903336E+03  0.45229706956E+03 -0.98533009275E+02  0.53082578615E+03  0.12500000000E+03 0.  0.
</event>
<event>
 5    0  0.5786117E-005  0.3250730E+03  0.7546771E-02  0.1073338E+00
         21   -1    0    0  502  501  0.00000000000E+00  0.00000000000E+00  0.52978529368E+02  0.52978529368E+02  0.00000000000E+00 0.  1.
         21   -1    0    0  501  502 -0.00000000000E+00 -0.00000000000E+00 -0.19946274035E+04  0.19946274035E+04  0.00000000000E+00 0.  1.
         25    1    1    2    0    0  0.13438366805E+03 -0.85657352151E+02 -0.41100839812E+03  0.45820198116E+03  0.12500000000E+03 0.  0.
         25    1    1    2    0    0 -0.20989453588E+01 -0.51003510930E+02 -0.10378222590E+04  0.10465685859E+04  0.12500000000E+03 0.  0.
         25    1    1    2    0    0 -0.13228472269E+03  0.13666086308E+03 -0.49281821695E+03  0.54283536576E+03  0.12500000000E+03 0.  0.
</event>
<event>
 5    0  0.5786117E-005  0.2980127E+03  0.7546771E-02  0.1086238E+00
         21   -1    0    0  502  501  0.00000000000E+00  0.00000000000E+00  0.10800999115E+03  0.10800999115E+03  0.00000000000E+00 0.  1.
         21   -1    0    0  501  502 -0.00000000000E+00 -0.00000000000E+00 -0.82225316404E+03  0.82225316404E+03  0.00000000000E+00 0.  1.
         25    1    1    2    0    0 -0.59318246323E+02  0.43513550265E+02  0.14971768211E+02  0.14581233572E+03  0.12500000000E+03 0.  0.
         25    1    1    2    0    0  0.53815791581E+02 -0.22309781097E+02 -0.53470488018E+03  0.55220301941E+03  0.12500000000E+03 0.  0.
         25    1    1    2    0    0  0.55024547414E+01 -0.21203769168E+02 -0.19451006091E+03  0.23224780006E+03  0.12500000000E+03 0.  0.
</event>
<event>
 5    0  0.5786117E-005  0.2926944E+03  0.7546771E-02  0.1088951E+00
         21   -1    0    0  502  501  0.00000000000E+00  0.00000000000E+00  0.38575977957E+03  0.38575977957E+03  0.00000000000E+00 0. -1.
         21   -1    0    0  501  502 -0.00000000000E+00 -0.00000000000E+00 -0.22208122326E+03  0.22208122326E+03  0.00000000000E+00 0. -1.
         25    1    1    2    0    0  0.15668499539E+03 -0.48083439853E+02  0.18919012255E+03  0.27978582423E+03  0.12500000000E+03 0.  0.
         25    1    1    2    0    0 -0.59470018632E+02  0.38139236647E+02  0.50390835516E+02  0.15216938191E+03  0.12500000000E+03 0.  0.
         25    1    1    2    0    0 -0.97214976757E+02  0.99442032057E+01 -0.75902401760E+02  0.17588579669E+03  0.12500000000E+03 0.  0.
</event>
<event>
 5    0  0.5786117E-005  0.2871472E+03  0.7546771E-02  0.1091848E+00
         21   -1    0    0  502  501  0.00000000000E+00  0.00000000000E+00  0.32550810404E+03  0.32550810404E+03  0.00000000000E+00 0. -1.
         21   -1    0    0  501  502 -0.00000000000E+00 -0.00000000000E+00 -0.25330712833E+03  0.25330712833E+03  0.00000000000E+00 0. -1.
         25    1    1    2    0    0 -0.66958845271E+01  0.53010939610E+02  0.12922537589E+03  0.18756116965E+03  0.12500000000E+03 0.  0.
         25    1    1    2    0    0 -0.13525617144E+03 -0.29456859820E+02 -0.72305852708E+02  0.20003768355E+03  0.12500000000E+03 0.  0.
         25    1    1    2    0    0  0.14195205597E+03 -0.23554079790E+02  0.15281452523E+02  0.19121637916E+03  0.12500000000E+03 0.  0.
</event>
<event>
 5    0  0.5786117E-005  0.4313638E+03  0.7546771E-02  0.1033430E+00
         21   -1    0    0  502  501  0.00000000000E+00  0.00000000000E+00  0.59780396995E+03  0.59780396995E+03  0.00000000000E+00 0. -1.
         21   -1    0    0  501  502 -0.00000000000E+00 -0.00000000000E+00 -0.31126384291E+03  0.31126384291E+03  0.00000000000E+00 0. -1.
         25    1    1    2    0    0  0.94345110364E+01  0.12174565327E+03  0.22539058774E+03  0.28519630280E+03  0.12500000000E+03 0.  0.
         25    1    1    2    0    0  0.58997600442E+02 -0.33015779132E+03  0.91891087756E+02  0.36953194183E+03  0.12500000000E+03 0.  0.
         25    1    1    2    0    0 -0.68432111478E+02  0.20841213805E+03 -0.30741548452E+02  0.25433956823E+03  0.12500000000E+03 0.  0.
</event>
<event>
 5    0  0.6212236E-005  0.3203650E+03  0.7546771E-02  0.1075481E+00
         21   -1    0    0  502  501  0.00000000000E+00  0.00000000000E+00  0.52003787066E+03  0.52003787066E+03  0.00000000000E+00 0.  1.
         21   -1    0    0  501  502 -0.00000000000E+00 -0.00000000000E+00 -0.19735824333E+03  0.19735824333E+03  0.00000000000E+00 0.  1.
         25    1    1    2    0    0  0.13328330931E+03 -0.31680005297E+02  0.78355243155E+02  0.20132711543E+03  0.12500000000E+03 0.  0.
         25    1    1    2    0    0  0.17039823350E+02 -0.12200945216E+03  0.19535423563E+03  0.26261176549E+03  0.12500000000E+03 0.  0.
         25    1    1    2    0    0 -0.15032313266E+03  0.15368945745E+03  0.48970148538E+02  0.25345723307E+03  0.12500000000E+03 0.  0.
</event>
<event>
 5    0  0.5786117E-005  0.2791574E+03  0.7546771E-02  0.1096150E+00
         21   -1    0    0  502  501  0.00000000000E+00  0.00000000000E+00  0.71512188392E+03  0.71512188392E+03  0.00000000000E+00 0. -1.
         21   -1    0    0  501  502 -0.00000000000E+00 -0.00000000000E+00 -0.10897284240E+03  0.10897284240E+03  0.00000000000E+00 0. -1.
         25    1    1    2    0    0 -0.18104075923E+02 -0.15972219870E+03  0.21405445577E+03  0.29543738483E+03  0.12500000000E+03 0.  0.
         25    1    1    2    0    0 -0.82359699506E+02  0.83209643942E+02  0.14557400480E+03  0.22477490033E+03  0.12500000000E+03 0.  0.
         25    1    1    2    0    0  0.10046377543E+03  0.76512554761E+02  0.24652058095E+03  0.30388244116E+03  0.12500000000E+03 0.  0.
</event>
<event>
 5    0  0.5786117E-005  0.3253404E+03  0.7546771E-02  0.1073217E+00
         21   -1    0    0  502  501  0.00000000000E+00  0.00000000000E+00  0.44503188545E+03  0.44503188545E+03  0.00000000000E+00 0. -1.
         21   -1    0    0  501  502 -0.00000000000E+00 -0.00000000000E+00 -0.23784000899E+03  0.23784000899E+03  0.00000000000E+00 0. -1.
         25    1    1    2    0    0  0.49758712331E+01  0.96505705518E+02 -0.39365145311E+01  0.15804621678E+03  0.12500000000E+03 0.  0.
         25    1    1    2    0    0 -0.16670779027E+03 -0.90016747388E+02  0.22531744031E+03  0.31982409393E+03  0.12500000000E+03 0.  0.
         25    1    1    2    0    0  0.16173191903E+03 -0.64889581304E+01 -0.14189049314E+02  0.20500158373E+03  0.12500000000E+03 0.  0.
</event>
<event>
 5    0  0.5786117E-005  0.2849671E+03  0.7546771E-02  0.1093007E+00
         21   -1    0    0  502  501  0.00000000000E+00  0.00000000000E+00  0.15286831839E+04  0.15286831839E+04  0.00000000000E+00 0.  1.
         21   -1    0    0  501  502 -0.00000000000E+00 -0.00000000000E+00 -0.53121705318E+02  0.53121705318E+02  0.00000000000E+00 0.  1.
         25    1    1    2    0    0  0.32408602133E+02  0.14060241279E+03  0.63148773168E+03  0.65971290062E+03  0.12500000000E+03 0.  0.
         25    1    1    2    0    0 -0.31189343960E+02 -0.10658195133E+03  0.18071905773E+03  0.24620492552E+03  0.12500000000E+03 0.  0.
         25    1    1    2    0    0 -0.12192581726E+01 -0.34020461464E+02  0.66335468913E+03  0.67588706304E+03  0.12500000000E+03 0.  0.
</event>
<event>
 5    0  0.5786117E-005  0.2957265E+03  0.7546771E-02  0.1087397E+00
         21   -1    0    0  502  501  0.00000000000E+00  0.00000000000E+00  0.93203778637E+03  0.93203778637E+03  0.00000000000E+00 0.  1.
         21   -1    0    0  501  502 -0.00000000000E+00 -0.00000000000E+00 -0.93831158191E+02  0.93831158191E+02  0.00000000000E+00 0.  1.
         25    1    1    2    0    0  0.67421972580E+02 -0.10253946838E+03  0.63360489424E+03  0.65737373462E+03  0.12500000000E+03 0.  0.
         25    1    1    2    0    0 -0.19169386320E+02 -0.15127392828E+02  0.72299519249E+02  0.14645314564E+03  0.12500000000E+03 0.  0.
         25    1    1    2    0    0 -0.48252586260E+02  0.11766686120E+03  0.13230221469E+03  0.22204206430E+03  0.12500000000E+03 0.  0.
</event>
<event>
 5    0  0.5786117E-005  0.3964029E+03  0.7546771E-02  0.1045032E+00
         21   -1    0    0  502  501  0.00000000000E+00  0.00000000000E+00  0.13454287138E+03  0.13454287138E+03  0.00000000000E+00 0. -1.
         21   -1    0    0  501  502 -0.00000000000E+00 -0.00000000000E+00 -0.11679194898E+04  0.11679194898E+04  0.00000000000E+00 0. -1.
         25    1    1    2    0    0 -0.58833083678E+02  0.14502510071E+03 -0.27083249611E+03  0.33685138046E+03  0.12500000000E+03 0.  0.
         25    1    1    2    0    0 -0.62537515799E+02 -0.31271504288E+03 -0.36705741150E+03  0.50205356513E+03  0.12500000000E+03 0.  0.
         25    1    1    2    0    0  0.12137059948E+03  0.16768994217E+03 -0.39548671079E+03  0.46355741557E+03  0.12500000000E+03 0.  0.
</event>
<event>
 5    0  0.5786117E-005  0.2688479E+03  0.7546771E-02  0.1101941E+00
         21   -1    0    0  502  501  0.00000000000E+00  0.00000000000E+00  0.37921440107E+03  0.37921440107E+03  0.00000000000E+00 0.  1.
         21   -1    0    0  501  502 -0.00000000000E+00 -0.00000000000E+00 -0.19060242501E+03  0.19060242501E+03  0.00000000000E+00 0.  1.
         25    1    1    2    0    0 -0.59277368217E+02  0.12609287865E+03  0.12474664670E+03  0.22494431820E+03  0.12500000000E+03 0.  0.
         25    1    1    2    0    0  0.72419208936E+02  0.68083081128E+01 -0.15546891088E+02  0.14545652514E+03  0.12500000000E+03 0.  0.
         25    1    1    2    0    0 -0.13141840718E+02 -0.13290118676E+03  0.79412220445E+02  0.19941598275E+03  0.12500000000E+03 0.  0.
</event>
<event>
 5    0  0.6343581E-005  0.3166452E+03  0.7546771E-02  0.1077204E+00
         21   -1    0    0  502  501  0.00000000000E+00  0.00000000000E+00  0.48625659191E+03  0.48625659191E+03  0.00000000000E+00 0. -1.
         21   -1    0    0  501  502 -0.00000000000E+00 -0.00000000000E+00 -0.20619604143E+03  0.20619604143E+03  0.00000000000E+00 0. -1.
         25    1    1    2    0    0 -0.88362238703E+02 -0.11121333834E+03  0.13054362543E+03  0.22987590129E+03  0.12500000000E+03 0.  0.
         25    1    1    2    0    0  0.15407897442E+03  0.56489598058E+02  0.21465126276E+03  0.29771054676E+03  0.12500000000E+03 0.  0.
         25    1    1    2    0    0 -0.65716735722E+02  0.54723740280E+02 -0.65134337706E+02  0.16486618529E+03  0.12500000000E+03 0.  0.
</event>
<event>
 5    0  0.5786117E-005  0.7001248E+03  0.7546771E-02  0.9717019E-01
         21   -1    0    0  502  501  0.00000000000E+00  0.00000000000E+00  0.54269562078E+03  0.54269562078E+03  0.00000000000E+00 0. -1.
         21   -1    0    0  501  502 -0.00000000000E+00 -0.00000000000E+00 -0.90322219150E+03  0.90322219150E+03  0.00000000000E+00 0. -1.
         25    1    1    2    0    0  0.96141648894E+02 -0.22972873094E+03  0.19258258674E+03  0.33872047352E+03  0.12500000000E+03 0.  0.
         25    1    1    2    0    0 -0.41142166224E+03  0.17456655677E+03 -0.60201321732E+03  0.76012247745E+03  0.12500000000E+03 0.  0.
         25    1    1    2    0    0  0.31528001335E+03  0.55162174170E+02  0.48904059868E+02  0.34707486130E+03  0.12500000000E+03 0.  0.
</event>
<event>
 5    0  0.6073757E-005  0.2524041E+03  0.7546771E-02  0.1111795E+00
         21   -1    0    0  502  501  0.00000000000E+00  0.00000000000E+00  0.34557553067E+03  0.34557553067E+03  0.00000000000E+00 0.  1.
         21   -1    0    0  501  502 -0.00000000000E+00 -0.00000000000E+00 -0.18435281648E+03  0.18435281648E+03  0.00000000000E+00 0.  1.
         25    1    1    2    0    0 -0.85254162743E+01 -0.88139221484E+01  0.11700439842E+03  0.17165487816E+03  0.12500000000E+03 0.  0.
         25    1    1    2    0    0  0.78717606893E+02  0.28508365303E+02 -0.77453017110E+02  0.16921335168E+03  0.12500000000E+03 0.  0.
         25    1    1    2    0    0 -0.70192190619E+02 -0.19694443155E+02  0.12167133287E+03  0.18906011731E+03  0.12500000000E+03 0.  0.
</event>
<event>
 5    0  0.5786117E-005  0.5640423E+03  0.7546771E-02  0.9982950E-01
         21   -1    0    0  502  501  0.00000000000E+00  0.00000000000E+00  0.28251612476E+03  0.28251612476E+03  0.00000000000E+00 0. -1.
         21   -1    0    0  501  502 -0.00000000000E+00 -0.00000000000E+00 -0.11261081244E+04  0.11261081244E+04  0.00000000000E+00 0. -1.
         25    1    1    2    0    0 -0.33973619302E+02  0.12665132508E+02  0.11381165465E+03  0.17289506970E+03  0.12500000000E+03 0.  0.
         25    1    1    2    0    0 -0.30501235593E+03  0.11877685012E+03 -0.24941349398E+03  0.43008437356E+03  0.12500000000E+03 0.  0.
         25    1    1    2    0    0  0.33898597524E+03 -0.13144198263E+03 -0.70799016035E+03  0.80564480595E+03  0.12500000000E+03 0.  0.
</event>
<event>
 5    0  0.5786117E-005  0.2762442E+03  0.7546771E-02  0.1097758E+00
         21   -1    0    0  502  501  0.00000000000E+00  0.00000000000E+00  0.19726970127E+03  0.19726970127E+03  0.00000000000E+00 0.  1.
         21   -1    0    0  501  502 -0.00000000000E+00 -0.00000000000E+00 -0.38683519612E+03  0.38683519612E+03  0.00000000000E+00 0.  1.
         25    1    1    2    0    0  0.65221910629E+02  0.97737024024E+02 -0.57821906078E+02  0.18103810735E+03  0.12500000000E+03 0.  0.
         25    1    1    2    0    0  0.63897843115E+02 -0.12393450605E+03 -0.11710526693E+03  0.22086498067E+03  0.12500000000E+03 0.  0.
         25    1    1    2    0    0 -0.12911975374E+03  0.26197482026E+02 -0.14638321837E+02  0.18220180937E+03  0.12500000000E+03 0.  0.
</event>
<event>
 5    0  0.5786117E-005  0.3839159E+03  0.7546771E-02  0.1049496E+00
         21   -1    0    0  502  501  0.00000000000E+00  0.00000000000E+00  0.94657158307E+03  0.94657158307E+03  0.00000000000E+00 0.  1.
         21   -1    0    0  501  502 -0.00000000000E+00 -0.00000000000E+00 -0.15571081001E+03  0.15571081001E+03  0.00000000000E+00 0.  1.
         25    1    1    2    0    0 -0.16269632725E+03 -0.96635440046E+02  0.48624972626E+02  0.23194372407E+03  0.12500000000E+03 0.  0.
         25    1    1    2    0    0  0.60850130912E+02 -0.11325438156E+03  0.39445276779E+03  0.43329814145E+03  0.12500000000E+03 0.  0.
         25    1    1    2    0    0  0.10184619634E+03  0.20988982160E+03  0.34778303265E+03  0.43704052755E+03  0.12500000000E+03 0.  0.
</event>
<event>
 5    0  0.6507299E-005  0.2909644E+03  0.7546771E-02  0.1089847E+00
         21   -1    0    0  502  501  0.00000000000E+00  0.00000000000E+00  0.21082314049E+03  0.21082314049E+03  0.00000000000E+00 0. -1.
         21   -1    0    0  501  502 -0.00000000000E+00 -0.00000000000E+00 -0.40157025623E+03  0.40157025623E+03  0.00000000000E+00 0. -1.
         25    1    1    2    0    0 -0.93835862953E+02  0.69893480102E+00  0.10816139401E+03  0.19007773368E+03  0.12500000000E+03 0.  0.
         25    1    1    2    0    0  0.91981965395E+02  0.43303320812E+02 -0.12646822876E+03  0.20482937396E+03  0.12500000000E+03 0.  0.
         25    1    1    2    0    0  0.18538975577E+01 -0.44002255613E+02 -0.17244028098E+03  0.21748628909E+03  0.12500000000E+03 0.  0.
</event>
<event>
 5    0  0.5786117E-005  0.3111662E+03  0.7546771E-02  0.1079788E+00
         21   -1    0    0  502  501  0.00000000000E+00  0.00000000000E+00  0.89230754348E+03  0.89230754348E+03  0.00000000000E+00 0.  1.
         21   -1    0    0  501  502 -0.00000000000E+00 -0.00000000000E+00 -0.10851015678E+03  0.10851015678E+03  0.00000000000E+00 0.  1.
         25    1    1    2    0    0  0.42333216272E+02 -0.67121258810E+01  0.10570239153E+02  0.13256652590E+03  0.12500000000E+03 0.  0.
         25    1    1    2    0    0 -0.56033749280E+02 -0.11578104203E+03  0.19952367353E+03  0.26829037823E+03  0.12500000000E+03 0.  0.
         25    1    1    2    0    0  0.13700533008E+02  0.12249316791E+03  0.57370347402E+03  0.59996079613E+03  0.12500000000E+03 0.  0.
</event>
<event>
 5    0  0.5786117E-005  0.3025942E+03  0.7546771E-02  0.1083951E+00
         21   -1    0    0  502  501  0.00000000000E+00  0.00000000000E+00  0.11304127643E+03  0.11304127643E+03  0.00000000000E+00 0.  1.
         21   -1    0    0  501  502 -0.00000000000E+00 -0.00000000000E+00 -0.80999849499E+03  0.80999849499E+03  0.00000000000E+00 0.  1.
         25    1    1    2    0    0  0.21323786121E+02 -0.33495991467E+02 -0.53961754048E+03  0.55532762878E+03  0.12500000000E+03 0.  0.
         25    1    1    2    0    0  0.69995048687E+02 -0.39043130547E+02 -0.22936701945E+02  0.15024901058E+03  0.12500000000E+03 0.  0.
         25    1    1    2    0    0 -0.91318834808E+02  0.72539122014E+02 -0.13440297613E+03  0.21746313206E+03  0.12500000000E+03 0.  0.
</event>
<event>
 5    0  0.5786117E-005  0.7141949E+03  0.7546771E-02  0.9693260E-01
         21   -1    0    0  502  501  0.00000000000E+00  0.00000000000E+00  0.46737460055E+03  0.46737460055E+03  0.00000000000E+00 0. -1.
         21   -1    0    0  501  502 -0.00000000000E+00 -0.00000000000E+00 -0.10913608557E+04  0.10913608557E+04  0.00000000000E+00 0. -1.
         25    1    1    2    0    0 -0.87624691568E+00  0.23466045726E+03 -0.96613911747E+03  0.10020559327E+04  0.12500000000E+03 0.  0.
         25    1    1    2    0    0  0.12985513316E+03 -0.14842736523E+03  0.13707567828E+03  0.27075409495E+03  0.12500000000E+03 0.  0.
         25    1    1    2    0    0 -0.12897888625E+03 -0.86233092028E+02  0.20507718407E+03  0.28592542854E+03  0.12500000000E+03 0.  0.
</event>
<event>
 5    0  0.5786117E-005  0.2922843E+03  0.7546771E-02  0.1089163E+00
         21   -1    0    0  502  501  0.00000000000E+00  0.00000000000E+00  0.16983508827E+03  0.16983508827E+03  0.00000000000E+00 0.  1.
         21   -1    0    0  501  502 -0.00000000000E+00 -0.00000000000E+00 -0.50301786316E+03  0.50301786316E+03  0.00000000000E+00 0.  1.
         25    1    1    2    0    0 -0.49363947189E+02  0.14029363527E+03 -0.17981994644E+03  0.26472498280E+03  0.12500000000E+03 0.  0.
         25    1    1    2    0    0  0.94504910895E+02 -0.35408649977E+02  0.24565997279E+02  0.16252211818E+03  0.12500000000E+03 0.  0.
         25    1    1    2    0    0 -0.45140963707E+02 -0.10488498529E+03 -0.17792882574E+03  0.24560585044E+03  0.12500000000E+03 0.  0.
</event>
<event>
 5    0  0.5786117E-005  0.3653515E+03  0.7546771E-02  0.1056485E+00
         21   -1    0    0  502  501  0.00000000000E+00  0.00000000000E+00  0.18718428998E+04  0.18718428998E+04  0.00000000000E+00 0.  1.
         21   -1    0    0  501  502 -0.00000000000E+00 -0.00000000000E+00 -0.71310331421E+02  0.71310331421E+02  0.00000000000E+00 0.  1.
         25    1    1    2    0    0 -0.17886162976E+03 -0.12114802759E+03  0.12511060783E+04  0.12757584985E+04  0.12500000000E+03 0.  0.
         25    1    1    2    0    0  0.14564314486E+03  0.26286386023E+02  0.17911053132E+03  0.26383419446E+03  0.12500000000E+03 0.  0.
         25    1    1    2    0    0  0.33218484909E+02  0.94861641572E+02  0.37031595875E+03  0.40356053831E+03  0.12500000000E+03 0.  0.
</event>
<event>
 5    0  0.5786117E-005  0.6711080E+03  0.7546771E-02  0.9767958E-01
         21   -1    0    0  502  501  0.00000000000E+00  0.00000000000E+00  0.43735848909E+03  0.43735848909E+03  0.00000000000E+00 0. -1.
         21   -1    0    0  501  502 -0.00000000000E+00 -0.00000000000E+00 -0.10297867520E+04  0.10297867520E+04  0.00000000000E+00 0. -1.
         25    1    1    2    0    0  0.37381928354E+03  0.23991646995E+03 -0.75881709485E+03  0.88810424654E+03  0.12500000000E+03 0.  0.
         25    1    1    2    0    0 -0.28928358244E+03 -0.24075243647E+03  0.78052338931E+02  0.40418299611E+03  0.12500000000E+03 0.  0.
         25    1    1    2    0    0 -0.84535701092E+02  0.83596651554E+00  0.88336493047E+02  0.17485799840E+03  0.12500000000E+03 0.  0.
</event>
<event>
 5    0  0.5786117E-005  0.3504804E+03  0.7546771E-02  0.1062418E+00
         21   -1    0    0  502  501  0.00000000000E+00  0.00000000000E+00  0.36252463970E+02  0.36252463970E+02  0.00000000000E+00 0. -1.
         21   -1    0    0  501  502 -0.00000000000E+00 -0.00000000000E+00 -0.33883627487E+04  0.33883627487E+04  0.00000000000E+00 0. -1.
         25    1    1    2    0    0 -0.17572558040E+03 -0.47176374348E+02 -0.59724004417E+03  0.63673052405E+03  0.12500000000E+03 0.  0.
         25    1    1    2    0    0 -0.24241904659E+02  0.25399258876E+02 -0.38697265523E+03  0.40817352706E+03  0.12500000000E+03 0.  0.
         25    1    1    2    0    0  0.19996748506E+03  0.21777115472E+02 -0.23678975854E+04  0.23797111616E+04  0.12500000000E+03 0.  0.
</event>
<event>
 5    0  0.5786117E-005  0.2955708E+03  0.7546771E-02  0.1087476E+00
         21   -1    0    0  502  501  0.00000000000E+00  0.00000000000E+00  0.19436145901E+04  0.19436145901E+04  0.00000000000E+00 0. -1.
         21   -1    0    0  501  502 -0.00000000000E+00 -0.00000000000E+00 -0.44948257554E+02  0.44948257554E+02  0.00000000000E+00 0. -1.
         25    1    1    2    0    0  0.68680024377E+02 -0.74641750891E+02  0.13421040671E+04  0.13517235900E+04  0.12500000000E+03 0.  0.
         25    1    1    2    0    0 -0.10710901160E+03  0.50692159426E+02  0.36576008378E+03  0.40428637657E+03  0.12500000000E+03 0.  0.
         25    1    1    2    0    0  0.38428987219E+02  0.23949591465E+02  0.19080218164E+03  0.23255288110E+03  0.12500000000E+03 0.  0.
</event>
<event>
 5    0  0.5786117E-005  0.3432522E+03  0.7546771E-02  0.1065419E+00
         21   -1    0    0  502  501  0.00000000000E+00  0.00000000000E+00  0.84058072183E+03  0.84058072183E+03  0.00000000000E+00 0.  1.
         21   -1    0    0  501  502 -0.00000000000E+00 -0.00000000000E+00 -0.14016746419E+03  0.14016746419E+03  0.00000000000E+00 0.  1.
         25    1    1    2    0    0 -0.22605008727E+00 -0.92491938329E+02  0.17104141145E+03  0.23116006183E+03  0.12500000000E+03 0.  0.
         25    1    1    2    0    0 -0.19777685339E+03  0.16400818672E+03  0.29374372032E+03  0.40978621533E+03  0.12500000000E+03 0.  0.
         25    1    1    2    0    0  0.19800290348E+03 -0.71516248390E+02  0.23562812587E+03  0.33980190887E+03  0.12500000000E+03 0.  0.
</event>
<event>
 5    0  0.5786117E-005  0.3248675E+03  0.7546771E-02  0.1073431E+00
         21   -1    0    0  502  501  0.00000000000E+00  0.00000000000E+00  0.10379492693E+04  0.10379492693E+04  0.00000000000E+00 0.  1.
         21   -1    0    0  501  502 -0.00000000000E+00 -0.00000000000E+00 -0.10168019662E+03  0.10168019662E+03  0.00000000000E+00 0.  1.
         25    1    1    2    0    0  0.25878960914E+02  0.17957614329E+03  0.10692228478E+03  0.24489729855E+03  0.12500000000E+03 0.  0.
         25    1    1    2    0    0  0.70561911085E+01 -0.26119847213E+02  0.41678821276E+03  0.43596955231E+03  0.12500000000E+03 0.  0.
         25    1    1    2    0    0 -0.32935152022E+02 -0.15345629607E+03  0.41255857511E+03  0.45876261502E+03  0.12500000000E+03 0.  0.
</event>
<event>
 5    0  0.5786117E-005  0.2696300E+03  0.7546771E-02  0.1101492E+00
         21   -1    0    0  502  501  0.00000000000E+00  0.00000000000E+00  0.77501831485E+02  0.77501831485E+02  0.00000000000E+00 0.  1.
         21   -1    0    0  501  502 -0.00000000000E+00 -0.00000000000E+00 -0.93804700352E+03  0.93804700352E+03  0.00000000000E+00 0.  1.
         25    1    1    2    0    0 -0.67382162517E+02 -0.13144238787E+02 -0.87466597232E+02  0.16729773600E+03  0.12500000000E+03 0.  0.
         25    1    1    2    0    0 -0.49759295276E+02 -0.74346183031E+02 -0.39962252760E+03  0.42816644773E+03  0.12500000000E+03 0.  0.
         25    1    1    2    0    0  0.11714145779E+03  0.87490421818E+02 -0.37345604720E+03  0.42008465127E+03  0.12500000000E+03 0.  0.
</event>
<event>
 5    0  0.6233245E-005  0.3273205E+03  0.7546771E-02  0.1072329E+00
         21   -1    0    0  502  501  0.00000000000E+00  0.00000000000E+00  0.17971042769E+03  0.17971042769E+03  0.00000000000E+00 0.  1.
         21   -1    0    0  501  502 -0.00000000000E+00 -0.00000000000E+00 -0.59617399591E+03  0.59617399591E+03  0.00000000000E+00 0.  1.
         25    1    1    2    0    0 -0.85302587535E+02 -0.20361736171E+03 -0.11599857658E+03  0.27895740033E+03  0.12500000000E+03 0.  0.
         25    1    1    2    0    0 -0.54276938376E+01  0.57312736600E+02 -0.23846768543E+03  0.27532897891E+03  0.12500000000E+03 0.  0.
         25    1    1    2    0    0  0.90730281373E+02  0.14630462511E+03 -0.61997306211E+02  0.22159804436E+03  0.12500000000E+03 0.  0.
</event>
<event>
 5    0  0.5786117E-005  0.2542072E+03  0.7546771E-02  0.1110674E+00
         21   -1    0    0  502  501  0.00000000000E+00  0.00000000000E+00  0.16982302547E+04  0.16982302547E+04  0.00000000000E+00 0.  1.
         21   -1    0    0  501  502 -0.00000000000E+00 -0.00000000000E+00 -0.38052142889E+02  0.38052142889E+02  0.00000000000E+00 0.  1.
         25    1    1    2    0    0  0.77988783236E+02  0.62913549902E+02  0.25926778947E+03  0.30477065431E+03  0.12500000000E+03 0.  0.
         25    1    1    2    0    0 -0.14378648401E+02 -0.44163782604E+02  0.93876534770E+03  0.94818909679E+03  0.12500000000E+03 0.  0.
         25    1    1    2    0    0 -0.63610134835E+02 -0.18749767298E+02  0.46214497466E+03  0.48332264651E+03  0.12500000000E+03 0.  0.
</event>
<event>
 5    0  0.5786117E-005  0.2938099E+03  0.7546771E-02  0.1088377E+00
         21   -1    0    0  502  501  0.00000000000E+00  0.00000000000E+00  0.62723595278E+03  0.62723595278E+03  0.00000000000E+00 0.  1.
         21   -1    0    0  501  502 -0.00000000000E+00 -0.00000000000E+00 -0.13762649263E+03  0.13762649263E+03  0.00000000000E+00 0.  1.
         25    1    1    2    0    0 -0.10506336918E+03 -0.15458232711E+03  0.65793209517E+02  0.23428135610E+03  0.12500000000E+03 0.  0.
         25    1    1    2    0    0  0.68658780214E+02  0.11372313527E+03  0.25469270588E+03  0.31327360889E+03  0.12500000000E+03 0.  0.
         25    1    1    2    0    0  0.36404588965E+02  0.40859191843E+02  0.16912354475E+03  0.21730748042E+03  0.12500000000E+03 0.  0.
</event>
<event>
 5    0  0.5786117E-005  0.2388353E+03  0.7546771E-02  0.1120571E+00
         21   -1    0    0  502  501  0.00000000000E+00  0.00000000000E+00  0.75122005897E+03  0.75122005897E+03  0.00000000000E+00 0.  1.
         21   -1    0    0  501  502 -0.00000000000E+00 -0.00000000000E+00 -0.75932894915E+02  0.75932894915E+02  0.00000000000E+00 0.  1.
         25    1    1    2    0    0  0.10060649658E+03 -0.35304305249E+02  0.37810143275E+03  0.41225447793E+03  0.12500000000E+03 0.  0.
         25    1    1    2    0    0 -0.57078874108E+02 -0.31011687362E+02  0.13154663529E+03  0.19274138082E+03  0.12500000000E+03 0.  0.
         25    1    1    2    0    0 -0.43527622468E+02  0.66315992611E+02  0.16563909601E+03  0.22215709514E+03  0.12500000000E+03 0.  0.
</event>
