<event>
 5    0  0.5641283E-005  0.5007541E+03  0.7546771E-02  0.1013582E+00
         21   -1    0    0  502  501  0.00000000000E+00  0.00000000000E+00  0.20462113129E+03  0.20462113129E+03  0.00000000000E+00 0. -1.
         21   -1    0    0  501  502 -0.00000000000E+00 -0.00000000000E+00 -0.12254584849E+04  0.12254584849E+04  0.00000000000E+00 0. -1.
         25    1    1    2    0    0 -0.12303283876E+03 -0.13660448685E+02  0.51885508028E+02  0.18341426666E+03  0.12500000000E+03 0.  0.
         25    1    1    2    0    0 -0.17700065931E+03 -0.14933933006E+03 -0.55237389844E+03  0.61186059898E+03  0.12500000000E+03 0.  0.
         25    1    1    2    0    0  0.30003349807E+03  0.16299977874E+03 -0.52034896321E+03  0.63480475057E+03  0.12500000000E+03 0.  0.
</event>
<event>
 5    0  0.5641283E-005  0.3804031E+03  0.7546771E-02  0.1050785E+00
         21   -1    0    0  502  501  0.00000000000E+00  0.00000000000E+00  0.24764559970E+03  0.24764559970E+03  0.00000000000E+00 0. -1.
         21   -1    0    0  501  502 -0.00000000000E+00 -0.00000000000E+00 -0.58432912636E+03  0.58432912636E+03  0.00000000000E+00 0. -1.
         25    1    1    2    0    0  0.16989610172E+03  0.13431803632E+02 -0.16014587674E+03  0.26517315204E+03  0.12500000000E+03 0.  0.
         25    1    1    2    0    0  0.72024658755E+02  0.81274462970E+02  0.77241039176E+02  0.18271362273E+03  0.12500000000E+03 0.  0.
         25    1    1    2    0    0 -0.24192076048E+03 -0.94706266602E+02 -0.25377868909E+03  0.38408795128E+03  0.12500000000E+03 0.  0.
</event>
<event>
 5    0  0.5641283E-005  0.3842410E+03  0.7546771E-02  0.1049377E+00
         21   -1    0    0  502  501  0.00000000000E+00  0.00000000000E+00  0.11921551654E+03  0.11921551654E+03  0.00000000000E+00 0.  1.
         21   -1    0    0  501  502 -0.00000000000E+00 -0.00000000000E+00 -0.12384387484E+04  0.12384387484E+04  0.00000000000E+00 0.  1.
         25    1    1    2    0    0  0.49634133634E+01  0.21726628686E+03 -0.44904771929E+03  0.51429381590E+03  0.12500000000E+03 0.  0.
         25    1    1    2    0    0 -0.86700196371E+02  0.61802972629E+02 -0.10296704067E+03  0.19381368099E+03  0.12500000000E+03 0.  0.
         25    1    1    2    0    0  0.81736783008E+02 -0.27906925948E+03 -0.56720847187E+03  0.64954676802E+03  0.12500000000E+03 0.  0.
</event>
<event>
 5    0  0.5641283E-005  0.2851393E+03  0.7546771E-02  0.1092915E+00
         21   -1    0    0  502  501  0.00000000000E+00  0.00000000000E+00  0.18488939833E+04  0.18488939833E+04  0.00000000000E+00 0.  1.
         21   -1    0    0  501  502 -0.00000000000E+00 -0.00000000000E+00 -0.43974636396E+02  0.43974636396E+02  0.00000000000E+00 0.  1.
         25    1    1    2    0    0 -0.89917836460E+02  0.44982893312E+02  0.42039919776E+03  0.44996573590E+03  0.12500000000E+03 0.  0.
         25    1    1    2    0    0 -0.74855550332E+02 -0.39732439929E+02  0.27020393055E+03  0.30954350952E+03  0.12500000000E+03 0.  0.
         25    1    1    2    0    0  0.16477338679E+03 -0.52504533834E+01  0.11143162186E+04  0.11333593743E+04  0.12500000000E+03 0.  0.
</event>
<event>
 5    0  0.5641283E-005  0.2420379E+03  0.7546771E-02  0.1118443E+00
         21   -1    0    0  502  501  0.00000000000E+00  0.00000000000E+00  0.21209132075E+03  0.21209132075E+03  0.00000000000E+00 0.  1.
         21   -1    0    0  501  502 -0.00000000000E+00 -0.00000000000E+00 -0.27621291144E+03  0.27621291144E+03  0.00000000000E+00 0.  1.
         25    1    1    2    0    0 -0.60632059338E+02 -0.20458192572E+02 -0.83418558238E+02  0.16333536090E+03  0.12500000000E+03 0.  0.
         25    1    1    2    0    0 -0.60585201089E+02 -0.29336217298E+02 -0.60495196545E+01  0.14210129107E+03  0.12500000000E+03 0.  0.
         25    1    1    2    0    0  0.12121726043E+03  0.49794409869E+02  0.25346487208E+02  0.18286758021E+03  0.12500000000E+03 0.  0.
</event>
<event>
 5    0  0.5641283E-005  0.4863850E+03  0.7546771E-02  0.1017395E+00
         21   -1    0    0  502  501  0.00000000000E+00  0.00000000000E+00  0.49143458094E+03  0.49143458094E+03  0.00000000000E+00 0. -1.
         21   -1    0    0  501  502 -0.00000000000E+00 -0.00000000000E+00 -0.48138725579E+03  0.48138725579E+03  0.00000000000E+00 0.  1.
         25    1    1    2    0    0 -0.13384215731E+03  0.46007617391E+02 -0.10572963993E+03  0.21641206226E+03  0.12500000000E+03 0.  0.
         25    1    1    2    0    0 -0.25749929373E+03  0.42364177959E+02  0.16537014285E+03  0.33327600272E+03  0.12500000000E+03 0.  0.
         25    1    1    2    0    0  0.39134145104E+03 -0.88371795351E+02 -0.49593177764E+02  0.42313377175E+03  0.12500000000E+03 0.  0.
</event>
<event>
 5    0  0.5641283E-005  0.3681291E+03  0.7546771E-02  0.1055411E+00
         21   -1    0    0  502  501  0.00000000000E+00  0.00000000000E+00  0.27443710431E+03  0.27443710431E+03  0.00000000000E+00 0. -1.
         21   -1    0    0  501  502 -0.00000000000E+00 -0.00000000000E+00 -0.49380717768E+03  0.49380717768E+03  0.00000000000E+00 0. -1.
         25    1    1    2    0    0  0.87119691996E+02 -0.17182674150E+03 -0.17587106310E+02  0.23032276513E+03  0.12500000000E+03 0.  0.
         25    1    1    2    0    0  0.15279642503E+03  0.78349881213E+02 -0.83146730756E+02  0.22808733026E+03  0.12500000000E+03 0.  0.
         25    1    1    2    0    0 -0.23991611703E+03  0.93476860289E+02 -0.11863623631E+03  0.30983418660E+03  0.12500000000E+03 0.  0.
</event>
<event>
 5    0  0.5641283E-005  0.4216168E+03  0.7546771E-02  0.1036541E+00
         21   -1    0    0  502  501  0.00000000000E+00  0.00000000000E+00  0.39258304662E+03  0.39258304662E+03  0.00000000000E+00 0.  1.
         21   -1    0    0  501  502 -0.00000000000E+00 -0.00000000000E+00 -0.45279777846E+03  0.45279777846E+03  0.00000000000E+00 0.  1.
         25    1    1    2    0    0  0.18742488883E+03 -0.67174136098E+02  0.15903059590E+03  0.28382421311E+03  0.12500000000E+03 0.  0.
         25    1    1    2    0    0 -0.96768014618E+02 -0.56587802874E+02  0.92959316562E+02  0.19191837490E+03  0.12500000000E+03 0.  0.
         25    1    1    2    0    0 -0.90656874215E+02  0.12376193897E+03 -0.31220464430E+03  0.36963823707E+03  0.12500000000E+03 0.  0.
</event>
<event>
 5    0  0.5641283E-005  0.3335329E+03  0.7546771E-02  0.1069584E+00
         21   -1    0    0  502  501  0.00000000000E+00  0.00000000000E+00  0.75962027082E+03  0.75962027082E+03  0.00000000000E+00 0. -1.
         21   -1    0    0  501  502 -0.00000000000E+00 -0.00000000000E+00 -0.14644710982E+03  0.14644710982E+03  0.00000000000E+00 0. -1.
         25    1    1    2    0    0  0.15369331257E+03 -0.11196888415E+02  0.54962622211E+02  0.20589534837E+03  0.12500000000E+03 0.  0.
         25    1    1    2    0    0 -0.28446478961E+02  0.20444913745E+02  0.49547865376E+03  0.51220239456E+03  0.12500000000E+03 0.  0.
         25    1    1    2    0    0 -0.12524683361E+03 -0.92480253300E+01  0.62731885028E+02  0.18796963771E+03  0.12500000000E+03 0.  0.
</event>
<event>
 5    0  0.5641283E-005  0.3489778E+03  0.7546771E-02  0.1063035E+00
         21   -1    0    0  502  501  0.00000000000E+00  0.00000000000E+00  0.17850091532E+04  0.17850091532E+04  0.00000000000E+00 0.  1.
         21   -1    0    0  501  502 -0.00000000000E+00 -0.00000000000E+00 -0.68226834462E+02  0.68226834462E+02  0.00000000000E+00 0.  1.
         25    1    1    2    0    0  0.59184509641E+02 -0.11837961727E+03  0.22047457097E+03  0.28592057710E+03  0.12500000000E+03 0.  0.
         25    1    1    2    0    0  0.10081136904E+03  0.53437745835E+01  0.10680908312E+04  0.10801085648E+04  0.12500000000E+03 0.  0.
         25    1    1    2    0    0 -0.15999587868E+03  0.11303584268E+03  0.42821691658E+03  0.48720684577E+03  0.12500000000E+03 0.  0.
</event>
<event>
 5    0  0.5641283E-005  0.2802088E+03  0.7546771E-02  0.1095575E+00
         21   -1    0    0  502  501  0.00000000000E+00  0.00000000000E+00  0.12782927891E+03  0.12782927891E+03  0.00000000000E+00 0. -1.
         21   -1    0    0  501  502 -0.00000000000E+00 -0.00000000000E+00 -0.61423289356E+03  0.61423289356E+03  0.00000000000E+00 0. -1.
         25    1    1    2    0    0 -0.58011799888E+02  0.24232517141E+02 -0.10453800500E+03  0.17465903442E+03  0.12500000000E+03 0.  0.
         25    1    1    2    0    0  0.60492683547E+02 -0.13986569645E+03 -0.64761950871E+02  0.20746298004E+03  0.12500000000E+03 0.  0.
         25    1    1    2    0    0 -0.24808836585E+01  0.11563317931E+03 -0.31710365877E+03  0.35994015801E+03  0.12500000000E+03 0.  0.
</event>
<event>
 5    0  0.5641283E-005  0.2881083E+03  0.7546771E-02  0.1091341E+00
         21   -1    0    0  502  501  0.00000000000E+00  0.00000000000E+00  0.94970764141E+03  0.94970764141E+03  0.00000000000E+00 0.  1.
         21   -1    0    0  501  502 -0.00000000000E+00 -0.00000000000E+00 -0.87402061710E+02  0.87402061710E+02  0.00000000000E+00 0.  1.
         25    1    1    2    0    0  0.59256678442E+02  0.12304431008E+03  0.98172561805E+02  0.20955693277E+03  0.12500000000E+03 0.  0.
         25    1    1    2    0    0 -0.10081204398E+03 -0.70963846810E+02  0.44590123787E+03  0.47922004309E+03  0.12500000000E+03 0.  0.
         25    1    1    2    0    0  0.41555365540E+02 -0.52080463268E+02  0.31823178003E+03  0.34833272726E+03  0.12500000000E+03 0.  0.
</event>
<event>
 5    0  0.5641283E-005  0.2468071E+03  0.7546771E-02  0.1115339E+00
         21   -1    0    0  502  501  0.00000000000E+00  0.00000000000E+00  0.51724331388E+02  0.51724331388E+02  0.00000000000E+00 0.  1.
         21   -1    0    0  501  502 -0.00000000000E+00 -0.00000000000E+00 -0.11776613454E+04  0.11776613454E+04  0.00000000000E+00 0.  1.
         25    1    1    2    0    0 -0.91307705234E+00 -0.73790783029E+02 -0.19150198956E+03  0.24029965746E+03  0.12500000000E+03 0.  0.
         25    1    1    2    0    0  0.83053859239E+02 -0.20681225041E+01 -0.34451120911E+03  0.37578610122E+03  0.12500000000E+03 0.  0.
         25    1    1    2    0    0 -0.82140782187E+02  0.75858905533E+02 -0.58992381533E+03  0.61329991810E+03  0.12500000000E+03 0.  0.
</event>
<event>
 5    0  0.5641283E-005  0.2531179E+03  0.7546771E-02  0.1111350E+00
         21   -1    0    0  502  501  0.00000000000E+00  0.00000000000E+00  0.24374231962E+03  0.24374231962E+03  0.00000000000E+00 0. -1.
         21   -1    0    0  501  502 -0.00000000000E+00 -0.00000000000E+00 -0.26285412099E+03  0.26285412099E+03  0.00000000000E+00 0. -1.
         25    1    1    2    0    0  0.39870838521E+02  0.13943505590E+03 -0.20803973473E+01  0.19147100729E+03  0.12500000000E+03 0.  0.
         25    1    1    2    0    0  0.35810719799E+02 -0.43528041240E+02 -0.28163974670E+02  0.13998324005E+03  0.12500000000E+03 0.  0.
         25    1    1    2    0    0 -0.75681558320E+02 -0.95907014663E+02  0.11132570651E+02  0.17514219326E+03  0.12500000000E+03 0.  0.
</event>
<event>
 5    0  0.6590937E-005  0.3154842E+03  0.7546771E-02  0.1077747E+00
         21   -1    0    0  502  501  0.00000000000E+00  0.00000000000E+00  0.44867172982E+03  0.44867172982E+03  0.00000000000E+00 0. -1.
         21   -1    0    0  501  502 -0.00000000000E+00 -0.00000000000E+00 -0.22183318947E+03  0.22183318947E+03  0.00000000000E+00 0. -1.
         25    1    1    2    0    0 -0.97433011721E+02 -0.69475122622E+02  0.19735683119E+03  0.26247800528E+03  0.12500000000E+03 0.  0.
         25    1    1    2    0    0  0.16007257077E+03 -0.22967357563E+02 -0.66425615625E+02  0.21491414527E+03  0.12500000000E+03 0.  0.
         25    1    1    2    0    0 -0.62639559054E+02  0.92442480185E+02  0.95907324785E+02  0.19311276874E+03  0.12500000000E+03 0.  0.
</event>
<event>
 5    0  0.5641283E-005  0.4004990E+03  0.7546771E-02  0.1043607E+00
         21   -1    0    0  502  501  0.00000000000E+00  0.00000000000E+00  0.24883135374E+03  0.24883135374E+03  0.00000000000E+00 0.  1.
         21   -1    0    0  501  502 -0.00000000000E+00 -0.00000000000E+00 -0.64461121774E+03  0.64461121774E+03  0.00000000000E+00 0.  1.
         25    1    1    2    0    0 -0.16619941628E+02  0.67436264387E+02 -0.79040867445E+02  0.16339011886E+03  0.12500000000E+03 0.  0.
         25    1    1    2    0    0 -0.80752991528E+02 -0.22989618612E+03 -0.40302608452E+03  0.48726617658E+03  0.12500000000E+03 0.  0.
         25    1    1    2    0    0  0.97372933156E+02  0.16245992173E+03  0.86287087971E+02  0.24278627604E+03  0.12500000000E+03 0.  0.
</event>
<event>
 5    0  0.5641283E-005  0.4023963E+03  0.7546771E-02  0.1042953E+00
         21   -1    0    0  502  501  0.00000000000E+00  0.00000000000E+00  0.48165092996E+03  0.48165092996E+03  0.00000000000E+00 0. -1.
         21   -1    0    0  501  502 -0.00000000000E+00 -0.00000000000E+00 -0.33618280577E+03  0.33618280577E+03  0.00000000000E+00 0. -1.
         25    1    1    2    0    0  0.23024220946E+03 -0.49323836984E+01 -0.71208705768E+02  0.27153541795E+03  0.12500000000E+03 0.  0.
         25    1    1    2    0    0 -0.31282619382E+03  0.56285546862E+02  0.12767088278E+03  0.36462740522E+03  0.12500000000E+03 0.  0.
         25    1    1    2    0    0  0.82583984362E+02 -0.51353163164E+02  0.89005947176E+02  0.18167091257E+03  0.12500000000E+03 0.  0.
</event>
<event>
 5    0  0.5641283E-005  0.5366276E+03  0.7546771E-02  0.1004637E+00
         21   -1    0    0  502  501  0.00000000000E+00  0.00000000000E+00  0.48856094730E+03  0.48856094730E+03  0.00000000000E+00 0.  1.
         21   -1    0    0  501  502 -0.00000000000E+00 -0.00000000000E+00 -0.58942313962E+03  0.58942313962E+03  0.00000000000E+00 0.  1.
         25    1    1    2    0    0  0.77182708287E+01  0.29116531674E+03  0.24896074332E+03  0.40304251028E+03  0.12500000000E+03 0.  0.
         25    1    1    2    0    0  0.22169933932E+02 -0.38112555305E+03 -0.16972059290E+03  0.43609433935E+03  0.12500000000E+03 0.  0.
         25    1    1    2    0    0 -0.29888204761E+02  0.89960236306E+02 -0.18010234274E+03  0.23884723729E+03  0.12500000000E+03 0.  0.
</event>
<event>
 5    0  0.5641283E-005  0.4127988E+03  0.7546771E-02  0.1039436E+00
         21   -1    0    0  502  501  0.00000000000E+00  0.00000000000E+00  0.31919107714E+03  0.31919107714E+03  0.00000000000E+00 0.  1.
         21   -1    0    0  501  502 -0.00000000000E+00 -0.00000000000E+00 -0.53385834612E+03  0.53385834612E+03  0.00000000000E+00 0.  1.
         25    1    1    2    0    0  0.43545193545E+02  0.19725362975E+03  0.30196440148E+02  0.23946190371E+03  0.12500000000E+03 0.  0.
         25    1    1    2    0    0 -0.14087343590E+03 -0.30968948100E+03 -0.11642175812E+03  0.38069925840E+03  0.12500000000E+03 0.  0.
         25    1    1    2    0    0  0.97328242357E+02  0.11243585125E+03 -0.12844195100E+03  0.23288826115E+03  0.12500000000E+03 0.  0.
</event>
<event>
 5    0  0.5641283E-005  0.2395005E+03  0.7546771E-02  0.1120126E+00
         21   -1    0    0  502  501  0.00000000000E+00  0.00000000000E+00  0.57060233013E+03  0.57060233013E+03  0.00000000000E+00 0. -1.
         21   -1    0    0  501  502 -0.00000000000E+00 -0.00000000000E+00 -0.10052624831E+03  0.10052624831E+03  0.00000000000E+00 0. -1.
         25    1    1    2    0    0 -0.66434924142E+02  0.51209806615E+02  0.30155510308E+03  0.33704083378E+03  0.12500000000E+03 0.  0.
         25    1    1    2    0    0  0.92010358553E+01 -0.14493867201E+02  0.18858968902E+02  0.12757504441E+03  0.12500000000E+03 0.  0.
         25    1    1    2    0    0  0.57233888287E+02 -0.36715939415E+02  0.14966200984E+03  0.20651270025E+03  0.12500000000E+03 0.  0.
</event>
<event>
 5    0  0.5641283E-005  0.2641902E+03  0.7546771E-02  0.1104651E+00
         21   -1    0    0  502  501  0.00000000000E+00  0.00000000000E+00  0.46656195223E+02  0.46656195223E+02  0.00000000000E+00 0. -1.
         21   -1    0    0  501  502 -0.00000000000E+00 -0.00000000000E+00 -0.14959743075E+04  0.14959743075E+04  0.00000000000E+00 0. -1.
         25    1    1    2    0    0 -0.34191744169E+02 -0.24975289232E+02 -0.10506680067E+03  0.16869165078E+03  0.12500000000E+03 0.  0.
         25    1    1    2    0    0  0.52972315407E+02  0.55053035411E+02 -0.55228689408E+03  0.57138666092E+03  0.12500000000E+03 0.  0.
         25    1    1    2    0    0 -0.18780571238E+02 -0.30077746179E+02 -0.79196441756E+03  0.80255219104E+03  0.12500000000E+03 0.  0.
</event>
<event>
 5    0  0.5685240E-005  0.5186763E+03  0.7546771E-02  0.1009016E+00
         21   -1    0    0  502  501  0.00000000000E+00  0.00000000000E+00  0.10463050208E+04  0.10463050208E+04  0.00000000000E+00 0. -1.
         21   -1    0    0  501  502 -0.00000000000E+00 -0.00000000000E+00 -0.25711921716E+03  0.25711921716E+03  0.00000000000E+00 0. -1.
         25    1    1    2    0    0 -0.92200947942E+02 -0.19445183352E+03  0.30198486392E+02  0.25069798352E+03  0.12500000000E+03 0.  0.
         25    1    1    2    0    0  0.79454267591E+02 -0.64833298692E+02  0.74705801436E+03  0.76435398479E+03  0.12500000000E+03 0.  0.
         25    1    1    2    0    0  0.12746680351E+02  0.25928513221E+03  0.11929302925E+02  0.28837226967E+03  0.12500000000E+03 0.  0.
</event>
<event>
 5    0  0.5641283E-005  0.5271598E+03  0.7546771E-02  0.1006923E+00
         21   -1    0    0  502  501  0.00000000000E+00  0.00000000000E+00  0.14938688490E+03  0.14938688490E+03  0.00000000000E+00 0.  1.
         21   -1    0    0  501  502 -0.00000000000E+00 -0.00000000000E+00 -0.18602532946E+04  0.18602532946E+04  0.00000000000E+00 0.  1.
         25    1    1    2    0    0 -0.15812753713E+03  0.44910394127E+03 -0.94080640511E+03  0.10618099453E+04  0.12500000000E+03 0.  0.
         25    1    1    2    0    0  0.14646281867E+03 -0.29424606363E+03 -0.52566030288E+03  0.63243644521E+03  0.12500000000E+03 0.  0.
         25    1    1    2    0    0  0.11664718464E+02 -0.15485787765E+03 -0.24439970167E+03  0.31539378894E+03  0.12500000000E+03 0.  0.
</event>
<event>
 5    0  0.5641283E-005  0.2477152E+03  0.7546771E-02  0.1114757E+00
         21   -1    0    0  502  501  0.00000000000E+00  0.00000000000E+00  0.69433038335E+03  0.69433038335E+03  0.00000000000E+00 0.  1.
         21   -1    0    0  501  502 -0.00000000000E+00 -0.00000000000E+00 -0.88376979271E+02  0.88376979271E+02  0.00000000000E+00 0.  1.
         25    1    1    2    0    0 -0.13689820486E+03 -0.11263251693E+02  0.13165010259E+03  0.22765045321E+03  0.12500000000E+03 0.  0.
         25    1    1    2    0    0  0.55201008294E+02  0.19341396121E+02  0.20760384311E+03  0.24929018552E+03  0.12500000000E+03 0.  0.
         25    1    1    2    0    0  0.81697196569E+02 -0.80781444287E+01  0.26669945838E+03  0.30576672390E+03  0.12500000000E+03 0.  0.
</event>
<event>
 5    0  0.5641283E-005  0.3341844E+03  0.7546771E-02  0.1069300E+00
         21   -1    0    0  502  501  0.00000000000E+00  0.00000000000E+00  0.30439974384E+03  0.30439974384E+03  0.00000000000E+00 0.  1.
         21   -1    0    0  501  502 -0.00000000000E+00 -0.00000000000E+00 -0.36688344679E+03  0.36688344679E+03  0.00000000000E+00 0.  1.
         25    1    1    2    0    0 -0.21460669544E+03 -0.73104923903E+02 -0.45935160510E+02  0.26293611885E+03  0.12500000000E+03 0.  0.
         25    1    1    2    0    0  0.10393311121E+02  0.22893865270E+02  0.74076190427E+02  0.14745993344E+03  0.12500000000E+03 0.  0.
         25    1    1    2    0    0  0.20421338431E+03  0.50211058634E+02 -0.90624732862E+02  0.26088713834E+03  0.12500000000E+03 0.  0.
</event>
<event>
 5    0  0.5641283E-005  0.2286385E+03  0.7546771E-02  0.1127602E+00
         21   -1    0    0  502  501  0.00000000000E+00  0.00000000000E+00  0.76419062324E+03  0.76419062324E+03  0.00000000000E+00 0.  1.
         21   -1    0    0  501  502 -0.00000000000E+00 -0.00000000000E+00 -0.68406459946E+02  0.68406459946E+02  0.00000000000E+00 0.  1.
         25    1    1    2    0    0  0.27416988981E+02 -0.78448661694E+02  0.14790042913E+03  0.21072593752E+03  0.12500000000E+03 0.  0.
         25    1    1    2    0    0 -0.51764786536E+02  0.60466525104E+02  0.18602609964E+03  0.23783713657E+03  0.12500000000E+03 0.  0.
         25    1    1    2    0    0  0.24347797555E+02  0.17982136591E+02  0.36185763452E+03  0.38403400910E+03  0.12500000000E+03 0.  0.
</event>
<event>
 5    0  0.5641283E-005  0.5420704E+03  0.7546771E-02  0.1003346E+00
         21   -1    0    0  502  501  0.00000000000E+00  0.00000000000E+00  0.36700681454E+03  0.36700681454E+03  0.00000000000E+00 0. -1.
         21   -1    0    0  501  502 -0.00000000000E+00 -0.00000000000E+00 -0.80063995512E+03  0.80063995512E+03  0.00000000000E+00 0. -1.
         25    1    1    2    0    0  0.24803504343E+03 -0.80784033194E+02 -0.37059099653E+03  0.47011714444E+03  0.12500000000E+03 0.  0.
         25    1    1    2    0    0 -0.40330170169E+03 -0.80991560411E+02 -0.90496636953E+02  0.43934785392E+03  0.12500000000E+03 0.  0.
         25    1    1    2    0    0  0.15526665825E+03  0.16177559360E+03  0.27454492906E+02  0.25818177130E+03  0.12500000000E+03 0.  0.
</event>
<event>
 5    0  0.5641283E-005  0.2017731E+03  0.7546771E-02  0.1148252E+00
         21   -1    0    0  502  501  0.00000000000E+00  0.00000000000E+00  0.41574688553E+02  0.41574688553E+02  0.00000000000E+00 0. -1.
         21   -1    0    0  501  502 -0.00000000000E+00 -0.00000000000E+00 -0.97925921801E+03  0.97925921801E+03  0.00000000000E+00 0. -1.
         25    1    1    2    0    0  0.67493855414E+01 -0.57975264920E+02 -0.25247251551E+03  0.28770480816E+03  0.12500000000E+03 0.  0.
         25    1    1    2    0    0 -0.15336133283E+02  0.31324569373E+02 -0.29097291665E+03  0.31860110460E+03  0.12500000000E+03 0.  0.
         25    1    1    2    0    0  0.85867477416E+01  0.26650695546E+02 -0.39423909730E+03  0.41452799381E+03  0.12500000000E+03 0.  0.
</event>
<event>
 5    0  0.5641283E-005  0.2542681E+03  0.7546771E-02  0.1110637E+00
         21   -1    0    0  502  501  0.00000000000E+00  0.00000000000E+00  0.10271216488E+03  0.10271216488E+03  0.00000000000E+00 0. -1.
         21   -1    0    0  501  502 -0.00000000000E+00 -0.00000000000E+00 -0.62945082303E+03  0.62945082303E+03  0.00000000000E+00 0. -1.
         25    1    1    2    0    0 -0.39654432518E+02  0.27329412957E+02 -0.11607161970E+03  0.17724838993E+03  0.12500000000E+03 0.  0.
         25    1    1    2    0    0  0.14647646968E+03  0.21450604558E+02 -0.16047388306E+03  0.25157971252E+03  0.12500000000E+03 0.  0.
         25    1    1    2    0    0 -0.10682203716E+03 -0.48780017515E+02 -0.25019315540E+03  0.30333488546E+03  0.12500000000E+03 0.  0.
</event>
<event>
 5    0  0.5641283E-005  0.2566605E+03  0.7546771E-02  0.1109166E+00
         21   -1    0    0  502  501  0.00000000000E+00  0.00000000000E+00  0.57063952333E+03  0.57063952333E+03  0.00000000000E+00 0.  1.
         21   -1    0    0  501  502 -0.00000000000E+00 -0.00000000000E+00 -0.11543995943E+03  0.11543995943E+03  0.00000000000E+00 0.  1.
         25    1    1    2    0    0 -0.21934945809E+02 -0.13561050691E+03  0.97768059868E+02  0.20989269869E+03  0.12500000000E+03 0.  0.
         25    1    1    2    0    0 -0.30016834727E+02  0.83189256273E+01  0.14639739925E+03  0.19500618810E+03  0.12500000000E+03 0.  0.
         25    1    1    2    0    0  0.51951780536E+02  0.12729158129E+03  0.21103410478E+03  0.28118059597E+03  0.12500000000E+03 0.  0.
</event>
<event>
 5    0  0.5813946E-005  0.2578556E+03  0.7546771E-02  0.1108438E+00
         21   -1    0    0  502  501  0.00000000000E+00  0.00000000000E+00  0.35092598462E+03  0.35092598462E+03  0.00000000000E+00 0. -1.
         21   -1    0    0  501  502 -0.00000000000E+00 -0.00000000000E+00 -0.18946879774E+03  0.18946879774E+03  0.00000000000E+00 0. -1.
         25    1    1    2    0    0 -0.11495386077E+02 -0.55022168166E+02  0.12688903813E+03  0.18677636598E+03  0.12500000000E+03 0.  0.
         25    1    1    2    0    0 -0.15298253309E+01 -0.86347011901E+02 -0.27783928869E+02  0.15445094216E+03  0.12500000000E+03 0.  0.
         25    1    1    2    0    0  0.13025211408E+02  0.14136918007E+03  0.62352077631E+02  0.19916747423E+03  0.12500000000E+03 0.  0.
</event>
<event>
 5    0  0.5641283E-005  0.3679010E+03  0.7546771E-02  0.1055498E+00
         21   -1    0    0  502  501  0.00000000000E+00  0.00000000000E+00  0.19593636413E+03  0.19593636413E+03  0.00000000000E+00 0.  1.
         21   -1    0    0  501  502 -0.00000000000E+00 -0.00000000000E+00 -0.69079142981E+03  0.69079142981E+03  0.00000000000E+00 0.  1.
         25    1    1    2    0    0  0.17273047515E+03 -0.10186334547E+03 -0.92710484154E+02  0.25383497015E+03  0.12500000000E+03 0.  0.
         25    1    1    2    0    0 -0.23071949056E+01 -0.12547477380E+03 -0.12529564763E+03  0.21696368665E+03  0.12500000000E+03 0.  0.
         25    1    1    2    0    0 -0.17042328025E+03  0.22733811927E+03 -0.27684893390E+03  0.41592913714E+03  0.12500000000E+03 0.  0.
</event>
<event>
 5    0  0.5641283E-005  0.3585276E+03  0.7546771E-02  0.1059168E+00
         21   -1    0    0  502  501  0.00000000000E+00  0.00000000000E+00  0.37272438486E+03  0.37272438486E+03  0.00000000000E+00 0.  1.
         21   -1    0    0  501  502 -0.00000000000E+00 -0.00000000000E+00 -0.34487150607E+03  0.34487150607E+03  0.00000000000E+00 0.  1.
         25    1    1    2    0    0 -0.20505002495E+03 -0.12452547122E+00  0.21318499744E+03  0.32112049354E+03  0.12500000000E+03 0.  0.
         25    1    1    2    0    0  0.97889475718E+02  0.56461494421E+02 -0.49225293119E+02  0.17555164280E+03  0.12500000000E+03 0.  0.
         25    1    1    2    0    0  0.10716054923E+03 -0.56336968950E+02 -0.13610682553E+03  0.22092375458E+03  0.12500000000E+03 0.  0.
</event>
<event>
 5    0  0.5641283E-005  0.3490251E+03  0.7546771E-02  0.1063016E+00
         21   -1    0    0  502  501  0.00000000000E+00  0.00000000000E+00  0.14715853217E+04  0.14715853217E+04  0.00000000000E+00 0.  1.
         21   -1    0    0  501  502 -0.00000000000E+00 -0.00000000000E+00 -0.82780452570E+02  0.82780452570E+02  0.00000000000E+00 0.  1.
         25    1    1    2    0    0  0.18660412330E+03 -0.55171118222E+02  0.33722308944E+03  0.40891241503E+03  0.12500000000E+03 0.  0.
         25    1    1    2    0    0 -0.69647050163E+01  0.70231635431E+02  0.79510419729E+03  0.80795833697E+03  0.12500000000E+03 0.  0.
         25    1    1    2    0    0 -0.17963941829E+03 -0.15060517209E+02  0.25647758242E+03  0.33749502228E+03  0.12500000000E+03 0.  0.
</event>
<event>
 5    0  0.5641283E-005  0.3366357E+03  0.7546771E-02  0.1068238E+00
         21   -1    0    0  502  501  0.00000000000E+00  0.00000000000E+00  0.21924108144E+03  0.21924108144E+03  0.00000000000E+00 0.  1.
         21   -1    0    0  501  502 -0.00000000000E+00 -0.00000000000E+00 -0.51689030181E+03  0.51689030181E+03  0.00000000000E+00 0.  1.
         25    1    1    2    0    0 -0.13205550869E+03 -0.17754928255E+03 -0.87382095018E+02  0.26874343832E+03  0.12500000000E+03 0.  0.
         25    1    1    2    0    0  0.16756562141E+03  0.22793254204E+02 -0.14341148962E+03  0.25453806252E+03  0.12500000000E+03 0.  0.
         25    1    1    2    0    0 -0.35510112716E+02  0.15475602834E+03 -0.66855635741E+02  0.21284988242E+03  0.12500000000E+03 0.  0.
</event>
<event>
 5    0  0.6045554E-005  0.3473806E+03  0.7546771E-02  0.1063695E+00
         21   -1    0    0  502  501  0.00000000000E+00  0.00000000000E+00  0.61783004738E+03  0.61783004738E+03  0.00000000000E+00 0. -1.
         21   -1    0    0  501  502 -0.00000000000E+00 -0.00000000000E+00 -0.19531795632E+03  0.19531795632E+03  0.00000000000E+00 0. -1.
         25    1    1    2    0    0  0.10736608869E+03  0.11227228293E+03  0.17161785606E+03  0.26307837432E+03  0.12500000000E+03 0.  0.
         25    1    1    2    0    0 -0.11137446321E+02 -0.14712209224E+03  0.32037299176E+03  0.37420957575E+03  0.12500000000E+03 0.  0.
         25    1    1    2    0    0 -0.96228642365E+02  0.34849809311E+02 -0.69478756772E+02  0.17586005363E+03  0.12500000000E+03 0.  0.
</event>
<event>
 5    0  0.5641283E-005  0.3838977E+03  0.7546771E-02  0.1049502E+00
         21   -1    0    0  502  501  0.00000000000E+00  0.00000000000E+00  0.90240787967E+03  0.90240787967E+03  0.00000000000E+00 0.  1.
         21   -1    0    0  501  502 -0.00000000000E+00 -0.00000000000E+00 -0.16331581639E+03  0.16331581639E+03  0.00000000000E+00 0.  1.
         25    1    1    2    0    0  0.32620283899E+02  0.13998332376E+03  0.58048471327E+03  0.61093937194E+03  0.12500000000E+03 0.  0.
         25    1    1    2    0    0 -0.12677643487E+03 -0.18580288021E+03  0.13316935180E+03  0.28974825451E+03  0.12500000000E+03 0.  0.
         25    1    1    2    0    0  0.94156150969E+02  0.45819556446E+02  0.25437998219E+02  0.16503606961E+03  0.12500000000E+03 0.  0.
</event>
<event>
 5    0  0.5641283E-005  0.3175257E+03  0.7546771E-02  0.1076794E+00
         21   -1    0    0  502  501  0.00000000000E+00  0.00000000000E+00  0.82610593300E+03  0.82610593300E+03  0.00000000000E+00 0. -1.
         21   -1    0    0  501  502 -0.00000000000E+00 -0.00000000000E+00 -0.12204554435E+03  0.12204554435E+03  0.00000000000E+00 0. -1.
         25    1    1    2    0    0  0.45555924541E+02  0.10732836962E+03  0.50655287668E+03  0.53461718833E+03  0.12500000000E+03 0.  0.
         25    1    1    2    0    0 -0.13898919741E+03 -0.83009501561E+02  0.12535494163E+03  0.23989046613E+03  0.12500000000E+03 0.  0.
         25    1    1    2    0    0  0.93433272873E+02 -0.24318868063E+02  0.72152570340E+02  0.17364382290E+03  0.12500000000E+03 0.  0.
</event>
<event>
 5    0  0.6161539E-005  0.2484280E+03  0.7546771E-02  0.1114302E+00
         21   -1    0    0  502  501  0.00000000000E+00  0.00000000000E+00  0.20616144572E+03  0.20616144572E+03  0.00000000000E+00 0.  1.
         21   -1    0    0  501  502 -0.00000000000E+00 -0.00000000000E+00 -0.29935981378E+03  0.29935981378E+03  0.00000000000E+00 0.  1.
         25    1    1    2    0    0  0.64098789224E+02 -0.73877328529E+02 -0.58837720111E+01  0.15882736925E+03  0.12500000000E+03 0.  0.
         25    1    1    2    0    0 -0.86765688076E+02  0.78906086463E+02 -0.12720006518E+03  0.21344627355E+03  0.12500000000E+03 0.  0.
         25    1    1    2    0    0  0.22666898851E+02 -0.50287579335E+01  0.39885469126E+02  0.13324761670E+03  0.12500000000E+03 0.  0.
</event>
<event>
 5    0  0.5641283E-005  0.2943574E+03  0.7546771E-02  0.1088096E+00
         21   -1    0    0  502  501  0.00000000000E+00  0.00000000000E+00  0.61590762710E+03  0.61590762710E+03  0.00000000000E+00 0. -1.
         21   -1    0    0  501  502 -0.00000000000E+00 -0.00000000000E+00 -0.14068061818E+03  0.14068061818E+03  0.00000000000E+00 0. -1.
         25    1    1    2    0    0 -0.12338400808E+03  0.11801185380E+03  0.29552938232E+03  0.36347355736E+03  0.12500000000E+03 0.  0.
         25    1    1    2    0    0  0.10350939393E+03  0.13889422730E+02  0.11419146801E+03  0.19892662482E+03  0.12500000000E+03 0.  0.
         25    1    1    2    0    0  0.19874614149E+02 -0.13190127653E+03  0.65506158594E+02  0.19418806310E+03  0.12500000000E+03 0.  0.
</event>
<event>
 5    0  0.5641283E-005  0.3635926E+03  0.7546771E-02  0.1057170E+00
         21   -1    0    0  502  501  0.00000000000E+00  0.00000000000E+00  0.40244737031E+03  0.40244737031E+03  0.00000000000E+00 0. -1.
         21   -1    0    0  501  502 -0.00000000000E+00 -0.00000000000E+00 -0.32848914313E+03  0.32848914313E+03  0.00000000000E+00 0. -1.
         25    1    1    2    0    0 -0.16132745642E+03 -0.12652519181E+03 -0.89165119094E+02  0.25614564377E+03  0.12500000000E+03 0.  0.
         25    1    1    2    0    0  0.22246384101E+03  0.93382438570E+01  0.48913439776E+02  0.25999016894E+03  0.12500000000E+03 0.  0.
         25    1    1    2    0    0 -0.61136384588E+02  0.11718694796E+03  0.11420990650E+03  0.21480070073E+03  0.12500000000E+03 0.  0.
</event>
<event>
 5    0  0.5641283E-005  0.3464390E+03  0.7546771E-02  0.1064086E+00
         21   -1    0    0  502  501  0.00000000000E+00  0.00000000000E+00  0.22074047990E+03  0.22074047990E+03  0.00000000000E+00 0.  1.
         21   -1    0    0  501  502 -0.00000000000E+00 -0.00000000000E+00 -0.54371538807E+03  0.54371538807E+03  0.00000000000E+00 0.  1.
         25    1    1    2    0    0 -0.10825285359E+03 -0.78366999371E+02 -0.27493578057E+03  0.33026466710E+03  0.12500000000E+03 0.  0.
         25    1    1    2    0    0  0.40066116424E+02 -0.89847001206E+02  0.81314479194E+02  0.17864719936E+03  0.12500000000E+03 0.  0.
         25    1    1    2    0    0  0.68186737169E+02  0.16821400058E+03 -0.12935360680E+03  0.25554400151E+03  0.12500000000E+03 0.  0.
</event>
<event>
 5    0  0.5641283E-005  0.2456363E+03  0.7546771E-02  0.1116094E+00
         21   -1    0    0  502  501  0.00000000000E+00  0.00000000000E+00  0.27523359457E+02  0.27523359457E+02  0.00000000000E+00 0. -1.
         21   -1    0    0  501  502 -0.00000000000E+00 -0.00000000000E+00 -0.21922178187E+04  0.21922178187E+04  0.00000000000E+00 0. -1.
         25    1    1    2    0    0 -0.14360247991E+03 -0.16675244319E+02 -0.75905540639E+03  0.78274507087E+03  0.12500000000E+03 0.  0.
         25    1    1    2    0    0  0.80813325011E+02 -0.14236160459E+01 -0.89232793383E+03  0.90465847792E+03  0.12500000000E+03 0.  0.
         25    1    1    2    0    0  0.62789154897E+02  0.18098860365E+02 -0.51331111898E+03  0.53233762932E+03  0.12500000000E+03 0.  0.
</event>
<event>
 5    0  0.5641283E-005  0.3094249E+03  0.7546771E-02  0.1080622E+00
         21   -1    0    0  502  501  0.00000000000E+00  0.00000000000E+00  0.30009121464E+03  0.30009121464E+03  0.00000000000E+00 0.  1.
         21   -1    0    0  501  502 -0.00000000000E+00 -0.00000000000E+00 -0.31904881962E+03  0.31904881962E+03  0.00000000000E+00 0.  1.
         25    1    1    2    0    0  0.51459101493E+01 -0.11521115401E+03 -0.35552467171E+02  0.17375001676E+03  0.12500000000E+03 0.  0.
         25    1    1    2    0    0 -0.34727854848E+02  0.16934363822E+03  0.14332255367E+03  0.25700125700E+03  0.12500000000E+03 0.  0.
         25    1    1    2    0    0  0.29581944699E+02 -0.54132484210E+02 -0.12672769147E+03  0.18838876051E+03  0.12500000000E+03 0.  0.
</event>
<event>
 5    0  0.5641283E-005  0.3033115E+03  0.7546771E-02  0.1083597E+00
         21   -1    0    0  502  501  0.00000000000E+00  0.00000000000E+00  0.46681531779E+03  0.46681531779E+03  0.00000000000E+00 0. -1.
         21   -1    0    0  501  502 -0.00000000000E+00 -0.00000000000E+00 -0.19707549474E+03  0.19707549474E+03  0.00000000000E+00 0. -1.
         25    1    1    2    0    0  0.78159550754E+02  0.54650798828E+02  0.57959786939E+02  0.16757076740E+03  0.12500000000E+03 0.  0.
         25    1    1    2    0    0 -0.13674907869E+03 -0.15926105389E+01  0.27815571826E+03  0.33421318127E+03  0.12500000000E+03 0.  0.
         25    1    1    2    0    0  0.58589527938E+02 -0.53058188289E+02 -0.66375682147E+02  0.16210686386E+03  0.12500000000E+03 0.  0.
</event>
<event>
 5    0  0.5641283E-005  0.3412088E+03  0.7546771E-02  0.1066282E+00
         21   -1    0    0  502  501  0.00000000000E+00  0.00000000000E+00  0.41142709320E+03  0.41142709320E+03  0.00000000000E+00 0. -1.
         21   -1    0    0  501  502 -0.00000000000E+00 -0.00000000000E+00 -0.28297475045E+03  0.28297475045E+03  0.00000000000E+00 0. -1.
         25    1    1    2    0    0 -0.18191474092E+03 -0.17813016081E+03  0.45528057207E+02  0.28726491457E+03  0.12500000000E+03 0.  0.
         25    1    1    2    0    0  0.16646387504E+03  0.63509145492E+02  0.92688825169E+02  0.23655834706E+03  0.12500000000E+03 0.  0.
         25    1    1    2    0    0  0.15450865876E+02  0.11462101532E+03 -0.97645396263E+01  0.17057858202E+03  0.12500000000E+03 0.  0.
</event>
<event>
 5    0  0.5641283E-005  0.2092358E+03  0.7546771E-02  0.1142173E+00
         21   -1    0    0  502  501  0.00000000000E+00  0.00000000000E+00  0.10460635055E+03  0.10460635055E+03  0.00000000000E+00 0.  1.
         21   -1    0    0  501  502 -0.00000000000E+00 -0.00000000000E+00 -0.41851770001E+03  0.41851770001E+03  0.00000000000E+00 0.  1.
         25    1    1    2    0    0  0.67809646902E+02  0.52599011431E+02 -0.11906557146E+03  0.19278592927E+03  0.12500000000E+03 0.  0.
         25    1    1    2    0    0 -0.50977665513E+02 -0.32580389943E+02 -0.10751159008E+03  0.17562444645E+03  0.12500000000E+03 0.  0.
         25    1    1    2    0    0 -0.16831981389E+02 -0.20018621488E+02 -0.87334187924E+02  0.15471367485E+03  0.12500000000E+03 0.  0.
</event>
<event>
 5    0  0.5641283E-005  0.4562974E+03  0.7546771E-02  0.1025861E+00
         21   -1    0    0  502  501  0.00000000000E+00  0.00000000000E+00  0.14699654890E+03  0.14699654890E+03  0.00000000000E+00 0.  1.
         21   -1    0    0  501  502 -0.00000000000E+00 -0.00000000000E+00 -0.14164095689E+04  0.14164095689E+04  0.00000000000E+00 0.  1.
         25    1    1    2    0    0  0.11768522228E+03 -0.18688668718E+03 -0.52357012962E+03  0.58183083970E+03  0.12500000000E+03 0.  0.
         25    1    1    2    0    0  0.37225455136E+02 -0.10295461305E+03 -0.10502820261E+02  0.16649533354E+03  0.12500000000E+03 0.  0.
         25    1    1    2    0    0 -0.15491067741E+03  0.28984130023E+03 -0.73534007011E+03  0.81507994455E+03  0.12500000000E+03 0.  0.
</event>
<event>
 5    0  0.5641283E-005  0.5254081E+03  0.7546771E-02  0.1007352E+00
         21   -1    0    0  502  501  0.00000000000E+00  0.00000000000E+00  0.80813072004E+03  0.80813072004E+03  0.00000000000E+00 0.  1.
         21   -1    0    0  501  502 -0.00000000000E+00 -0.00000000000E+00 -0.34159535795E+03  0.34159535795E+03  0.00000000000E+00 0.  1.
         25    1    1    2    0    0  0.95727442588E+02  0.19016409254E+03  0.40472349631E+03  0.47408040860E+03  0.12500000000E+03 0.  0.
         25    1    1    2    0    0 -0.93080224179E+02 -0.33350229125E+03 -0.14410845694E+03  0.39532259455E+03  0.12500000000E+03 0.  0.
         25    1    1    2    0    0 -0.26472184085E+01  0.14333819870E+03  0.20592032272E+03  0.28032307483E+03  0.12500000000E+03 0.  0.
</event>
<event>
 5    0  0.5641283E-005  0.3837654E+03  0.7546771E-02  0.1049551E+00
         21   -1    0    0  502  501  0.00000000000E+00  0.00000000000E+00  0.93363859708E+02  0.93363859708E+02  0.00000000000E+00 0.  1.
         21   -1    0    0  501  502 -0.00000000000E+00 -0.00000000000E+00 -0.15774401528E+04  0.15774401528E+04  0.00000000000E+00 0.  1.
         25    1    1    2    0    0 -0.20328235357E+03  0.15694745058E+03 -0.36103904863E+03  0.46035900356E+03  0.12500000000E+03 0.  0.
         25    1    1    2    0    0  0.14304062172E+03  0.51513683444E+02 -0.41202128899E+03  0.45661890196E+03  0.12500000000E+03 0.  0.
         25    1    1    2    0    0  0.60241731847E+02 -0.20846113402E+03 -0.71101595547E+03  0.75382610700E+03  0.12500000000E+03 0.  0.
</event>
<event>
 5    0  0.5641283E-005  0.2742020E+03  0.7546771E-02  0.1098898E+00
         21   -1    0    0  502  501  0.00000000000E+00  0.00000000000E+00  0.72616516741E+02  0.72616516741E+02  0.00000000000E+00 0. -1.
         21   -1    0    0  501  502 -0.00000000000E+00 -0.00000000000E+00 -0.10353943770E+04  0.10353943770E+04  0.00000000000E+00 0. -1.
         25    1    1    2    0    0 -0.32318676263E+02 -0.41456994775E+02 -0.66597519505E+03  0.67964044882E+03  0.12500000000E+03 0.  0.
         25    1    1    2    0    0  0.29619485672E+02 -0.65379345801E+02 -0.12946945442E+03  0.19375012882E+03  0.12500000000E+03 0.  0.
         25    1    1    2    0    0  0.26991905911E+01  0.10683634058E+03 -0.16733321080E+03  0.23462031612E+03  0.12500000000E+03 0.  0.
</event>
<event>
 5    0  0.5641283E-005  0.2953369E+03  0.7546771E-02  0.1087595E+00
         21   -1    0    0  502  501  0.00000000000E+00  0.00000000000E+00  0.57958969678E+02  0.57958969678E+02  0.00000000000E+00 0. -1.
         21   -1    0    0  501  502 -0.00000000000E+00 -0.00000000000E+00 -0.15049244620E+04  0.15049244620E+04  0.00000000000E+00 0.  1.
         25    1    1    2    0    0 -0.53415886822E+02 -0.21452938199E+02 -0.44293302637E+03  0.46381909337E+03  0.12500000000E+03 0.  0.
         25    1    1    2    0    0  0.12876058830E+03  0.16095454247E+03 -0.47162678718E+03  0.52966260980E+03  0.12500000000E+03 0.  0.
         25    1    1    2    0    0 -0.75344701483E+02 -0.13950160427E+03 -0.53240567877E+03  0.56940172850E+03  0.12500000000E+03 0.  0.
</event>
<event>
 5    0  0.5641283E-005  0.5136702E+03  0.7546771E-02  0.1010271E+00
         21   -1    0    0  502  501  0.00000000000E+00  0.00000000000E+00  0.60144020374E+03  0.60144020374E+03  0.00000000000E+00 0.  1.
         21   -1    0    0  501  502 -0.00000000000E+00 -0.00000000000E+00 -0.43870868454E+03  0.43870868454E+03  0.00000000000E+00 0.  1.
         25    1    1    2    0    0  0.14153290310E+03  0.60714710858E+02 -0.10037954676E+03  0.22230360362E+03  0.12500000000E+03 0.  0.
         25    1    1    2    0    0 -0.90642455348E+02  0.13709416278E+03  0.46233132395E+03  0.50634584750E+03  0.12500000000E+03 0.  0.
         25    1    1    2    0    0 -0.50890447749E+02 -0.19780887364E+03 -0.19922025799E+03  0.31149943717E+03  0.12500000000E+03 0.  0.
</event>
<event>
 5    0  0.5641283E-005  0.2681256E+03  0.7546771E-02  0.1102357E+00
         21   -1    0    0  502  501  0.00000000000E+00  0.00000000000E+00  0.11182412513E+03  0.11182412513E+03  0.00000000000E+00 0. -1.
         21   -1    0    0  501  502 -0.00000000000E+00 -0.00000000000E+00 -0.64289653918E+03  0.64289653918E+03  0.00000000000E+00 0. -1.
         25    1    1    2    0    0 -0.33987267353E+02 -0.83974085270E+02 -0.78950795587E+02  0.17339264535E+03  0.12500000000E+03 0.  0.
         25    1    1    2    0    0 -0.56754204784E+02  0.13995214235E+03 -0.19731936069E+03  0.27815026876E+03  0.12500000000E+03 0.  0.
         25    1    1    2    0    0  0.90741472137E+02 -0.55978057083E+02 -0.25480225777E+03  0.30317775018E+03  0.12500000000E+03 0.  0.
</event>
<event>
 5    0  0.5641283E-005  0.6726257E+03  0.7546771E-02  0.9765226E-01
         21   -1    0    0  502  501  0.00000000000E+00  0.00000000000E+00  0.29778270335E+04  0.29778270335E+04  0.00000000000E+00 0.  1.
         21   -1    0    0  501  502 -0.00000000000E+00 -0.00000000000E+00 -0.15193136446E+03  0.15193136446E+03  0.00000000000E+00 0.  1.
         25    1    1    2    0    0  0.32507036262E+03  0.25620532643E+03  0.58808181715E+03  0.72991584008E+03  0.12500000000E+03 0.  0.
         25    1    1    2    0    0 -0.28483504566E+03 -0.32094273020E+03  0.56392643109E+03  0.71956463156E+03  0.12500000000E+03 0.  0.
         25    1    1    2    0    0 -0.40235316956E+02  0.64737403773E+02  0.16738874208E+04  0.16802779263E+04  0.12500000000E+03 0.  0.
</event>
<event>
 5    0  0.5641283E-005  0.5445052E+03  0.7546771E-02  0.1002774E+00
         21   -1    0    0  502  501  0.00000000000E+00  0.00000000000E+00  0.58541442140E+03  0.58541442140E+03  0.00000000000E+00 0.  1.
         21   -1    0    0  501  502 -0.00000000000E+00 -0.00000000000E+00 -0.50645475832E+03  0.50645475832E+03  0.00000000000E+00 0.  1.
         25    1    1    2    0    0 -0.18008657028E+02 -0.17527426853E+03  0.17799266095E+03  0.27991385869E+03  0.12500000000E+03 0.  0.
         25    1    1    2    0    0 -0.21584580686E+03  0.15071112490E+03  0.24232409016E+03  0.37901084441E+03  0.12500000000E+03 0.  0.
         25    1    1    2    0    0  0.23385446389E+03  0.24563143623E+02 -0.34135708802E+03  0.43294447663E+03  0.12500000000E+03 0.  0.
</event>
<event>
 5    0  0.5641283E-005  0.3251502E+03  0.7546771E-02  0.1073303E+00
         21   -1    0    0  502  501  0.00000000000E+00  0.00000000000E+00  0.29690518102E+03  0.29690518102E+03  0.00000000000E+00 0. -1.
         21   -1    0    0  501  502 -0.00000000000E+00 -0.00000000000E+00 -0.35608218903E+03  0.35608218903E+03  0.00000000000E+00 0. -1.
         25    1    1    2    0    0 -0.85427438577E+02  0.13819346239E+03  0.98835810773E+02  0.22757152239E+03  0.12500000000E+03 0.  0.
         25    1    1    2    0    0  0.13197891827E+03 -0.11126628502E+03 -0.19011827811E+03  0.28560213711E+03  0.12500000000E+03 0.  0.
         25    1    1    2    0    0 -0.46551479693E+02 -0.26927177373E+02  0.32105459318E+02  0.13981371056E+03  0.12500000000E+03 0.  0.
</event>
<event>
 5    0  0.5641283E-005  0.3479975E+03  0.7546771E-02  0.1063440E+00
         21   -1    0    0  502  501  0.00000000000E+00  0.00000000000E+00  0.95100776005E+03  0.95100776005E+03  0.00000000000E+00 0.  1.
         21   -1    0    0  501  502 -0.00000000000E+00 -0.00000000000E+00 -0.12734101348E+03  0.12734101348E+03  0.00000000000E+00 0.  1.
         25    1    1    2    0    0  0.41664933791E+02 -0.70838709303E+02  0.57586122376E+03  0.59497498979E+03  0.12500000000E+03 0.  0.
         25    1    1    2    0    0  0.54920688383E+02  0.52250771538E+02 -0.42593452156E+02  0.15226827413E+03  0.12500000000E+03 0.  0.
         25    1    1    2    0    0 -0.96585622175E+02  0.18587937765E+02  0.29039897496E+03  0.33110550962E+03  0.12500000000E+03 0.  0.
</event>
<event>
 5    0  0.5641283E-005  0.3447523E+03  0.7546771E-02  0.1064790E+00
         21   -1    0    0  502  501  0.00000000000E+00  0.00000000000E+00  0.56346991528E+03  0.56346991528E+03  0.00000000000E+00 0.  1.
         21   -1    0    0  501  502 -0.00000000000E+00 -0.00000000000E+00 -0.21093257304E+03  0.21093257304E+03  0.00000000000E+00 0.  1.
         25    1    1    2    0    0  0.15599846472E+03 -0.29939686069E+02 -0.21142986362E+02  0.20323368734E+03  0.12500000000E+03 0.  0.
         25    1    1    2    0    0 -0.12634260044E+03  0.25477773252E+02  0.37978994391E+01  0.17958561651E+03  0.12500000000E+03 0.  0.
         25    1    1    2    0    0 -0.29655864281E+02  0.44619128175E+01  0.36988242917E+03  0.39158318447E+03  0.12500000000E+03 0.  0.
</event>
<event>
 5    0  0.5641283E-005  0.3578401E+03  0.7546771E-02  0.1059442E+00
         21   -1    0    0  502  501  0.00000000000E+00  0.00000000000E+00  0.23731626159E+04  0.23731626159E+04  0.00000000000E+00 0.  1.
         21   -1    0    0  501  502 -0.00000000000E+00 -0.00000000000E+00 -0.53957348327E+02  0.53957348327E+02  0.00000000000E+00 0.  1.
         25    1    1    2    0    0  0.18943985673E+03  0.41226480889E+02  0.96302484581E+03  0.99026710321E+03  0.12500000000E+03 0.  0.
         25    1    1    2    0    0  0.21830759562E+02  0.91632559626E+02  0.24172594316E+03  0.28797489412E+03  0.12500000000E+03 0.  0.
         25    1    1    2    0    0 -0.21127061629E+03 -0.13285904051E+03  0.11144544786E+04  0.11488779669E+04  0.12500000000E+03 0.  0.
</event>
<event>
 5    0  0.5641283E-005  0.4043744E+03  0.7546771E-02  0.1042275E+00
         21   -1    0    0  502  501  0.00000000000E+00  0.00000000000E+00  0.92187955016E+03  0.92187955016E+03  0.00000000000E+00 0. -1.
         21   -1    0    0  501  502 -0.00000000000E+00 -0.00000000000E+00 -0.17737528858E+03  0.17737528858E+03  0.00000000000E+00 0. -1.
         25    1    1    2    0    0  0.21462225406E+03  0.66713172063E+02  0.50782988279E+03  0.56923593449E+03  0.12500000000E+03 0.  0.
         25    1    1    2    0    0  0.77987607155E+02 -0.29064593289E+02  0.10685017422E+03  0.18430620495E+03  0.12500000000E+03 0.  0.
         25    1    1    2    0    0 -0.29260986121E+03 -0.37648578774E+02  0.12982420457E+03  0.34571269929E+03  0.12500000000E+03 0.  0.
</event>
<event>
 5    0  0.5641283E-005  0.2765972E+03  0.7546771E-02  0.1097562E+00
         21   -1    0    0  502  501  0.00000000000E+00  0.00000000000E+00  0.24689850993E+03  0.24689850993E+03  0.00000000000E+00 0.  1.
         21   -1    0    0  501  502 -0.00000000000E+00 -0.00000000000E+00 -0.30986815374E+03  0.30986815374E+03  0.00000000000E+00 0.  1.
         25    1    1    2    0    0  0.13824344047E+03  0.36489314492E+02 -0.50849674358E+02  0.19660470057E+03  0.12500000000E+03 0.  0.
         25    1    1    2    0    0 -0.84515134614E+02 -0.43186433452E+02 -0.11065748932E+03  0.19203634020E+03  0.12500000000E+03 0.  0.
         25    1    1    2    0    0 -0.53728305858E+02  0.66971189602E+01  0.98537519874E+02  0.16812562290E+03  0.12500000000E+03 0.  0.
</event>
<event>
 5    0  0.5641283E-005  0.4335678E+03  0.7546771E-02  0.1032739E+00
         21   -1    0    0  502  501  0.00000000000E+00  0.00000000000E+00  0.22583195728E+03  0.22583195728E+03  0.00000000000E+00 0.  1.
         21   -1    0    0  501  502 -0.00000000000E+00 -0.00000000000E+00 -0.83239342333E+03  0.83239342333E+03  0.00000000000E+00 0.  1.
         25    1    1    2    0    0 -0.25718916591E+03 -0.55460582860E+02 -0.63663349260E+02  0.29816130761E+03  0.12500000000E+03 0.  0.
         25    1    1    2    0    0  0.33234020561E+03  0.95557846442E+02 -0.30300847749E+03  0.47646663232E+03  0.12500000000E+03 0.  0.
         25    1    1    2    0    0 -0.75151039699E+02 -0.40097263581E+02 -0.23988963930E+03  0.28359744067E+03  0.12500000000E+03 0.  0.
</event>
<event>
 5    0  0.5641283E-005  0.4773932E+03  0.7546771E-02  0.1019854E+00
         21   -1    0    0  502  501  0.00000000000E+00  0.00000000000E+00  0.17229086352E+03  0.17229086352E+03  0.00000000000E+00 0.  1.
         21   -1    0    0  501  502 -0.00000000000E+00 -0.00000000000E+00 -0.13227876186E+04  0.13227876186E+04  0.00000000000E+00 0.  1.
         25    1    1    2    0    0  0.24982328627E+03  0.18149925992E+02 -0.80076527487E+02  0.29116721044E+03  0.12500000000E+03 0.  0.
         25    1    1    2    0    0 -0.23854192833E+03  0.64177603239E+02 -0.26029930325E+03  0.38000229421E+03  0.12500000000E+03 0.  0.
         25    1    1    2    0    0 -0.11281357944E+02 -0.82327529230E+02 -0.81012092431E+03  0.82390897745E+03  0.12500000000E+03 0.  0.
</event>
<event>
 5    0  0.5641283E-005  0.2768133E+03  0.7546771E-02  0.1097442E+00
         21   -1    0    0  502  501  0.00000000000E+00  0.00000000000E+00  0.10763109010E+03  0.10763109010E+03  0.00000000000E+00 0. -1.
         21   -1    0    0  501  502 -0.00000000000E+00 -0.00000000000E+00 -0.71192827981E+03  0.71192827981E+03  0.00000000000E+00 0. -1.
         25    1    1    2    0    0 -0.26518272314E+02 -0.90731288670E+02 -0.47846801603E+02  0.16385878656E+03  0.12500000000E+03 0.  0.
         25    1    1    2    0    0 -0.59166190394E+02  0.16448997689E+02 -0.10706593094E+03  0.17566821334E+03  0.12500000000E+03 0.  0.
         25    1    1    2    0    0  0.85684462708E+02  0.74282290981E+02 -0.44938445718E+03  0.48003237001E+03  0.12500000000E+03 0.  0.
</event>
<event>
 5    0  0.5641283E-005  0.2742814E+03  0.7546771E-02  0.1098854E+00
         21   -1    0    0  502  501  0.00000000000E+00  0.00000000000E+00  0.23082133811E+03  0.23082133811E+03  0.00000000000E+00 0.  1.
         21   -1    0    0  501  502 -0.00000000000E+00 -0.00000000000E+00 -0.32592429127E+03  0.32592429127E+03  0.00000000000E+00 0.  1.
         25    1    1    2    0    0 -0.17446372981E+01 -0.11841064317E+03 -0.10894100137E+03  0.20375786108E+03  0.12500000000E+03 0.  0.
         25    1    1    2    0    0  0.55442106756E+02  0.67661692476E+02  0.10162020357E+03  0.18331284080E+03  0.12500000000E+03 0.  0.
         25    1    1    2    0    0 -0.53697469458E+02  0.50748950690E+02 -0.87782155356E+02  0.16967492750E+03  0.12500000000E+03 0.  0.
</event>
<event>
 5    0  0.5641283E-005  0.3478710E+03  0.7546771E-02  0.1063492E+00
         21   -1    0    0  502  501  0.00000000000E+00  0.00000000000E+00  0.32961523405E+03  0.32961523405E+03  0.00000000000E+00 0.  1.
         21   -1    0    0  501  502 -0.00000000000E+00 -0.00000000000E+00 -0.36713777110E+03  0.36713777110E+03  0.00000000000E+00 0.  1.
         25    1    1    2    0    0  0.21958598600E+03 -0.87679828536E+02  0.76551185385E+02  0.27819209472E+03  0.12500000000E+03 0.  0.
         25    1    1    2    0    0 -0.20388682141E+02 -0.39216034374E+02 -0.14434125164E+02  0.13336768604E+03  0.12500000000E+03 0.  0.
         25    1    1    2    0    0 -0.19919730386E+03  0.12689586291E+03 -0.99639597268E+02  0.28519322438E+03  0.12500000000E+03 0.  0.
</event>
<event>
 5    0  0.5641283E-005  0.3144470E+03  0.7546771E-02  0.1078234E+00
         21   -1    0    0  502  501  0.00000000000E+00  0.00000000000E+00  0.28537301372E+03  0.28537301372E+03  0.00000000000E+00 0. -1.
         21   -1    0    0  501  502 -0.00000000000E+00 -0.00000000000E+00 -0.34648301982E+03  0.34648301982E+03  0.00000000000E+00 0. -1.
         25    1    1    2    0    0 -0.16108754095E+03 -0.11704616988E+03 -0.16245401958E+03  0.28577143001E+03  0.12500000000E+03 0.  0.
         25    1    1    2    0    0  0.71641671369E+02  0.20373016578E+02  0.71292997093E+02  0.16203481205E+03  0.12500000000E+03 0.  0.
         25    1    1    2    0    0  0.89445869586E+02  0.96673153300E+02  0.30051016388E+02  0.18404979147E+03  0.12500000000E+03 0.  0.
</event>
<event>
 5    0  0.5641283E-005  0.3464479E+03  0.7546771E-02  0.1064082E+00
         21   -1    0    0  502  501  0.00000000000E+00  0.00000000000E+00  0.20043475742E+03  0.20043475742E+03  0.00000000000E+00 0.  1.
         21   -1    0    0  501  502 -0.00000000000E+00 -0.00000000000E+00 -0.59882914169E+03  0.59882914169E+03  0.00000000000E+00 0.  1.
         25    1    1    2    0    0 -0.59584805724E+02  0.13374833647E+03  0.58591949617E+02  0.20123862239E+03  0.12500000000E+03 0.  0.
         25    1    1    2    0    0  0.84551607072E+02 -0.82196514092E+02 -0.42273021068E+03  0.45632342939E+03  0.12500000000E+03 0.  0.
         25    1    1    2    0    0 -0.24966801348E+02 -0.51551822374E+02 -0.34256123208E+02  0.14170184733E+03  0.12500000000E+03 0.  0.
</event>
<event>
 5    0  0.5641283E-005  0.4054617E+03  0.7546771E-02  0.1041905E+00
         21   -1    0    0  502  501  0.00000000000E+00  0.00000000000E+00  0.23035663445E+03  0.23035663445E+03  0.00000000000E+00 0. -1.
         21   -1    0    0  501  502 -0.00000000000E+00 -0.00000000000E+00 -0.71367244795E+03  0.71367244795E+03  0.00000000000E+00 0.  1.
         25    1    1    2    0    0 -0.85103317139E+02 -0.14426037741E+03 -0.15805802138E+03  0.26203238197E+03  0.12500000000E+03 0.  0.
         25    1    1    2    0    0 -0.21841333319E+03  0.85801341536E+02 -0.13681662396E+03  0.29901512155E+03  0.12500000000E+03 0.  0.
         25    1    1    2    0    0  0.30351665033E+03  0.58459035874E+02 -0.18844116817E+03  0.38298157888E+03  0.12500000000E+03 0.  0.
</event>
<event>
 5    0  0.5641283E-005  0.3520753E+03  0.7546771E-02  0.1061766E+00
         21   -1    0    0  502  501  0.00000000000E+00  0.00000000000E+00  0.61778768317E+03  0.61778768317E+03  0.00000000000E+00 0.  1.
         21   -1    0    0  501  502 -0.00000000000E+00 -0.00000000000E+00 -0.20064660961E+03  0.20064660961E+03  0.00000000000E+00 0.  1.
         25    1    1    2    0    0  0.14955854538E+03  0.53380595107E+02 -0.74137660698E+02  0.21526411490E+03  0.12500000000E+03 0.  0.
         25    1    1    2    0    0 -0.13369237288E+03  0.24534752649E+02  0.36271422856E+03  0.40701623586E+03  0.12500000000E+03 0.  0.
         25    1    1    2    0    0 -0.15866172504E+02 -0.77915347756E+02  0.12856450569E+03  0.19615394202E+03  0.12500000000E+03 0.  0.
</event>
<event>
 5    0  0.5641283E-005  0.2978812E+03  0.7546771E-02  0.1086305E+00
         21   -1    0    0  502  501  0.00000000000E+00  0.00000000000E+00  0.11628549554E+04  0.11628549554E+04  0.00000000000E+00 0. -1.
         21   -1    0    0  501  502 -0.00000000000E+00 -0.00000000000E+00 -0.76306354989E+02  0.76306354989E+02  0.00000000000E+00 0. -1.
         25    1    1    2    0    0 -0.15069886808E+03 -0.12743926672E+03  0.26922181264E+03  0.35644957559E+03  0.12500000000E+03 0.  0.
         25    1    1    2    0    0  0.12206277666E+03  0.69997806912E+02  0.39342129129E+03  0.43612421035E+03  0.12500000000E+03 0.  0.
         25    1    1    2    0    0  0.28636091415E+02  0.57441459808E+02  0.42390549653E+03  0.44658752449E+03  0.12500000000E+03 0.  0.
</event>
<event>
 5    0  0.5641283E-005  0.5636707E+03  0.7546771E-02  0.9983783E-01
         21   -1    0    0  502  501  0.00000000000E+00  0.00000000000E+00  0.66064117891E+03  0.66064117891E+03  0.00000000000E+00 0.  1.
         21   -1    0    0  501  502 -0.00000000000E+00 -0.00000000000E+00 -0.48093382896E+03  0.48093382896E+03  0.00000000000E+00 0.  1.
         25    1    1    2    0    0 -0.48271641356E+03 -0.56379148078E+02 -0.21103083117E+02  0.50225898138E+03  0.12500000000E+03 0.  0.
         25    1    1    2    0    0  0.22403371442E+03 -0.96097263880E+02  0.41287715817E+02  0.27704776628E+03  0.12500000000E+03 0.  0.
         25    1    1    2    0    0  0.25868269914E+03  0.15247641196E+03  0.15952271724E+03  0.36226826021E+03  0.12500000000E+03 0.  0.
</event>
<event>
 5    0  0.5641283E-005  0.2612416E+03  0.7546771E-02  0.1106400E+00
         21   -1    0    0  502  501  0.00000000000E+00  0.00000000000E+00  0.87966839153E+03  0.87966839153E+03  0.00000000000E+00 0.  1.
         21   -1    0    0  501  502 -0.00000000000E+00 -0.00000000000E+00 -0.77582821857E+02  0.77582821857E+02  0.00000000000E+00 0.  1.
         25    1    1    2    0    0 -0.12151871298E+03  0.38204073506E+02  0.21500110606E+03  0.27942230485E+03  0.12500000000E+03 0.  0.
         25    1    1    2    0    0  0.39119665932E+02 -0.15021106224E+01  0.94038210548E+02  0.16124760352E+03  0.12500000000E+03 0.  0.
         25    1    1    2    0    0  0.82399047050E+02 -0.36701962884E+02  0.49304625306E+03  0.51658130502E+03  0.12500000000E+03 0.  0.
</event>
<event>
 5    0  0.5641283E-005  0.3272582E+03  0.7546771E-02  0.1072357E+00
         21   -1    0    0  502  501  0.00000000000E+00  0.00000000000E+00  0.20043318696E+03  0.20043318696E+03  0.00000000000E+00 0.  1.
         21   -1    0    0  501  502 -0.00000000000E+00 -0.00000000000E+00 -0.53433222250E+03  0.53433222250E+03  0.00000000000E+00 0.  1.
         25    1    1    2    0    0  0.19188071353E+02 -0.40616034358E+02 -0.73058652397E+02  0.15159291217E+03  0.12500000000E+03 0.  0.
         25    1    1    2    0    0 -0.28083832947E+02  0.10641138122E+03  0.10090182520E+03  0.19472612063E+03  0.12500000000E+03 0.  0.
         25    1    1    2    0    0  0.88957615940E+01 -0.65795346857E+02 -0.36174220835E+03  0.38844637666E+03  0.12500000000E+03 0.  0.
</event>
<event>
 5    0  0.5641283E-005  0.2997616E+03  0.7546771E-02  0.1085360E+00
         21   -1    0    0  502  501  0.00000000000E+00  0.00000000000E+00  0.64451155984E+03  0.64451155984E+03  0.00000000000E+00 0. -1.
         21   -1    0    0  501  502 -0.00000000000E+00 -0.00000000000E+00 -0.13941878506E+03  0.13941878506E+03  0.00000000000E+00 0. -1.
         25    1    1    2    0    0  0.84235829031E+02 -0.79430259087E+02  0.32264152572E+03  0.36486627012E+03  0.12500000000E+03 0.  0.
         25    1    1    2    0    0 -0.13068371754E+03 -0.47971520035E+02  0.12826779002E+03  0.22684163358E+03  0.12500000000E+03 0.  0.
         25    1    1    2    0    0  0.46447888514E+02  0.12740177912E+03  0.54183459036E+02  0.19222244121E+03  0.12500000000E+03 0.  0.
</event>
<event>
 5    0  0.5641283E-005  0.3003904E+03  0.7546771E-02  0.1085046E+00
         21   -1    0    0  502  501  0.00000000000E+00  0.00000000000E+00  0.19727209121E+04  0.19727209121E+04  0.00000000000E+00 0. -1.
         21   -1    0    0  501  502 -0.00000000000E+00 -0.00000000000E+00 -0.45741091922E+02  0.45741091922E+02  0.00000000000E+00 0. -1.
         25    1    1    2    0    0 -0.10014996438E+03 -0.10030298686E+03  0.41252453495E+03  0.45375345340E+03  0.12500000000E+03 0.  0.
         25    1    1    2    0    0 -0.87493392835E+02  0.40738996025E+02  0.53126014743E+03  0.55423560319E+03  0.12500000000E+03 0.  0.
         25    1    1    2    0    0  0.18764335721E+03  0.59563990840E+02  0.98319513776E+03  0.10104729474E+04  0.12500000000E+03 0.  0.
</event>
<event>
 5    0  0.5641283E-005  0.2349610E+03  0.7546771E-02  0.1123196E+00
         21   -1    0    0  502  501  0.00000000000E+00  0.00000000000E+00  0.99171664621E+02  0.99171664621E+02  0.00000000000E+00 0.  1.
         21   -1    0    0  501  502 -0.00000000000E+00 -0.00000000000E+00 -0.55667783222E+03  0.55667783222E+03  0.00000000000E+00 0.  1.
         25    1    1    2    0    0 -0.16523599174E+02  0.73788483887E+01 -0.27832217267E+02  0.12933332537E+03  0.12500000000E+03 0.  0.
         25    1    1    2    0    0  0.35584993040E+02  0.12366571702E+02 -0.35523211621E+03  0.37846278577E+03  0.12500000000E+03 0.  0.
         25    1    1    2    0    0 -0.19061393866E+02 -0.19745420091E+02 -0.74441834124E+02  0.14805338570E+03  0.12500000000E+03 0.  0.
</event>
<event>
 5    0  0.5641283E-005  0.3971104E+03  0.7546771E-02  0.1044785E+00
         21   -1    0    0  502  501  0.00000000000E+00  0.00000000000E+00  0.33761296059E+03  0.33761296059E+03  0.00000000000E+00 0. -1.
         21   -1    0    0  501  502 -0.00000000000E+00 -0.00000000000E+00 -0.46709294130E+03  0.46709294130E+03  0.00000000000E+00 0. -1.
         25    1    1    2    0    0 -0.14034185241E+03  0.84178853646E+02 -0.13835989411E+03  0.24809348084E+03  0.12500000000E+03 0.  0.
         25    1    1    2    0    0  0.23582712929E+03 -0.15174369756E+03 -0.13268219346E+03  0.33446995249E+03  0.12500000000E+03 0.  0.
         25    1    1    2    0    0 -0.95485276876E+02  0.67564843918E+02  0.14156210686E+03  0.22214246855E+03  0.12500000000E+03 0.  0.
</event>
<event>
 5    0  0.5641283E-005  0.3887377E+03  0.7546771E-02  0.1047751E+00
         21   -1    0    0  502  501  0.00000000000E+00  0.00000000000E+00  0.29242670098E+03  0.29242670098E+03  0.00000000000E+00 0.  1.
         21   -1    0    0  501  502 -0.00000000000E+00 -0.00000000000E+00 -0.51676872908E+03  0.51676872908E+03  0.00000000000E+00 0.  1.
         25    1    1    2    0    0  0.80815613248E+02 -0.21252260273E+01 -0.40203203926E+03  0.42870787317E+03  0.12500000000E+03 0.  0.
         25    1    1    2    0    0 -0.11384812126E+03 -0.73474446020E+02  0.12012829090E+03  0.22003566803E+03  0.12500000000E+03 0.  0.
         25    1    1    2    0    0  0.33032508009E+02  0.75599672047E+02  0.57561720255E+02  0.16045188886E+03  0.12500000000E+03 0.  0.
</event>
<event>
 5    0  0.5641283E-005  0.3130598E+03  0.7546771E-02  0.1078888E+00
         21   -1    0    0  502  501  0.00000000000E+00  0.00000000000E+00  0.85726520586E+02  0.85726520586E+02  0.00000000000E+00 0.  1.
         21   -1    0    0  501  502 -0.00000000000E+00 -0.00000000000E+00 -0.11432454975E+04  0.11432454975E+04  0.00000000000E+00 0.  1.
         25    1    1    2    0    0 -0.18438273116E+03 -0.12980129744E+01 -0.22862513767E+03  0.31920703307E+03  0.12500000000E+03 0.  0.
         25    1    1    2    0    0  0.91042729128E+02 -0.68139071303E+02 -0.60516391222E+03  0.62831526499E+03  0.12500000000E+03 0.  0.
         25    1    1    2    0    0  0.93340002030E+02  0.69437084278E+02 -0.22372992698E+03  0.28144971999E+03  0.12500000000E+03 0.  0.
</event>
<event>
 5    0  0.5641283E-005  0.2292926E+03  0.7546771E-02  0.1127139E+00
         21   -1    0    0  502  501  0.00000000000E+00  0.00000000000E+00  0.16547065286E+03  0.16547065286E+03  0.00000000000E+00 0. -1.
         21   -1    0    0  501  502 -0.00000000000E+00 -0.00000000000E+00 -0.31773054757E+03  0.31773054757E+03  0.00000000000E+00 0. -1.
         25    1    1    2    0    0  0.20490949872E+02  0.61499351675E+02  0.76700398604E+00  0.14081064441E+03  0.12500000000E+03 0.  0.
         25    1    1    2    0    0  0.41096060911E+02  0.35215378166E+02 -0.58902850037E+02  0.14840335180E+03  0.12500000000E+03 0.  0.
         25    1    1    2    0    0 -0.61587010783E+02 -0.96714729841E+02 -0.94124048663E+02  0.19398720422E+03  0.12500000000E+03 0.  0.
</event>
<event>
 5    0  0.5641283E-005  0.3063988E+03  0.7546771E-02  0.1082085E+00
         21   -1    0    0  502  501  0.00000000000E+00  0.00000000000E+00  0.66084714476E+02  0.66084714476E+02  0.00000000000E+00 0.  1.
         21   -1    0    0  501  502 -0.00000000000E+00 -0.00000000000E+00 -0.14206041823E+04  0.14206041823E+04  0.00000000000E+00 0.  1.
         25    1    1    2    0    0  0.85300254253E+01  0.70621587014E+02 -0.60213378085E+02  0.15591927651E+03  0.12500000000E+03 0.  0.
         25    1    1    2    0    0  0.47085486903E+02  0.26698467429E+02 -0.70369430992E+03  0.71675695536E+03  0.12500000000E+03 0.  0.
         25    1    1    2    0    0 -0.55615512329E+02 -0.97320054444E+02 -0.59061177980E+03  0.61401266489E+03  0.12500000000E+03 0.  0.
</event>
<event>
 5    0  0.5641283E-005  0.3408201E+03  0.7546771E-02  0.1066447E+00
         21   -1    0    0  502  501  0.00000000000E+00  0.00000000000E+00  0.22284086108E+03  0.22284086108E+03  0.00000000000E+00 0.  1.
         21   -1    0    0  501  502 -0.00000000000E+00 -0.00000000000E+00 -0.52126151877E+03  0.52126151877E+03  0.00000000000E+00 0.  1.
         25    1    1    2    0    0 -0.24019605821E+03 -0.55978189263E+02 -0.17690534135E+02  0.27706616367E+03  0.12500000000E+03 0.  0.
         25    1    1    2    0    0  0.12297642897E+03  0.40729317929E+02 -0.22073420961E+03  0.28483446195E+03  0.12500000000E+03 0.  0.
         25    1    1    2    0    0  0.11721962924E+03  0.15248871334E+02 -0.59995913940E+02  0.18220175423E+03  0.12500000000E+03 0.  0.
</event>
<event>
 5    0  0.5668937E-005  0.2680138E+03  0.7546771E-02  0.1102422E+00
         21   -1    0    0  502  501  0.00000000000E+00  0.00000000000E+00  0.67886657711E+02  0.67886657711E+02  0.00000000000E+00 0. -1.
         21   -1    0    0  501  502 -0.00000000000E+00 -0.00000000000E+00 -0.10581079642E+04  0.10581079642E+04  0.00000000000E+00 0. -1.
         25    1    1    2    0    0 -0.13546813860E+03 -0.56351587533E+02 -0.22120775975E+03  0.29340243858E+03  0.12500000000E+03 0.  0.
         25    1    1    2    0    0  0.11249120936E+03 -0.10680694709E+02 -0.32783550440E+03  0.36860475766E+03  0.12500000000E+03 0.  0.
         25    1    1    2    0    0  0.22976929235E+02  0.67032282242E+02 -0.44117804235E+03  0.46398742568E+03  0.12500000000E+03 0.  0.
</event>
<event>
 5    0  0.5641283E-005  0.2412158E+03  0.7546771E-02  0.1118986E+00
         21   -1    0    0  502  501  0.00000000000E+00  0.00000000000E+00  0.12395164946E+03  0.12395164946E+03  0.00000000000E+00 0.  1.
         21   -1    0    0  501  502 -0.00000000000E+00 -0.00000000000E+00 -0.46941750283E+03  0.46941750283E+03  0.00000000000E+00 0.  1.
         25    1    1    2    0    0 -0.29410030365E+02 -0.66749637456E+02 -0.22405438647E+02  0.14644953966E+03  0.12500000000E+03 0.  0.
         25    1    1    2    0    0  0.15949247346E+02 -0.48386614376E+02 -0.17581112104E+03  0.22165331765E+03  0.12500000000E+03 0.  0.
         25    1    1    2    0    0  0.13460783020E+02  0.11513625183E+03 -0.14724929368E+03  0.22526629498E+03  0.12500000000E+03 0.  0.
</event>
<event>
 5    0  0.5641283E-005  0.3254250E+03  0.7546771E-02  0.1073179E+00
         21   -1    0    0  502  501  0.00000000000E+00  0.00000000000E+00  0.47312936813E+03  0.47312936813E+03  0.00000000000E+00 0.  1.
         21   -1    0    0  501  502 -0.00000000000E+00 -0.00000000000E+00 -0.22383181962E+03  0.22383181962E+03  0.00000000000E+00 0.  1.
         25    1    1    2    0    0  0.18590203738E+03 -0.12147839114E+03  0.15438576884E+03  0.29795391025E+03  0.12500000000E+03 0.  0.
         25    1    1    2    0    0  0.12306972525E+02  0.37479494046E+02  0.70623833684E+02  0.14889224268E+03  0.12500000000E+03 0.  0.
         25    1    1    2    0    0 -0.19820900990E+03  0.83998897098E+02  0.24287945981E+02  0.25011503481E+03  0.12500000000E+03 0.  0.
</event>
<event>
 5    0  0.5641283E-005  0.3598307E+03  0.7546771E-02  0.1058651E+00
         21   -1    0    0  502  501  0.00000000000E+00  0.00000000000E+00  0.99286511638E+03  0.99286511638E+03  0.00000000000E+00 0.  1.
         21   -1    0    0  501  502 -0.00000000000E+00 -0.00000000000E+00 -0.13040858136E+03  0.13040858136E+03  0.00000000000E+00 0.  1.
         25    1    1    2    0    0 -0.35517469370E+02 -0.51948813505E+02  0.35236664578E+03  0.37914037363E+03  0.12500000000E+03 0.  0.
         25    1    1    2    0    0  0.12564562564E+03  0.17934482458E+03  0.71448724804E+02  0.26207119189E+03  0.12500000000E+03 0.  0.
         25    1    1    2    0    0 -0.90128156265E+02 -0.12739601107E+03  0.43864116444E+03  0.48206213223E+03  0.12500000000E+03 0.  0.
</event>
<event>
 5    0  0.5641283E-005  0.3237731E+03  0.7546771E-02  0.1073926E+00
         21   -1    0    0  502  501  0.00000000000E+00  0.00000000000E+00  0.18732950829E+03  0.18732950829E+03  0.00000000000E+00 0.  1.
         21   -1    0    0  501  502 -0.00000000000E+00 -0.00000000000E+00 -0.55959683444E+03  0.55959683444E+03  0.00000000000E+00 0.  1.
         25    1    1    2    0    0  0.14625642513E+02  0.13080538859E+03 -0.14402105470E+03  0.23171323506E+03  0.12500000000E+03 0.  0.
         25    1    1    2    0    0  0.23478116858E+02  0.10921782383E+03 -0.16389260497E+03  0.23444730960E+03  0.12500000000E+03 0.  0.
         25    1    1    2    0    0 -0.38103759371E+02 -0.24002321243E+03 -0.64353666474E+02  0.28076579808E+03  0.12500000000E+03 0.  0.
</event>
<event>
 5    0  0.5641283E-005  0.3633755E+03  0.7546771E-02  0.1057255E+00
         21   -1    0    0  502  501  0.00000000000E+00  0.00000000000E+00  0.13459893589E+04  0.13459893589E+04  0.00000000000E+00 0. -1.
         21   -1    0    0  501  502 -0.00000000000E+00 -0.00000000000E+00 -0.98100137554E+02  0.98100137554E+02  0.00000000000E+00 0. -1.
         25    1    1    2    0    0  0.54920673856E+01  0.14197864206E+03  0.56519238533E+03  0.59603316187E+03  0.12500000000E+03 0.  0.
         25    1    1    2    0    0  0.15078618804E+03  0.23790690626E+01  0.51152432615E+03  0.54774471309E+03  0.12500000000E+03 0.  0.
         25    1    1    2    0    0 -0.15627825542E+03 -0.14435771112E+03  0.17117250987E+03  0.30031162151E+03  0.12500000000E+03 0.  0.
</event>
<event>
 5    0  0.5641283E-005  0.2815203E+03  0.7546771E-02  0.1094861E+00
         21   -1    0    0  502  501  0.00000000000E+00  0.00000000000E+00  0.89286642909E+02  0.89286642909E+02  0.00000000000E+00 0. -1.
         21   -1    0    0  501  502 -0.00000000000E+00 -0.00000000000E+00 -0.88763172177E+03  0.88763172177E+03  0.00000000000E+00 0. -1.
         25    1    1    2    0    0 -0.31073061195E+02 -0.47832708661E+02 -0.27592374780E+03  0.30824084374E+03  0.12500000000E+03 0.  0.
         25    1    1    2    0    0 -0.33496360246E+02 -0.10446805605E+02 -0.56706578986E+01  0.12995498551E+03  0.12500000000E+03 0.  0.
         25    1    1    2    0    0  0.64569421441E+02  0.58279514267E+02 -0.51675067316E+03  0.53872253543E+03  0.12500000000E+03 0.  0.
</event>
<event>
 5    0  0.5641283E-005  0.3596068E+03  0.7546771E-02  0.1058740E+00
         21   -1    0    0  502  501  0.00000000000E+00  0.00000000000E+00  0.51607078370E+02  0.51607078370E+02  0.00000000000E+00 0. -1.
         21   -1    0    0  501  502 -0.00000000000E+00 -0.00000000000E+00 -0.25058006867E+04  0.25058006867E+04  0.00000000000E+00 0. -1.
         25    1    1    2    0    0  0.12384118548E+03 -0.59207109838E+02 -0.78968439465E+03  0.81121425297E+03  0.12500000000E+03 0.  0.
         25    1    1    2    0    0  0.11354807384E+03 -0.80617748412E+02 -0.98148744132E+03  0.99916714513E+03  0.12500000000E+03 0.  0.
         25    1    1    2    0    0 -0.23738925932E+03  0.13982485825E+03 -0.68302177232E+03  0.74702636693E+03  0.12500000000E+03 0.  0.
</event>
<event>
 5    0  0.5641283E-005  0.4366769E+03  0.7546771E-02  0.1031771E+00
         21   -1    0    0  502  501  0.00000000000E+00  0.00000000000E+00  0.28964687697E+03  0.28964687697E+03  0.00000000000E+00 0.  1.
         21   -1    0    0  501  502 -0.00000000000E+00 -0.00000000000E+00 -0.65834190373E+03  0.65834190373E+03  0.00000000000E+00 0.  1.
         25    1    1    2    0    0 -0.32176733066E+03 -0.95007858194E+02 -0.30597750579E+03  0.47096490554E+03  0.12500000000E+03 0.  0.
         25    1    1    2    0    0  0.19123371218E+03  0.14848738396E+03 -0.89173096448E+02  0.28669788454E+03  0.12500000000E+03 0.  0.
         25    1    1    2    0    0  0.13053361848E+03 -0.53479525766E+02  0.26455575481E+02  0.19032599061E+03  0.12500000000E+03 0.  0.
</event>
<event>
 5    0  0.5641283E-005  0.2498795E+03  0.7546771E-02  0.1113381E+00
         21   -1    0    0  502  501  0.00000000000E+00  0.00000000000E+00  0.16087512260E+03  0.16087512260E+03  0.00000000000E+00 0. -1.
         21   -1    0    0  501  502 -0.00000000000E+00 -0.00000000000E+00 -0.38812558339E+03  0.38812558339E+03  0.00000000000E+00 0. -1.
         25    1    1    2    0    0 -0.37870099788E+02  0.12711318421E+03 -0.10793299164E+03  0.21181698880E+03  0.12500000000E+03 0.  0.
         25    1    1    2    0    0 -0.25672679534E+02 -0.11359862610E+03 -0.39816438124E+02  0.17542543451E+03  0.12500000000E+03 0.  0.
         25    1    1    2    0    0  0.63542779322E+02 -0.13514558112E+02 -0.79501031017E+02  0.16175828269E+03  0.12500000000E+03 0.  0.
</event>
<event>
 5    0  0.5641283E-005  0.3160673E+03  0.7546771E-02  0.1077474E+00
         21   -1    0    0  502  501  0.00000000000E+00  0.00000000000E+00  0.67701665580E+03  0.67701665580E+03  0.00000000000E+00 0. -1.
         21   -1    0    0  501  502 -0.00000000000E+00 -0.00000000000E+00 -0.14755700220E+03  0.14755700220E+03  0.00000000000E+00 0. -1.
         25    1    1    2    0    0 -0.10577622572E+03  0.19700353488E+03  0.27741074447E+03  0.37759862795E+03  0.12500000000E+03 0.  0.
         25    1    1    2    0    0  0.74559277783E+02 -0.46177587225E+02  0.17973601593E+03  0.23584208888E+03  0.12500000000E+03 0.  0.
         25    1    1    2    0    0  0.31216947936E+02 -0.15082594765E+03  0.72312893190E+02  0.21113294116E+03  0.12500000000E+03 0.  0.
</event>
<event>
 5    0  0.5641283E-005  0.3266834E+03  0.7546771E-02  0.1072614E+00
         21   -1    0    0  502  501  0.00000000000E+00  0.00000000000E+00  0.97244020556E+02  0.97244020556E+02  0.00000000000E+00 0. -1.
         21   -1    0    0  501  502 -0.00000000000E+00 -0.00000000000E+00 -0.10974665627E+04  0.10974665627E+04  0.00000000000E+00 0. -1.
         25    1    1    2    0    0  0.98354625874E+02 -0.78168855979E+02 -0.13808993121E+03  0.22467272103E+03  0.12500000000E+03 0.  0.
         25    1    1    2    0    0 -0.22717862277E+02 -0.13262291573E+03 -0.42911786457E+03  0.46676769462E+03  0.12500000000E+03 0.  0.
         25    1    1    2    0    0 -0.75636763597E+02  0.21079177171E+03 -0.43301474634E+03  0.50327016758E+03  0.12500000000E+03 0.  0.
</event>
<event>
 5    0  0.5641283E-005  0.3482091E+03  0.7546771E-02  0.1063352E+00
         21   -1    0    0  502  501  0.00000000000E+00  0.00000000000E+00  0.61881538612E+02  0.61881538612E+02  0.00000000000E+00 0. -1.
         21   -1    0    0  501  502 -0.00000000000E+00 -0.00000000000E+00 -0.19593824279E+04  0.19593824279E+04  0.00000000000E+00 0. -1.
         25    1    1    2    0    0  0.11499551826E+03  0.13705985340E+03 -0.89760325690E+03  0.92375645028E+03  0.12500000000E+03 0.  0.
         25    1    1    2    0    0 -0.20931239952E+02  0.67231832408E+02 -0.63503918787E+03  0.65104378211E+03  0.12500000000E+03 0.  0.
         25    1    1    2    0    0 -0.94064278307E+02 -0.20429168581E+03 -0.36485844449E+03  0.44646373409E+03  0.12500000000E+03 0.  0.
</event>
<event>
 5    0  0.5641283E-005  0.2960221E+03  0.7546771E-02  0.1087246E+00
         21   -1    0    0  502  501  0.00000000000E+00  0.00000000000E+00  0.20225959198E+04  0.20225959198E+04  0.00000000000E+00 0.  1.
         21   -1    0    0  501  502 -0.00000000000E+00 -0.00000000000E+00 -0.43325062622E+02  0.43325062622E+02  0.00000000000E+00 0.  1.
         25    1    1    2    0    0  0.53573498995E+02 -0.70212433224E+02  0.16496342538E+03  0.22502852549E+03  0.12500000000E+03 0.  0.
         25    1    1    2    0    0 -0.27338720691E+02 -0.17089902787E+02  0.12187811400E+04  0.12255986038E+04  0.12500000000E+03 0.  0.
         25    1    1    2    0    0 -0.26234778304E+02  0.87302336010E+02  0.59552629174E+03  0.61529385306E+03  0.12500000000E+03 0.  0.
</event>
<event>
 5    0  0.5641283E-005  0.2270435E+03  0.7546771E-02  0.1128738E+00
         21   -1    0    0  502  501  0.00000000000E+00  0.00000000000E+00  0.13593936698E+04  0.13593936698E+04  0.00000000000E+00 0. -1.
         21   -1    0    0  501  502 -0.00000000000E+00 -0.00000000000E+00 -0.37920384207E+02  0.37920384207E+02  0.00000000000E+00 0. -1.
         25    1    1    2    0    0  0.48435591996E+01 -0.44748574862E+02  0.44922017565E+03  0.46845454553E+03  0.12500000000E+03 0.  0.
         25    1    1    2    0    0 -0.88270763974E+02  0.15997625414E+02  0.56558985663E+03  0.58614378587E+03  0.12500000000E+03 0.  0.
         25    1    1    2    0    0  0.83427204774E+02  0.28750949448E+02  0.30666325334E+03  0.34271572263E+03  0.12500000000E+03 0.  0.
</event>
<event>
 5    0  0.5641283E-005  0.3421487E+03  0.7546771E-02  0.1065884E+00
         21   -1    0    0  502  501  0.00000000000E+00  0.00000000000E+00  0.25798882194E+03  0.25798882194E+03  0.00000000000E+00 0.  1.
         21   -1    0    0  501  502 -0.00000000000E+00 -0.00000000000E+00 -0.45376281299E+03  0.45376281299E+03  0.00000000000E+00 0.  1.
         25    1    1    2    0    0 -0.43159793544E+02  0.17586285007E+03 -0.42313166258E+02  0.22406676204E+03  0.12500000000E+03 0.  0.
         25    1    1    2    0    0 -0.75057003051E+02  0.53586191003E+02  0.13352416821E+02  0.15591125876E+03  0.12500000000E+03 0.  0.
         25    1    1    2    0    0  0.11821679659E+03 -0.22944904108E+03 -0.16681324161E+03  0.33177361412E+03  0.12500000000E+03 0.  0.
</event>
<event>
 5    0  0.5641283E-005  0.2330416E+03  0.7546771E-02  0.1124517E+00
         21   -1    0    0  502  501  0.00000000000E+00  0.00000000000E+00  0.26789116464E+03  0.26789116464E+03  0.00000000000E+00 0. -1.
         21   -1    0    0  501  502 -0.00000000000E+00 -0.00000000000E+00 -0.20272555413E+03  0.20272555413E+03  0.00000000000E+00 0. -1.
         25    1    1    2    0    0  0.11103255725E+02 -0.15248545295E+02 -0.65080509565E+02  0.14218394124E+03  0.12500000000E+03 0.  0.
         25    1    1    2    0    0 -0.45462143929E+02 -0.60748784434E+02  0.34466020745E+02  0.15023357789E+03  0.12500000000E+03 0.  0.
         25    1    1    2    0    0  0.34358888205E+02  0.75997329729E+02  0.95780099326E+02  0.17819919964E+03  0.12500000000E+03 0.  0.
</event>
<event>
 5    0  0.5641283E-005  0.3489121E+03  0.7546771E-02  0.1063062E+00
         21   -1    0    0  502  501  0.00000000000E+00  0.00000000000E+00  0.51807263288E+03  0.51807263288E+03  0.00000000000E+00 0.  1.
         21   -1    0    0  501  502 -0.00000000000E+00 -0.00000000000E+00 -0.23498569025E+03  0.23498569025E+03  0.00000000000E+00 0.  1.
         25    1    1    2    0    0 -0.15505317621E+02  0.65772641177E+02  0.95213580956E+02  0.17104701459E+03  0.12500000000E+03 0.  0.
         25    1    1    2    0    0 -0.54140398162E+02 -0.23305572486E+03  0.23382169571E+03  0.35713266301E+03  0.12500000000E+03 0.  0.
         25    1    1    2    0    0  0.69645715783E+02  0.16728308368E+03 -0.45948334044E+02  0.22487864553E+03  0.12500000000E+03 0.  0.
</event>
<event>
 5    0  0.5900681E-005  0.2974025E+03  0.7546771E-02  0.1086546E+00
         21   -1    0    0  502  501  0.00000000000E+00  0.00000000000E+00  0.38857886491E+03  0.38857886491E+03  0.00000000000E+00 0.  1.
         21   -1    0    0  501  502 -0.00000000000E+00 -0.00000000000E+00 -0.22761973314E+03  0.22761973314E+03  0.00000000000E+00 0.  1.
         25    1    1    2    0    0  0.83320666943E+02 -0.14552836593E+03  0.39373122412E+02  0.21282876121E+03  0.12500000000E+03 0.  0.
         25    1    1    2    0    0 -0.78778351406E+02  0.11482650148E+03  0.18206462102E+03  0.26108175027E+03  0.12500000000E+03 0.  0.
         25    1    1    2    0    0 -0.45423155374E+01  0.30701864444E+02 -0.60478611663E+02  0.14228808657E+03  0.12500000000E+03 0.  0.
</event>
<event>
 5    0  0.8970746E-005  0.3587676E+03  0.7546771E-02  0.1059073E+00
         21   -1    0    0  502  501  0.00000000000E+00  0.00000000000E+00  0.81467487163E+02  0.81467487163E+02  0.00000000000E+00 0. -1.
         21   -1    0    0  501  502 -0.00000000000E+00 -0.00000000000E+00 -0.15799454538E+04  0.15799454538E+04  0.00000000000E+00 0. -1.
         25    1    1    2    0    0  0.15126642141E+03 -0.17146110934E+03 -0.43314318446E+03  0.50548833864E+03  0.12500000000E+03 0.  0.
         25    1    1    2    0    0 -0.84078537908E+02  0.65366824224E+02 -0.14619995126E+03  0.21986688699E+03  0.12500000000E+03 0.  0.
         25    1    1    2    0    0 -0.67187883503E+02  0.10609428512E+03 -0.91913483094E+03  0.93605771536E+03  0.12500000000E+03 0.  0.
</event>
<event>
 5    0  0.5641283E-005  0.3887091E+03  0.7546771E-02  0.1047761E+00
         21   -1    0    0  502  501  0.00000000000E+00  0.00000000000E+00  0.41683825710E+03  0.41683825710E+03  0.00000000000E+00 0. -1.
         21   -1    0    0  501  502 -0.00000000000E+00 -0.00000000000E+00 -0.36247822991E+03  0.36247822991E+03  0.00000000000E+00 0. -1.
         25    1    1    2    0    0 -0.49398619451E+02  0.15989789475E+03 -0.21609631545E+03  0.30054979272E+03  0.12500000000E+03 0.  0.
         25    1    1    2    0    0 -0.75578910937E+02  0.87985166545E+01  0.67620076799E+02  0.16120502616E+03  0.12500000000E+03 0.  0.
         25    1    1    2    0    0  0.12497753039E+03 -0.16869641141E+03  0.20283626585E+03  0.31756166813E+03  0.12500000000E+03 0.  0.
</event>
<event>
 5    0  0.5641283E-005  0.3972808E+03  0.7546771E-02  0.1044725E+00
         21   -1    0    0  502  501  0.00000000000E+00  0.00000000000E+00  0.20807818691E+03  0.20807818691E+03  0.00000000000E+00 0. -1.
         21   -1    0    0  501  502 -0.00000000000E+00 -0.00000000000E+00 -0.75852259120E+03  0.75852259120E+03  0.00000000000E+00 0. -1.
         25    1    1    2    0    0  0.10078832658E+03  0.26243770608E+01  0.38532039653E+02  0.16515111931E+03  0.12500000000E+03 0.  0.
         25    1    1    2    0    0  0.10425470461E+03 -0.12456100665E+03 -0.69708286041E+02  0.21649187734E+03  0.12500000000E+03 0.  0.
         25    1    1    2    0    0 -0.20504303120E+03  0.12193662959E+03 -0.51926815790E+03  0.58495778146E+03  0.12500000000E+03 0.  0.
</event>
<event>
 5    0  0.5641283E-005  0.2246349E+03  0.7546771E-02  0.1130474E+00
         21   -1    0    0  502  501  0.00000000000E+00  0.00000000000E+00  0.50449264985E+03  0.50449264985E+03  0.00000000000E+00 0.  1.
         21   -1    0    0  501  502 -0.00000000000E+00 -0.00000000000E+00 -0.10002298095E+03  0.10002298095E+03  0.00000000000E+00 0.  1.
         25    1    1    2    0    0 -0.41006307523E+02 -0.50511267037E+01  0.13571750625E+03  0.18908006939E+03  0.12500000000E+03 0.  0.
         25    1    1    2    0    0  0.33260104988E+02 -0.39410296680E+02  0.24584461662E+03  0.28057794209E+03  0.12500000000E+03 0.  0.
         25    1    1    2    0    0  0.77462025358E+01  0.44461423383E+02  0.22907546036E+02  0.13485761932E+03  0.12500000000E+03 0.  0.
</event>
<event>
 5    0  0.5641283E-005  0.2859941E+03  0.7546771E-02  0.1092459E+00
         21   -1    0    0  502  501  0.00000000000E+00  0.00000000000E+00  0.14179206303E+03  0.14179206303E+03  0.00000000000E+00 0.  1.
         21   -1    0    0  501  502 -0.00000000000E+00 -0.00000000000E+00 -0.57684914057E+03  0.57684914057E+03  0.00000000000E+00 0.  1.
         25    1    1    2    0    0  0.12774720126E+03  0.84304320005E+02 -0.29180967412E+03  0.35242651959E+03  0.12500000000E+03 0.  0.
         25    1    1    2    0    0 -0.34546819856E+02 -0.11883000295E+03 -0.91960442227E+02  0.19848369026E+03  0.12500000000E+03 0.  0.
         25    1    1    2    0    0 -0.93200381406E+02  0.34525682949E+02 -0.51286961198E+02  0.16773099376E+03  0.12500000000E+03 0.  0.
</event>
<event>
 5    0  0.5641283E-005  0.4650644E+03  0.7546771E-02  0.1023323E+00
         21   -1    0    0  502  501  0.00000000000E+00  0.00000000000E+00  0.10488648683E+04  0.10488648683E+04  0.00000000000E+00 0.  1.
         21   -1    0    0  501  502 -0.00000000000E+00 -0.00000000000E+00 -0.20620851335E+03  0.20620851335E+03  0.00000000000E+00 0.  1.
         25    1    1    2    0    0  0.35177619879E+02 -0.33288629961E+03  0.83286842123E+02  0.36689569564E+03  0.12500000000E+03 0.  0.
         25    1    1    2    0    0 -0.83348186575E+02  0.16032879327E+03  0.24359525279E+03  0.32804860819E+03  0.12500000000E+03 0.  0.
         25    1    1    2    0    0  0.48170566695E+02  0.17255750634E+03  0.51577426003E+03  0.56012907780E+03  0.12500000000E+03 0.  0.
</event>
<event>
 5    0  0.5641283E-005  0.5025842E+03  0.7546771E-02  0.1013107E+00
         21   -1    0    0  502  501  0.00000000000E+00  0.00000000000E+00  0.50148919164E+03  0.50148919164E+03  0.00000000000E+00 0. -1.
         21   -1    0    0  501  502 -0.00000000000E+00 -0.00000000000E+00 -0.50368152559E+03  0.50368152559E+03  0.00000000000E+00 0. -1.
         25    1    1    2    0    0  0.21234052564E+03 -0.51064765410E+02  0.21186430511E+03  0.32894922537E+03  0.12500000000E+03 0.  0.
         25    1    1    2    0    0 -0.30229802072E+03  0.18030860387E+03 -0.27758274927E+03  0.46537347223E+03  0.12500000000E+03 0.  0.
         25    1    1    2    0    0  0.89957495085E+02 -0.12924383846E+03  0.63526110217E+02  0.21084801963E+03  0.12500000000E+03 0.  0.
</event>
<event>
 5    0  0.5641283E-005  0.3472026E+03  0.7546771E-02  0.1063769E+00
         21   -1    0    0  502  501  0.00000000000E+00  0.00000000000E+00  0.76100662128E+03  0.76100662128E+03  0.00000000000E+00 0. -1.
         21   -1    0    0  501  502 -0.00000000000E+00 -0.00000000000E+00 -0.15840811409E+03  0.15840811409E+03  0.00000000000E+00 0. -1.
         25    1    1    2    0    0 -0.15484203474E+02  0.66079770778E+02  0.35358411043E+03  0.38112074178E+03  0.12500000000E+03 0.  0.
         25    1    1    2    0    0 -0.30406976241E+02 -0.12524516492E+03  0.32698403359E+03  0.37303417238E+03  0.12500000000E+03 0.  0.
         25    1    1    2    0    0  0.45891179715E+02  0.59165394143E+02 -0.77969636828E+02  0.16525982121E+03  0.12500000000E+03 0.  0.
</event>
<event>
 5    0  0.5641283E-005  0.2518408E+03  0.7546771E-02  0.1112147E+00
         21   -1    0    0  502  501  0.00000000000E+00  0.00000000000E+00  0.47585532603E+02  0.47585532603E+02  0.00000000000E+00 0.  1.
         21   -1    0    0  501  502 -0.00000000000E+00 -0.00000000000E+00 -0.13328375991E+04  0.13328375991E+04  0.00000000000E+00 0.  1.
         25    1    1    2    0    0 -0.24931052488E+02 -0.39837486609E+02 -0.82602961070E+03  0.83675474332E+03  0.12500000000E+03 0.  0.
         25    1    1    2    0    0  0.21680570992E+02  0.10020583165E+02 -0.35832229937E+03  0.38025035105E+03  0.12500000000E+03 0.  0.
         25    1    1    2    0    0  0.32504814958E+01  0.29816903444E+02 -0.10090015644E+03  0.16341803735E+03  0.12500000000E+03 0.  0.
</event>
<event>
 5    0  0.5641283E-005  0.2795948E+03  0.7546771E-02  0.1095910E+00
         21   -1    0    0  502  501  0.00000000000E+00  0.00000000000E+00  0.10522768429E+03  0.10522768429E+03  0.00000000000E+00 0.  1.
         21   -1    0    0  501  502 -0.00000000000E+00 -0.00000000000E+00 -0.74289630337E+03  0.74289630337E+03  0.00000000000E+00 0.  1.
         25    1    1    2    0    0  0.10328415612E+02  0.76141149549E+02 -0.19905274853E+03  0.24728758060E+03  0.12500000000E+03 0.  0.
         25    1    1    2    0    0 -0.64116337607E+02 -0.32710139059E+02 -0.50336298306E+01  0.14433016100E+03  0.12500000000E+03 0.  0.
         25    1    1    2    0    0  0.53787921995E+02 -0.43431010490E+02 -0.43358224072E+03  0.45650624606E+03  0.12500000000E+03 0.  0.
</event>
<event>
 5    0  0.5641283E-005  0.3850311E+03  0.7546771E-02  0.1049090E+00
         21   -1    0    0  502  501  0.00000000000E+00  0.00000000000E+00  0.74450538249E+03  0.74450538249E+03  0.00000000000E+00 0.  1.
         21   -1    0    0  501  502 -0.00000000000E+00 -0.00000000000E+00 -0.19912404820E+03  0.19912404820E+03  0.00000000000E+00 0.  1.
         25    1    1    2    0    0  0.20040094989E+03 -0.46333926205E+02  0.25885222914E+02  0.24207936343E+03  0.12500000000E+03 0.  0.
         25    1    1    2    0    0 -0.16115600336E+03  0.33648352860E+02  0.53061120539E+03  0.56945300100E+03  0.12500000000E+03 0.  0.
         25    1    1    2    0    0 -0.39244946532E+02  0.12685573344E+02 -0.11115094013E+02  0.13209706626E+03  0.12500000000E+03 0.  0.
</event>
<event>
 5    0  0.5641283E-005  0.4509386E+03  0.7546771E-02  0.1027443E+00
         21   -1    0    0  502  501  0.00000000000E+00  0.00000000000E+00  0.11350998423E+04  0.11350998423E+04  0.00000000000E+00 0. -1.
         21   -1    0    0  501  502 -0.00000000000E+00 -0.00000000000E+00 -0.17914336761E+03  0.17914336761E+03  0.00000000000E+00 0. -1.
         25    1    1    2    0    0 -0.15090436918E+01  0.17824874013E+03  0.13391755385E+03  0.25560477656E+03  0.12500000000E+03 0.  0.
         25    1    1    2    0    0 -0.20738230791E+03 -0.28332005363E+03  0.62730606781E+03  0.72966812808E+03  0.12500000000E+03 0.  0.
         25    1    1    2    0    0  0.20889135160E+03  0.10507131350E+03  0.19473285299E+03  0.32897030523E+03  0.12500000000E+03 0.  0.
</event>
<event>
 5    0  0.5641283E-005  0.2591517E+03  0.7546771E-02  0.1107654E+00
         21   -1    0    0  502  501  0.00000000000E+00  0.00000000000E+00  0.10314371313E+03  0.10314371313E+03  0.00000000000E+00 0. -1.
         21   -1    0    0  501  502 -0.00000000000E+00 -0.00000000000E+00 -0.65112646515E+03  0.65112646515E+03  0.00000000000E+00 0. -1.
         25    1    1    2    0    0 -0.69372913834E+02  0.92985005115E+02 -0.32066657544E+03  0.36319535370E+03  0.12500000000E+03 0.  0.
         25    1    1    2    0    0  0.76245651311E+02 -0.82470705557E+02 -0.53002837089E+02  0.17620759733E+03  0.12500000000E+03 0.  0.
         25    1    1    2    0    0 -0.68727374775E+01 -0.10514299558E+02 -0.17431333950E+03  0.21486722724E+03  0.12500000000E+03 0.  0.
</event>
<event>
 5    0  0.5641283E-005  0.2378525E+03  0.7546771E-02  0.1121232E+00
         21   -1    0    0  502  501  0.00000000000E+00  0.00000000000E+00  0.19277108756E+04  0.19277108756E+04  0.00000000000E+00 0. -1.
         21   -1    0    0  501  502 -0.00000000000E+00 -0.00000000000E+00 -0.29347675502E+02  0.29347675502E+02  0.00000000000E+00 0. -1.
         25    1    1    2    0    0 -0.13593915701E+02  0.17109754217E+02  0.58662537133E+03  0.60019318934E+03  0.12500000000E+03 0.  0.
         25    1    1    2    0    0  0.53544804778E+02  0.82029072404E+02  0.39928254806E+03  0.42970614148E+03  0.12500000000E+03 0.  0.
         25    1    1    2    0    0 -0.39950889077E+02 -0.99138826621E+02  0.91245528074E+03  0.92715922032E+03  0.12500000000E+03 0.  0.
</event>
<event>
 5    0  0.5641283E-005  0.3195318E+03  0.7546771E-02  0.1075865E+00
         21   -1    0    0  502  501  0.00000000000E+00  0.00000000000E+00  0.65097176479E+03  0.65097176479E+03  0.00000000000E+00 0. -1.
         21   -1    0    0  501  502 -0.00000000000E+00 -0.00000000000E+00 -0.15684331741E+03  0.15684331741E+03  0.00000000000E+00 0. -1.
         25    1    1    2    0    0 -0.66499258958E+02  0.19071671880E+03  0.16725657700E+03  0.29050779821E+03  0.12500000000E+03 0.  0.
         25    1    1    2    0    0  0.74439337101E+02 -0.19134229861E+03  0.10453651338E+03  0.26211824197E+03  0.12500000000E+03 0.  0.
         25    1    1    2    0    0 -0.79400781424E+01  0.62557980709E+00  0.22233535700E+03  0.25518904202E+03  0.12500000000E+03 0.  0.
</event>
<event>
 5    0  0.5641283E-005  0.2877810E+03  0.7546771E-02  0.1091513E+00
         21   -1    0    0  502  501  0.00000000000E+00  0.00000000000E+00  0.17927418984E+03  0.17927418984E+03  0.00000000000E+00 0. -1.
         21   -1    0    0  501  502 -0.00000000000E+00 -0.00000000000E+00 -0.46196221858E+03  0.46196221858E+03  0.00000000000E+00 0. -1.
         25    1    1    2    0    0 -0.96332656969E+02 -0.18127249261E+02 -0.18689168948E+03  0.24527959875E+03  0.12500000000E+03 0.  0.
         25    1    1    2    0    0  0.15442822789E+03  0.90018961818E+02 -0.10108368732E+03  0.24040466489E+03  0.12500000000E+03 0.  0.
         25    1    1    2    0    0 -0.58095570924E+02 -0.71891712557E+02  0.52873480602E+01  0.15555214478E+03  0.12500000000E+03 0.  0.
</event>
<event>
 5    0  0.5858394E-005  0.2941977E+03  0.7546771E-02  0.1088178E+00
         21   -1    0    0  502  501  0.00000000000E+00  0.00000000000E+00  0.16546314838E+03  0.16546314838E+03  0.00000000000E+00 0. -1.
         21   -1    0    0  501  502 -0.00000000000E+00 -0.00000000000E+00 -0.52309087297E+03  0.52309087297E+03  0.00000000000E+00 0. -1.
         25    1    1    2    0    0  0.84919582366E+02  0.77790088616E+02 -0.18737430113E+03  0.25297581323E+03  0.12500000000E+03 0.  0.
         25    1    1    2    0    0 -0.64828483847E+02 -0.13652433066E+02 -0.23911488072E+03  0.27783096917E+03  0.12500000000E+03 0.  0.
         25    1    1    2    0    0 -0.20091098520E+02 -0.64137655550E+02  0.68861457257E+02  0.15774723894E+03  0.12500000000E+03 0.  0.
</event>
<event>
 5    0  0.8287457E-005  0.5964062E+03  0.7546771E-02  0.9912890E-01
         21   -1    0    0  502  501  0.00000000000E+00  0.00000000000E+00  0.14455576359E+04  0.14455576359E+04  0.00000000000E+00 0.  1.
         21   -1    0    0  501  502 -0.00000000000E+00 -0.00000000000E+00 -0.24606442635E+03  0.24606442635E+03  0.00000000000E+00 0.  1.
         25    1    1    2    0    0 -0.16241225626E+03 -0.38254578405E+01  0.90770958844E+03  0.93056653285E+03  0.12500000000E+03 0.  0.
         25    1    1    2    0    0  0.32396884416E+03 -0.13579922968E+03  0.34498418681E+03  0.50797276690E+03  0.12500000000E+03 0.  0.
         25    1    1    2    0    0 -0.16155658790E+03  0.13962468752E+03 -0.53200565732E+02  0.25308276246E+03  0.12500000000E+03 0.  0.
</event>
<event>
 5    0  0.6002224E-005  0.4168137E+03  0.7546771E-02  0.1038108E+00
         21   -1    0    0  502  501  0.00000000000E+00  0.00000000000E+00  0.34439715411E+03  0.34439715411E+03  0.00000000000E+00 0. -1.
         21   -1    0    0  501  502 -0.00000000000E+00 -0.00000000000E+00 -0.50445724552E+03  0.50445724552E+03  0.00000000000E+00 0. -1.
         25    1    1    2    0    0 -0.38714664602E-01 -0.16321896469E+03 -0.16093001136E+03  0.26108217191E+03  0.12500000000E+03 0.  0.
         25    1    1    2    0    0  0.85965468391E+02  0.22496770723E+03 -0.19375016183E+03  0.33341364139E+03  0.12500000000E+03 0.  0.
         25    1    1    2    0    0 -0.85926753726E+02 -0.61748742539E+02  0.19462008177E+03  0.25435858633E+03  0.12500000000E+03 0.  0.
</event>
<event>
 5    0  0.5641283E-005  0.2350351E+03  0.7546771E-02  0.1123145E+00
         21   -1    0    0  502  501  0.00000000000E+00  0.00000000000E+00  0.40513927683E+03  0.40513927683E+03  0.00000000000E+00 0. -1.
         21   -1    0    0  501  502 -0.00000000000E+00 -0.00000000000E+00 -0.13635187518E+03  0.13635187518E+03  0.00000000000E+00 0. -1.
         25    1    1    2    0    0 -0.11119558643E+03  0.28195649537E+02  0.32788821879E+02  0.17279918962E+03  0.12500000000E+03 0.  0.
         25    1    1    2    0    0  0.28557826703E+02 -0.35823030569E+02  0.10625767130E+03  0.17033652484E+03  0.12500000000E+03 0.  0.
         25    1    1    2    0    0  0.82637759726E+02  0.76273810317E+01  0.12974090846E+03  0.19835543754E+03  0.12500000000E+03 0.  0.
</event>
<event>
 5    0  0.5641283E-005  0.3230402E+03  0.7546771E-02  0.1074259E+00
         21   -1    0    0  502  501  0.00000000000E+00  0.00000000000E+00  0.28671843740E+03  0.28671843740E+03  0.00000000000E+00 0. -1.
         21   -1    0    0  501  502 -0.00000000000E+00 -0.00000000000E+00 -0.36396322543E+03  0.36396322543E+03  0.00000000000E+00 0. -1.
         25    1    1    2    0    0  0.18105389353E+02  0.96660585583E+02  0.55489492161E+02  0.16844927328E+03  0.12500000000E+03 0.  0.
         25    1    1    2    0    0 -0.16464401711E+03 -0.94063049692E+02 -0.17292943569E+03  0.28545595005E+03  0.12500000000E+03 0.  0.
         25    1    1    2    0    0  0.14653862776E+03 -0.25975358915E+01  0.40195155509E+02  0.19677643951E+03  0.12500000000E+03 0.  0.
</event>
<event>
 5    0  0.5641283E-005  0.2747211E+03  0.7546771E-02  0.1098608E+00
         21   -1    0    0  502  501  0.00000000000E+00  0.00000000000E+00  0.16553751338E+04  0.16553751338E+04  0.00000000000E+00 0. -1.
         21   -1    0    0  501  502 -0.00000000000E+00 -0.00000000000E+00 -0.45591890597E+02  0.45591890597E+02  0.00000000000E+00 0. -1.
         25    1    1    2    0    0 -0.13419042237E+02  0.50794009492E+00  0.11824606545E+04  0.11891251103E+04  0.12500000000E+03 0.  0.
         25    1    1    2    0    0 -0.19252811223E+02  0.31507905886E+02  0.30240962910E+03  0.32930229675E+03  0.12500000000E+03 0.  0.
         25    1    1    2    0    0  0.32671853460E+02 -0.32015845981E+02  0.12491295967E+03  0.18253961734E+03  0.12500000000E+03 0.  0.
</event>
<event>
 5    0  0.5641283E-005  0.4003592E+03  0.7546771E-02  0.1043655E+00
         21   -1    0    0  502  501  0.00000000000E+00  0.00000000000E+00  0.71558921732E+03  0.71558921732E+03  0.00000000000E+00 0. -1.
         21   -1    0    0  501  502 -0.00000000000E+00 -0.00000000000E+00 -0.22399370594E+03  0.22399370594E+03  0.00000000000E+00 0. -1.
         25    1    1    2    0    0  0.60625698776E+02  0.23064867487E+03  0.18411221225E+03  0.32618490656E+03  0.12500000000E+03 0.  0.
         25    1    1    2    0    0  0.22084978217E+00  0.10763328135E+03  0.10037617378E+03  0.19309414360E+03  0.12500000000E+03 0.  0.
         25    1    1    2    0    0 -0.60846548558E+02 -0.33828195622E+03  0.20710712536E+03  0.42030387311E+03  0.12500000000E+03 0.  0.
</event>
<event>
 5    0  0.5641283E-005  0.4054366E+03  0.7546771E-02  0.1041913E+00
         21   -1    0    0  502  501  0.00000000000E+00  0.00000000000E+00  0.29264444813E+03  0.29264444813E+03  0.00000000000E+00 0.  1.
         21   -1    0    0  501  502 -0.00000000000E+00 -0.00000000000E+00 -0.56170155859E+03  0.56170155859E+03  0.00000000000E+00 0.  1.
         25    1    1    2    0    0  0.34458770908E+02  0.14723127379E+03 -0.31807698371E+03  0.37371435943E+03  0.12500000000E+03 0.  0.
         25    1    1    2    0    0 -0.17415193990E+03 -0.13250955178E+03 -0.65604964695E+02  0.26041637981E+03  0.12500000000E+03 0.  0.
         25    1    1    2    0    0  0.13969316899E+03 -0.14721722006E+02  0.11462483795E+03  0.22021526749E+03  0.12500000000E+03 0.  0.
</event>
<event>
 5    0  0.5641283E-005  0.2656458E+03  0.7546771E-02  0.1103798E+00
         21   -1    0    0  502  501  0.00000000000E+00  0.00000000000E+00  0.11398707379E+04  0.11398707379E+04  0.00000000000E+00 0. -1.
         21   -1    0    0  501  502 -0.00000000000E+00 -0.00000000000E+00 -0.61908486556E+02  0.61908486556E+02  0.00000000000E+00 0. -1.
         25    1    1    2    0    0 -0.83951020782E+02  0.14577511389E+02  0.48070290815E+03  0.50394500060E+03  0.12500000000E+03 0.  0.
         25    1    1    2    0    0  0.15574071310E+03  0.42563250036E+02  0.37221236830E+03  0.42453957070E+03  0.12500000000E+03 0.  0.
         25    1    1    2    0    0 -0.71789692314E+02 -0.57140761424E+02  0.22504697491E+03  0.27329465318E+03  0.12500000000E+03 0.  0.
</event>
<event>
 5    0  0.5641283E-005  0.2454819E+03  0.7546771E-02  0.1116194E+00
         21   -1    0    0  502  501  0.00000000000E+00  0.00000000000E+00  0.40616289851E+03  0.40616289851E+03  0.00000000000E+00 0. -1.
         21   -1    0    0  501  502 -0.00000000000E+00 -0.00000000000E+00 -0.14836751193E+03  0.14836751193E+03  0.00000000000E+00 0. -1.
         25    1    1    2    0    0  0.63222204285E+02  0.77746048239E+02  0.11334398715E+03  0.19624819631E+03  0.12500000000E+03 0.  0.
         25    1    1    2    0    0 -0.11449206386E+03 -0.89169010444E+02  0.96467927485E+02  0.21445420523E+03  0.12500000000E+03 0.  0.
         25    1    1    2    0    0  0.51269859571E+02  0.11422962205E+02  0.47983471943E+02  0.14382800891E+03  0.12500000000E+03 0.  0.
</event>
<event>
 5    0  0.5641283E-005  0.2975545E+03  0.7546771E-02  0.1086469E+00
         21   -1    0    0  502  501  0.00000000000E+00  0.00000000000E+00  0.22977817179E+02  0.22977817179E+02  0.00000000000E+00 0.  1.
         21   -1    0    0  501  502 -0.00000000000E+00 -0.00000000000E+00 -0.38532251945E+04  0.38532251945E+04  0.00000000000E+00 0.  1.
         25    1    1    2    0    0  0.11343191085E+03  0.11818426131E+03 -0.19237375965E+04  0.19347417549E+04  0.12500000000E+03 0.  0.
         25    1    1    2    0    0 -0.11500436540E+02 -0.13403418154E+03 -0.68269147702E+03  0.70695832597E+03  0.12500000000E+03 0.  0.
         25    1    1    2    0    0 -0.10193147431E+03  0.15849920229E+02 -0.12238183038E+04  0.12345029308E+04  0.12500000000E+03 0.  0.
</event>
<event>
 5    0  0.5641283E-005  0.3602244E+03  0.7546771E-02  0.1058495E+00
         21   -1    0    0  502  501  0.00000000000E+00  0.00000000000E+00  0.69653402984E+03  0.69653402984E+03  0.00000000000E+00 0.  1.
         21   -1    0    0  501  502 -0.00000000000E+00 -0.00000000000E+00 -0.18629619874E+03  0.18629619874E+03  0.00000000000E+00 0.  1.
         25    1    1    2    0    0  0.46453056589E+02  0.18896640212E+03  0.16251801309E+03  0.28267170388E+03  0.12500000000E+03 0.  0.
         25    1    1    2    0    0  0.14355295137E+03 -0.15605898631E+03  0.11026929824E+03  0.26971498881E+03  0.12500000000E+03 0.  0.
         25    1    1    2    0    0 -0.19000600796E+03 -0.32907415816E+02  0.23745051977E+03  0.33044353589E+03  0.12500000000E+03 0.  0.
</event>
<event>
 5    0  0.5641283E-005  0.2622609E+03  0.7546771E-02  0.1105792E+00
         21   -1    0    0  502  501  0.00000000000E+00  0.00000000000E+00  0.86467406495E+02  0.86467406495E+02  0.00000000000E+00 0.  1.
         21   -1    0    0  501  502 -0.00000000000E+00 -0.00000000000E+00 -0.79545310762E+03  0.79545310762E+03  0.00000000000E+00 0.  1.
         25    1    1    2    0    0  0.13401024213E+03  0.15089144196E+02 -0.19881400860E+03  0.27081070378E+03  0.12500000000E+03 0.  0.
         25    1    1    2    0    0 -0.91944552263E+01  0.51892213071E+02 -0.13675965345E+03  0.19262799017E+03  0.12500000000E+03 0.  0.
         25    1    1    2    0    0 -0.12481578690E+03 -0.66981357267E+02 -0.37341203907E+03  0.41848182016E+03  0.12500000000E+03 0.  0.
</event>
<event>
 5    0  0.5641283E-005  0.3670526E+03  0.7546771E-02  0.1055826E+00
         21   -1    0    0  502  501  0.00000000000E+00  0.00000000000E+00  0.14742899338E+03  0.14742899338E+03  0.00000000000E+00 0. -1.
         21   -1    0    0  501  502 -0.00000000000E+00 -0.00000000000E+00 -0.91384727811E+03  0.91384727811E+03  0.00000000000E+00 0. -1.
         25    1    1    2    0    0 -0.13077256778E+03 -0.67848069591E+02 -0.21978021292E+03  0.29263145255E+03  0.12500000000E+03 0.  0.
         25    1    1    2    0    0  0.80486189025E+02 -0.13030393759E+03 -0.31077498910E+02  0.20011984837E+03  0.12500000000E+03 0.  0.
         25    1    1    2    0    0  0.50286378753E+02  0.19815200718E+03 -0.51556057290E+03  0.56852497057E+03  0.12500000000E+03 0.  0.
</event>
<event>
 5    0  0.5641283E-005  0.7081726E+03  0.7546771E-02  0.9703357E-01
         21   -1    0    0  502  501  0.00000000000E+00  0.00000000000E+00  0.14500493786E+04  0.14500493786E+04  0.00000000000E+00 0. -1.
         21   -1    0    0  501  502 -0.00000000000E+00 -0.00000000000E+00 -0.34585613128E+03  0.34585613128E+03  0.00000000000E+00 0. -1.
         25    1    1    2    0    0  0.38989544298E+03  0.16649182807E+03 -0.11593098007E+03  0.45694964428E+03  0.12500000000E+03 0.  0.
         25    1    1    2    0    0 -0.79774926929E+02 -0.13064094369E+03  0.62369853668E+03  0.65425985647E+03  0.12500000000E+03 0.  0.
         25    1    1    2    0    0 -0.31012051605E+03 -0.35850884384E+02  0.59642569074E+03  0.68469600916E+03  0.12500000000E+03 0.  0.
</event>
<event>
 5    0  0.5641283E-005  0.3442808E+03  0.7546771E-02  0.1064987E+00
         21   -1    0    0  502  501  0.00000000000E+00  0.00000000000E+00  0.36304702613E+03  0.36304702613E+03  0.00000000000E+00 0. -1.
         21   -1    0    0  501  502 -0.00000000000E+00 -0.00000000000E+00 -0.32648458871E+03  0.32648458871E+03  0.00000000000E+00 0. -1.
         25    1    1    2    0    0 -0.15410354342E+03  0.17359971244E+03 -0.33833351657E+02  0.26580906294E+03  0.12500000000E+03 0.  0.
         25    1    1    2    0    0  0.19290718673E+03 -0.60330774798E+02  0.78945208098E+02  0.25042030860E+03  0.12500000000E+03 0.  0.
         25    1    1    2    0    0 -0.38803643308E+02 -0.11326893764E+03 -0.85494190240E+01  0.17330224331E+03  0.12500000000E+03 0.  0.
</event>
<event>
 5    0  0.5641283E-005  0.2224367E+03  0.7546771E-02  0.1132079E+00
         21   -1    0    0  502  501  0.00000000000E+00  0.00000000000E+00  0.10180736403E+04  0.10180736403E+04  0.00000000000E+00 0. -1.
         21   -1    0    0  501  502 -0.00000000000E+00 -0.00000000000E+00 -0.48599702271E+02  0.48599702271E+02  0.00000000000E+00 0. -1.
         25    1    1    2    0    0  0.14743622690E+02 -0.21887272724E+02  0.48853822828E+03  0.50496636284E+03  0.12500000000E+03 0.  0.
         25    1    1    2    0    0 -0.17395604697E+02  0.82732762415E+02  0.26185360449E+03  0.30222446496E+03  0.12500000000E+03 0.  0.
         25    1    1    2    0    0  0.26519820069E+01 -0.60845489690E+02  0.21908210532E+03  0.25948251481E+03  0.12500000000E+03 0.  0.
</event>
<event>
 5    0  0.5641283E-005  0.2704848E+03  0.7546771E-02  0.1101002E+00
         21   -1    0    0  502  501  0.00000000000E+00  0.00000000000E+00  0.62310419156E+03  0.62310419156E+03  0.00000000000E+00 0. -1.
         21   -1    0    0  501  502 -0.00000000000E+00 -0.00000000000E+00 -0.11741536534E+03  0.11741536534E+03  0.00000000000E+00 0. -1.
         25    1    1    2    0    0  0.27485795888E+02 -0.10078014321E+03  0.29009018841E+03  0.33270020087E+03  0.12500000000E+03 0.  0.
         25    1    1    2    0    0 -0.18154775197E+02 -0.68977518137E+01 -0.11434886759E+02  0.12701547732E+03  0.12500000000E+03 0.  0.
         25    1    1    2    0    0 -0.93310206916E+01  0.10767789502E+03  0.22703352457E+03  0.28080387872E+03  0.12500000000E+03 0.  0.
</event>
<event>
 5    0  0.5641283E-005  0.4089743E+03  0.7546771E-02  0.1040716E+00
         21   -1    0    0  502  501  0.00000000000E+00  0.00000000000E+00  0.76849312524E+03  0.76849312524E+03  0.00000000000E+00 0. -1.
         21   -1    0    0  501  502 -0.00000000000E+00 -0.00000000000E+00 -0.21764671396E+03  0.21764671396E+03  0.00000000000E+00 0. -1.
         25    1    1    2    0    0 -0.14746243904E+03 -0.14489105690E+02 -0.32313765328E+02  0.19653061986E+03  0.12500000000E+03 0.  0.
         25    1    1    2    0    0  0.10799768920E+03 -0.32248217472E+02  0.62261182793E+03  0.64496041482E+03  0.12500000000E+03 0.  0.
         25    1    1    2    0    0  0.39464749840E+02  0.46737323161E+02 -0.39451651324E+02  0.14464880452E+03  0.12500000000E+03 0.  0.
</event>
<event>
 5    0  0.5641283E-005  0.2970527E+03  0.7546771E-02  0.1086723E+00
         21   -1    0    0  502  501  0.00000000000E+00  0.00000000000E+00  0.58617360404E+02  0.58617360404E+02  0.00000000000E+00 0. -1.
         21   -1    0    0  501  502 -0.00000000000E+00 -0.00000000000E+00 -0.15053614172E+04  0.15053614172E+04  0.00000000000E+00 0. -1.
         25    1    1    2    0    0  0.42123146408E+02 -0.19763315306E+03 -0.50623750628E+03  0.55922681930E+03  0.12500000000E+03 0.  0.
         25    1    1    2    0    0  0.71481749086E+01  0.96917886458E+02 -0.26508710617E+03  0.30877232223E+03  0.12500000000E+03 0.  0.
         25    1    1    2    0    0 -0.49271321316E+02  0.10071526660E+03 -0.67541944430E+03  0.69597963603E+03  0.12500000000E+03 0.  0.
</event>
<event>
 5    0  0.5641283E-005  0.3623786E+03  0.7546771E-02  0.1057646E+00
         21   -1    0    0  502  501  0.00000000000E+00  0.00000000000E+00  0.94008664973E+03  0.94008664973E+03  0.00000000000E+00 0.  1.
         21   -1    0    0  501  502 -0.00000000000E+00 -0.00000000000E+00 -0.13968740815E+03  0.13968740815E+03  0.00000000000E+00 0.  1.
         25    1    1    2    0    0  0.14842433936E+03  0.12960769261E+03  0.35782694786E+03  0.42719206818E+03  0.12500000000E+03 0.  0.
         25    1    1    2    0    0  0.73541338561E+02 -0.13284137849E+03  0.30536951539E+03  0.36322266070E+03  0.12500000000E+03 0.  0.
         25    1    1    2    0    0 -0.22196567792E+03  0.32336858827E+01  0.13720277832E+03  0.28935932900E+03  0.12500000000E+03 0.  0.
</event>
<event>
 5    0  0.5641283E-005  0.2925258E+03  0.7546771E-02  0.1089038E+00
         21   -1    0    0  502  501  0.00000000000E+00  0.00000000000E+00  0.43564947991E+03  0.43564947991E+03  0.00000000000E+00 0. -1.
         21   -1    0    0  501  502 -0.00000000000E+00 -0.00000000000E+00 -0.19642240766E+03  0.19642240766E+03  0.00000000000E+00 0. -1.
         25    1    1    2    0    0 -0.43598617323E+02  0.67399033117E+02  0.61981906217E+02  0.16096653626E+03  0.12500000000E+03 0.  0.
         25    1    1    2    0    0 -0.47167686438E+02 -0.13728303109E+03  0.22447244465E+03  0.29510049081E+03  0.12500000000E+03 0.  0.
         25    1    1    2    0    0  0.90766303761E+02  0.69883997972E+02 -0.47227278626E+02  0.17600486049E+03  0.12500000000E+03 0.  0.
</event>
<event>
 5    0  0.5641283E-005  0.3060352E+03  0.7546771E-02  0.1082262E+00
         21   -1    0    0  502  501  0.00000000000E+00  0.00000000000E+00  0.75770679126E+03  0.75770679126E+03  0.00000000000E+00 0.  1.
         21   -1    0    0  501  502 -0.00000000000E+00 -0.00000000000E+00 -0.12360654154E+03  0.12360654154E+03  0.00000000000E+00 0.  1.
         25    1    1    2    0    0  0.12217458716E+03 -0.62416265033E+02  0.30514459661E+03  0.35715633094E+03  0.12500000000E+03 0.  0.
         25    1    1    2    0    0 -0.16445291529E+03  0.13934085266E+03  0.24686596483E+03  0.35075410070E+03  0.12500000000E+03 0.  0.
         25    1    1    2    0    0  0.42278328130E+02 -0.76924587622E+02  0.82089688285E+02  0.17340290117E+03  0.12500000000E+03 0.  0.
</event>
<event>
 5    0  0.5641283E-005  0.3943394E+03  0.7546771E-02  0.1045758E+00
         21   -1    0    0  502  501  0.00000000000E+00  0.00000000000E+00  0.60532914814E+03  0.60532914814E+03  0.00000000000E+00 0.  1.
         21   -1    0    0  501  502 -0.00000000000E+00 -0.00000000000E+00 -0.25689098132E+03  0.25689098132E+03  0.00000000000E+00 0.  1.
         25    1    1    2    0    0 -0.17336838133E+03  0.19057631365E+03  0.99677419331E+02  0.30321034761E+03  0.12500000000E+03 0.  0.
         25    1    1    2    0    0 -0.31199235051E+02 -0.55990492837E+02 -0.53590375837E+02  0.15035044376E+03  0.12500000000E+03 0.  0.
         25    1    1    2    0    0  0.20456761638E+03 -0.13458582082E+03  0.30235112333E+03  0.40865933810E+03  0.12500000000E+03 0.  0.
</event>
<event>
 5    0  0.5641283E-005  0.2581097E+03  0.7546771E-02  0.1108284E+00
         21   -1    0    0  502  501  0.00000000000E+00  0.00000000000E+00  0.62835128956E+03  0.62835128956E+03  0.00000000000E+00 0. -1.
         21   -1    0    0  501  502 -0.00000000000E+00 -0.00000000000E+00 -0.10602449322E+03  0.10602449322E+03  0.00000000000E+00 0. -1.
         25    1    1    2    0    0  0.43650301132E+02 -0.64969917744E+02  0.34659468856E+03  0.37666871006E+03  0.12500000000E+03 0.  0.
         25    1    1    2    0    0 -0.57274447088E+02  0.28289121429E+02  0.17801660423E+03  0.22670586243E+03  0.12500000000E+03 0.  0.
         25    1    1    2    0    0  0.13624145956E+02  0.36680796316E+02 -0.22844964471E+01  0.13100121028E+03  0.12500000000E+03 0.  0.
</event>
<event>
 5    0  0.5641283E-005  0.4101376E+03  0.7546771E-02  0.1040325E+00
         21   -1    0    0  502  501  0.00000000000E+00  0.00000000000E+00  0.51157787028E+03  0.51157787028E+03  0.00000000000E+00 0. -1.
         21   -1    0    0  501  502 -0.00000000000E+00 -0.00000000000E+00 -0.32881189777E+03  0.32881189777E+03  0.00000000000E+00 0. -1.
         25    1    1    2    0    0 -0.25048257632E+02  0.12427970610E+03  0.18181454978E+03  0.25446884106E+03  0.12500000000E+03 0.  0.
         25    1    1    2    0    0 -0.99839548024E+01  0.68161708507E+02 -0.22209129566E+03  0.26399856338E+03  0.12500000000E+03 0.  0.
         25    1    1    2    0    0  0.35032212434E+02 -0.19244141461E+03  0.22304271839E+03  0.32192236361E+03  0.12500000000E+03 0.  0.
</event>
<event>
 5    0  0.5641283E-005  0.6183224E+03  0.7546771E-02  0.9868106E-01
         21   -1    0    0  502  501  0.00000000000E+00  0.00000000000E+00  0.17617518662E+03  0.17617518662E+03  0.00000000000E+00 0.  1.
         21   -1    0    0  501  502 -0.00000000000E+00 -0.00000000000E+00 -0.21701272863E+04  0.21701272863E+04  0.00000000000E+00 0.  1.
         25    1    1    2    0    0  0.84581980178E+02 -0.17222011421E+03 -0.81596758408E+02  0.24309856045E+03  0.12500000000E+03 0.  0.
         25    1    1    2    0    0 -0.41271229058E+03  0.88358596669E+02 -0.61329024257E+03  0.75490966217E+03  0.12500000000E+03 0.  0.
         25    1    1    2    0    0  0.32813031040E+03  0.83861517546E+02 -0.12990650987E+04  0.13482942503E+04  0.12500000000E+03 0.  0.
</event>
<event>
 5    0  0.5641283E-005  0.3055955E+03  0.7546771E-02  0.1082476E+00
         21   -1    0    0  502  501  0.00000000000E+00  0.00000000000E+00  0.33450990273E+03  0.33450990273E+03  0.00000000000E+00 0. -1.
         21   -1    0    0  501  502 -0.00000000000E+00 -0.00000000000E+00 -0.27918038133E+03  0.27918038133E+03  0.00000000000E+00 0. -1.
         25    1    1    2    0    0 -0.20509512238E+03 -0.67384653674E+02 -0.25557020292E+02  0.25076455503E+03  0.12500000000E+03 0.  0.
         25    1    1    2    0    0  0.67772817344E+02  0.10219166741E+02  0.89702625620E+02  0.16843143169E+03  0.12500000000E+03 0.  0.
         25    1    1    2    0    0  0.13732230504E+03  0.57165486932E+02 -0.88160839296E+01  0.19449429733E+03  0.12500000000E+03 0.  0.
</event>
<event>
 5    0  0.5641283E-005  0.3622986E+03  0.7546771E-02  0.1057677E+00
         21   -1    0    0  502  501  0.00000000000E+00  0.00000000000E+00  0.92075286061E+03  0.92075286061E+03  0.00000000000E+00 0. -1.
         21   -1    0    0  501  502 -0.00000000000E+00 -0.00000000000E+00 -0.14255758744E+03  0.14255758744E+03  0.00000000000E+00 0. -1.
         25    1    1    2    0    0  0.13094429454E+03  0.94877927542E+02  0.89295171531E+02  0.22304003467E+03  0.12500000000E+03 0.  0.
         25    1    1    2    0    0  0.10885317554E+03  0.24339370543E+02  0.14635438062E+03  0.22245454257E+03  0.12500000000E+03 0.  0.
         25    1    1    2    0    0 -0.23979747008E+03 -0.11921729808E+03  0.54254572103E+03  0.61781587081E+03  0.12500000000E+03 0.  0.
</event>
<event>
 5    0  0.5641283E-005  0.3460517E+03  0.7546771E-02  0.1064247E+00
         21   -1    0    0  502  501  0.00000000000E+00  0.00000000000E+00  0.12702368074E+03  0.12702368074E+03  0.00000000000E+00 0.  1.
         21   -1    0    0  501  502 -0.00000000000E+00 -0.00000000000E+00 -0.94275133859E+03  0.94275133859E+03  0.00000000000E+00 0.  1.
         25    1    1    2    0    0  0.50127184855E+02 -0.34204592802E+02  0.27219386176E+02  0.14159302177E+03  0.12500000000E+03 0.  0.
         25    1    1    2    0    0  0.32445124286E+02  0.13900345630E+03 -0.56034552075E+03  0.59159677955E+03  0.12500000000E+03 0.  0.
         25    1    1    2    0    0 -0.82572309141E+02 -0.10479886349E+03 -0.28260152327E+03  0.33658521801E+03  0.12500000000E+03 0.  0.
</event>
<event>
 5    0  0.5641283E-005  0.2286801E+03  0.7546771E-02  0.1127572E+00
         21   -1    0    0  502  501  0.00000000000E+00  0.00000000000E+00  0.16928024910E+03  0.16928024910E+03  0.00000000000E+00 0. -1.
         21   -1    0    0  501  502 -0.00000000000E+00 -0.00000000000E+00 -0.30892321654E+03  0.30892321654E+03  0.00000000000E+00 0. -1.
         25    1    1    2    0    0  0.22509739889E+02  0.98400247703E+02 -0.10545804761E+03  0.19218662009E+03  0.12500000000E+03 0.  0.
         25    1    1    2    0    0 -0.33291703090E+02 -0.92258489927E+01 -0.85201744217E+01  0.12996556142E+03  0.12500000000E+03 0.  0.
         25    1    1    2    0    0  0.10781963201E+02 -0.89174398711E+02 -0.25664745411E+02  0.15605128411E+03  0.12500000000E+03 0.  0.
</event>
<event>
 5    0  0.5641283E-005  0.2560277E+03  0.7546771E-02  0.1109554E+00
         21   -1    0    0  502  501  0.00000000000E+00  0.00000000000E+00  0.33853908182E+02  0.33853908182E+02  0.00000000000E+00 0.  1.
         21   -1    0    0  501  502 -0.00000000000E+00 -0.00000000000E+00 -0.19362657151E+04  0.19362657151E+04  0.00000000000E+00 0.  1.
         25    1    1    2    0    0 -0.28154321681E+02  0.46469825500E+02 -0.37709860890E+03  0.40097440236E+03  0.12500000000E+03 0.  0.
         25    1    1    2    0    0 -0.10610360515E+03 -0.67164201229E+02 -0.89430119670E+03  0.91168450429E+03  0.12500000000E+03 0.  0.
         25    1    1    2    0    0  0.13425792683E+03  0.20694375730E+02 -0.63101200129E+03  0.65746071660E+03  0.12500000000E+03 0.  0.
</event>
<event>
 5    0  0.5641283E-005  0.3689003E+03  0.7546771E-02  0.1055114E+00
         21   -1    0    0  502  501  0.00000000000E+00  0.00000000000E+00  0.71076087232E+03  0.71076087232E+03  0.00000000000E+00 0.  1.
         21   -1    0    0  501  502 -0.00000000000E+00 -0.00000000000E+00 -0.19146729066E+03  0.19146729066E+03  0.00000000000E+00 0.  1.
         25    1    1    2    0    0  0.14343506062E+03  0.27396730588E+02 -0.90711190826E+02  0.21255050600E+03  0.12500000000E+03 0.  0.
         25    1    1    2    0    0 -0.96629135067E+02 -0.54611900269E+00  0.46344508488E+03  0.48963643113E+03  0.12500000000E+03 0.  0.
         25    1    1    2    0    0 -0.46805925548E+02 -0.26850611585E+02  0.14655968761E+03  0.20004122585E+03  0.12500000000E+03 0.  0.
</event>
<event>
 5    0  0.5641283E-005  0.3140522E+03  0.7546771E-02  0.1078420E+00
         21   -1    0    0  502  501  0.00000000000E+00  0.00000000000E+00  0.74208639905E+02  0.74208639905E+02  0.00000000000E+00 0. -1.
         21   -1    0    0  501  502 -0.00000000000E+00 -0.00000000000E+00 -0.13290739166E+04  0.13290739166E+04  0.00000000000E+00 0. -1.
         25    1    1    2    0    0 -0.70268152480E+02 -0.24611297685E+02 -0.98307102931E+03  0.99377913939E+03  0.12500000000E+03 0.  0.
         25    1    1    2    0    0  0.14965566207E+02  0.68205275375E+02 -0.63621615901E+02  0.15668004905E+03  0.12500000000E+03 0.  0.
         25    1    1    2    0    0  0.55302586273E+02 -0.43593977690E+02 -0.20817263150E+03  0.25282336807E+03  0.12500000000E+03 0.  0.
</event>
<event>
 5    0  0.5641283E-005  0.4578021E+03  0.7546771E-02  0.1025421E+00
         21   -1    0    0  502  501  0.00000000000E+00  0.00000000000E+00  0.27362139982E+03  0.27362139982E+03  0.00000000000E+00 0. -1.
         21   -1    0    0  501  502 -0.00000000000E+00 -0.00000000000E+00 -0.76595879387E+03  0.76595879387E+03  0.00000000000E+00 0. -1.
         25    1    1    2    0    0 -0.26204437150E+03 -0.14127137573E+03 -0.14588100357E+03  0.35430371355E+03  0.12500000000E+03 0.  0.
         25    1    1    2    0    0 -0.86152698944E+02  0.14473160878E+02 -0.23228273758E+03  0.27787052758E+03  0.12500000000E+03 0.  0.
         25    1    1    2    0    0  0.34819707044E+03  0.12679821485E+03 -0.11417365290E+03  0.40740595255E+03  0.12500000000E+03 0.  0.
</event>
<event>
 5    0  0.5641283E-005  0.2470130E+03  0.7546771E-02  0.1115207E+00
         21   -1    0    0  502  501  0.00000000000E+00  0.00000000000E+00  0.85730610792E+03  0.85730610792E+03  0.00000000000E+00 0.  1.
         21   -1    0    0  501  502 -0.00000000000E+00 -0.00000000000E+00 -0.71171081163E+02  0.71171081163E+02  0.00000000000E+00 0.  1.
         25    1    1    2    0    0 -0.44705625699E+02 -0.77635778988E+02  0.41362000139E+03  0.44128495635E+03  0.12500000000E+03 0.  0.
         25    1    1    2    0    0 -0.53982476358E+02  0.56831876201E+01  0.13057930925E+03  0.18873887353E+03  0.12500000000E+03 0.  0.
         25    1    1    2    0    0  0.98688102057E+02  0.71952591367E+02  0.24193571612E+03  0.29845335921E+03  0.12500000000E+03 0.  0.
</event>
<event>
 5    0  0.5641283E-005  0.3492393E+03  0.7546771E-02  0.1062928E+00
         21   -1    0    0  502  501  0.00000000000E+00  0.00000000000E+00  0.81047123837E+03  0.81047123837E+03  0.00000000000E+00 0.  1.
         21   -1    0    0  501  502 -0.00000000000E+00 -0.00000000000E+00 -0.15049037830E+03  0.15049037830E+03  0.00000000000E+00 0.  1.
         25    1    1    2    0    0  0.49331774253E+02 -0.14889876637E+03  0.43165120036E+03  0.47597502597E+03  0.12500000000E+03 0.  0.
         25    1    1    2    0    0 -0.57044856033E+02 -0.83265537554E+02  0.57153225808E+02  0.17052494411E+03  0.12500000000E+03 0.  0.
         25    1    1    2    0    0  0.77130817798E+01  0.23216430392E+03  0.17117643390E+03  0.31446164658E+03  0.12500000000E+03 0.  0.
</event>
<event>
 5    0  0.5641283E-005  0.3728528E+03  0.7546771E-02  0.1053607E+00
         21   -1    0    0  502  501  0.00000000000E+00  0.00000000000E+00  0.28241776812E+03  0.28241776812E+03  0.00000000000E+00 0.  1.
         21   -1    0    0  501  502 -0.00000000000E+00 -0.00000000000E+00 -0.49224675571E+03  0.49224675571E+03  0.00000000000E+00 0.  1.
         25    1    1    2    0    0 -0.20519868296E+02  0.96085771025E+01  0.55126428097E+02  0.13848217511E+03  0.12500000000E+03 0.  0.
         25    1    1    2    0    0  0.13927351281E+03  0.10996384053E+03  0.80910543424E+02  0.23164773608E+03  0.12500000000E+03 0.  0.
         25    1    1    2    0    0 -0.11875364452E+03 -0.11957241763E+03 -0.34586595911E+03  0.40453461263E+03  0.12500000000E+03 0.  0.
</event>
<event>
 5    0  0.7681634E-005  0.4989291E+03  0.7546771E-02  0.1014059E+00
         21   -1    0    0  502  501  0.00000000000E+00  0.00000000000E+00  0.94667889646E+03  0.94667889646E+03  0.00000000000E+00 0.  1.
         21   -1    0    0  501  502 -0.00000000000E+00 -0.00000000000E+00 -0.26295104838E+03  0.26295104838E+03  0.00000000000E+00 0.  1.
         25    1    1    2    0    0 -0.20677135574E+03  0.18579218006E+03  0.27678158556E+02  0.30604608833E+03  0.12500000000E+03 0.  0.
         25    1    1    2    0    0 -0.10223564403E+03 -0.13450249690E+03  0.47811917964E+03  0.52227004368E+03  0.12500000000E+03 0.  0.
         25    1    1    2    0    0  0.30900699977E+03 -0.51289683161E+02  0.17793050988E+03  0.38131381282E+03  0.12500000000E+03 0.  0.
</event>
<event>
 5    0  0.5641283E-005  0.2490126E+03  0.7546771E-02  0.1113930E+00
         21   -1    0    0  502  501  0.00000000000E+00  0.00000000000E+00  0.25120303878E+04  0.25120303878E+04  0.00000000000E+00 0. -1.
         21   -1    0    0  501  502 -0.00000000000E+00 -0.00000000000E+00 -0.24684134372E+02  0.24684134372E+02  0.00000000000E+00 0. -1.
         25    1    1    2    0    0 -0.51318326975E+01  0.39627262654E+02  0.59433014629E+03  0.60864602064E+03  0.12500000000E+03 0.  0.
         25    1    1    2    0    0 -0.12684919556E+03 -0.12289805297E+02  0.79731551764E+03  0.81705495066E+03  0.12500000000E+03 0.  0.
         25    1    1    2    0    0  0.13198102825E+03 -0.27337457357E+02  0.10957005895E+04  0.11110135509E+04  0.12500000000E+03 0.  0.
</event>
<event>
 5    0  0.5641283E-005  0.4808030E+03  0.7546771E-02  0.1018915E+00
         21   -1    0    0  502  501  0.00000000000E+00  0.00000000000E+00  0.41228214669E+03  0.41228214669E+03  0.00000000000E+00 0. -1.
         21   -1    0    0  501  502 -0.00000000000E+00 -0.00000000000E+00 -0.56071193671E+03  0.56071193671E+03  0.00000000000E+00 0. -1.
         25    1    1    2    0    0  0.27424699571E+03  0.72577830061E+02 -0.97152229570E+02  0.32487307026E+03  0.12500000000E+03 0.  0.
         25    1    1    2    0    0 -0.38730179576E+03  0.52718683914E+02  0.52758156853E+02  0.41375157250E+03  0.12500000000E+03 0.  0.
         25    1    1    2    0    0  0.11305480005E+03 -0.12529651397E+03 -0.10403571730E+03  0.23436944063E+03  0.12500000000E+03 0.  0.
</event>
<event>
 5    0  0.5641283E-005  0.3638000E+03  0.7546771E-02  0.1057089E+00
         21   -1    0    0  502  501  0.00000000000E+00  0.00000000000E+00  0.74516502025E+02  0.74516502025E+02  0.00000000000E+00 0. -1.
         21   -1    0    0  501  502 -0.00000000000E+00 -0.00000000000E+00 -0.17761223808E+04  0.17761223808E+04  0.00000000000E+00 0. -1.
         25    1    1    2    0    0  0.15918967506E+03 -0.10017382040E+03 -0.53029653819E+03  0.57638144085E+03  0.12500000000E+03 0.  0.
         25    1    1    2    0    0 -0.23310646749E+03  0.49600968283E+02 -0.36539205569E+03  0.45380087660E+03  0.12500000000E+03 0.  0.
         25    1    1    2    0    0  0.73916792429E+02  0.50572852118E+02 -0.80591728490E+03  0.82045656538E+03  0.12500000000E+03 0.  0.
</event>
<event>
 5    0  0.5641283E-005  0.2657538E+03  0.7546771E-02  0.1103735E+00
         21   -1    0    0  502  501  0.00000000000E+00  0.00000000000E+00  0.46181501804E+02  0.46181501804E+02  0.00000000000E+00 0. -1.
         21   -1    0    0  501  502 -0.00000000000E+00 -0.00000000000E+00 -0.15292937139E+04  0.15292937139E+04  0.00000000000E+00 0. -1.
         25    1    1    2    0    0 -0.37516427968E+02 -0.18210514642E+01 -0.36477563002E+03  0.38742361680E+03  0.12500000000E+03 0.  0.
         25    1    1    2    0    0  0.11505852298E+03  0.12014841398E+03 -0.67062743454E+03  0.70216825694E+03  0.12500000000E+03 0.  0.
         25    1    1    2    0    0 -0.77542095009E+02 -0.11832736252E+03 -0.44770914756E+03  0.48588334199E+03  0.12500000000E+03 0.  0.
</event>
<event>
 5    0  0.5641283E-005  0.5100201E+03  0.7546771E-02  0.1011196E+00
         21   -1    0    0  502  501  0.00000000000E+00  0.00000000000E+00  0.35684985517E+03  0.35684985517E+03  0.00000000000E+00 0.  1.
         21   -1    0    0  501  502 -0.00000000000E+00 -0.00000000000E+00 -0.72893546172E+03  0.72893546172E+03  0.00000000000E+00 0.  1.
         25    1    1    2    0    0  0.33633872079E+03  0.59106061339E+02 -0.12191242451E+03  0.38354256718E+03  0.12500000000E+03 0.  0.
         25    1    1    2    0    0  0.73251314134E+02 -0.95066996535E+02 -0.20756086686E+03  0.27038861349E+03  0.12500000000E+03 0.  0.
         25    1    1    2    0    0 -0.40959003493E+03  0.35960935196E+02 -0.42612315187E+02  0.43185413623E+03  0.12500000000E+03 0.  0.
</event>
<event>
 5    0  0.5641283E-005  0.3267129E+03  0.7546771E-02  0.1072601E+00
         21   -1    0    0  502  501  0.00000000000E+00  0.00000000000E+00  0.20425041611E+03  0.20425041611E+03  0.00000000000E+00 0.  1.
         21   -1    0    0  501  502 -0.00000000000E+00 -0.00000000000E+00 -0.52260035475E+03  0.52260035475E+03  0.00000000000E+00 0.  1.
         25    1    1    2    0    0  0.26379011159E+02 -0.11088806710E+03 -0.28610913067E+03  0.33237847449E+03  0.12500000000E+03 0.  0.
         25    1    1    2    0    0 -0.15030451896E+02 -0.26318089281E+02  0.10280084928E+03  0.16465591675E+03  0.12500000000E+03 0.  0.
         25    1    1    2    0    0 -0.11348559264E+02  0.13720615638E+03 -0.13504165725E+03  0.22981637961E+03  0.12500000000E+03 0.  0.
</event>
<event>
 5    0  0.5641283E-005  0.2683810E+03  0.7546771E-02  0.1102210E+00
         21   -1    0    0  502  501  0.00000000000E+00  0.00000000000E+00  0.13377536068E+03  0.13377536068E+03  0.00000000000E+00 0. -1.
         21   -1    0    0  501  502 -0.00000000000E+00 -0.00000000000E+00 -0.53842761640E+03  0.53842761640E+03  0.00000000000E+00 0. -1.
         25    1    1    2    0    0  0.75918343838E+02  0.18362923140E+02 -0.19495813053E+03  0.24440635126E+03  0.12500000000E+03 0.  0.
         25    1    1    2    0    0 -0.13428402669E+03  0.76849178917E+02 -0.15266992951E+03  0.25074110852E+03  0.12500000000E+03 0.  0.
         25    1    1    2    0    0  0.58365682848E+02 -0.95212102057E+02 -0.57024195676E+02  0.17705551730E+03  0.12500000000E+03 0.  0.
</event>
<event>
 5    0  0.5641283E-005  0.4262647E+03  0.7546771E-02  0.1035046E+00
         21   -1    0    0  502  501  0.00000000000E+00  0.00000000000E+00  0.44183853094E+03  0.44183853094E+03  0.00000000000E+00 0. -1.
         21   -1    0    0  501  502 -0.00000000000E+00 -0.00000000000E+00 -0.41123972262E+03  0.41123972262E+03  0.00000000000E+00 0. -1.
         25    1    1    2    0    0  0.15796919050E+03 -0.97033547882E+02  0.19434108577E+03  0.29624859861E+03  0.12500000000E+03 0.  0.
         25    1    1    2    0    0 -0.26877619084E+01  0.20795228366E+03  0.45968512289E+02  0.24696048361E+03  0.12500000000E+03 0.  0.
         25    1    1    2    0    0 -0.15528142859E+03 -0.11091873578E+03 -0.20971078974E+03  0.30986917133E+03  0.12500000000E+03 0.  0.
</event>
<event>
 5    0  0.5641283E-005  0.3122599E+03  0.7546771E-02  0.1079268E+00
         21   -1    0    0  502  501  0.00000000000E+00  0.00000000000E+00  0.16727053787E+03  0.16727053787E+03  0.00000000000E+00 0. -1.
         21   -1    0    0  501  502 -0.00000000000E+00 -0.00000000000E+00 -0.58292558466E+03  0.58292558466E+03  0.00000000000E+00 0. -1.
         25    1    1    2    0    0  0.42139178717E+02  0.11233396985E+03 -0.29469256223E+02  0.17575001630E+03  0.12500000000E+03 0.  0.
         25    1    1    2    0    0 -0.46828864972E+02 -0.15104451167E+02 -0.39354767653E+03  0.41584355320E+03  0.12500000000E+03 0.  0.
         25    1    1    2    0    0  0.46896862546E+01 -0.97229518687E+02  0.73618859621E+01  0.15860255303E+03  0.12500000000E+03 0.  0.
</event>
<event>
 5    0  0.5641283E-005  0.2716888E+03  0.7546771E-02  0.1100317E+00
         21   -1    0    0  502  501  0.00000000000E+00  0.00000000000E+00  0.83444440864E+02  0.83444440864E+02  0.00000000000E+00 0. -1.
         21   -1    0    0  501  502 -0.00000000000E+00 -0.00000000000E+00 -0.88459823395E+03  0.88459823395E+03  0.00000000000E+00 0. -1.
         25    1    1    2    0    0  0.14475974386E+03 -0.29284118490E+02 -0.47277663837E+03  0.51083822569E+03  0.12500000000E+03 0.  0.
         25    1    1    2    0    0 -0.99456843864E+02 -0.44070373315E+02 -0.18499079347E+03  0.24835550178E+03  0.12500000000E+03 0.  0.
         25    1    1    2    0    0 -0.45302899996E+02  0.73354491805E+02 -0.14338636125E+03  0.20884894735E+03  0.12500000000E+03 0.  0.
</event>
<event>
 5    0  0.5641283E-005  0.3223204E+03  0.7546771E-02  0.1074586E+00
         21   -1    0    0  502  501  0.00000000000E+00  0.00000000000E+00  0.30887814025E+04  0.30887814025E+04  0.00000000000E+00 0. -1.
         21   -1    0    0  501  502 -0.00000000000E+00 -0.00000000000E+00 -0.33634771489E+02  0.33634771489E+02  0.00000000000E+00 0. -1.
         25    1    1    2    0    0  0.63242671112E+02 -0.12182583792E+03  0.44584697953E+03  0.48295517327E+03  0.12500000000E+03 0.  0.
         25    1    1    2    0    0 -0.15757961846E+03  0.24569256885E+02  0.10564580540E+04  0.10757153919E+04  0.12500000000E+03 0.  0.
         25    1    1    2    0    0  0.94336947348E+02  0.97256581034E+02  0.15528415975E+04  0.15637456088E+04  0.12500000000E+03 0.  0.
</event>
<event>
 5    0  0.5641283E-005  0.2909531E+03  0.7546771E-02  0.1089853E+00
         21   -1    0    0  502  501  0.00000000000E+00  0.00000000000E+00  0.13911691887E+04  0.13911691887E+04  0.00000000000E+00 0.  1.
         21   -1    0    0  501  502 -0.00000000000E+00 -0.00000000000E+00 -0.60850753104E+02  0.60850753104E+02  0.00000000000E+00 0.  1.
         25    1    1    2    0    0  0.49829816277E+01  0.28977454611E+02  0.10342088566E+03  0.16487996413E+03  0.12500000000E+03 0.  0.
         25    1    1    2    0    0  0.79791661638E+02 -0.58899004666E+02  0.10017537543E+04  0.10143822683E+04  0.12500000000E+03 0.  0.
         25    1    1    2    0    0 -0.84774643266E+02  0.29921550055E+02  0.22514379563E+03  0.27275770935E+03  0.12500000000E+03 0.  0.
</event>
<event>
 5    0  0.5641283E-005  0.3639198E+03  0.7546771E-02  0.1057042E+00
         21   -1    0    0  502  501  0.00000000000E+00  0.00000000000E+00  0.10265069284E+03  0.10265069284E+03  0.00000000000E+00 0.  1.
         21   -1    0    0  501  502 -0.00000000000E+00 -0.00000000000E+00 -0.12901779060E+04  0.12901779060E+04  0.00000000000E+00 0.  1.
         25    1    1    2    0    0  0.18404885213E+03  0.12306489966E+03 -0.40384012036E+03  0.47721147546E+03  0.12500000000E+03 0.  0.
         25    1    1    2    0    0 -0.24818077690E+03 -0.16279313990E+03 -0.47169880942E+03  0.57115678340E+03  0.12500000000E+03 0.  0.
         25    1    1    2    0    0  0.64131924771E+02  0.39728240241E+02 -0.31198828333E+03  0.34446033993E+03  0.12500000000E+03 0.  0.
</event>
<event>
 5    0  0.5641283E-005  0.3219697E+03  0.7546771E-02  0.1074746E+00
         21   -1    0    0  502  501  0.00000000000E+00  0.00000000000E+00  0.54011923295E+02  0.54011923295E+02  0.00000000000E+00 0. -1.
         21   -1    0    0  501  502 -0.00000000000E+00 -0.00000000000E+00 -0.19192892782E+04  0.19192892782E+04  0.00000000000E+00 0. -1.
         25    1    1    2    0    0 -0.82539742191E+02 -0.81875519220E+02 -0.93399126194E+03  0.94946357859E+03  0.12500000000E+03 0.  0.
         25    1    1    2    0    0  0.15895785050E+03  0.49052741993E+02 -0.24555945968E+03  0.32186677053E+03  0.12500000000E+03 0.  0.
         25    1    1    2    0    0 -0.76418108314E+02  0.32822777227E+02 -0.68572663325E+03  0.70197085234E+03  0.12500000000E+03 0.  0.
</event>
<event>
 5    0  0.5641283E-005  0.2938960E+03  0.7546771E-02  0.1088332E+00
         21   -1    0    0  502  501  0.00000000000E+00  0.00000000000E+00  0.16433137658E+03  0.16433137658E+03  0.00000000000E+00 0. -1.
         21   -1    0    0  501  502 -0.00000000000E+00 -0.00000000000E+00 -0.52561405241E+03  0.52561405241E+03  0.00000000000E+00 0. -1.
         25    1    1    2    0    0 -0.85917331707E+02 -0.10585977934E+03 -0.75469439503E+02  0.19977166233E+03  0.12500000000E+03 0.  0.
         25    1    1    2    0    0  0.32981314381E+02  0.17646945605E+03 -0.78300196345E+02  0.23234706102E+03  0.12500000000E+03 0.  0.
         25    1    1    2    0    0  0.52936017326E+02 -0.70609676710E+02 -0.20751303999E+03  0.25782670564E+03  0.12500000000E+03 0.  0.
</event>
<event>
 5    0  0.5641283E-005  0.2338109E+03  0.7546771E-02  0.1123986E+00
         21   -1    0    0  502  501  0.00000000000E+00  0.00000000000E+00  0.31348187077E+03  0.31348187077E+03  0.00000000000E+00 0.  1.
         21   -1    0    0  501  502 -0.00000000000E+00 -0.00000000000E+00 -0.17438814687E+03  0.17438814687E+03  0.00000000000E+00 0.  1.
         25    1    1    2    0    0 -0.22644343146E+02  0.72738461984E+02  0.39289851621E+01  0.14643799730E+03  0.12500000000E+03 0.  0.
         25    1    1    2    0    0  0.21132360019E+02  0.34812380044E+02  0.53770482565E+01  0.13157655981E+03  0.12500000000E+03 0.  0.
         25    1    1    2    0    0  0.15119831267E+01 -0.10755084203E+03  0.12978769048E+03  0.20985546053E+03  0.12500000000E+03 0.  0.
</event>
<event>
 5    0  0.6372027E-005  0.3582325E+03  0.7546771E-02  0.1059286E+00
         21   -1    0    0  502  501  0.00000000000E+00  0.00000000000E+00  0.81965381163E+03  0.81965381163E+03  0.00000000000E+00 0. -1.
         21   -1    0    0  501  502 -0.00000000000E+00 -0.00000000000E+00 -0.15656669718E+03  0.15656669718E+03  0.00000000000E+00 0. -1.
         25    1    1    2    0    0  0.12362409903E+03 -0.16489840665E+02  0.42470968218E+03  0.45995450519E+03  0.12500000000E+03 0.  0.
         25    1    1    2    0    0 -0.20687649562E+03 -0.69820613339E+01  0.26846202214E+03  0.36130802780E+03  0.12500000000E+03 0.  0.
         25    1    1    2    0    0  0.83252396587E+02  0.23471901999E+02 -0.30084589879E+02  0.15495797582E+03  0.12500000000E+03 0.  0.
</event>
<event>
 5    0  0.5641283E-005  0.2355689E+03  0.7546771E-02  0.1122780E+00
         21   -1    0    0  502  501  0.00000000000E+00  0.00000000000E+00  0.12234352822E+03  0.12234352822E+03  0.00000000000E+00 0.  1.
         21   -1    0    0  501  502 -0.00000000000E+00 -0.00000000000E+00 -0.45358109414E+03  0.45358109414E+03  0.00000000000E+00 0.  1.
         25    1    1    2    0    0  0.52694518106E+02  0.38160904565E+02 -0.24095403445E+03  0.27913583359E+03  0.12500000000E+03 0.  0.
         25    1    1    2    0    0 -0.20541295936E+02  0.27986629895E+02 -0.77680731312E+02  0.15121009328E+03  0.12500000000E+03 0.  0.
         25    1    1    2    0    0 -0.32153222170E+02 -0.66147534460E+02 -0.12602800157E+02  0.14557869550E+03  0.12500000000E+03 0.  0.
</event>
<event>
 5    0  0.5641283E-005  0.2934453E+03  0.7546771E-02  0.1088564E+00
         21   -1    0    0  502  501  0.00000000000E+00  0.00000000000E+00  0.81053797256E+02  0.81053797256E+02  0.00000000000E+00 0. -1.
         21   -1    0    0  501  502 -0.00000000000E+00 -0.00000000000E+00 -0.10623826131E+04  0.10623826131E+04  0.00000000000E+00 0. -1.
         25    1    1    2    0    0 -0.96753217433E+02 -0.42792651397E+02 -0.24578873822E+03  0.29534640667E+03  0.12500000000E+03 0.  0.
         25    1    1    2    0    0  0.12475500793E+03  0.16736116190E+03 -0.41132186424E+03  0.47789564396E+03  0.12500000000E+03 0.  0.
         25    1    1    2    0    0 -0.28001790501E+02 -0.12456851051E+03 -0.32421821341E+03  0.37019435975E+03  0.12500000000E+03 0.  0.
</event>
<event>
 5    0  0.5641283E-005  0.3330862E+03  0.7546771E-02  0.1069779E+00
         21   -1    0    0  502  501  0.00000000000E+00  0.00000000000E+00  0.10351628920E+03  0.10351628920E+03  0.00000000000E+00 0.  1.
         21   -1    0    0  501  502 -0.00000000000E+00 -0.00000000000E+00 -0.10717772785E+04  0.10717772785E+04  0.00000000000E+00 0.  1.
         25    1    1    2    0    0  0.30623916732E+02 -0.20225613560E+03 -0.52119366255E+03  0.57368388729E+03  0.12500000000E+03 0.  0.
         25    1    1    2    0    0 -0.10400497272E+03  0.18651952001E+03 -0.21639137204E+03  0.32871992880E+03  0.12500000000E+03 0.  0.
         25    1    1    2    0    0  0.73381055987E+02  0.15736615590E+02 -0.23067595469E+03  0.27288975159E+03  0.12500000000E+03 0.  0.
</event>
<event>
 5    0  0.5641283E-005  0.2891547E+03  0.7546771E-02  0.1090791E+00
         21   -1    0    0  502  501  0.00000000000E+00  0.00000000000E+00  0.77083869990E+03  0.77083869990E+03  0.00000000000E+00 0.  1.
         21   -1    0    0  501  502 -0.00000000000E+00 -0.00000000000E+00 -0.10846686612E+03  0.10846686612E+03  0.00000000000E+00 0.  1.
         25    1    1    2    0    0  0.77757979327E+02  0.89948984857E+02  0.87345709485E+02  0.19336855016E+03  0.12500000000E+03 0.  0.
         25    1    1    2    0    0 -0.66293423122E+02 -0.59799629355E+02  0.77726525032E+02  0.17215465812E+03  0.12500000000E+03 0.  0.
         25    1    1    2    0    0 -0.11464556205E+02 -0.30149355502E+02  0.49729959927E+03  0.51378235773E+03  0.12500000000E+03 0.  0.
</event>
<event>
 5    0  0.5641283E-005  0.4760998E+03  0.7546771E-02  0.1020213E+00
         21   -1    0    0  502  501  0.00000000000E+00  0.00000000000E+00  0.10501132076E+04  0.10501132076E+04  0.00000000000E+00 0.  1.
         21   -1    0    0  501  502 -0.00000000000E+00 -0.00000000000E+00 -0.21585390058E+03  0.21585390058E+03  0.00000000000E+00 0.  1.
         25    1    1    2    0    0 -0.19696190799E+03 -0.24826906016E+02  0.55538829447E+03  0.60290258425E+03  0.12500000000E+03 0.  0.
         25    1    1    2    0    0  0.35662333816E+03  0.40265537821E+02  0.25645986939E+03  0.45847375439E+03  0.12500000000E+03 0.  0.
         25    1    1    2    0    0 -0.15966143017E+03 -0.15438631805E+02  0.22411143133E+02  0.20459076952E+03  0.12500000000E+03 0.  0.
</event>
<event>
 5    0  0.5641283E-005  0.3761823E+03  0.7546771E-02  0.1052354E+00
         21   -1    0    0  502  501  0.00000000000E+00  0.00000000000E+00  0.86479906069E+03  0.86479906069E+03  0.00000000000E+00 0. -1.
         21   -1    0    0  501  502 -0.00000000000E+00 -0.00000000000E+00 -0.16363698258E+03  0.16363698258E+03  0.00000000000E+00 0. -1.
         25    1    1    2    0    0 -0.72145283207E+02 -0.10673449278E+03 -0.67203774389E+02  0.19167300574E+03  0.12500000000E+03 0.  0.
         25    1    1    2    0    0 -0.36797373761E+02  0.84086596321E+02  0.46664001963E+03  0.49173418665E+03  0.12500000000E+03 0.  0.
         25    1    1    2    0    0  0.10894265697E+03  0.22647896459E+02  0.30172583287E+03  0.34502885088E+03  0.12500000000E+03 0.  0.
</event>
<event>
 5    0  0.5641283E-005  0.2778272E+03  0.7546771E-02  0.1096882E+00
         21   -1    0    0  502  501  0.00000000000E+00  0.00000000000E+00  0.10161633600E+03  0.10161633600E+03  0.00000000000E+00 0. -1.
         21   -1    0    0  501  502 -0.00000000000E+00 -0.00000000000E+00 -0.75960200194E+03  0.75960200194E+03  0.00000000000E+00 0. -1.
         25    1    1    2    0    0  0.68103015211E+02 -0.45920106875E+02 -0.32530674215E+03  0.35804490415E+03  0.12500000000E+03 0.  0.
         25    1    1    2    0    0 -0.66648173312E+02  0.76587745859E+02 -0.33794330228E+03  0.37435055413E+03  0.12500000000E+03 0.  0.
         25    1    1    2    0    0 -0.14548418991E+01 -0.30667638985E+02  0.52643784860E+01  0.12882287967E+03  0.12500000000E+03 0.  0.
</event>
<event>
 5    0  0.5641283E-005  0.3054023E+03  0.7546771E-02  0.1082571E+00
         21   -1    0    0  502  501  0.00000000000E+00  0.00000000000E+00  0.47753611328E+03  0.47753611328E+03  0.00000000000E+00 0.  1.
         21   -1    0    0  501  502 -0.00000000000E+00 -0.00000000000E+00 -0.19531626915E+03  0.19531626915E+03  0.00000000000E+00 0.  1.
         25    1    1    2    0    0  0.65270558765E+02  0.29556453792E+02 -0.22659594814E+02  0.14585022125E+03  0.12500000000E+03 0.  0.
         25    1    1    2    0    0  0.86843585871E+02 -0.74268805133E+02  0.10035560864E+02  0.16965664238E+03  0.12500000000E+03 0.  0.
         25    1    1    2    0    0 -0.15211414464E+03  0.44712351341E+02  0.29484387808E+03  0.35734551879E+03  0.12500000000E+03 0.  0.
</event>
<event>
 5    0  0.5641283E-005  0.3979089E+03  0.7546771E-02  0.1044506E+00
         21   -1    0    0  502  501  0.00000000000E+00  0.00000000000E+00  0.57369356889E+03  0.57369356889E+03  0.00000000000E+00 0. -1.
         21   -1    0    0  501  502 -0.00000000000E+00 -0.00000000000E+00 -0.27598623270E+03  0.27598623270E+03  0.00000000000E+00 0. -1.
         25    1    1    2    0    0  0.99216891520E+02  0.26630459977E+03  0.25325404444E+02  0.31149399277E+03  0.12500000000E+03 0.  0.
         25    1    1    2    0    0  0.50863054360E+02 -0.68676331357E+02  0.20036225430E+03  0.25114442405E+03  0.12500000000E+03 0.  0.
         25    1    1    2    0    0 -0.15007994588E+03 -0.19762826841E+03  0.72019677451E+02  0.28704138477E+03  0.12500000000E+03 0.  0.
</event>
<event>
 5    0  0.5641283E-005  0.4345083E+03  0.7546771E-02  0.1032445E+00
         21   -1    0    0  502  501  0.00000000000E+00  0.00000000000E+00  0.45418784724E+03  0.45418784724E+03  0.00000000000E+00 0. -1.
         21   -1    0    0  501  502 -0.00000000000E+00 -0.00000000000E+00 -0.41568151450E+03  0.41568151450E+03  0.00000000000E+00 0. -1.
         25    1    1    2    0    0  0.38593592052E+02  0.20654461827E+03  0.13877988601E+03  0.28113164433E+03  0.12500000000E+03 0.  0.
         25    1    1    2    0    0  0.17565162282E+03  0.46506340009E+01  0.62565295468E+02  0.22453181778E+03  0.12500000000E+03 0.  0.
         25    1    1    2    0    0 -0.21424521487E+03 -0.21119525227E+03 -0.16283884873E+03  0.36420589964E+03  0.12500000000E+03 0.  0.
</event>
<event>
 5    0  0.5641283E-005  0.2289997E+03  0.7546771E-02  0.1127346E+00
         21   -1    0    0  502  501  0.00000000000E+00  0.00000000000E+00  0.24055498396E+03  0.24055498396E+03  0.00000000000E+00 0. -1.
         21   -1    0    0  501  502 -0.00000000000E+00 -0.00000000000E+00 -0.21799950222E+03  0.21799950222E+03  0.00000000000E+00 0. -1.
         25    1    1    2    0    0  0.74556845449E+02  0.33995481082E+02 -0.42207146856E+02  0.15530891534E+03  0.12500000000E+03 0.  0.
         25    1    1    2    0    0  0.16308540106E+02 -0.59709849736E+02  0.26523220447E+02  0.14198491419E+03  0.12500000000E+03 0.  0.
         25    1    1    2    0    0 -0.90865385554E+02  0.25714368654E+02  0.38239408148E+02  0.16126065665E+03  0.12500000000E+03 0.  0.
</event>
<event>
 5    0  0.5641283E-005  0.2902536E+03  0.7546771E-02  0.1090217E+00
         21   -1    0    0  502  501  0.00000000000E+00  0.00000000000E+00  0.26614439110E+03  0.26614439110E+03  0.00000000000E+00 0. -1.
         21   -1    0    0  501  502 -0.00000000000E+00 -0.00000000000E+00 -0.31654677117E+03  0.31654677117E+03  0.00000000000E+00 0. -1.
         25    1    1    2    0    0  0.72250144374E+02 -0.98809049112E+02 -0.30911279806E+02  0.17766209153E+03  0.12500000000E+03 0.  0.
         25    1    1    2    0    0 -0.69262519323E+02 -0.23143054657E+02  0.11475815890E+03  0.18473584545E+03  0.12500000000E+03 0.  0.
         25    1    1    2    0    0 -0.29876250506E+01  0.12195210377E+03 -0.13424925916E+03  0.22029322528E+03  0.12500000000E+03 0.  0.
</event>
<event>
 5    0  0.5641283E-005  0.3773759E+03  0.7546771E-02  0.1051908E+00
         21   -1    0    0  502  501  0.00000000000E+00  0.00000000000E+00  0.16131269312E+04  0.16131269312E+04  0.00000000000E+00 0. -1.
         21   -1    0    0  501  502 -0.00000000000E+00 -0.00000000000E+00 -0.88283550288E+02  0.88283550288E+02  0.00000000000E+00 0. -1.
         25    1    1    2    0    0 -0.41463213834E+02 -0.24503149565E+03  0.42071270318E+03  0.50436475945E+03  0.12500000000E+03 0.  0.
         25    1    1    2    0    0 -0.12888262103E+03  0.97547180620E+02  0.51310295445E+03  0.55229143060E+03  0.12500000000E+03 0.  0.
         25    1    1    2    0    0  0.17034583486E+03  0.14748431503E+03  0.59102772324E+03  0.64475429139E+03  0.12500000000E+03 0.  0.
</event>
<event>
 5    0  0.5641283E-005  0.2436207E+03  0.7546771E-02  0.1117404E+00
         21   -1    0    0  502  501  0.00000000000E+00  0.00000000000E+00  0.20241188323E+03  0.20241188323E+03  0.00000000000E+00 0. -1.
         21   -1    0    0  501  502 -0.00000000000E+00 -0.00000000000E+00 -0.29321915600E+03  0.29321915600E+03  0.00000000000E+00 0. -1.
         25    1    1    2    0    0  0.74603616185E+02  0.10208071317E+03 -0.50985285459E+02  0.18496126860E+03  0.12500000000E+03 0.  0.
         25    1    1    2    0    0 -0.53442684075E+01 -0.16315755864E+02  0.30448806403E+02  0.12979558893E+03  0.12500000000E+03 0.  0.
         25    1    1    2    0    0 -0.69259347778E+02 -0.85764957301E+02 -0.70270793718E+02  0.18087418170E+03  0.12500000000E+03 0.  0.
</event>
<event>
 5    0  0.6388612E-005  0.3845868E+03  0.7546771E-02  0.1049251E+00
         21   -1    0    0  502  501  0.00000000000E+00  0.00000000000E+00  0.44690568296E+03  0.44690568296E+03  0.00000000000E+00 0. -1.
         21   -1    0    0  501  502 -0.00000000000E+00 -0.00000000000E+00 -0.33095800035E+03  0.33095800035E+03  0.00000000000E+00 0. -1.
         25    1    1    2    0    0 -0.13910385319E+02 -0.96921186953E+01 -0.16508342168E+03  0.20776181578E+03  0.12500000000E+03 0.  0.
         25    1    1    2    0    0 -0.20388643530E+03 -0.29640311130E+02  0.15353577876E+03  0.28573845016E+03  0.12500000000E+03 0.  0.
         25    1    1    2    0    0  0.21779682062E+03  0.39332429825E+02  0.12749532552E+03  0.28436341737E+03  0.12500000000E+03 0.  0.
</event>
<event>
 5    0  0.5641283E-005  0.6753883E+03  0.7546771E-02  0.9760272E-01
         21   -1    0    0  502  501  0.00000000000E+00  0.00000000000E+00  0.11863760262E+04  0.11863760262E+04  0.00000000000E+00 0. -1.
         21   -1    0    0  501  502 -0.00000000000E+00 -0.00000000000E+00 -0.38448973607E+03  0.38448973607E+03  0.00000000000E+00 0. -1.
         25    1    1    2    0    0  0.50200312449E+02 -0.52900446245E+03  0.51664799871E+03  0.75160890578E+03  0.12500000000E+03 0.  0.
         25    1    1    2    0    0 -0.27097706510E+03  0.24154906895E+03  0.15980235063E+03  0.41585612150E+03  0.12500000000E+03 0.  0.
         25    1    1    2    0    0  0.22077675265E+03  0.28745539350E+03  0.12543594080E+03  0.40340073501E+03  0.12500000000E+03 0.  0.
</event>
<event>
 5    0  0.5641283E-005  0.2765680E+03  0.7546771E-02  0.1097578E+00
         21   -1    0    0  502  501  0.00000000000E+00  0.00000000000E+00  0.65895669147E+02  0.65895669147E+02  0.00000000000E+00 0. -1.
         21   -1    0    0  501  502 -0.00000000000E+00 -0.00000000000E+00 -0.11607720049E+04  0.11607720049E+04  0.00000000000E+00 0. -1.
         25    1    1    2    0    0  0.44025811419E+00  0.15203933230E+03 -0.35026156823E+03  0.40177645349E+03  0.12500000000E+03 0.  0.
         25    1    1    2    0    0 -0.16007149295E+01 -0.10742341620E+03 -0.62448769013E+03  0.64587322886E+03  0.12500000000E+03 0.  0.
         25    1    1    2    0    0  0.11604568153E+01 -0.44615916096E+02 -0.12012707738E+03  0.17901799169E+03  0.12500000000E+03 0.  0.
</event>
<event>
 5    0  0.5641283E-005  0.3199524E+03  0.7546771E-02  0.1075671E+00
         21   -1    0    0  502  501  0.00000000000E+00  0.00000000000E+00  0.71958197854E+03  0.71958197854E+03  0.00000000000E+00 0.  1.
         21   -1    0    0  501  502 -0.00000000000E+00 -0.00000000000E+00 -0.14226252491E+03  0.14226252491E+03  0.00000000000E+00 0.  1.
         25    1    1    2    0    0  0.52510838517E+02  0.19429633963E+03  0.33458615353E+03  0.40997725534E+03  0.12500000000E+03 0.  0.
         25    1    1    2    0    0  0.72233506935E+02 -0.49701153218E+02  0.10465978025E+03  0.18511227338E+03  0.12500000000E+03 0.  0.
         25    1    1    2    0    0 -0.12474434545E+03 -0.14459518641E+03  0.13807351985E+03  0.26675497472E+03  0.12500000000E+03 0.  0.
</event>
<event>
 5    0  0.5641283E-005  0.2570439E+03  0.7546771E-02  0.1108932E+00
         21   -1    0    0  502  501  0.00000000000E+00  0.00000000000E+00  0.20228347824E+03  0.20228347824E+03  0.00000000000E+00 0. -1.
         21   -1    0    0  501  502 -0.00000000000E+00 -0.00000000000E+00 -0.32662852192E+03  0.32662852192E+03  0.00000000000E+00 0. -1.
         25    1    1    2    0    0 -0.60473348227E+02  0.95209357792E+02 -0.12240529119E+03  0.20815836031E+03  0.12500000000E+03 0.  0.
         25    1    1    2    0    0 -0.52640559780E+02 -0.28628801425E+02 -0.12568263595E+02  0.13918907304E+03  0.12500000000E+03 0.  0.
         25    1    1    2    0    0  0.11311390801E+03 -0.66580556367E+02  0.10628511103E+02  0.18156456680E+03  0.12500000000E+03 0.  0.
</event>
<event>
 5    0  0.5641283E-005  0.3757597E+03  0.7546771E-02  0.1052512E+00
         21   -1    0    0  502  501  0.00000000000E+00  0.00000000000E+00  0.48291581435E+03  0.48291581435E+03  0.00000000000E+00 0. -1.
         21   -1    0    0  501  502 -0.00000000000E+00 -0.00000000000E+00 -0.29238084160E+03  0.29238084160E+03  0.00000000000E+00 0. -1.
         25    1    1    2    0    0 -0.14433725054E+03  0.10687440481E+03  0.10087382638E+03  0.24094793866E+03  0.12500000000E+03 0.  0.
         25    1    1    2    0    0  0.20947605281E+02 -0.21934978068E+03  0.17615280406E+03  0.30855783709E+03  0.12500000000E+03 0.  0.
         25    1    1    2    0    0  0.12338964526E+03  0.11247537588E+03 -0.86491657678E+02  0.22579088020E+03  0.12500000000E+03 0.  0.
</event>
<event>
 5    0  0.5641283E-005  0.2636854E+03  0.7546771E-02  0.1104949E+00
         21   -1    0    0  502  501  0.00000000000E+00  0.00000000000E+00  0.39722013918E+03  0.39722013918E+03  0.00000000000E+00 0.  1.
         21   -1    0    0  501  502 -0.00000000000E+00 -0.00000000000E+00 -0.17504151885E+03  0.17504151885E+03  0.00000000000E+00 0.  1.
         25    1    1    2    0    0 -0.86565129155E+01 -0.80080761337E+02  0.62166357726E+02  0.16117543108E+03  0.12500000000E+03 0.  0.
         25    1    1    2    0    0 -0.62497915270E+02 -0.43385607353E+02 -0.22374289606E+02  0.14803347315E+03  0.12500000000E+03 0.  0.
         25    1    1    2    0    0  0.71154428185E+02  0.12346636869E+03  0.18238655221E+03  0.26305275379E+03  0.12500000000E+03 0.  0.
</event>
<event>
 5    0  0.5641283E-005  0.2272084E+03  0.7546771E-02  0.1128620E+00
         21   -1    0    0  502  501  0.00000000000E+00  0.00000000000E+00  0.28705903067E+03  0.28705903067E+03  0.00000000000E+00 0.  1.
         21   -1    0    0  501  502 -0.00000000000E+00 -0.00000000000E+00 -0.17983636589E+03  0.17983636589E+03  0.00000000000E+00 0.  1.
         25    1    1    2    0    0 -0.53453477390E+02 -0.40949781938E+02  0.21038637452E+02  0.14353321271E+03  0.12500000000E+03 0.  0.
         25    1    1    2    0    0  0.63601073664E+02  0.67484273375E+02 -0.19982501791E+02  0.15691884559E+03  0.12500000000E+03 0.  0.
         25    1    1    2    0    0 -0.10147596274E+02 -0.26534491437E+02  0.10616652912E+03  0.16644333826E+03  0.12500000000E+03 0.  0.
</event>
<event>
 5    0  0.5641283E-005  0.4928169E+03  0.7546771E-02  0.1015671E+00
         21   -1    0    0  502  501  0.00000000000E+00  0.00000000000E+00  0.30688529373E+03  0.30688529373E+03  0.00000000000E+00 0. -1.
         21   -1    0    0  501  502 -0.00000000000E+00 -0.00000000000E+00 -0.79139818336E+03  0.79139818336E+03  0.00000000000E+00 0. -1.
         25    1    1    2    0    0  0.22914411485E+03 -0.12517178623E+02 -0.19235835054E+03  0.32448488432E+03  0.12500000000E+03 0.  0.
         25    1    1    2    0    0 -0.36946181397E+03  0.20869073805E+03 -0.14931712168E+03  0.46687734894E+03  0.12500000000E+03 0.  0.
         25    1    1    2    0    0  0.14031769912E+03 -0.19617355942E+03 -0.14283741740E+03  0.30692124383E+03  0.12500000000E+03 0.  0.
</event>
<event>
 5    0  0.5641283E-005  0.3979469E+03  0.7546771E-02  0.1044493E+00
         21   -1    0    0  502  501  0.00000000000E+00  0.00000000000E+00  0.35062470137E+03  0.35062470137E+03  0.00000000000E+00 0.  1.
         21   -1    0    0  501  502 -0.00000000000E+00 -0.00000000000E+00 -0.45165597710E+03  0.45165597710E+03  0.00000000000E+00 0.  1.
         25    1    1    2    0    0 -0.19438444753E+03 -0.15148635621E+03  0.13257945955E+03  0.30648938424E+03  0.12500000000E+03 0.  0.
         25    1    1    2    0    0  0.23675623343E+03  0.59988112795E+02 -0.12231350648E+03  0.30039587482E+03  0.12500000000E+03 0.  0.
         25    1    1    2    0    0 -0.42371785901E+02  0.91498243411E+02 -0.11129722880E+03  0.19539541941E+03  0.12500000000E+03 0.  0.
</event>
<event>
 5    0  0.5641283E-005  0.2289685E+03  0.7546771E-02  0.1127368E+00
         21   -1    0    0  502  501  0.00000000000E+00  0.00000000000E+00  0.61067247565E+02  0.61067247565E+02  0.00000000000E+00 0. -1.
         21   -1    0    0  501  502 -0.00000000000E+00 -0.00000000000E+00 -0.85850564523E+03  0.85850564523E+03  0.00000000000E+00 0. -1.
         25    1    1    2    0    0  0.70608007369E+02  0.19867500164E+02 -0.23113447148E+03  0.27281560104E+03  0.12500000000E+03 0.  0.
         25    1    1    2    0    0 -0.31710844336E+02 -0.18264116475E+02 -0.10519415665E+03  0.16742152249E+03  0.12500000000E+03 0.  0.
         25    1    1    2    0    0 -0.38897163033E+02 -0.16033836892E+01 -0.46110976954E+03  0.47933576926E+03  0.12500000000E+03 0.  0.
</event>
<event>
 5    0  0.5641283E-005  0.2805713E+03  0.7546771E-02  0.1095377E+00
         21   -1    0    0  502  501  0.00000000000E+00  0.00000000000E+00  0.54929134878E+03  0.54929134878E+03  0.00000000000E+00 0.  1.
         21   -1    0    0  501  502 -0.00000000000E+00 -0.00000000000E+00 -0.14331238635E+03  0.14331238635E+03  0.00000000000E+00 0.  1.
         25    1    1    2    0    0 -0.98361830358E+02 -0.53236108741E+02  0.32960500808E+03  0.36982914204E+03  0.12500000000E+03 0.  0.
         25    1    1    2    0    0  0.68743472374E+02 -0.26723523515E+02 -0.15164001035E+02  0.14592723745E+03  0.12500000000E+03 0.  0.
         25    1    1    2    0    0  0.29618357985E+02  0.79959632256E+02  0.91537955385E+02  0.17684735564E+03  0.12500000000E+03 0.  0.
</event>
<event>
 5    0  0.5641283E-005  0.3375621E+03  0.7546771E-02  0.1067839E+00
         21   -1    0    0  502  501  0.00000000000E+00  0.00000000000E+00  0.13992551465E+04  0.13992551465E+04  0.00000000000E+00 0.  1.
         21   -1    0    0  501  502 -0.00000000000E+00 -0.00000000000E+00 -0.81434876641E+02  0.81434876641E+02  0.00000000000E+00 0.  1.
         25    1    1    2    0    0 -0.22678891831E+03 -0.79933343039E+02  0.71449644665E+03  0.76416799532E+03  0.12500000000E+03 0.  0.
         25    1    1    2    0    0  0.15963230982E+03 -0.31123463959E+02  0.29275739648E+03  0.35746753355E+03  0.12500000000E+03 0.  0.
         25    1    1    2    0    0  0.67156608487E+02  0.11105680700E+03  0.31056642670E+03  0.35905449424E+03  0.12500000000E+03 0.  0.
</event>
<event>
 5    0  0.5641283E-005  0.2733789E+03  0.7546771E-02  0.1099361E+00
         21   -1    0    0  502  501  0.00000000000E+00  0.00000000000E+00  0.16215831113E+03  0.16215831113E+03  0.00000000000E+00 0. -1.
         21   -1    0    0  501  502 -0.00000000000E+00 -0.00000000000E+00 -0.46088311692E+03  0.46088311692E+03  0.00000000000E+00 0. -1.
         25    1    1    2    0    0 -0.44802273089E+02  0.53327087321E+02  0.23939143521E+02  0.14508309519E+03  0.12500000000E+03 0.  0.
         25    1    1    2    0    0  0.98491389168E+01 -0.95744566627E+02 -0.30081056671E+03  0.33967046475E+03  0.12500000000E+03 0.  0.
         25    1    1    2    0    0  0.34953134172E+02  0.42417479306E+02 -0.21853382598E+02  0.13828786812E+03  0.12500000000E+03 0.  0.
</event>
<event>
 5    0  0.5641283E-005  0.3188889E+03  0.7546771E-02  0.1076162E+00
         21   -1    0    0  502  501  0.00000000000E+00  0.00000000000E+00  0.15345689582E+03  0.15345689582E+03  0.00000000000E+00 0. -1.
         21   -1    0    0  501  502 -0.00000000000E+00 -0.00000000000E+00 -0.66266238192E+03  0.66266238192E+03  0.00000000000E+00 0. -1.
         25    1    1    2    0    0  0.21441848106E+02  0.10085366531E+03 -0.32136834812E+03  0.35990808525E+03  0.12500000000E+03 0.  0.
         25    1    1    2    0    0  0.95307199334E+02 -0.16895829096E+03 -0.89749345892E+02  0.24760919090E+03  0.12500000000E+03 0.  0.
         25    1    1    2    0    0 -0.11674904744E+03  0.68104625647E+02 -0.98087792088E+02  0.20860200159E+03  0.12500000000E+03 0.  0.
</event>
<event>
 5    0  0.5641283E-005  0.7121858E+03  0.7546771E-02  0.9696617E-01
         21   -1    0    0  502  501  0.00000000000E+00  0.00000000000E+00  0.13949275544E+04  0.13949275544E+04  0.00000000000E+00 0.  1.
         21   -1    0    0  501  502 -0.00000000000E+00 -0.00000000000E+00 -0.36360927439E+03  0.36360927439E+03  0.00000000000E+00 0.  1.
         25    1    1    2    0    0 -0.41597386107E+03  0.35868598273E+03  0.72709711341E+03  0.91977448302E+03  0.12500000000E+03 0.  0.
         25    1    1    2    0    0  0.30921033465E+03 -0.43760940843E+03  0.34825624059E+03  0.65116851468E+03  0.12500000000E+03 0.  0.
         25    1    1    2    0    0  0.10676352642E+03  0.78923425698E+02 -0.44035074034E+02  0.18759383104E+03  0.12500000000E+03 0.  0.
</event>
<event>
 5    0  0.5641283E-005  0.2673474E+03  0.7546771E-02  0.1102807E+00
         21   -1    0    0  502  501  0.00000000000E+00  0.00000000000E+00  0.19458919241E+03  0.19458919241E+03  0.00000000000E+00 0.  1.
         21   -1    0    0  501  502 -0.00000000000E+00 -0.00000000000E+00 -0.36731026354E+03  0.36731026354E+03  0.00000000000E+00 0.  1.
         25    1    1    2    0    0  0.41890830913E+01  0.29766522758E+02 -0.26026203694E+03  0.29028420930E+03  0.12500000000E+03 0.  0.
         25    1    1    2    0    0 -0.16227894988E+02  0.67813660827E+01  0.46809247248E+02  0.13463074363E+03  0.12500000000E+03 0.  0.
         25    1    1    2    0    0  0.12038811897E+02 -0.36547888841E+02  0.40731718567E+02  0.13698450302E+03  0.12500000000E+03 0.  0.
</event>
<event>
 5    0  0.5641283E-005  0.2093050E+03  0.7546771E-02  0.1142118E+00
         21   -1    0    0  502  501  0.00000000000E+00  0.00000000000E+00  0.50358660580E+03  0.50358660580E+03  0.00000000000E+00 0. -1.
         21   -1    0    0  501  502 -0.00000000000E+00 -0.00000000000E+00 -0.86993174420E+02  0.86993174420E+02  0.00000000000E+00 0. -1.
         25    1    1    2    0    0  0.56117015539E+02 -0.39814928844E+02  0.11968470318E+03  0.18623580796E+03  0.12500000000E+03 0.  0.
         25    1    1    2    0    0 -0.21876796960E+02  0.12544459107E+02  0.21080370099E+03  0.24637199120E+03  0.12500000000E+03 0.  0.
         25    1    1    2    0    0 -0.34240218579E+02  0.27270469737E+02  0.86105027221E+02  0.15797198106E+03  0.12500000000E+03 0.  0.
</event>
<event>
 5    0  0.5641283E-005  0.4954551E+03  0.7546771E-02  0.1014972E+00
         21   -1    0    0  502  501  0.00000000000E+00  0.00000000000E+00  0.28057276700E+03  0.28057276700E+03  0.00000000000E+00 0. -1.
         21   -1    0    0  501  502 -0.00000000000E+00 -0.00000000000E+00 -0.87490926550E+03  0.87490926550E+03  0.00000000000E+00 0. -1.
         25    1    1    2    0    0  0.49249907354E+02 -0.20066032881E+03  0.33737612395E+02  0.24383057114E+03  0.12500000000E+03 0.  0.
         25    1    1    2    0    0  0.76429069529E+02 -0.80116854031E+02 -0.54410133704E+03  0.56914969730E+03  0.12500000000E+03 0.  0.
         25    1    1    2    0    0 -0.12567897688E+03  0.28077718285E+03 -0.83972773861E+02  0.34250176406E+03  0.12500000000E+03 0.  0.
</event>
<event>
 5    0  0.5641283E-005  0.2145420E+03  0.7546771E-02  0.1138019E+00
         21   -1    0    0  502  501  0.00000000000E+00  0.00000000000E+00  0.68809145870E+02  0.68809145870E+02  0.00000000000E+00 0.  1.
         21   -1    0    0  501  502 -0.00000000000E+00 -0.00000000000E+00 -0.66892652286E+03  0.66892652286E+03  0.00000000000E+00 0.  1.
         25    1    1    2    0    0 -0.22906921639E+02  0.41014209152E+02 -0.34334388075E+03  0.36839776446E+03  0.12500000000E+03 0.  0.
         25    1    1    2    0    0  0.22255025107E+02 -0.68554854845E+01 -0.80252722700E+02  0.15035884851E+03  0.12500000000E+03 0.  0.
         25    1    1    2    0    0  0.65189653178E+00 -0.34158723667E+02 -0.17652077354E+03  0.21897905576E+03  0.12500000000E+03 0.  0.
</event>
<event>
 5    0  0.5641283E-005  0.3781702E+03  0.7546771E-02  0.1051612E+00
         21   -1    0    0  502  501  0.00000000000E+00  0.00000000000E+00  0.15885431851E+04  0.15885431851E+04  0.00000000000E+00 0. -1.
         21   -1    0    0  501  502 -0.00000000000E+00 -0.00000000000E+00 -0.90027580699E+02  0.90027580699E+02  0.00000000000E+00 0. -1.
         25    1    1    2    0    0 -0.13560521477E+03  0.18602837871E+03  0.69850184527E+03  0.74600613925E+03  0.12500000000E+03 0.  0.
         25    1    1    2    0    0 -0.62536582716E+02 -0.19621958958E+03  0.34660389449E+03  0.42210450269E+03  0.12500000000E+03 0.  0.
         25    1    1    2    0    0  0.19814179749E+03  0.10191210865E+02  0.45340986460E+03  0.51046012382E+03  0.12500000000E+03 0.  0.
</event>
<event>
 5    0  0.5641283E-005  0.2570055E+03  0.7546771E-02  0.1108956E+00
         21   -1    0    0  502  501  0.00000000000E+00  0.00000000000E+00  0.47920980955E+03  0.47920980955E+03  0.00000000000E+00 0.  1.
         21   -1    0    0  501  502 -0.00000000000E+00 -0.00000000000E+00 -0.13783490310E+03  0.13783490310E+03  0.00000000000E+00 0.  1.
         25    1    1    2    0    0  0.13396982236E+03  0.23267552971E+02  0.15483077347E+03  0.24101215890E+03  0.12500000000E+03 0.  0.
         25    1    1    2    0    0 -0.17605121221E+02  0.39784324397E+02  0.12971648152E+03  0.18532160785E+03  0.12500000000E+03 0.  0.
         25    1    1    2    0    0 -0.11636470114E+03 -0.63051877368E+02  0.56827651465E+02  0.19071094589E+03  0.12500000000E+03 0.  0.
</event>
<event>
 5    0  0.5641283E-005  0.3099105E+03  0.7546771E-02  0.1080389E+00
         21   -1    0    0  502  501  0.00000000000E+00  0.00000000000E+00  0.72163888418E+03  0.72163888418E+03  0.00000000000E+00 0. -1.
         21   -1    0    0  501  502 -0.00000000000E+00 -0.00000000000E+00 -0.13309219047E+03  0.13309219047E+03  0.00000000000E+00 0. -1.
         25    1    1    2    0    0  0.13109292397E+03  0.11221860614E+03  0.22312212760E+03  0.30852366863E+03  0.12500000000E+03 0.  0.
         25    1    1    2    0    0 -0.15361615049E+03 -0.13253056942E+03  0.11481924359E+03  0.26451981442E+03  0.12500000000E+03 0.  0.
         25    1    1    2    0    0  0.22523226515E+02  0.20311963281E+02  0.25060532251E+03  0.28168759159E+03  0.12500000000E+03 0.  0.
</event>
<event>
 5    0  0.5641283E-005  0.3162146E+03  0.7546771E-02  0.1077405E+00
         21   -1    0    0  502  501  0.00000000000E+00  0.00000000000E+00  0.93029470611E+03  0.93029470611E+03  0.00000000000E+00 0.  1.
         21   -1    0    0  501  502 -0.00000000000E+00 -0.00000000000E+00 -0.10748386358E+03  0.10748386358E+03  0.00000000000E+00 0.  1.
         25    1    1    2    0    0 -0.26911144431E+02 -0.11408709236E+03  0.19283169682E+03  0.25797119536E+03  0.12500000000E+03 0.  0.
         25    1    1    2    0    0  0.13771964714E+03 -0.55340716785E+02  0.41924109095E+03  0.46197119876E+03  0.12500000000E+03 0.  0.
         25    1    1    2    0    0 -0.11080850270E+03  0.16942780914E+03  0.21073805477E+03  0.31783617558E+03  0.12500000000E+03 0.  0.
</event>
<event>
 5    0  0.5641283E-005  0.3338341E+03  0.7546771E-02  0.1069453E+00
         21   -1    0    0  502  501  0.00000000000E+00  0.00000000000E+00  0.19590219989E+03  0.19590219989E+03  0.00000000000E+00 0.  1.
         21   -1    0    0  501  502 -0.00000000000E+00 -0.00000000000E+00 -0.56888198777E+03  0.56888198777E+03  0.00000000000E+00 0.  1.
         25    1    1    2    0    0 -0.49012392965E+02 -0.31139500702E+02 -0.32969734549E+02  0.14171762969E+03  0.12500000000E+03 0.  0.
         25    1    1    2    0    0 -0.19364896417E+03 -0.35793003006E+02 -0.10120282496E+03  0.25425985167E+03  0.12500000000E+03 0.  0.
         25    1    1    2    0    0  0.24266135714E+03  0.66932503708E+02 -0.23880722836E+03  0.36880670631E+03  0.12500000000E+03 0.  0.
</event>
<event>
 5    0  0.5641283E-005  0.2608918E+03  0.7546771E-02  0.1106609E+00
         21   -1    0    0  502  501  0.00000000000E+00  0.00000000000E+00  0.33238980029E+03  0.33238980029E+03  0.00000000000E+00 0.  1.
         21   -1    0    0  501  502 -0.00000000000E+00 -0.00000000000E+00 -0.20477315317E+03  0.20477315317E+03  0.00000000000E+00 0.  1.
         25    1    1    2    0    0 -0.60827757229E+02 -0.40481260976E+02 -0.99825175694E+02  0.17586589846E+03  0.12500000000E+03 0.  0.
         25    1    1    2    0    0  0.54773664510E+02  0.57591667237E+02  0.84465338667E+02  0.17051788145E+03  0.12500000000E+03 0.  0.
         25    1    1    2    0    0  0.60540927192E+01 -0.17110406261E+02  0.14297648415E+03  0.19077917355E+03  0.12500000000E+03 0.  0.
</event>
<event>
 5    0  0.5641283E-005  0.2921267E+03  0.7546771E-02  0.1089244E+00
         21   -1    0    0  502  501  0.00000000000E+00  0.00000000000E+00  0.49799917655E+03  0.49799917655E+03  0.00000000000E+00 0. -1.
         21   -1    0    0  501  502 -0.00000000000E+00 -0.00000000000E+00 -0.17136173871E+03  0.17136173871E+03  0.00000000000E+00 0. -1.
         25    1    1    2    0    0  0.86245408855E+02  0.10296207489E+03 -0.12582468544E+02  0.18390970047E+03  0.12500000000E+03 0.  0.
         25    1    1    2    0    0  0.54663344503E+02 -0.10483355222E+02  0.12014770763E+03  0.18209462819E+03  0.12500000000E+03 0.  0.
         25    1    1    2    0    0 -0.14090875336E+03 -0.92478719665E+02  0.21907219875E+03  0.30335658659E+03  0.12500000000E+03 0.  0.
</event>
<event>
 5    0  0.5641283E-005  0.3989920E+03  0.7546771E-02  0.1044129E+00
         21   -1    0    0  502  501  0.00000000000E+00  0.00000000000E+00  0.43046498954E+03  0.43046498954E+03  0.00000000000E+00 0.  1.
         21   -1    0    0  501  502 -0.00000000000E+00 -0.00000000000E+00 -0.36982008926E+03  0.36982008926E+03  0.00000000000E+00 0.  1.
         25    1    1    2    0    0  0.54819449091E+02 -0.31871079325E+02 -0.83927229937E+02  0.16336987978E+03  0.12500000000E+03 0.  0.
         25    1    1    2    0    0 -0.13756427700E+02 -0.94018151711E+02  0.33712395599E+03  0.37189543404E+03  0.12500000000E+03 0.  0.
         25    1    1    2    0    0 -0.41063021392E+02  0.12588923104E+03 -0.19255182577E+03  0.26501976497E+03  0.12500000000E+03 0.  0.
</event>
<event>
 5    0  0.5641283E-005  0.2153981E+03  0.7546771E-02  0.1137361E+00
         21   -1    0    0  502  501  0.00000000000E+00  0.00000000000E+00  0.12686837443E+03  0.12686837443E+03  0.00000000000E+00 0. -1.
         21   -1    0    0  501  502 -0.00000000000E+00 -0.00000000000E+00 -0.36570459703E+03  0.36570459703E+03  0.00000000000E+00 0. -1.
         25    1    1    2    0    0 -0.20896809999E+02  0.87569536249E+02 -0.54856626266E+02  0.16352171046E+03  0.12500000000E+03 0.  0.
         25    1    1    2    0    0 -0.12258244716E+02 -0.56529898752E+02 -0.11385864366E+03  0.17870278328E+03  0.12500000000E+03 0.  0.
         25    1    1    2    0    0  0.33155054715E+02 -0.31039637497E+02 -0.70120952674E+02  0.15034847772E+03  0.12500000000E+03 0.  0.
</event>
<event>
 5    0  0.5641283E-005  0.3660148E+03  0.7546771E-02  0.1056227E+00
         21   -1    0    0  502  501  0.00000000000E+00  0.00000000000E+00  0.17654656275E+03  0.17654656275E+03  0.00000000000E+00 0. -1.
         21   -1    0    0  501  502 -0.00000000000E+00 -0.00000000000E+00 -0.75881884515E+03  0.75881884515E+03  0.00000000000E+00 0. -1.
         25    1    1    2    0    0  0.23517092594E+03  0.19956325288E+02 -0.25720736816E+03  0.37078868586E+03  0.12500000000E+03 0.  0.
         25    1    1    2    0    0 -0.11398354099E+03 -0.61111491562E+02 -0.34042285980E+03  0.38501894173E+03  0.12500000000E+03 0.  0.
         25    1    1    2    0    0 -0.12118738494E+03  0.41155166274E+02  0.15357945560E+02  0.17955778032E+03  0.12500000000E+03 0.  0.
</event>
<event>
 5    0  0.5641283E-005  0.3595803E+03  0.7546771E-02  0.1058750E+00
         21   -1    0    0  502  501  0.00000000000E+00  0.00000000000E+00  0.10814059689E+03  0.10814059689E+03  0.00000000000E+00 0. -1.
         21   -1    0    0  501  502 -0.00000000000E+00 -0.00000000000E+00 -0.11956468938E+04  0.11956468938E+04  0.00000000000E+00 0. -1.
         25    1    1    2    0    0 -0.42572666760E+02 -0.14259169834E+03 -0.50718346116E+03  0.54314352400E+03  0.12500000000E+03 0.  0.
         25    1    1    2    0    0 -0.11411882709E+02  0.14871998967E+03 -0.59265601995E+03  0.62379004832E+03  0.12500000000E+03 0.  0.
         25    1    1    2    0    0  0.53984549468E+02 -0.61282913333E+01  0.12333184211E+02  0.13685391835E+03  0.12500000000E+03 0.  0.
</event>
<event>
 5    0  0.5641283E-005  0.3536724E+03  0.7546771E-02  0.1061118E+00
         21   -1    0    0  502  501  0.00000000000E+00  0.00000000000E+00  0.15360513125E+03  0.15360513125E+03  0.00000000000E+00 0.  1.
         21   -1    0    0  501  502 -0.00000000000E+00 -0.00000000000E+00 -0.81432283544E+03  0.81432283544E+03  0.00000000000E+00 0.  1.
         25    1    1    2    0    0 -0.30862019618E+02  0.10012967817E+03  0.10435563751E+02  0.16343903357E+03  0.12500000000E+03 0.  0.
         25    1    1    2    0    0 -0.10593168227E+03 -0.96655389452E+02 -0.55272594981E+03  0.58454662878E+03  0.12500000000E+03 0.  0.
         25    1    1    2    0    0  0.13679370189E+03 -0.34742887143E+01 -0.11842731813E+03  0.21994230434E+03  0.12500000000E+03 0.  0.
</event>
<event>
 5    0  0.5641283E-005  0.2570744E+03  0.7546771E-02  0.1108914E+00
         21   -1    0    0  502  501  0.00000000000E+00  0.00000000000E+00  0.88140639732E+02  0.88140639732E+02  0.00000000000E+00 0. -1.
         21   -1    0    0  501  502 -0.00000000000E+00 -0.00000000000E+00 -0.74979314268E+03  0.74979314268E+03  0.00000000000E+00 0. -1.
         25    1    1    2    0    0 -0.55843403905E+02  0.34264619423E+02 -0.18720252181E+03  0.23444047021E+03  0.12500000000E+03 0.  0.
         25    1    1    2    0    0 -0.50661049206E+02 -0.99108699171E+02 -0.34851841638E+03  0.38662535187E+03  0.12500000000E+03 0.  0.
         25    1    1    2    0    0  0.10650445311E+03  0.64844079748E+02 -0.12593156477E+03  0.21686796033E+03  0.12500000000E+03 0.  0.
</event>
<event>
 5    0  0.5641283E-005  0.3081315E+03  0.7546771E-02  0.1081245E+00
         21   -1    0    0  502  501  0.00000000000E+00  0.00000000000E+00  0.60870637962E+03  0.60870637962E+03  0.00000000000E+00 0.  1.
         21   -1    0    0  501  502 -0.00000000000E+00 -0.00000000000E+00 -0.15597830812E+03  0.15597830812E+03  0.00000000000E+00 0.  1.
         25    1    1    2    0    0  0.42071817711E+02  0.13665500865E+03  0.42848476139E+02  0.19469365974E+03  0.12500000000E+03 0.  0.
         25    1    1    2    0    0 -0.15350005230E+03 -0.10613055900E+03  0.25553087374E+03  0.34021609169E+03  0.12500000000E+03 0.  0.
         25    1    1    2    0    0  0.11142823459E+03 -0.30524449655E+02  0.15434872163E+03  0.22977493631E+03  0.12500000000E+03 0.  0.
</event>
<event>
 5    0  0.5641283E-005  0.5007096E+03  0.7546771E-02  0.1013594E+00
         21   -1    0    0  502  501  0.00000000000E+00  0.00000000000E+00  0.61720520144E+03  0.61720520144E+03  0.00000000000E+00 0. -1.
         21   -1    0    0  501  502 -0.00000000000E+00 -0.00000000000E+00 -0.40620213302E+03  0.40620213302E+03  0.00000000000E+00 0.  1.
         25    1    1    2    0    0 -0.65848329131E+02 -0.32411226106E+01 -0.30611841186E+02  0.14459803645E+03  0.12500000000E+03 0.  0.
         25    1    1    2    0    0 -0.20547625767E+03  0.31824777548E+03  0.18927168696E+03  0.44153245696E+03  0.12500000000E+03 0.  0.
         25    1    1    2    0    0  0.27132458680E+03 -0.31500665287E+03  0.52343222650E+02  0.43727684104E+03  0.12500000000E+03 0.  0.
</event>
<event>
 5    0  0.5641283E-005  0.4908813E+03  0.7546771E-02  0.1016187E+00
         21   -1    0    0  502  501  0.00000000000E+00  0.00000000000E+00  0.45986677251E+03  0.45986677251E+03  0.00000000000E+00 0.  1.
         21   -1    0    0  501  502 -0.00000000000E+00 -0.00000000000E+00 -0.52398745258E+03  0.52398745258E+03  0.00000000000E+00 0.  1.
         25    1    1    2    0    0 -0.81910986405E+02 -0.50003487880E+02 -0.11704678010E+03  0.19630259098E+03  0.12500000000E+03 0.  0.
         25    1    1    2    0    0  0.10679996025E+03  0.38711643532E+03  0.71744394916E+02  0.42665867412E+03  0.12500000000E+03 0.  0.
         25    1    1    2    0    0 -0.24888973845E+02 -0.33711294744E+03 -0.18818294882E+02  0.36089295999E+03  0.12500000000E+03 0.  0.
</event>
<event>
 5    0  0.5641283E-005  0.4108402E+03  0.7546771E-02  0.1040089E+00
         21   -1    0    0  502  501  0.00000000000E+00  0.00000000000E+00  0.13994870238E+03  0.13994870238E+03  0.00000000000E+00 0.  1.
         21   -1    0    0  501  502 -0.00000000000E+00 -0.00000000000E+00 -0.12060825130E+04  0.12060825130E+04  0.00000000000E+00 0.  1.
         25    1    1    2    0    0  0.26943924592E+02  0.13301491286E+03 -0.84260778373E+03  0.86257279074E+03  0.12500000000E+03 0.  0.
         25    1    1    2    0    0  0.10596750201E+03 -0.14309613804E+03 -0.34018450353E+02  0.22019961664E+03  0.12500000000E+03 0.  0.
         25    1    1    2    0    0 -0.13291142660E+03  0.10081225185E+02 -0.18950757651E+03  0.26325880798E+03  0.12500000000E+03 0.  0.
</event>
<event>
 5    0  0.5641283E-005  0.2086525E+03  0.7546771E-02  0.1142638E+00
         21   -1    0    0  502  501  0.00000000000E+00  0.00000000000E+00  0.76783975768E+03  0.76783975768E+03  0.00000000000E+00 0.  1.
         21   -1    0    0  501  502 -0.00000000000E+00 -0.00000000000E+00 -0.56699128432E+02  0.56699128432E+02  0.00000000000E+00 0.  1.
         25    1    1    2    0    0 -0.11993721881E+02  0.20969629065E+02  0.16696393121E+03  0.20996554249E+03  0.12500000000E+03 0.  0.
         25    1    1    2    0    0 -0.34910580359E+02  0.22593473275E+02  0.17109317664E+03  0.21593306543E+03  0.12500000000E+03 0.  0.
         25    1    1    2    0    0  0.46904302240E+02 -0.43563102340E+02  0.37308352140E+03  0.39864027819E+03  0.12500000000E+03 0.  0.
</event>
<event>
 5    0  0.5641283E-005  0.4144220E+03  0.7546771E-02  0.1038897E+00
         21   -1    0    0  502  501  0.00000000000E+00  0.00000000000E+00  0.65938602860E+03  0.65938602860E+03  0.00000000000E+00 0. -1.
         21   -1    0    0  501  502 -0.00000000000E+00 -0.00000000000E+00 -0.26046291681E+03  0.26046291681E+03  0.00000000000E+00 0. -1.
         25    1    1    2    0    0  0.29497255251E+03 -0.53924504102E+02  0.11504250652E+03  0.34463957577E+03  0.12500000000E+03 0.  0.
         25    1    1    2    0    0 -0.24148762688E+03 -0.87283269872E+02  0.24297765549E+03  0.37496371051E+03  0.12500000000E+03 0.  0.
         25    1    1    2    0    0 -0.53484925635E+02  0.14120777397E+03  0.40902949770E+02  0.20024565913E+03  0.12500000000E+03 0.  0.
</event>
<event>
 5    0  0.5641283E-005  0.3623398E+03  0.7546771E-02  0.1057661E+00
         21   -1    0    0  502  501  0.00000000000E+00  0.00000000000E+00  0.98494580389E+03  0.98494580389E+03  0.00000000000E+00 0.  1.
         21   -1    0    0  501  502 -0.00000000000E+00 -0.00000000000E+00 -0.13329678684E+03  0.13329678684E+03  0.00000000000E+00 0.  1.
         25    1    1    2    0    0  0.16233325529E+02 -0.14937549860E+03  0.82517420299E+02  0.21215721787E+03  0.12500000000E+03 0.  0.
         25    1    1    2    0    0 -0.16134084012E+03  0.16140759243E+03  0.28823609367E+03  0.38831472195E+03  0.12500000000E+03 0.  0.
         25    1    1    2    0    0  0.14510751459E+03 -0.12032093825E+02  0.48089550307E+03  0.51777065091E+03  0.12500000000E+03 0.  0.
</event>
<event>
 5    0  0.5641283E-005  0.2333507E+03  0.7546771E-02  0.1124303E+00
         21   -1    0    0  502  501  0.00000000000E+00  0.00000000000E+00  0.91066367062E+02  0.91066367062E+02  0.00000000000E+00 0.  1.
         21   -1    0    0  501  502 -0.00000000000E+00 -0.00000000000E+00 -0.59794341470E+03  0.59794341470E+03  0.00000000000E+00 0.  1.
         25    1    1    2    0    0 -0.49475605076E+02  0.50269116692E+01 -0.53844166418E+02  0.14490444988E+03  0.12500000000E+03 0.  0.
         25    1    1    2    0    0 -0.19987409158E+02  0.52772135141E+02 -0.28334427636E+03  0.31479100006E+03  0.12500000000E+03 0.  0.
         25    1    1    2    0    0  0.69463014234E+02 -0.57799046810E+02 -0.16968860486E+03  0.22931433182E+03  0.12500000000E+03 0.  0.
</event>
<event>
 5    0  0.5641283E-005  0.3263683E+03  0.7546771E-02  0.1072755E+00
         21   -1    0    0  502  501  0.00000000000E+00  0.00000000000E+00  0.64369807932E+03  0.64369807932E+03  0.00000000000E+00 0.  1.
         21   -1    0    0  501  502 -0.00000000000E+00 -0.00000000000E+00 -0.16547550274E+03  0.16547550274E+03  0.00000000000E+00 0.  1.
         25    1    1    2    0    0  0.10859170007E+03 -0.21457259324E+03  0.17255380182E+03  0.32129950143E+03  0.12500000000E+03 0.  0.
         25    1    1    2    0    0  0.18342495684E+02  0.10065575148E+03  0.86134733671E+02  0.18306343108E+03  0.12500000000E+03 0.  0.
         25    1    1    2    0    0 -0.12693419575E+03  0.11391684176E+03  0.21953404109E+03  0.30481064956E+03  0.12500000000E+03 0.  0.
</event>
<event>
 5    0  0.5641283E-005  0.2862983E+03  0.7546771E-02  0.1092298E+00
         21   -1    0    0  502  501  0.00000000000E+00  0.00000000000E+00  0.21374023125E+03  0.21374023125E+03  0.00000000000E+00 0. -1.
         21   -1    0    0  501  502 -0.00000000000E+00 -0.00000000000E+00 -0.38348764006E+03  0.38348764006E+03  0.00000000000E+00 0. -1.
         25    1    1    2    0    0 -0.41364229404E+02 -0.14887878421E+03  0.20739453750E+02  0.19982746759E+03  0.12500000000E+03 0.  0.
         25    1    1    2    0    0  0.26886504410E+02  0.95909628972E+02 -0.20517463555E+03  0.26008301006E+03  0.12500000000E+03 0.  0.
         25    1    1    2    0    0  0.14477724993E+02  0.52969155235E+02  0.14687772985E+02  0.13731739366E+03  0.12500000000E+03 0.  0.
</event>
<event>
 5    0  0.5641283E-005  0.2197798E+03  0.7546771E-02  0.1134047E+00
         21   -1    0    0  502  501  0.00000000000E+00  0.00000000000E+00  0.12058351972E+04  0.12058351972E+04  0.00000000000E+00 0. -1.
         21   -1    0    0  501  502 -0.00000000000E+00 -0.00000000000E+00 -0.40057847209E+02  0.40057847209E+02  0.00000000000E+00 0. -1.
         25    1    1    2    0    0  0.22357474142E+02 -0.32575780604E+02  0.28327441207E+03  0.31213847995E+03  0.12500000000E+03 0.  0.
         25    1    1    2    0    0  0.20916708343E+02 -0.59390485743E+02  0.33562606598E+03  0.36364074943E+03  0.12500000000E+03 0.  0.
         25    1    1    2    0    0 -0.43274182486E+02  0.91966266348E+02  0.54687687193E+03  0.57011381501E+03  0.12500000000E+03 0.  0.
</event>
<event>
 5    0  0.5641283E-005  0.6248450E+03  0.7546771E-02  0.9855160E-01
         21   -1    0    0  502  501  0.00000000000E+00  0.00000000000E+00  0.46722321481E+03  0.46722321481E+03  0.00000000000E+00 0.  1.
         21   -1    0    0  501  502 -0.00000000000E+00 -0.00000000000E+00 -0.83564196172E+03  0.83564196172E+03  0.00000000000E+00 0.  1.
         25    1    1    2    0    0 -0.47754307609E+02  0.21330423915E+03 -0.92022130400E+02  0.26808999388E+03  0.12500000000E+03 0.  0.
         25    1    1    2    0    0 -0.18179243300E+03 -0.20133422024E+03  0.28660395670E+03  0.41394538882E+03  0.12500000000E+03 0.  0.
         25    1    1    2    0    0  0.22954674061E+03 -0.11970018914E+02 -0.56300057321E+03  0.62082979383E+03  0.12500000000E+03 0.  0.
</event>
<event>
 5    0  0.5641283E-005  0.2744245E+03  0.7546771E-02  0.1098774E+00
         21   -1    0    0  502  501  0.00000000000E+00  0.00000000000E+00  0.51389652141E+02  0.51389652141E+02  0.00000000000E+00 0.  1.
         21   -1    0    0  501  502 -0.00000000000E+00 -0.00000000000E+00 -0.14654473038E+04  0.14654473038E+04  0.00000000000E+00 0.  1.
         25    1    1    2    0    0 -0.39385273935E+02  0.99401684551E+02 -0.17099986937E+03  0.23727167976E+03  0.12500000000E+03 0.  0.
         25    1    1    2    0    0 -0.68966681234E+00 -0.83725821140E+02 -0.88881452274E+03  0.90145812138E+03  0.12500000000E+03 0.  0.
         25    1    1    2    0    0  0.40074940748E+02 -0.15675863411E+02 -0.35424325951E+03  0.37810715476E+03  0.12500000000E+03 0.  0.
</event>
<event>
 5    0  0.5641283E-005  0.4662218E+03  0.7546771E-02  0.1022992E+00
         21   -1    0    0  502  501  0.00000000000E+00  0.00000000000E+00  0.11445875869E+04  0.11445875869E+04  0.00000000000E+00 0.  1.
         21   -1    0    0  501  502 -0.00000000000E+00 -0.00000000000E+00 -0.18990488879E+03  0.18990488879E+03  0.00000000000E+00 0.  1.
         25    1    1    2    0    0  0.44022106115E+02  0.13837426606E+03  0.16782549818E+03  0.25470724602E+03  0.12500000000E+03 0.  0.
         25    1    1    2    0    0  0.19108642557E+03  0.27157282829E+02  0.72449605630E+03  0.76011254143E+03  0.12500000000E+03 0.  0.
         25    1    1    2    0    0 -0.23510853169E+03 -0.16553154889E+03  0.62361143577E+02  0.31967268820E+03  0.12500000000E+03 0.  0.
</event>
<event>
 5    0  0.5641283E-005  0.3415352E+03  0.7546771E-02  0.1066144E+00
         21   -1    0    0  502  501  0.00000000000E+00  0.00000000000E+00  0.14803904967E+03  0.14803904967E+03  0.00000000000E+00 0. -1.
         21   -1    0    0  501  502 -0.00000000000E+00 -0.00000000000E+00 -0.78794257439E+03  0.78794257439E+03  0.00000000000E+00 0. -1.
         25    1    1    2    0    0  0.58407309067E+02 -0.92677488236E+02 -0.17782756105E+03  0.24340947403E+03  0.12500000000E+03 0.  0.
         25    1    1    2    0    0  0.13412270332E+03  0.19100481235E+03 -0.26332414845E+03  0.37341176340E+03  0.12500000000E+03 0.  0.
         25    1    1    2    0    0 -0.19253001239E+03 -0.98327324116E+02 -0.19875181522E+03  0.31916038663E+03  0.12500000000E+03 0.  0.
</event>
<event>
 5    0  0.5641283E-005  0.2576495E+03  0.7546771E-02  0.1108564E+00
         21   -1    0    0  502  501  0.00000000000E+00  0.00000000000E+00  0.92269998335E+02  0.92269998335E+02  0.00000000000E+00 0.  1.
         21   -1    0    0  501  502 -0.00000000000E+00 -0.00000000000E+00 -0.71944566936E+03  0.71944566936E+03  0.00000000000E+00 0.  1.
         25    1    1    2    0    0 -0.14501876733E+03 -0.39579559216E+02 -0.17003078475E+03  0.25909930943E+03  0.12500000000E+03 0.  0.
         25    1    1    2    0    0  0.67629451077E+02  0.37741890818E+02 -0.31722972113E+03  0.34965395599E+03  0.12500000000E+03 0.  0.
         25    1    1    2    0    0  0.77389316257E+02  0.18376683972E+01 -0.13991516515E+03  0.20296240227E+03  0.12500000000E+03 0.  0.
</event>
<event>
 5    0  0.5641283E-005  0.5687868E+03  0.7546771E-02  0.9972367E-01
         21   -1    0    0  502  501  0.00000000000E+00  0.00000000000E+00  0.12667581827E+04  0.12667581827E+04  0.00000000000E+00 0. -1.
         21   -1    0    0  501  502 -0.00000000000E+00 -0.00000000000E+00 -0.25539082280E+03  0.25539082280E+03  0.00000000000E+00 0. -1.
         25    1    1    2    0    0  0.64639349597E+02  0.80197624719E+02  0.10008476408E+04  0.10138692739E+04  0.12500000000E+03 0.  0.
         25    1    1    2    0    0 -0.24107419329E+03 -0.10334356823E+03  0.12211069494E+02  0.29081053967E+03  0.12500000000E+03 0.  0.
         25    1    1    2    0    0  0.17643484369E+03  0.23145943514E+02 -0.16913503624E+01  0.21746919193E+03  0.12500000000E+03 0.  0.
</event>
<event>
 5    0  0.5641283E-005  0.2791222E+03  0.7546771E-02  0.1096169E+00
         21   -1    0    0  502  501  0.00000000000E+00  0.00000000000E+00  0.86999422031E+03  0.86999422031E+03  0.00000000000E+00 0. -1.
         21   -1    0    0  501  502 -0.00000000000E+00 -0.00000000000E+00 -0.89551424558E+02  0.89551424558E+02  0.00000000000E+00 0. -1.
         25    1    1    2    0    0  0.13583275571E+02  0.67426987438E+02  0.24165399580E+03  0.28062886113E+03  0.12500000000E+03 0.  0.
         25    1    1    2    0    0  0.37857643821E+02  0.61144688607E+02  0.45008988418E+02  0.15107178154E+03  0.12500000000E+03 0.  0.
         25    1    1    2    0    0 -0.51440919392E+02 -0.12857167604E+03  0.49377981153E+03  0.52784500220E+03  0.12500000000E+03 0.  0.
</event>
<event>
 5    0  0.5641283E-005  0.2371567E+03  0.7546771E-02  0.1121702E+00
         21   -1    0    0  502  501  0.00000000000E+00  0.00000000000E+00  0.69750427917E+03  0.69750427917E+03  0.00000000000E+00 0.  1.
         21   -1    0    0  501  502 -0.00000000000E+00 -0.00000000000E+00 -0.80635076251E+02  0.80635076251E+02  0.00000000000E+00 0.  1.
         25    1    1    2    0    0  0.25149157738E+02  0.38574819559E+02  0.24319071263E+03  0.27728544778E+03  0.12500000000E+03 0.  0.
         25    1    1    2    0    0 -0.26422391196E+02  0.96962305770E+01  0.33904476690E+03  0.36244794607E+03  0.12500000000E+03 0.  0.
         25    1    1    2    0    0  0.12732334579E+01 -0.48271050136E+02  0.34633723386E+02  0.13840596158E+03  0.12500000000E+03 0.  0.
</event>
<event>
 5    0  0.5641283E-005  0.2896461E+03  0.7546771E-02  0.1090534E+00
         21   -1    0    0  502  501  0.00000000000E+00  0.00000000000E+00  0.22975967950E+03  0.22975967950E+03  0.00000000000E+00 0. -1.
         21   -1    0    0  501  502 -0.00000000000E+00 -0.00000000000E+00 -0.36514176307E+03  0.36514176307E+03  0.00000000000E+00 0. -1.
         25    1    1    2    0    0 -0.11323940483E+03 -0.62810380791E+02  0.47966267061E+02  0.18626344117E+03  0.12500000000E+03 0.  0.
         25    1    1    2    0    0  0.15410194357E+03 -0.34639077477E+02 -0.10567783138E+03  0.22746445600E+03  0.12500000000E+03 0.  0.
         25    1    1    2    0    0 -0.40862538736E+02  0.97449458268E+02 -0.77670519258E+02  0.18117354539E+03  0.12500000000E+03 0.  0.
</event>
<event>
 5    0  0.5641283E-005  0.3286131E+03  0.7546771E-02  0.1071752E+00
         21   -1    0    0  502  501  0.00000000000E+00  0.00000000000E+00  0.15826858348E+03  0.15826858348E+03  0.00000000000E+00 0. -1.
         21   -1    0    0  501  502 -0.00000000000E+00 -0.00000000000E+00 -0.68229948103E+03  0.68229948103E+03  0.00000000000E+00 0. -1.
         25    1    1    2    0    0  0.57700187207E+02  0.15624359650E+03 -0.32143473108E+02  0.21071206875E+03  0.12500000000E+03 0.  0.
         25    1    1    2    0    0  0.13817424385E+02  0.77442222617E+01 -0.34366462584E+03  0.36603451921E+03  0.12500000000E+03 0.  0.
         25    1    1    2    0    0 -0.71517611591E+02 -0.16398781877E+03 -0.14822279860E+03  0.26382147656E+03  0.12500000000E+03 0.  0.
</event>
<event>
 5    0  0.5641283E-005  0.4127633E+03  0.7546771E-02  0.1039448E+00
         21   -1    0    0  502  501  0.00000000000E+00  0.00000000000E+00  0.25504583197E+03  0.25504583197E+03  0.00000000000E+00 0.  1.
         21   -1    0    0  501  502 -0.00000000000E+00 -0.00000000000E+00 -0.66801162807E+03  0.66801162807E+03  0.00000000000E+00 0.  1.
         25    1    1    2    0    0 -0.18030218930E+03 -0.74624890827E+02 -0.34080032145E+03  0.41212572462E+03  0.12500000000E+03 0.  0.
         25    1    1    2    0    0 -0.31191713299E+01 -0.14470208373E+03 -0.27670155518E+01  0.19126180654E+03  0.12500000000E+03 0.  0.
         25    1    1    2    0    0  0.18342136063E+03  0.21932697456E+03 -0.69398459101E+02  0.31966992888E+03  0.12500000000E+03 0.  0.
</event>
<event>
 5    0  0.5641283E-005  0.5214217E+03  0.7546771E-02  0.1008334E+00
         21   -1    0    0  502  501  0.00000000000E+00  0.00000000000E+00  0.11195717075E+04  0.11195717075E+04  0.00000000000E+00 0. -1.
         21   -1    0    0  501  502 -0.00000000000E+00 -0.00000000000E+00 -0.24284335514E+03  0.24284335514E+03  0.00000000000E+00 0. -1.
         25    1    1    2    0    0  0.13551289048E+03 -0.28990318191E+03  0.13234303264E+03  0.36816745736E+03  0.12500000000E+03 0.  0.
         25    1    1    2    0    0  0.10515071213E+03 -0.52380470305E+02  0.40934770714E+03  0.44383660425E+03  0.12500000000E+03 0.  0.
         25    1    1    2    0    0 -0.24066360261E+03  0.34228365222E+03  0.33503761254E+03  0.55041100099E+03  0.12500000000E+03 0.  0.
</event>
<event>
 5    0  0.5641283E-005  0.3912749E+03  0.7546771E-02  0.1046843E+00
         21   -1    0    0  502  501  0.00000000000E+00  0.00000000000E+00  0.12248959137E+04  0.12248959137E+04  0.00000000000E+00 0. -1.
         21   -1    0    0  501  502 -0.00000000000E+00 -0.00000000000E+00 -0.12498700683E+03  0.12498700683E+03  0.00000000000E+00 0. -1.
         25    1    1    2    0    0  0.18876470169E+03 -0.10902619706E+03  0.29398630553E+03  0.38674509963E+03  0.12500000000E+03 0.  0.
         25    1    1    2    0    0 -0.21614842257E+03  0.66402800583E+02  0.16136491884E+03  0.30461961450E+03  0.12500000000E+03 0.  0.
         25    1    1    2    0    0  0.27383720884E+02  0.42623396474E+02  0.64455768249E+03  0.65851820640E+03  0.12500000000E+03 0.  0.
</event>
<event>
 5    0  0.5641283E-005  0.3945385E+03  0.7546771E-02  0.1045687E+00
         21   -1    0    0  502  501  0.00000000000E+00  0.00000000000E+00  0.95968429779E+03  0.95968429779E+03  0.00000000000E+00 0. -1.
         21   -1    0    0  501  502 -0.00000000000E+00 -0.00000000000E+00 -0.16219980783E+03  0.16219980783E+03  0.00000000000E+00 0. -1.
         25    1    1    2    0    0  0.13101675048E+03 -0.23928845906E+03  0.22496256458E+03  0.37504334551E+03  0.12500000000E+03 0.  0.
         25    1    1    2    0    0 -0.17487628734E+03  0.17991959928E+03  0.19253771346E+03  0.34007138836E+03  0.12500000000E+03 0.  0.
         25    1    1    2    0    0  0.43859536858E+02  0.59368859779E+02  0.37998421192E+03  0.40676937175E+03  0.12500000000E+03 0.  0.
</event>
<event>
 5    0  0.5641283E-005  0.3447683E+03  0.7546771E-02  0.1064783E+00
         21   -1    0    0  502  501  0.00000000000E+00  0.00000000000E+00  0.47603189684E+03  0.47603189684E+03  0.00000000000E+00 0. -1.
         21   -1    0    0  501  502 -0.00000000000E+00 -0.00000000000E+00 -0.24970003212E+03  0.24970003212E+03  0.00000000000E+00 0. -1.
         25    1    1    2    0    0  0.47683794032E+01  0.14701484281E+03  0.58257992758E+02  0.20163108681E+03  0.12500000000E+03 0.  0.
         25    1    1    2    0    0  0.42896899882E+02  0.10081520476E+03 -0.43539315593E+02  0.17182701048E+03  0.12500000000E+03 0.  0.
         25    1    1    2    0    0 -0.47665279285E+02 -0.24783004757E+03  0.21161318755E+03  0.35227383166E+03  0.12500000000E+03 0.  0.
</event>
<event>
 5    0  0.5641283E-005  0.2832589E+03  0.7546771E-02  0.1093922E+00
         21   -1    0    0  502  501  0.00000000000E+00  0.00000000000E+00  0.24895811705E+03  0.24895811705E+03  0.00000000000E+00 0. -1.
         21   -1    0    0  501  502 -0.00000000000E+00 -0.00000000000E+00 -0.32228559845E+03  0.32228559845E+03  0.00000000000E+00 0. -1.
         25    1    1    2    0    0  0.93750556119E+02 -0.60978104372E+02  0.23537584868E+02  0.16937093578E+03  0.12500000000E+03 0.  0.
         25    1    1    2    0    0 -0.16012264737E+03  0.11783857760E+03 -0.35684609191E+02  0.23753648963E+03  0.12500000000E+03 0.  0.
         25    1    1    2    0    0  0.66372091252E+02 -0.56860473232E+02 -0.61180457071E+02  0.16433629009E+03  0.12500000000E+03 0.  0.
</event>
<event>
 5    0  0.5641283E-005  0.3065497E+03  0.7546771E-02  0.1082012E+00
         21   -1    0    0  502  501  0.00000000000E+00  0.00000000000E+00  0.16741137077E+04  0.16741137077E+04  0.00000000000E+00 0. -1.
         21   -1    0    0  501  502 -0.00000000000E+00 -0.00000000000E+00 -0.56132826824E+02  0.56132826824E+02  0.00000000000E+00 0. -1.
         25    1    1    2    0    0  0.33889915977E+02 -0.43034570435E+02  0.46666732398E+03  0.48621383355E+03  0.12500000000E+03 0.  0.
         25    1    1    2    0    0 -0.10144623740E+03  0.43585789939E+02  0.10645772835E+04  0.10775624588E+04  0.12500000000E+03 0.  0.
         25    1    1    2    0    0  0.67556321425E+02 -0.55121950397E+00  0.86736273477E+02  0.16647024222E+03  0.12500000000E+03 0.  0.
</event>
<event>
 5    0  0.5641283E-005  0.3261890E+03  0.7546771E-02  0.1072836E+00
         21   -1    0    0  502  501  0.00000000000E+00  0.00000000000E+00  0.42320426688E+03  0.42320426688E+03  0.00000000000E+00 0.  1.
         21   -1    0    0  501  502 -0.00000000000E+00 -0.00000000000E+00 -0.25141346417E+03  0.25141346417E+03  0.00000000000E+00 0.  1.
         25    1    1    2    0    0  0.18950506633E+03 -0.81660079106E+02  0.18328592920E+03  0.30298394434E+03  0.12500000000E+03 0.  0.
         25    1    1    2    0    0 -0.26368406935E+02 -0.38393861507E+02 -0.68914019540E+01  0.13357347381E+03  0.12500000000E+03 0.  0.
         25    1    1    2    0    0 -0.16313665939E+03  0.12005394061E+03 -0.46037245330E+01  0.23806031289E+03  0.12500000000E+03 0.  0.
</event>
<event>
 5    0  0.5641283E-005  0.3115515E+03  0.7546771E-02  0.1079605E+00
         21   -1    0    0  502  501  0.00000000000E+00  0.00000000000E+00  0.25706921482E+03  0.25706921482E+03  0.00000000000E+00 0.  1.
         21   -1    0    0  501  502 -0.00000000000E+00 -0.00000000000E+00 -0.37758066567E+03  0.37758066567E+03  0.00000000000E+00 0.  1.
         25    1    1    2    0    0  0.15659932009E+03  0.84709942934E+02  0.38618607108E+02  0.22094234157E+03  0.12500000000E+03 0.  0.
         25    1    1    2    0    0 -0.57511951235E+02 -0.83802400105E+02 -0.19221244113E+03  0.25080089578E+03  0.12500000000E+03 0.  0.
         25    1    1    2    0    0 -0.99087368856E+02 -0.90754282927E+00  0.33082383169E+02  0.16290664313E+03  0.12500000000E+03 0.  0.
</event>
<event>
 5    0  0.6251992E-005  0.2875439E+03  0.7546771E-02  0.1091639E+00
         21   -1    0    0  502  501  0.00000000000E+00  0.00000000000E+00  0.73737884435E+03  0.73737884435E+03  0.00000000000E+00 0. -1.
         21   -1    0    0  501  502 -0.00000000000E+00 -0.00000000000E+00 -0.11212891957E+03  0.11212891957E+03  0.00000000000E+00 0. -1.
         25    1    1    2    0    0 -0.17848364628E+02  0.15247597240E+03  0.10349858250E+03  0.22339302330E+03  0.12500000000E+03 0.  0.
         25    1    1    2    0    0 -0.58834881692E+02 -0.73084848109E+02  0.14120381142E+03  0.21063346051E+03  0.12500000000E+03 0.  0.
         25    1    1    2    0    0  0.76683246320E+02 -0.79391124292E+02  0.38054753086E+03  0.41548128012E+03  0.12500000000E+03 0.  0.
</event>
<event>
 5    0  0.5641283E-005  0.4736352E+03  0.7546771E-02  0.1020899E+00
         21   -1    0    0  502  501  0.00000000000E+00  0.00000000000E+00  0.16919983827E+04  0.16919983827E+04  0.00000000000E+00 0. -1.
         21   -1    0    0  501  502 -0.00000000000E+00 -0.00000000000E+00 -0.13258304367E+03  0.13258304367E+03  0.00000000000E+00 0. -1.
         25    1    1    2    0    0  0.14635808814E+03 -0.16237299749E+03  0.29614535695E+03  0.38873223782E+03  0.12500000000E+03 0.  0.
         25    1    1    2    0    0  0.12468727753E+03  0.25672993026E+03  0.91974078212E+03  0.97108458981E+03  0.12500000000E+03 0.  0.
         25    1    1    2    0    0 -0.27104536567E+03 -0.94356932774E+02  0.34352919993E+03  0.46476459871E+03  0.12500000000E+03 0.  0.
</event>
<event>
 5    0  0.5641283E-005  0.2692434E+03  0.7546771E-02  0.1101713E+00
         21   -1    0    0  502  501  0.00000000000E+00  0.00000000000E+00  0.24777034707E+03  0.24777034707E+03  0.00000000000E+00 0. -1.
         21   -1    0    0  501  502 -0.00000000000E+00 -0.00000000000E+00 -0.29257731007E+03  0.29257731007E+03  0.00000000000E+00 0. -1.
         25    1    1    2    0    0  0.91236379291E+02 -0.74468651071E+02  0.40918013888E+02  0.17654727627E+03  0.12500000000E+03 0.  0.
         25    1    1    2    0    0  0.40340028067E+02  0.10481527162E+03 -0.24177631048E+02  0.16977372256E+03  0.12500000000E+03 0.  0.
         25    1    1    2    0    0 -0.13157640736E+03 -0.30346620553E+02 -0.61547345839E+02  0.19402665830E+03  0.12500000000E+03 0.  0.
</event>
<event>
 5    0  0.5641283E-005  0.3337968E+03  0.7546771E-02  0.1069469E+00
         21   -1    0    0  502  501  0.00000000000E+00  0.00000000000E+00  0.71146449947E+02  0.71146449947E+02  0.00000000000E+00 0. -1.
         21   -1    0    0  501  502 -0.00000000000E+00 -0.00000000000E+00 -0.15660695554E+04  0.15660695554E+04  0.00000000000E+00 0. -1.
         25    1    1    2    0    0 -0.57740549916E+02 -0.64466236937E+01 -0.75479433767E+02  0.15715493942E+03  0.12500000000E+03 0.  0.
         25    1    1    2    0    0 -0.12738479524E+03 -0.38427520350E+02 -0.48441481850E+03  0.51767390968E+03  0.12500000000E+03 0.  0.
         25    1    1    2    0    0  0.18512534516E+03  0.44874144044E+02 -0.93502885318E+03  0.96238715625E+03  0.12500000000E+03 0.  0.
</event>
<event>
 5    0  0.5641283E-005  0.3128299E+03  0.7546771E-02  0.1078997E+00
         21   -1    0    0  502  501  0.00000000000E+00  0.00000000000E+00  0.69103594233E+02  0.69103594233E+02  0.00000000000E+00 0. -1.
         21   -1    0    0  501  502 -0.00000000000E+00 -0.00000000000E+00 -0.14161715764E+04  0.14161715764E+04  0.00000000000E+00 0. -1.
         25    1    1    2    0    0  0.97462368003E+01 -0.52977379403E+02 -0.51484029433E+03  0.53252898562E+03  0.12500000000E+03 0.  0.
         25    1    1    2    0    0 -0.16091514397E+03 -0.86488513603E+02 -0.35725512752E+03  0.42027392577E+03  0.12500000000E+03 0.  0.
         25    1    1    2    0    0  0.15116890717E+03  0.13946589301E+03 -0.47497256031E+03  0.53247225923E+03  0.12500000000E+03 0.  0.
</event>
<event>
 5    0  0.5641283E-005  0.3043342E+03  0.7546771E-02  0.1083094E+00
         21   -1    0    0  502  501  0.00000000000E+00  0.00000000000E+00  0.21808559193E+03  0.21808559193E+03  0.00000000000E+00 0.  1.
         21   -1    0    0  501  502 -0.00000000000E+00 -0.00000000000E+00 -0.42469242947E+03  0.42469242947E+03  0.00000000000E+00 0.  1.
         25    1    1    2    0    0  0.59503961037E+02  0.10392325214E+03 -0.17668613819E+03  0.24735350239E+03  0.12500000000E+03 0.  0.
         25    1    1    2    0    0  0.23290706789E+02  0.21596465142E+02  0.97808529768E+02  0.16186529222E+03  0.12500000000E+03 0.  0.
         25    1    1    2    0    0 -0.82794667826E+02 -0.12551971728E+03 -0.12772922912E+03  0.23355922679E+03  0.12500000000E+03 0.  0.
</event>
<event>
 5    0  0.5641283E-005  0.2890304E+03  0.7546771E-02  0.1090856E+00
         21   -1    0    0  502  501  0.00000000000E+00  0.00000000000E+00  0.80034893999E+03  0.80034893999E+03  0.00000000000E+00 0.  1.
         21   -1    0    0  501  502 -0.00000000000E+00 -0.00000000000E+00 -0.10437766538E+03  0.10437766538E+03  0.00000000000E+00 0.  1.
         25    1    1    2    0    0 -0.46241041954E+02 -0.19075249193E+03  0.36206489801E+03  0.43039602404E+03  0.12500000000E+03 0.  0.
         25    1    1    2    0    0 -0.20952586755E+02  0.99245376347E+02  0.21139742826E+03  0.26571136275E+03  0.12500000000E+03 0.  0.
         25    1    1    2    0    0  0.67193628709E+02  0.91507115581E+02  0.12250894834E+03  0.20861921859E+03  0.12500000000E+03 0.  0.
</event>
<event>
 5    0  0.5641283E-005  0.5161502E+03  0.7546771E-02  0.1009647E+00
         21   -1    0    0  502  501  0.00000000000E+00  0.00000000000E+00  0.16636016642E+04  0.16636016642E+04  0.00000000000E+00 0. -1.
         21   -1    0    0  501  502 -0.00000000000E+00 -0.00000000000E+00 -0.16014113663E+03  0.16014113663E+03  0.00000000000E+00 0. -1.
         25    1    1    2    0    0 -0.16106221272E+03 -0.12427256791E+02  0.41184716439E+03  0.45971573814E+03  0.12500000000E+03 0.  0.
         25    1    1    2    0    0 -0.12464369653E+02 -0.18003381992E+03 -0.15563019680E+02  0.22007895040E+03  0.12500000000E+03 0.  0.
         25    1    1    2    0    0  0.17352658238E+03  0.19246107671E+03  0.11071763829E+04  0.11439481123E+04  0.12500000000E+03 0.  0.
</event>
<event>
 5    0  0.5641283E-005  0.3212989E+03  0.7546771E-02  0.1075053E+00
         21   -1    0    0  502  501  0.00000000000E+00  0.00000000000E+00  0.22243911806E+03  0.22243911806E+03  0.00000000000E+00 0. -1.
         21   -1    0    0  501  502 -0.00000000000E+00 -0.00000000000E+00 -0.46409557620E+03  0.46409557620E+03  0.00000000000E+00 0. -1.
         25    1    1    2    0    0  0.66908511573E+02 -0.31773283955E+02  0.65739701398E+02  0.15947726745E+03  0.12500000000E+03 0.  0.
         25    1    1    2    0    0  0.65425675286E+02 -0.20389607461E+02  0.24786613603E+02  0.14469150387E+03  0.12500000000E+03 0.  0.
         25    1    1    2    0    0 -0.13233418686E+03  0.52162891416E+02 -0.33218277314E+03  0.38236592294E+03  0.12500000000E+03 0.  0.
</event>
<event>
 5    0  0.5641283E-005  0.3939077E+03  0.7546771E-02  0.1045910E+00
         21   -1    0    0  502  501  0.00000000000E+00  0.00000000000E+00  0.12171557712E+04  0.12171557712E+04  0.00000000000E+00 0. -1.
         21   -1    0    0  501  502 -0.00000000000E+00 -0.00000000000E+00 -0.12748018974E+03  0.12748018974E+03  0.00000000000E+00 0. -1.
         25    1    1    2    0    0  0.38809235299E+02  0.15842344448E+02  0.36587300769E+02  0.13682385464E+03  0.12500000000E+03 0.  0.
         25    1    1    2    0    0 -0.12469172760E+03 -0.24793514081E+03  0.44078961473E+03  0.53566812994E+03  0.12500000000E+03 0.  0.
         25    1    1    2    0    0  0.85882492297E+02  0.23209279636E+03  0.61229866593E+03  0.67214397632E+03  0.12500000000E+03 0.  0.
</event>
<event>
 5    0  0.5641283E-005  0.2846413E+03  0.7546771E-02  0.1093181E+00
         21   -1    0    0  502  501  0.00000000000E+00  0.00000000000E+00  0.83896837406E+02  0.83896837406E+02  0.00000000000E+00 0. -1.
         21   -1    0    0  501  502 -0.00000000000E+00 -0.00000000000E+00 -0.96571751596E+03  0.96571751596E+03  0.00000000000E+00 0. -1.
         25    1    1    2    0    0  0.13458097070E+03  0.76939919063E+02 -0.26942949816E+03  0.33503588360E+03  0.12500000000E+03 0.  0.
         25    1    1    2    0    0 -0.12096414719E+03 -0.13052183156E+03 -0.27530667928E+03  0.35083762779E+03  0.12500000000E+03 0.  0.
         25    1    1    2    0    0 -0.13616823506E+02  0.53581912493E+02 -0.33708450112E+03  0.36374084198E+03  0.12500000000E+03 0.  0.
</event>
<event>
 5    0  0.5641283E-005  0.2429560E+03  0.7546771E-02  0.1117839E+00
         21   -1    0    0  502  501  0.00000000000E+00  0.00000000000E+00  0.51950808936E+03  0.51950808936E+03  0.00000000000E+00 0.  1.
         21   -1    0    0  501  502 -0.00000000000E+00 -0.00000000000E+00 -0.11362217775E+03  0.11362217775E+03  0.00000000000E+00 0.  1.
         25    1    1    2    0    0 -0.42022805254E+02  0.10451862033E+03  0.16350634193E+03  0.23462604717E+03  0.12500000000E+03 0.  0.
         25    1    1    2    0    0  0.65421828875E+02 -0.69514302738E+02  0.49593888658E+02  0.16491454687E+03  0.12500000000E+03 0.  0.
         25    1    1    2    0    0 -0.23399023621E+02 -0.35004317594E+02  0.19278568102E+03  0.23358967307E+03  0.12500000000E+03 0.  0.
</event>
<event>
 5    0  0.5641283E-005  0.2560818E+03  0.7546771E-02  0.1109520E+00
         21   -1    0    0  502  501  0.00000000000E+00  0.00000000000E+00  0.30164740022E+02  0.30164740022E+02  0.00000000000E+00 0. -1.
         21   -1    0    0  501  502 -0.00000000000E+00 -0.00000000000E+00 -0.21739922070E+04  0.21739922070E+04  0.00000000000E+00 0. -1.
         25    1    1    2    0    0 -0.98792166575E+02  0.10670111593E+03 -0.10442234438E+04  0.10616838611E+04  0.12500000000E+03 0.  0.
         25    1    1    2    0    0  0.10684724431E+03 -0.45555798021E+02 -0.60759111081E+03  0.63109715756E+03  0.12500000000E+03 0.  0.
         25    1    1    2    0    0 -0.80550777348E+01 -0.61145317904E+02 -0.49201291241E+03  0.51137592841E+03  0.12500000000E+03 0.  0.
</event>
<event>
 5    0  0.5641283E-005  0.5791859E+03  0.7546771E-02  0.9949555E-01
         21   -1    0    0  502  501  0.00000000000E+00  0.00000000000E+00  0.30857480083E+03  0.30857480083E+03  0.00000000000E+00 0. -1.
         21   -1    0    0  501  502 -0.00000000000E+00 -0.00000000000E+00 -0.10871150864E+04  0.10871150864E+04  0.00000000000E+00 0. -1.
         25    1    1    2    0    0  0.10725812527E+02 -0.29311150819E+02 -0.24827304235E+03  0.27971179842E+03  0.12500000000E+03 0.  0.
         25    1    1    2    0    0 -0.20846058693E+03 -0.27349841361E+03  0.99401150873E+02  0.37916063528E+03  0.12500000000E+03 0.  0.
         25    1    1    2    0    0  0.19773477440E+03  0.30280956443E+03 -0.62966839413E+03  0.73681745357E+03  0.12500000000E+03 0.  0.
</event>
<event>
 5    0  0.5641283E-005  0.2164575E+03  0.7546771E-02  0.1136552E+00
         21   -1    0    0  502  501  0.00000000000E+00  0.00000000000E+00  0.58921832692E+03  0.58921832692E+03  0.00000000000E+00 0.  1.
         21   -1    0    0  501  502 -0.00000000000E+00 -0.00000000000E+00 -0.79518631363E+02  0.79518631363E+02  0.00000000000E+00 0.  1.
         25    1    1    2    0    0 -0.89040965408E+01 -0.29313732945E+02  0.20882109407E+03  0.24529538765E+03  0.12500000000E+03 0.  0.
         25    1    1    2    0    0 -0.27207416900E+02  0.38402364773E+02  0.24999516475E+03  0.28343882506E+03  0.12500000000E+03 0.  0.
         25    1    1    2    0    0  0.36111513440E+02 -0.90886318287E+01  0.50883436730E+02  0.14000274556E+03  0.12500000000E+03 0.  0.
</event>
<event>
 5    0  0.5641283E-005  0.3740515E+03  0.7546771E-02  0.1053155E+00
         21   -1    0    0  502  501  0.00000000000E+00  0.00000000000E+00  0.46598456343E+03  0.46598456343E+03  0.00000000000E+00 0.  1.
         21   -1    0    0  501  502 -0.00000000000E+00 -0.00000000000E+00 -0.30025565663E+03  0.30025565663E+03  0.00000000000E+00 0.  1.
         25    1    1    2    0    0 -0.20114915443E+02 -0.51452976731E+02 -0.96760075186E+02  0.16745008447E+03  0.12500000000E+03 0.  0.
         25    1    1    2    0    0 -0.96415796693E+02 -0.83195983217E+02  0.32643255557E+03  0.37202256761E+03  0.12500000000E+03 0.  0.
         25    1    1    2    0    0  0.11653071214E+03  0.13464895995E+03 -0.63943573584E+02  0.22676756798E+03  0.12500000000E+03 0.  0.
</event>
<event>
 5    0  0.5927968E-005  0.3258195E+03  0.7546771E-02  0.1073002E+00
         21   -1    0    0  502  501  0.00000000000E+00  0.00000000000E+00  0.14530090547E+03  0.14530090547E+03  0.00000000000E+00 0.  1.
         21   -1    0    0  501  502 -0.00000000000E+00 -0.00000000000E+00 -0.73061017726E+03  0.73061017726E+03  0.00000000000E+00 0.  1.
         25    1    1    2    0    0 -0.45764499459E+02 -0.93980044030E+02  0.61246368844E+01  0.16306179584E+03  0.12500000000E+03 0.  0.
         25    1    1    2    0    0 -0.11670680418E+03  0.42536931580E+01 -0.21278112043E+03  0.27301900530E+03  0.12500000000E+03 0.  0.
         25    1    1    2    0    0  0.16247130364E+03  0.89726350872E+02 -0.37865278825E+03  0.43983028158E+03  0.12500000000E+03 0.  0.
</event>
<event>
 5    0  0.5641283E-005  0.2969557E+03  0.7546771E-02  0.1086772E+00
         21   -1    0    0  502  501  0.00000000000E+00  0.00000000000E+00  0.31184616953E+03  0.31184616953E+03  0.00000000000E+00 0.  1.
         21   -1    0    0  501  502 -0.00000000000E+00 -0.00000000000E+00 -0.28277624300E+03  0.28277624300E+03  0.00000000000E+00 0.  1.
         25    1    1    2    0    0 -0.15902628386E+03  0.14503752662E+03  0.30848515392E+02  0.25080246009E+03  0.12500000000E+03 0.  0.
         25    1    1    2    0    0  0.29234608757E+02 -0.76762017451E+02 -0.16926872548E+02  0.15052770073E+03  0.12500000000E+03 0.  0.
         25    1    1    2    0    0  0.12979167510E+03 -0.68275509164E+02  0.15148283687E+02  0.19329225172E+03  0.12500000000E+03 0.  0.
</event>
<event>
 5    0  0.5641283E-005  0.2922076E+03  0.7546771E-02  0.1089202E+00
         21   -1    0    0  502  501  0.00000000000E+00  0.00000000000E+00  0.12769638237E+04  0.12769638237E+04  0.00000000000E+00 0.  1.
         21   -1    0    0  501  502 -0.00000000000E+00 -0.00000000000E+00 -0.66865862784E+02  0.66865862784E+02  0.00000000000E+00 0. -1.
         25    1    1    2    0    0 -0.13903817180E+02  0.10382283795E+03  0.53290079185E+03  0.55729772274E+03  0.12500000000E+03 0.  0.
         25    1    1    2    0    0  0.27761583370E+02 -0.15782695760E+03  0.18216585685E+03  0.27292756083E+03  0.12500000000E+03 0.  0.
         25    1    1    2    0    0 -0.13857766191E+02  0.54004119652E+02  0.49503131222E+03  0.51360440292E+03  0.12500000000E+03 0.  0.
</event>
<event>
 5    0  0.5641283E-005  0.3271308E+03  0.7546771E-02  0.1072413E+00
         21   -1    0    0  502  501  0.00000000000E+00  0.00000000000E+00  0.11044821262E+04  0.11044821262E+04  0.00000000000E+00 0. -1.
         21   -1    0    0  501  502 -0.00000000000E+00 -0.00000000000E+00 -0.96891187221E+02  0.96891187221E+02  0.00000000000E+00 0. -1.
         25    1    1    2    0    0 -0.47159232122E+02  0.19102587226E+03  0.53725183157E+03  0.58564443784E+03  0.12500000000E+03 0.  0.
         25    1    1    2    0    0 -0.52468606437E+02  0.14945162731E+02  0.17229267195E+03  0.21974093237E+03  0.12500000000E+03 0.  0.
         25    1    1    2    0    0  0.99627838559E+02 -0.20597103499E+03  0.29804643542E+03  0.39598794317E+03  0.12500000000E+03 0.  0.
</event>
<event>
 5    0  0.5641283E-005  0.2675454E+03  0.7546771E-02  0.1102693E+00
         21   -1    0    0  502  501  0.00000000000E+00  0.00000000000E+00  0.13244132199E+03  0.13244132199E+03  0.00000000000E+00 0. -1.
         21   -1    0    0  501  502 -0.00000000000E+00 -0.00000000000E+00 -0.54046984425E+03  0.54046984425E+03  0.00000000000E+00 0. -1.
         25    1    1    2    0    0 -0.87832967672E+02  0.10785694918E+03 -0.64829848010E+02  0.19792842365E+03  0.12500000000E+03 0.  0.
         25    1    1    2    0    0  0.10929371100E+03 -0.24549904036E+02 -0.12532021003E+03  0.20947068553E+03  0.12500000000E+03 0.  0.
         25    1    1    2    0    0 -0.21460743324E+02 -0.83307045145E+02 -0.21787846421E+03  0.26551205706E+03  0.12500000000E+03 0.  0.
</event>
<event>
 5    0  0.5876643E-005  0.4968714E+03  0.7546771E-02  0.1014599E+00
         21   -1    0    0  502  501  0.00000000000E+00  0.00000000000E+00  0.51238006088E+03  0.51238006088E+03  0.00000000000E+00 0. -1.
         21   -1    0    0  501  502 -0.00000000000E+00 -0.00000000000E+00 -0.48183213810E+03  0.48183213810E+03  0.00000000000E+00 0. -1.
         25    1    1    2    0    0 -0.51018947016E+01  0.12522728369E+03  0.32191772971E+03  0.36737436848E+03  0.12500000000E+03 0.  0.
         25    1    1    2    0    0 -0.15229941049E+03  0.11340647769E+03 -0.51013149375E+02  0.23298815641E+03  0.12500000000E+03 0.  0.
         25    1    1    2    0    0  0.15740130519E+03 -0.23863376139E+03 -0.24035665756E+03  0.39384967409E+03  0.12500000000E+03 0.  0.
</event>
<event>
 5    0  0.5641283E-005  0.2674670E+03  0.7546771E-02  0.1102738E+00
         21   -1    0    0  502  501  0.00000000000E+00  0.00000000000E+00  0.11728799799E+04  0.11728799799E+04  0.00000000000E+00 0. -1.
         21   -1    0    0  501  502 -0.00000000000E+00 -0.00000000000E+00 -0.60993945434E+02  0.60993945434E+02  0.00000000000E+00 0. -1.
         25    1    1    2    0    0 -0.40626658746E+01  0.84984647547E+02  0.19319174171E+03  0.24533027665E+03  0.12500000000E+03 0.  0.
         25    1    1    2    0    0  0.67011815064E+02 -0.11446944303E+03  0.72624008261E+03  0.74876130665E+03  0.12500000000E+03 0.  0.
         25    1    1    2    0    0 -0.62949149189E+02  0.29484795479E+02  0.19245421010E+03  0.23978234199E+03  0.12500000000E+03 0.  0.
</event>
<event>
 5    0  0.5641283E-005  0.3339388E+03  0.7546771E-02  0.1069407E+00
         21   -1    0    0  502  501  0.00000000000E+00  0.00000000000E+00  0.20404550142E+03  0.20404550142E+03  0.00000000000E+00 0.  1.
         21   -1    0    0  501  502 -0.00000000000E+00 -0.00000000000E+00 -0.54652092862E+03  0.54652092862E+03  0.00000000000E+00 0.  1.
         25    1    1    2    0    0  0.71712384249E+02  0.71123188319E+02 -0.37173652802E+03  0.40498669143E+03  0.12500000000E+03 0.  0.
         25    1    1    2    0    0 -0.41273970011E+02  0.66751291679E+02 -0.24214804902E+02  0.14956815275E+03  0.12500000000E+03 0.  0.
         25    1    1    2    0    0 -0.30438414239E+02 -0.13787448000E+03  0.53475905718E+02  0.19601158585E+03  0.12500000000E+03 0.  0.
</event>
<event>
 5    0  0.5641283E-005  0.3310685E+03  0.7546771E-02  0.1070665E+00
         21   -1    0    0  502  501  0.00000000000E+00  0.00000000000E+00  0.43755343435E+03  0.43755343435E+03  0.00000000000E+00 0. -1.
         21   -1    0    0  501  502 -0.00000000000E+00 -0.00000000000E+00 -0.25049826096E+03  0.25049826096E+03  0.00000000000E+00 0. -1.
         25    1    1    2    0    0  0.97397580151E+02 -0.78003254883E+02 -0.61553974621E+02  0.18704194231E+03  0.12500000000E+03 0.  0.
         25    1    1    2    0    0  0.47844167543E+02  0.15540497217E+03  0.43141084688E+02  0.20958512097E+03  0.12500000000E+03 0.  0.
         25    1    1    2    0    0 -0.14524174769E+03 -0.77401717289E+02  0.20546806332E+03  0.29142463203E+03  0.12500000000E+03 0.  0.
</event>
<event>
 5    0  0.5641283E-005  0.4483194E+03  0.7546771E-02  0.1028224E+00
         21   -1    0    0  502  501  0.00000000000E+00  0.00000000000E+00  0.19944945936E+03  0.19944945936E+03  0.00000000000E+00 0. -1.
         21   -1    0    0  501  502 -0.00000000000E+00 -0.00000000000E+00 -0.10077254677E+04  0.10077254677E+04  0.00000000000E+00 0. -1.
         25    1    1    2    0    0  0.17570270408E+03 -0.32301405371E+03 -0.47320573887E+03  0.61217496716E+03  0.12500000000E+03 0.  0.
         25    1    1    2    0    0  0.90280015835E+01  0.16322535209E+03 -0.20810129170E+03  0.29266904173E+03  0.12500000000E+03 0.  0.
         25    1    1    2    0    0 -0.18473070567E+03  0.15978870162E+03 -0.12696897780E+03  0.30233091821E+03  0.12500000000E+03 0.  0.
</event>
<event>
 5    0  0.5641283E-005  0.3595822E+03  0.7546771E-02  0.1058749E+00
         21   -1    0    0  502  501  0.00000000000E+00  0.00000000000E+00  0.43631925069E+03  0.43631925069E+03  0.00000000000E+00 0.  1.
         21   -1    0    0  501  502 -0.00000000000E+00 -0.00000000000E+00 -0.29634115038E+03  0.29634115038E+03  0.00000000000E+00 0.  1.
         25    1    1    2    0    0  0.48148275740E+02  0.39453023585E+02  0.21781767061E+03  0.25873603375E+03  0.12500000000E+03 0.  0.
         25    1    1    2    0    0 -0.64678949964E+02  0.65409162135E+02 -0.21151833144E+03  0.26234848883E+03  0.12500000000E+03 0.  0.
         25    1    1    2    0    0  0.16530674224E+02 -0.10486218572E+03  0.13367876113E+03  0.21157587850E+03  0.12500000000E+03 0.  0.
</event>
<event>
 5    0  0.5641283E-005  0.2116180E+03  0.7546771E-02  0.1140291E+00
         21   -1    0    0  502  501  0.00000000000E+00  0.00000000000E+00  0.59485174432E+02  0.59485174432E+02  0.00000000000E+00 0. -1.
         21   -1    0    0  501  502 -0.00000000000E+00 -0.00000000000E+00 -0.75282898374E+03  0.75282898374E+03  0.00000000000E+00 0. -1.
         25    1    1    2    0    0 -0.40597241609E+02 -0.53307386152E+02 -0.18800849321E+03  0.23550373026E+03  0.12500000000E+03 0.  0.
         25    1    1    2    0    0  0.58196060792E+02  0.59404908558E+02 -0.24337883060E+03  0.28596150062E+03  0.12500000000E+03 0.  0.
         25    1    1    2    0    0 -0.17598819183E+02 -0.60975224056E+01 -0.26195648550E+03  0.29084892730E+03  0.12500000000E+03 0.  0.
</event>
<event>
 5    0  0.8492670E-005  0.2739901E+03  0.7546771E-02  0.1099017E+00
         21   -1    0    0  502  501  0.00000000000E+00  0.00000000000E+00  0.34276903161E+03  0.34276903161E+03  0.00000000000E+00 0.  1.
         21   -1    0    0  501  502 -0.00000000000E+00 -0.00000000000E+00 -0.21901215177E+03  0.21901215177E+03  0.00000000000E+00 0.  1.
         25    1    1    2    0    0 -0.48547318983E+02  0.57104610379E+02  0.13331021679E+03  0.19752061312E+03  0.12500000000E+03 0.  0.
         25    1    1    2    0    0 -0.73693035459E+02  0.56378629145E+02 -0.19961305232E+01  0.15568621595E+03  0.12500000000E+03 0.  0.
         25    1    1    2    0    0  0.12224035444E+03 -0.11348323952E+03 -0.75572064237E+01  0.20857435431E+03  0.12500000000E+03 0.  0.
</event>
<event>
 5    0  0.5641283E-005  0.2873104E+03  0.7546771E-02  0.1091762E+00
         21   -1    0    0  502  501  0.00000000000E+00  0.00000000000E+00  0.23703123504E+04  0.23703123504E+04  0.00000000000E+00 0. -1.
         21   -1    0    0  501  502 -0.00000000000E+00 -0.00000000000E+00 -0.34825473171E+02  0.34825473171E+02  0.00000000000E+00 0. -1.
         25    1    1    2    0    0  0.46559226607E+02 -0.14603135050E+03  0.44711133403E+03  0.48890332575E+03  0.12500000000E+03 0.  0.
         25    1    1    2    0    0 -0.85057777206E+02  0.11629703836E+03  0.11692224447E+04  0.11846796832E+04  0.12500000000E+03 0.  0.
         25    1    1    2    0    0  0.38498550599E+02  0.29734312142E+02  0.71915309847E+03  0.73155481460E+03  0.12500000000E+03 0.  0.
</event>
<event>
 5    0  0.5641283E-005  0.2586050E+03  0.7546771E-02  0.1107984E+00
         21   -1    0    0  502  501  0.00000000000E+00  0.00000000000E+00  0.17343698443E+04  0.17343698443E+04  0.00000000000E+00 0. -1.
         21   -1    0    0  501  502 -0.00000000000E+00 -0.00000000000E+00 -0.38559564730E+02  0.38559564730E+02  0.00000000000E+00 0. -1.
         25    1    1    2    0    0  0.61361106819E+02  0.45093448175E+02  0.89433850511E+03  0.90623670540E+03  0.12500000000E+03 0.  0.
         25    1    1    2    0    0 -0.25971729893E+00 -0.11574042126E+02  0.13226632157E+03  0.18235516369E+03  0.12500000000E+03 0.  0.
         25    1    1    2    0    0 -0.61101389520E+02 -0.33519406049E+02  0.66920545292E+03  0.68433753996E+03  0.12500000000E+03 0.  0.
</event>
<event>
 5    0  0.6007803E-005  0.3241825E+03  0.7546771E-02  0.1073740E+00
         21   -1    0    0  502  501  0.00000000000E+00  0.00000000000E+00  0.72453166874E+03  0.72453166874E+03  0.00000000000E+00 0.  1.
         21   -1    0    0  501  502 -0.00000000000E+00 -0.00000000000E+00 -0.14505130555E+03  0.14505130555E+03  0.00000000000E+00 0.  1.
         25    1    1    2    0    0  0.19716427805E+03  0.54050681921E+02  0.38672972760E+03  0.45495066872E+03  0.12500000000E+03 0.  0.
         25    1    1    2    0    0 -0.12140003958E+03 -0.28602752276E+02  0.19910695405E+03  0.26612904050E+03  0.12500000000E+03 0.  0.
         25    1    1    2    0    0 -0.75764238467E+02 -0.25447929645E+02 -0.63563184572E+01  0.14850326508E+03  0.12500000000E+03 0.  0.
</event>
<event>
 5    0  0.5641283E-005  0.3591917E+03  0.7546771E-02  0.1058904E+00
         21   -1    0    0  502  501  0.00000000000E+00  0.00000000000E+00  0.21497405592E+03  0.21497405592E+03  0.00000000000E+00 0.  1.
         21   -1    0    0  501  502 -0.00000000000E+00 -0.00000000000E+00 -0.60015912766E+03  0.60015912766E+03  0.00000000000E+00 0.  1.
         25    1    1    2    0    0 -0.77915516323E+02 -0.61340738505E+02  0.68352304607E+01  0.15970358249E+03  0.12500000000E+03 0.  0.
         25    1    1    2    0    0 -0.15347824058E+03 -0.93326892574E+02 -0.14096351117E+03  0.26030979753E+03  0.12500000000E+03 0.  0.
         25    1    1    2    0    0  0.23139375691E+03  0.15466763108E+03 -0.25105679104E+03  0.39511980356E+03  0.12500000000E+03 0.  0.
</event>
<event>
 5    0  0.5641283E-005  0.3072937E+03  0.7546771E-02  0.1081650E+00
         21   -1    0    0  502  501  0.00000000000E+00  0.00000000000E+00  0.60830597326E+03  0.60830597326E+03  0.00000000000E+00 0.  1.
         21   -1    0    0  501  502 -0.00000000000E+00 -0.00000000000E+00 -0.15523347096E+03  0.15523347096E+03  0.00000000000E+00 0.  1.
         25    1    1    2    0    0  0.11274225473E+03 -0.75676310423E+01  0.13371545412E+03  0.21511138443E+03  0.12500000000E+03 0.  0.
         25    1    1    2    0    0 -0.92878155553E+02 -0.11804959888E+03  0.31422224576E+03  0.37003064644E+03  0.12500000000E+03 0.  0.
         25    1    1    2    0    0 -0.19864099179E+02  0.12561722992E+03  0.51348024129E+01  0.17839741334E+03  0.12500000000E+03 0.  0.
</event>
<event>
 5    0  0.5641283E-005  0.3136696E+03  0.7546771E-02  0.1078600E+00
         21   -1    0    0  502  501  0.00000000000E+00  0.00000000000E+00  0.76277151218E+03  0.76277151218E+03  0.00000000000E+00 0.  1.
         21   -1    0    0  501  502 -0.00000000000E+00 -0.00000000000E+00 -0.12898828757E+03  0.12898828757E+03  0.00000000000E+00 0.  1.
         25    1    1    2    0    0 -0.42295293660E+02 -0.39260393969E+02 -0.21750129967E+02  0.13938557513E+03  0.12500000000E+03 0.  0.
         25    1    1    2    0    0 -0.12228491805E+02  0.10772886575E+03  0.52857398026E+03  0.55386866415E+03  0.12500000000E+03 0.  0.
         25    1    1    2    0    0  0.54523785465E+02 -0.68468471786E+02  0.12695937431E+03  0.19850556047E+03  0.12500000000E+03 0.  0.
</event>
<event>
 5    0  0.5641283E-005  0.2917749E+03  0.7546771E-02  0.1089426E+00
         21   -1    0    0  502  501  0.00000000000E+00  0.00000000000E+00  0.44500625146E+02  0.44500625146E+02  0.00000000000E+00 0. -1.
         21   -1    0    0  501  502 -0.00000000000E+00 -0.00000000000E+00 -0.19130648275E+04  0.19130648275E+04  0.00000000000E+00 0. -1.
         25    1    1    2    0    0  0.10540826084E+03 -0.34022554961E+02 -0.42546495809E+03  0.45707096414E+03  0.12500000000E+03 0.  0.
         25    1    1    2    0    0 -0.97013976913E+02 -0.93389260954E+02 -0.37546035692E+03  0.41800567628E+03  0.12500000000E+03 0.  0.
         25    1    1    2    0    0 -0.83942839283E+01  0.12741181592E+03 -0.10676388874E+04  0.10824888122E+04  0.12500000000E+03 0.  0.
</event>
<event>
 5    0  0.5641283E-005  0.3036232E+03  0.7546771E-02  0.1083443E+00
         21   -1    0    0  502  501  0.00000000000E+00  0.00000000000E+00  0.10145797845E+04  0.10145797845E+04  0.00000000000E+00 0. -1.
         21   -1    0    0  501  502 -0.00000000000E+00 -0.00000000000E+00 -0.90862309868E+02  0.90862309868E+02  0.00000000000E+00 0. -1.
         25    1    1    2    0    0  0.13220124153E+03 -0.98808601575E+02  0.35197793704E+03  0.40835496345E+03  0.12500000000E+03 0.  0.
         25    1    1    2    0    0 -0.21501157435E+02  0.36155988880E+02  0.42436574214E+02  0.13854753023E+03  0.12500000000E+03 0.  0.
         25    1    1    2    0    0 -0.11070008410E+03  0.62652612694E+02  0.52930296339E+03  0.55853960070E+03  0.12500000000E+03 0.  0.
</event>
<event>
 5    0  0.5641283E-005  0.3320978E+03  0.7546771E-02  0.1070212E+00
         21   -1    0    0  502  501  0.00000000000E+00  0.00000000000E+00  0.72906738511E+02  0.72906738511E+02  0.00000000000E+00 0.  1.
         21   -1    0    0  501  502 -0.00000000000E+00 -0.00000000000E+00 -0.15127397826E+04  0.15127397826E+04  0.00000000000E+00 0.  1.
         25    1    1    2    0    0 -0.98406053540E+02 -0.46636141536E+02 -0.11077077076E+04  0.11200446627E+04  0.12500000000E+03 0.  0.
         25    1    1    2    0    0  0.22764712583E+02  0.98108646863E+02 -0.10922966530E+03  0.19416399901E+03  0.12500000000E+03 0.  0.
         25    1    1    2    0    0  0.75641340957E+02 -0.51472505328E+02 -0.22289567126E+03  0.27143785943E+03  0.12500000000E+03 0.  0.
</event>
<event>
 5    0  0.5950442E-005  0.4603687E+03  0.7546771E-02  0.1024674E+00
         21   -1    0    0  502  501  0.00000000000E+00  0.00000000000E+00  0.82490256205E+03  0.82490256205E+03  0.00000000000E+00 0.  1.
         21   -1    0    0  501  502 -0.00000000000E+00 -0.00000000000E+00 -0.25692652750E+03  0.25692652750E+03  0.00000000000E+00 0.  1.
         25    1    1    2    0    0 -0.40293270251E+02 -0.64323334342E+02  0.33740802947E+03  0.36773661406E+03  0.12500000000E+03 0.  0.
         25    1    1    2    0    0  0.21383239948E+03 -0.19494088793E+03  0.20716539717E+03  0.37718529484E+03  0.12500000000E+03 0.  0.
         25    1    1    2    0    0 -0.17353912923E+03  0.25926422227E+03  0.23402607913E+02  0.33690718066E+03  0.12500000000E+03 0.  0.
</event>
<event>
 5    0  0.5641283E-005  0.3291411E+03  0.7546771E-02  0.1071518E+00
         21   -1    0    0  502  501  0.00000000000E+00  0.00000000000E+00  0.13693410041E+03  0.13693410041E+03  0.00000000000E+00 0. -1.
         21   -1    0    0  501  502 -0.00000000000E+00 -0.00000000000E+00 -0.79113864449E+03  0.79113864449E+03  0.00000000000E+00 0. -1.
         25    1    1    2    0    0 -0.25732571884E+02 -0.97863210807E+02  0.45952917232E+02  0.16726040741E+03  0.12500000000E+03 0.  0.
         25    1    1    2    0    0  0.72811591031E+01 -0.16551815609E+02 -0.26871517247E+03  0.29691719687E+03  0.12500000000E+03 0.  0.
         25    1    1    2    0    0  0.18451412781E+02  0.11441502642E+03 -0.43144228884E+03  0.46389514063E+03  0.12500000000E+03 0.  0.
</event>
<event>
 5    0  0.5641283E-005  0.2567830E+03  0.7546771E-02  0.1109092E+00
         21   -1    0    0  502  501  0.00000000000E+00  0.00000000000E+00  0.92677108177E+02  0.92677108177E+02  0.00000000000E+00 0. -1.
         21   -1    0    0  501  502 -0.00000000000E+00 -0.00000000000E+00 -0.71147556251E+03  0.71147556251E+03  0.00000000000E+00 0. -1.
         25    1    1    2    0    0 -0.80538722799E+02  0.35790906490E+02 -0.36034409475E+03  0.39145924626E+03  0.12500000000E+03 0.  0.
         25    1    1    2    0    0 -0.45604839570E+02 -0.50851338670E+02 -0.98186081398E+02  0.17300626179E+03  0.12500000000E+03 0.  0.
         25    1    1    2    0    0  0.12614356237E+03  0.15060432180E+02 -0.16026827818E+03  0.23968716264E+03  0.12500000000E+03 0.  0.
</event>
<event>
 5    0  0.5641283E-005  0.2836104E+03  0.7546771E-02  0.1093733E+00
         21   -1    0    0  502  501  0.00000000000E+00  0.00000000000E+00  0.62650756709E+02  0.62650756709E+02  0.00000000000E+00 0.  1.
         21   -1    0    0  501  502 -0.00000000000E+00 -0.00000000000E+00 -0.12838605175E+04  0.12838605175E+04  0.00000000000E+00 0.  1.
         25    1    1    2    0    0  0.59104814083E+02  0.48289027298E+02 -0.72386994084E+03  0.73853767707E+03  0.12500000000E+03 0.  0.
         25    1    1    2    0    0  0.45208600135E+02 -0.11278362481E+03 -0.25963989337E+03  0.31273285369E+03  0.12500000000E+03 0.  0.
         25    1    1    2    0    0 -0.10431341422E+03  0.64494597508E+02 -0.23769992660E+03  0.29524074346E+03  0.12500000000E+03 0.  0.
</event>
<event>
 5    0  0.5641283E-005  0.2893750E+03  0.7546771E-02  0.1090676E+00
         21   -1    0    0  502  501  0.00000000000E+00  0.00000000000E+00  0.10149486057E+04  0.10149486057E+04  0.00000000000E+00 0.  1.
         21   -1    0    0  501  502 -0.00000000000E+00 -0.00000000000E+00 -0.82504586908E+02  0.82504586908E+02  0.00000000000E+00 0.  1.
         25    1    1    2    0    0  0.88385732323E+02  0.73347209107E+02  0.67164456023E+03  0.69276494286E+03  0.12500000000E+03 0.  0.
         25    1    1    2    0    0  0.29024344849E+02 -0.20631433762E+02  0.11345465211E+03  0.17252543795E+03  0.12500000000E+03 0.  0.
         25    1    1    2    0    0 -0.11741007717E+03 -0.52715775345E+02  0.14734480641E+03  0.23216281177E+03  0.12500000000E+03 0.  0.
</event>
<event>
 5    0  0.5641283E-005  0.2502063E+03  0.7546771E-02  0.1113175E+00
         21   -1    0    0  502  501  0.00000000000E+00  0.00000000000E+00  0.21259471070E+04  0.21259471070E+04  0.00000000000E+00 0. -1.
         21   -1    0    0  501  502 -0.00000000000E+00 -0.00000000000E+00 -0.29447200450E+02  0.29447200450E+02  0.00000000000E+00 0. -1.
         25    1    1    2    0    0 -0.12617369455E+03  0.70952062059E+01  0.92573297737E+03  0.94264345781E+03  0.12500000000E+03 0.  0.
         25    1    1    2    0    0  0.11992029173E+03  0.29806472433E+02  0.51617277108E+03  0.54527849010E+03  0.12500000000E+03 0.  0.
         25    1    1    2    0    0  0.62534028164E+01 -0.36901678639E+02  0.65459415810E+03  0.66747235954E+03  0.12500000000E+03 0.  0.
</event>
<event>
 5    0  0.5641283E-005  0.2325105E+03  0.7546771E-02  0.1124885E+00
         21   -1    0    0  502  501  0.00000000000E+00  0.00000000000E+00  0.58445476852E+03  0.58445476852E+03  0.00000000000E+00 0.  1.
         21   -1    0    0  501  502 -0.00000000000E+00 -0.00000000000E+00 -0.92498415665E+02  0.92498415665E+02  0.00000000000E+00 0.  1.
         25    1    1    2    0    0 -0.68734601281E+01  0.38482817203E+02  0.33382956247E+02  0.13515766142E+03  0.12500000000E+03 0.  0.
         25    1    1    2    0    0 -0.64474733234E+01 -0.60907206598E+02  0.34060540345E+03  0.36795148945E+03  0.12500000000E+03 0.  0.
         25    1    1    2    0    0  0.13320933452E+02  0.22424389395E+02  0.11796799315E+03  0.17384403330E+03  0.12500000000E+03 0.  0.
</event>
<event>
 5    0  0.5641283E-005  0.2634121E+03  0.7546771E-02  0.1105110E+00
         21   -1    0    0  502  501  0.00000000000E+00  0.00000000000E+00  0.14954053271E+04  0.14954053271E+04  0.00000000000E+00 0. -1.
         21   -1    0    0  501  502 -0.00000000000E+00 -0.00000000000E+00 -0.46399424159E+02  0.46399424159E+02  0.00000000000E+00 0. -1.
         25    1    1    2    0    0  0.23288308875E+01 -0.41133690737E+02  0.90598157886E+02  0.15978244641E+03  0.12500000000E+03 0.  0.
         25    1    1    2    0    0  0.46461375720E+01  0.30080042083E+02  0.67265464066E+03  0.68484718085E+03  0.12500000000E+03 0.  0.
         25    1    1    2    0    0 -0.69749684595E+01  0.11053648655E+02  0.68575310441E+03  0.69717512401E+03  0.12500000000E+03 0.  0.
</event>
<event>
 5    0  0.5641283E-005  0.2980708E+03  0.7546771E-02  0.1086209E+00
         21   -1    0    0  502  501  0.00000000000E+00  0.00000000000E+00  0.51323555445E+03  0.51323555445E+03  0.00000000000E+00 0. -1.
         21   -1    0    0  501  502 -0.00000000000E+00 -0.00000000000E+00 -0.17311003786E+03  0.17311003786E+03  0.00000000000E+00 0. -1.
         25    1    1    2    0    0  0.81687639520E+02 -0.58573901838E+02 -0.40124183453E+02  0.16534425459E+03  0.12500000000E+03 0.  0.
         25    1    1    2    0    0 -0.97233598564E+02  0.22672843974E+02  0.53027801955E+02  0.16853895195E+03  0.12500000000E+03 0.  0.
         25    1    1    2    0    0  0.15545959044E+02  0.35901057864E+02  0.32722189809E+03  0.35246238578E+03  0.12500000000E+03 0.  0.
</event>
<event>
 5    0  0.5641283E-005  0.2479388E+03  0.7546771E-02  0.1114614E+00
         21   -1    0    0  502  501  0.00000000000E+00  0.00000000000E+00  0.15186215955E+03  0.15186215955E+03  0.00000000000E+00 0.  1.
         21   -1    0    0  501  502 -0.00000000000E+00 -0.00000000000E+00 -0.40479911365E+03  0.40479911365E+03  0.00000000000E+00 0.  1.
         25    1    1    2    0    0 -0.12442313918E+03  0.75945581176E+02 -0.10213178854E+03  0.21749655421E+03  0.12500000000E+03 0.  0.
         25    1    1    2    0    0  0.39885756144E+02  0.72920020190E+01 -0.68129341008E+02  0.14802247783E+03  0.12500000000E+03 0.  0.
         25    1    1    2    0    0  0.84537383040E+02 -0.83237583195E+02 -0.82675824547E+02  0.19114224115E+03  0.12500000000E+03 0.  0.
</event>
<event>
 5    0  0.5641283E-005  0.2373264E+03  0.7546771E-02  0.1121587E+00
         21   -1    0    0  502  501  0.00000000000E+00  0.00000000000E+00  0.18339113805E+03  0.18339113805E+03  0.00000000000E+00 0. -1.
         21   -1    0    0  501  502 -0.00000000000E+00 -0.00000000000E+00 -0.30712392427E+03  0.30712392427E+03  0.00000000000E+00 0. -1.
         25    1    1    2    0    0 -0.28602375628E+02  0.60196908917E+01 -0.12021043914E+03  0.17586893486E+03  0.12500000000E+03 0.  0.
         25    1    1    2    0    0 -0.62610706535E+01 -0.81727534401E+02 -0.49611045315E+02  0.15749554502E+03  0.12500000000E+03 0.  0.
         25    1    1    2    0    0  0.34863446282E+02  0.75707843509E+02  0.46088698231E+02  0.15715058244E+03  0.12500000000E+03 0.  0.
</event>
<event>
 5    0  0.5641283E-005  0.2815940E+03  0.7546771E-02  0.1094822E+00
         21   -1    0    0  502  501  0.00000000000E+00  0.00000000000E+00  0.59073215382E+03  0.59073215382E+03  0.00000000000E+00 0.  1.
         21   -1    0    0  501  502 -0.00000000000E+00 -0.00000000000E+00 -0.13423199388E+03  0.13423199388E+03  0.00000000000E+00 0.  1.
         25    1    1    2    0    0 -0.99168266307E+02 -0.16018573399E+02  0.33054002112E+03  0.36738623450E+03  0.12500000000E+03 0.  0.
         25    1    1    2    0    0  0.98001749767E+02  0.82614631480E+02  0.12054339044E+03  0.21583611670E+03  0.12500000000E+03 0.  0.
         25    1    1    2    0    0  0.11665165395E+01 -0.66596058081E+02  0.54167483823E+01  0.14174179650E+03  0.12500000000E+03 0.  0.
</event>
<event>
 5    0  0.5641283E-005  0.3440545E+03  0.7546771E-02  0.1065082E+00
         21   -1    0    0  502  501  0.00000000000E+00  0.00000000000E+00  0.24444198217E+03  0.24444198217E+03  0.00000000000E+00 0.  1.
         21   -1    0    0  501  502 -0.00000000000E+00 -0.00000000000E+00 -0.48426003682E+03  0.48426003682E+03  0.00000000000E+00 0.  1.
         25    1    1    2    0    0  0.12041890372E+03 -0.91058088231E+02 -0.59497034327E+02  0.20483453054E+03  0.12500000000E+03 0.  0.
         25    1    1    2    0    0 -0.24633885200E+03  0.10091768509E+03 -0.18256088711E+03  0.34615124826E+03  0.12500000000E+03 0.  0.
         25    1    1    2    0    0  0.12591994828E+03 -0.98595968621E+01  0.22398667851E+01  0.17771624019E+03  0.12500000000E+03 0.  0.
</event>
<event>
 5    0  0.5641283E-005  0.2733861E+03  0.7546771E-02  0.1099357E+00
         21   -1    0    0  502  501  0.00000000000E+00  0.00000000000E+00  0.71345354781E+02  0.71345354781E+02  0.00000000000E+00 0.  1.
         21   -1    0    0  501  502 -0.00000000000E+00 -0.00000000000E+00 -0.10475801459E+04  0.10475801459E+04  0.00000000000E+00 0.  1.
         25    1    1    2    0    0  0.11619799103E+03  0.32287842315E+02 -0.14115536059E+03  0.22381759025E+03  0.12500000000E+03 0.  0.
         25    1    1    2    0    0  0.95767827010E+01  0.60729867068E+01 -0.21420516615E+03  0.24826890490E+03  0.12500000000E+03 0.  0.
         25    1    1    2    0    0 -0.12577477374E+03 -0.38360829021E+02 -0.62087426443E+03  0.64683900558E+03  0.12500000000E+03 0.  0.
</event>
<event>
 5    0  0.5641283E-005  0.3039270E+03  0.7546771E-02  0.1083294E+00
         21   -1    0    0  502  501  0.00000000000E+00  0.00000000000E+00  0.30492752058E+03  0.30492752058E+03  0.00000000000E+00 0.  1.
         21   -1    0    0  501  502 -0.00000000000E+00 -0.00000000000E+00 -0.30292969007E+03  0.30292969007E+03  0.00000000000E+00 0.  1.
         25    1    1    2    0    0  0.13959015160E+02 -0.42000448039E+01 -0.40844610041E+02  0.13230939744E+03  0.12500000000E+03 0.  0.
         25    1    1    2    0    0 -0.10811638953E+03 -0.15726706600E+03  0.90949138751E+02  0.24559892013E+03  0.12500000000E+03 0.  0.
         25    1    1    2    0    0  0.94157374367E+02  0.16146711080E+03 -0.48106698206E+02  0.22994889308E+03  0.12500000000E+03 0.  0.
</event>
<event>
 5    0  0.6022284E-005  0.2918194E+03  0.7546771E-02  0.1089403E+00
         21   -1    0    0  502  501  0.00000000000E+00  0.00000000000E+00  0.13261353450E+04  0.13261353450E+04  0.00000000000E+00 0.  1.
         21   -1    0    0  501  502 -0.00000000000E+00 -0.00000000000E+00 -0.64215596777E+02  0.64215596777E+02  0.00000000000E+00 0.  1.
         25    1    1    2    0    0 -0.11751663638E+03 -0.13308444332E+03  0.51152045084E+03  0.55569758008E+03  0.12500000000E+03 0.  0.
         25    1    1    2    0    0  0.89239140765E+02  0.23465891881E+02  0.17023977430E+03  0.23047961532E+03  0.12500000000E+03 0.  0.
         25    1    1    2    0    0  0.28277495620E+02  0.10961855144E+03  0.58015952311E+03  0.60417374640E+03  0.12500000000E+03 0.  0.
</event>
<event>
 5    0  0.5641283E-005  0.3266684E+03  0.7546771E-02  0.1072621E+00
         21   -1    0    0  502  501  0.00000000000E+00  0.00000000000E+00  0.30112408831E+03  0.30112408831E+03  0.00000000000E+00 0.  1.
         21   -1    0    0  501  502 -0.00000000000E+00 -0.00000000000E+00 -0.35437953367E+03  0.35437953367E+03  0.00000000000E+00 0.  1.
         25    1    1    2    0    0  0.16969202300E+03  0.39274684852E+02 -0.77220580374E+02  0.22787255555E+03  0.12500000000E+03 0.  0.
         25    1    1    2    0    0 -0.51262522652E+00  0.98060016852E+02 -0.48612137615E+02  0.16614502585E+03  0.12500000000E+03 0.  0.
         25    1    1    2    0    0 -0.16917939777E+03 -0.13733470170E+03  0.72577272628E+02  0.26148604059E+03  0.12500000000E+03 0.  0.
</event>
<event>
 5    0  0.5641283E-005  0.3480422E+03  0.7546771E-02  0.1063421E+00
         21   -1    0    0  502  501  0.00000000000E+00  0.00000000000E+00  0.23080411510E+04  0.23080411510E+04  0.00000000000E+00 0. -1.
         21   -1    0    0  501  502 -0.00000000000E+00 -0.00000000000E+00 -0.52483187376E+02  0.52483187376E+02  0.00000000000E+00 0. -1.
         25    1    1    2    0    0 -0.65265880834E+02  0.11780073324E+03  0.72627414824E+03  0.74915671682E+03  0.12500000000E+03 0.  0.
         25    1    1    2    0    0 -0.46474121357E+01 -0.27070605521E+03  0.90557647228E+03  0.95341340137E+03  0.12500000000E+03 0.  0.
         25    1    1    2    0    0  0.69913292969E+02  0.15290532197E+03  0.62370734314E+03  0.65795422023E+03  0.12500000000E+03 0.  0.
</event>
<event>
 5    0  0.5641283E-005  0.2498719E+03  0.7546771E-02  0.1113386E+00
         21   -1    0    0  502  501  0.00000000000E+00  0.00000000000E+00  0.10185394883E+03  0.10185394883E+03  0.00000000000E+00 0.  1.
         21   -1    0    0  501  502 -0.00000000000E+00 -0.00000000000E+00 -0.61299504921E+03  0.61299504921E+03  0.00000000000E+00 0.  1.
         25    1    1    2    0    0  0.48890517955E+02 -0.34751587470E+02 -0.73452047547E+02  0.15690174909E+03  0.12500000000E+03 0.  0.
         25    1    1    2    0    0 -0.34664060939E+02  0.27843522005E+02 -0.36736869853E+02  0.13766428892E+03  0.12500000000E+03 0.  0.
         25    1    1    2    0    0 -0.14226457016E+02  0.69080654650E+01 -0.40095218298E+03  0.42028296002E+03  0.12500000000E+03 0.  0.
</event>
<event>
 5    0  0.5641283E-005  0.4990164E+03  0.7546771E-02  0.1014036E+00
         21   -1    0    0  502  501  0.00000000000E+00  0.00000000000E+00  0.68619713692E+03  0.68619713692E+03  0.00000000000E+00 0. -1.
         21   -1    0    0  501  502 -0.00000000000E+00 -0.00000000000E+00 -0.36289473299E+03  0.36289473299E+03  0.00000000000E+00 0. -1.
         25    1    1    2    0    0  0.11920038904E+03 -0.52746346022E+02 -0.10163025607E+03  0.20723083437E+03  0.12500000000E+03 0.  0.
         25    1    1    2    0    0 -0.29039887562E+03  0.25286030278E+03  0.12522294959E+03  0.42376364496E+03  0.12500000000E+03 0.  0.
         25    1    1    2    0    0  0.17119848658E+03 -0.20011395676E+03  0.29970971041E+03  0.41809739058E+03  0.12500000000E+03 0.  0.
</event>
<event>
 5    0  0.5641283E-005  0.3111202E+03  0.7546771E-02  0.1079810E+00
         21   -1    0    0  502  501  0.00000000000E+00  0.00000000000E+00  0.78735517105E+03  0.78735517105E+03  0.00000000000E+00 0. -1.
         21   -1    0    0  501  502 -0.00000000000E+00 -0.00000000000E+00 -0.12293785007E+03  0.12293785007E+03  0.00000000000E+00 0. -1.
         25    1    1    2    0    0 -0.96230043079E+02 -0.59426692859E+00  0.26784168035E+03  0.31084520276E+03  0.12500000000E+03 0.  0.
         25    1    1    2    0    0  0.11910563616E+03  0.20368404519E+02 -0.88819574601E+01  0.17408306534E+03  0.12500000000E+03 0.  0.
         25    1    1    2    0    0 -0.22875593083E+02 -0.19774137591E+02  0.40545759809E+03  0.42536475304E+03  0.12500000000E+03 0.  0.
</event>
<event>
 5    0  0.5641283E-005  0.3747211E+03  0.7546771E-02  0.1052902E+00
         21   -1    0    0  502  501  0.00000000000E+00  0.00000000000E+00  0.10339980964E+04  0.10339980964E+04  0.00000000000E+00 0.  1.
         21   -1    0    0  501  502 -0.00000000000E+00 -0.00000000000E+00 -0.13579898026E+03  0.13579898026E+03  0.00000000000E+00 0.  1.
         25    1    1    2    0    0  0.19534271953E+02  0.59087787609E+02  0.51953077853E+03  0.53796857182E+03  0.12500000000E+03 0.  0.
         25    1    1    2    0    0  0.48480062728E+02 -0.17113353947E+03  0.60042526493E+01  0.21748116209E+03  0.12500000000E+03 0.  0.
         25    1    1    2    0    0 -0.68014334681E+02  0.11204575186E+03  0.37266408498E+03  0.41434734278E+03  0.12500000000E+03 0.  0.
</event>
<event>
 5    0  0.5641283E-005  0.3100036E+03  0.7546771E-02  0.1080344E+00
         21   -1    0    0  502  501  0.00000000000E+00  0.00000000000E+00  0.95288128898E+02  0.95288128898E+02  0.00000000000E+00 0. -1.
         21   -1    0    0  501  502 -0.00000000000E+00 -0.00000000000E+00 -0.10085433882E+04  0.10085433882E+04  0.00000000000E+00 0. -1.
         25    1    1    2    0    0 -0.86130049585E+02  0.44073334380E+02 -0.14977350775E+03  0.21775662532E+03  0.12500000000E+03 0.  0.
         25    1    1    2    0    0 -0.88985423535E+02  0.10436132417E+03 -0.26963111414E+03  0.32731579445E+03  0.12500000000E+03 0.  0.
         25    1    1    2    0    0  0.17511547312E+03 -0.14843465855E+03 -0.49385063744E+03  0.55875909736E+03  0.12500000000E+03 0.  0.
</event>
<event>
 5    0  0.5641283E-005  0.2629477E+03  0.7546771E-02  0.1105385E+00
         21   -1    0    0  502  501  0.00000000000E+00  0.00000000000E+00  0.20724365508E+03  0.20724365508E+03  0.00000000000E+00 0.  1.
         21   -1    0    0  501  502 -0.00000000000E+00 -0.00000000000E+00 -0.33362406472E+03  0.33362406472E+03  0.00000000000E+00 0.  1.
         25    1    1    2    0    0 -0.79254945507E+01 -0.96933976123E+01 -0.17377334189E+03  0.21442702668E+03  0.12500000000E+03 0.  0.
         25    1    1    2    0    0  0.75793567655E+02 -0.25414184483E+02 -0.42766177583E+02  0.15441661703E+03  0.12500000000E+03 0.  0.
         25    1    1    2    0    0 -0.67868073105E+02  0.35107582096E+02  0.90159109831E+02  0.17202407609E+03  0.12500000000E+03 0.  0.
</event>
<event>
 5    0  0.5641283E-005  0.3461040E+03  0.7546771E-02  0.1064226E+00
         21   -1    0    0  502  501  0.00000000000E+00  0.00000000000E+00  0.97953996244E+03  0.97953996244E+03  0.00000000000E+00 0.  1.
         21   -1    0    0  501  502 -0.00000000000E+00 -0.00000000000E+00 -0.12229001269E+03  0.12229001269E+03  0.00000000000E+00 0.  1.
         25    1    1    2    0    0  0.22314328870E+03  0.71497463408E+02  0.32489438083E+03  0.41962623042E+03  0.12500000000E+03 0.  0.
         25    1    1    2    0    0 -0.13322576516E+03  0.38757572799E+02  0.42567650417E+03  0.46484055347E+03  0.12500000000E+03 0.  0.
         25    1    1    2    0    0 -0.89917523534E+02 -0.11025503621E+03  0.10667906475E+03  0.21736319123E+03  0.12500000000E+03 0.  0.
</event>
<event>
 5    0  0.5641283E-005  0.3594401E+03  0.7546771E-02  0.1058806E+00
         21   -1    0    0  502  501  0.00000000000E+00  0.00000000000E+00  0.34152807981E+03  0.34152807981E+03  0.00000000000E+00 0.  1.
         21   -1    0    0  501  502 -0.00000000000E+00 -0.00000000000E+00 -0.37829150448E+03  0.37829150448E+03  0.00000000000E+00 0.  1.
         25    1    1    2    0    0  0.29024931924E+02  0.19955765638E+03  0.19654046306E+03  0.30808904316E+03  0.12500000000E+03 0.  0.
         25    1    1    2    0    0  0.35627364064E+02 -0.79726209007E+02 -0.12743681153E+03  0.19872271739E+03  0.12500000000E+03 0.  0.
         25    1    1    2    0    0 -0.64652295989E+02 -0.11983144737E+03 -0.10586707620E+03  0.21300782375E+03  0.12500000000E+03 0.  0.
</event>
<event>
 5    0  0.5641283E-005  0.2881913E+03  0.7546771E-02  0.1091297E+00
         21   -1    0    0  502  501  0.00000000000E+00  0.00000000000E+00  0.87525236777E+03  0.87525236777E+03  0.00000000000E+00 0. -1.
         21   -1    0    0  501  502 -0.00000000000E+00 -0.00000000000E+00 -0.94891771967E+02  0.94891771967E+02  0.00000000000E+00 0. -1.
         25    1    1    2    0    0 -0.27868300098E+01  0.11902644768E+03  0.50956331162E+03  0.53801006517E+03  0.12500000000E+03 0.  0.
         25    1    1    2    0    0 -0.17006708414E+01 -0.86838230778E+02  0.26158840362E+03  0.30265039817E+03  0.12500000000E+03 0.  0.
         25    1    1    2    0    0  0.44875008512E+01 -0.32188216904E+02  0.92088805568E+01  0.12948367639E+03  0.12500000000E+03 0.  0.
</event>
<event>
 5    0  0.5641283E-005  0.3833519E+03  0.7546771E-02  0.1049702E+00
         21   -1    0    0  502  501  0.00000000000E+00  0.00000000000E+00  0.52822444971E+03  0.52822444971E+03  0.00000000000E+00 0. -1.
         21   -1    0    0  501  502 -0.00000000000E+00 -0.00000000000E+00 -0.27821255660E+03  0.27821255660E+03  0.00000000000E+00 0. -1.
         25    1    1    2    0    0 -0.96319724169E+02 -0.12252731961E+02  0.19574884888E+03  0.25173444449E+03  0.12500000000E+03 0.  0.
         25    1    1    2    0    0 -0.49064671030E+02  0.21158484886E+03 -0.56297347406E+02  0.25684602690E+03  0.12500000000E+03 0.  0.
         25    1    1    2    0    0  0.14538439520E+03 -0.19933211690E+03  0.11056039164E+03  0.29785653492E+03  0.12500000000E+03 0.  0.
</event>
<event>
 5    0  0.5641283E-005  0.4049725E+03  0.7546771E-02  0.1042071E+00
         21   -1    0    0  502  501  0.00000000000E+00  0.00000000000E+00  0.98279669009E+03  0.98279669009E+03  0.00000000000E+00 0.  1.
         21   -1    0    0  501  502 -0.00000000000E+00 -0.00000000000E+00 -0.16687354336E+03  0.16687354336E+03  0.00000000000E+00 0. -1.
         25    1    1    2    0    0 -0.10655180750E+03  0.65068329688E+02  0.22989620222E+03  0.28993868146E+03  0.12500000000E+03 0.  0.
         25    1    1    2    0    0  0.33252866682E+03 -0.92817904799E+02  0.30788809802E+03  0.47917695960E+03  0.12500000000E+03 0.  0.
         25    1    1    2    0    0 -0.22597685931E+03  0.27749575111E+02  0.27813884649E+03  0.38055459239E+03  0.12500000000E+03 0.  0.
</event>
<event>
 5    0  0.5641283E-005  0.3917804E+03  0.7546771E-02  0.1046664E+00
         21   -1    0    0  502  501  0.00000000000E+00  0.00000000000E+00  0.54080738248E+03  0.54080738248E+03  0.00000000000E+00 0.  1.
         21   -1    0    0  501  502 -0.00000000000E+00 -0.00000000000E+00 -0.28381983454E+03  0.28381983454E+03  0.00000000000E+00 0.  1.
         25    1    1    2    0    0 -0.10205622559E+03 -0.18701548650E+03  0.15703002260E+03  0.29270068905E+03  0.12500000000E+03 0.  0.
         25    1    1    2    0    0  0.13146303778E+03  0.27308259565E+03 -0.31025919127E+02  0.32930873358E+03  0.12500000000E+03 0.  0.
         25    1    1    2    0    0 -0.29406812192E+02 -0.86067109151E+02  0.13098344446E+03  0.20261779439E+03  0.12500000000E+03 0.  0.
</event>
<event>
 5    0  0.5641283E-005  0.3149928E+03  0.7546771E-02  0.1077977E+00
         21   -1    0    0  502  501  0.00000000000E+00  0.00000000000E+00  0.28332309745E+03  0.28332309745E+03  0.00000000000E+00 0.  1.
         21   -1    0    0  501  502 -0.00000000000E+00 -0.00000000000E+00 -0.35020245389E+03  0.35020245389E+03  0.00000000000E+00 0.  1.
         25    1    1    2    0    0  0.30335723065E+02  0.12268340219E+03  0.90416538750E+02  0.19942824210E+03  0.12500000000E+03 0.  0.
         25    1    1    2    0    0  0.50518278631E+00  0.58662508862E+02  0.32345394307E+02  0.14181949686E+03  0.12500000000E+03 0.  0.
         25    1    1    2    0    0 -0.30840905851E+02 -0.18134591105E+03 -0.18964128950E+03  0.29227781238E+03  0.12500000000E+03 0.  0.
</event>
<event>
 5    0  0.5641283E-005  0.3661887E+03  0.7546771E-02  0.1056160E+00
         21   -1    0    0  502  501  0.00000000000E+00  0.00000000000E+00  0.19275713724E+03  0.19275713724E+03  0.00000000000E+00 0.  1.
         21   -1    0    0  501  502 -0.00000000000E+00 -0.00000000000E+00 -0.69566385432E+03  0.69566385432E+03  0.00000000000E+00 0.  1.
         25    1    1    2    0    0  0.25850673532E+03  0.13435372926E+03 -0.17957305389E+03  0.36434617941E+03  0.12500000000E+03 0.  0.
         25    1    1    2    0    0 -0.10573080181E+03 -0.13717506214E+03 -0.18981456999E+03  0.28574564057E+03  0.12500000000E+03 0.  0.
         25    1    1    2    0    0 -0.15277593351E+03  0.28213328820E+01 -0.13351909319E+03  0.23832917158E+03  0.12500000000E+03 0.  0.
</event>
<event>
 5    0  0.5641283E-005  0.2875445E+03  0.7546771E-02  0.1091638E+00
         21   -1    0    0  502  501  0.00000000000E+00  0.00000000000E+00  0.84952885838E+03  0.84952885838E+03  0.00000000000E+00 0. -1.
         21   -1    0    0  501  502 -0.00000000000E+00 -0.00000000000E+00 -0.97326713004E+02  0.97326713004E+02  0.00000000000E+00 0. -1.
         25    1    1    2    0    0 -0.25586820394E+02 -0.10967534039E+03  0.13692218201E+03  0.21692406412E+03  0.12500000000E+03 0.  0.
         25    1    1    2    0    0 -0.78667157309E+02  0.10329096910E+03  0.14213826304E+03  0.22953394467E+03  0.12500000000E+03 0.  0.
         25    1    1    2    0    0  0.10425397770E+03  0.63843712879E+01  0.47314170032E+03  0.50039756259E+03  0.12500000000E+03 0.  0.
</event>
<event>
 5    0  0.5641283E-005  0.2472670E+03  0.7546771E-02  0.1115044E+00
         21   -1    0    0  502  501  0.00000000000E+00  0.00000000000E+00  0.45836020073E+03  0.45836020073E+03  0.00000000000E+00 0. -1.
         21   -1    0    0  501  502 -0.00000000000E+00 -0.00000000000E+00 -0.13339067792E+03  0.13339067792E+03  0.00000000000E+00 0. -1.
         25    1    1    2    0    0 -0.44373379248E+02  0.11644517813E+03  0.69394081717E+02  0.18965498905E+03  0.12500000000E+03 0.  0.
         25    1    1    2    0    0 -0.26742384103E+02 -0.10555830189E+03  0.14705617218E+03  0.22160376347E+03  0.12500000000E+03 0.  0.
         25    1    1    2    0    0  0.71115763351E+02 -0.10886876236E+02  0.10851926891E+03  0.18049212613E+03  0.12500000000E+03 0.  0.
</event>
<event>
 5    0  0.5641283E-005  0.2461997E+03  0.7546771E-02  0.1115730E+00
         21   -1    0    0  502  501  0.00000000000E+00  0.00000000000E+00  0.30423710938E+03  0.30423710938E+03  0.00000000000E+00 0.  1.
         21   -1    0    0  501  502 -0.00000000000E+00 -0.00000000000E+00 -0.19923374023E+03  0.19923374023E+03  0.00000000000E+00 0.  1.
         25    1    1    2    0    0 -0.13274556306E+03  0.23134271105E+02  0.96994595471E+01  0.18405341216E+03  0.12500000000E+03 0.  0.
         25    1    1    2    0    0  0.12454974833E+03 -0.43811035629E+01  0.71971927743E+02  0.19062211902E+03  0.12500000000E+03 0.  0.
         25    1    1    2    0    0  0.81958147278E+01 -0.18753167542E+02  0.23331981862E+02  0.12879531843E+03  0.12500000000E+03 0.  0.
</event>
<event>
 5    0  0.5641283E-005  0.2687572E+03  0.7546771E-02  0.1101993E+00
         21   -1    0    0  502  501  0.00000000000E+00  0.00000000000E+00  0.93739533633E+03  0.93739533633E+03  0.00000000000E+00 0.  1.
         21   -1    0    0  501  502 -0.00000000000E+00 -0.00000000000E+00 -0.77054382446E+02  0.77054382446E+02  0.00000000000E+00 0.  1.
         25    1    1    2    0    0  0.20293127107E+02  0.20395725877E+02  0.76209075476E+02  0.14919993240E+03  0.12500000000E+03 0.  0.
         25    1    1    2    0    0 -0.38809042245E+00 -0.13169477328E+03  0.28028533155E+03  0.33395887622E+03  0.12500000000E+03 0.  0.
         25    1    1    2    0    0 -0.19905036685E+02  0.11129904740E+03  0.50384654686E+03  0.53129091016E+03  0.12500000000E+03 0.  0.
</event>
<event>
 5    0  0.5842124E-005  0.3816183E+03  0.7546771E-02  0.1050337E+00
         21   -1    0    0  502  501  0.00000000000E+00  0.00000000000E+00  0.49625510612E+03  0.49625510612E+03  0.00000000000E+00 0.  1.
         21   -1    0    0  501  502 -0.00000000000E+00 -0.00000000000E+00 -0.29346295403E+03  0.29346295403E+03  0.00000000000E+00 0.  1.
         25    1    1    2    0    0 -0.10986400250E+03  0.96586587927E+02  0.24210258087E+03  0.30925350067E+03  0.12500000000E+03 0.  0.
         25    1    1    2    0    0  0.79406807012E+02  0.90634124741E+02 -0.14845621895E+03  0.22843868874E+03  0.12500000000E+03 0.  0.
         25    1    1    2    0    0  0.30457195493E+02 -0.18722071267E+03  0.10914579017E+03  0.25202587074E+03  0.12500000000E+03 0.  0.
</event>
<event>
 5    0  0.5641283E-005  0.5139078E+03  0.7546771E-02  0.1010211E+00
         21   -1    0    0  502  501  0.00000000000E+00  0.00000000000E+00  0.25650958711E+03  0.25650958711E+03  0.00000000000E+00 0.  1.
         21   -1    0    0  501  502 -0.00000000000E+00 -0.00000000000E+00 -0.10295957940E+04  0.10295957940E+04  0.00000000000E+00 0.  1.
         25    1    1    2    0    0 -0.83364950772E+02  0.96401909365E+02 -0.27359123315E+03  0.32668058712E+03  0.12500000000E+03 0.  0.
         25    1    1    2    0    0 -0.18803603971E+03  0.12980334185E+03  0.77207054922E+02  0.27164754575E+03  0.12500000000E+03 0.  0.
         25    1    1    2    0    0  0.27140099048E+03 -0.22620525122E+03 -0.57670202865E+03  0.68777724821E+03  0.12500000000E+03 0.  0.
</event>
<event>
 5    0  0.5641283E-005  0.2248012E+03  0.7546771E-02  0.1130353E+00
         21   -1    0    0  502  501  0.00000000000E+00  0.00000000000E+00  0.23237499395E+04  0.23237499395E+04  0.00000000000E+00 0.  1.
         21   -1    0    0  501  502 -0.00000000000E+00 -0.00000000000E+00 -0.21747430720E+02  0.21747430720E+02  0.00000000000E+00 0.  1.
         25    1    1    2    0    0 -0.60688215226E+02  0.11915374064E+02  0.48887087016E+03  0.50837462889E+03  0.12500000000E+03 0.  0.
         25    1    1    2    0    0 -0.11157527385E+02 -0.88949064740E+01  0.12302822944E+04  0.12366984814E+04  0.12500000000E+03 0.  0.
         25    1    1    2    0    0  0.71845742612E+02 -0.30204675898E+01  0.58284934420E+03  0.60042425999E+03  0.12500000000E+03 0.  0.
</event>
<event>
 5    0  0.5641283E-005  0.4289413E+03  0.7546771E-02  0.1034195E+00
         21   -1    0    0  502  501  0.00000000000E+00  0.00000000000E+00  0.93815856957E+02  0.93815856957E+02  0.00000000000E+00 0.  1.
         21   -1    0    0  501  502 -0.00000000000E+00 -0.00000000000E+00 -0.19611891279E+04  0.19611891279E+04  0.00000000000E+00 0.  1.
         25    1    1    2    0    0  0.83580228545E+02  0.31068906883E+03 -0.97089864617E+03  0.10304283251E+04  0.12500000000E+03 0.  0.
         25    1    1    2    0    0 -0.49748990450E+01 -0.32346532525E+03 -0.65781888180E+03  0.74364322596E+03  0.12500000000E+03 0.  0.
         25    1    1    2    0    0 -0.78605329500E+02  0.12776256421E+02 -0.23865574293E+03  0.28093343373E+03  0.12500000000E+03 0.  0.
</event>
<event>
 5    0  0.5641283E-005  0.3096838E+03  0.7546771E-02  0.1080498E+00
         21   -1    0    0  502  501  0.00000000000E+00  0.00000000000E+00  0.93881048859E+03  0.93881048859E+03  0.00000000000E+00 0.  1.
         21   -1    0    0  501  502 -0.00000000000E+00 -0.00000000000E+00 -0.10215484754E+03  0.10215484754E+03  0.00000000000E+00 0.  1.
         25    1    1    2    0    0  0.48917325286E+02  0.32870057618E+02  0.11825856327E+02  0.13870182507E+03  0.12500000000E+03 0.  0.
         25    1    1    2    0    0 -0.12218338449E+03  0.68792619086E+02  0.39381545197E+03  0.43632191568E+03  0.12500000000E+03 0.  0.
         25    1    1    2    0    0  0.73266059207E+02 -0.10166267670E+03  0.43101433275E+03  0.46594159537E+03  0.12500000000E+03 0.  0.
</event>
<event>
 5    0  0.5641283E-005  0.4820975E+03  0.7546771E-02  0.1018560E+00
         21   -1    0    0  502  501  0.00000000000E+00  0.00000000000E+00  0.16684723330E+04  0.16684723330E+04  0.00000000000E+00 0.  1.
         21   -1    0    0  501  502 -0.00000000000E+00 -0.00000000000E+00 -0.13929987684E+03  0.13929987684E+03  0.00000000000E+00 0.  1.
         25    1    1    2    0    0  0.19933402554E+03 -0.66453312794E+02  0.45855809345E+03  0.51966395063E+03  0.12500000000E+03 0.  0.
         25    1    1    2    0    0  0.52928707219E+02  0.25541442559E+03  0.19420323462E+03  0.34839327373E+03  0.12500000000E+03 0.  0.
         25    1    1    2    0    0 -0.25226273276E+03 -0.18896111279E+03  0.87641112809E+03  0.93971498547E+03  0.12500000000E+03 0.  0.
</event>
<event>
 5    0  0.5641283E-005  0.4073114E+03  0.7546771E-02  0.1041277E+00
         21   -1    0    0  502  501  0.00000000000E+00  0.00000000000E+00  0.52558448774E+03  0.52558448774E+03  0.00000000000E+00 0. -1.
         21   -1    0    0  501  502 -0.00000000000E+00 -0.00000000000E+00 -0.31565344998E+03  0.31565344998E+03  0.00000000000E+00 0. -1.
         25    1    1    2    0    0  0.11761639542E+03 -0.80153262070E+02 -0.22109206517E+03  0.29114405914E+03  0.12500000000E+03 0.  0.
         25    1    1    2    0    0 -0.12275510989E+03  0.10627115070E+03  0.20147772934E+03  0.28736849148E+03  0.12500000000E+03 0.  0.
         25    1    1    2    0    0  0.51387144684E+01 -0.26117888627E+02  0.22954537358E+03  0.26272538710E+03  0.12500000000E+03 0.  0.
</event>
<event>
 5    0  0.5641283E-005  0.3129993E+03  0.7546771E-02  0.1078917E+00
         21   -1    0    0  502  501  0.00000000000E+00  0.00000000000E+00  0.98947202392E+03  0.98947202392E+03  0.00000000000E+00 0. -1.
         21   -1    0    0  501  502 -0.00000000000E+00 -0.00000000000E+00 -0.99010923055E+02  0.99010923055E+02  0.00000000000E+00 0. -1.
         25    1    1    2    0    0 -0.22661165219E+02 -0.15383026338E+03  0.32239663096E+03  0.37913304525E+03  0.12500000000E+03 0.  0.
         25    1    1    2    0    0  0.73908020727E+02  0.21161753262E+03  0.24672540871E+03  0.35600955457E+03  0.12500000000E+03 0.  0.
         25    1    1    2    0    0 -0.51246855508E+02 -0.57787269236E+02  0.32133906119E+03  0.35334034716E+03  0.12500000000E+03 0.  0.
</event>
<event>
 5    0  0.5641283E-005  0.3661581E+03  0.7546771E-02  0.1056172E+00
         21   -1    0    0  502  501  0.00000000000E+00  0.00000000000E+00  0.36221222748E+03  0.36221222748E+03  0.00000000000E+00 0.  1.
         21   -1    0    0  501  502 -0.00000000000E+00 -0.00000000000E+00 -0.37014703974E+03  0.37014703974E+03  0.00000000000E+00 0.  1.
         25    1    1    2    0    0  0.32069056608E+02  0.62928482624E+02 -0.25426703186E+03  0.29200195514E+03  0.12500000000E+03 0.  0.
         25    1    1    2    0    0 -0.11537831003E+03 -0.10967797716E+03  0.17521185144E+03  0.26770432568E+03  0.12500000000E+03 0.  0.
         25    1    1    2    0    0  0.83309253421E+02  0.46749494535E+02  0.71120368158E+02  0.17265298640E+03  0.12500000000E+03 0.  0.
</event>
<event>
 5    0  0.5641283E-005  0.2402636E+03  0.7546771E-02  0.1119617E+00
         21   -1    0    0  502  501  0.00000000000E+00  0.00000000000E+00  0.56618663641E+02  0.56618663641E+02  0.00000000000E+00 0. -1.
         21   -1    0    0  501  502 -0.00000000000E+00 -0.00000000000E+00 -0.10195685764E+04  0.10195685764E+04  0.00000000000E+00 0. -1.
         25    1    1    2    0    0 -0.97160819030E+01  0.53547250620E+02 -0.24300002031E+03  0.27863187214E+03  0.12500000000E+03 0.  0.
         25    1    1    2    0    0 -0.23135699750E+02 -0.22339571265E+02 -0.99369189415E+02  0.16289123013E+03  0.12500000000E+03 0.  0.
         25    1    1    2    0    0  0.32851781653E+02 -0.31207679355E+02 -0.62058070299E+03  0.63466413774E+03  0.12500000000E+03 0.  0.
</event>
<event>
 5    0  0.5641283E-005  0.2687406E+03  0.7546771E-02  0.1102003E+00
         21   -1    0    0  502  501  0.00000000000E+00  0.00000000000E+00  0.23793565570E+03  0.23793565570E+03  0.00000000000E+00 0.  1.
         21   -1    0    0  501  502 -0.00000000000E+00 -0.00000000000E+00 -0.30353384371E+03  0.30353384371E+03  0.00000000000E+00 0.  1.
         25    1    1    2    0    0 -0.50277728935E+01  0.56104274151E+02 -0.14343207108E+03  0.19842058133E+03  0.12500000000E+03 0.  0.
         25    1    1    2    0    0 -0.86670688203E+02 -0.45715600122E+02 -0.19011048088E+02  0.15996294645E+03  0.12500000000E+03 0.  0.
         25    1    1    2    0    0  0.91698461096E+02 -0.10388674029E+02  0.96844931167E+02  0.18308597163E+03  0.12500000000E+03 0.  0.
</event>
<event>
 5    0  0.5641283E-005  0.4815015E+03  0.7546771E-02  0.1018723E+00
         21   -1    0    0  502  501  0.00000000000E+00  0.00000000000E+00  0.18649296357E+03  0.18649296357E+03  0.00000000000E+00 0. -1.
         21   -1    0    0  501  502 -0.00000000000E+00 -0.00000000000E+00 -0.12431768372E+04  0.12431768372E+04  0.00000000000E+00 0. -1.
         25    1    1    2    0    0 -0.16392741038E+03 -0.84411122203E+02 -0.21858261655E+03  0.31209100225E+03  0.12500000000E+03 0.  0.
         25    1    1    2    0    0 -0.85517601319E+02 -0.12210470402E+03  0.16426144424E+02  0.19523738653E+03  0.12500000000E+03 0.  0.
         25    1    1    2    0    0  0.24944501170E+03  0.20651582622E+03 -0.85452740148E+03  0.92234141197E+03  0.12500000000E+03 0.  0.
</event>
<event>
 5    0  0.5641283E-005  0.4271371E+03  0.7546771E-02  0.1034768E+00
         21   -1    0    0  502  501  0.00000000000E+00  0.00000000000E+00  0.19518034901E+03  0.19518034901E+03  0.00000000000E+00 0. -1.
         21   -1    0    0  501  502 -0.00000000000E+00 -0.00000000000E+00 -0.93475644516E+03  0.93475644516E+03  0.00000000000E+00 0. -1.
         25    1    1    2    0    0 -0.40282092757E+02  0.28894574526E+02 -0.62219515887E+02  0.14816818684E+03  0.12500000000E+03 0.  0.
         25    1    1    2    0    0  0.13594079838E+03  0.24874140050E+03 -0.56325860839E+03  0.64283547266E+03  0.12500000000E+03 0.  0.
         25    1    1    2    0    0 -0.95658705627E+02 -0.27763597503E+03 -0.11409797188E+03  0.33893313467E+03  0.12500000000E+03 0.  0.
</event>
<event>
 5    0  0.5641283E-005  0.2776828E+03  0.7546771E-02  0.1096961E+00
         21   -1    0    0  502  501  0.00000000000E+00  0.00000000000E+00  0.27778349056E+03  0.27778349056E+03  0.00000000000E+00 0. -1.
         21   -1    0    0  501  502 -0.00000000000E+00 -0.00000000000E+00 -0.27758224510E+03  0.27758224510E+03  0.00000000000E+00 0. -1.
         25    1    1    2    0    0 -0.12624367256E+03 -0.83666182548E+02  0.10581240619E+02  0.19665822540E+03  0.12500000000E+03 0.  0.
         25    1    1    2    0    0  0.83290091559E+02  0.80565876873E+02  0.89959702668E+02  0.19273258150E+03  0.12500000000E+03 0.  0.
         25    1    1    2    0    0  0.42953580998E+02  0.31003056756E+01 -0.10033969783E+03  0.16597492876E+03  0.12500000000E+03 0.  0.
</event>
<event>
 5    0  0.5641283E-005  0.3233736E+03  0.7546771E-02  0.1074107E+00
         21   -1    0    0  502  501  0.00000000000E+00  0.00000000000E+00  0.40348187057E+03  0.40348187057E+03  0.00000000000E+00 0. -1.
         21   -1    0    0  501  502 -0.00000000000E+00 -0.00000000000E+00 -0.25917019718E+03  0.25917019718E+03  0.00000000000E+00 0. -1.
         25    1    1    2    0    0  0.55161791133E+02  0.14720397409E+03  0.71976753335E+02  0.21334827445E+03  0.12500000000E+03 0.  0.
         25    1    1    2    0    0 -0.36081303916E+02 -0.89409245981E+02  0.20391566532E+03  0.25788073274E+03  0.12500000000E+03 0.  0.
         25    1    1    2    0    0 -0.19080487217E+02 -0.57794728108E+02 -0.13158074526E+03  0.19142306055E+03  0.12500000000E+03 0.  0.
</event>
<event>
 5    0  0.5641283E-005  0.3128111E+03  0.7546771E-02  0.1079006E+00
         21   -1    0    0  502  501  0.00000000000E+00  0.00000000000E+00  0.45362815627E+03  0.45362815627E+03  0.00000000000E+00 0. -1.
         21   -1    0    0  501  502 -0.00000000000E+00 -0.00000000000E+00 -0.21570706864E+03  0.21570706864E+03  0.00000000000E+00 0. -1.
         25    1    1    2    0    0  0.70592337244E+02  0.73889144331E+02 -0.10857185386E+03  0.19456549329E+03  0.12500000000E+03 0.  0.
         25    1    1    2    0    0 -0.24089987893E+02  0.55213405572E+02  0.14007855756E+03  0.19716959694E+03  0.12500000000E+03 0.  0.
         25    1    1    2    0    0 -0.46502349351E+02 -0.12910254990E+03  0.20641438393E+03  0.27760013469E+03  0.12500000000E+03 0.  0.
</event>
<event>
 5    0  0.5641283E-005  0.3369174E+03  0.7546771E-02  0.1068117E+00
         21   -1    0    0  502  501  0.00000000000E+00  0.00000000000E+00  0.51885123453E+03  0.51885123453E+03  0.00000000000E+00 0.  1.
         21   -1    0    0  501  502 -0.00000000000E+00 -0.00000000000E+00 -0.21877812772E+03  0.21877812772E+03  0.00000000000E+00 0.  1.
         25    1    1    2    0    0 -0.11028015699E+02 -0.33982393702E+02  0.68583512809E+02  0.14698679683E+03  0.12500000000E+03 0.  0.
         25    1    1    2    0    0  0.50112799951E+01  0.25580793089E+03  0.86667949908E+02  0.29765608339E+03  0.12500000000E+03 0.  0.
         25    1    1    2    0    0  0.60167357037E+01 -0.22182553719E+03  0.14482164409E+03  0.29298648203E+03  0.12500000000E+03 0.  0.
</event>
<event>
 5    0  0.5641283E-005  0.3736797E+03  0.7546771E-02  0.1053295E+00
         21   -1    0    0  502  501  0.00000000000E+00  0.00000000000E+00  0.82430325481E+02  0.82430325481E+02  0.00000000000E+00 0. -1.
         21   -1    0    0  501  502 -0.00000000000E+00 -0.00000000000E+00 -0.16939940707E+04  0.16939940707E+04  0.00000000000E+00 0. -1.
         25    1    1    2    0    0 -0.64023230629E+02 -0.14623878899E+03 -0.22646179009E+03  0.30396496482E+03  0.12500000000E+03 0.  0.
         25    1    1    2    0    0  0.27119441762E+01 -0.10062782716E+03 -0.21368913932E+03  0.26724775491E+03  0.12500000000E+03 0.  0.
         25    1    1    2    0    0  0.61311286453E+02  0.24686661615E+03 -0.11714128158E+04  0.12052116764E+04  0.12500000000E+03 0.  0.
</event>
<event>
 5    0  0.5641283E-005  0.3335244E+03  0.7546771E-02  0.1069588E+00
         21   -1    0    0  502  501  0.00000000000E+00  0.00000000000E+00  0.56470552062E+03  0.56470552062E+03  0.00000000000E+00 0.  1.
         21   -1    0    0  501  502 -0.00000000000E+00 -0.00000000000E+00 -0.19698499213E+03  0.19698499213E+03  0.00000000000E+00 0.  1.
         25    1    1    2    0    0  0.62209919990E+02 -0.11715578521E+03 -0.71647747759E+02  0.19584165010E+03  0.12500000000E+03 0.  0.
         25    1    1    2    0    0 -0.24963635491E+02 -0.48822898030E+02  0.23655970547E+03  0.27311600598E+03  0.12500000000E+03 0.  0.
         25    1    1    2    0    0 -0.37246284499E+02  0.16597868324E+03  0.20280857077E+03  0.29273285668E+03  0.12500000000E+03 0.  0.
</event>
<event>
 5    0  0.5641283E-005  0.4025313E+03  0.7546771E-02  0.1042907E+00
         21   -1    0    0  502  501  0.00000000000E+00  0.00000000000E+00  0.82464868874E+02  0.82464868874E+02  0.00000000000E+00 0. -1.
         21   -1    0    0  501  502 -0.00000000000E+00 -0.00000000000E+00 -0.19648541555E+04  0.19648541555E+04  0.00000000000E+00 0. -1.
         25    1    1    2    0    0 -0.25284738076E+03 -0.83065711436E+02 -0.81200529074E+03  0.86360251422E+03  0.12500000000E+03 0.  0.
         25    1    1    2    0    0  0.35128351412E+02 -0.11305296212E+03 -0.24905434820E+03  0.30276730615E+03  0.12500000000E+03 0.  0.
         25    1    1    2    0    0  0.21771902935E+03  0.19611867356E+03 -0.82132964767E+03  0.88094920398E+03  0.12500000000E+03 0.  0.
</event>
<event>
 5    0  0.5641283E-005  0.6925338E+03  0.7546771E-02  0.9730086E-01
         21   -1    0    0  502  501  0.00000000000E+00  0.00000000000E+00  0.81577293998E+03  0.81577293998E+03  0.00000000000E+00 0.  1.
         21   -1    0    0  501  502 -0.00000000000E+00 -0.00000000000E+00 -0.58791240324E+03  0.58791240324E+03  0.00000000000E+00 0.  1.
         25    1    1    2    0    0  0.12388332173E+03 -0.55169287299E+03  0.72984839366E+02  0.58366419309E+03  0.12500000000E+03 0.  0.
         25    1    1    2    0    0 -0.15617235397E+02  0.43451844766E+03  0.32366413953E+03  0.55626761061E+03  0.12500000000E+03 0.  0.
         25    1    1    2    0    0 -0.10826608633E+03  0.11717442533E+03 -0.16878844215E+03  0.26375353952E+03  0.12500000000E+03 0.  0.
</event>
<event>
 5    0  0.5641283E-005  0.2497667E+03  0.7546771E-02  0.1113452E+00
         21   -1    0    0  502  501  0.00000000000E+00  0.00000000000E+00  0.14151306653E+04  0.14151306653E+04  0.00000000000E+00 0.  1.
         21   -1    0    0  501  502 -0.00000000000E+00 -0.00000000000E+00 -0.44083123730E+02  0.44083123730E+02  0.00000000000E+00 0.  1.
         25    1    1    2    0    0  0.11191881548E+03  0.25590477105E+02  0.51048167465E+03  0.53795653535E+03  0.12500000000E+03 0.  0.
         25    1    1    2    0    0 -0.38974366432E+02 -0.34962487840E+01  0.66040281501E+03  0.67326673991E+03  0.12500000000E+03 0.  0.
         25    1    1    2    0    0 -0.72944449052E+02 -0.22094228321E+02  0.20016305196E+03  0.24799051381E+03  0.12500000000E+03 0.  0.
</event>
<event>
 5    0  0.5641283E-005  0.2633748E+03  0.7546771E-02  0.1105132E+00
         21   -1    0    0  502  501  0.00000000000E+00  0.00000000000E+00  0.36055550894E+03  0.36055550894E+03  0.00000000000E+00 0.  1.
         21   -1    0    0  501  502 -0.00000000000E+00 -0.00000000000E+00 -0.19238732025E+03  0.19238732025E+03  0.00000000000E+00 0.  1.
         25    1    1    2    0    0  0.10645475259E+03  0.58910927257E+02  0.56402910937E+02  0.18332866677E+03  0.12500000000E+03 0.  0.
         25    1    1    2    0    0  0.22850786929E+02 -0.11644306298E+02 -0.35454285604E+02  0.13243773896E+03  0.12500000000E+03 0.  0.
         25    1    1    2    0    0 -0.12930553952E+03 -0.47266620959E+02  0.14721956336E+03  0.23717642345E+03  0.12500000000E+03 0.  0.
</event>
<event>
 5    0  0.6460900E-005  0.2965094E+03  0.7546771E-02  0.1086999E+00
         21   -1    0    0  502  501  0.00000000000E+00  0.00000000000E+00  0.24208269328E+03  0.24208269328E+03  0.00000000000E+00 0.  1.
         21   -1    0    0  501  502 -0.00000000000E+00 -0.00000000000E+00 -0.36317267910E+03  0.36317267910E+03  0.00000000000E+00 0.  1.
         25    1    1    2    0    0 -0.68134853702E+02 -0.52226015420E+02  0.12960531253E+03  0.19948045521E+03  0.12500000000E+03 0.  0.
         25    1    1    2    0    0  0.13970507921E+02  0.10492110030E+03 -0.83796290956E+02  0.18398486557E+03  0.12500000000E+03 0.  0.
         25    1    1    2    0    0  0.54164345781E+02 -0.52695084883E+02 -0.16689900738E+03  0.22179005160E+03  0.12500000000E+03 0.  0.
</event>
<event>
 5    0  0.5641283E-005  0.2875906E+03  0.7546771E-02  0.1091614E+00
         21   -1    0    0  502  501  0.00000000000E+00  0.00000000000E+00  0.54336997257E+03  0.54336997257E+03  0.00000000000E+00 0.  1.
         21   -1    0    0  501  502 -0.00000000000E+00 -0.00000000000E+00 -0.15221373111E+03  0.15221373111E+03  0.00000000000E+00 0.  1.
         25    1    1    2    0    0 -0.51679662806E+02 -0.66910194931E+02  0.84195877379E+02  0.17280540356E+03  0.12500000000E+03 0.  0.
         25    1    1    2    0    0 -0.12315239515E+03 -0.13854202875E+02  0.20875764560E+03  0.27306264110E+03  0.12500000000E+03 0.  0.
         25    1    1    2    0    0  0.17483205795E+03  0.80764397806E+02  0.98202718474E+02  0.24971565901E+03  0.12500000000E+03 0.  0.
</event>
<event>
 5    0  0.5641283E-005  0.4203891E+03  0.7546771E-02  0.1036940E+00
         21   -1    0    0  502  501  0.00000000000E+00  0.00000000000E+00  0.88345619672E+02  0.88345619672E+02  0.00000000000E+00 0. -1.
         21   -1    0    0  501  502 -0.00000000000E+00 -0.00000000000E+00 -0.20004046052E+04  0.20004046052E+04  0.00000000000E+00 0.  1.
         25    1    1    2    0    0 -0.24663716616E+03  0.23580498528E+03 -0.95228268459E+03  0.10192650265E+04  0.12500000000E+03 0.  0.
         25    1    1    2    0    0  0.53159059189E+02 -0.19521167505E+03 -0.49594285830E+03  0.55001618372E+03  0.12500000000E+03 0.  0.
         25    1    1    2    0    0  0.19347810697E+03 -0.40593310223E+02 -0.46383344267E+03  0.51946901472E+03  0.12500000000E+03 0.  0.
</event>
<event>
 5    0  0.5641283E-005  0.2980640E+03  0.7546771E-02  0.1086212E+00
         21   -1    0    0  502  501  0.00000000000E+00  0.00000000000E+00  0.75617563553E+03  0.75617563553E+03  0.00000000000E+00 0. -1.
         21   -1    0    0  501  502 -0.00000000000E+00 -0.00000000000E+00 -0.11748881189E+03  0.11748881189E+03  0.00000000000E+00 0. -1.
         25    1    1    2    0    0  0.17909306563E+03  0.55065797161E+02  0.38862429714E+03  0.44917748441E+03  0.12500000000E+03 0.  0.
         25    1    1    2    0    0 -0.80172837955E+02 -0.91713762293E+01  0.20369615872E+03  0.25224774165E+03  0.12500000000E+03 0.  0.
         25    1    1    2    0    0 -0.98920227676E+02 -0.45894420932E+02  0.46366367781E+02  0.17223922137E+03  0.12500000000E+03 0.  0.
</event>
<event>
 5    0  0.5641283E-005  0.2703622E+03  0.7546771E-02  0.1101073E+00
         21   -1    0    0  502  501  0.00000000000E+00  0.00000000000E+00  0.37158872947E+03  0.37158872947E+03  0.00000000000E+00 0.  1.
         21   -1    0    0  501  502 -0.00000000000E+00 -0.00000000000E+00 -0.19671129722E+03  0.19671129722E+03  0.00000000000E+00 0.  1.
         25    1    1    2    0    0 -0.80514144310E+02  0.11752732473E+02 -0.20569659655E+02  0.15056149924E+03  0.12500000000E+03 0.  0.
         25    1    1    2    0    0 -0.88196182437E+02  0.97684226015E+01  0.49367836811E+02  0.16104711108E+03  0.12500000000E+03 0.  0.
         25    1    1    2    0    0  0.16871032675E+03 -0.21521155075E+02  0.14607925510E+03  0.25669141637E+03  0.12500000000E+03 0.  0.
</event>
<event>
 5    0  0.8346075E-005  0.7292870E+03  0.7546771E-02  0.9668418E-01
         21   -1    0    0  502  501  0.00000000000E+00  0.00000000000E+00  0.12653160599E+04  0.12653160599E+04  0.00000000000E+00 0.  1.
         21   -1    0    0  501  502 -0.00000000000E+00 -0.00000000000E+00 -0.42033728396E+03  0.42033728396E+03  0.00000000000E+00 0.  1.
         25    1    1    2    0    0 -0.34331391896E+03  0.14077362986E+03  0.25868866069E+03  0.46928294768E+03  0.12500000000E+03 0.  0.
         25    1    1    2    0    0 -0.52906918710E+02 -0.31707762358E+03  0.67351073056E+03  0.75668954374E+03  0.12500000000E+03 0.  0.
         25    1    1    2    0    0  0.39622083767E+03  0.17630399372E+03 -0.87220615272E+02  0.45968085248E+03  0.12500000000E+03 0.  0.
</event>
<event>
 5    0  0.5641283E-005  0.4105136E+03  0.7546771E-02  0.1040199E+00
         21   -1    0    0  502  501  0.00000000000E+00  0.00000000000E+00  0.86924195746E+02  0.86924195746E+02  0.00000000000E+00 0. -1.
         21   -1    0    0  501  502 -0.00000000000E+00 -0.00000000000E+00 -0.19387171986E+04  0.19387171986E+04  0.00000000000E+00 0. -1.
         25    1    1    2    0    0 -0.41381834620E+02  0.18499172321E+03 -0.63736459077E+03  0.67660403151E+03  0.12500000000E+03 0.  0.
         25    1    1    2    0    0 -0.19935085929E+03 -0.11409175866E+03 -0.84954469841E+03  0.88888069452E+03  0.12500000000E+03 0.  0.
         25    1    1    2    0    0  0.24073269391E+03 -0.70899964551E+02 -0.36488371370E+03  0.46015666834E+03  0.12500000000E+03 0.  0.
</event>
<event>
 5    0  0.5641283E-005  0.2359371E+03  0.7546771E-02  0.1122529E+00
         21   -1    0    0  502  501  0.00000000000E+00  0.00000000000E+00  0.16394675293E+03  0.16394675293E+03  0.00000000000E+00 0. -1.
         21   -1    0    0  501  502 -0.00000000000E+00 -0.00000000000E+00 -0.33953885308E+03  0.33953885308E+03  0.00000000000E+00 0. -1.
         25    1    1    2    0    0  0.80629256875E+02 -0.22829724342E+02 -0.65380099377E+02  0.16407873346E+03  0.12500000000E+03 0.  0.
         25    1    1    2    0    0 -0.57607204764E+02  0.10112849284E+03 -0.45862564665E+02  0.17684438623E+03  0.12500000000E+03 0.  0.
         25    1    1    2    0    0 -0.23022052112E+02 -0.78298768496E+02 -0.64349436105E+02  0.16256248632E+03  0.12500000000E+03 0.  0.
</event>
<event>
 5    0  0.5641283E-005  0.2832786E+03  0.7546771E-02  0.1093912E+00
         21   -1    0    0  502  501  0.00000000000E+00  0.00000000000E+00  0.70946146404E+03  0.70946146404E+03  0.00000000000E+00 0.  1.
         21   -1    0    0  501  502 -0.00000000000E+00 -0.00000000000E+00 -0.11310943888E+03  0.11310943888E+03  0.00000000000E+00 0.  1.
         25    1    1    2    0    0  0.17333511927E+02  0.15379235193E+02  0.13832802788E+03  0.18787393329E+03  0.12500000000E+03 0.  0.
         25    1    1    2    0    0 -0.64503554679E+02  0.12460424688E+03  0.68962398201E+02  0.20016927654E+03  0.12500000000E+03 0.  0.
         25    1    1    2    0    0  0.47170042752E+02 -0.13998348207E+03  0.38906159908E+03  0.43452769309E+03  0.12500000000E+03 0.  0.
</event>
<event>
 5    0  0.5641283E-005  0.2972756E+03  0.7546771E-02  0.1086610E+00
         21   -1    0    0  502  501  0.00000000000E+00  0.00000000000E+00  0.28301137414E+03  0.28301137414E+03  0.00000000000E+00 0.  1.
         21   -1    0    0  501  502 -0.00000000000E+00 -0.00000000000E+00 -0.31225876904E+03  0.31225876904E+03  0.00000000000E+00 0.  1.
         25    1    1    2    0    0  0.76332816471E+02  0.81290420451E+02 -0.95525435922E+01  0.16778284303E+03  0.12500000000E+03 0.  0.
         25    1    1    2    0    0  0.11179221358E+03 -0.10638550958E+03 -0.25033100052E+02  0.20016750926E+03  0.12500000000E+03 0.  0.
         25    1    1    2    0    0 -0.18812503005E+03  0.25095089124E+02  0.53382487408E+01  0.22731979088E+03  0.12500000000E+03 0.  0.
</event>
<event>
 5    0  0.5641283E-005  0.3830450E+03  0.7546771E-02  0.1049814E+00
         21   -1    0    0  502  501  0.00000000000E+00  0.00000000000E+00  0.39995963934E+03  0.39995963934E+03  0.00000000000E+00 0.  1.
         21   -1    0    0  501  502 -0.00000000000E+00 -0.00000000000E+00 -0.36684565957E+03  0.36684565957E+03  0.00000000000E+00 0.  1.
         25    1    1    2    0    0  0.14151683829E+03  0.19712184968E+03  0.27005251499E+02  0.27429604946E+03  0.12500000000E+03 0.  0.
         25    1    1    2    0    0 -0.16748562227E+03  0.39107035247E+02  0.54903504484E+02  0.21959095764E+03  0.12500000000E+03 0.  0.
         25    1    1    2    0    0  0.25968783972E+02 -0.23622888493E+03 -0.48794776211E+02  0.27291829180E+03  0.12500000000E+03 0.  0.
</event>
<event>
 5    0  0.5641283E-005  0.3195015E+03  0.7546771E-02  0.1075879E+00
         21   -1    0    0  502  501  0.00000000000E+00  0.00000000000E+00  0.65289112757E+02  0.65289112757E+02  0.00000000000E+00 0.  1.
         21   -1    0    0  501  502 -0.00000000000E+00 -0.00000000000E+00 -0.15635260079E+04  0.15635260079E+04  0.00000000000E+00 0.  1.
         25    1    1    2    0    0 -0.38677813202E+02 -0.15433873561E+03 -0.38265146363E+03  0.43285512722E+03  0.12500000000E+03 0.  0.
         25    1    1    2    0    0  0.14198912478E+03  0.17044945898E+03 -0.52799165586E+03  0.58618607820E+03  0.12500000000E+03 0.  0.
         25    1    1    2    0    0 -0.10331131158E+03 -0.16110723371E+02 -0.58759377568E+03  0.60977391525E+03  0.12500000000E+03 0.  0.
</event>
<event>
 5    0  0.5641283E-005  0.3494426E+03  0.7546771E-02  0.1062844E+00
         21   -1    0    0  502  501  0.00000000000E+00  0.00000000000E+00  0.96848439556E+02  0.96848439556E+02  0.00000000000E+00 0.  1.
         21   -1    0    0  501  502 -0.00000000000E+00 -0.00000000000E+00 -0.12608373008E+04  0.12608373008E+04  0.00000000000E+00 0.  1.
         25    1    1    2    0    0  0.15849685429E+02 -0.13236946874E+03 -0.21955316870E+03  0.28565973232E+03  0.12500000000E+03 0.  0.
         25    1    1    2    0    0 -0.16765738504E+03 -0.58871230446E+02 -0.55210165430E+03  0.59330941103E+03  0.12500000000E+03 0.  0.
         25    1    1    2    0    0  0.15180769961E+03  0.19124069919E+03 -0.39233403824E+03  0.47871659701E+03  0.12500000000E+03 0.  0.
</event>
<event>
 5    0  0.5641283E-005  0.3036589E+03  0.7546771E-02  0.1083426E+00
         21   -1    0    0  502  501  0.00000000000E+00  0.00000000000E+00  0.67808634929E+03  0.67808634929E+03  0.00000000000E+00 0.  1.
         21   -1    0    0  501  502 -0.00000000000E+00 -0.00000000000E+00 -0.13598379848E+03  0.13598379848E+03  0.00000000000E+00 0.  1.
         25    1    1    2    0    0 -0.85671129084E+02 -0.42905851344E+01  0.30204520726E+03  0.33795600114E+03  0.12500000000E+03 0.  0.
         25    1    1    2    0    0  0.79809023989E+02 -0.51264660664E+02  0.29052580915E+03  0.33019356675E+03  0.12500000000E+03 0.  0.
         25    1    1    2    0    0  0.58621050947E+01  0.55555245798E+02 -0.50468465590E+02  0.14592057987E+03  0.12500000000E+03 0.  0.
</event>
<event>
 5    0  0.5641283E-005  0.2458167E+03  0.7546771E-02  0.1115977E+00
         21   -1    0    0  502  501  0.00000000000E+00  0.00000000000E+00  0.16988464661E+03  0.16988464661E+03  0.00000000000E+00 0.  1.
         21   -1    0    0  501  502 -0.00000000000E+00 -0.00000000000E+00 -0.35568755632E+03  0.35568755632E+03  0.00000000000E+00 0.  1.
         25    1    1    2    0    0  0.72408722298E+02  0.31002029026E+02 -0.56264984785E+02  0.15809774629E+03  0.12500000000E+03 0.  0.
         25    1    1    2    0    0  0.63485833864E+02 -0.38780764734E+02 -0.67943485057E+01  0.14562129647E+03  0.12500000000E+03 0.  0.
         25    1    1    2    0    0 -0.13589455616E+03  0.77787357081E+01 -0.12274357642E+03  0.22185316017E+03  0.12500000000E+03 0.  0.
</event>
<event>
 5    0  0.5641283E-005  0.3347853E+03  0.7546771E-02  0.1069039E+00
         21   -1    0    0  502  501  0.00000000000E+00  0.00000000000E+00  0.12981601339E+03  0.12981601339E+03  0.00000000000E+00 0.  1.
         21   -1    0    0  501  502 -0.00000000000E+00 -0.00000000000E+00 -0.86338494223E+03  0.86338494223E+03  0.00000000000E+00 0.  1.
         25    1    1    2    0    0  0.76983643108E+01 -0.75619390425E+02 -0.10003498823E+03  0.17722741292E+03  0.12500000000E+03 0.  0.
         25    1    1    2    0    0  0.93868827870E+01  0.15797856916E+03 -0.63400641889E+03  0.66530780927E+03  0.12500000000E+03 0.  0.
         25    1    1    2    0    0 -0.17085247098E+02 -0.82359178738E+02  0.47247827949E+00  0.15066573342E+03  0.12500000000E+03 0.  0.
</event>
<event>
 5    0  0.5641283E-005  0.2964512E+03  0.7546771E-02  0.1087028E+00
         21   -1    0    0  502  501  0.00000000000E+00  0.00000000000E+00  0.76157777333E+03  0.76157777333E+03  0.00000000000E+00 0.  1.
         21   -1    0    0  501  502 -0.00000000000E+00 -0.00000000000E+00 -0.11539637797E+03  0.11539637797E+03  0.00000000000E+00 0.  1.
         25    1    1    2    0    0  0.45401401286E+02 -0.89497263751E+02  0.33565667599E+03  0.37196969177E+03  0.12500000000E+03 0.  0.
         25    1    1    2    0    0  0.10530092181E+03  0.11231742933E+03  0.18569427855E+03  0.27168153075E+03  0.12500000000E+03 0.  0.
         25    1    1    2    0    0 -0.15070232309E+03 -0.22820165575E+02  0.12483044082E+03  0.23332292878E+03  0.12500000000E+03 0.  0.
</event>
<event>
 5    0  0.5641283E-005  0.3828495E+03  0.7546771E-02  0.1049886E+00
         21   -1    0    0  502  501  0.00000000000E+00  0.00000000000E+00  0.49101174279E+03  0.49101174279E+03  0.00000000000E+00 0.  1.
         21   -1    0    0  501  502 -0.00000000000E+00 -0.00000000000E+00 -0.29851375922E+03  0.29851375922E+03  0.00000000000E+00 0.  1.
         25    1    1    2    0    0  0.92573657517E+02 -0.32273187596E+02  0.37911861802E+01  0.15890504648E+03  0.12500000000E+03 0.  0.
         25    1    1    2    0    0  0.10065948384E+03 -0.20240053035E+03  0.15244571723E+03  0.29993833212E+03  0.12500000000E+03 0.  0.
         25    1    1    2    0    0 -0.19323314136E+03  0.23467371795E+03  0.36261080161E+02  0.33068212342E+03  0.12500000000E+03 0.  0.
</event>
<event>
 5    0  0.5641283E-005  0.2407548E+03  0.7546771E-02  0.1119291E+00
         21   -1    0    0  502  501  0.00000000000E+00  0.00000000000E+00  0.42299005515E+02  0.42299005515E+02  0.00000000000E+00 0. -1.
         21   -1    0    0  501  502 -0.00000000000E+00 -0.00000000000E+00 -0.13703124839E+04  0.13703124839E+04  0.00000000000E+00 0. -1.
         25    1    1    2    0    0  0.35172562776E+02 -0.78764055888E+01 -0.48059151123E+03  0.49788788658E+03  0.12500000000E+03 0.  0.
         25    1    1    2    0    0 -0.29022319186E+02  0.23784334773E+02 -0.12279703269E+03  0.17919849561E+03  0.12500000000E+03 0.  0.
         25    1    1    2    0    0 -0.61502435905E+01 -0.15907929184E+02 -0.72462493446E+03  0.73552510722E+03  0.12500000000E+03 0.  0.
</event>
<event>
 5    0  0.5641283E-005  0.2525208E+03  0.7546771E-02  0.1111722E+00
         21   -1    0    0  502  501  0.00000000000E+00  0.00000000000E+00  0.15129817071E+03  0.15129817071E+03  0.00000000000E+00 0.  1.
         21   -1    0    0  501  502 -0.00000000000E+00 -0.00000000000E+00 -0.42146400626E+03  0.42146400626E+03  0.00000000000E+00 0.  1.
         25    1    1    2    0    0  0.65967200562E+02  0.37118760974E+02 -0.23872556251E+03  0.27990063981E+03  0.12500000000E+03 0.  0.
         25    1    1    2    0    0 -0.43413662615E+02  0.39728715458E+02  0.10605549643E+02  0.13856621023E+03  0.12500000000E+03 0.  0.
         25    1    1    2    0    0 -0.22553537947E+02 -0.76847476432E+02 -0.42045822679E+02  0.15429532693E+03  0.12500000000E+03 0.  0.
</event>
<event>
 5    0  0.5641283E-005  0.2965771E+03  0.7546771E-02  0.1086964E+00
         21   -1    0    0  502  501  0.00000000000E+00  0.00000000000E+00  0.12415241948E+04  0.12415241948E+04  0.00000000000E+00 0.  1.
         21   -1    0    0  501  502 -0.00000000000E+00 -0.00000000000E+00 -0.70846767637E+02  0.70846767637E+02  0.00000000000E+00 0.  1.
         25    1    1    2    0    0  0.15284715108E+03  0.78240322985E+02  0.40370314939E+03  0.45616338363E+03  0.12500000000E+03 0.  0.
         25    1    1    2    0    0 -0.13153283677E+02 -0.13420185793E+03  0.40390105985E+03  0.44378397187E+03  0.12500000000E+03 0.  0.
         25    1    1    2    0    0 -0.13969386740E+03  0.55961534944E+02  0.36307321789E+03  0.41242360690E+03  0.12500000000E+03 0.  0.
</event>
<event>
 5    0  0.5641283E-005  0.3142776E+03  0.7546771E-02  0.1078313E+00
         21   -1    0    0  502  501  0.00000000000E+00  0.00000000000E+00  0.33453885430E+03  0.33453885430E+03  0.00000000000E+00 0.  1.
         21   -1    0    0  501  502 -0.00000000000E+00 -0.00000000000E+00 -0.29524351841E+03  0.29524351841E+03  0.00000000000E+00 0.  1.
         25    1    1    2    0    0  0.52530027862E+02 -0.13740279763E+03  0.15146097595E+03  0.24536576750E+03  0.12500000000E+03 0.  0.
         25    1    1    2    0    0  0.28328095018E+02  0.15332782364E+03 -0.43048067064E+01  0.19988855353E+03  0.12500000000E+03 0.  0.
         25    1    1    2    0    0 -0.80858122880E+02 -0.15925026014E+02 -0.10786083335E+03  0.18452805169E+03  0.12500000000E+03 0.  0.
</event>
<event>
 5    0  0.5641283E-005  0.3391062E+03  0.7546771E-02  0.1067177E+00
         21   -1    0    0  502  501  0.00000000000E+00  0.00000000000E+00  0.10728881404E+03  0.10728881404E+03  0.00000000000E+00 0. -1.
         21   -1    0    0  501  502 -0.00000000000E+00 -0.00000000000E+00 -0.10718077390E+04  0.10718077390E+04  0.00000000000E+00 0. -1.
         25    1    1    2    0    0  0.25084610346E+03 -0.25460294141E+02 -0.55424032242E+03  0.62159418368E+03  0.12500000000E+03 0.  0.
         25    1    1    2    0    0 -0.59076280079E+02  0.50389505122E+02 -0.16426756870E+03  0.22054011704E+03  0.12500000000E+03 0.  0.
         25    1    1    2    0    0 -0.19176982338E+03 -0.24929210981E+02 -0.24601103388E+03  0.33696225235E+03  0.12500000000E+03 0.  0.
</event>
<event>
 5    0  0.5641283E-005  0.4024111E+03  0.7546771E-02  0.1042948E+00
         21   -1    0    0  502  501  0.00000000000E+00  0.00000000000E+00  0.65573178250E+03  0.65573178250E+03  0.00000000000E+00 0. -1.
         21   -1    0    0  501  502 -0.00000000000E+00 -0.00000000000E+00 -0.24695261466E+03  0.24695261466E+03  0.00000000000E+00 0. -1.
         25    1    1    2    0    0 -0.38435202176E+02  0.37142706849E+02  0.20325526596E+03  0.24452923870E+03  0.12500000000E+03 0.  0.
         25    1    1    2    0    0 -0.66063413913E+02  0.91571906578E+02  0.36126215239E+03  0.39860397826E+03  0.12500000000E+03 0.  0.
         25    1    1    2    0    0  0.10449861609E+03 -0.12871461343E+03 -0.15573825051E+03  0.25955118021E+03  0.12500000000E+03 0.  0.
</event>
<event>
 5    0  0.5641283E-005  0.3814368E+03  0.7546771E-02  0.1050404E+00
         21   -1    0    0  502  501  0.00000000000E+00  0.00000000000E+00  0.20358782120E+04  0.20358782120E+04  0.00000000000E+00 0.  1.
         21   -1    0    0  501  502 -0.00000000000E+00 -0.00000000000E+00 -0.71464995215E+02  0.71464995215E+02  0.00000000000E+00 0.  1.
         25    1    1    2    0    0 -0.59612753857E+02 -0.82935515144E+02  0.14751254739E+03  0.21867082963E+03  0.12500000000E+03 0.  0.
         25    1    1    2    0    0 -0.10339305419E+03  0.19509953536E+03  0.12476082054E+04  0.12731477473E+04  0.12500000000E+03 0.  0.
         25    1    1    2    0    0  0.16300580805E+03 -0.11216402021E+03  0.56929246402E+03  0.61552463028E+03  0.12500000000E+03 0.  0.
</event>
<event>
 5    0  0.5641283E-005  0.2519074E+03  0.7546771E-02  0.1112105E+00
         21   -1    0    0  502  501  0.00000000000E+00  0.00000000000E+00  0.55108213434E+03  0.55108213434E+03  0.00000000000E+00 0. -1.
         21   -1    0    0  501  502 -0.00000000000E+00 -0.00000000000E+00 -0.11515045598E+03  0.11515045598E+03  0.00000000000E+00 0. -1.
         25    1    1    2    0    0  0.39890352208E+02  0.40487577616E+02 -0.81085830368E+00  0.13731766686E+03  0.12500000000E+03 0.  0.
         25    1    1    2    0    0 -0.78150165240E+02  0.72504026540E+01  0.15138206921E+03  0.21142740490E+03  0.12500000000E+03 0.  0.
         25    1    1    2    0    0  0.38259813032E+02 -0.47737980270E+02  0.28536046746E+03  0.31748751856E+03  0.12500000000E+03 0.  0.
</event>
<event>
 5    0  0.5641283E-005  0.2504430E+03  0.7546771E-02  0.1113025E+00
         21   -1    0    0  502  501  0.00000000000E+00  0.00000000000E+00  0.40317411965E+03  0.40317411965E+03  0.00000000000E+00 0. -1.
         21   -1    0    0  501  502 -0.00000000000E+00 -0.00000000000E+00 -0.15556979629E+03  0.15556979629E+03  0.00000000000E+00 0. -1.
         25    1    1    2    0    0 -0.12453641608E+03  0.44844408250E+02  0.16636629262E+03  0.24662336305E+03  0.12500000000E+03 0.  0.
         25    1    1    2    0    0  0.72272599856E+01 -0.50202591407E+01  0.30624121425E+02  0.12899718253E+03  0.12500000000E+03 0.  0.
         25    1    1    2    0    0  0.11730915609E+03 -0.39824149109E+02  0.50613909312E+02  0.18312337036E+03  0.12500000000E+03 0.  0.
</event>
<event>
 5    0  0.5641283E-005  0.2978733E+03  0.7546771E-02  0.1086309E+00
         21   -1    0    0  502  501  0.00000000000E+00  0.00000000000E+00  0.76177987038E+02  0.76177987038E+02  0.00000000000E+00 0.  1.
         21   -1    0    0  501  502 -0.00000000000E+00 -0.00000000000E+00 -0.11647521459E+04  0.11647521459E+04  0.00000000000E+00 0.  1.
         25    1    1    2    0    0  0.58415455182E+02 -0.10785186013E+03 -0.37152668391E+03  0.41073284017E+03  0.12500000000E+03 0.  0.
         25    1    1    2    0    0 -0.17836379639E+02  0.99548063999E+02 -0.67208228545E+03  0.69104815454E+03  0.12500000000E+03 0.  0.
         25    1    1    2    0    0 -0.40579075543E+02  0.83037961308E+01 -0.44965189507E+02  0.13914913823E+03  0.12500000000E+03 0.  0.
</event>
<event>
 5    0  0.5641283E-005  0.2416511E+03  0.7546771E-02  0.1118698E+00
         21   -1    0    0  502  501  0.00000000000E+00  0.00000000000E+00  0.30271829207E+02  0.30271829207E+02  0.00000000000E+00 0.  1.
         21   -1    0    0  501  502 -0.00000000000E+00 -0.00000000000E+00 -0.19290291978E+04  0.19290291978E+04  0.00000000000E+00 0.  1.
         25    1    1    2    0    0  0.93081601400E+02 -0.17224057875E+02 -0.85773459552E+03  0.87194867339E+03  0.12500000000E+03 0.  0.
         25    1    1    2    0    0 -0.58243959713E+02  0.17236718666E+02 -0.81469365646E+03  0.82646247174E+03  0.12500000000E+03 0.  0.
         25    1    1    2    0    0 -0.34837641687E+02 -0.12660791720E-01 -0.22632911665E+03  0.26088988190E+03  0.12500000000E+03 0.  0.
</event>
<event>
 5    0  0.5641283E-005  0.3147806E+03  0.7546771E-02  0.1078077E+00
         21   -1    0    0  502  501  0.00000000000E+00  0.00000000000E+00  0.19671045025E+03  0.19671045025E+03  0.00000000000E+00 0. -1.
         21   -1    0    0  501  502 -0.00000000000E+00 -0.00000000000E+00 -0.50371917712E+03  0.50371917712E+03  0.00000000000E+00 0. -1.
         25    1    1    2    0    0  0.34180159764E+02  0.53695625378E+02 -0.22989968053E+03  0.26931462384E+03  0.12500000000E+03 0.  0.
         25    1    1    2    0    0 -0.49755775768E+02  0.13421354226E+03  0.59369805911E+01  0.19012932411E+03  0.12500000000E+03 0.  0.
         25    1    1    2    0    0  0.15575616004E+02 -0.18790916764E+03 -0.83046026930E+02  0.24098567942E+03  0.12500000000E+03 0.  0.
</event>
<event>
 5    0  0.5641283E-005  0.5320933E+03  0.7546771E-02  0.1005726E+00
         21   -1    0    0  502  501  0.00000000000E+00  0.00000000000E+00  0.30714850887E+03  0.30714850887E+03  0.00000000000E+00 0. -1.
         21   -1    0    0  501  502 -0.00000000000E+00 -0.00000000000E+00 -0.92177971302E+03  0.92177971302E+03  0.00000000000E+00 0. -1.
         25    1    1    2    0    0  0.26529445169E+03  0.35911492474E+03 -0.28923153458E+03  0.54646551205E+03  0.12500000000E+03 0.  0.
         25    1    1    2    0    0 -0.10883078699E+03 -0.85923759899E+02 -0.28587442642E+03  0.34143260007E+03  0.12500000000E+03 0.  0.
         25    1    1    2    0    0 -0.15646366470E+03 -0.27319116484E+03 -0.39525243151E+02  0.34103010976E+03  0.12500000000E+03 0.  0.
</event>
<event>
 5    0  0.5641283E-005  0.5019854E+03  0.7546771E-02  0.1013262E+00
         21   -1    0    0  502  501  0.00000000000E+00  0.00000000000E+00  0.10824593792E+04  0.10824593792E+04  0.00000000000E+00 0. -1.
         21   -1    0    0  501  502 -0.00000000000E+00 -0.00000000000E+00 -0.23279331471E+03  0.23279331471E+03  0.00000000000E+00 0. -1.
         25    1    1    2    0    0  0.27017876879E+03 -0.89777852184E+02  0.40341033924E+03  0.50933440062E+03  0.12500000000E+03 0.  0.
         25    1    1    2    0    0 -0.43058117553E+03  0.16154024961E+02  0.24855360716E+03  0.51289862242E+03  0.12500000000E+03 0.  0.
         25    1    1    2    0    0  0.16040240674E+03  0.73623827223E+02  0.19770211814E+03  0.29301967091E+03  0.12500000000E+03 0.  0.
</event>
<event>
 5    0  0.5641283E-005  0.2859460E+03  0.7546771E-02  0.1092485E+00
         21   -1    0    0  502  501  0.00000000000E+00  0.00000000000E+00  0.67616156711E+03  0.67616156711E+03  0.00000000000E+00 0.  1.
         21   -1    0    0  501  502 -0.00000000000E+00 -0.00000000000E+00 -0.12092537112E+03  0.12092537112E+03  0.00000000000E+00 0.  1.
         25    1    1    2    0    0 -0.25111073471E+02 -0.24158184099E+02  0.24190789993E+03  0.27451523804E+03  0.12500000000E+03 0.  0.
         25    1    1    2    0    0 -0.49690370709E+02 -0.44441961839E+02  0.33153062139E+03  0.36052985152E+03  0.12500000000E+03 0.  0.
         25    1    1    2    0    0  0.74801444180E+02  0.68600145937E+02 -0.18202325323E+02  0.16204184867E+03  0.12500000000E+03 0.  0.
</event>
<event>
 5    0  0.5641283E-005  0.3126265E+03  0.7546771E-02  0.1079094E+00
         21   -1    0    0  502  501  0.00000000000E+00  0.00000000000E+00  0.83695370611E+03  0.83695370611E+03  0.00000000000E+00 0. -1.
         21   -1    0    0  501  502 -0.00000000000E+00 -0.00000000000E+00 -0.11677507111E+03  0.11677507111E+03  0.00000000000E+00 0. -1.
         25    1    1    2    0    0 -0.15352446457E+02 -0.95121795072E+02  0.13937981481E+03  0.21056017260E+03  0.12500000000E+03 0.  0.
         25    1    1    2    0    0  0.16939660302E+03 -0.45804482833E+02  0.32668237424E+03  0.39133059349E+03  0.12500000000E+03 0.  0.
         25    1    1    2    0    0 -0.15404415656E+03  0.14092627791E+03  0.25411644594E+03  0.35183801113E+03  0.12500000000E+03 0.  0.
</event>
<event>
 5    0  0.5641283E-005  0.3197491E+03  0.7546771E-02  0.1075765E+00
         21   -1    0    0  502  501  0.00000000000E+00  0.00000000000E+00  0.12272735040E+04  0.12272735040E+04  0.00000000000E+00 0.  1.
         21   -1    0    0  501  502 -0.00000000000E+00 -0.00000000000E+00 -0.83306210540E+02  0.83306210540E+02  0.00000000000E+00 0.  1.
         25    1    1    2    0    0 -0.11316157013E+03 -0.39974678957E+02  0.18421909901E+03  0.25291340880E+03  0.12500000000E+03 0.  0.
         25    1    1    2    0    0  0.18490971365E+03 -0.98937420722E+02  0.54059400556E+03  0.59316700369E+03  0.12500000000E+03 0.  0.
         25    1    1    2    0    0 -0.71748143521E+02  0.13891209968E+03  0.41915418891E+03  0.46449930206E+03  0.12500000000E+03 0.  0.
</event>
<event>
 5    0  0.5641283E-005  0.2959717E+03  0.7546771E-02  0.1087272E+00
         21   -1    0    0  502  501  0.00000000000E+00  0.00000000000E+00  0.53421503612E+03  0.53421503612E+03  0.00000000000E+00 0.  1.
         21   -1    0    0  501  502 -0.00000000000E+00 -0.00000000000E+00 -0.16397745013E+03  0.16397745013E+03  0.00000000000E+00 0.  1.
         25    1    1    2    0    0 -0.13700268999E+03 -0.12856807834E+02  0.12439687067E+03  0.22368418810E+03  0.12500000000E+03 0.  0.
         25    1    1    2    0    0  0.17297081507E+03 -0.98053239240E+02  0.13819057669E+03  0.27249766252E+03  0.12500000000E+03 0.  0.
         25    1    1    2    0    0 -0.35968125081E+02  0.11091004707E+03  0.10765013862E+03  0.20201063563E+03  0.12500000000E+03 0.  0.
</event>
<event>
 5    0  0.5641283E-005  0.4642012E+03  0.7546771E-02  0.1023570E+00
         21   -1    0    0  502  501  0.00000000000E+00  0.00000000000E+00  0.32795676749E+03  0.32795676749E+03  0.00000000000E+00 0.  1.
         21   -1    0    0  501  502 -0.00000000000E+00 -0.00000000000E+00 -0.65704624405E+03  0.65704624405E+03  0.00000000000E+00 0.  1.
         25    1    1    2    0    0 -0.30613906428E+03  0.76413363701E+02 -0.12234053752E+03  0.36076631765E+03  0.12500000000E+03 0.  0.
         25    1    1    2    0    0  0.32556818782E+03 -0.20445050026E+03 -0.10578424558E+03  0.41786356457E+03  0.12500000000E+03 0.  0.
         25    1    1    2    0    0 -0.19429123543E+02  0.12803713656E+03 -0.10096469346E+03  0.20637312932E+03  0.12500000000E+03 0.  0.
</event>
<event>
 5    0  0.5641283E-005  0.4041357E+03  0.7546771E-02  0.1042357E+00
         21   -1    0    0  502  501  0.00000000000E+00  0.00000000000E+00  0.12880996507E+04  0.12880996507E+04  0.00000000000E+00 0.  1.
         21   -1    0    0  501  502 -0.00000000000E+00 -0.00000000000E+00 -0.12679583989E+03  0.12679583989E+03  0.00000000000E+00 0.  1.
         25    1    1    2    0    0 -0.15932756813E+03 -0.19654639266E+03  0.42098157636E+03  0.50681973726E+03  0.12500000000E+03 0.  0.
         25    1    1    2    0    0  0.11124702190E+02  0.82384475439E+02  0.17607762600E+02  0.15114891364E+03  0.12500000000E+03 0.  0.
         25    1    1    2    0    0  0.14820286594E+03  0.11416191722E+03  0.72271447183E+03  0.75692683967E+03  0.12500000000E+03 0.  0.
</event>
<event>
 5    0  0.5641283E-005  0.2760423E+03  0.7546771E-02  0.1097870E+00
         21   -1    0    0  502  501  0.00000000000E+00  0.00000000000E+00  0.11175092190E+04  0.11175092190E+04  0.00000000000E+00 0. -1.
         21   -1    0    0  501  502 -0.00000000000E+00 -0.00000000000E+00 -0.68186759531E+02  0.68186759531E+02  0.00000000000E+00 0. -1.
         25    1    1    2    0    0  0.63299588152E+02 -0.60217370141E+02  0.12272826451E+03  0.19575545059E+03  0.12500000000E+03 0.  0.
         25    1    1    2    0    0 -0.70774612690E+02  0.13715457885E+03  0.46887207455E+03  0.50920177395E+03  0.12500000000E+03 0.  0.
         25    1    1    2    0    0  0.74750245379E+01 -0.76937208705E+02  0.45772212040E+03  0.48073875398E+03  0.12500000000E+03 0.  0.
</event>
<event>
 5    0  0.5641283E-005  0.3016469E+03  0.7546771E-02  0.1084420E+00
         21   -1    0    0  502  501  0.00000000000E+00  0.00000000000E+00  0.12149517228E+04  0.12149517228E+04  0.00000000000E+00 0.  1.
         21   -1    0    0  501  502 -0.00000000000E+00 -0.00000000000E+00 -0.74892549322E+02  0.74892549322E+02  0.00000000000E+00 0.  1.
         25    1    1    2    0    0  0.12906746581E+03  0.36552712588E+01  0.30610711635E+03  0.35496244649E+03  0.12500000000E+03 0.  0.
         25    1    1    2    0    0 -0.30445224788E+02 -0.14954376819E+03  0.49641164579E+03  0.53417204381E+03  0.12500000000E+03 0.  0.
         25    1    1    2    0    0 -0.98622241017E+02  0.14588849694E+03  0.33754041137E+03  0.40070978185E+03  0.12500000000E+03 0.  0.
</event>
<event>
 5    0  0.5641283E-005  0.3053165E+03  0.7546771E-02  0.1082613E+00
         21   -1    0    0  502  501  0.00000000000E+00  0.00000000000E+00  0.88293029519E+03  0.88293029519E+03  0.00000000000E+00 0.  1.
         21   -1    0    0  501  502 -0.00000000000E+00 -0.00000000000E+00 -0.10557813960E+03  0.10557813960E+03  0.00000000000E+00 0.  1.
         25    1    1    2    0    0 -0.20730698566E+03 -0.79551362966E+02  0.22670990888E+03  0.34106742506E+03  0.12500000000E+03 0.  0.
         25    1    1    2    0    0  0.64223349805E+02  0.31900654170E+02  0.25188716326E+03  0.29019723191E+03  0.12500000000E+03 0.  0.
         25    1    1    2    0    0  0.14308363585E+03  0.47650708797E+02  0.29875508346E+03  0.35724377782E+03  0.12500000000E+03 0.  0.
</event>
<event>
 5    0  0.5641283E-005  0.2709775E+03  0.7546771E-02  0.1100721E+00
         21   -1    0    0  502  501  0.00000000000E+00  0.00000000000E+00  0.13992222469E+04  0.13992222469E+04  0.00000000000E+00 0. -1.
         21   -1    0    0  501  502 -0.00000000000E+00 -0.00000000000E+00 -0.52478316963E+02  0.52478316963E+02  0.00000000000E+00 0. -1.
         25    1    1    2    0    0  0.57965075118E+02 -0.13706899092E+03  0.33610146226E+03  0.38824869754E+03  0.12500000000E+03 0.  0.
         25    1    1    2    0    0 -0.27051913588E+02 -0.56327763092E+01  0.27874778626E+03  0.30673907893E+03  0.12500000000E+03 0.  0.
         25    1    1    2    0    0 -0.30913161530E+02  0.14270176723E+03  0.73189468144E+03  0.75671278742E+03  0.12500000000E+03 0.  0.
</event>
<event>
 5    0  0.5641283E-005  0.3444898E+03  0.7546771E-02  0.1064900E+00
         21   -1    0    0  502  501  0.00000000000E+00  0.00000000000E+00  0.69326278516E+02  0.69326278516E+02  0.00000000000E+00 0. -1.
         21   -1    0    0  501  502 -0.00000000000E+00 -0.00000000000E+00 -0.17118069886E+04  0.17118069886E+04  0.00000000000E+00 0. -1.
         25    1    1    2    0    0  0.46038482533E+02 -0.16429393441E+01 -0.78086858818E+03  0.79215086513E+03  0.12500000000E+03 0.  0.
         25    1    1    2    0    0 -0.17806240748E+03 -0.13584446215E+03 -0.42329825088E+03  0.49494075206E+03  0.12500000000E+03 0.  0.
         25    1    1    2    0    0  0.13202392494E+03  0.13748740149E+03 -0.43831387103E+03  0.49404164993E+03  0.12500000000E+03 0.  0.
</event>
<event>
 5    0  0.5641283E-005  0.3977010E+03  0.7546771E-02  0.1044579E+00
         21   -1    0    0  502  501  0.00000000000E+00  0.00000000000E+00  0.10668660475E+03  0.10668660475E+03  0.00000000000E+00 0. -1.
         21   -1    0    0  501  502 -0.00000000000E+00 -0.00000000000E+00 -0.14825299905E+04  0.14825299905E+04  0.00000000000E+00 0. -1.
         25    1    1    2    0    0 -0.81932882233E+02  0.10979828302E+03 -0.87265552842E+03  0.89214423241E+03  0.12500000000E+03 0.  0.
         25    1    1    2    0    0 -0.15419520123E+03 -0.71314918750E+02 -0.24864502154E+03  0.32605417411E+03  0.12500000000E+03 0.  0.
         25    1    1    2    0    0  0.23612808346E+03 -0.38483364268E+02 -0.25454283583E+03  0.37101818877E+03  0.12500000000E+03 0.  0.
</event>
<event>
 5    0  0.5641283E-005  0.5501363E+03  0.7546771E-02  0.1001462E+00
         21   -1    0    0  502  501  0.00000000000E+00  0.00000000000E+00  0.10155276858E+04  0.10155276858E+04  0.00000000000E+00 0.  1.
         21   -1    0    0  501  502 -0.00000000000E+00 -0.00000000000E+00 -0.29802240212E+03  0.29802240212E+03  0.00000000000E+00 0.  1.
         25    1    1    2    0    0 -0.63073582363E+02 -0.43698993027E+03  0.52092439029E+03  0.69420868357E+03  0.12500000000E+03 0.  0.
         25    1    1    2    0    0 -0.57552420059E+02  0.34616966114E+03  0.52799589595E+02  0.37624262386E+03  0.12500000000E+03 0.  0.
         25    1    1    2    0    0  0.12062600242E+03  0.90820269139E+02  0.14378130376E+03  0.24309878045E+03  0.12500000000E+03 0.  0.
</event>
<event>
 5    0  0.5641283E-005  0.2821943E+03  0.7546771E-02  0.1094496E+00
         21   -1    0    0  502  501  0.00000000000E+00  0.00000000000E+00  0.13943291983E+04  0.13943291983E+04  0.00000000000E+00 0.  1.
         21   -1    0    0  501  502 -0.00000000000E+00 -0.00000000000E+00 -0.57112499805E+02  0.57112499805E+02  0.00000000000E+00 0.  1.
         25    1    1    2    0    0 -0.63342021353E+02 -0.81615417975E+02  0.59892091181E+03  0.62048734615E+03  0.12500000000E+03 0.  0.
         25    1    1    2    0    0 -0.55485076783E+01 -0.85010455909E+01  0.59934089813E+03  0.61232145633E+03  0.12500000000E+03 0.  0.
         25    1    1    2    0    0  0.68890529031E+02  0.90116463566E+02  0.13895488854E+03  0.21863289561E+03  0.12500000000E+03 0.  0.
</event>
<event>
 5    0  0.5641283E-005  0.2420727E+03  0.7546771E-02  0.1118420E+00
         21   -1    0    0  502  501  0.00000000000E+00  0.00000000000E+00  0.65523204266E+02  0.65523204266E+02  0.00000000000E+00 0.  1.
         21   -1    0    0  501  502 -0.00000000000E+00 -0.00000000000E+00 -0.89432761607E+03  0.89432761607E+03  0.00000000000E+00 0.  1.
         25    1    1    2    0    0  0.93283031283E+02  0.58818982059E+02 -0.17089621674E+03  0.23872979176E+03  0.12500000000E+03 0.  0.
         25    1    1    2    0    0 -0.87411686843E+02 -0.26632558953E+02 -0.25842953920E+03  0.30126553557E+03  0.12500000000E+03 0.  0.
         25    1    1    2    0    0 -0.58713444405E+01 -0.32186423105E+02 -0.39947865587E+03  0.41985549301E+03  0.12500000000E+03 0.  0.
</event>
<event>
 5    0  0.5641283E-005  0.3494545E+03  0.7546771E-02  0.1062839E+00
         21   -1    0    0  502  501  0.00000000000E+00  0.00000000000E+00  0.62375676020E+03  0.62375676020E+03  0.00000000000E+00 0.  1.
         21   -1    0    0  501  502 -0.00000000000E+00 -0.00000000000E+00 -0.19577890377E+03  0.19577890377E+03  0.00000000000E+00 0.  1.
         25    1    1    2    0    0  0.10735466211E+03 -0.15164587244E+03  0.10894516708E+03  0.24902920217E+03  0.12500000000E+03 0.  0.
         25    1    1    2    0    0 -0.48797557030E+02  0.14893434633E+03 -0.22881302297E+02  0.20177015409E+03  0.12500000000E+03 0.  0.
         25    1    1    2    0    0 -0.58557105082E+02  0.27115261147E+01  0.34191399166E+03  0.36873630771E+03  0.12500000000E+03 0.  0.
</event>
<event>
 5    0  0.5641283E-005  0.4941898E+03  0.7546771E-02  0.1015307E+00
         21   -1    0    0  502  501  0.00000000000E+00  0.00000000000E+00  0.59168418748E+03  0.59168418748E+03  0.00000000000E+00 0.  1.
         21   -1    0    0  501  502 -0.00000000000E+00 -0.00000000000E+00 -0.41275999970E+03  0.41275999970E+03  0.00000000000E+00 0.  1.
         25    1    1    2    0    0 -0.12363864721E+03 -0.20021920144E+03  0.15390744346E+03  0.30771211361E+03  0.12500000000E+03 0.  0.
         25    1    1    2    0    0 -0.72921682773E+02  0.35457643897E+03  0.12041528305E+03  0.40145592944E+03  0.12500000000E+03 0.  0.
         25    1    1    2    0    0  0.19656032998E+03 -0.15435723753E+03 -0.95398538727E+02  0.29527614413E+03  0.12500000000E+03 0.  0.
</event>
<event>
 5    0  0.5641283E-005  0.2533273E+03  0.7546771E-02  0.1111220E+00
         21   -1    0    0  502  501  0.00000000000E+00  0.00000000000E+00  0.80548976784E+02  0.80548976784E+02  0.00000000000E+00 0.  1.
         21   -1    0    0  501  502 -0.00000000000E+00 -0.00000000000E+00 -0.79671695629E+03  0.79671695629E+03  0.00000000000E+00 0.  1.
         25    1    1    2    0    0  0.48029219851E+01 -0.95153096850E+02 -0.25026895658E+03  0.29552788452E+03  0.12500000000E+03 0.  0.
         25    1    1    2    0    0  0.84917038808E+02  0.67728732939E+02 -0.12751821389E+03  0.20900712816E+03  0.12500000000E+03 0.  0.
         25    1    1    2    0    0 -0.89719960793E+02  0.27424363912E+02 -0.33838080903E+03  0.37273092040E+03  0.12500000000E+03 0.  0.
</event>
<event>
 5    0  0.5641283E-005  0.3234731E+03  0.7546771E-02  0.1074062E+00
         21   -1    0    0  502  501  0.00000000000E+00  0.00000000000E+00  0.64575556191E+03  0.64575556191E+03  0.00000000000E+00 0.  1.
         21   -1    0    0  501  502 -0.00000000000E+00 -0.00000000000E+00 -0.16203478344E+03  0.16203478344E+03  0.00000000000E+00 0.  1.
         25    1    1    2    0    0  0.17834784284E+02  0.16747735774E+03  0.17870907924E+03  0.27555159207E+03  0.12500000000E+03 0.  0.
         25    1    1    2    0    0 -0.12792863838E+03 -0.19625074412E+03  0.16386308067E+03  0.31201955114E+03  0.12500000000E+03 0.  0.
         25    1    1    2    0    0  0.11009385410E+03  0.28773386373E+02  0.14114861855E+03  0.22021920214E+03  0.12500000000E+03 0.  0.
</event>
<event>
 5    0  0.5641283E-005  0.3405952E+03  0.7546771E-02  0.1066543E+00
         21   -1    0    0  502  501  0.00000000000E+00  0.00000000000E+00  0.16941546472E+03  0.16941546472E+03  0.00000000000E+00 0. -1.
         21   -1    0    0  501  502 -0.00000000000E+00 -0.00000000000E+00 -0.68473743772E+03  0.68473743772E+03  0.00000000000E+00 0. -1.
         25    1    1    2    0    0 -0.79073050201E+02 -0.78507835951E+02  0.53665162931E+02  0.17584361599E+03  0.12500000000E+03 0.  0.
         25    1    1    2    0    0 -0.73060819630E+02 -0.14967687694E+02 -0.28802235389E+03  0.32271317199E+03  0.12500000000E+03 0.  0.
         25    1    1    2    0    0  0.15213386983E+03  0.93475523644E+02 -0.28096478204E+03  0.35559611446E+03  0.12500000000E+03 0.  0.
</event>
<event>
 5    0  0.5641283E-005  0.2885248E+03  0.7546771E-02  0.1091122E+00
         21   -1    0    0  502  501  0.00000000000E+00  0.00000000000E+00  0.14414880353E+03  0.14414880353E+03  0.00000000000E+00 0.  1.
         21   -1    0    0  501  502 -0.00000000000E+00 -0.00000000000E+00 -0.57750449353E+03  0.57750449353E+03  0.00000000000E+00 0.  1.
         25    1    1    2    0    0  0.12758173347E+03  0.14802750761E+03 -0.91616093763E+02  0.24941481584E+03  0.12500000000E+03 0.  0.
         25    1    1    2    0    0 -0.78888139175E+02 -0.49976865279E+02 -0.13004285134E+03  0.20311860759E+03  0.12500000000E+03 0.  0.
         25    1    1    2    0    0 -0.48693594293E+02 -0.98050642328E+02 -0.21169674489E+03  0.26911987363E+03  0.12500000000E+03 0.  0.
</event>
<event>
 5    0  0.5641283E-005  0.3186426E+03  0.7546771E-02  0.1076276E+00
         21   -1    0    0  502  501  0.00000000000E+00  0.00000000000E+00  0.18491913296E+04  0.18491913296E+04  0.00000000000E+00 0.  1.
         21   -1    0    0  501  502 -0.00000000000E+00 -0.00000000000E+00 -0.54906763768E+02  0.54906763768E+02  0.00000000000E+00 0.  1.
         25    1    1    2    0    0 -0.79415400705E+02  0.18493662783E+03  0.49841651986E+03  0.55186265451E+03  0.12500000000E+03 0.  0.
         25    1    1    2    0    0  0.13191799093E+03 -0.12398263853E+03  0.56327005465E+03  0.60470836397E+03  0.12500000000E+03 0.  0.
         25    1    1    2    0    0 -0.52502590228E+02 -0.60953989291E+02  0.73259799128E+03  0.74752707484E+03  0.12500000000E+03 0.  0.
</event>
<event>
 5    0  0.5824862E-005  0.3181578E+03  0.7546771E-02  0.1076500E+00
         21   -1    0    0  502  501  0.00000000000E+00  0.00000000000E+00  0.39577269236E+03  0.39577269236E+03  0.00000000000E+00 0.  1.
         21   -1    0    0  501  502 -0.00000000000E+00 -0.00000000000E+00 -0.25576399760E+03  0.25576399760E+03  0.00000000000E+00 0.  1.
         25    1    1    2    0    0  0.12980798757E+03 -0.23580406518E+02 -0.13406614667E+02  0.18223854292E+03  0.12500000000E+03 0.  0.
         25    1    1    2    0    0 -0.15229735193E+01  0.11215150716E+03  0.20295529450E+03  0.26343145517E+03  0.12500000000E+03 0.  0.
         25    1    1    2    0    0 -0.12828501405E+03 -0.88571100643E+02 -0.49539985075E+02  0.20586669186E+03  0.12500000000E+03 0.  0.
</event>
<event>
 5    0  0.6753079E-005  0.2920258E+03  0.7546771E-02  0.1089296E+00
         21   -1    0    0  502  501  0.00000000000E+00  0.00000000000E+00  0.46253404486E+03  0.46253404486E+03  0.00000000000E+00 0.  1.
         21   -1    0    0  501  502 -0.00000000000E+00 -0.00000000000E+00 -0.18437355048E+03  0.18437355048E+03  0.00000000000E+00 0.  1.
         25    1    1    2    0    0 -0.70998372738E+02 -0.17630692923E+01  0.19525559292E+03  0.24247396543E+03  0.12500000000E+03 0.  0.
         25    1    1    2    0    0  0.12236961079E+03 -0.11913379856E+03  0.20348182081E+02  0.21261757246E+03  0.12500000000E+03 0.  0.
         25    1    1    2    0    0 -0.51371238051E+02  0.12089686785E+03  0.62556719374E+02  0.19181605745E+03  0.12500000000E+03 0.  0.
</event>
<event>
 5    0  0.7199784E-005  0.2728280E+03  0.7546771E-02  0.1099672E+00
         21   -1    0    0  502  501  0.00000000000E+00  0.00000000000E+00  0.13492577432E+03  0.13492577432E+03  0.00000000000E+00 0. -1.
         21   -1    0    0  501  502 -0.00000000000E+00 -0.00000000000E+00 -0.55167461848E+03  0.55167461848E+03  0.00000000000E+00 0. -1.
         25    1    1    2    0    0 -0.68026539036E+02 -0.13422780643E+03 -0.20328552905E+03  0.28212536283E+03  0.12500000000E+03 0.  0.
         25    1    1    2    0    0  0.26983502363E+02  0.50880098822E+02  0.31714915522E+01  0.13766608956E+03  0.12500000000E+03 0.  0.
         25    1    1    2    0    0  0.41043036673E+02  0.83347707607E+02 -0.21663480667E+03  0.26680894041E+03  0.12500000000E+03 0.  0.
</event>
<event>
 5    0  0.5641283E-005  0.2607087E+03  0.7546771E-02  0.1106718E+00
         21   -1    0    0  502  501  0.00000000000E+00  0.00000000000E+00  0.30290283768E+03  0.30290283768E+03  0.00000000000E+00 0.  1.
         21   -1    0    0  501  502 -0.00000000000E+00 -0.00000000000E+00 -0.22439215735E+03  0.22439215735E+03  0.00000000000E+00 0.  1.
         25    1    1    2    0    0 -0.35461175901E+02  0.27161300473E+02 -0.18640527044E+02  0.13404365143E+03  0.12500000000E+03 0.  0.
         25    1    1    2    0    0  0.31546355481E+02 -0.15528331264E+03  0.45169151780E+02  0.20681714630E+03  0.12500000000E+03 0.  0.
         25    1    1    2    0    0  0.39148204199E+01  0.12812201217E+03  0.51982055595E+02  0.18643419731E+03  0.12500000000E+03 0.  0.
</event>
<event>
 5    0  0.5641283E-005  0.3040988E+03  0.7546771E-02  0.1083209E+00
         21   -1    0    0  502  501  0.00000000000E+00  0.00000000000E+00  0.62446225654E+02  0.62446225654E+02  0.00000000000E+00 0.  1.
         21   -1    0    0  501  502 -0.00000000000E+00 -0.00000000000E+00 -0.14808917402E+04  0.14808917402E+04  0.00000000000E+00 0.  1.
         25    1    1    2    0    0 -0.44999836456E+02 -0.26764262207E+02 -0.42529576211E+03  0.44636621319E+03  0.12500000000E+03 0.  0.
         25    1    1    2    0    0 -0.87173953647E+02  0.14912784113E+03 -0.69444837312E+03  0.72644473576E+03  0.12500000000E+03 0.  0.
         25    1    1    2    0    0  0.13217379010E+03 -0.12236357893E+03 -0.29870137929E+03  0.37052701686E+03  0.12500000000E+03 0.  0.
</event>
<event>
 5    0  0.5641283E-005  0.3159030E+03  0.7546771E-02  0.1077550E+00
         21   -1    0    0  502  501  0.00000000000E+00  0.00000000000E+00  0.18884679044E+03  0.18884679044E+03  0.00000000000E+00 0.  1.
         21   -1    0    0  501  502 -0.00000000000E+00 -0.00000000000E+00 -0.52844278088E+03  0.52844278088E+03  0.00000000000E+00 0.  1.
         25    1    1    2    0    0  0.90685243171E+02  0.49198351215E+02  0.91065343783E+02  0.18590908512E+03  0.12500000000E+03 0.  0.
         25    1    1    2    0    0 -0.98027215170E+02 -0.79350439198E+02 -0.29499616771E+03  0.34431608454E+03  0.12500000000E+03 0.  0.
         25    1    1    2    0    0  0.73419719987E+01  0.30152087982E+02 -0.13566516652E+03  0.18706440166E+03  0.12500000000E+03 0.  0.
</event>
<event>
 5    0  0.5641283E-005  0.2706220E+03  0.7546771E-02  0.1100924E+00
         21   -1    0    0  502  501  0.00000000000E+00  0.00000000000E+00  0.17611170816E+03  0.17611170816E+03  0.00000000000E+00 0. -1.
         21   -1    0    0  501  502 -0.00000000000E+00 -0.00000000000E+00 -0.41585111250E+03  0.41585111250E+03  0.00000000000E+00 0. -1.
         25    1    1    2    0    0 -0.21916855001E+02  0.13487960817E+03 -0.77149463421E+01  0.18535743209E+03  0.12500000000E+03 0.  0.
         25    1    1    2    0    0 -0.48352777343E+02  0.39352656145E+01 -0.85704557040E+02  0.15913437243E+03  0.12500000000E+03 0.  0.
         25    1    1    2    0    0  0.70269632343E+02 -0.13881487379E+03 -0.14631990095E+03  0.24747101614E+03  0.12500000000E+03 0.  0.
</event>
<event>
 5    0  0.5641283E-005  0.2582174E+03  0.7546771E-02  0.1108219E+00
         21   -1    0    0  502  501  0.00000000000E+00  0.00000000000E+00  0.30548427002E+02  0.30548427002E+02  0.00000000000E+00 0. -1.
         21   -1    0    0  501  502 -0.00000000000E+00 -0.00000000000E+00 -0.21826396804E+04  0.21826396804E+04  0.00000000000E+00 0. -1.
         25    1    1    2    0    0  0.24743307792E+02 -0.11725086591E+03 -0.50630059283E+03  0.53509371808E+03  0.12500000000E+03 0.  0.
         25    1    1    2    0    0 -0.29066833436E-01  0.37663149113E+02 -0.12122943618E+04  0.12193035443E+04  0.12500000000E+03 0.  0.
         25    1    1    2    0    0 -0.24714240959E+02  0.79587716792E+02 -0.43349629886E+03  0.45879084504E+03  0.12500000000E+03 0.  0.
</event>
<event>
 5    0  0.5641283E-005  0.3889108E+03  0.7546771E-02  0.1047689E+00
         21   -1    0    0  502  501  0.00000000000E+00  0.00000000000E+00  0.37591092790E+03  0.37591092790E+03  0.00000000000E+00 0.  1.
         21   -1    0    0  501  502 -0.00000000000E+00 -0.00000000000E+00 -0.40236022429E+03  0.40236022429E+03  0.00000000000E+00 0.  1.
         25    1    1    2    0    0 -0.15924683356E+03 -0.12310893050E+03 -0.12184058457E+03  0.26643102450E+03  0.12500000000E+03 0.  0.
         25    1    1    2    0    0 -0.46634415041E+01  0.23168848321E+03  0.91755968657E+02  0.27882872651E+03  0.12500000000E+03 0.  0.
         25    1    1    2    0    0  0.16391027506E+03 -0.10857955271E+03  0.36353195184E+01  0.23301140119E+03  0.12500000000E+03 0.  0.
</event>
<event>
 5    0  0.5641283E-005  0.2453220E+03  0.7546771E-02  0.1116297E+00
         21   -1    0    0  502  501  0.00000000000E+00  0.00000000000E+00  0.49853481032E+03  0.49853481032E+03  0.00000000000E+00 0.  1.
         21   -1    0    0  501  502 -0.00000000000E+00 -0.00000000000E+00 -0.12071947581E+03  0.12071947581E+03  0.00000000000E+00 0.  1.
         25    1    1    2    0    0 -0.99881505597E+01  0.26166082371E+02  0.14733801495E+03  0.19523810506E+03  0.12500000000E+03 0.  0.
         25    1    1    2    0    0  0.90529561681E+02  0.53648607976E+02  0.37487615843E+02  0.16764276309E+03  0.12500000000E+03 0.  0.
         25    1    1    2    0    0 -0.80541411121E+02 -0.79814690346E+02  0.19298970372E+03  0.25637341797E+03  0.12500000000E+03 0.  0.
</event>
<event>
 5    0  0.5641283E-005  0.3025946E+03  0.7546771E-02  0.1083951E+00
         21   -1    0    0  502  501  0.00000000000E+00  0.00000000000E+00  0.60942595460E+03  0.60942595460E+03  0.00000000000E+00 0. -1.
         21   -1    0    0  501  502 -0.00000000000E+00 -0.00000000000E+00 -0.15024545712E+03  0.15024545712E+03  0.00000000000E+00 0. -1.
         25    1    1    2    0    0  0.50919011664E+02  0.45733754841E+02  0.31650243312E+03  0.34710677356E+03  0.12500000000E+03 0.  0.
         25    1    1    2    0    0  0.42399495040E+02 -0.14262401094E+03  0.11781875505E+03  0.22725664944E+03  0.12500000000E+03 0.  0.
         25    1    1    2    0    0 -0.93318506704E+02  0.96890256098E+02  0.24859309318E+02  0.18530798871E+03  0.12500000000E+03 0.  0.
</event>
<event>
 5    0  0.5641283E-005  0.3887565E+03  0.7546771E-02  0.1047744E+00
         21   -1    0    0  502  501  0.00000000000E+00  0.00000000000E+00  0.47725728986E+03  0.47725728986E+03  0.00000000000E+00 0.  1.
         21   -1    0    0  501  502 -0.00000000000E+00 -0.00000000000E+00 -0.31666693319E+03  0.31666693319E+03  0.00000000000E+00 0.  1.
         25    1    1    2    0    0 -0.41548334248E+02  0.73613264532E+02  0.50644794151E+02  0.15916994681E+03  0.12500000000E+03 0.  0.
         25    1    1    2    0    0  0.21691604823E+03  0.13810590673E+03  0.16150947218E+03  0.32838410902E+03  0.12500000000E+03 0.  0.
         25    1    1    2    0    0 -0.17536771398E+03 -0.21171917126E+03 -0.51563909654E+02  0.30637016722E+03  0.12500000000E+03 0.  0.
</event>
<event>
 5    0  0.5641283E-005  0.4604631E+03  0.7546771E-02  0.1024647E+00
         21   -1    0    0  502  501  0.00000000000E+00  0.00000000000E+00  0.72621818626E+03  0.72621818626E+03  0.00000000000E+00 0. -1.
         21   -1    0    0  501  502 -0.00000000000E+00 -0.00000000000E+00 -0.29195941842E+03  0.29195941842E+03  0.00000000000E+00 0. -1.
         25    1    1    2    0    0  0.16669319321E+03  0.17697211334E+03  0.10272326918E+03  0.29203222356E+03  0.12500000000E+03 0.  0.
         25    1    1    2    0    0  0.12380847659E+03  0.11590618327E+03  0.70199232088E+02  0.22207141730E+03  0.12500000000E+03 0.  0.
         25    1    1    2    0    0 -0.29050166980E+03 -0.29287829661E+03  0.26133626657E+03  0.50407396383E+03  0.12500000000E+03 0.  0.
</event>
<event>
 5    0  0.5641283E-005  0.3046072E+03  0.7546771E-02  0.1082960E+00
         21   -1    0    0  502  501  0.00000000000E+00  0.00000000000E+00  0.20935523697E+03  0.20935523697E+03  0.00000000000E+00 0. -1.
         21   -1    0    0  501  502 -0.00000000000E+00 -0.00000000000E+00 -0.44319669588E+03  0.44319669588E+03  0.00000000000E+00 0. -1.
         25    1    1    2    0    0  0.77534383327E+02 -0.30804793439E+02 -0.23378269518E+02  0.15209227259E+03  0.12500000000E+03 0.  0.
         25    1    1    2    0    0 -0.12395520821E+03  0.12921611936E+03  0.16992913986E+02  0.21903300726E+03  0.12500000000E+03 0.  0.
         25    1    1    2    0    0  0.46420824884E+02 -0.98411325916E+02 -0.22745610338E+03  0.28142665299E+03  0.12500000000E+03 0.  0.
</event>
<event>
 5    0  0.5641283E-005  0.4011517E+03  0.7546771E-02  0.1043382E+00
         21   -1    0    0  502  501  0.00000000000E+00  0.00000000000E+00  0.30130282555E+03  0.30130282555E+03  0.00000000000E+00 0. -1.
         21   -1    0    0  501  502 -0.00000000000E+00 -0.00000000000E+00 -0.53408947493E+03  0.53408947493E+03  0.00000000000E+00 0. -1.
         25    1    1    2    0    0  0.27624712499E+03  0.20574816703E+03 -0.66236654701E+02  0.37236685772E+03  0.12500000000E+03 0.  0.
         25    1    1    2    0    0 -0.10141042875E+03 -0.73640285979E+02 -0.43197895514E+02  0.18220325177E+03  0.12500000000E+03 0.  0.
         25    1    1    2    0    0 -0.17483669624E+03 -0.13210788105E+03 -0.12335209917E+03  0.28082219100E+03  0.12500000000E+03 0.  0.
</event>
<event>
 5    0  0.5641283E-005  0.3227017E+03  0.7546771E-02  0.1074413E+00
         21   -1    0    0  502  501  0.00000000000E+00  0.00000000000E+00  0.27253531050E+03  0.27253531050E+03  0.00000000000E+00 0. -1.
         21   -1    0    0  501  502 -0.00000000000E+00 -0.00000000000E+00 -0.38210225513E+03  0.38210225513E+03  0.00000000000E+00 0. -1.
         25    1    1    2    0    0 -0.29799021173E+02 -0.96647395445E+02 -0.25597840599E+03  0.30228900913E+03  0.12500000000E+03 0.  0.
         25    1    1    2    0    0 -0.59989906296E+02  0.20572623462E+02  0.25767164237E+02  0.14251655499E+03  0.12500000000E+03 0.  0.
         25    1    1    2    0    0  0.89788927469E+02  0.76074771983E+02  0.12064429712E+03  0.20983200150E+03  0.12500000000E+03 0.  0.
</event>
<event>
 5    0  0.5641283E-005  0.4034564E+03  0.7546771E-02  0.1042589E+00
         21   -1    0    0  502  501  0.00000000000E+00  0.00000000000E+00  0.87385050778E+03  0.87385050778E+03  0.00000000000E+00 0. -1.
         21   -1    0    0  501  502 -0.00000000000E+00 -0.00000000000E+00 -0.18627561920E+03  0.18627561920E+03  0.00000000000E+00 0. -1.
         25    1    1    2    0    0  0.13302304459E+03 -0.17616614892E+03  0.39188817898E+03  0.46683079080E+03  0.12500000000E+03 0.  0.
         25    1    1    2    0    0  0.22962859461E+02  0.11540422887E+03  0.33894661286E+03  0.37994109454E+03  0.12500000000E+03 0.  0.
         25    1    1    2    0    0 -0.15598590405E+03  0.60761920054E+02 -0.43259903255E+02  0.21335424163E+03  0.12500000000E+03 0.  0.
</event>
<event>
 5    0  0.5641283E-005  0.2200748E+03  0.7546771E-02  0.1133827E+00
         21   -1    0    0  502  501  0.00000000000E+00  0.00000000000E+00  0.69721099983E+03  0.69721099983E+03  0.00000000000E+00 0. -1.
         21   -1    0    0  501  502 -0.00000000000E+00 -0.00000000000E+00 -0.69466645744E+02  0.69466645744E+02  0.00000000000E+00 0. -1.
         25    1    1    2    0    0 -0.45154813955E+02 -0.12823973093E+02  0.14362496877E+03  0.19610339916E+03  0.12500000000E+03 0.  0.
         25    1    1    2    0    0  0.44350378663E+02  0.85081758300E+02  0.25399540244E+03  0.29890554719E+03  0.12500000000E+03 0.  0.
         25    1    1    2    0    0  0.80443529158E+00 -0.72257785207E+02  0.23012398288E+03  0.27166869922E+03  0.12500000000E+03 0.  0.
</event>
<event>
 5    0  0.5641283E-005  0.2412452E+03  0.7546771E-02  0.1118966E+00
         21   -1    0    0  502  501  0.00000000000E+00  0.00000000000E+00  0.17113819453E+03  0.17113819453E+03  0.00000000000E+00 0.  1.
         21   -1    0    0  501  502 -0.00000000000E+00 -0.00000000000E+00 -0.34007162584E+03  0.34007162584E+03  0.00000000000E+00 0.  1.
         25    1    1    2    0    0 -0.10822683237E+02  0.33905234835E+02  0.40763647188E+02  0.13621075711E+03  0.12500000000E+03 0.  0.
         25    1    1    2    0    0 -0.68788801510E+02  0.21646262271E+02 -0.14328320075E+03  0.20336060460E+03  0.12500000000E+03 0.  0.
         25    1    1    2    0    0  0.79611484747E+02 -0.55551497106E+02 -0.66413877750E+02  0.17163845866E+03  0.12500000000E+03 0.  0.
</event>
<event>
 5    0  0.5641283E-005  0.4114650E+03  0.7546771E-02  0.1039881E+00
         21   -1    0    0  502  501  0.00000000000E+00  0.00000000000E+00  0.71122385936E+02  0.71122385936E+02  0.00000000000E+00 0. -1.
         21   -1    0    0  501  502 -0.00000000000E+00 -0.00000000000E+00 -0.23804520301E+04  0.23804520301E+04  0.00000000000E+00 0. -1.
         25    1    1    2    0    0  0.76842865277E+02  0.24204730690E+03 -0.47512576607E+03  0.55304721164E+03  0.12500000000E+03 0.  0.
         25    1    1    2    0    0 -0.11137003846E+03 -0.16409387685E+03 -0.46264604007E+03  0.51864867133E+03  0.12500000000E+03 0.  0.
         25    1    1    2    0    0  0.34527173181E+02 -0.77953430050E+02 -0.13715578380E+04  0.13798785331E+04  0.12500000000E+03 0.  0.
</event>
<event>
 5    0  0.5641283E-005  0.2784618E+03  0.7546771E-02  0.1096532E+00
         21   -1    0    0  502  501  0.00000000000E+00  0.00000000000E+00  0.35888661553E+03  0.35888661553E+03  0.00000000000E+00 0. -1.
         21   -1    0    0  501  502 -0.00000000000E+00 -0.00000000000E+00 -0.21605979724E+03  0.21605979724E+03  0.00000000000E+00 0. -1.
         25    1    1    2    0    0  0.74194960369E+02 -0.15262038069E+03  0.12219559297E+03  0.24362806835E+03  0.12500000000E+03 0.  0.
         25    1    1    2    0    0 -0.30163674204E+01  0.47582415257E+02  0.63544420305E+02  0.14810833220E+03  0.12500000000E+03 0.  0.
         25    1    1    2    0    0 -0.71178592948E+02  0.10503796543E+03 -0.42913194991E+02  0.18321001223E+03  0.12500000000E+03 0.  0.
</event>
<event>
 5    0  0.5641283E-005  0.2738239E+03  0.7546771E-02  0.1099111E+00
         21   -1    0    0  502  501  0.00000000000E+00  0.00000000000E+00  0.40920956030E+03  0.40920956030E+03  0.00000000000E+00 0. -1.
         21   -1    0    0  501  502 -0.00000000000E+00 -0.00000000000E+00 -0.18323012528E+03  0.18323012528E+03  0.00000000000E+00 0. -1.
         25    1    1    2    0    0 -0.80421690959E+02  0.93063412908E+02  0.13199496506E+03  0.21949058750E+03  0.12500000000E+03 0.  0.
         25    1    1    2    0    0  0.46374055006E+02 -0.59572364189E+02  0.16591750366E+03  0.22102723265E+03  0.12500000000E+03 0.  0.
         25    1    1    2    0    0  0.34047635953E+02 -0.33491048719E+02 -0.71933033708E+02  0.15192186543E+03  0.12500000000E+03 0.  0.
</event>
<event>
 5    0  0.5641283E-005  0.3078586E+03  0.7546771E-02  0.1081377E+00
         21   -1    0    0  502  501  0.00000000000E+00  0.00000000000E+00  0.28344437191E+04  0.28344437191E+04  0.00000000000E+00 0. -1.
         21   -1    0    0  501  502 -0.00000000000E+00 -0.00000000000E+00 -0.33437576371E+02  0.33437576371E+02  0.00000000000E+00 0. -1.
         25    1    1    2    0    0  0.17858109417E+03 -0.10586804953E+03  0.12464538812E+04  0.12697919235E+04  0.12500000000E+03 0.  0.
         25    1    1    2    0    0 -0.98002231438E+02  0.37469114329E+02  0.40032199691E+03  0.43230900188E+03  0.12500000000E+03 0.  0.
         25    1    1    2    0    0 -0.80578862730E+02  0.68398935200E+02  0.11542302646E+04  0.11657803701E+04  0.12500000000E+03 0.  0.
</event>
<event>
 5    0  0.5641283E-005  0.2988579E+03  0.7546771E-02  0.1085813E+00
         21   -1    0    0  502  501  0.00000000000E+00  0.00000000000E+00  0.52042733621E+03  0.52042733621E+03  0.00000000000E+00 0. -1.
         21   -1    0    0  501  502 -0.00000000000E+00 -0.00000000000E+00 -0.17162057399E+03  0.17162057399E+03  0.00000000000E+00 0. -1.
         25    1    1    2    0    0  0.36669978603E+02  0.65809528836E+02  0.12778852186E+03  0.19398579261E+03  0.12500000000E+03 0.  0.
         25    1    1    2    0    0  0.45188127934E+02 -0.81651100133E+02 -0.69664265899E+02  0.17084197085E+03  0.12500000000E+03 0.  0.
         25    1    1    2    0    0 -0.81858106537E+02  0.15841571297E+02  0.29068250627E+03  0.32722014675E+03  0.12500000000E+03 0.  0.
</event>
<event>
 5    0  0.5797518E-005  0.3270920E+03  0.7546771E-02  0.1072431E+00
         21   -1    0    0  502  501  0.00000000000E+00  0.00000000000E+00  0.31283332007E+03  0.31283332007E+03  0.00000000000E+00 0. -1.
         21   -1    0    0  501  502 -0.00000000000E+00 -0.00000000000E+00 -0.34200065904E+03  0.34200065904E+03  0.00000000000E+00 0. -1.
         25    1    1    2    0    0  0.42341429641E+01  0.57919219883E+02  0.13826056486E+03  0.19522691360E+03  0.12500000000E+03 0.  0.
         25    1    1    2    0    0 -0.12578481435E+03 -0.18725177567E+02  0.43105887062E+02  0.18345454286E+03  0.12500000000E+03 0.  0.
         25    1    1    2    0    0  0.12155067138E+03 -0.39194042316E+02 -0.21053379089E+03  0.27615252266E+03  0.12500000000E+03 0.  0.
</event>
<event>
 5    0  0.5641283E-005  0.2769229E+03  0.7546771E-02  0.1097382E+00
         21   -1    0    0  502  501  0.00000000000E+00  0.00000000000E+00  0.32639392231E+03  0.32639392231E+03  0.00000000000E+00 0.  1.
         21   -1    0    0  501  502 -0.00000000000E+00 -0.00000000000E+00 -0.23495010735E+03  0.23495010735E+03  0.00000000000E+00 0.  1.
         25    1    1    2    0    0  0.11484998602E+02 -0.68614190664E+02 -0.74308894731E+02  0.16120367300E+03  0.12500000000E+03 0.  0.
         25    1    1    2    0    0  0.60289529503E+02  0.12963133294E+03  0.28636355367E+02  0.19205246860E+03  0.12500000000E+03 0.  0.
         25    1    1    2    0    0 -0.71774528105E+02 -0.61017142274E+02  0.13711635432E+03  0.20808788806E+03  0.12500000000E+03 0.  0.
</event>
<event>
 5    0  0.5641283E-005  0.2975891E+03  0.7546771E-02  0.1086452E+00
         21   -1    0    0  502  501  0.00000000000E+00  0.00000000000E+00  0.15516270261E+04  0.15516270261E+04  0.00000000000E+00 0.  1.
         21   -1    0    0  501  502 -0.00000000000E+00 -0.00000000000E+00 -0.57075095068E+02  0.57075095068E+02  0.00000000000E+00 0.  1.
         25    1    1    2    0    0  0.73211303937E+02  0.30490853372E+02  0.20778420474E+03  0.25512519065E+03  0.12500000000E+03 0.  0.
         25    1    1    2    0    0 -0.15387582257E+03 -0.10131188098E+03  0.98408609043E+03  0.10089560443E+04  0.12500000000E+03 0.  0.
         25    1    1    2    0    0  0.80664518632E+02  0.70821027611E+02  0.30268163589E+03  0.34462088623E+03  0.12500000000E+03 0.  0.
</event>
<event>
 5    0  0.5641283E-005  0.3113368E+03  0.7546771E-02  0.1079707E+00
         21   -1    0    0  502  501  0.00000000000E+00  0.00000000000E+00  0.87807982911E+03  0.87807982911E+03  0.00000000000E+00 0.  1.
         21   -1    0    0  501  502 -0.00000000000E+00 -0.00000000000E+00 -0.11038926529E+03  0.11038926529E+03  0.00000000000E+00 0.  1.
         25    1    1    2    0    0 -0.68247100054E+02 -0.80992912179E+02  0.15836264061E+03  0.22786233658E+03  0.12500000000E+03 0.  0.
         25    1    1    2    0    0 -0.78016049540E+01 -0.14126053784E+03  0.26786606898E+03  0.32770815598E+03  0.12500000000E+03 0.  0.
         25    1    1    2    0    0  0.76048705008E+02  0.22225345002E+03  0.34146185423E+03  0.43289860184E+03  0.12500000000E+03 0.  0.
</event>
<event>
 5    0  0.5641283E-005  0.2628924E+03  0.7546771E-02  0.1105418E+00
         21   -1    0    0  502  501  0.00000000000E+00  0.00000000000E+00  0.63496397413E+03  0.63496397413E+03  0.00000000000E+00 0. -1.
         21   -1    0    0  501  502 -0.00000000000E+00 -0.00000000000E+00 -0.10884461710E+03  0.10884461710E+03  0.00000000000E+00 0. -1.
         25    1    1    2    0    0  0.12168874409E+03  0.20282658272E+02  0.92332684665E+02  0.19841839966E+03  0.12500000000E+03 0.  0.
         25    1    1    2    0    0  0.26281097167E+02 -0.44485961916E+02  0.18447416161E+03  0.22874748781E+03  0.12500000000E+03 0.  0.
         25    1    1    2    0    0 -0.14796984126E+03  0.24203303644E+02  0.24931251075E+03  0.31664270376E+03  0.12500000000E+03 0.  0.
</event>
<event>
 5    0  0.5641283E-005  0.3158646E+03  0.7546771E-02  0.1077568E+00
         21   -1    0    0  502  501  0.00000000000E+00  0.00000000000E+00  0.30793670325E+03  0.30793670325E+03  0.00000000000E+00 0.  1.
         21   -1    0    0  501  502 -0.00000000000E+00 -0.00000000000E+00 -0.32399659316E+03  0.32399659316E+03  0.00000000000E+00 0.  1.
         25    1    1    2    0    0 -0.43108821322E+02 -0.94035984216E+02 -0.19328793420E+03  0.25236157059E+03  0.12500000000E+03 0.  0.
         25    1    1    2    0    0 -0.42055959047E+02  0.35075245816E+02 -0.36596012637E+01  0.13651875051E+03  0.12500000000E+03 0.  0.
         25    1    1    2    0    0  0.85164780369E+02  0.58960738400E+02  0.18088764556E+03  0.24305297530E+03  0.12500000000E+03 0.  0.
</event>
<event>
 5    0  0.6147690E-005  0.2746376E+03  0.7546771E-02  0.1098654E+00
         21   -1    0    0  502  501  0.00000000000E+00  0.00000000000E+00  0.56195766188E+03  0.56195766188E+03  0.00000000000E+00 0.  1.
         21   -1    0    0  501  502 -0.00000000000E+00 -0.00000000000E+00 -0.13421974127E+03  0.13421974127E+03  0.00000000000E+00 0.  1.
         25    1    1    2    0    0  0.38364428357E+01  0.58446126835E+02  0.25635665327E+03  0.29116043981E+03  0.12500000000E+03 0.  0.
         25    1    1    2    0    0 -0.89645820251E+02 -0.12634527878E+03  0.73484060759E+02  0.21218956088E+03  0.12500000000E+03 0.  0.
         25    1    1    2    0    0  0.85809377415E+02  0.67899151947E+02  0.97897206582E+02  0.19282740247E+03  0.12500000000E+03 0.  0.
</event>
<event>
 5    0  0.5641283E-005  0.6932483E+03  0.7546771E-02  0.9728849E-01
         21   -1    0    0  502  501  0.00000000000E+00  0.00000000000E+00  0.42725597036E+03  0.42725597036E+03  0.00000000000E+00 0. -1.
         21   -1    0    0  501  502 -0.00000000000E+00 -0.00000000000E+00 -0.11248367276E+04  0.11248367276E+04  0.00000000000E+00 0. -1.
         25    1    1    2    0    0  0.51470753144E+03  0.25827450154E+03  0.26454607035E+01  0.58928902886E+03  0.12500000000E+03 0.  0.
         25    1    1    2    0    0 -0.21880737552E+03 -0.21448916476E+03 -0.29053240985E+03  0.44035934253E+03  0.12500000000E+03 0.  0.
         25    1    1    2    0    0 -0.29590015592E+03 -0.43785336782E+02 -0.40969380812E+03  0.52244432661E+03  0.12500000000E+03 0.  0.
</event>
<event>
 5    0  0.5641283E-005  0.3147353E+03  0.7546771E-02  0.1078098E+00
         21   -1    0    0  502  501  0.00000000000E+00  0.00000000000E+00  0.28300008628E+03  0.28300008628E+03  0.00000000000E+00 0.  1.
         21   -1    0    0  501  502 -0.00000000000E+00 -0.00000000000E+00 -0.35002932161E+03  0.35002932161E+03  0.00000000000E+00 0.  1.
         25    1    1    2    0    0  0.39301999953E+02 -0.61216538642E+01 -0.10543783893E+03  0.16829812752E+03  0.12500000000E+03 0.  0.
         25    1    1    2    0    0  0.11863108681E+02  0.18813503671E+03  0.67920679017E+02  0.23616465448E+03  0.12500000000E+03 0.  0.
         25    1    1    2    0    0 -0.51165108634E+02 -0.18201338285E+03 -0.29512075415E+02  0.22856662589E+03  0.12500000000E+03 0.  0.
</event>
<event>
 5    0  0.5903682E-005  0.2538963E+03  0.7546771E-02  0.1110867E+00
         21   -1    0    0  502  501  0.00000000000E+00  0.00000000000E+00  0.13386091884E+03  0.13386091884E+03  0.00000000000E+00 0. -1.
         21   -1    0    0  501  502 -0.00000000000E+00 -0.00000000000E+00 -0.48156950635E+03  0.48156950635E+03  0.00000000000E+00 0.  1.
         25    1    1    2    0    0 -0.10980358757E+03 -0.66926804250E+02 -0.12369967492E+03  0.21785920808E+03  0.12500000000E+03 0.  0.
         25    1    1    2    0    0 -0.14646985120E+02  0.45644690566E+01 -0.32973864923E+02  0.13018311841E+03  0.12500000000E+03 0.  0.
         25    1    1    2    0    0  0.12445057269E+03  0.62362335193E+02 -0.19103504766E+03  0.26738809870E+03  0.12500000000E+03 0.  0.
</event>
<event>
 5    0  0.5641283E-005  0.6365131E+03  0.7546771E-02  0.9832421E-01
         21   -1    0    0  502  501  0.00000000000E+00  0.00000000000E+00  0.41806372549E+03  0.41806372549E+03  0.00000000000E+00 0. -1.
         21   -1    0    0  501  502 -0.00000000000E+00 -0.00000000000E+00 -0.96910799094E+03  0.96910799094E+03  0.00000000000E+00 0. -1.
         25    1    1    2    0    0 -0.13726676244E+03 -0.13025702542E+03  0.15988024081E+03  0.27748107709E+03  0.12500000000E+03 0.  0.
         25    1    1    2    0    0 -0.19702076797E+02 -0.22049670868E+02  0.15878287006E+03  0.20423359087E+03  0.12500000000E+03 0.  0.
         25    1    1    2    0    0  0.15696883923E+03  0.15230669629E+03 -0.86970737631E+03  0.90545704848E+03  0.12500000000E+03 0.  0.
</event>
<event>
 5    0  0.5641283E-005  0.3801525E+03  0.7546771E-02  0.1050877E+00
         21   -1    0    0  502  501  0.00000000000E+00  0.00000000000E+00  0.13792148553E+04  0.13792148553E+04  0.00000000000E+00 0. -1.
         21   -1    0    0  501  502 -0.00000000000E+00 -0.00000000000E+00 -0.10478127336E+03  0.10478127336E+03  0.00000000000E+00 0. -1.
         25    1    1    2    0    0 -0.84072250271E+02 -0.20121246681E+03  0.51190994307E+03  0.57029061879E+03  0.12500000000E+03 0.  0.
         25    1    1    2    0    0 -0.82205845105E+02  0.15029630304E+03  0.62299737543E+03  0.65810144314E+03  0.12500000000E+03 0.  0.
         25    1    1    2    0    0  0.16627809538E+03  0.50916163773E+02  0.13952626344E+03  0.25560406672E+03  0.12500000000E+03 0.  0.
</event>
<event>
 5    0  0.5641283E-005  0.4458982E+03  0.7546771E-02  0.1028952E+00
         21   -1    0    0  502  501  0.00000000000E+00  0.00000000000E+00  0.44633693665E+03  0.44633693665E+03  0.00000000000E+00 0.  1.
         21   -1    0    0  501  502 -0.00000000000E+00 -0.00000000000E+00 -0.44545999198E+03  0.44545999198E+03  0.00000000000E+00 0.  1.
         25    1    1    2    0    0  0.19464265704E+02  0.42963155095E+02  0.58390988575E+02  0.14580534243E+03  0.12500000000E+03 0.  0.
         25    1    1    2    0    0 -0.11488412162E+03 -0.22044658004E+03 -0.29838268716E+03  0.40798564196E+03  0.12500000000E+03 0.  0.
         25    1    1    2    0    0  0.95419855912E+02  0.17748342494E+03  0.24086864325E+03  0.33800594423E+03  0.12500000000E+03 0.  0.
</event>
<event>
 5    0  0.5641283E-005  0.2781679E+03  0.7546771E-02  0.1096694E+00
         21   -1    0    0  502  501  0.00000000000E+00  0.00000000000E+00  0.14694577380E+03  0.14694577380E+03  0.00000000000E+00 0.  1.
         21   -1    0    0  501  502 -0.00000000000E+00 -0.00000000000E+00 -0.52657079555E+03  0.52657079555E+03  0.00000000000E+00 0.  1.
         25    1    1    2    0    0  0.51916528147E+02  0.34158327402E+02 -0.17080187028E+03  0.22059101550E+03  0.12500000000E+03 0.  0.
         25    1    1    2    0    0 -0.14855515857E+03 -0.10056180275E+03 -0.17060099621E+03  0.27732834550E+03  0.12500000000E+03 0.  0.
         25    1    1    2    0    0  0.96638630422E+02  0.66403475346E+02 -0.38222155261E+02  0.17559720835E+03  0.12500000000E+03 0.  0.
</event>
<event>
 5    0  0.5641283E-005  0.2857775E+03  0.7546771E-02  0.1092575E+00
         21   -1    0    0  502  501  0.00000000000E+00  0.00000000000E+00  0.44019170279E+02  0.44019170279E+02  0.00000000000E+00 0. -1.
         21   -1    0    0  501  502 -0.00000000000E+00 -0.00000000000E+00 -0.18553008936E+04  0.18553008936E+04  0.00000000000E+00 0. -1.
         25    1    1    2    0    0  0.85761882828E+02 -0.50689291778E+02 -0.12787183606E+04  0.12886699153E+04  0.12500000000E+03 0.  0.
         25    1    1    2    0    0 -0.94938675146E+01 -0.25106789780E+02 -0.29458790389E+03  0.32113473424E+03  0.12500000000E+03 0.  0.
         25    1    1    2    0    0 -0.76268015313E+02  0.75796081558E+02 -0.23797545882E+03  0.28951541434E+03  0.12500000000E+03 0.  0.
</event>
<event>
 5    0  0.5641283E-005  0.3733162E+03  0.7546771E-02  0.1053432E+00
         21   -1    0    0  502  501  0.00000000000E+00  0.00000000000E+00  0.13499910251E+03  0.13499910251E+03  0.00000000000E+00 0.  1.
         21   -1    0    0  501  502 -0.00000000000E+00 -0.00000000000E+00 -0.10323398887E+04  0.10323398887E+04  0.00000000000E+00 0.  1.
         25    1    1    2    0    0  0.29616535233E+02 -0.88345515827E+02 -0.19395804201E+03  0.24885094211E+03  0.12500000000E+03 0.  0.
         25    1    1    2    0    0  0.20234271194E+03  0.68784231649E+02 -0.57225550293E+03  0.62351840729E+03  0.12500000000E+03 0.  0.
         25    1    1    2    0    0 -0.23195924717E+03  0.19561284178E+02 -0.13112724121E+03  0.29496964179E+03  0.12500000000E+03 0.  0.
</event>
<event>
 5    0  0.5641283E-005  0.2899305E+03  0.7546771E-02  0.1090385E+00
         21   -1    0    0  502  501  0.00000000000E+00  0.00000000000E+00  0.66117007017E+02  0.66117007017E+02  0.00000000000E+00 0. -1.
         21   -1    0    0  501  502 -0.00000000000E+00 -0.00000000000E+00 -0.12713774071E+04  0.12713774071E+04  0.00000000000E+00 0. -1.
         25    1    1    2    0    0 -0.92266217660E+02 -0.99869062472E+02 -0.69920192273E+03  0.72318407983E+03  0.12500000000E+03 0.  0.
         25    1    1    2    0    0  0.11592267974E+03  0.13086865666E+03 -0.34853483018E+03  0.40947063487E+03  0.12500000000E+03 0.  0.
         25    1    1    2    0    0 -0.23656462080E+02 -0.30999594192E+02 -0.15752364715E+03  0.20483969940E+03  0.12500000000E+03 0.  0.
</event>
<event>
 5    0  0.5641283E-005  0.2054940E+03  0.7546771E-02  0.1145185E+00
         21   -1    0    0  502  501  0.00000000000E+00  0.00000000000E+00  0.10239405659E+03  0.10239405659E+03  0.00000000000E+00 0.  1.
         21   -1    0    0  501  502 -0.00000000000E+00 -0.00000000000E+00 -0.41240461806E+03  0.41240461806E+03  0.00000000000E+00 0.  1.
         25    1    1    2    0    0  0.25693651660E+02  0.48542738715E+02 -0.11869253942E+03  0.18091290759E+03  0.12500000000E+03 0.  0.
         25    1    1    2    0    0 -0.84872048928E+01 -0.15705441099E+02 -0.15220752531E+03  0.19776456783E+03  0.12500000000E+03 0.  0.
         25    1    1    2    0    0 -0.17206446767E+02 -0.32837297616E+02 -0.39110496733E+02  0.13612119923E+03  0.12500000000E+03 0.  0.
</event>
<event>
 5    0  0.5641283E-005  0.2618021E+03  0.7546771E-02  0.1106065E+00
         21   -1    0    0  502  501  0.00000000000E+00  0.00000000000E+00  0.17212160808E+03  0.17212160808E+03  0.00000000000E+00 0. -1.
         21   -1    0    0  501  502 -0.00000000000E+00 -0.00000000000E+00 -0.39820883392E+03  0.39820883392E+03  0.00000000000E+00 0. -1.
         25    1    1    2    0    0  0.48046822202E+02 -0.39653844124E+02 -0.12066398457E+03  0.18456901595E+03  0.12500000000E+03 0.  0.
         25    1    1    2    0    0 -0.13123632452E+03  0.82714051521E+02 -0.11361569502E+03  0.22934278569E+03  0.12500000000E+03 0.  0.
         25    1    1    2    0    0  0.83189502314E+02 -0.43060207397E+02  0.81924537411E+01  0.15641864037E+03  0.12500000000E+03 0.  0.
</event>
<event>
 5    0  0.5641283E-005  0.2551620E+03  0.7546771E-02  0.1110085E+00
         21   -1    0    0  502  501  0.00000000000E+00  0.00000000000E+00  0.29902505205E+02  0.29902505205E+02  0.00000000000E+00 0. -1.
         21   -1    0    0  501  502 -0.00000000000E+00 -0.00000000000E+00 -0.21773306355E+04  0.21773306355E+04  0.00000000000E+00 0. -1.
         25    1    1    2    0    0 -0.10043580089E+03 -0.42901901365E+00 -0.42365244845E+03  0.45298336750E+03  0.12500000000E+03 0.  0.
         25    1    1    2    0    0  0.88338574573E+02 -0.83298577155E+02 -0.88231108874E+03  0.89935544365E+03  0.12500000000E+03 0.  0.
         25    1    1    2    0    0  0.12097226312E+02  0.83727596169E+02 -0.84146459307E+03  0.85489432951E+03  0.12500000000E+03 0.  0.
</event>
<event>
 5    0  0.5641283E-005  0.3351959E+03  0.7546771E-02  0.1068861E+00
         21   -1    0    0  502  501  0.00000000000E+00  0.00000000000E+00  0.13073513467E+03  0.13073513467E+03  0.00000000000E+00 0. -1.
         21   -1    0    0  501  502 -0.00000000000E+00 -0.00000000000E+00 -0.85941949246E+03  0.85941949246E+03  0.00000000000E+00 0. -1.
         25    1    1    2    0    0 -0.48121532712E+02  0.14167301633E+03 -0.18843695560E+03  0.27114647647E+03  0.12500000000E+03 0.  0.
         25    1    1    2    0    0 -0.12389250619E+03 -0.80454366091E+02 -0.43054490773E+03  0.47203408319E+03  0.12500000000E+03 0.  0.
         25    1    1    2    0    0  0.17201403890E+03 -0.61218650243E+02 -0.10970249445E+03  0.24697406748E+03  0.12500000000E+03 0.  0.
</event>
<event>
 5    0  0.5641283E-005  0.2429274E+03  0.7546771E-02  0.1117858E+00
         21   -1    0    0  502  501  0.00000000000E+00  0.00000000000E+00  0.12558790890E+04  0.12558790890E+04  0.00000000000E+00 0. -1.
         21   -1    0    0  501  502 -0.00000000000E+00 -0.00000000000E+00 -0.46989985972E+02  0.46989985972E+02  0.00000000000E+00 0. -1.
         25    1    1    2    0    0  0.67136615001E+02 -0.31604933946E+01  0.21768368059E+03  0.25986246091E+03  0.12500000000E+03 0.  0.
         25    1    1    2    0    0 -0.89137562624E+02 -0.44044598083E+02  0.74587752961E+03  0.76278681220E+03  0.12500000000E+03 0.  0.
         25    1    1    2    0    0  0.22000947624E+02  0.47205091477E+02  0.24532789281E+03  0.28021980185E+03  0.12500000000E+03 0.  0.
</event>
<event>
 5    0  0.5641283E-005  0.3117943E+03  0.7546771E-02  0.1079489E+00
         21   -1    0    0  502  501  0.00000000000E+00  0.00000000000E+00  0.31302921965E+03  0.31302921965E+03  0.00000000000E+00 0. -1.
         21   -1    0    0  501  502 -0.00000000000E+00 -0.00000000000E+00 -0.31056416051E+03  0.31056416051E+03  0.00000000000E+00 0. -1.
         25    1    1    2    0    0  0.72879111731E+02  0.17657086179E+03 -0.64810855210E+02  0.23730588091E+03  0.12500000000E+03 0.  0.
         25    1    1    2    0    0 -0.76577595056E+02 -0.99481944391E+02  0.13673289133E+03  0.22378934044E+03  0.12500000000E+03 0.  0.
         25    1    1    2    0    0  0.36984833252E+01 -0.77088917397E+02 -0.69456976978E+02  0.16249815881E+03  0.12500000000E+03 0.  0.
</event>
<event>
 5    0  0.5641283E-005  0.3985253E+03  0.7546771E-02  0.1044292E+00
         21   -1    0    0  502  501  0.00000000000E+00  0.00000000000E+00  0.20713724611E+04  0.20713724611E+04  0.00000000000E+00 0. -1.
         21   -1    0    0  501  502 -0.00000000000E+00 -0.00000000000E+00 -0.76674971396E+02  0.76674971396E+02  0.00000000000E+00 0. -1.
         25    1    1    2    0    0  0.24355867713E+03 -0.43141855116E+02  0.14659170549E+04  0.14918846673E+04  0.12500000000E+03 0.  0.
         25    1    1    2    0    0 -0.12702903551E+03  0.45333850926E+02  0.13885894548E+03  0.23043077191E+03  0.12500000000E+03 0.  0.
         25    1    1    2    0    0 -0.11652964162E+03 -0.21919958097E+01  0.38992148938E+03  0.42573199328E+03  0.12500000000E+03 0.  0.
</event>
<event>
 5    0  0.5641283E-005  0.4575212E+03  0.7546771E-02  0.1025503E+00
         21   -1    0    0  502  501  0.00000000000E+00  0.00000000000E+00  0.32389527036E+04  0.32389527036E+04  0.00000000000E+00 0. -1.
         21   -1    0    0  501  502 -0.00000000000E+00 -0.00000000000E+00 -0.64627563324E+02  0.64627563324E+02  0.00000000000E+00 0. -1.
         25    1    1    2    0    0  0.29321794937E+03  0.16977553902E+03  0.20214304526E+04  0.20534377454E+04  0.12500000000E+03 0.  0.
         25    1    1    2    0    0 -0.29661935832E+03 -0.14275911767E+03  0.77670070604E+03  0.85279082791E+03  0.12500000000E+03 0.  0.
         25    1    1    2    0    0  0.34014089556E+01 -0.27016421357E+02  0.37619398160E+03  0.39735169358E+03  0.12500000000E+03 0.  0.
</event>
<event>
 5    0  0.5641283E-005  0.2605896E+03  0.7546771E-02  0.1106789E+00
         21   -1    0    0  502  501  0.00000000000E+00  0.00000000000E+00  0.15823920486E+03  0.15823920486E+03  0.00000000000E+00 0.  1.
         21   -1    0    0  501  502 -0.00000000000E+00 -0.00000000000E+00 -0.42914116039E+03  0.42914116039E+03  0.00000000000E+00 0.  1.
         25    1    1    2    0    0 -0.79875384885E+01  0.10044228754E+03 -0.19552141689E+02  0.16173972964E+03  0.12500000000E+03 0.  0.
         25    1    1    2    0    0 -0.79704012983E+02  0.19053797296E+02 -0.10338121715E+03  0.18173731850E+03  0.12500000000E+03 0.  0.
         25    1    1    2    0    0  0.87691551472E+02 -0.11949608484E+03 -0.14796859669E+03  0.24390331711E+03  0.12500000000E+03 0.  0.
</event>
<event>
 5    0  0.5641283E-005  0.2729681E+03  0.7546771E-02  0.1099593E+00
         21   -1    0    0  502  501  0.00000000000E+00  0.00000000000E+00  0.10527861352E+03  0.10527861352E+03  0.00000000000E+00 0. -1.
         21   -1    0    0  501  502 -0.00000000000E+00 -0.00000000000E+00 -0.70775604383E+03  0.70775604383E+03  0.00000000000E+00 0. -1.
         25    1    1    2    0    0 -0.97789438351E+02 -0.72921268132E+02 -0.15842570407E+03  0.23580498152E+03  0.12500000000E+03 0.  0.
         25    1    1    2    0    0 -0.60231022420E+02 -0.12447429001E+02 -0.24282549609E+03  0.27994988141E+03  0.12500000000E+03 0.  0.
         25    1    1    2    0    0  0.15802046077E+03  0.85368697133E+02 -0.20122623014E+03  0.29727979442E+03  0.12500000000E+03 0.  0.
</event>
<event>
 5    0  0.5641283E-005  0.3801158E+03  0.7546771E-02  0.1050891E+00
         21   -1    0    0  502  501  0.00000000000E+00  0.00000000000E+00  0.26584313990E+03  0.26584313990E+03  0.00000000000E+00 0. -1.
         21   -1    0    0  501  502 -0.00000000000E+00 -0.00000000000E+00 -0.54350859748E+03  0.54350859748E+03  0.00000000000E+00 0. -1.
         25    1    1    2    0    0  0.17759467565E+03 -0.13243577029E+03 -0.17493435145E+02  0.25497082646E+03  0.12500000000E+03 0.  0.
         25    1    1    2    0    0  0.60939685607E+02  0.16778861744E+03 -0.11533773149E+03  0.24656532143E+03  0.12500000000E+03 0.  0.
         25    1    1    2    0    0 -0.23853436126E+03 -0.35352847150E+02 -0.14483429095E+03  0.30781558950E+03  0.12500000000E+03 0.  0.
</event>
<event>
 5    0  0.5641283E-005  0.2982376E+03  0.7546771E-02  0.1086125E+00
         21   -1    0    0  502  501  0.00000000000E+00  0.00000000000E+00  0.12411221283E+04  0.12411221283E+04  0.00000000000E+00 0.  1.
         21   -1    0    0  501  502 -0.00000000000E+00 -0.00000000000E+00 -0.71665523900E+02  0.71665523900E+02  0.00000000000E+00 0.  1.
         25    1    1    2    0    0 -0.11762489679E+03 -0.10597373101E+03  0.31500551611E+03  0.37405818156E+03  0.12500000000E+03 0.  0.
         25    1    1    2    0    0  0.15770261543E+03  0.74342582969E+02  0.30473437359E+03  0.37267274250E+03  0.12500000000E+03 0.  0.
         25    1    1    2    0    0 -0.40077718639E+02  0.31631148040E+02  0.54971671474E+03  0.56605672818E+03  0.12500000000E+03 0.  0.
</event>
<event>
 5    0  0.5641283E-005  0.5581507E+03  0.7546771E-02  0.9996248E-01
         21   -1    0    0  502  501  0.00000000000E+00  0.00000000000E+00  0.18559070709E+04  0.18559070709E+04  0.00000000000E+00 0. -1.
         21   -1    0    0  501  502 -0.00000000000E+00 -0.00000000000E+00 -0.16785982950E+03  0.16785982950E+03  0.00000000000E+00 0. -1.
         25    1    1    2    0    0 -0.48164382696E+03  0.12267826046E+03  0.63270242682E+03  0.81422852600E+03  0.12500000000E+03 0.  0.
         25    1    1    2    0    0  0.28796050651E+03  0.17654712477E+02  0.65732670877E+03  0.72865378902E+03  0.12500000000E+03 0.  0.
         25    1    1    2    0    0  0.19368332045E+03 -0.14033297294E+03  0.39801810585E+03  0.48088458542E+03  0.12500000000E+03 0.  0.
</event>
<event>
 5    0  0.5641283E-005  0.2704651E+03  0.7546771E-02  0.1101014E+00
         21   -1    0    0  502  501  0.00000000000E+00  0.00000000000E+00  0.37997643263E+02  0.37997643263E+02  0.00000000000E+00 0. -1.
         21   -1    0    0  501  502 -0.00000000000E+00 -0.00000000000E+00 -0.19251561238E+04  0.19251561238E+04  0.00000000000E+00 0. -1.
         25    1    1    2    0    0  0.10512505436E+03  0.12847821141E+03 -0.73657632795E+03  0.76532843587E+03  0.12500000000E+03 0.  0.
         25    1    1    2    0    0 -0.14160300935E+02 -0.90967258815E+02 -0.37088230656E+03  0.40206248471E+03  0.12500000000E+03 0.  0.
         25    1    1    2    0    0 -0.90964753420E+02 -0.37510952597E+02 -0.77969984607E+03  0.79576284652E+03  0.12500000000E+03 0.  0.
</event>
<event>
 5    0  0.5641283E-005  0.2970803E+03  0.7546771E-02  0.1086709E+00
         21   -1    0    0  502  501  0.00000000000E+00  0.00000000000E+00  0.11106219717E+03  0.11106219717E+03  0.00000000000E+00 0. -1.
         21   -1    0    0  501  502 -0.00000000000E+00 -0.00000000000E+00 -0.79465999156E+03  0.79465999156E+03  0.00000000000E+00 0. -1.
         25    1    1    2    0    0  0.12690146267E+03  0.10637924229E+03 -0.35623975792E+03  0.41225270107E+03  0.12500000000E+03 0.  0.
         25    1    1    2    0    0  0.21070012531E+02  0.25897956091E+02 -0.77747853663E+02  0.15094495125E+03  0.12500000000E+03 0.  0.
         25    1    1    2    0    0 -0.14797147521E+03 -0.13227719838E+03 -0.24961018280E+03  0.34252453641E+03  0.12500000000E+03 0.  0.
</event>
<event>
 5    0  0.5641283E-005  0.3785757E+03  0.7546771E-02  0.1051461E+00
         21   -1    0    0  502  501  0.00000000000E+00  0.00000000000E+00  0.51786361314E+02  0.51786361314E+02  0.00000000000E+00 0.  1.
         21   -1    0    0  501  502 -0.00000000000E+00 -0.00000000000E+00 -0.27675152099E+04  0.27675152099E+04  0.00000000000E+00 0.  1.
         25    1    1    2    0    0  0.68199559995E+02 -0.11832861455E+03 -0.21577003393E+04  0.21656289145E+04  0.12500000000E+03 0.  0.
         25    1    1    2    0    0  0.21060274873E+02  0.46843019344E+02 -0.10858910254E+03  0.17336203976E+03  0.12500000000E+03 0.  0.
         25    1    1    2    0    0 -0.89259834868E+02  0.71485595208E+02 -0.44943940671E+03  0.48031061694E+03  0.12500000000E+03 0.  0.
</event>
<event>
 5    0  0.5641283E-005  0.3229432E+03  0.7546771E-02  0.1074303E+00
         21   -1    0    0  502  501  0.00000000000E+00  0.00000000000E+00  0.49751603320E+02  0.49751603320E+02  0.00000000000E+00 0. -1.
         21   -1    0    0  501  502 -0.00000000000E+00 -0.00000000000E+00 -0.20962602800E+04  0.20962602800E+04  0.00000000000E+00 0. -1.
         25    1    1    2    0    0 -0.32796477630E+02  0.14747006377E+03 -0.43929294265E+03  0.48106789345E+03  0.12500000000E+03 0.  0.
         25    1    1    2    0    0  0.96615073670E+02 -0.20428861340E+03 -0.12593095042E+04  0.12855169145E+04  0.12500000000E+03 0.  0.
         25    1    1    2    0    0 -0.63818596040E+02  0.56818549626E+02 -0.34790622980E+03  0.37942707536E+03  0.12500000000E+03 0.  0.
</event>
<event>
 5    0  0.5641283E-005  0.3037648E+03  0.7546771E-02  0.1083374E+00
         21   -1    0    0  502  501  0.00000000000E+00  0.00000000000E+00  0.61471148544E+03  0.61471148544E+03  0.00000000000E+00 0. -1.
         21   -1    0    0  501  502 -0.00000000000E+00 -0.00000000000E+00 -0.15010788801E+03  0.15010788801E+03  0.00000000000E+00 0. -1.
         25    1    1    2    0    0 -0.37755711553E+01 -0.10268819987E+03  0.32954681161E+03  0.36713106974E+03  0.12500000000E+03 0.  0.
         25    1    1    2    0    0  0.16987411252E+02  0.45341684744E+01 -0.64887684077E+02  0.14193147068E+03  0.12500000000E+03 0.  0.
         25    1    1    2    0    0 -0.13211840097E+02  0.98154031394E+02  0.19994446990E+03  0.25575683303E+03  0.12500000000E+03 0.  0.
</event>
<event>
 5    0  0.5641283E-005  0.2722059E+03  0.7546771E-02  0.1100024E+00
         21   -1    0    0  502  501  0.00000000000E+00  0.00000000000E+00  0.55833049684E+03  0.55833049684E+03  0.00000000000E+00 0.  1.
         21   -1    0    0  501  502 -0.00000000000E+00 -0.00000000000E+00 -0.13271006797E+03  0.13271006797E+03  0.00000000000E+00 0.  1.
         25    1    1    2    0    0  0.47990614593E+02 -0.42664894501E+02  0.38609709355E+03  0.41087632928E+03  0.12500000000E+03 0.  0.
         25    1    1    2    0    0 -0.29032644911E+02  0.92954490285E+01 -0.29938104626E+02  0.13210068112E+03  0.12500000000E+03 0.  0.
         25    1    1    2    0    0 -0.18957969682E+02  0.33369445473E+02  0.69461439953E+02  0.14806355442E+03  0.12500000000E+03 0.  0.
</event>
<event>
 5    0  0.5641283E-005  0.2999072E+03  0.7546771E-02  0.1085287E+00
         21   -1    0    0  502  501  0.00000000000E+00  0.00000000000E+00  0.10173270963E+04  0.10173270963E+04  0.00000000000E+00 0. -1.
         21   -1    0    0  501  502 -0.00000000000E+00 -0.00000000000E+00 -0.88412407445E+02  0.88412407445E+02  0.00000000000E+00 0. -1.
         25    1    1    2    0    0  0.37101586511E+02 -0.16359969996E+03  0.43514633247E+03  0.48282369475E+03  0.12500000000E+03 0.  0.
         25    1    1    2    0    0 -0.11146835130E+03  0.12115353556E+03  0.17843719271E+03  0.27307179324E+03  0.12500000000E+03 0.  0.
         25    1    1    2    0    0  0.74366764790E+02  0.42446164395E+02  0.31533116370E+03  0.34984401578E+03  0.12500000000E+03 0.  0.
</event>
<event>
 5    0  0.5641283E-005  0.3199811E+03  0.7546771E-02  0.1075658E+00
         21   -1    0    0  502  501  0.00000000000E+00  0.00000000000E+00  0.67040206500E+03  0.67040206500E+03  0.00000000000E+00 0. -1.
         21   -1    0    0  501  502 -0.00000000000E+00 -0.00000000000E+00 -0.15272608033E+03  0.15272608033E+03  0.00000000000E+00 0. -1.
         25    1    1    2    0    0  0.41202178910E+02  0.14913664780E+03  0.17456523376E+03  0.26464576343E+03  0.12500000000E+03 0.  0.
         25    1    1    2    0    0 -0.79247043751E+02 -0.20889855803E+03  0.32490943954E+03  0.41365425828E+03  0.12500000000E+03 0.  0.
         25    1    1    2    0    0  0.38044864842E+02  0.59761910234E+02  0.18201311364E+02  0.14482812362E+03  0.12500000000E+03 0.  0.
</event>
<event>
 5    0  0.5641283E-005  0.2583419E+03  0.7546771E-02  0.1108144E+00
         21   -1    0    0  502  501  0.00000000000E+00  0.00000000000E+00  0.69155240996E+03  0.69155240996E+03  0.00000000000E+00 0. -1.
         21   -1    0    0  501  502 -0.00000000000E+00 -0.00000000000E+00 -0.96508262408E+02  0.96508262408E+02  0.00000000000E+00 0. -1.
         25    1    1    2    0    0  0.11587032218E+02 -0.19870912075E+02  0.14807439170E+02  0.12795848044E+03  0.12500000000E+03 0.  0.
         25    1    1    2    0    0 -0.27519527151E+02  0.10256327124E+03  0.30190121326E+03  0.34357807199E+03  0.12500000000E+03 0.  0.
         25    1    1    2    0    0  0.15932494933E+02 -0.82692359164E+02  0.27833549512E+03  0.31652411993E+03  0.12500000000E+03 0.  0.
</event>
<event>
 5    0  0.5641283E-005  0.3746680E+03  0.7546771E-02  0.1052922E+00
         21   -1    0    0  502  501  0.00000000000E+00  0.00000000000E+00  0.53838544592E+03  0.53838544592E+03  0.00000000000E+00 0. -1.
         21   -1    0    0  501  502 -0.00000000000E+00 -0.00000000000E+00 -0.26073533754E+03  0.26073533754E+03  0.00000000000E+00 0. -1.
         25    1    1    2    0    0 -0.25059022504E+03  0.14928090478E+03  0.15527884647E+03  0.35329416861E+03  0.12500000000E+03 0.  0.
         25    1    1    2    0    0  0.55716969579E+02  0.24489844241E+02  0.46055699158E+02  0.14645907481E+03  0.12500000000E+03 0.  0.
         25    1    1    2    0    0  0.19487325546E+03 -0.17377074902E+03  0.76315562759E+02  0.29936754004E+03  0.12500000000E+03 0.  0.
</event>
<event>
 5    0  0.5641283E-005  0.2591460E+03  0.7546771E-02  0.1107657E+00
         21   -1    0    0  502  501  0.00000000000E+00  0.00000000000E+00  0.14553024034E+03  0.14553024034E+03  0.00000000000E+00 0. -1.
         21   -1    0    0  501  502 -0.00000000000E+00 -0.00000000000E+00 -0.46146199225E+03  0.46146199225E+03  0.00000000000E+00 0. -1.
         25    1    1    2    0    0  0.56644680084E+02 -0.11183901692E+03 -0.45309715709E+02  0.18274177362E+03  0.12500000000E+03 0.  0.
         25    1    1    2    0    0 -0.81753545379E+02  0.12493055163E+02 -0.66735201754E+02  0.16406799128E+03  0.12500000000E+03 0.  0.
         25    1    1    2    0    0  0.25108865296E+02  0.99345961761E+02 -0.20388683445E+03  0.26018246770E+03  0.12500000000E+03 0.  0.
</event>
<event>
 5    0  0.5641283E-005  0.3418316E+03  0.7546771E-02  0.1066018E+00
         21   -1    0    0  502  501  0.00000000000E+00  0.00000000000E+00  0.10851180383E+03  0.10851180383E+03  0.00000000000E+00 0. -1.
         21   -1    0    0  501  502 -0.00000000000E+00 -0.00000000000E+00 -0.10768308290E+04  0.10768308290E+04  0.00000000000E+00 0. -1.
         25    1    1    2    0    0  0.23449461968E+02 -0.61803510189E+02  0.15572097137E+02  0.14225695536E+03  0.12500000000E+03 0.  0.
         25    1    1    2    0    0 -0.28581162533E+02  0.12918101936E+03 -0.36219609676E+03  0.40535864506E+03  0.12500000000E+03 0.  0.
         25    1    1    2    0    0  0.51317005647E+01 -0.67377509169E+02 -0.62169502558E+03  0.63772703245E+03  0.12500000000E+03 0.  0.
</event>
<event>
 5    0  0.5641283E-005  0.4235063E+03  0.7546771E-02  0.1035931E+00
         21   -1    0    0  502  501  0.00000000000E+00  0.00000000000E+00  0.46564539203E+03  0.46564539203E+03  0.00000000000E+00 0.  1.
         21   -1    0    0  501  502 -0.00000000000E+00 -0.00000000000E+00 -0.38518062290E+03  0.38518062290E+03  0.00000000000E+00 0.  1.
         25    1    1    2    0    0  0.10888376143E+03  0.20032376284E+02 -0.56144530972E+02  0.17616520076E+03  0.12500000000E+03 0.  0.
         25    1    1    2    0    0  0.13627743990E+03  0.75965419864E+02 -0.16205786779E+03  0.25735197329E+03  0.12500000000E+03 0.  0.
         25    1    1    2    0    0 -0.24516120133E+03 -0.95997796148E+02  0.29866716790E+03  0.41730884088E+03  0.12500000000E+03 0.  0.
</event>
<event>
 5    0  0.5641283E-005  0.2347158E+03  0.7546771E-02  0.1123364E+00
         21   -1    0    0  502  501  0.00000000000E+00  0.00000000000E+00  0.18066802703E+03  0.18066802703E+03  0.00000000000E+00 0. -1.
         21   -1    0    0  501  502 -0.00000000000E+00 -0.00000000000E+00 -0.30493220875E+03  0.30493220875E+03  0.00000000000E+00 0. -1.
         25    1    1    2    0    0 -0.19000419610E+02  0.28423981864E+02 -0.52148192916E+02  0.13969027423E+03  0.12500000000E+03 0.  0.
         25    1    1    2    0    0  0.69452391576E+02 -0.20299528797E+02  0.60543735017E+02  0.15660858666E+03  0.12500000000E+03 0.  0.
         25    1    1    2    0    0 -0.50451971966E+02 -0.81244530666E+01 -0.13265972382E+03  0.18930137489E+03  0.12500000000E+03 0.  0.
</event>
<event>
 5    0  0.5641283E-005  0.3906682E+03  0.7546771E-02  0.1047060E+00
         21   -1    0    0  502  501  0.00000000000E+00  0.00000000000E+00  0.98898984233E+03  0.98898984233E+03  0.00000000000E+00 0.  1.
         21   -1    0    0  501  502 -0.00000000000E+00 -0.00000000000E+00 -0.15432072090E+03  0.15432072090E+03  0.00000000000E+00 0.  1.
         25    1    1    2    0    0 -0.16447239318E+03  0.17896788112E+03  0.60910257509E+03  0.66761637006E+03  0.12500000000E+03 0.  0.
         25    1    1    2    0    0  0.67773541552E+02  0.14540104370E+01  0.18355817810E+03  0.23219382383E+03  0.12500000000E+03 0.  0.
         25    1    1    2    0    0  0.96698851631E+02 -0.18042189156E+03  0.42008368244E+02  0.24350036933E+03  0.12500000000E+03 0.  0.
</event>
<event>
 5    0  0.5641283E-005  0.4192080E+03  0.7546771E-02  0.1037324E+00
         21   -1    0    0  502  501  0.00000000000E+00  0.00000000000E+00  0.14126634984E+04  0.14126634984E+04  0.00000000000E+00 0. -1.
         21   -1    0    0  501  502 -0.00000000000E+00 -0.00000000000E+00 -0.12439998393E+03  0.12439998393E+03  0.00000000000E+00 0. -1.
         25    1    1    2    0    0  0.25853766291E+03  0.12277940314E+03  0.29316344590E+03  0.42835302146E+03  0.12500000000E+03 0.  0.
         25    1    1    2    0    0 -0.27551904344E+03 -0.80861681271E+02  0.87575950829E+03  0.93006939051E+03  0.12500000000E+03 0.  0.
         25    1    1    2    0    0  0.16981380527E+02 -0.41917721869E+02  0.11934056026E+03  0.17864107035E+03  0.12500000000E+03 0.  0.
</event>
<event>
 5    0  0.5641283E-005  0.5107203E+03  0.7546771E-02  0.1011018E+00
         21   -1    0    0  502  501  0.00000000000E+00  0.00000000000E+00  0.48370504157E+03  0.48370504157E+03  0.00000000000E+00 0.  1.
         21   -1    0    0  501  502 -0.00000000000E+00 -0.00000000000E+00 -0.53924442559E+03  0.53924442559E+03  0.00000000000E+00 0.  1.
         25    1    1    2    0    0 -0.11012804615E+03  0.19142519551E+03  0.21345347928E+02  0.25466137497E+03  0.12500000000E+03 0.  0.
         25    1    1    2    0    0  0.36797655966E+03 -0.25956741248E+03 -0.16561941351E+02  0.46763371134E+03  0.12500000000E+03 0.  0.
         25    1    1    2    0    0 -0.25784851351E+03  0.68142216972E+02 -0.60322790588E+02  0.30065438084E+03  0.12500000000E+03 0.  0.
</event>
<event>
 5    0  0.5641283E-005  0.2701058E+03  0.7546771E-02  0.1101219E+00
         21   -1    0    0  502  501  0.00000000000E+00  0.00000000000E+00  0.31169014612E+03  0.31169014612E+03  0.00000000000E+00 0.  1.
         21   -1    0    0  501  502 -0.00000000000E+00 -0.00000000000E+00 -0.23406946526E+03  0.23406946526E+03  0.00000000000E+00 0.  1.
         25    1    1    2    0    0  0.18590025488E+02  0.57054477962E+02  0.28763789682E+02  0.14160917379E+03  0.12500000000E+03 0.  0.
         25    1    1    2    0    0 -0.10135006790E+03  0.67780351496E+02 -0.55090016891E+02  0.18310085274E+03  0.12500000000E+03 0.  0.
         25    1    1    2    0    0  0.82760042414E+02 -0.12483482946E+03  0.10394690807E+03  0.22104958485E+03  0.12500000000E+03 0.  0.
</event>
<event>
 5    0  0.5641283E-005  0.2179173E+03  0.7546771E-02  0.1135445E+00
         21   -1    0    0  502  501  0.00000000000E+00  0.00000000000E+00  0.44330702404E+03  0.44330702404E+03  0.00000000000E+00 0.  1.
         21   -1    0    0  501  502 -0.00000000000E+00 -0.00000000000E+00 -0.10712201279E+03  0.10712201279E+03  0.00000000000E+00 0.  1.
         25    1    1    2    0    0  0.34878629748E+02  0.34223779847E+02  0.89953679766E+02  0.16156871734E+03  0.12500000000E+03 0.  0.
         25    1    1    2    0    0 -0.90634145033E+02  0.51690674559E+01  0.96199264258E+02  0.18199056555E+03  0.12500000000E+03 0.  0.
         25    1    1    2    0    0  0.55755515285E+02 -0.39392847303E+02  0.15003206722E+03  0.20686975395E+03  0.12500000000E+03 0.  0.
</event>
<event>
 5    0  0.5641283E-005  0.3874064E+03  0.7546771E-02  0.1048230E+00
         21   -1    0    0  502  501  0.00000000000E+00  0.00000000000E+00  0.62790272373E+02  0.62790272373E+02  0.00000000000E+00 0. -1.
         21   -1    0    0  501  502 -0.00000000000E+00 -0.00000000000E+00 -0.23902382109E+04  0.23902382109E+04  0.00000000000E+00 0. -1.
         25    1    1    2    0    0 -0.25516303909E+01 -0.19345127014E+03 -0.21434254059E+03  0.31463888736E+03  0.12500000000E+03 0.  0.
         25    1    1    2    0    0  0.14176154639E+02  0.75063844709E+02 -0.12203026162E+04  0.12290642861E+04  0.12500000000E+03 0.  0.
         25    1    1    2    0    0 -0.11624524248E+02  0.11838742543E+03 -0.89280278172E+03  0.90932530983E+03  0.12500000000E+03 0.  0.
</event>
<event>
 5    0  0.5641283E-005  0.3372937E+03  0.7546771E-02  0.1067954E+00
         21   -1    0    0  502  501  0.00000000000E+00  0.00000000000E+00  0.45062042179E+03  0.45062042179E+03  0.00000000000E+00 0.  1.
         21   -1    0    0  501  502 -0.00000000000E+00 -0.00000000000E+00 -0.25246750808E+03  0.25246750808E+03  0.00000000000E+00 0.  1.
         25    1    1    2    0    0  0.17799489237E+03 -0.76283578610E+02  0.15711146335E+03  0.27894511645E+03  0.12500000000E+03 0.  0.
         25    1    1    2    0    0 -0.69064084307E+01  0.15087052573E+03  0.14754705959E+01  0.19605303116E+03  0.12500000000E+03 0.  0.
         25    1    1    2    0    0 -0.17108848394E+03 -0.74586947122E+02  0.39565979773E+02  0.22808978226E+03  0.12500000000E+03 0.  0.
</event>
<event>
 5    0  0.5641283E-005  0.3866802E+03  0.7546771E-02  0.1048492E+00
         21   -1    0    0  502  501  0.00000000000E+00  0.00000000000E+00  0.15901692665E+03  0.15901692665E+03  0.00000000000E+00 0.  1.
         21   -1    0    0  501  502 -0.00000000000E+00 -0.00000000000E+00 -0.94028720901E+03  0.94028720901E+03  0.00000000000E+00 0.  1.
         25    1    1    2    0    0  0.14554935080E+03 -0.14972003242E+03 -0.69074638841E+02  0.25297629802E+03  0.12500000000E+03 0.  0.
         25    1    1    2    0    0 -0.38688193320E+02  0.19804555280E+03 -0.58961349194E+03  0.63560041469E+03  0.12500000000E+03 0.  0.
         25    1    1    2    0    0 -0.10686115748E+03 -0.48325520379E+02 -0.12258215158E+03  0.21072742295E+03  0.12500000000E+03 0.  0.
</event>
<event>
 5    0  0.5641283E-005  0.3215540E+03  0.7546771E-02  0.1074936E+00
         21   -1    0    0  502  501  0.00000000000E+00  0.00000000000E+00  0.41912186619E+02  0.41912186619E+02  0.00000000000E+00 0. -1.
         21   -1    0    0  501  502 -0.00000000000E+00 -0.00000000000E+00 -0.24669910449E+04  0.24669910449E+04  0.00000000000E+00 0. -1.
         25    1    1    2    0    0 -0.49408180959E+02  0.17985670180E+03 -0.12276889663E+04  0.12480524025E+04  0.12500000000E+03 0.  0.
         25    1    1    2    0    0 -0.77818006500E+02 -0.27432480497E+02 -0.61508312863E+03  0.63305642580E+03  0.12500000000E+03 0.  0.
         25    1    1    2    0    0  0.12722618746E+03 -0.15242422130E+03 -0.58230676342E+03  0.62779440324E+03  0.12500000000E+03 0.  0.
</event>
<event>
 5    0  0.5641283E-005  0.4301554E+03  0.7546771E-02  0.1033811E+00
         21   -1    0    0  502  501  0.00000000000E+00  0.00000000000E+00  0.94847546317E+03  0.94847546317E+03  0.00000000000E+00 0.  1.
         21   -1    0    0  501  502 -0.00000000000E+00 -0.00000000000E+00 -0.19508536100E+03  0.19508536100E+03  0.00000000000E+00 0.  1.
         25    1    1    2    0    0 -0.46803380356E+02  0.93360874101E+02 -0.63293784113E+01  0.16300880423E+03  0.12500000000E+03 0.  0.
         25    1    1    2    0    0  0.12754622002E+03  0.20470357981E+03  0.45020474645E+03  0.52581451821E+03  0.12500000000E+03 0.  0.
         25    1    1    2    0    0 -0.80742839661E+02 -0.29806445391E+03  0.30951473413E+03  0.45473750173E+03  0.12500000000E+03 0.  0.
</event>
<event>
 5    0  0.5641283E-005  0.4148417E+03  0.7546771E-02  0.1038758E+00
         21   -1    0    0  502  501  0.00000000000E+00  0.00000000000E+00  0.10865981928E+04  0.10865981928E+04  0.00000000000E+00 0. -1.
         21   -1    0    0  501  502 -0.00000000000E+00 -0.00000000000E+00 -0.15837836455E+03  0.15837836455E+03  0.00000000000E+00 0. -1.
         25    1    1    2    0    0 -0.72816522200E+02  0.19489047748E+02  0.61864307372E+03  0.63563064869E+03  0.12500000000E+03 0.  0.
         25    1    1    2    0    0 -0.11840405559E+03  0.15034708240E+03  0.20195395115E+03  0.30501502250E+03  0.12500000000E+03 0.  0.
         25    1    1    2    0    0  0.19122057779E+03 -0.16983613015E+03  0.10762280340E+03  0.30433088618E+03  0.12500000000E+03 0.  0.
</event>
<event>
 5    0  0.5641283E-005  0.2992140E+03  0.7546771E-02  0.1085634E+00
         21   -1    0    0  502  501  0.00000000000E+00  0.00000000000E+00  0.94600002050E+03  0.94600002050E+03  0.00000000000E+00 0.  1.
         21   -1    0    0  501  502 -0.00000000000E+00 -0.00000000000E+00 -0.94639540439E+02  0.94639540439E+02  0.00000000000E+00 0.  1.
         25    1    1    2    0    0 -0.13458291829E+03 -0.10345871268E+03  0.43976261969E+03  0.48768066273E+03  0.12500000000E+03 0.  0.
         25    1    1    2    0    0  0.86444411144E+00  0.25735222267E+02  0.43961486989E+02  0.13498392966E+03  0.12500000000E+03 0.  0.
         25    1    1    2    0    0  0.13371847418E+03  0.77723490410E+02  0.36763637339E+03  0.41797496855E+03  0.12500000000E+03 0.  0.
</event>
<event>
 5    0  0.5641283E-005  0.6221398E+03  0.7546771E-02  0.9860509E-01
         21   -1    0    0  502  501  0.00000000000E+00  0.00000000000E+00  0.49137172801E+03  0.49137172801E+03  0.00000000000E+00 0. -1.
         21   -1    0    0  501  502 -0.00000000000E+00 -0.00000000000E+00 -0.78770892093E+03  0.78770892093E+03  0.00000000000E+00 0. -1.
         25    1    1    2    0    0  0.11368554198E+03  0.96117745689E+01  0.28815934969E+03  0.33418198557E+03  0.12500000000E+03 0.  0.
         25    1    1    2    0    0 -0.15014666938E+02  0.14431306026E+03 -0.67797078825E+03  0.70450059567E+03  0.12500000000E+03 0.  0.
         25    1    1    2    0    0 -0.98670875037E+02 -0.15392483483E+03  0.93474245634E+02  0.24039806770E+03  0.12500000000E+03 0.  0.
</event>
<event>
 5    0  0.5641283E-005  0.3660691E+03  0.7546771E-02  0.1056206E+00
         21   -1    0    0  502  501  0.00000000000E+00  0.00000000000E+00  0.57666250962E+02  0.57666250962E+02  0.00000000000E+00 0. -1.
         21   -1    0    0  501  502 -0.00000000000E+00 -0.00000000000E+00 -0.23238305206E+04  0.23238305206E+04  0.00000000000E+00 0. -1.
         25    1    1    2    0    0  0.15830987552E+03 -0.18608745600E+03 -0.12535524135E+04  0.12832416808E+04  0.12500000000E+03 0.  0.
         25    1    1    2    0    0 -0.55526055631E+01  0.13249700653E+03 -0.25437976251E+03  0.31292227748E+03  0.12500000000E+03 0.  0.
         25    1    1    2    0    0 -0.15275726996E+03  0.53590449463E+02 -0.75823209361E+03  0.78533281326E+03  0.12500000000E+03 0.  0.
</event>
<event>
 5    0  0.5641283E-005  0.4202092E+03  0.7546771E-02  0.1036998E+00
         21   -1    0    0  502  501  0.00000000000E+00  0.00000000000E+00  0.16272277065E+04  0.16272277065E+04  0.00000000000E+00 0.  1.
         21   -1    0    0  501  502 -0.00000000000E+00 -0.00000000000E+00 -0.10851324370E+03  0.10851324370E+03  0.00000000000E+00 0.  1.
         25    1    1    2    0    0  0.17663551353E+03 -0.17443723074E+03  0.58553043337E+03  0.64815070818E+03  0.12500000000E+03 0.  0.
         25    1    1    2    0    0  0.21384506667E+02  0.26258253418E+03  0.36823374190E+03  0.46971052048E+03  0.12500000000E+03 0.  0.
         25    1    1    2    0    0 -0.19802002020E+03 -0.88145303436E+02  0.56495028754E+03  0.61787972155E+03  0.12500000000E+03 0.  0.
</event>
<event>
 5    0  0.5641283E-005  0.2712905E+03  0.7546771E-02  0.1100543E+00
         21   -1    0    0  502  501  0.00000000000E+00  0.00000000000E+00  0.17383729089E+03  0.17383729089E+03  0.00000000000E+00 0. -1.
         21   -1    0    0  501  502 -0.00000000000E+00 -0.00000000000E+00 -0.42337605110E+03  0.42337605110E+03  0.00000000000E+00 0. -1.
         25    1    1    2    0    0  0.44362936135E+02  0.63804144526E+02  0.15988776905E+02  0.14805296332E+03  0.12500000000E+03 0.  0.
         25    1    1    2    0    0 -0.44921200265E+02 -0.15740571541E+03 -0.14462696358E+03  0.25166730434E+03  0.12500000000E+03 0.  0.
         25    1    1    2    0    0  0.55826412951E+00  0.93601570881E+02 -0.12090057353E+03  0.19749307433E+03  0.12500000000E+03 0.  0.
</event>
<event>
 5    0  0.5641283E-005  0.2523486E+03  0.7546771E-02  0.1111829E+00
         21   -1    0    0  502  501  0.00000000000E+00  0.00000000000E+00  0.21422634951E+03  0.21422634951E+03  0.00000000000E+00 0. -1.
         21   -1    0    0  501  502 -0.00000000000E+00 -0.00000000000E+00 -0.29725490544E+03  0.29725490544E+03  0.00000000000E+00 0. -1.
         25    1    1    2    0    0  0.49285806533E+02  0.72116453403E+02 -0.13499543302E+03  0.20366305633E+03  0.12500000000E+03 0.  0.
         25    1    1    2    0    0 -0.28187762287E+02  0.35113091440E+02 -0.30673047125E+01  0.13289803419E+03  0.12500000000E+03 0.  0.
         25    1    1    2    0    0 -0.21098044246E+02 -0.10722954484E+03  0.55034181797E+02  0.17492016443E+03  0.12500000000E+03 0.  0.
</event>
<event>
 5    0  0.5641283E-005  0.3879913E+03  0.7546771E-02  0.1048019E+00
         21   -1    0    0  502  501  0.00000000000E+00  0.00000000000E+00  0.28177577382E+04  0.28177577382E+04  0.00000000000E+00 0. -1.
         21   -1    0    0  501  502 -0.00000000000E+00 -0.00000000000E+00 -0.53424495195E+02  0.53424495195E+02  0.00000000000E+00 0. -1.
         25    1    1    2    0    0  0.10182742783E+03  0.22184146718E+03  0.18815754097E+04  0.19014556224E+04  0.12500000000E+03 0.  0.
         25    1    1    2    0    0 -0.75518191892E+02 -0.35311193738E+01  0.37521350792E+03  0.40264828652E+03  0.12500000000E+03 0.  0.
         25    1    1    2    0    0 -0.26309235938E+02 -0.21831034780E+03  0.50754432546E+03  0.56707832453E+03  0.12500000000E+03 0.  0.
</event>
<event>
 5    0  0.5641283E-005  0.6639047E+03  0.7546771E-02  0.9781032E-01
         21   -1    0    0  502  501  0.00000000000E+00  0.00000000000E+00  0.35546638888E+03  0.35546638888E+03  0.00000000000E+00 0.  1.
         21   -1    0    0  501  502 -0.00000000000E+00 -0.00000000000E+00 -0.12399751961E+04  0.12399751961E+04  0.00000000000E+00 0.  1.
         25    1    1    2    0    0  0.16563134191E+03 -0.28819870921E+02 -0.19064097793E+03  0.28325484788E+03  0.12500000000E+03 0.  0.
         25    1    1    2    0    0  0.34650489207E+03 -0.16967567808E+03  0.16117491801E+02  0.40588206354E+03  0.12500000000E+03 0.  0.
         25    1    1    2    0    0 -0.51213623398E+03  0.19849554901E+03 -0.70998532107E+03  0.90630467353E+03  0.12500000000E+03 0.  0.
</event>
<event>
 5    0  0.5641283E-005  0.5031172E+03  0.7546771E-02  0.1012968E+00
         21   -1    0    0  502  501  0.00000000000E+00  0.00000000000E+00  0.25441854520E+03  0.25441854520E+03  0.00000000000E+00 0.  1.
         21   -1    0    0  501  502 -0.00000000000E+00 -0.00000000000E+00 -0.99492318597E+03  0.99492318597E+03  0.00000000000E+00 0.  1.
         25    1    1    2    0    0 -0.64081775704E+02  0.24209116357E+03 -0.68897598322E+03  0.74365819495E+03  0.12500000000E+03 0.  0.
         25    1    1    2    0    0  0.10531468194E+03 -0.23764173839E+03 -0.16461273418E+03  0.33209506216E+03  0.12500000000E+03 0.  0.
         25    1    1    2    0    0 -0.41232906238E+02 -0.44494251834E+01  0.11308407663E+03  0.17358847407E+03  0.12500000000E+03 0.  0.
</event>
<event>
 5    0  0.5641283E-005  0.2819386E+03  0.7546771E-02  0.1094635E+00
         21   -1    0    0  502  501  0.00000000000E+00  0.00000000000E+00  0.28718152087E+03  0.28718152087E+03  0.00000000000E+00 0.  1.
         21   -1    0    0  501  502 -0.00000000000E+00 -0.00000000000E+00 -0.27679138393E+03  0.27679138393E+03  0.00000000000E+00 0.  1.
         25    1    1    2    0    0 -0.77105373582E+01  0.19668050473E+02  0.43747357165E+02  0.13410859724E+03  0.12500000000E+03 0.  0.
         25    1    1    2    0    0 -0.80464337347E+02 -0.81501814975E+02  0.11752194994E+03  0.20628491013E+03  0.12500000000E+03 0.  0.
         25    1    1    2    0    0  0.88174874705E+02  0.61833764502E+02 -0.15087917017E+03  0.22357939742E+03  0.12500000000E+03 0.  0.
</event>
<event>
 5    0  0.5641283E-005  0.2722090E+03  0.7546771E-02  0.1100022E+00
         21   -1    0    0  502  501  0.00000000000E+00  0.00000000000E+00  0.51619128538E+02  0.51619128538E+02  0.00000000000E+00 0.  1.
         21   -1    0    0  501  502 -0.00000000000E+00 -0.00000000000E+00 -0.14354710497E+04  0.14354710497E+04  0.00000000000E+00 0.  1.
         25    1    1    2    0    0  0.13059246165E+03 -0.98239335513E+02 -0.68954263752E+03  0.71958280069E+03  0.12500000000E+03 0.  0.
         25    1    1    2    0    0 -0.65188486831E+02  0.93950185362E+02 -0.49572817881E+03  0.52387746984E+03  0.12500000000E+03 0.  0.
         25    1    1    2    0    0 -0.65403974820E+02  0.42891501509E+01 -0.19858110480E+03  0.24362990768E+03  0.12500000000E+03 0.  0.
</event>
<event>
 5    0  0.5641283E-005  0.2537577E+03  0.7546771E-02  0.1110953E+00
         21   -1    0    0  502  501  0.00000000000E+00  0.00000000000E+00  0.74024236394E+03  0.74024236394E+03  0.00000000000E+00 0.  1.
         21   -1    0    0  501  502 -0.00000000000E+00 -0.00000000000E+00 -0.86989034676E+02  0.86989034676E+02  0.00000000000E+00 0.  1.
         25    1    1    2    0    0  0.91204745441E+02  0.46353929522E+02  0.37314101550E+03  0.40660325850E+03  0.12500000000E+03 0.  0.
         25    1    1    2    0    0 -0.11227000338E+03 -0.22692223368E+02  0.22161034369E+03  0.27902622653E+03  0.12500000000E+03 0.  0.
         25    1    1    2    0    0  0.21065257941E+02 -0.23661706154E+02  0.58501970078E+02  0.14160191359E+03  0.12500000000E+03 0.  0.
</event>
<event>
 5    0  0.5641283E-005  0.4648291E+03  0.7546771E-02  0.1023390E+00
         21   -1    0    0  502  501  0.00000000000E+00  0.00000000000E+00  0.25674144165E+04  0.25674144165E+04  0.00000000000E+00 0. -1.
         21   -1    0    0  501  502 -0.00000000000E+00 -0.00000000000E+00 -0.84157072813E+02  0.84157072813E+02  0.00000000000E+00 0. -1.
         25    1    1    2    0    0 -0.65276339852E+02  0.36999649829E+03  0.63902140737E+03  0.75175246483E+03  0.12500000000E+03 0.  0.
         25    1    1    2    0    0  0.62922345902E+02 -0.22081907915E+03  0.10784553708E+04  0.11096897197E+04  0.12500000000E+03 0.  0.
         25    1    1    2    0    0  0.23539939506E+01 -0.14917741914E+03  0.76578056552E+03  0.79012930473E+03  0.12500000000E+03 0.  0.
</event>
<event>
 5    0  0.5641283E-005  0.2152143E+03  0.7546771E-02  0.1137502E+00
         21   -1    0    0  502  501  0.00000000000E+00  0.00000000000E+00  0.18564159058E+02  0.18564159058E+02  0.00000000000E+00 0. -1.
         21   -1    0    0  501  502 -0.00000000000E+00 -0.00000000000E+00 -0.24949786204E+04  0.24949786204E+04  0.00000000000E+00 0. -1.
         25    1    1    2    0    0  0.44105414056E+02  0.37436489945E+02 -0.10268804196E+04  0.10360768188E+04  0.12500000000E+03 0.  0.
         25    1    1    2    0    0  0.40822913975E+02 -0.21561216517E+02 -0.72993891008E+03  0.74200216227E+03  0.12500000000E+03 0.  0.
         25    1    1    2    0    0 -0.84928328031E+02 -0.15875273428E+02 -0.71959513169E+03  0.73546379840E+03  0.12500000000E+03 0.  0.
</event>
<event>
 5    0  0.5641283E-005  0.2662997E+03  0.7546771E-02  0.1103416E+00
         21   -1    0    0  502  501  0.00000000000E+00  0.00000000000E+00  0.52223160342E+02  0.52223160342E+02  0.00000000000E+00 0.  1.
         21   -1    0    0  501  502 -0.00000000000E+00 -0.00000000000E+00 -0.13579322398E+04  0.13579322398E+04  0.00000000000E+00 0.  1.
         25    1    1    2    0    0 -0.50365673322E+02  0.10351814897E+03 -0.41010340305E+03  0.44391723261E+03  0.12500000000E+03 0.  0.
         25    1    1    2    0    0  0.11096113280E+03  0.10426096269E+02 -0.29371894013E+03  0.33810781161E+03  0.12500000000E+03 0.  0.
         25    1    1    2    0    0 -0.60595459481E+02 -0.11394424524E+03 -0.60188673633E+03  0.62813035598E+03  0.12500000000E+03 0.  0.
</event>
<event>
 5    0  0.5641283E-005  0.2033442E+03  0.7546771E-02  0.1146948E+00
         21   -1    0    0  502  501  0.00000000000E+00  0.00000000000E+00  0.26065765769E+03  0.26065765769E+03  0.00000000000E+00 0. -1.
         21   -1    0    0  501  502 -0.00000000000E+00 -0.00000000000E+00 -0.15863290955E+03  0.15863290955E+03  0.00000000000E+00 0. -1.
         25    1    1    2    0    0 -0.34559466114E+02 -0.55168689377E+02  0.22147186770E+02  0.14266547889E+03  0.12500000000E+03 0.  0.
         25    1    1    2    0    0  0.26381964074E+02  0.54306698868E+02  0.31559547367E+02  0.14235951180E+03  0.12500000000E+03 0.  0.
         25    1    1    2    0    0  0.81775020400E+01  0.86199050949E+00  0.48318014008E+02  0.13426557654E+03  0.12500000000E+03 0.  0.
</event>
<event>
 5    0  0.5641283E-005  0.4199404E+03  0.7546771E-02  0.1037086E+00
         21   -1    0    0  502  501  0.00000000000E+00  0.00000000000E+00  0.19284024587E+03  0.19284024587E+03  0.00000000000E+00 0.  1.
         21   -1    0    0  501  502 -0.00000000000E+00 -0.00000000000E+00 -0.91448713973E+03  0.91448713973E+03  0.00000000000E+00 0.  1.
         25    1    1    2    0    0  0.33294417969E+02  0.14207741281E+03 -0.27909647276E+03  0.33884266350E+03  0.12500000000E+03 0.  0.
         25    1    1    2    0    0  0.17215458562E+03 -0.27779805867E+03 -0.27919974698E+03  0.44764546402E+03  0.12500000000E+03 0.  0.
         25    1    1    2    0    0 -0.20544900359E+03  0.13572064585E+03 -0.16335067412E+03  0.32083925808E+03  0.12500000000E+03 0.  0.
</event>
<event>
 5    0  0.5641283E-005  0.2957170E+03  0.7546771E-02  0.1087401E+00
         21   -1    0    0  502  501  0.00000000000E+00  0.00000000000E+00  0.72040787526E+03  0.72040787526E+03  0.00000000000E+00 0.  1.
         21   -1    0    0  501  502 -0.00000000000E+00 -0.00000000000E+00 -0.12138757621E+03  0.12138757621E+03  0.00000000000E+00 0.  1.
         25    1    1    2    0    0  0.38642178090E+02 -0.68711460881E+02  0.16884731015E+03  0.22438559875E+03  0.12500000000E+03 0.  0.
         25    1    1    2    0    0  0.13239719413E+03  0.53605090007E+02  0.33421460516E+03  0.38435260503E+03  0.12500000000E+03 0.  0.
         25    1    1    2    0    0 -0.17103937222E+03  0.15106370874E+02  0.95958383745E+02  0.23305724769E+03  0.12500000000E+03 0.  0.
</event>
<event>
 5    0  0.5641283E-005  0.3513115E+03  0.7546771E-02  0.1062078E+00
         21   -1    0    0  502  501  0.00000000000E+00  0.00000000000E+00  0.14166809657E+03  0.14166809657E+03  0.00000000000E+00 0.  1.
         21   -1    0    0  501  502 -0.00000000000E+00 -0.00000000000E+00 -0.87118959526E+03  0.87118959526E+03  0.00000000000E+00 0.  1.
         25    1    1    2    0    0 -0.17718549901E+03 -0.96942823294E+02 -0.40865186673E+03  0.47266685967E+03  0.12500000000E+03 0.  0.
         25    1    1    2    0    0  0.13874217125E+03  0.19536831964E+03 -0.18569626900E+03  0.32791199235E+03  0.12500000000E+03 0.  0.
         25    1    1    2    0    0  0.38443327762E+02 -0.98425496349E+02 -0.13517336295E+03  0.21227883981E+03  0.12500000000E+03 0.  0.
</event>
<event>
 5    0  0.5641283E-005  0.2941448E+03  0.7546771E-02  0.1088205E+00
         21   -1    0    0  502  501  0.00000000000E+00  0.00000000000E+00  0.32424959272E+03  0.32424959272E+03  0.00000000000E+00 0.  1.
         21   -1    0    0  501  502 -0.00000000000E+00 -0.00000000000E+00 -0.26683514871E+03  0.26683514871E+03  0.00000000000E+00 0.  1.
         25    1    1    2    0    0 -0.91888618849E+01 -0.24243446828E+02  0.18681412552E+03  0.22626687206E+03  0.12500000000E+03 0.  0.
         25    1    1    2    0    0  0.11398948892E+03 -0.19156695819E+02 -0.84949700699E+02  0.19026832166E+03  0.12500000000E+03 0.  0.
         25    1    1    2    0    0 -0.10480062704E+03  0.43400142647E+02 -0.44449980816E+02  0.17454954770E+03  0.12500000000E+03 0.  0.
</event>
<event>
 5    0  0.5641283E-005  0.2643859E+03  0.7546771E-02  0.1104536E+00
         21   -1    0    0  502  501  0.00000000000E+00  0.00000000000E+00  0.14230180691E+03  0.14230180691E+03  0.00000000000E+00 0.  1.
         21   -1    0    0  501  502 -0.00000000000E+00 -0.00000000000E+00 -0.49120889056E+03  0.49120889056E+03  0.00000000000E+00 0.  1.
         25    1    1    2    0    0  0.43820743880E+02 -0.15988139437E+02  0.72748043094E+01  0.13361811619E+03  0.12500000000E+03 0.  0.
         25    1    1    2    0    0 -0.50039910312E+02 -0.10773767552E+03 -0.14759316069E+03  0.22698048470E+03  0.12500000000E+03 0.  0.
         25    1    1    2    0    0  0.62191664317E+01  0.12372581496E+03 -0.20858872726E+03  0.27291209658E+03  0.12500000000E+03 0.  0.
</event>
<event>
 5    0  0.6359892E-005  0.5321112E+03  0.7546771E-02  0.1005721E+00
         21   -1    0    0  502  501  0.00000000000E+00  0.00000000000E+00  0.64594919028E+03  0.64594919028E+03  0.00000000000E+00 0. -1.
         21   -1    0    0  501  502 -0.00000000000E+00 -0.00000000000E+00 -0.43833529084E+03  0.43833529084E+03  0.00000000000E+00 0. -1.
         25    1    1    2    0    0 -0.84293726998E+02 -0.62942444397E+02 -0.19938134853E+03  0.25776948201E+03  0.12500000000E+03 0.  0.
         25    1    1    2    0    0  0.29596234150E+03  0.21924624665E+03  0.96476476019E+02  0.40074347740E+03  0.12500000000E+03 0.  0.
         25    1    1    2    0    0 -0.21166861450E+03 -0.15630380226E+03  0.31051877195E+03  0.42577152171E+03  0.12500000000E+03 0.  0.
</event>
<event>
 5    0  0.5641283E-005  0.4331059E+03  0.7546771E-02  0.1032883E+00
         21   -1    0    0  502  501  0.00000000000E+00  0.00000000000E+00  0.70693108770E+03  0.70693108770E+03  0.00000000000E+00 0.  1.
         21   -1    0    0  501  502 -0.00000000000E+00 -0.00000000000E+00 -0.26534517330E+03  0.26534517330E+03  0.00000000000E+00 0.  1.
         25    1    1    2    0    0 -0.17763956032E+03  0.81759005796E+02  0.53011508110E+03  0.57869452013E+03  0.12500000000E+03 0.  0.
         25    1    1    2    0    0 -0.87512081596E+01  0.29891914850E+02 -0.57261374242E+02  0.14097508715E+03  0.12500000000E+03 0.  0.
         25    1    1    2    0    0  0.18639076848E+03 -0.11165092065E+03 -0.31267792465E+02  0.25260665372E+03  0.12500000000E+03 0.  0.
</event>
<event>
 5    0  0.5641283E-005  0.3469079E+03  0.7546771E-02  0.1063891E+00
         21   -1    0    0  502  501  0.00000000000E+00  0.00000000000E+00  0.31834268495E+03  0.31834268495E+03  0.00000000000E+00 0.  1.
         21   -1    0    0  501  502 -0.00000000000E+00 -0.00000000000E+00 -0.37803626277E+03  0.37803626277E+03  0.00000000000E+00 0.  1.
         25    1    1    2    0    0 -0.56054357622E+02 -0.11339439595E+03  0.15565077046E+03  0.23633142488E+03  0.12500000000E+03 0.  0.
         25    1    1    2    0    0  0.66823978039E+02 -0.82657429074E+02 -0.40702867899E+02  0.16905448257E+03  0.12500000000E+03 0.  0.
         25    1    1    2    0    0 -0.10769620416E+02  0.19605182502E+03 -0.17464148038E+03  0.29099304027E+03  0.12500000000E+03 0.  0.
</event>
<event>
 5    0  0.5641283E-005  0.2735653E+03  0.7546771E-02  0.1099256E+00
         21   -1    0    0  502  501  0.00000000000E+00  0.00000000000E+00  0.32778404168E+03  0.32778404168E+03  0.00000000000E+00 0. -1.
         21   -1    0    0  501  502 -0.00000000000E+00 -0.00000000000E+00 -0.22831489540E+03  0.22831489540E+03  0.00000000000E+00 0. -1.
         25    1    1    2    0    0 -0.83499762695E+02 -0.36370167228E+02  0.74315463180E+02  0.17158900752E+03  0.12500000000E+03 0.  0.
         25    1    1    2    0    0  0.16993868604E+03  0.52443438132E+02  0.64414507289E+02  0.22672384075E+03  0.12500000000E+03 0.  0.
         25    1    1    2    0    0 -0.86438923340E+02 -0.16073270904E+02 -0.39260824185E+02  0.15778608881E+03  0.12500000000E+03 0.  0.
</event>
<event>
 5    0  0.5641283E-005  0.4279794E+03  0.7546771E-02  0.1034500E+00
         21   -1    0    0  502  501  0.00000000000E+00  0.00000000000E+00  0.53323063386E+03  0.53323063386E+03  0.00000000000E+00 0. -1.
         21   -1    0    0  501  502 -0.00000000000E+00 -0.00000000000E+00 -0.34350304879E+03  0.34350304879E+03  0.00000000000E+00 0. -1.
         25    1    1    2    0    0  0.80774257097E+02  0.42945290815E+02 -0.84933844278E+01  0.15513193157E+03  0.12500000000E+03 0.  0.
         25    1    1    2    0    0 -0.28820887600E+03 -0.19769543678E+03 -0.22547839479E+01  0.37118449049E+03  0.12500000000E+03 0.  0.
         25    1    1    2    0    0  0.20743461891E+03  0.15475014597E+03  0.20047575345E+03  0.35041726059E+03  0.12500000000E+03 0.  0.
</event>
<event>
 5    0  0.5641283E-005  0.3428173E+03  0.7546771E-02  0.1065602E+00
         21   -1    0    0  502  501  0.00000000000E+00  0.00000000000E+00  0.30972784783E+03  0.30972784783E+03  0.00000000000E+00 0. -1.
         21   -1    0    0  501  502 -0.00000000000E+00 -0.00000000000E+00 -0.37944185504E+03  0.37944185504E+03  0.00000000000E+00 0. -1.
         25    1    1    2    0    0 -0.15248575716E+03 -0.14994022200E+03  0.66512681352E+02  0.25648179875E+03  0.12500000000E+03 0.  0.
         25    1    1    2    0    0 -0.42221565908E+02 -0.52847727919E+01 -0.45636215020E+02  0.13970774342E+03  0.12500000000E+03 0.  0.
         25    1    1    2    0    0  0.19470732307E+03  0.15522499480E+03 -0.90590473544E+02  0.29298016070E+03  0.12500000000E+03 0.  0.
</event>
<event>
 5    0  0.5641283E-005  0.2874729E+03  0.7546771E-02  0.1091676E+00
         21   -1    0    0  502  501  0.00000000000E+00  0.00000000000E+00  0.96718842363E+03  0.96718842363E+03  0.00000000000E+00 0.  1.
         21   -1    0    0  501  502 -0.00000000000E+00 -0.00000000000E+00 -0.85444218089E+02  0.85444218089E+02  0.00000000000E+00 0.  1.
         25    1    1    2    0    0  0.15902586992E+03  0.12528343082E+03  0.31573443087E+03  0.39534591964E+03  0.12500000000E+03 0.  0.
         25    1    1    2    0    0 -0.28230381936E+02 -0.52825811825E+02  0.21518253166E+03  0.25596101811E+03  0.12500000000E+03 0.  0.
         25    1    1    2    0    0 -0.13079548798E+03 -0.72457618997E+02  0.35082724301E+03  0.40132570397E+03  0.12500000000E+03 0.  0.
</event>
<event>
 5    0  0.5641283E-005  0.4210633E+03  0.7546771E-02  0.1036721E+00
         21   -1    0    0  502  501  0.00000000000E+00  0.00000000000E+00  0.10788134418E+04  0.10788134418E+04  0.00000000000E+00 0.  1.
         21   -1    0    0  501  502 -0.00000000000E+00 -0.00000000000E+00 -0.16434194921E+03  0.16434194921E+03  0.00000000000E+00 0.  1.
         25    1    1    2    0    0 -0.22306334519E+03  0.25752383696E+03  0.58497744378E+03  0.68840350980E+03  0.12500000000E+03 0.  0.
         25    1    1    2    0    0  0.46637559122E+02 -0.73716821789E+02  0.61321839163E+02  0.16430033382E+03  0.12500000000E+03 0.  0.
         25    1    1    2    0    0  0.17642578607E+03 -0.18380701517E+03  0.26817220960E+03  0.39045154734E+03  0.12500000000E+03 0.  0.
</event>
<event>
 5    0  0.5641283E-005  0.3301548E+03  0.7546771E-02  0.1071068E+00
         21   -1    0    0  502  501  0.00000000000E+00  0.00000000000E+00  0.93779291746E+03  0.93779291746E+03  0.00000000000E+00 0. -1.
         21   -1    0    0  501  502 -0.00000000000E+00 -0.00000000000E+00 -0.11623268729E+03  0.11623268729E+03  0.00000000000E+00 0. -1.
         25    1    1    2    0    0 -0.33954235887E+02 -0.13551420689E+03  0.17986589330E+03  0.25979555419E+03  0.12500000000E+03 0.  0.
         25    1    1    2    0    0  0.18560244832E+03 -0.63226495515E+01  0.27360472077E+03  0.35351490484E+03  0.12500000000E+03 0.  0.
         25    1    1    2    0    0 -0.15164821243E+03  0.14183685644E+03  0.36808961610E+03  0.44071514571E+03  0.12500000000E+03 0.  0.
</event>
<event>
 5    0  0.5641283E-005  0.3835732E+03  0.7546771E-02  0.1049621E+00
         21   -1    0    0  502  501  0.00000000000E+00  0.00000000000E+00  0.49973681354E+03  0.49973681354E+03  0.00000000000E+00 0.  1.
         21   -1    0    0  501  502 -0.00000000000E+00 -0.00000000000E+00 -0.29441169457E+03  0.29441169457E+03  0.00000000000E+00 0.  1.
         25    1    1    2    0    0 -0.50209185605E+02  0.11550974310E+03  0.83133358945E+01  0.17764451757E+03  0.12500000000E+03 0.  0.
         25    1    1    2    0    0 -0.10749973042E+03  0.16690220401E+03  0.50093489714E+02  0.23988934002E+03  0.12500000000E+03 0.  0.
         25    1    1    2    0    0  0.15770891602E+03 -0.28241194711E+03  0.14691829336E+03  0.37661465052E+03  0.12500000000E+03 0.  0.
</event>
<event>
 5    0  0.5641283E-005  0.3215087E+03  0.7546771E-02  0.1074957E+00
         21   -1    0    0  502  501  0.00000000000E+00  0.00000000000E+00  0.12475372657E+04  0.12475372657E+04  0.00000000000E+00 0. -1.
         21   -1    0    0  501  502 -0.00000000000E+00 -0.00000000000E+00 -0.82857520322E+02  0.82857520322E+02  0.00000000000E+00 0. -1.
         25    1    1    2    0    0 -0.15528490583E+02 -0.14947344436E+02  0.15599288727E+03  0.20105555950E+03  0.12500000000E+03 0.  0.
         25    1    1    2    0    0 -0.17961705468E+03 -0.10653149283E+03  0.54604662345E+03  0.59783205023E+03  0.12500000000E+03 0.  0.
         25    1    1    2    0    0  0.19514554526E+03  0.12147883726E+03  0.46264023467E+03  0.53150717631E+03  0.12500000000E+03 0.  0.
</event>
<event>
 5    0  0.5641283E-005  0.5600562E+03  0.7546771E-02  0.9991927E-01
         21   -1    0    0  502  501  0.00000000000E+00  0.00000000000E+00  0.37259115560E+03  0.37259115560E+03  0.00000000000E+00 0. -1.
         21   -1    0    0  501  502 -0.00000000000E+00 -0.00000000000E+00 -0.84184216729E+03  0.84184216729E+03  0.00000000000E+00 0. -1.
         25    1    1    2    0    0  0.41018734621E+03 -0.21135294200E+03 -0.37751787492E+03  0.60915389761E+03  0.12500000000E+03 0.  0.
         25    1    1    2    0    0 -0.33790586320E+03  0.11055441548E+03  0.48758424431E+02  0.38000662510E+03  0.12500000000E+03 0.  0.
         25    1    1    2    0    0 -0.72281483008E+02  0.10079852652E+03 -0.14049156119E+03  0.22527280018E+03  0.12500000000E+03 0.  0.
</event>
<event>
 5    0  0.5641283E-005  0.3354181E+03  0.7546771E-02  0.1068764E+00
         21   -1    0    0  502  501  0.00000000000E+00  0.00000000000E+00  0.90590916638E+03  0.90590916638E+03  0.00000000000E+00 0. -1.
         21   -1    0    0  501  502 -0.00000000000E+00 -0.00000000000E+00 -0.12419051929E+03  0.12419051929E+03  0.00000000000E+00 0. -1.
         25    1    1    2    0    0 -0.21816378396E+03 -0.12700117224E+03  0.39730444564E+03  0.48703239821E+03  0.12500000000E+03 0.  0.
         25    1    1    2    0    0  0.83552615414E+02  0.37201205754E+02  0.74737300528E+02  0.17197567660E+03  0.12500000000E+03 0.  0.
         25    1    1    2    0    0  0.13461116855E+03  0.89799966487E+02  0.30967690092E+03  0.37109161085E+03  0.12500000000E+03 0.  0.
</event>
<event>
 5    0  0.5641283E-005  0.2536030E+03  0.7546771E-02  0.1111049E+00
         21   -1    0    0  502  501  0.00000000000E+00  0.00000000000E+00  0.32207936697E+03  0.32207936697E+03  0.00000000000E+00 0. -1.
         21   -1    0    0  501  502 -0.00000000000E+00 -0.00000000000E+00 -0.19968515234E+03  0.19968515234E+03  0.00000000000E+00 0. -1.
         25    1    1    2    0    0 -0.22292210686E+02 -0.38483894461E+02  0.13510409259E+01  0.13268299854E+03  0.12500000000E+03 0.  0.
         25    1    1    2    0    0 -0.91340908712E+02  0.54213247649E+02  0.14349600987E+03  0.21794114497E+03  0.12500000000E+03 0.  0.
         25    1    1    2    0    0  0.11363311940E+03 -0.15729353188E+02 -0.22452836167E+02  0.17114037580E+03  0.12500000000E+03 0.  0.
</event>
<event>
 5    0  0.5641283E-005  0.4297858E+03  0.7546771E-02  0.1033928E+00
         21   -1    0    0  502  501  0.00000000000E+00  0.00000000000E+00  0.88774137443E+03  0.88774137443E+03  0.00000000000E+00 0.  1.
         21   -1    0    0  501  502 -0.00000000000E+00 -0.00000000000E+00 -0.20807393377E+03  0.20807393377E+03  0.00000000000E+00 0.  1.
         25    1    1    2    0    0 -0.91625079984E+01  0.13228878693E+03  0.44123647059E+02  0.18749978915E+03  0.12500000000E+03 0.  0.
         25    1    1    2    0    0  0.11341577300E+03  0.20151548488E+03  0.17106962453E+03  0.31362628182E+03  0.12500000000E+03 0.  0.
         25    1    1    2    0    0 -0.10425326500E+03 -0.33380427181E+03  0.46447416907E+03  0.59468923723E+03  0.12500000000E+03 0.  0.
</event>
<event>
 5    0  0.5641283E-005  0.2975941E+03  0.7546771E-02  0.1086450E+00
         21   -1    0    0  502  501  0.00000000000E+00  0.00000000000E+00  0.25274725515E+03  0.25274725515E+03  0.00000000000E+00 0.  1.
         21   -1    0    0  501  502 -0.00000000000E+00 -0.00000000000E+00 -0.35039852199E+03  0.35039852199E+03  0.00000000000E+00 0.  1.
         25    1    1    2    0    0 -0.63519312214E+02  0.74712812687E+02  0.12906420334E+03  0.20469312638E+03  0.12500000000E+03 0.  0.
         25    1    1    2    0    0  0.22472218189E+02 -0.10211981964E+03 -0.20569273062E+03  0.26242705193E+03  0.12500000000E+03 0.  0.
         25    1    1    2    0    0  0.41047094025E+02  0.27407006957E+02 -0.21022739577E+02  0.13602559883E+03  0.12500000000E+03 0.  0.
</event>
<event>
 5    0  0.5641283E-005  0.4831400E+03  0.7546771E-02  0.1018276E+00
         21   -1    0    0  502  501  0.00000000000E+00  0.00000000000E+00  0.61443527109E+03  0.61443527109E+03  0.00000000000E+00 0.  1.
         21   -1    0    0  501  502 -0.00000000000E+00 -0.00000000000E+00 -0.37990042173E+03  0.37990042173E+03  0.00000000000E+00 0.  1.
         25    1    1    2    0    0  0.17842765339E+03 -0.16398259651E+03 -0.13078593738E+03  0.30241805645E+03  0.12500000000E+03 0.  0.
         25    1    1    2    0    0 -0.24943624035E+03  0.11196656913E+02  0.39110271579E+03  0.48055190919E+03  0.12500000000E+03 0.  0.
         25    1    1    2    0    0  0.71008586960E+02  0.15278593959E+03 -0.25781929047E+02  0.21136572718E+03  0.12500000000E+03 0.  0.
</event>
<event>
 5    0  0.5641283E-005  0.3478484E+03  0.7546771E-02  0.1063502E+00
         21   -1    0    0  502  501  0.00000000000E+00  0.00000000000E+00  0.12206452650E+03  0.12206452650E+03  0.00000000000E+00 0.  1.
         21   -1    0    0  501  502 -0.00000000000E+00 -0.00000000000E+00 -0.99126654986E+03  0.99126654986E+03  0.00000000000E+00 0.  1.
         25    1    1    2    0    0  0.38870850563E+02  0.19262376812E+02 -0.57891178334E+03  0.59383990694E+03  0.12500000000E+03 0.  0.
         25    1    1    2    0    0 -0.18571792441E+03 -0.56290721127E+02 -0.12319472124E+03  0.26165192923E+03  0.12500000000E+03 0.  0.
         25    1    1    2    0    0  0.14684707385E+03  0.37028344316E+02 -0.16709551878E+03  0.25783924018E+03  0.12500000000E+03 0.  0.
</event>
<event>
 5    0  0.7939113E-005  0.3539161E+03  0.7546771E-02  0.1061019E+00
         21   -1    0    0  502  501  0.00000000000E+00  0.00000000000E+00  0.83179068547E+03  0.83179068547E+03  0.00000000000E+00 0. -1.
         21   -1    0    0  501  502 -0.00000000000E+00 -0.00000000000E+00 -0.15058670159E+03  0.15058670159E+03  0.00000000000E+00 0. -1.
         25    1    1    2    0    0 -0.16667297401E+03 -0.18756293381E+02  0.22853744721E+03  0.30981614481E+03  0.12500000000E+03 0.  0.
         25    1    1    2    0    0  0.92368437792E+02  0.13034254052E+01 -0.38412741488E+02  0.16010673292E+03  0.12500000000E+03 0.  0.
         25    1    1    2    0    0  0.74304536217E+02  0.17452867976E+02  0.49107927815E+03  0.51245450933E+03  0.12500000000E+03 0.  0.
</event>
<event>
 5    0  0.5641283E-005  0.4356213E+03  0.7546771E-02  0.1032099E+00
         21   -1    0    0  502  501  0.00000000000E+00  0.00000000000E+00  0.11683655031E+03  0.11683655031E+03  0.00000000000E+00 0. -1.
         21   -1    0    0  501  502 -0.00000000000E+00 -0.00000000000E+00 -0.16241998430E+04  0.16241998430E+04  0.00000000000E+00 0. -1.
         25    1    1    2    0    0  0.16123761955E+02  0.14900213648E+03 -0.19918559828E+03  0.27885751727E+03  0.12500000000E+03 0.  0.
         25    1    1    2    0    0 -0.27771327142E+03 -0.95439941414E+02 -0.42771471772E+03  0.53366499163E+03  0.12500000000E+03 0.  0.
         25    1    1    2    0    0  0.26158950947E+03 -0.53562195063E+02 -0.88046297667E+03  0.92851388438E+03  0.12500000000E+03 0.  0.
</event>
<event>
 5    0  0.5641283E-005  0.2782095E+03  0.7546771E-02  0.1096671E+00
         21   -1    0    0  502  501  0.00000000000E+00  0.00000000000E+00  0.28415009378E+03  0.28415009378E+03  0.00000000000E+00 0.  1.
         21   -1    0    0  501  502 -0.00000000000E+00 -0.00000000000E+00 -0.27239309577E+03  0.27239309577E+03  0.00000000000E+00 0.  1.
         25    1    1    2    0    0  0.15436320336E+03 -0.73138064191E+02 -0.71437113944E+01  0.21178575873E+03  0.12500000000E+03 0.  0.
         25    1    1    2    0    0 -0.54191273213E+02  0.67348301153E+01  0.83243131612E+02  0.15980134852E+03  0.12500000000E+03 0.  0.
         25    1    1    2    0    0 -0.10017193015E+03  0.66403234076E+02 -0.64342422202E+02  0.18495608230E+03  0.12500000000E+03 0.  0.
</event>
<event>
 5    0  0.5641283E-005  0.3424050E+03  0.7546771E-02  0.1065776E+00
         21   -1    0    0  502  501  0.00000000000E+00  0.00000000000E+00  0.35110078308E+03  0.35110078308E+03  0.00000000000E+00 0. -1.
         21   -1    0    0  501  502 -0.00000000000E+00 -0.00000000000E+00 -0.33392455917E+03  0.33392455917E+03  0.00000000000E+00 0. -1.
         25    1    1    2    0    0 -0.16585519022E+03 -0.15429350730E+03  0.29914367898E+02  0.26045018703E+03  0.12500000000E+03 0.  0.
         25    1    1    2    0    0  0.65688102119E+02  0.12220120884E+03  0.11313566149E+03  0.21834088051E+03  0.12500000000E+03 0.  0.
         25    1    1    2    0    0  0.10016708810E+03  0.32092298458E+02 -0.12587380548E+03  0.20623427471E+03  0.12500000000E+03 0.  0.
</event>
<event>
 5    0  0.5641283E-005  0.3526459E+03  0.7546771E-02  0.1061534E+00
         21   -1    0    0  502  501  0.00000000000E+00  0.00000000000E+00  0.41169876974E+03  0.41169876974E+03  0.00000000000E+00 0.  1.
         21   -1    0    0  501  502 -0.00000000000E+00 -0.00000000000E+00 -0.30206342211E+03  0.30206342211E+03  0.00000000000E+00 0.  1.
         25    1    1    2    0    0  0.59084893119E+02  0.17134545208E+03 -0.15094713187E+03  0.26694629640E+03  0.12500000000E+03 0.  0.
         25    1    1    2    0    0  0.50797628784E+02 -0.13244428441E+03  0.10823603707E+03  0.21785758486E+03  0.12500000000E+03 0.  0.
         25    1    1    2    0    0 -0.10988252190E+03 -0.38901167669E+02  0.15234644243E+03  0.22895831059E+03  0.12500000000E+03 0.  0.
</event>
<event>
 5    0  0.5641283E-005  0.3892411E+03  0.7546771E-02  0.1047570E+00
         21   -1    0    0  502  501  0.00000000000E+00  0.00000000000E+00  0.77596354477E+02  0.77596354477E+02  0.00000000000E+00 0. -1.
         21   -1    0    0  501  502 -0.00000000000E+00 -0.00000000000E+00 -0.19525226418E+04  0.19525226418E+04  0.00000000000E+00 0. -1.
         25    1    1    2    0    0 -0.13440207004E+03  0.11347065214E+03 -0.19071284401E+03  0.28798592709E+03  0.12500000000E+03 0.  0.
         25    1    1    2    0    0  0.74236797821E+02 -0.21266852551E+03 -0.76437543688E+03  0.80661875282E+03  0.12500000000E+03 0.  0.
         25    1    1    2    0    0  0.60165272222E+02  0.99197873364E+02 -0.91983800646E+03  0.93551431640E+03  0.12500000000E+03 0.  0.
</event>
<event>
 5    0  0.5641283E-005  0.3737333E+03  0.7546771E-02  0.1053275E+00
         21   -1    0    0  502  501  0.00000000000E+00  0.00000000000E+00  0.10457520077E+04  0.10457520077E+04  0.00000000000E+00 0.  1.
         21   -1    0    0  501  502 -0.00000000000E+00 -0.00000000000E+00 -0.13356565459E+03  0.13356565459E+03  0.00000000000E+00 0.  1.
         25    1    1    2    0    0  0.22942381287E+03  0.22353805288E+02  0.52898525904E+03  0.59041119807E+03  0.12500000000E+03 0.  0.
         25    1    1    2    0    0 -0.25453703390E+03 -0.65591912725E+02  0.33988496976E+03  0.44747982447E+03  0.12500000000E+03 0.  0.
         25    1    1    2    0    0  0.25113221030E+02  0.43238107437E+02  0.43316124296E+02  0.14142663974E+03  0.12500000000E+03 0.  0.
</event>
<event>
 5    0  0.5641283E-005  0.4142017E+03  0.7546771E-02  0.1038970E+00
         21   -1    0    0  502  501  0.00000000000E+00  0.00000000000E+00  0.15630909788E+03  0.15630909788E+03  0.00000000000E+00 0. -1.
         21   -1    0    0  501  502 -0.00000000000E+00 -0.00000000000E+00 -0.10975884678E+04  0.10975884678E+04  0.00000000000E+00 0. -1.
         25    1    1    2    0    0  0.28335960837E+02  0.32898658355E+03 -0.59435303400E+03  0.69131442040E+03  0.12500000000E+03 0.  0.
         25    1    1    2    0    0  0.56799987594E+01 -0.25143345726E+03 -0.16337360182E+03  0.32491072556E+03  0.12500000000E+03 0.  0.
         25    1    1    2    0    0 -0.34015959596E+02 -0.77553126290E+02 -0.18355273414E+03  0.23767241976E+03  0.12500000000E+03 0.  0.
</event>
<event>
 5    0  0.5641283E-005  0.2725179E+03  0.7546771E-02  0.1099847E+00
         21   -1    0    0  502  501  0.00000000000E+00  0.00000000000E+00  0.75207158349E+03  0.75207158349E+03  0.00000000000E+00 0. -1.
         21   -1    0    0  501  502 -0.00000000000E+00 -0.00000000000E+00 -0.98748601562E+02  0.98748601562E+02  0.00000000000E+00 0. -1.
         25    1    1    2    0    0  0.73894624468E+02 -0.59146338423E+02  0.35183516485E+03  0.38519045692E+03  0.12500000000E+03 0.  0.
         25    1    1    2    0    0 -0.42867975211E+02  0.11016715626E+03  0.51098077929E+02  0.17947278118E+03  0.12500000000E+03 0.  0.
         25    1    1    2    0    0 -0.31026649257E+02 -0.51020817842E+02  0.25038973915E+03  0.28615694695E+03  0.12500000000E+03 0.  0.
</event>
<event>
 5    0  0.5641283E-005  0.2304745E+03  0.7546771E-02  0.1126306E+00
         21   -1    0    0  502  501  0.00000000000E+00  0.00000000000E+00  0.95082002342E+03  0.95082002342E+03  0.00000000000E+00 0.  1.
         21   -1    0    0  501  502 -0.00000000000E+00 -0.00000000000E+00 -0.55865967048E+02  0.55865967048E+02  0.00000000000E+00 0.  1.
         25    1    1    2    0    0 -0.53829425278E+02 -0.43967135596E+01  0.33642277812E+03  0.36293556419E+03  0.12500000000E+03 0.  0.
         25    1    1    2    0    0  0.11933606455E+03  0.22680368005E+02  0.25974138572E+03  0.31280358510E+03  0.12500000000E+03 0.  0.
         25    1    1    2    0    0 -0.65506639268E+02 -0.18283654446E+02  0.29878989252E+03  0.33094684117E+03  0.12500000000E+03 0.  0.
</event>
<event>
 5    0  0.5641283E-005  0.2538072E+03  0.7546771E-02  0.1110922E+00
         21   -1    0    0  502  501  0.00000000000E+00  0.00000000000E+00  0.39799971863E+02  0.39799971863E+02  0.00000000000E+00 0.  1.
         21   -1    0    0  501  502 -0.00000000000E+00 -0.00000000000E+00 -0.16185458068E+04  0.16185458068E+04  0.00000000000E+00 0.  1.
         25    1    1    2    0    0 -0.11228973158E+02  0.40281334230E+02 -0.23887048492E+03  0.27282372384E+03  0.12500000000E+03 0.  0.
         25    1    1    2    0    0  0.12318032226E+03 -0.37611678845E+02 -0.57096982620E+03  0.59851447151E+03  0.12500000000E+03 0.  0.
         25    1    1    2    0    0 -0.11195134910E+03 -0.26696553853E+01 -0.76890552378E+03  0.78700758327E+03  0.12500000000E+03 0.  0.
</event>
<event>
 5    0  0.5641283E-005  0.3822081E+03  0.7546771E-02  0.1050121E+00
         21   -1    0    0  502  501  0.00000000000E+00  0.00000000000E+00  0.30851954018E+03  0.30851954018E+03  0.00000000000E+00 0. -1.
         21   -1    0    0  501  502 -0.00000000000E+00 -0.00000000000E+00 -0.47349688161E+03  0.47349688161E+03  0.00000000000E+00 0. -1.
         25    1    1    2    0    0 -0.94991977641E+02  0.46293405902E+02 -0.80918444962E+00  0.16368326129E+03  0.12500000000E+03 0.  0.
         25    1    1    2    0    0 -0.19282136607E+02 -0.19633277579E+03 -0.27961521169E+03  0.36431857796E+03  0.12500000000E+03 0.  0.
         25    1    1    2    0    0  0.11427411425E+03  0.15003936989E+03  0.11544705471E+03  0.25401458254E+03  0.12500000000E+03 0.  0.
</event>
<event>
 5    0  0.5641283E-005  0.4294090E+03  0.7546771E-02  0.1034047E+00
         21   -1    0    0  502  501  0.00000000000E+00  0.00000000000E+00  0.13525186025E+04  0.13525186025E+04  0.00000000000E+00 0.  1.
         21   -1    0    0  501  502 -0.00000000000E+00 -0.00000000000E+00 -0.13633241255E+03  0.13633241255E+03  0.00000000000E+00 0.  1.
         25    1    1    2    0    0  0.18189341547E+03  0.93483695319E+02  0.17396215040E+03  0.29616253250E+03  0.12500000000E+03 0.  0.
         25    1    1    2    0    0 -0.14501926316E+03  0.61146663297E+01  0.10068262823E+04  0.10248864028E+04  0.12500000000E+03 0.  0.
         25    1    1    2    0    0 -0.36874152316E+02 -0.99598361649E+02  0.35397757204E+02  0.16780207975E+03  0.12500000000E+03 0.  0.
</event>
<event>
 5    0  0.5641283E-005  0.2124694E+03  0.7546771E-02  0.1139625E+00
         21   -1    0    0  502  501  0.00000000000E+00  0.00000000000E+00  0.93044243693E+02  0.93044243693E+02  0.00000000000E+00 0.  1.
         21   -1    0    0  501  502 -0.00000000000E+00 -0.00000000000E+00 -0.48518036097E+03  0.48518036097E+03  0.00000000000E+00 0.  1.
         25    1    1    2    0    0  0.41998011127E+01  0.38858305542E+02 -0.21982423732E+03  0.25588142088E+03  0.12500000000E+03 0.  0.
         25    1    1    2    0    0  0.44487992054E+02 -0.30028115881E+02 -0.67418026055E+02  0.15182575347E+03  0.12500000000E+03 0.  0.
         25    1    1    2    0    0 -0.48687793166E+02 -0.88301896611E+01 -0.10489385390E+03  0.17051743031E+03  0.12500000000E+03 0.  0.
</event>
<event>
 5    0  0.5641283E-005  0.4716676E+03  0.7546771E-02  0.1021451E+00
         21   -1    0    0  502  501  0.00000000000E+00  0.00000000000E+00  0.13220452338E+04  0.13220452338E+04  0.00000000000E+00 0. -1.
         21   -1    0    0  501  502 -0.00000000000E+00 -0.00000000000E+00 -0.16827737500E+03  0.16827737500E+03  0.00000000000E+00 0. -1.
         25    1    1    2    0    0  0.20903953285E+03  0.85487058093E+02  0.93191795297E+03  0.96700653279E+03  0.12500000000E+03 0.  0.
         25    1    1    2    0    0 -0.17598979452E+03  0.10064051468E+03  0.62386609779E+02  0.24620725019E+03  0.12500000000E+03 0.  0.
         25    1    1    2    0    0 -0.33049738340E+02 -0.18612757277E+03  0.15946329605E+03  0.27710882580E+03  0.12500000000E+03 0.  0.
</event>
<event>
 5    0  0.5641283E-005  0.3644358E+03  0.7546771E-02  0.1056841E+00
         21   -1    0    0  502  501  0.00000000000E+00  0.00000000000E+00  0.53862521737E+03  0.53862521737E+03  0.00000000000E+00 0.  1.
         21   -1    0    0  501  502 -0.00000000000E+00 -0.00000000000E+00 -0.24657857043E+03  0.24657857043E+03  0.00000000000E+00 0.  1.
         25    1    1    2    0    0  0.49192320904E+02  0.28042911239E+03  0.31786970207E+02  0.31256324638E+03  0.12500000000E+03 0.  0.
         25    1    1    2    0    0  0.99055100921E+01 -0.13651451682E+03  0.73788182549E+02  0.19950946924E+03  0.12500000000E+03 0.  0.
         25    1    1    2    0    0 -0.59097830996E+02 -0.14391459557E+03  0.18647149419E+03  0.27313107218E+03  0.12500000000E+03 0.  0.
</event>
<event>
 5    0  0.6625236E-005  0.3105658E+03  0.7546771E-02  0.1080075E+00
         21   -1    0    0  502  501  0.00000000000E+00  0.00000000000E+00  0.46041825700E+03  0.46041825700E+03  0.00000000000E+00 0.  1.
         21   -1    0    0  501  502 -0.00000000000E+00 -0.00000000000E+00 -0.20948584770E+03  0.20948584770E+03  0.00000000000E+00 0.  1.
         25    1    1    2    0    0 -0.15657220000E+03  0.39786449282E+02  0.23508078565E+03  0.31142541827E+03  0.12500000000E+03 0.  0.
         25    1    1    2    0    0  0.13956472734E+03 -0.80738340106E+02  0.69326781754E+02  0.21547202916E+03  0.12500000000E+03 0.  0.
         25    1    1    2    0    0  0.17007472658E+02  0.40951890824E+02 -0.53475158111E+02  0.14300665727E+03  0.12500000000E+03 0.  0.
</event>
<event>
 5    0  0.5641283E-005  0.2345869E+03  0.7546771E-02  0.1123452E+00
         21   -1    0    0  502  501  0.00000000000E+00  0.00000000000E+00  0.35452046766E+02  0.35452046766E+02  0.00000000000E+00 0. -1.
         21   -1    0    0  501  502 -0.00000000000E+00 -0.00000000000E+00 -0.15522664341E+04  0.15522664341E+04  0.00000000000E+00 0. -1.
         25    1    1    2    0    0 -0.36048729391E+02  0.34797924539E+02 -0.66238018124E+03  0.67593114364E+03  0.12500000000E+03 0.  0.
         25    1    1    2    0    0 -0.58029122177E+02  0.13597170732E+01 -0.24038058786E+03  0.27708672807E+03  0.12500000000E+03 0.  0.
         25    1    1    2    0    0  0.94077851568E+02 -0.36157641612E+02 -0.61405361827E+03  0.63470060919E+03  0.12500000000E+03 0.  0.
</event>
<event>
 5    0  0.5641283E-005  0.3873837E+03  0.7546771E-02  0.1048238E+00
         21   -1    0    0  502  501  0.00000000000E+00  0.00000000000E+00  0.36694139278E+03  0.36694139278E+03  0.00000000000E+00 0.  1.
         21   -1    0    0  501  502 -0.00000000000E+00 -0.00000000000E+00 -0.40896476202E+03  0.40896476202E+03  0.00000000000E+00 0.  1.
         25    1    1    2    0    0 -0.17606784499E+03 -0.22666008045E+03 -0.60381464943E+02  0.31881907004E+03  0.12500000000E+03 0.  0.
         25    1    1    2    0    0 -0.60638736811E+01  0.10535733530E+03  0.10053406458E+03  0.19201311624E+03  0.12500000000E+03 0.  0.
         25    1    1    2    0    0  0.18213171868E+03  0.12130274515E+03 -0.82175968880E+02  0.26507396853E+03  0.12500000000E+03 0.  0.
</event>
<event>
 5    0  0.5641283E-005  0.2558090E+03  0.7546771E-02  0.1109688E+00
         21   -1    0    0  502  501  0.00000000000E+00  0.00000000000E+00  0.20212827583E+03  0.20212827583E+03  0.00000000000E+00 0.  1.
         21   -1    0    0  501  502 -0.00000000000E+00 -0.00000000000E+00 -0.32374622686E+03  0.32374622686E+03  0.00000000000E+00 0.  1.
         25    1    1    2    0    0 -0.36113153621E+02  0.18622789606E+01 -0.84581602379E+02  0.15519882541E+03  0.12500000000E+03 0.  0.
         25    1    1    2    0    0  0.12412202174E+01 -0.12797751484E+03 -0.59027862316E+02  0.18838543856E+03  0.12500000000E+03 0.  0.
         25    1    1    2    0    0  0.34871933403E+02  0.12611523588E+03  0.21991513658E+02  0.18229023872E+03  0.12500000000E+03 0.  0.
</event>
<event>
 5    0  0.5641283E-005  0.3021666E+03  0.7546771E-02  0.1084163E+00
         21   -1    0    0  502  501  0.00000000000E+00  0.00000000000E+00  0.72115367151E+03  0.72115367151E+03  0.00000000000E+00 0.  1.
         21   -1    0    0  501  502 -0.00000000000E+00 -0.00000000000E+00 -0.12660917071E+03  0.12660917071E+03  0.00000000000E+00 0.  1.
         25    1    1    2    0    0  0.28510618046E+02  0.10791362299E+03  0.29991574549E+03  0.34355881558E+03  0.12500000000E+03 0.  0.
         25    1    1    2    0    0 -0.69656505875E+02  0.55996604334E+01  0.29773504754E+03  0.33038544693E+03  0.12500000000E+03 0.  0.
         25    1    1    2    0    0  0.41145887829E+02 -0.11351328342E+03 -0.31062922392E+01  0.17381857970E+03  0.12500000000E+03 0.  0.
</event>
<event>
 5    0  0.5641283E-005  0.3456346E+03  0.7546771E-02  0.1064421E+00
         21   -1    0    0  502  501  0.00000000000E+00  0.00000000000E+00  0.95209985517E+03  0.95209985517E+03  0.00000000000E+00 0. -1.
         21   -1    0    0  501  502 -0.00000000000E+00 -0.00000000000E+00 -0.12547346205E+03  0.12547346205E+03  0.00000000000E+00 0. -1.
         25    1    1    2    0    0 -0.13358043219E+02 -0.10289349187E+03  0.36842292615E+03  0.40264868124E+03  0.12500000000E+03 0.  0.
         25    1    1    2    0    0 -0.76742053952E+02  0.20839252480E+03  0.40885334546E+03  0.48177053182E+03  0.12500000000E+03 0.  0.
         25    1    1    2    0    0  0.90100097170E+02 -0.10549903293E+03  0.49350121508E+02  0.19315410416E+03  0.12500000000E+03 0.  0.
</event>
<event>
 5    0  0.5641283E-005  0.3188080E+03  0.7546771E-02  0.1076199E+00
         21   -1    0    0  502  501  0.00000000000E+00  0.00000000000E+00  0.21015253498E+03  0.21015253498E+03  0.00000000000E+00 0.  1.
         21   -1    0    0  501  502 -0.00000000000E+00 -0.00000000000E+00 -0.48364169650E+03  0.48364169650E+03  0.00000000000E+00 0.  1.
         25    1    1    2    0    0 -0.13651281590E+02  0.11906070894E+03 -0.12475541497E+03  0.21342615460E+03  0.12500000000E+03 0.  0.
         25    1    1    2    0    0 -0.27644854797E+02  0.63661635631E+02 -0.20339869717E+03  0.24862234786E+03  0.12500000000E+03 0.  0.
         25    1    1    2    0    0  0.41296136387E+02 -0.18272234457E+03  0.54664950625E+02  0.23174572901E+03  0.12500000000E+03 0.  0.
</event>
<event>
 5    0  0.5641283E-005  0.3184461E+03  0.7546771E-02  0.1076367E+00
         21   -1    0    0  502  501  0.00000000000E+00  0.00000000000E+00  0.98794733576E+03  0.98794733576E+03  0.00000000000E+00 0.  1.
         21   -1    0    0  501  502 -0.00000000000E+00 -0.00000000000E+00 -0.10264505177E+03  0.10264505177E+03  0.00000000000E+00 0.  1.
         25    1    1    2    0    0 -0.61419863085E+02  0.52860694879E+02  0.56102438974E+02  0.15918271358E+03  0.12500000000E+03 0.  0.
         25    1    1    2    0    0  0.18219068379E+03 -0.10101317763E+03  0.44558884287E+03  0.50751504825E+03  0.12500000000E+03 0.  0.
         25    1    1    2    0    0 -0.12077082071E+03  0.48152482754E+02  0.38361100215E+03  0.42389462570E+03  0.12500000000E+03 0.  0.
</event>
<event>
 5    0  0.5641283E-005  0.2774066E+03  0.7546771E-02  0.1097114E+00
         21   -1    0    0  502  501  0.00000000000E+00  0.00000000000E+00  0.45273271314E+03  0.45273271314E+03  0.00000000000E+00 0.  1.
         21   -1    0    0  501  502 -0.00000000000E+00 -0.00000000000E+00 -0.16997755391E+03  0.16997755391E+03  0.00000000000E+00 0.  1.
         25    1    1    2    0    0  0.71243520322E+02  0.10285101770E+03  0.30053347995E+02  0.17939390947E+03  0.12500000000E+03 0.  0.
         25    1    1    2    0    0 -0.41644122219E+02 -0.10429584686E+03  0.26550730946E+03  0.31421487547E+03  0.12500000000E+03 0.  0.
         25    1    1    2    0    0 -0.29599398103E+02  0.14448291591E+01 -0.12805498231E+02  0.12910148212E+03  0.12500000000E+03 0.  0.
</event>
<event>
 5    0  0.5641283E-005  0.3072048E+03  0.7546771E-02  0.1081693E+00
         21   -1    0    0  502  501  0.00000000000E+00  0.00000000000E+00  0.53167394009E+03  0.53167394009E+03  0.00000000000E+00 0. -1.
         21   -1    0    0  501  502 -0.00000000000E+00 -0.00000000000E+00 -0.17750499084E+03  0.17750499084E+03  0.00000000000E+00 0. -1.
         25    1    1    2    0    0 -0.71449750247E+02  0.32427411126E+02 -0.23893526153E+02  0.14950753959E+03  0.12500000000E+03 0.  0.
         25    1    1    2    0    0  0.11525312670E+03 -0.12435729738E+03  0.88987202061E+02  0.22867387861E+03  0.12500000000E+03 0.  0.
         25    1    1    2    0    0 -0.43803376456E+02  0.91929886253E+02  0.28907527334E+03  0.33099751273E+03  0.12500000000E+03 0.  0.
</event>
<event>
 5    0  0.5641283E-005  0.2996469E+03  0.7546771E-02  0.1085417E+00
         21   -1    0    0  502  501  0.00000000000E+00  0.00000000000E+00  0.14890648084E+04  0.14890648084E+04  0.00000000000E+00 0. -1.
         21   -1    0    0  501  502 -0.00000000000E+00 -0.00000000000E+00 -0.60298422722E+02  0.60298422722E+02  0.00000000000E+00 0. -1.
         25    1    1    2    0    0  0.50413710639E+02  0.55953255650E+02  0.92446614396E+02  0.17275325048E+03  0.12500000000E+03 0.  0.
         25    1    1    2    0    0 -0.80165412833E+02 -0.10648957926E+03  0.59087136015E+03  0.61848240731E+03  0.12500000000E+03 0.  0.
         25    1    1    2    0    0  0.29751702194E+02  0.50536323613E+02  0.74544841115E+03  0.75812757335E+03  0.12500000000E+03 0.  0.
</event>
<event>
 5    0  0.5641283E-005  0.2220332E+03  0.7546771E-02  0.1132376E+00
         21   -1    0    0  502  501  0.00000000000E+00  0.00000000000E+00  0.15744075182E+03  0.15744075182E+03  0.00000000000E+00 0.  1.
         21   -1    0    0  501  502 -0.00000000000E+00 -0.00000000000E+00 -0.31312578321E+03  0.31312578321E+03  0.00000000000E+00 0.  1.
         25    1    1    2    0    0  0.59577456844E+02  0.20473577223E+02 -0.13653139527E+03  0.19553634604E+03  0.12500000000E+03 0.  0.
         25    1    1    2    0    0 -0.47225033652E+02 -0.54165259759E+02 -0.58532230707E+01  0.14430294310E+03  0.12500000000E+03 0.  0.
         25    1    1    2    0    0 -0.12352423192E+02  0.33691682536E+02 -0.13300413049E+02  0.13072724589E+03  0.12500000000E+03 0.  0.
</event>
<event>
 5    0  0.5641283E-005  0.2800103E+03  0.7546771E-02  0.1095683E+00
         21   -1    0    0  502  501  0.00000000000E+00  0.00000000000E+00  0.60170344054E+03  0.60170344054E+03  0.00000000000E+00 0. -1.
         21   -1    0    0  501  502 -0.00000000000E+00 -0.00000000000E+00 -0.13030629922E+03  0.13030629922E+03  0.00000000000E+00 0. -1.
         25    1    1    2    0    0  0.67836822262E+02 -0.42616007954E+02  0.14372313602E+02  0.14916273659E+03  0.12500000000E+03 0.  0.
         25    1    1    2    0    0  0.21093260872E+02 -0.17324614281E+02  0.39331345344E+02  0.13385448308E+03  0.12500000000E+03 0.  0.
         25    1    1    2    0    0 -0.88930083134E+02  0.59940622235E+02  0.41769348237E+03  0.44899252009E+03  0.12500000000E+03 0.  0.
</event>
<event>
 5    0  0.5641283E-005  0.2348385E+03  0.7546771E-02  0.1123280E+00
         21   -1    0    0  502  501  0.00000000000E+00  0.00000000000E+00  0.11414625680E+03  0.11414625680E+03  0.00000000000E+00 0. -1.
         21   -1    0    0  501  502 -0.00000000000E+00 -0.00000000000E+00 -0.48314454599E+03  0.48314454599E+03  0.00000000000E+00 0. -1.
         25    1    1    2    0    0  0.18739035705E+02 -0.10484384091E+03 -0.16334245241E+03  0.23162283824E+03  0.12500000000E+03 0.  0.
         25    1    1    2    0    0 -0.44606138654E+01  0.16638492111E+02 -0.16313698039E+03  0.20624114736E+03  0.12500000000E+03 0.  0.
         25    1    1    2    0    0 -0.14278421839E+02  0.88205348803E+02 -0.42518856390E+02  0.15942681718E+03  0.12500000000E+03 0.  0.
</event>
<event>
 5    0  0.5641283E-005  0.3125936E+03  0.7546771E-02  0.1079109E+00
         21   -1    0    0  502  501  0.00000000000E+00  0.00000000000E+00  0.64662189300E+03  0.64662189300E+03  0.00000000000E+00 0. -1.
         21   -1    0    0  501  502 -0.00000000000E+00 -0.00000000000E+00 -0.15111572912E+03  0.15111572912E+03  0.00000000000E+00 0. -1.
         25    1    1    2    0    0  0.95173210589E+02 -0.12615282067E+03  0.82489460080E+02  0.21771996969E+03  0.12500000000E+03 0.  0.
         25    1    1    2    0    0 -0.15734412261E+03 -0.17193357851E+02  0.25458535701E+03  0.32479453271E+03  0.12500000000E+03 0.  0.
         25    1    1    2    0    0  0.62170912025E+02  0.14334617852E+03  0.15843134679E+03  0.25522311973E+03  0.12500000000E+03 0.  0.
</event>
<event>
 5    0  0.5641283E-005  0.3418527E+03  0.7546771E-02  0.1066010E+00
         21   -1    0    0  502  501  0.00000000000E+00  0.00000000000E+00  0.77004660455E+02  0.77004660455E+02  0.00000000000E+00 0.  1.
         21   -1    0    0  501  502 -0.00000000000E+00 -0.00000000000E+00 -0.15176127943E+04  0.15176127943E+04  0.00000000000E+00 0.  1.
         25    1    1    2    0    0  0.13753454102E+03  0.22126721387E+02 -0.17519790608E+03  0.25636818849E+03  0.12500000000E+03 0.  0.
         25    1    1    2    0    0 -0.15543507364E+03  0.12459671090E+03 -0.57559475695E+03  0.62178672124E+03  0.12500000000E+03 0.  0.
         25    1    1    2    0    0  0.17900532613E+02 -0.14672343229E+03 -0.68981547080E+03  0.71646254501E+03  0.12500000000E+03 0.  0.
</event>
<event>
 5    0  0.5641283E-005  0.4367255E+03  0.7546771E-02  0.1031756E+00
         21   -1    0    0  502  501  0.00000000000E+00  0.00000000000E+00  0.12652220612E+04  0.12652220612E+04  0.00000000000E+00 0. -1.
         21   -1    0    0  501  502 -0.00000000000E+00 -0.00000000000E+00 -0.15074759675E+03  0.15074759675E+03  0.00000000000E+00 0. -1.
         25    1    1    2    0    0 -0.22970543279E+03 -0.47279879201E+02  0.10417726391E+03  0.28544329585E+03  0.12500000000E+03 0.  0.
         25    1    1    2    0    0  0.26535826715E+03  0.53602194032E+01  0.92283190198E+03  0.96834263626E+03  0.12500000000E+03 0.  0.
         25    1    1    2    0    0 -0.35652834361E+02  0.41919659798E+02  0.87465298560E+02  0.16218372584E+03  0.12500000000E+03 0.  0.
</event>
<event>
 5    0  0.5641283E-005  0.6071525E+03  0.7546771E-02  0.9890677E-01
         21   -1    0    0  502  501  0.00000000000E+00  0.00000000000E+00  0.70409503121E+03  0.70409503121E+03  0.00000000000E+00 0. -1.
         21   -1    0    0  501  502 -0.00000000000E+00 -0.00000000000E+00 -0.52355746484E+03  0.52355746484E+03  0.00000000000E+00 0. -1.
         25    1    1    2    0    0 -0.21768758082E+03  0.37647167213E+02  0.13878043530E+03  0.28929258765E+03  0.12500000000E+03 0.  0.
         25    1    1    2    0    0  0.52100279047E+02 -0.48720038939E+02 -0.41355609859E+03  0.43788323552E+03  0.12500000000E+03 0.  0.
         25    1    1    2    0    0  0.16558730178E+03  0.11072871726E+02  0.45531322966E+03  0.50047667288E+03  0.12500000000E+03 0.  0.
</event>
<event>
 5    0  0.5641283E-005  0.2492635E+03  0.7546771E-02  0.1113771E+00
         21   -1    0    0  502  501  0.00000000000E+00  0.00000000000E+00  0.90315962053E+02  0.90315962053E+02  0.00000000000E+00 0.  1.
         21   -1    0    0  501  502 -0.00000000000E+00 -0.00000000000E+00 -0.68794356949E+03  0.68794356949E+03  0.00000000000E+00 0.  1.
         25    1    1    2    0    0  0.74312370323E+02  0.80320853177E+02 -0.15870766488E+03  0.22975397870E+03  0.12500000000E+03 0.  0.
         25    1    1    2    0    0 -0.10898165481E+03 -0.14104068399E+02 -0.31915067653E+03  0.35994177329E+03  0.12500000000E+03 0.  0.
         25    1    1    2    0    0  0.34669284486E+02 -0.66216784778E+02 -0.11976926602E+03  0.18856377955E+03  0.12500000000E+03 0.  0.
</event>
<event>
 5    0  0.5641283E-005  0.3124505E+03  0.7546771E-02  0.1079177E+00
         21   -1    0    0  502  501  0.00000000000E+00  0.00000000000E+00  0.19909977547E+03  0.19909977547E+03  0.00000000000E+00 0.  1.
         21   -1    0    0  501  502 -0.00000000000E+00 -0.00000000000E+00 -0.49033350612E+03  0.49033350612E+03  0.00000000000E+00 0.  1.
         25    1    1    2    0    0  0.25926191816E+02 -0.12235899173E+03 -0.11471642514E+03  0.21078128113E+03  0.12500000000E+03 0.  0.
         25    1    1    2    0    0 -0.13582414464E+03 -0.55848476171E+02 -0.32848455992E+02  0.19563044655E+03  0.12500000000E+03 0.  0.
         25    1    1    2    0    0  0.10989795282E+03  0.17820746790E+03 -0.14366884952E+03  0.28302155390E+03  0.12500000000E+03 0.  0.
</event>
<event>
 5    0  0.6151001E-005  0.4126493E+03  0.7546771E-02  0.1039486E+00
         21   -1    0    0  502  501  0.00000000000E+00  0.00000000000E+00  0.67049163194E+03  0.67049163194E+03  0.00000000000E+00 0.  1.
         21   -1    0    0  501  502 -0.00000000000E+00 -0.00000000000E+00 -0.25396205814E+03  0.25396205814E+03  0.00000000000E+00 0.  1.
         25    1    1    2    0    0  0.47924264540E+02 -0.32318820538E+02  0.43281311580E+03  0.45419537041E+03  0.12500000000E+03 0.  0.
         25    1    1    2    0    0 -0.21671575666E+03  0.19379231163E+02  0.35804430493E+02  0.25347234766E+03  0.12500000000E+03 0.  0.
         25    1    1    2    0    0  0.16879149211E+03  0.12939589376E+02 -0.52087972493E+02  0.21678597201E+03  0.12500000000E+03 0.  0.
</event>
<event>
 5    0  0.5641283E-005  0.2588676E+03  0.7546771E-02  0.1107825E+00
         21   -1    0    0  502  501  0.00000000000E+00  0.00000000000E+00  0.19942023449E+03  0.19942023449E+03  0.00000000000E+00 0.  1.
         21   -1    0    0  501  502 -0.00000000000E+00 -0.00000000000E+00 -0.33603637217E+03  0.33603637217E+03  0.00000000000E+00 0.  1.
         25    1    1    2    0    0  0.99807513804E+02  0.97862926389E+02 -0.88387074181E+02  0.20730645686E+03  0.12500000000E+03 0.  0.
         25    1    1    2    0    0 -0.69619515171E+02 -0.10827154077E+03 -0.78154421174E+02  0.19571079935E+03  0.12500000000E+03 0.  0.
         25    1    1    2    0    0 -0.30187998633E+02  0.10408614382E+02  0.29925357673E+02  0.13243935045E+03  0.12500000000E+03 0.  0.
</event>
<event>
 5    0  0.5641283E-005  0.4113299E+03  0.7546771E-02  0.1039926E+00
         21   -1    0    0  502  501  0.00000000000E+00  0.00000000000E+00  0.52513848823E+02  0.52513848823E+02  0.00000000000E+00 0. -1.
         21   -1    0    0  501  502 -0.00000000000E+00 -0.00000000000E+00 -0.32218598015E+04  0.32218598015E+04  0.00000000000E+00 0. -1.
         25    1    1    2    0    0 -0.22311657724E+03  0.46504734681E+02 -0.17833054957E+04  0.18021507119E+04  0.12500000000E+03 0.  0.
         25    1    1    2    0    0  0.24448086617E+03 -0.15042202401E+03 -0.69937729926E+03  0.76625797611E+03  0.12500000000E+03 0.  0.
         25    1    1    2    0    0 -0.21364288924E+02  0.10391728933E+03 -0.68666315774E+03  0.70596496235E+03  0.12500000000E+03 0.  0.
</event>
<event>
 5    0  0.5641283E-005  0.3195937E+03  0.7546771E-02  0.1075836E+00
         21   -1    0    0  502  501  0.00000000000E+00  0.00000000000E+00  0.41729874066E+03  0.41729874066E+03  0.00000000000E+00 0.  1.
         21   -1    0    0  501  502 -0.00000000000E+00 -0.00000000000E+00 -0.24476494023E+03  0.24476494023E+03  0.00000000000E+00 0.  1.
         25    1    1    2    0    0  0.29941882433E+02  0.67462738977E+02  0.20305228144E+03  0.24960562188E+03  0.12500000000E+03 0.  0.
         25    1    1    2    0    0  0.21219683218E+01  0.11353645392E+03  0.49851722277E+02  0.17608300126E+03  0.12500000000E+03 0.  0.
         25    1    1    2    0    0 -0.32063850754E+02 -0.18099919289E+03 -0.80370203292E+02  0.23637505776E+03  0.12500000000E+03 0.  0.
</event>
<event>
 5    0  0.5641283E-005  0.2391546E+03  0.7546771E-02  0.1120357E+00
         21   -1    0    0  502  501  0.00000000000E+00  0.00000000000E+00  0.47444658327E+02  0.47444658327E+02  0.00000000000E+00 0.  1.
         21   -1    0    0  501  502 -0.00000000000E+00 -0.00000000000E+00 -0.12055086244E+04  0.12055086244E+04  0.00000000000E+00 0.  1.
         25    1    1    2    0    0  0.14017583749E+03 -0.18110343101E+02 -0.50973140178E+03  0.54353321140E+03  0.12500000000E+03 0.  0.
         25    1    1    2    0    0 -0.74434649783E+02  0.61686100833E+01 -0.30481215356E+03  0.33780766391E+03  0.12500000000E+03 0.  0.
         25    1    1    2    0    0 -0.65741187703E+02  0.11941733018E+02 -0.34352041069E+03  0.37161240736E+03  0.12500000000E+03 0.  0.
</event>
<event>
 5    0  0.5641283E-005  0.2050301E+03  0.7546771E-02  0.1145563E+00
         21   -1    0    0  502  501  0.00000000000E+00  0.00000000000E+00  0.47588022839E+03  0.47588022839E+03  0.00000000000E+00 0.  1.
         21   -1    0    0  501  502 -0.00000000000E+00 -0.00000000000E+00 -0.88335938125E+02  0.88335938125E+02  0.00000000000E+00 0.  1.
         25    1    1    2    0    0  0.20009760361E+02  0.20908482801E+02  0.89079614248E+02  0.15619773634E+03  0.12500000000E+03 0.  0.
         25    1    1    2    0    0  0.94708244958E+01 -0.55127368792E+02  0.10172792524E+03  0.17059394503E+03  0.12500000000E+03 0.  0.
         25    1    1    2    0    0 -0.29480584857E+02  0.34218885991E+02  0.19673675078E+03  0.23742448515E+03  0.12500000000E+03 0.  0.
</event>
<event>
 5    0  0.5897905E-005  0.5014407E+03  0.7546771E-02  0.1013404E+00
         21   -1    0    0  502  501  0.00000000000E+00  0.00000000000E+00  0.64295774109E+03  0.64295774109E+03  0.00000000000E+00 0.  1.
         21   -1    0    0  501  502 -0.00000000000E+00 -0.00000000000E+00 -0.39107197027E+03  0.39107197027E+03  0.00000000000E+00 0.  1.
         25    1    1    2    0    0 -0.29324541343E+03 -0.12271903049E+03  0.11730442472E+03  0.36116223640E+03  0.12500000000E+03 0.  0.
         25    1    1    2    0    0 -0.25738406147E+01  0.90390056005E+02 -0.16965574298E+03  0.22931432141E+03  0.12500000000E+03 0.  0.
         25    1    1    2    0    0  0.29581925405E+03  0.32328974480E+02  0.30423708906E+03  0.44355315354E+03  0.12500000000E+03 0.  0.
</event>
<event>
 5    0  0.7290738E-005  0.3381709E+03  0.7546771E-02  0.1067578E+00
         21   -1    0    0  502  501  0.00000000000E+00  0.00000000000E+00  0.49790997585E+03  0.49790997585E+03  0.00000000000E+00 0. -1.
         21   -1    0    0  501  502 -0.00000000000E+00 -0.00000000000E+00 -0.22967925037E+03  0.22967925037E+03  0.00000000000E+00 0. -1.
         25    1    1    2    0    0  0.87919964459E+02 -0.16240194098E+03  0.99255116285E+02  0.24409196770E+03  0.12500000000E+03 0.  0.
         25    1    1    2    0    0 -0.23878978207E+02  0.10388724043E+03  0.25900089482E+03  0.30670707171E+03  0.12500000000E+03 0.  0.
         25    1    1    2    0    0 -0.64040986252E+02  0.58514700556E+02 -0.90025285624E+02  0.17679018681E+03  0.12500000000E+03 0.  0.
</event>
<event>
 5    0  0.5641283E-005  0.3631233E+03  0.7546771E-02  0.1057354E+00
         21   -1    0    0  502  501  0.00000000000E+00  0.00000000000E+00  0.18046805468E+04  0.18046805468E+04  0.00000000000E+00 0. -1.
         21   -1    0    0  501  502 -0.00000000000E+00 -0.00000000000E+00 -0.73064766729E+02  0.73064766729E+02  0.00000000000E+00 0. -1.
         25    1    1    2    0    0  0.52602998839E+02 -0.93069860367E+02  0.65598697884E+03  0.67629356851E+03  0.12500000000E+03 0.  0.
         25    1    1    2    0    0  0.26745663264E+02  0.10864149602E+03  0.10330851005E+04  0.10466174708E+04  0.12500000000E+03 0.  0.
         25    1    1    2    0    0 -0.79348662104E+02 -0.15571635650E+02  0.42543700687E+02  0.15483427425E+03  0.12500000000E+03 0.  0.
</event>
<event>
 5    0  0.5781023E-005  0.3383921E+03  0.7546771E-02  0.1067483E+00
         21   -1    0    0  502  501  0.00000000000E+00  0.00000000000E+00  0.21694246704E+03  0.21694246704E+03  0.00000000000E+00 0. -1.
         21   -1    0    0  501  502 -0.00000000000E+00 -0.00000000000E+00 -0.52783207417E+03  0.52783207417E+03  0.00000000000E+00 0. -1.
         25    1    1    2    0    0 -0.10962931021E+03 -0.16120674555E+03 -0.14178334555E+03  0.27153953219E+03  0.12500000000E+03 0.  0.
         25    1    1    2    0    0 -0.13613702123E+02 -0.35591043790E+02 -0.16370806757E+03  0.20946929768E+03  0.12500000000E+03 0.  0.
         25    1    1    2    0    0  0.12324301234E+03  0.19679778934E+03 -0.53981940087E+01  0.26376571134E+03  0.12500000000E+03 0.  0.
</event>
<event>
 5    0  0.5641283E-005  0.3349167E+03  0.7546771E-02  0.1068982E+00
         21   -1    0    0  502  501  0.00000000000E+00  0.00000000000E+00  0.52899522251E+03  0.52899522251E+03  0.00000000000E+00 0.  1.
         21   -1    0    0  501  502 -0.00000000000E+00 -0.00000000000E+00 -0.21204203654E+03  0.21204203654E+03  0.00000000000E+00 0.  1.
         25    1    1    2    0    0 -0.22817248318E+02 -0.70465573009E+02  0.30463654026E+02  0.14845557590E+03  0.12500000000E+03 0.  0.
         25    1    1    2    0    0  0.83663060095E+02 -0.17658014578E+03  0.16226493362E+03  0.28308119717E+03  0.12500000000E+03 0.  0.
         25    1    1    2    0    0 -0.60845811777E+02  0.24704571879E+03  0.12422459833E+03  0.30950048597E+03  0.12500000000E+03 0.  0.
</event>
<event>
 5    0  0.5641283E-005  0.3670772E+03  0.7546771E-02  0.1055816E+00
         21   -1    0    0  502  501  0.00000000000E+00  0.00000000000E+00  0.53337431127E+03  0.53337431127E+03  0.00000000000E+00 0. -1.
         21   -1    0    0  501  502 -0.00000000000E+00 -0.00000000000E+00 -0.25262875344E+03  0.25262875344E+03  0.00000000000E+00 0. -1.
         25    1    1    2    0    0 -0.12923292359E+03 -0.11560416288E+03 -0.27591377398E+02  0.21552669236E+03  0.12500000000E+03 0.  0.
         25    1    1    2    0    0  0.18358313121E+03 -0.82931568976E+02  0.17944085341E+03  0.29732882650E+03  0.12500000000E+03 0.  0.
         25    1    1    2    0    0 -0.54350207620E+02  0.19853573185E+03  0.12889608183E+03  0.27314754584E+03  0.12500000000E+03 0.  0.
</event>
<event>
 5    0  0.5641283E-005  0.2492777E+03  0.7546771E-02  0.1113762E+00
         21   -1    0    0  502  501  0.00000000000E+00  0.00000000000E+00  0.43099077352E+02  0.43099077352E+02  0.00000000000E+00 0.  1.
         21   -1    0    0  501  502 -0.00000000000E+00 -0.00000000000E+00 -0.14417792432E+04  0.14417792432E+04  0.00000000000E+00 0.  1.
         25    1    1    2    0    0  0.28759727128E+02  0.12048116967E+03 -0.69065703358E+03  0.71272362960E+03  0.12500000000E+03 0.  0.
         25    1    1    2    0    0 -0.15332014324E+01 -0.81024418338E+01 -0.41229712831E+03  0.43090825274E+03  0.12500000000E+03 0.  0.
         25    1    1    2    0    0 -0.27226525696E+02 -0.11237872784E+03 -0.29572600392E+03  0.34124643818E+03  0.12500000000E+03 0.  0.
</event>
<event>
 5    0  0.5641283E-005  0.2748933E+03  0.7546771E-02  0.1098511E+00
         21   -1    0    0  502  501  0.00000000000E+00  0.00000000000E+00  0.43008472495E+03  0.43008472495E+03  0.00000000000E+00 0.  1.
         21   -1    0    0  501  502 -0.00000000000E+00 -0.00000000000E+00 -0.17570101909E+03  0.17570101909E+03  0.00000000000E+00 0.  1.
         25    1    1    2    0    0 -0.71905887151E+02 -0.55213440400E+01  0.93217655068E+02  0.17180067830E+03  0.12500000000E+03 0.  0.
         25    1    1    2    0    0 -0.26613540994E+02  0.74264668078E+02  0.20728303518E+03  0.25458746662E+03  0.12500000000E+03 0.  0.
         25    1    1    2    0    0  0.98519428144E+02 -0.68743324038E+02 -0.46116984381E+02  0.17939759912E+03  0.12500000000E+03 0.  0.
</event>
<event>
 5    0  0.5641283E-005  0.3117765E+03  0.7546771E-02  0.1079497E+00
         21   -1    0    0  502  501  0.00000000000E+00  0.00000000000E+00  0.43904296711E+03  0.43904296711E+03  0.00000000000E+00 0.  1.
         21   -1    0    0  501  502 -0.00000000000E+00 -0.00000000000E+00 -0.22140103312E+03  0.22140103312E+03  0.00000000000E+00 0.  1.
         25    1    1    2    0    0 -0.90602019188E+02 -0.80583865057E+02 -0.94429300944E+02  0.19810193857E+03  0.12500000000E+03 0.  0.
         25    1    1    2    0    0  0.12955531070E+03 -0.75006222192E+01  0.13490845782E+03  0.22509138112E+03  0.12500000000E+03 0.  0.
         25    1    1    2    0    0 -0.38953291514E+02  0.88084487276E+02  0.17716277712E+03  0.23725068054E+03  0.12500000000E+03 0.  0.
</event>
<event>
 5    0  0.5641283E-005  0.4932779E+03  0.7546771E-02  0.1015549E+00
         21   -1    0    0  502  501  0.00000000000E+00  0.00000000000E+00  0.21633352590E+03  0.21633352590E+03  0.00000000000E+00 0. -1.
         21   -1    0    0  501  502 -0.00000000000E+00 -0.00000000000E+00 -0.11247588108E+04  0.11247588108E+04  0.00000000000E+00 0. -1.
         25    1    1    2    0    0 -0.13057086214E+03 -0.14181963869E+03  0.77136569972E+02  0.24235637063E+03  0.12500000000E+03 0.  0.
         25    1    1    2    0    0  0.31362917327E+02  0.27293393507E+02 -0.47041105825E+02  0.13988004700E+03  0.12500000000E+03 0.  0.
         25    1    1    2    0    0  0.99207944812E+02  0.11452624518E+03 -0.93852074905E+03  0.95885591907E+03  0.12500000000E+03 0.  0.
</event>
<event>
 5    0  0.5641283E-005  0.2759083E+03  0.7546771E-02  0.1097945E+00
         21   -1    0    0  502  501  0.00000000000E+00  0.00000000000E+00  0.76702908638E+02  0.76702908638E+02  0.00000000000E+00 0. -1.
         21   -1    0    0  501  502 -0.00000000000E+00 -0.00000000000E+00 -0.99247097077E+03  0.99247097077E+03  0.00000000000E+00 0. -1.
         25    1    1    2    0    0 -0.62063852383E+02 -0.71054095610E+02 -0.43510732020E+03  0.46243268307E+03  0.12500000000E+03 0.  0.
         25    1    1    2    0    0  0.24902088514E+01 -0.19025362112E+02 -0.34655033626E+02  0.13112641572E+03  0.12500000000E+03 0.  0.
         25    1    1    2    0    0  0.59573643531E+02  0.90079457722E+02 -0.44600570830E+03  0.47561478062E+03  0.12500000000E+03 0.  0.
</event>
<event>
 5    0  0.5641283E-005  0.3591368E+03  0.7546771E-02  0.1058926E+00
         21   -1    0    0  502  501  0.00000000000E+00  0.00000000000E+00  0.67272061962E+03  0.67272061962E+03  0.00000000000E+00 0.  1.
         21   -1    0    0  501  502 -0.00000000000E+00 -0.00000000000E+00 -0.19172781036E+03  0.19172781036E+03  0.00000000000E+00 0.  1.
         25    1    1    2    0    0 -0.12253067979E+03 -0.11276935284E+03  0.34213091498E+03  0.40051124506E+03  0.12500000000E+03 0.  0.
         25    1    1    2    0    0  0.20674685540E+03  0.72341917664E+02  0.17088094587E+03  0.30463570528E+03  0.12500000000E+03 0.  0.
         25    1    1    2    0    0 -0.84216175611E+02  0.40427435172E+02 -0.32019051601E+02  0.15930147964E+03  0.12500000000E+03 0.  0.
</event>
<event>
 5    0  0.5641283E-005  0.2136352E+03  0.7546771E-02  0.1138719E+00
         21   -1    0    0  502  501  0.00000000000E+00  0.00000000000E+00  0.11776453834E+03  0.11776453834E+03  0.00000000000E+00 0.  1.
         21   -1    0    0  501  502 -0.00000000000E+00 -0.00000000000E+00 -0.38755305054E+03  0.38755305054E+03  0.00000000000E+00 0.  1.
         25    1    1    2    0    0 -0.52983783350E+01  0.27254721974E+02 -0.16869915268E+02  0.12915295863E+03  0.12500000000E+03 0.  0.
         25    1    1    2    0    0  0.11494622377E+02  0.41486136300E+02 -0.15121271841E+03  0.20085694426E+03  0.12500000000E+03 0.  0.
         25    1    1    2    0    0 -0.61962440420E+01 -0.68740858275E+02 -0.10170587853E+03  0.17530768598E+03  0.12500000000E+03 0.  0.
</event>
<event>
 5    0  0.5641283E-005  0.2627464E+03  0.7546771E-02  0.1105504E+00
         21   -1    0    0  502  501  0.00000000000E+00  0.00000000000E+00  0.11035510647E+03  0.11035510647E+03  0.00000000000E+00 0. -1.
         21   -1    0    0  501  502 -0.00000000000E+00 -0.00000000000E+00 -0.62557733977E+03  0.62557733977E+03  0.00000000000E+00 0. -1.
         25    1    1    2    0    0  0.13191915908E+02  0.12659759279E+03 -0.13662068146E+03  0.22470244268E+03  0.12500000000E+03 0.  0.
         25    1    1    2    0    0 -0.47275710165E+02  0.21413390777E+02 -0.92137838879E+02  0.16373120481E+03  0.12500000000E+03 0.  0.
         25    1    1    2    0    0  0.34083794258E+02 -0.14801098356E+03 -0.28646371297E+03  0.34749879875E+03  0.12500000000E+03 0.  0.
</event>
<event>
 5    0  0.5641283E-005  0.2599312E+03  0.7546771E-02  0.1107185E+00
         21   -1    0    0  502  501  0.00000000000E+00  0.00000000000E+00  0.26969136097E+03  0.26969136097E+03  0.00000000000E+00 0.  1.
         21   -1    0    0  501  502 -0.00000000000E+00 -0.00000000000E+00 -0.25052430857E+03  0.25052430857E+03  0.00000000000E+00 0.  1.
         25    1    1    2    0    0  0.60688787718E+02 -0.12663721910E+03 -0.33765720547E+02  0.19101109418E+03  0.12500000000E+03 0.  0.
         25    1    1    2    0    0 -0.71522062868E+02  0.92994381454E+02  0.90672566370E+02  0.19393265519E+03  0.12500000000E+03 0.  0.
         25    1    1    2    0    0  0.10833275149E+02  0.33642837650E+02 -0.37739793432E+02  0.13527192016E+03  0.12500000000E+03 0.  0.
</event>
<event>
 5    0  0.5641283E-005  0.2940104E+03  0.7546771E-02  0.1088274E+00
         21   -1    0    0  502  501  0.00000000000E+00  0.00000000000E+00  0.12272586087E+04  0.12272586087E+04  0.00000000000E+00 0. -1.
         21   -1    0    0  501  502 -0.00000000000E+00 -0.00000000000E+00 -0.70435108256E+02  0.70435108256E+02  0.00000000000E+00 0. -1.
         25    1    1    2    0    0  0.24777009120E+02  0.15308149488E+01  0.42760704921E+03  0.44619394002E+03  0.12500000000E+03 0.  0.
         25    1    1    2    0    0 -0.58346893031E+02  0.41521570385E+02  0.69648251272E+03  0.71122520432E+03  0.12500000000E+03 0.  0.
         25    1    1    2    0    0  0.33569883911E+02 -0.43052385334E+02  0.32733938496E+02  0.14027457260E+03  0.12500000000E+03 0.  0.
</event>
<event>
 5    0  0.5641283E-005  0.2398668E+03  0.7546771E-02  0.1119882E+00
         21   -1    0    0  502  501  0.00000000000E+00  0.00000000000E+00  0.78017361040E+02  0.78017361040E+02  0.00000000000E+00 0. -1.
         21   -1    0    0  501  502 -0.00000000000E+00 -0.00000000000E+00 -0.73747765236E+03  0.73747765236E+03  0.00000000000E+00 0. -1.
         25    1    1    2    0    0 -0.37425081400E+02 -0.11954956432E+02 -0.98783012344E+02  0.16409339179E+03  0.12500000000E+03 0.  0.
         25    1    1    2    0    0 -0.51220919020E+02 -0.32296961900E+02 -0.40645927424E+03  0.42953558399E+03  0.12500000000E+03 0.  0.
         25    1    1    2    0    0  0.88646000420E+02  0.44251918332E+02 -0.15421800473E+03  0.22186603762E+03  0.12500000000E+03 0.  0.
</event>
<event>
 5    0  0.5641283E-005  0.3143980E+03  0.7546771E-02  0.1078257E+00
         21   -1    0    0  502  501  0.00000000000E+00  0.00000000000E+00  0.91881442157E+02  0.91881442157E+02  0.00000000000E+00 0. -1.
         21   -1    0    0  501  502 -0.00000000000E+00 -0.00000000000E+00 -0.10758005620E+04  0.10758005620E+04  0.00000000000E+00 0. -1.
         25    1    1    2    0    0  0.20776636775E+02 -0.16763217706E+03 -0.20582218734E+03  0.29414280243E+03  0.12500000000E+03 0.  0.
         25    1    1    2    0    0  0.51251118002E+02  0.89041950754E+02 -0.63621637812E+03  0.65646890702E+03  0.12500000000E+03 0.  0.
         25    1    1    2    0    0 -0.72027754777E+02  0.78590226302E+02 -0.14188055435E+03  0.21707029468E+03  0.12500000000E+03 0.  0.
</event>
<event>
 5    0  0.5641283E-005  0.2672525E+03  0.7546771E-02  0.1102862E+00
         21   -1    0    0  502  501  0.00000000000E+00  0.00000000000E+00  0.18007501454E+03  0.18007501454E+03  0.00000000000E+00 0.  1.
         21   -1    0    0  501  502 -0.00000000000E+00 -0.00000000000E+00 -0.39663428943E+03  0.39663428943E+03  0.00000000000E+00 0.  1.
         25    1    1    2    0    0  0.60367991596E+01  0.98840640819E+01  0.11709773957E+02  0.12608035721E+03  0.12500000000E+03 0.  0.
         25    1    1    2    0    0  0.89748651231E+02  0.55441449946E+01 -0.24723194503E+03  0.29126309856E+03  0.12500000000E+03 0.  0.
         25    1    1    2    0    0 -0.95785450390E+02 -0.15428209077E+02  0.18962896181E+02  0.15936584820E+03  0.12500000000E+03 0.  0.
</event>
<event>
 5    0  0.5641283E-005  0.2686813E+03  0.7546771E-02  0.1102037E+00
         21   -1    0    0  502  501  0.00000000000E+00  0.00000000000E+00  0.33639837707E+02  0.33639837707E+02  0.00000000000E+00 0.  1.
         21   -1    0    0  501  502 -0.00000000000E+00 -0.00000000000E+00 -0.21459569930E+04  0.21459569930E+04  0.00000000000E+00 0.  1.
         25    1    1    2    0    0  0.13046943334E+03 -0.29847628603E+02 -0.11375967950E+04  0.11522432998E+04  0.12500000000E+03 0.  0.
         25    1    1    2    0    0  0.16021149378E+02  0.14843501385E+02 -0.30523669056E+03  0.33056231489E+03  0.12500000000E+03 0.  0.
         25    1    1    2    0    0 -0.14649058272E+03  0.15004127218E+02 -0.66948366971E+03  0.69679121598E+03  0.12500000000E+03 0.  0.
</event>
<event>
 5    0  0.5641283E-005  0.4794361E+03  0.7546771E-02  0.1019290E+00
         21   -1    0    0  502  501  0.00000000000E+00  0.00000000000E+00  0.17159602407E+03  0.17159602407E+03  0.00000000000E+00 0. -1.
         21   -1    0    0  501  502 -0.00000000000E+00 -0.00000000000E+00 -0.13395354231E+04  0.13395354231E+04  0.00000000000E+00 0.  1.
         25    1    1    2    0    0  0.13830221689E+03  0.31238205533E+02 -0.79906096572E+02  0.20521528440E+03  0.12500000000E+03 0.  0.
         25    1    1    2    0    0 -0.36837764982E+03 -0.15022602946E+03 -0.49813919518E+03  0.64964421847E+03  0.12500000000E+03 0.  0.
         25    1    1    2    0    0  0.23007543292E+03  0.11898782393E+03 -0.58989410725E+03  0.65627194428E+03  0.12500000000E+03 0.  0.
</event>
<event>
 5    0  0.5641283E-005  0.2664540E+03  0.7546771E-02  0.1103326E+00
         21   -1    0    0  502  501  0.00000000000E+00  0.00000000000E+00  0.65306318020E+02  0.65306318020E+02  0.00000000000E+00 0.  1.
         21   -1    0    0  501  502 -0.00000000000E+00 -0.00000000000E+00 -0.10871495201E+04  0.10871495201E+04  0.00000000000E+00 0.  1.
         25    1    1    2    0    0  0.49357673426E+02  0.80445472262E+02 -0.33366495936E+03  0.36859864221E+03  0.12500000000E+03 0.  0.
         25    1    1    2    0    0  0.84862421067E+02 -0.58966820253E+02 -0.17564301286E+03  0.23906941328E+03  0.12500000000E+03 0.  0.
         25    1    1    2    0    0 -0.13422009449E+03 -0.21478652009E+02 -0.51253522988E+03  0.54478778265E+03  0.12500000000E+03 0.  0.
</event>
<event>
 5    0  0.5641283E-005  0.3054004E+03  0.7546771E-02  0.1082572E+00
         21   -1    0    0  502  501  0.00000000000E+00  0.00000000000E+00  0.23648993995E+03  0.23648993995E+03  0.00000000000E+00 0.  1.
         21   -1    0    0  501  502 -0.00000000000E+00 -0.00000000000E+00 -0.39439055169E+03  0.39439055169E+03  0.00000000000E+00 0.  1.
         25    1    1    2    0    0  0.14689373806E+02 -0.14858214078E+03  0.91666578396E+02  0.21522126255E+03  0.12500000000E+03 0.  0.
         25    1    1    2    0    0  0.44145558929E+02  0.18692401076E+02 -0.57334133743E+02  0.14563804147E+03  0.12500000000E+03 0.  0.
         25    1    1    2    0    0 -0.58834932736E+02  0.12988973970E+03 -0.19223305640E+03  0.27002118761E+03  0.12500000000E+03 0.  0.
</event>
<event>
 5    0  0.5641283E-005  0.4318006E+03  0.7546771E-02  0.1033293E+00
         21   -1    0    0  502  501  0.00000000000E+00  0.00000000000E+00  0.90231923700E+02  0.90231923700E+02  0.00000000000E+00 0. -1.
         21   -1    0    0  501  502 -0.00000000000E+00 -0.00000000000E+00 -0.20663609159E+04  0.20663609159E+04  0.00000000000E+00 0. -1.
         25    1    1    2    0    0  0.14778680205E+03 -0.24948673298E+02 -0.10762737828E+04  0.10938252285E+04  0.12500000000E+03 0.  0.
         25    1    1    2    0    0 -0.13850869432E+03  0.23578435135E+03 -0.63015683692E+03  0.69821311780E+03  0.12500000000E+03 0.  0.
         25    1    1    2    0    0 -0.92781077334E+01 -0.21083567805E+03 -0.26969837256E+03  0.36455449330E+03  0.12500000000E+03 0.  0.
</event>
<event>
 5    0  0.5641283E-005  0.3070265E+03  0.7546771E-02  0.1081780E+00
         21   -1    0    0  502  501  0.00000000000E+00  0.00000000000E+00  0.21292071165E+03  0.21292071165E+03  0.00000000000E+00 0.  1.
         21   -1    0    0  501  502 -0.00000000000E+00 -0.00000000000E+00 -0.44272462194E+03  0.44272462194E+03  0.00000000000E+00 0.  1.
         25    1    1    2    0    0  0.25991212491E+02  0.62399270481E+02 -0.75320155324E+02  0.16083326112E+03  0.12500000000E+03 0.  0.
         25    1    1    2    0    0  0.12206544171E+03 -0.61924084101E+02  0.70114151237E+02  0.19818062079E+03  0.12500000000E+03 0.  0.
         25    1    1    2    0    0 -0.14805665420E+03 -0.47518637969E+00 -0.22459790620E+03  0.29663145168E+03  0.12500000000E+03 0.  0.
</event>
<event>
 5    0  0.5641283E-005  0.4506279E+03  0.7546771E-02  0.1027535E+00
         21   -1    0    0  502  501  0.00000000000E+00  0.00000000000E+00  0.19009414652E+04  0.19009414652E+04  0.00000000000E+00 0.  1.
         21   -1    0    0  501  502 -0.00000000000E+00 -0.00000000000E+00 -0.10682366368E+03  0.10682366368E+03  0.00000000000E+00 0.  1.
         25    1    1    2    0    0  0.17591720155E+03  0.11029294628E+03  0.92673499261E+03  0.95790090423E+03  0.12500000000E+03 0.  0.
         25    1    1    2    0    0 -0.55393667287E+02  0.10210801562E+03  0.71695834290E+03  0.73698627577E+03  0.12500000000E+03 0.  0.
         25    1    1    2    0    0 -0.12052353426E+03 -0.21240096190E+03  0.15042446605E+03  0.31287794891E+03  0.12500000000E+03 0.  0.
</event>
<event>
 5    0  0.5641283E-005  0.2753950E+03  0.7546771E-02  0.1098231E+00
         21   -1    0    0  502  501  0.00000000000E+00  0.00000000000E+00  0.12895936819E+03  0.12895936819E+03  0.00000000000E+00 0.  1.
         21   -1    0    0  501  502 -0.00000000000E+00 -0.00000000000E+00 -0.58811104220E+03  0.58811104220E+03  0.00000000000E+00 0.  1.
         25    1    1    2    0    0  0.66299937046E+02  0.40501698677E+02 -0.14745551044E+03  0.20833673898E+03  0.12500000000E+03 0.  0.
         25    1    1    2    0    0 -0.45219704688E+02 -0.75834056947E+02 -0.34112983626E+03  0.37388526458E+03  0.12500000000E+03 0.  0.
         25    1    1    2    0    0 -0.21080232359E+02  0.35332358270E+02  0.29433672683E+02  0.13484840683E+03  0.12500000000E+03 0.  0.
</event>
<event>
 5    0  0.5641283E-005  0.5313143E+03  0.7546771E-02  0.1005914E+00
         21   -1    0    0  502  501  0.00000000000E+00  0.00000000000E+00  0.30741304101E+03  0.30741304101E+03  0.00000000000E+00 0. -1.
         21   -1    0    0  501  502 -0.00000000000E+00 -0.00000000000E+00 -0.91829177124E+03  0.91829177124E+03  0.00000000000E+00 0. -1.
         25    1    1    2    0    0  0.24693999932E+03 -0.20004369000E+03 -0.40359282807E+03  0.52868611864E+03  0.12500000000E+03 0.  0.
         25    1    1    2    0    0 -0.30202014107E+03  0.32006059170E+03 -0.56785495890E+02  0.46098214771E+03  0.12500000000E+03 0.  0.
         25    1    1    2    0    0  0.55080141742E+02 -0.12001690170E+03 -0.15050040627E+03  0.23603654589E+03  0.12500000000E+03 0.  0.
</event>
<event>
 5    0  0.5641283E-005  0.2747568E+03  0.7546771E-02  0.1098588E+00
         21   -1    0    0  502  501  0.00000000000E+00  0.00000000000E+00  0.18860578642E+03  0.18860578642E+03  0.00000000000E+00 0. -1.
         21   -1    0    0  501  502 -0.00000000000E+00 -0.00000000000E+00 -0.40025980275E+03  0.40025980275E+03  0.00000000000E+00 0. -1.
         25    1    1    2    0    0 -0.91095158966E+02  0.38751721604E+00  0.64451131536E+02  0.16756320155E+03  0.12500000000E+03 0.  0.
         25    1    1    2    0    0 -0.32994608527E+02  0.18130447436E+02 -0.65274761659E+02  0.14595599277E+03  0.12500000000E+03 0.  0.
         25    1    1    2    0    0  0.12408976749E+03 -0.18517964652E+02 -0.21083038621E+03  0.27534639485E+03  0.12500000000E+03 0.  0.
</event>
<event>
 5    0  0.5641283E-005  0.4630175E+03  0.7546771E-02  0.1023910E+00
         21   -1    0    0  502  501  0.00000000000E+00  0.00000000000E+00  0.36814929590E+03  0.36814929590E+03  0.00000000000E+00 0. -1.
         21   -1    0    0  501  502 -0.00000000000E+00 -0.00000000000E+00 -0.58233227195E+03  0.58233227195E+03  0.00000000000E+00 0. -1.
         25    1    1    2    0    0  0.26160945860E+03  0.38591113411E+02  0.11882994018E+03  0.31571242856E+03  0.12500000000E+03 0.  0.
         25    1    1    2    0    0  0.54783845993E+02 -0.71281392828E+02  0.50522444294E+01  0.15405463939E+03  0.12500000000E+03 0.  0.
         25    1    1    2    0    0 -0.31639330459E+03  0.32690279417E+02 -0.33806516067E+03  0.48071449990E+03  0.12500000000E+03 0.  0.
</event>
<event>
 5    0  0.5641283E-005  0.2289042E+03  0.7546771E-02  0.1127413E+00
         21   -1    0    0  502  501  0.00000000000E+00  0.00000000000E+00  0.49875281012E+03  0.49875281012E+03  0.00000000000E+00 0. -1.
         21   -1    0    0  501  502 -0.00000000000E+00 -0.00000000000E+00 -0.10505631723E+03  0.10505631723E+03  0.00000000000E+00 0. -1.
         25    1    1    2    0    0 -0.22184576744E+02 -0.98937817215E+01  0.18359472523E+03  0.22343246294E+03  0.12500000000E+03 0.  0.
         25    1    1    2    0    0  0.64291055139E+02 -0.63553146138E+02  0.15760760304E+03  0.22053910921E+03  0.12500000000E+03 0.  0.
         25    1    1    2    0    0 -0.42106478395E+02  0.73446927859E+02  0.52494164612E+02  0.15983755520E+03  0.12500000000E+03 0.  0.
</event>
<event>
 5    0  0.5641283E-005  0.3595706E+03  0.7546771E-02  0.1058754E+00
         21   -1    0    0  502  501  0.00000000000E+00  0.00000000000E+00  0.28356706778E+03  0.28356706778E+03  0.00000000000E+00 0. -1.
         21   -1    0    0  501  502 -0.00000000000E+00 -0.00000000000E+00 -0.45594506847E+03  0.45594506847E+03  0.00000000000E+00 0. -1.
         25    1    1    2    0    0  0.29983688969E+02  0.15192238364E+03  0.75765136413E+02  0.21294315709E+03  0.12500000000E+03 0.  0.
         25    1    1    2    0    0 -0.82203553083E+02 -0.25360677624E+03 -0.14452807481E+03  0.32800485591E+03  0.12500000000E+03 0.  0.
         25    1    1    2    0    0  0.52219864113E+02  0.10168439260E+03 -0.10361506230E+03  0.19856412325E+03  0.12500000000E+03 0.  0.
</event>
<event>
 5    0  0.5641283E-005  0.2790086E+03  0.7546771E-02  0.1096232E+00
         21   -1    0    0  502  501  0.00000000000E+00  0.00000000000E+00  0.70902489629E+03  0.70902489629E+03  0.00000000000E+00 0. -1.
         21   -1    0    0  501  502 -0.00000000000E+00 -0.00000000000E+00 -0.10979273639E+03  0.10979273639E+03  0.00000000000E+00 0. -1.
         25    1    1    2    0    0  0.15208216433E+03 -0.12496576842E+02  0.18300405867E+03  0.26907366023E+03  0.12500000000E+03 0.  0.
         25    1    1    2    0    0  0.22783133025E+02 -0.45901843338E+02  0.13492701425E+03  0.19093545911E+03  0.12500000000E+03 0.  0.
         25    1    1    2    0    0 -0.17486529736E+03  0.58398420180E+02  0.28130108698E+03  0.35880851333E+03  0.12500000000E+03 0.  0.
</event>
<event>
 5    0  0.5641283E-005  0.3080663E+03  0.7546771E-02  0.1081276E+00
         21   -1    0    0  502  501  0.00000000000E+00  0.00000000000E+00  0.44773803767E+03  0.44773803767E+03  0.00000000000E+00 0.  1.
         21   -1    0    0  501  502 -0.00000000000E+00 -0.00000000000E+00 -0.21196506116E+03  0.21196506116E+03  0.00000000000E+00 0.  1.
         25    1    1    2    0    0  0.30051330139E+02  0.88241825257E+02  0.22583689840E+03  0.27443944113E+03  0.12500000000E+03 0.  0.
         25    1    1    2    0    0  0.56459657445E+02  0.29304857907E+02  0.10078206579E+03  0.17270927132E+03  0.12500000000E+03 0.  0.
         25    1    1    2    0    0 -0.86510987584E+02 -0.11754668316E+03 -0.90845987676E+02  0.21255438639E+03  0.12500000000E+03 0.  0.
</event>
<event>
 5    0  0.5641283E-005  0.3360071E+03  0.7546771E-02  0.1068509E+00
         21   -1    0    0  502  501  0.00000000000E+00  0.00000000000E+00  0.18083508212E+04  0.18083508212E+04  0.00000000000E+00 0. -1.
         21   -1    0    0  501  502 -0.00000000000E+00 -0.00000000000E+00 -0.62433016208E+02  0.62433016208E+02  0.00000000000E+00 0. -1.
         25    1    1    2    0    0  0.19443238941E+02 -0.19015001699E+03  0.57534563330E+03  0.61901750077E+03  0.12500000000E+03 0.  0.
         25    1    1    2    0    0  0.64953527104E+02  0.18385334429E+03  0.98841276596E+03  0.10151875732E+04  0.12500000000E+03 0.  0.
         25    1    1    2    0    0 -0.84396766046E+02  0.62966726990E+01  0.18215940571E+03  0.23657876341E+03  0.12500000000E+03 0.  0.
</event>
<event>
 5    0  0.5641283E-005  0.7533946E+03  0.7546771E-02  0.9630040E-01
         21   -1    0    0  502  501  0.00000000000E+00  0.00000000000E+00  0.29753076958E+03  0.29753076958E+03  0.00000000000E+00 0. -1.
         21   -1    0    0  501  502 -0.00000000000E+00 -0.00000000000E+00 -0.19077134139E+04  0.19077134139E+04  0.00000000000E+00 0. -1.
         25    1    1    2    0    0 -0.22878385033E+03  0.28587587260E+03 -0.50197853567E+03  0.63377796978E+03  0.12500000000E+03 0.  0.
         25    1    1    2    0    0  0.44495696206E+03 -0.54222204047E+03 -0.51663056471E+03  0.88007021291E+03  0.12500000000E+03 0.  0.
         25    1    1    2    0    0 -0.21617311173E+03  0.25634616787E+03 -0.59157354396E+03  0.69139600080E+03  0.12500000000E+03 0.  0.
</event>
<event>
 5    0  0.5641283E-005  0.2578784E+03  0.7546771E-02  0.1108425E+00
         21   -1    0    0  502  501  0.00000000000E+00  0.00000000000E+00  0.21554064568E+03  0.21554064568E+03  0.00000000000E+00 0. -1.
         21   -1    0    0  501  502 -0.00000000000E+00 -0.00000000000E+00 -0.30853246823E+03  0.30853246823E+03  0.00000000000E+00 0. -1.
         25    1    1    2    0    0  0.33180296869E+02  0.13133993489E+02  0.80089638599E+02  0.15268524518E+03  0.12500000000E+03 0.  0.
         25    1    1    2    0    0 -0.10479401841E+03  0.36947684854E+02 -0.47612791461E+02  0.17389334553E+03  0.12500000000E+03 0.  0.
         25    1    1    2    0    0  0.71613721541E+02 -0.50081678343E+02 -0.12546866969E+03  0.19749452319E+03  0.12500000000E+03 0.  0.
</event>
<event>
 5    0  0.5641283E-005  0.3150131E+03  0.7546771E-02  0.1077968E+00
         21   -1    0    0  502  501  0.00000000000E+00  0.00000000000E+00  0.19262378736E+03  0.19262378736E+03  0.00000000000E+00 0.  1.
         21   -1    0    0  501  502 -0.00000000000E+00 -0.00000000000E+00 -0.51516620436E+03  0.51516620436E+03  0.00000000000E+00 0.  1.
         25    1    1    2    0    0  0.13244901179E+03 -0.10363858419E+03 -0.60813826431E+02  0.21819032596E+03  0.12500000000E+03 0.  0.
         25    1    1    2    0    0 -0.51256664816E+02  0.15470085139E+03 -0.26089373085E+03  0.33203936198E+03  0.12500000000E+03 0.  0.
         25    1    1    2    0    0 -0.81192346972E+02 -0.51062267204E+02 -0.83485971490E+00  0.15756030379E+03  0.12500000000E+03 0.  0.
</event>
<event>
 5    0  0.5641283E-005  0.2927155E+03  0.7546771E-02  0.1088940E+00
         21   -1    0    0  502  501  0.00000000000E+00  0.00000000000E+00  0.60659054048E+03  0.60659054048E+03  0.00000000000E+00 0. -1.
         21   -1    0    0  501  502 -0.00000000000E+00 -0.00000000000E+00 -0.14125235991E+03  0.14125235991E+03  0.00000000000E+00 0. -1.
         25    1    1    2    0    0 -0.69766195839E+01 -0.72908941900E+02  0.13513759058E+03  0.19812005304E+03  0.12500000000E+03 0.  0.
         25    1    1    2    0    0 -0.15501089118E+03  0.98485743685E+02  0.23241007282E+03  0.32150779157E+03  0.12500000000E+03 0.  0.
         25    1    1    2    0    0  0.16198751077E+03 -0.25576801785E+02  0.97790517183E+02  0.22821505578E+03  0.12500000000E+03 0.  0.
</event>
<event>
 5    0  0.5641283E-005  0.2590573E+03  0.7546771E-02  0.1107711E+00
         21   -1    0    0  502  501  0.00000000000E+00  0.00000000000E+00  0.42811436479E+03  0.42811436479E+03  0.00000000000E+00 0.  1.
         21   -1    0    0  501  502 -0.00000000000E+00 -0.00000000000E+00 -0.15675882406E+03  0.15675882406E+03  0.00000000000E+00 0.  1.
         25    1    1    2    0    0  0.20450144976E+02 -0.24325304419E+02 -0.48291706780E+02  0.13772079657E+03  0.12500000000E+03 0.  0.
         25    1    1    2    0    0 -0.28670453117E+02  0.72533839798E+02  0.68707595515E+02  0.16256963578E+03  0.12500000000E+03 0.  0.
         25    1    1    2    0    0  0.82203081412E+01 -0.48208535379E+02  0.25093965200E+03  0.28458275649E+03  0.12500000000E+03 0.  0.
</event>
<event>
 5    0  0.5641283E-005  0.3272759E+03  0.7546771E-02  0.1072349E+00
         21   -1    0    0  502  501  0.00000000000E+00  0.00000000000E+00  0.15040849152E+03  0.15040849152E+03  0.00000000000E+00 0. -1.
         21   -1    0    0  501  502 -0.00000000000E+00 -0.00000000000E+00 -0.71212410243E+03  0.71212410243E+03  0.00000000000E+00 0. -1.
         25    1    1    2    0    0 -0.13341286663E+03 -0.33518668577E+02  0.36429748961E+02  0.18940596805E+03  0.12500000000E+03 0.  0.
         25    1    1    2    0    0  0.75420444382E+02  0.55618823669E+01 -0.17914919872E+03  0.23116793326E+03  0.12500000000E+03 0.  0.
         25    1    1    2    0    0  0.57992422246E+02  0.27956786211E+02 -0.41899616115E+03  0.44195869263E+03  0.12500000000E+03 0.  0.
</event>
<event>
 5    0  0.5641283E-005  0.2796155E+03  0.7546771E-02  0.1095899E+00
         21   -1    0    0  502  501  0.00000000000E+00  0.00000000000E+00  0.48683229546E+03  0.48683229546E+03  0.00000000000E+00 0. -1.
         21   -1    0    0  501  502 -0.00000000000E+00 -0.00000000000E+00 -0.16059910574E+03  0.16059910574E+03  0.00000000000E+00 0. -1.
         25    1    1    2    0    0 -0.15072486933E+03 -0.10010099602E+03  0.15867569683E+03  0.27118475695E+03  0.12500000000E+03 0.  0.
         25    1    1    2    0    0  0.63890690616E+02 -0.20293019662E+02  0.56703880724E+02  0.15275521950E+03  0.12500000000E+03 0.  0.
         25    1    1    2    0    0  0.86834178716E+02  0.12039401568E+03  0.11085361217E+03  0.22349142475E+03  0.12500000000E+03 0.  0.
</event>
<event>
 5    0  0.5641283E-005  0.5388665E+03  0.7546771E-02  0.1004104E+00
         21   -1    0    0  502  501  0.00000000000E+00  0.00000000000E+00  0.16525630284E+03  0.16525630284E+03  0.00000000000E+00 0. -1.
         21   -1    0    0  501  502 -0.00000000000E+00 -0.00000000000E+00 -0.17571317613E+04  0.17571317613E+04  0.00000000000E+00 0. -1.
         25    1    1    2    0    0 -0.85460781963E+02  0.95258579274E+02 -0.49620269980E+02  0.18564728216E+03  0.12500000000E+03 0.  0.
         25    1    1    2    0    0  0.16214298842E+03 -0.35262814118E+03 -0.46011489862E+03  0.61479075674E+03  0.12500000000E+03 0.  0.
         25    1    1    2    0    0 -0.76682206454E+02  0.25736956190E+03 -0.10821402898E+04  0.11219500252E+04  0.12500000000E+03 0.  0.
</event>
<event>
 5    0  0.5641283E-005  0.2207746E+03  0.7546771E-02  0.1133307E+00
         21   -1    0    0  502  501  0.00000000000E+00  0.00000000000E+00  0.45184968533E+02  0.45184968533E+02  0.00000000000E+00 0. -1.
         21   -1    0    0  501  502 -0.00000000000E+00 -0.00000000000E+00 -0.10787084108E+04  0.10787084108E+04  0.00000000000E+00 0. -1.
         25    1    1    2    0    0  0.79565690775E+02  0.30727764568E+02 -0.28999643950E+03  0.32710522709E+03  0.12500000000E+03 0.  0.
         25    1    1    2    0    0 -0.42854426126E+02 -0.26181696845E+02 -0.52792020188E+03  0.54483641824E+03  0.12500000000E+03 0.  0.
         25    1    1    2    0    0 -0.36711264648E+02 -0.45460677230E+01 -0.21560680093E+03  0.25195173405E+03  0.12500000000E+03 0.  0.
</event>
<event>
 5    0  0.5641283E-005  0.2654242E+03  0.7546771E-02  0.1103927E+00
         21   -1    0    0  502  501  0.00000000000E+00  0.00000000000E+00  0.83042296870E+03  0.83042296870E+03  0.00000000000E+00 0. -1.
         21   -1    0    0  501  502 -0.00000000000E+00 -0.00000000000E+00 -0.84836285789E+02  0.84836285789E+02  0.00000000000E+00 0. -1.
         25    1    1    2    0    0  0.15825769088E+03 -0.52945327364E+02  0.35075438870E+03  0.40804698946E+03  0.12500000000E+03 0.  0.
         25    1    1    2    0    0 -0.13844643216E+03  0.42092094463E+02  0.24474778096E+03  0.31058917444E+03  0.12500000000E+03 0.  0.
         25    1    1    2    0    0 -0.19811258729E+02  0.10853232901E+02  0.15008451326E+03  0.19662309060E+03  0.12500000000E+03 0.  0.
</event>
<event>
 5    0  0.5641283E-005  0.3218680E+03  0.7546771E-02  0.1074793E+00
         21   -1    0    0  502  501  0.00000000000E+00  0.00000000000E+00  0.80246477014E+03  0.80246477014E+03  0.00000000000E+00 0. -1.
         21   -1    0    0  501  502 -0.00000000000E+00 -0.00000000000E+00 -0.12910096912E+03  0.12910096912E+03  0.00000000000E+00 0. -1.
         25    1    1    2    0    0  0.71931686915E+02  0.48682290890E+02 -0.15359893644E+01  0.15222185222E+03  0.12500000000E+03 0.  0.
         25    1    1    2    0    0 -0.94695626255E+02 -0.26660213520E+02  0.94996277579E+02  0.18527633786E+03  0.12500000000E+03 0.  0.
         25    1    1    2    0    0  0.22763939340E+02 -0.22022077370E+02  0.57990351281E+03  0.59406754918E+03  0.12500000000E+03 0.  0.
</event>
<event>
 5    0  0.5641283E-005  0.3819313E+03  0.7546771E-02  0.1050222E+00
         21   -1    0    0  502  501  0.00000000000E+00  0.00000000000E+00  0.12912386578E+04  0.12912386578E+04  0.00000000000E+00 0.  1.
         21   -1    0    0  501  502 -0.00000000000E+00 -0.00000000000E+00 -0.11297021613E+03  0.11297021613E+03  0.00000000000E+00 0.  1.
         25    1    1    2    0    0  0.10333266963E+03 -0.25465783818E+03  0.55282769488E+03  0.62989817859E+03  0.12500000000E+03 0.  0.
         25    1    1    2    0    0 -0.79301834543E+02  0.20491446770E+03  0.57591016591E+03  0.62894851875E+03  0.12500000000E+03 0.  0.
         25    1    1    2    0    0 -0.24030835092E+02  0.49743370475E+02  0.49530580861E+02  0.14536217659E+03  0.12500000000E+03 0.  0.
</event>
<event>
 5    0  0.5641283E-005  0.2875969E+03  0.7546771E-02  0.1091611E+00
         21   -1    0    0  502  501  0.00000000000E+00  0.00000000000E+00  0.22232334469E+03  0.22232334469E+03  0.00000000000E+00 0.  1.
         21   -1    0    0  501  502 -0.00000000000E+00 -0.00000000000E+00 -0.37203453795E+03  0.37203453795E+03  0.00000000000E+00 0.  1.
         25    1    1    2    0    0 -0.10749350854E+03  0.15394367297E+02  0.11858444538E+03  0.20366421288E+03  0.12500000000E+03 0.  0.
         25    1    1    2    0    0  0.88156733382E+02  0.54785549003E+01 -0.17279240936E+03  0.23083292863E+03  0.12500000000E+03 0.  0.
         25    1    1    2    0    0  0.19336775159E+02 -0.20872922198E+02 -0.95503229265E+02  0.15986074113E+03  0.12500000000E+03 0.  0.
</event>
<event>
 5    0  0.5641283E-005  0.3395352E+03  0.7546771E-02  0.1066994E+00
         21   -1    0    0  502  501  0.00000000000E+00  0.00000000000E+00  0.12789965850E+04  0.12789965850E+04  0.00000000000E+00 0. -1.
         21   -1    0    0  501  502 -0.00000000000E+00 -0.00000000000E+00 -0.90136378041E+02  0.90136378041E+02  0.00000000000E+00 0. -1.
         25    1    1    2    0    0  0.17773495291E+02 -0.66592239536E+02  0.50163233513E+03  0.52154618506E+03  0.12500000000E+03 0.  0.
         25    1    1    2    0    0  0.12179620087E+02 -0.75703873559E+02  0.63091494158E+03  0.64773303384E+03  0.12500000000E+03 0.  0.
         25    1    1    2    0    0 -0.29953115379E+02  0.14229611309E+03  0.56312930206E+02  0.19985374410E+03  0.12500000000E+03 0.  0.
</event>
<event>
 5    0  0.5641283E-005  0.3548621E+03  0.7546771E-02  0.1060637E+00
         21   -1    0    0  502  501  0.00000000000E+00  0.00000000000E+00  0.52388716459E+03  0.52388716459E+03  0.00000000000E+00 0. -1.
         21   -1    0    0  501  502 -0.00000000000E+00 -0.00000000000E+00 -0.24037072656E+03  0.24037072656E+03  0.00000000000E+00 0. -1.
         25    1    1    2    0    0  0.46492806923E+02 -0.44098804997E+02  0.52013447311E+02  0.14978879931E+03  0.12500000000E+03 0.  0.
         25    1    1    2    0    0 -0.12678846406E+03 -0.73312311234E+01  0.36631995761E+03  0.40736270437E+03  0.12500000000E+03 0.  0.
         25    1    1    2    0    0  0.80295657136E+02  0.51430036120E+02 -0.13481696688E+03  0.20710638747E+03  0.12500000000E+03 0.  0.
</event>
<event>
 5    0  0.5641283E-005  0.3284041E+03  0.7546771E-02  0.1071845E+00
         21   -1    0    0  502  501  0.00000000000E+00  0.00000000000E+00  0.47591055330E+03  0.47591055330E+03  0.00000000000E+00 0.  1.
         21   -1    0    0  501  502 -0.00000000000E+00 -0.00000000000E+00 -0.22661664707E+03  0.22661664707E+03  0.00000000000E+00 0.  1.
         25    1    1    2    0    0 -0.97102088231E+02  0.39611631825E+02  0.35457186689E+03  0.39031283057E+03  0.12500000000E+03 0.  0.
         25    1    1    2    0    0  0.81459734335E+02 -0.69289996074E+02 -0.59286859099E+02  0.17486201284E+03  0.12500000000E+03 0.  0.
         25    1    1    2    0    0  0.15642353896E+02  0.29678364250E+02 -0.45991101564E+02  0.13735235696E+03  0.12500000000E+03 0.  0.
</event>
<event>
 5    0  0.5641283E-005  0.2731381E+03  0.7546771E-02  0.1099497E+00
         21   -1    0    0  502  501  0.00000000000E+00  0.00000000000E+00  0.95013363250E+03  0.95013363250E+03  0.00000000000E+00 0.  1.
         21   -1    0    0  501  502 -0.00000000000E+00 -0.00000000000E+00 -0.78519952965E+02  0.78519952965E+02  0.00000000000E+00 0.  1.
         25    1    1    2    0    0 -0.41242215696E+02 -0.69394398747E+02  0.14635432908E+03  0.20871294300E+03  0.12500000000E+03 0.  0.
         25    1    1    2    0    0  0.35686694969E+02 -0.10538128331E+03  0.30426507822E+03  0.34724773994E+03  0.12500000000E+03 0.  0.
         25    1    1    2    0    0  0.55555207274E+01  0.17477568206E+03  0.42099427223E+03  0.47269290253E+03  0.12500000000E+03 0.  0.
</event>
<event>
 5    0  0.5641283E-005  0.3522463E+03  0.7546771E-02  0.1061697E+00
         21   -1    0    0  502  501  0.00000000000E+00  0.00000000000E+00  0.91304342867E+02  0.91304342867E+02  0.00000000000E+00 0.  1.
         21   -1    0    0  501  502 -0.00000000000E+00 -0.00000000000E+00 -0.13589435850E+04  0.13589435850E+04  0.00000000000E+00 0.  1.
         25    1    1    2    0    0 -0.12228837632E+03  0.10216897793E+03 -0.38735830486E+03  0.43710914356E+03  0.12500000000E+03 0.  0.
         25    1    1    2    0    0 -0.38807122492E+02 -0.21697531930E+02 -0.74242425595E+03  0.75418535617E+03  0.12500000000E+03 0.  0.
         25    1    1    2    0    0  0.16109549882E+03 -0.80471446004E+02 -0.13785668134E+03  0.25895342815E+03  0.12500000000E+03 0.  0.
</event>
<event>
 5    0  0.5641283E-005  0.3014644E+03  0.7546771E-02  0.1084511E+00
         21   -1    0    0  502  501  0.00000000000E+00  0.00000000000E+00  0.54384896568E+03  0.54384896568E+03  0.00000000000E+00 0. -1.
         21   -1    0    0  501  502 -0.00000000000E+00 -0.00000000000E+00 -0.16710666186E+03  0.16710666186E+03  0.00000000000E+00 0. -1.
         25    1    1    2    0    0  0.60507806318E+02 -0.15388853705E+03 -0.18339777204E+02  0.20809666958E+03  0.12500000000E+03 0.  0.
         25    1    1    2    0    0 -0.62743481693E+01  0.48704467489E+02  0.13085658759E+03  0.18750983738E+03  0.12500000000E+03 0.  0.
         25    1    1    2    0    0 -0.54233458149E+02  0.10518406957E+03  0.26422549344E+03  0.31534912059E+03  0.12500000000E+03 0.  0.
</event>
<event>
 5    0  0.5641283E-005  0.3506309E+03  0.7546771E-02  0.1062356E+00
         21   -1    0    0  502  501  0.00000000000E+00  0.00000000000E+00  0.47391414269E+03  0.47391414269E+03  0.00000000000E+00 0. -1.
         21   -1    0    0  501  502 -0.00000000000E+00 -0.00000000000E+00 -0.25941836138E+03  0.25941836138E+03  0.00000000000E+00 0. -1.
         25    1    1    2    0    0  0.18827265243E+02  0.20952698968E+03 -0.10188770878E+03  0.26507004833E+03  0.12500000000E+03 0.  0.
         25    1    1    2    0    0  0.39889928291E+02 -0.12617312912E+03  0.14334193510E+03  0.23169543640E+03  0.12500000000E+03 0.  0.
         25    1    1    2    0    0 -0.58717193534E+02 -0.83353860556E+02  0.17304155499E+03  0.23656701934E+03  0.12500000000E+03 0.  0.
</event>
<event>
 5    0  0.5641283E-005  0.2423547E+03  0.7546771E-02  0.1118234E+00
         21   -1    0    0  502  501  0.00000000000E+00  0.00000000000E+00  0.80696287300E+02  0.80696287300E+02  0.00000000000E+00 0. -1.
         21   -1    0    0  501  502 -0.00000000000E+00 -0.00000000000E+00 -0.72786273183E+03  0.72786273183E+03  0.00000000000E+00 0. -1.
         25    1    1    2    0    0 -0.77413448619E+02 -0.50065151072E+02 -0.91012984883E+02  0.18002145649E+03  0.12500000000E+03 0.  0.
         25    1    1    2    0    0  0.14452120789E+02 -0.32553043167E+02 -0.26211255406E+03  0.29256889002E+03  0.12500000000E+03 0.  0.
         25    1    1    2    0    0  0.62961327829E+02  0.82618194238E+02 -0.29404090559E+03  0.33596867262E+03  0.12500000000E+03 0.  0.
</event>
<event>
 5    0  0.5641283E-005  0.4947738E+03  0.7546771E-02  0.1015152E+00
         21   -1    0    0  502  501  0.00000000000E+00  0.00000000000E+00  0.52672297274E+03  0.52672297274E+03  0.00000000000E+00 0.  1.
         21   -1    0    0  501  502 -0.00000000000E+00 -0.00000000000E+00 -0.46476253302E+03  0.46476253302E+03  0.00000000000E+00 0.  1.
         25    1    1    2    0    0 -0.12158579664E+03 -0.38490677290E+03  0.16157739236E+03  0.45240312056E+03  0.12500000000E+03 0.  0.
         25    1    1    2    0    0 -0.23698110140E+02  0.25553334481E+03  0.44963707938E+01  0.28548924337E+03  0.12500000000E+03 0.  0.
         25    1    1    2    0    0  0.14528390678E+03  0.12937342810E+03 -0.10411332343E+03  0.25359314183E+03  0.12500000000E+03 0.  0.
</event>
<event>
 5    0  0.5641283E-005  0.3389967E+03  0.7546771E-02  0.1067224E+00
         21   -1    0    0  502  501  0.00000000000E+00  0.00000000000E+00  0.26107905510E+03  0.26107905510E+03  0.00000000000E+00 0. -1.
         21   -1    0    0  501  502 -0.00000000000E+00 -0.00000000000E+00 -0.44016844407E+03  0.44016844407E+03  0.00000000000E+00 0. -1.
         25    1    1    2    0    0  0.12086972679E+03 -0.84444855389E+02 -0.13181303765E+03  0.23396602606E+03  0.12500000000E+03 0.  0.
         25    1    1    2    0    0  0.83243514795E+01  0.20766661716E+03  0.71903769848E+01  0.24263433440E+03  0.12500000000E+03 0.  0.
         25    1    1    2    0    0 -0.12919407827E+03 -0.12322176177E+03 -0.54466728296E+02  0.22464713870E+03  0.12500000000E+03 0.  0.
</event>
<event>
 5    0  0.6506944E-005  0.3267339E+03  0.7546771E-02  0.1072591E+00
         21   -1    0    0  502  501  0.00000000000E+00  0.00000000000E+00  0.48907110501E+03  0.48907110501E+03  0.00000000000E+00 0.  1.
         21   -1    0    0  501  502 -0.00000000000E+00 -0.00000000000E+00 -0.21828128169E+03  0.21828128169E+03  0.00000000000E+00 0.  1.
         25    1    1    2    0    0 -0.16849062538E+03  0.94762081371E+01 -0.32666081701E+02  0.21253461425E+03  0.12500000000E+03 0.  0.
         25    1    1    2    0    0  0.18240859650E+03 -0.17924423513E+02  0.75534616717E+02  0.23436010616E+03  0.12500000000E+03 0.  0.
         25    1    1    2    0    0 -0.13917971120E+02  0.84482153760E+01  0.22792128831E+03  0.26045766629E+03  0.12500000000E+03 0.  0.
</event>
<event>
 5    0  0.5641283E-005  0.2967601E+03  0.7546771E-02  0.1086872E+00
         21   -1    0    0  502  501  0.00000000000E+00  0.00000000000E+00  0.79293193191E+03  0.79293193191E+03  0.00000000000E+00 0.  1.
         21   -1    0    0  501  502 -0.00000000000E+00 -0.00000000000E+00 -0.11106443101E+03  0.11106443101E+03  0.00000000000E+00 0.  1.
         25    1    1    2    0    0 -0.91140865184E+02 -0.68852014890E+01  0.14937948860E+03  0.21515876678E+03  0.12500000000E+03 0.  0.
         25    1    1    2    0    0 -0.40324724903E+02 -0.13645897131E+03  0.33470914911E+03  0.38458074417E+03  0.12500000000E+03 0.  0.
         25    1    1    2    0    0  0.13146559009E+03  0.14334417280E+03  0.19777886319E+03  0.30425685198E+03  0.12500000000E+03 0.  0.
</event>
<event>
 5    0  0.5641283E-005  0.4287130E+03  0.7546771E-02  0.1034267E+00
         21   -1    0    0  502  501  0.00000000000E+00  0.00000000000E+00  0.26207428942E+04  0.26207428942E+04  0.00000000000E+00 0.  1.
         21   -1    0    0  501  502 -0.00000000000E+00 -0.00000000000E+00 -0.70130825814E+02  0.70130825814E+02  0.00000000000E+00 0.  1.
         25    1    1    2    0    0  0.25613625091E+03  0.12029816255E+03  0.15790193773E+04  0.16090384149E+04  0.12500000000E+03 0.  0.
         25    1    1    2    0    0 -0.84071005317E+02 -0.18771588470E+03  0.62390747338E+03  0.66872320331E+03  0.12500000000E+03 0.  0.
         25    1    1    2    0    0 -0.17206524559E+03  0.67417722155E+02  0.34768521776E+03  0.41311210180E+03  0.12500000000E+03 0.  0.
</event>
<event>
 5    0  0.5641283E-005  0.2943332E+03  0.7546771E-02  0.1088108E+00
         21   -1    0    0  502  501  0.00000000000E+00  0.00000000000E+00  0.11620868257E+04  0.11620868257E+04  0.00000000000E+00 0.  1.
         21   -1    0    0  501  502 -0.00000000000E+00 -0.00000000000E+00 -0.74548663598E+02  0.74548663598E+02  0.00000000000E+00 0.  1.
         25    1    1    2    0    0 -0.19990320014E+03 -0.94428549940E+02  0.44417529685E+03  0.51165880702E+03  0.12500000000E+03 0.  0.
         25    1    1    2    0    0  0.92718669424E+02  0.42763377804E+02  0.29839215042E+03  0.33924671490E+03  0.12500000000E+03 0.  0.
         25    1    1    2    0    0  0.10718453071E+03  0.51665172136E+02  0.34497071480E+03  0.38572996734E+03  0.12500000000E+03 0.  0.
</event>
<event>
 5    0  0.5641283E-005  0.2768652E+03  0.7546771E-02  0.1097414E+00
         21   -1    0    0  502  501  0.00000000000E+00  0.00000000000E+00  0.24769307044E+03  0.24769307044E+03  0.00000000000E+00 0. -1.
         21   -1    0    0  501  502 -0.00000000000E+00 -0.00000000000E+00 -0.30947300562E+03  0.30947300562E+03  0.00000000000E+00 0. -1.
         25    1    1    2    0    0 -0.28381013791E+02  0.89641633464E+02  0.97481855701E+02  0.18430631184E+03  0.12500000000E+03 0.  0.
         25    1    1    2    0    0 -0.71502014889E+02 -0.72681365155E+01 -0.12245429288E+03  0.18917034066E+03  0.12500000000E+03 0.  0.
         25    1    1    2    0    0  0.99883028680E+02 -0.82373496949E+02 -0.36807498009E+02  0.18368942356E+03  0.12500000000E+03 0.  0.
</event>
<event>
 5    0  0.5641283E-005  0.4163787E+03  0.7546771E-02  0.1038251E+00
         21   -1    0    0  502  501  0.00000000000E+00  0.00000000000E+00  0.59899655275E+03  0.59899655275E+03  0.00000000000E+00 0.  1.
         21   -1    0    0  501  502 -0.00000000000E+00 -0.00000000000E+00 -0.28943610882E+03  0.28943610882E+03  0.00000000000E+00 0.  1.
         25    1    1    2    0    0 -0.12568100287E+02 -0.36241670334E+02 -0.11359227874E+03  0.17320398842E+03  0.12500000000E+03 0.  0.
         25    1    1    2    0    0 -0.20020225677E+03  0.12585103107E+03  0.35408584712E+03  0.44375805656E+03  0.12500000000E+03 0.  0.
         25    1    1    2    0    0  0.21277035706E+03 -0.89609360732E+02  0.69066875547E+02  0.27147061659E+03  0.12500000000E+03 0.  0.
</event>
<event>
 5    0  0.5641283E-005  0.4533052E+03  0.7546771E-02  0.1026741E+00
         21   -1    0    0  502  501  0.00000000000E+00  0.00000000000E+00  0.41114430592E+03  0.41114430592E+03  0.00000000000E+00 0. -1.
         21   -1    0    0  501  502 -0.00000000000E+00 -0.00000000000E+00 -0.49978959332E+03  0.49978959332E+03  0.00000000000E+00 0. -1.
         25    1    1    2    0    0 -0.28249934303E+03  0.21345393162E+03 -0.20812832614E+03  0.42931440679E+03  0.12500000000E+03 0.  0.
         25    1    1    2    0    0  0.15110952013E+03 -0.11850585042E+03 -0.25825679633E+02  0.23058553595E+03  0.12500000000E+03 0.  0.
         25    1    1    2    0    0  0.13138982290E+03 -0.94948081193E+02  0.14530871836E+03  0.25103395650E+03  0.12500000000E+03 0.  0.
</event>
<event>
 5    0  0.5641283E-005  0.3403511E+03  0.7546771E-02  0.1066647E+00
         21   -1    0    0  502  501  0.00000000000E+00  0.00000000000E+00  0.74129253406E+03  0.74129253406E+03  0.00000000000E+00 0.  1.
         21   -1    0    0  501  502 -0.00000000000E+00 -0.00000000000E+00 -0.15626603019E+03  0.15626603019E+03  0.00000000000E+00 0.  1.
         25    1    1    2    0    0 -0.93680360365E+02 -0.20498211484E+03  0.30685085337E+03  0.40071950731E+03  0.12500000000E+03 0.  0.
         25    1    1    2    0    0  0.92215145868E+02  0.22815044965E+03  0.23521503948E+03  0.36263945676E+03  0.12500000000E+03 0.  0.
         25    1    1    2    0    0  0.14652144966E+01 -0.23168334806E+02  0.42960611015E+02  0.13419960019E+03  0.12500000000E+03 0.  0.
</event>
<event>
 5    0  0.5641283E-005  0.3299840E+03  0.7546771E-02  0.1071144E+00
         21   -1    0    0  502  501  0.00000000000E+00  0.00000000000E+00  0.99571928092E+03  0.99571928092E+03  0.00000000000E+00 0.  1.
         21   -1    0    0  501  502 -0.00000000000E+00 -0.00000000000E+00 -0.10935755366E+03  0.10935755366E+03  0.00000000000E+00 0.  1.
         25    1    1    2    0    0  0.20749048391E+03  0.95406804328E+02  0.37169364792E+03  0.45380163852E+03  0.12500000000E+03 0.  0.
         25    1    1    2    0    0  0.16438421695E+02 -0.32765985654E+02  0.12453544145E+03  0.18021628035E+03  0.12500000000E+03 0.  0.
         25    1    1    2    0    0 -0.22392890560E+03 -0.62640818674E+02  0.39013263789E+03  0.47105891572E+03  0.12500000000E+03 0.  0.
</event>
<event>
 5    0  0.5641283E-005  0.3651317E+03  0.7546771E-02  0.1056570E+00
         21   -1    0    0  502  501  0.00000000000E+00  0.00000000000E+00  0.26929369561E+03  0.26929369561E+03  0.00000000000E+00 0. -1.
         21   -1    0    0  501  502 -0.00000000000E+00 -0.00000000000E+00 -0.49507708678E+03  0.49507708678E+03  0.00000000000E+00 0. -1.
         25    1    1    2    0    0  0.17354568942E+03 -0.55922327965E+02 -0.11021460144E+02  0.22134110704E+03  0.12500000000E+03 0.  0.
         25    1    1    2    0    0  0.58237456484E+02  0.15548089312E+03 -0.14370194522E+03  0.25266807975E+03  0.12500000000E+03 0.  0.
         25    1    1    2    0    0 -0.23178314590E+03 -0.99558565155E+02 -0.71059985797E+02  0.29036159560E+03  0.12500000000E+03 0.  0.
</event>
<event>
 5    0  0.5641283E-005  0.3652494E+03  0.7546771E-02  0.1056524E+00
         21   -1    0    0  502  501  0.00000000000E+00  0.00000000000E+00  0.13719977721E+03  0.13719977721E+03  0.00000000000E+00 0. -1.
         21   -1    0    0  501  502 -0.00000000000E+00 -0.00000000000E+00 -0.97235656825E+03  0.97235656825E+03  0.00000000000E+00 0. -1.
         25    1    1    2    0    0 -0.58922923551E+02  0.90180366302E+02 -0.76005307970E+02  0.18167613004E+03  0.12500000000E+03 0.  0.
         25    1    1    2    0    0 -0.13562252501E+03  0.82435186572E+02 -0.50289631504E+03  0.54195823912E+03  0.12500000000E+03 0.  0.
         25    1    1    2    0    0  0.19454544856E+03 -0.17261555287E+03 -0.25625516803E+03  0.38592197630E+03  0.12500000000E+03 0.  0.
</event>
<event>
 5    0  0.5641283E-005  0.3536782E+03  0.7546771E-02  0.1061115E+00
         21   -1    0    0  502  501  0.00000000000E+00  0.00000000000E+00  0.18014867680E+03  0.18014867680E+03  0.00000000000E+00 0.  1.
         21   -1    0    0  501  502 -0.00000000000E+00 -0.00000000000E+00 -0.69436126533E+03  0.69436126533E+03  0.00000000000E+00 0.  1.
         25    1    1    2    0    0  0.15750036712E+03 -0.20466274881E+01 -0.42060805008E+00  0.20108637755E+03  0.12500000000E+03 0.  0.
         25    1    1    2    0    0 -0.21297004513E+03  0.81616034981E+02 -0.40533556859E+03  0.48160081027E+03  0.12500000000E+03 0.  0.
         25    1    1    2    0    0  0.55469678017E+02 -0.79569407493E+02 -0.10845641189E+03  0.19182275430E+03  0.12500000000E+03 0.  0.
</event>
<event>
 5    0  0.5641283E-005  0.3091314E+03  0.7546771E-02  0.1080763E+00
         21   -1    0    0  502  501  0.00000000000E+00  0.00000000000E+00  0.13247972813E+04  0.13247972813E+04  0.00000000000E+00 0.  1.
         21   -1    0    0  501  502 -0.00000000000E+00 -0.00000000000E+00 -0.72133447838E+02  0.72133447838E+02  0.00000000000E+00 0.  1.
         25    1    1    2    0    0  0.77380803978E+02  0.30960748160E+02  0.31684492327E+03  0.35065946751E+03  0.12500000000E+03 0.  0.
         25    1    1    2    0    0 -0.20224175986E+03 -0.11181946273E+03  0.64559466484E+03  0.69700989444E+03  0.12500000000E+03 0.  0.
         25    1    1    2    0    0  0.12486095588E+03  0.80858714568E+02  0.29022424538E+03  0.34926136722E+03  0.12500000000E+03 0.  0.
</event>
<event>
 5    0  0.5641283E-005  0.5730193E+03  0.7546771E-02  0.9963020E-01
         21   -1    0    0  502  501  0.00000000000E+00  0.00000000000E+00  0.41028853328E+03  0.41028853328E+03  0.00000000000E+00 0. -1.
         21   -1    0    0  501  502 -0.00000000000E+00 -0.00000000000E+00 -0.80029317053E+03  0.80029317053E+03  0.00000000000E+00 0. -1.
         25    1    1    2    0    0 -0.11180362823E+03  0.59125476547E+01 -0.22872732252E+03  0.28368326981E+03  0.12500000000E+03 0.  0.
         25    1    1    2    0    0 -0.33023461410E+03 -0.20561248834E+03 -0.33611233415E+02  0.40998306151E+03  0.12500000000E+03 0.  0.
         25    1    1    2    0    0  0.44203824233E+03  0.19969994069E+03 -0.12766608133E+03  0.51691537249E+03  0.12500000000E+03 0.  0.
</event>
<event>
 5    0  0.5641283E-005  0.2845397E+03  0.7546771E-02  0.1093235E+00
         21   -1    0    0  502  501  0.00000000000E+00  0.00000000000E+00  0.98397308481E+03  0.98397308481E+03  0.00000000000E+00 0. -1.
         21   -1    0    0  501  502 -0.00000000000E+00 -0.00000000000E+00 -0.82281555846E+02  0.82281555846E+02  0.00000000000E+00 0. -1.
         25    1    1    2    0    0  0.11313881659E+03 -0.11169713875E+03  0.44941876735E+03  0.49282742524E+03  0.12500000000E+03 0.  0.
         25    1    1    2    0    0 -0.10661378583E+03 -0.25979440228E+02  0.20621304641E+03  0.26493442802E+03  0.12500000000E+03 0.  0.
         25    1    1    2    0    0 -0.65250307612E+01  0.13767657898E+03  0.24605971521E+03  0.30849278739E+03  0.12500000000E+03 0.  0.
</event>
<event>
 5    0  0.5641283E-005  0.2196814E+03  0.7546771E-02  0.1134121E+00
         21   -1    0    0  502  501  0.00000000000E+00  0.00000000000E+00  0.41856630286E+03  0.41856630286E+03  0.00000000000E+00 0.  1.
         21   -1    0    0  501  502 -0.00000000000E+00 -0.00000000000E+00 -0.11529817900E+03  0.11529817900E+03  0.00000000000E+00 0.  1.
         25    1    1    2    0    0  0.34870756102E+02  0.20900424391E+02  0.10853809705E+03  0.17046499899E+03  0.12500000000E+03 0.  0.
         25    1    1    2    0    0 -0.50000457771E+02 -0.93348933618E+01  0.45585822756E+01  0.13502950301E+03  0.12500000000E+03 0.  0.
         25    1    1    2    0    0  0.15129701669E+02 -0.11565531029E+02  0.19017144454E+03  0.22836997985E+03  0.12500000000E+03 0.  0.
</event>
<event>
 5    0  0.6846233E-005  0.3497917E+03  0.7546771E-02  0.1062701E+00
         21   -1    0    0  502  501  0.00000000000E+00  0.00000000000E+00  0.63885847586E+03  0.63885847586E+03  0.00000000000E+00 0. -1.
         21   -1    0    0  501  502 -0.00000000000E+00 -0.00000000000E+00 -0.19152005947E+03  0.19152005947E+03  0.00000000000E+00 0. -1.
         25    1    1    2    0    0  0.74067166800E+02  0.44915998858E+02 -0.50223631889E+02  0.16015868803E+03  0.12500000000E+03 0.  0.
         25    1    1    2    0    0 -0.89568081101E+02  0.13764511939E+03  0.34150588518E+03  0.39902367054E+03  0.12500000000E+03 0.  0.
         25    1    1    2    0    0  0.15500914301E+02 -0.18256111825E+03  0.15605616310E+03  0.27119617675E+03  0.12500000000E+03 0.  0.
</event>
<event>
 5    0  0.5641283E-005  0.2335400E+03  0.7546771E-02  0.1124173E+00
         21   -1    0    0  502  501  0.00000000000E+00  0.00000000000E+00  0.14736847887E+03  0.14736847887E+03  0.00000000000E+00 0. -1.
         21   -1    0    0  501  502 -0.00000000000E+00 -0.00000000000E+00 -0.37009906864E+03  0.37009906864E+03  0.00000000000E+00 0. -1.
         25    1    1    2    0    0 -0.32456324537E+00 -0.71203793825E+02 -0.10601049577E+03  0.17869893903E+03  0.12500000000E+03 0.  0.
         25    1    1    2    0    0 -0.66960440758E+02  0.31811839306E+02 -0.12432143424E+03  0.19124986996E+03  0.12500000000E+03 0.  0.
         25    1    1    2    0    0  0.67285004004E+02  0.39391954519E+02  0.76013402393E+01  0.14751873853E+03  0.12500000000E+03 0.  0.
</event>
<event>
 5    0  0.5641283E-005  0.2175475E+03  0.7546771E-02  0.1135725E+00
         21   -1    0    0  502  501  0.00000000000E+00  0.00000000000E+00  0.30368965677E+03  0.30368965677E+03  0.00000000000E+00 0.  1.
         21   -1    0    0  501  502 -0.00000000000E+00 -0.00000000000E+00 -0.15583973546E+03  0.15583973546E+03  0.00000000000E+00 0.  1.
         25    1    1    2    0    0  0.19060431639E+02  0.10021407128E+02 -0.30952515781E+02  0.13056334435E+03  0.12500000000E+03 0.  0.
         25    1    1    2    0    0 -0.42206275887E+02 -0.47015079884E+01  0.14746973075E+03  0.19792876342E+03  0.12500000000E+03 0.  0.
         25    1    1    2    0    0  0.23145844248E+02 -0.53198991396E+01  0.31332706336E+02  0.13103728446E+03  0.12500000000E+03 0.  0.
</event>
<event>
 5    0  0.6464510E-005  0.2667940E+03  0.7546771E-02  0.1103129E+00
         21   -1    0    0  502  501  0.00000000000E+00  0.00000000000E+00  0.42086845978E+03  0.42086845978E+03  0.00000000000E+00 0. -1.
         21   -1    0    0  501  502 -0.00000000000E+00 -0.00000000000E+00 -0.16912424680E+03  0.16912424680E+03  0.00000000000E+00 0. -1.
         25    1    1    2    0    0  0.36253412944E+01 -0.73910136533E+02  0.15911457668E+03  0.21544906566E+03  0.12500000000E+03 0.  0.
         25    1    1    2    0    0 -0.77975245024E+02  0.45649810786E+02 -0.56563369096E+02  0.16428164470E+03  0.12500000000E+03 0.  0.
         25    1    1    2    0    0  0.74349903730E+02  0.28260325747E+02  0.14919300540E+03  0.21026199622E+03  0.12500000000E+03 0.  0.
</event>
<event>
 5    0  0.5641283E-005  0.4233285E+03  0.7546771E-02  0.1035988E+00
         21   -1    0    0  502  501  0.00000000000E+00  0.00000000000E+00  0.31597668909E+03  0.31597668909E+03  0.00000000000E+00 0. -1.
         21   -1    0    0  501  502 -0.00000000000E+00 -0.00000000000E+00 -0.56715262888E+03  0.56715262888E+03  0.00000000000E+00 0. -1.
         25    1    1    2    0    0  0.73494097046E+01 -0.90574472434E+02 -0.41731092371E+03  0.44500691671E+03  0.12500000000E+03 0.  0.
         25    1    1    2    0    0  0.13541054438E+02 -0.59666106867E+01 -0.76914170857E+02  0.14751186487E+03  0.12500000000E+03 0.  0.
         25    1    1    2    0    0 -0.20890464143E+02  0.96541083121E+02  0.24304915478E+03  0.29061053639E+03  0.12500000000E+03 0.  0.
</event>
<event>
 5    0  0.6675234E-005  0.2983175E+03  0.7546771E-02  0.1086085E+00
         21   -1    0    0  502  501  0.00000000000E+00  0.00000000000E+00  0.42376914090E+03  0.42376914090E+03  0.00000000000E+00 0. -1.
         21   -1    0    0  501  502 -0.00000000000E+00 -0.00000000000E+00 -0.21000421725E+03  0.21000421725E+03  0.00000000000E+00 0. -1.
         25    1    1    2    0    0  0.18212480477E+03 -0.66300154172E+02  0.29684420432E+02  0.23253240585E+03  0.12500000000E+03 0.  0.
         25    1    1    2    0    0 -0.15746945836E+03  0.34032937342E+02  0.42943616682E+02  0.20838432128E+03  0.12500000000E+03 0.  0.
         25    1    1    2    0    0 -0.24655346411E+02  0.32267216830E+02  0.14113688653E+03  0.19285663102E+03  0.12500000000E+03 0.  0.
</event>
<event>
 5    0  0.5641283E-005  0.3133085E+03  0.7546771E-02  0.1078771E+00
         21   -1    0    0  502  501  0.00000000000E+00  0.00000000000E+00  0.34934530356E+03  0.34934530356E+03  0.00000000000E+00 0.  1.
         21   -1    0    0  501  502 -0.00000000000E+00 -0.00000000000E+00 -0.28098901784E+03  0.28098901784E+03  0.00000000000E+00 0.  1.
         25    1    1    2    0    0 -0.16617912664E+03  0.98977975886E+02 -0.10007970803E+02  0.23051529520E+03  0.12500000000E+03 0.  0.
         25    1    1    2    0    0  0.29260895292E+00 -0.11055123474E+03  0.93419688676E+02  0.19124303740E+03  0.12500000000E+03 0.  0.
         25    1    1    2    0    0  0.16588651768E+03  0.11573258850E+02 -0.15055432156E+02  0.20857598881E+03  0.12500000000E+03 0.  0.
</event>
<event>
 5    0  0.5641283E-005  0.4457995E+03  0.7546771E-02  0.1028982E+00
         21   -1    0    0  502  501  0.00000000000E+00  0.00000000000E+00  0.12424561715E+04  0.12424561715E+04  0.00000000000E+00 0. -1.
         21   -1    0    0  501  502 -0.00000000000E+00 -0.00000000000E+00 -0.15995512448E+03  0.15995512448E+03  0.00000000000E+00 0. -1.
         25    1    1    2    0    0  0.32608010424E+02 -0.18320376873E+03  0.59493664593E+03  0.63576844519E+03  0.12500000000E+03 0.  0.
         25    1    1    2    0    0 -0.22847566670E+03 -0.25534571538E+02  0.13107582224E+03  0.29267561530E+03  0.12500000000E+03 0.  0.
         25    1    1    2    0    0  0.19586765627E+03  0.20873834027E+03  0.35648857888E+03  0.47396723552E+03  0.12500000000E+03 0.  0.
</event>
<event>
 5    0  0.5641283E-005  0.2887064E+03  0.7546771E-02  0.1091026E+00
         21   -1    0    0  502  501  0.00000000000E+00  0.00000000000E+00  0.92226216780E+02  0.92226216780E+02  0.00000000000E+00 0.  1.
         21   -1    0    0  501  502 -0.00000000000E+00 -0.00000000000E+00 -0.90377133015E+03  0.90377133015E+03  0.00000000000E+00 0.  1.
         25    1    1    2    0    0  0.27863289035E+02  0.15573782275E+03 -0.27199408140E+03  0.33857999443E+03  0.12500000000E+03 0.  0.
         25    1    1    2    0    0 -0.95614197588E+02  0.57553202878E+01 -0.26940793663E+03  0.31205902456E+03  0.12500000000E+03 0.  0.
         25    1    1    2    0    0  0.67750908554E+02 -0.16149314304E+03 -0.27014309535E+03  0.34535852794E+03  0.12500000000E+03 0.  0.
</event>
<event>
 5    0  0.6066540E-005  0.4123061E+03  0.7546771E-02  0.1039600E+00
         21   -1    0    0  502  501  0.00000000000E+00  0.00000000000E+00  0.44666995530E+03  0.44666995530E+03  0.00000000000E+00 0. -1.
         21   -1    0    0  501  502 -0.00000000000E+00 -0.00000000000E+00 -0.38058593308E+03  0.38058593308E+03  0.00000000000E+00 0. -1.
         25    1    1    2    0    0  0.34825249507E+02 -0.64408385901E+02  0.27409866040E+03  0.31002631148E+03  0.12500000000E+03 0.  0.
         25    1    1    2    0    0  0.16614230205E+03 -0.42900475163E+02 -0.73810332130E+02  0.22475916095E+03  0.12500000000E+03 0.  0.
         25    1    1    2    0    0 -0.20096755156E+03  0.10730886106E+03 -0.13420430605E+03  0.29247041595E+03  0.12500000000E+03 0.  0.
</event>
<event>
 5    0  0.5641283E-005  0.3127118E+03  0.7546771E-02  0.1079053E+00
         21   -1    0    0  502  501  0.00000000000E+00  0.00000000000E+00  0.15189406053E+04  0.15189406053E+04  0.00000000000E+00 0. -1.
         21   -1    0    0  501  502 -0.00000000000E+00 -0.00000000000E+00 -0.64379532662E+02  0.64379532662E+02  0.00000000000E+00 0. -1.
         25    1    1    2    0    0  0.46773750727E+02  0.99204610347E+02  0.43604272380E+03  0.46667718548E+03  0.12500000000E+03 0.  0.
         25    1    1    2    0    0  0.12949585200E+03  0.38995587263E+02  0.58087368021E+03  0.60936775749E+03  0.12500000000E+03 0.  0.
         25    1    1    2    0    0 -0.17626960273E+03 -0.13820019761E+03  0.43764466861E+03  0.50727519496E+03  0.12500000000E+03 0.  0.
</event>
<event>
 5    0  0.5641283E-005  0.3108991E+03  0.7546771E-02  0.1079916E+00
         21   -1    0    0  502  501  0.00000000000E+00  0.00000000000E+00  0.70665436875E+02  0.70665436875E+02  0.00000000000E+00 0. -1.
         21   -1    0    0  501  502 -0.00000000000E+00 -0.00000000000E+00 -0.13678288199E+04  0.13678288199E+04  0.00000000000E+00 0. -1.
         25    1    1    2    0    0 -0.14673742783E+02  0.12085925883E+02 -0.91631467552E+03  0.92499674211E+03  0.12500000000E+03 0.  0.
         25    1    1    2    0    0 -0.61228870610E+02 -0.64338042976E+02 -0.75483426225E+02  0.17091256831E+03  0.12500000000E+03 0.  0.
         25    1    1    2    0    0  0.75902613394E+02  0.52252117093E+02 -0.30536528124E+03  0.34258494632E+03  0.12500000000E+03 0.  0.
</event>
<event>
 5    0  0.5641283E-005  0.2451979E+03  0.7546771E-02  0.1116378E+00
         21   -1    0    0  502  501  0.00000000000E+00  0.00000000000E+00  0.94740190335E+03  0.94740190335E+03  0.00000000000E+00 0. -1.
         21   -1    0    0  501  502 -0.00000000000E+00 -0.00000000000E+00 -0.63459868629E+02  0.63459868629E+02  0.00000000000E+00 0. -1.
         25    1    1    2    0    0 -0.38864972279E+02 -0.16087677229E+02  0.46728289892E+03  0.48553847124E+03  0.12500000000E+03 0.  0.
         25    1    1    2    0    0  0.10273398758E+02  0.10464081139E+03  0.23132500109E+03  0.28318103443E+03  0.12500000000E+03 0.  0.
         25    1    1    2    0    0  0.28591573522E+02 -0.88553134160E+02  0.18533413471E+03  0.24214226631E+03  0.12500000000E+03 0.  0.
</event>
<event>
 5    0  0.5641283E-005  0.3887567E+03  0.7546771E-02  0.1047744E+00
         21   -1    0    0  502  501  0.00000000000E+00  0.00000000000E+00  0.75743956787E+03  0.75743956787E+03  0.00000000000E+00 0.  1.
         21   -1    0    0  501  502 -0.00000000000E+00 -0.00000000000E+00 -0.19952978138E+03  0.19952978138E+03  0.00000000000E+00 0.  1.
         25    1    1    2    0    0  0.75018371272E+02  0.42977806657E+02  0.11728917960E+03  0.19198072702E+03  0.12500000000E+03 0.  0.
         25    1    1    2    0    0 -0.30545330936E+03 -0.82716933947E+02  0.34107401863E+03  0.48176789178E+03  0.12500000000E+03 0.  0.
         25    1    1    2    0    0  0.23043493808E+03  0.39739127289E+02  0.99546588261E+02  0.28322073046E+03  0.12500000000E+03 0.  0.
</event>
<event>
 5    0  0.8574835E-005  0.7667294E+03  0.7546771E-02  0.9609464E-01
         21   -1    0    0  502  501  0.00000000000E+00  0.00000000000E+00  0.37670922226E+03  0.37670922226E+03  0.00000000000E+00 0. -1.
         21   -1    0    0  501  502 -0.00000000000E+00 -0.00000000000E+00 -0.15605509906E+04  0.15605509906E+04  0.00000000000E+00 0. -1.
         25    1    1    2    0    0  0.39299539574E+03  0.51378800303E+02 -0.63275524538E+02  0.42037358885E+03  0.12500000000E+03 0.  0.
         25    1    1    2    0    0 -0.12834929036E+03 -0.38831197994E+03 -0.15803094895E+03  0.45591503038E+03  0.12500000000E+03 0.  0.
         25    1    1    2    0    0 -0.26464610538E+03  0.33693317964E+03 -0.96253529487E+03  0.10609715936E+04  0.12500000000E+03 0.  0.
</event>
<event>
 5    0  0.5641283E-005  0.3825161E+03  0.7546771E-02  0.1050008E+00
         21   -1    0    0  502  501  0.00000000000E+00  0.00000000000E+00  0.25965211520E+03  0.25965211520E+03  0.00000000000E+00 0. -1.
         21   -1    0    0  501  502 -0.00000000000E+00 -0.00000000000E+00 -0.56351757827E+03  0.56351757827E+03  0.00000000000E+00 0. -1.
         25    1    1    2    0    0 -0.34233479480E+02 -0.14452127319E+03 -0.21196559012E+03  0.28742432207E+03  0.12500000000E+03 0.  0.
         25    1    1    2    0    0  0.13159719192E+03 -0.11169064510E+03 -0.97703885355E+02  0.23444332009E+03  0.12500000000E+03 0.  0.
         25    1    1    2    0    0 -0.97363712437E+02  0.25621191828E+03  0.58040124026E+01  0.30130205132E+03  0.12500000000E+03 0.  0.
</event>
<event>
 5    0  0.5733552E-005  0.2670945E+03  0.7546771E-02  0.1102954E+00
         21   -1    0    0  502  501  0.00000000000E+00  0.00000000000E+00  0.83389873499E+03  0.83389873499E+03  0.00000000000E+00 0. -1.
         21   -1    0    0  501  502 -0.00000000000E+00 -0.00000000000E+00 -0.85549292728E+02  0.85549292728E+02  0.00000000000E+00 0. -1.
         25    1    1    2    0    0 -0.98207966133E+01  0.49107343922E+02  0.21550738758E+03  0.25411889614E+03  0.12500000000E+03 0.  0.
         25    1    1    2    0    0 -0.69601186328E+02 -0.10947913563E+03  0.10487514326E+03  0.20845575538E+03  0.12500000000E+03 0.  0.
         25    1    1    2    0    0  0.79421982942E+02  0.60371791711E+02  0.42796691143E+03  0.45687337621E+03  0.12500000000E+03 0.  0.
</event>
<event>
 5    0  0.5641283E-005  0.2221615E+03  0.7546771E-02  0.1132282E+00
         21   -1    0    0  502  501  0.00000000000E+00  0.00000000000E+00  0.12637527301E+03  0.12637527301E+03  0.00000000000E+00 0. -1.
         21   -1    0    0  501  502 -0.00000000000E+00 -0.00000000000E+00 -0.39054908319E+03  0.39054908319E+03  0.00000000000E+00 0. -1.
         25    1    1    2    0    0 -0.29323362872E+02 -0.41649690876E+02 -0.15345338410E+02  0.13584931274E+03  0.12500000000E+03 0.  0.
         25    1    1    2    0    0  0.71014180606E+02 -0.10005772395E+02 -0.15281382267E+03  0.21004807480E+03  0.12500000000E+03 0.  0.
         25    1    1    2    0    0 -0.41690817734E+02  0.51655463271E+02 -0.96014649092E+02  0.17102696866E+03  0.12500000000E+03 0.  0.
</event>
<event>
 5    0  0.5641283E-005  0.3191311E+03  0.7546771E-02  0.1076050E+00
         21   -1    0    0  502  501  0.00000000000E+00  0.00000000000E+00  0.42214966618E+03  0.42214966618E+03  0.00000000000E+00 0.  1.
         21   -1    0    0  501  502 -0.00000000000E+00 -0.00000000000E+00 -0.24125254460E+03  0.24125254460E+03  0.00000000000E+00 0.  1.
         25    1    1    2    0    0 -0.45909632204E+02 -0.12942840586E+03  0.10311271198E+03  0.21240677471E+03  0.12500000000E+03 0.  0.
         25    1    1    2    0    0  0.18159532701E+03  0.30084720918E+02  0.92459441866E+02  0.24094750801E+03  0.12500000000E+03 0.  0.
         25    1    1    2    0    0 -0.13568569481E+03  0.99343684940E+02 -0.14675032259E+02  0.21004792807E+03  0.12500000000E+03 0.  0.
</event>
<event>
 5    0  0.5641283E-005  0.2490749E+03  0.7546771E-02  0.1113891E+00
         21   -1    0    0  502  501  0.00000000000E+00  0.00000000000E+00  0.50402821459E+02  0.50402821459E+02  0.00000000000E+00 0.  1.
         21   -1    0    0  501  502 -0.00000000000E+00 -0.00000000000E+00 -0.12308500330E+04  0.12308500330E+04  0.00000000000E+00 0.  1.
         25    1    1    2    0    0  0.17184254575E+02 -0.52715987344E+02 -0.21128707688E+03  0.25167737837E+03  0.12500000000E+03 0.  0.
         25    1    1    2    0    0  0.47672017304E+02 -0.66777891752E+02 -0.29715552857E+03  0.33265344763E+03  0.12500000000E+03 0.  0.
         25    1    1    2    0    0 -0.64856271878E+02  0.11949387910E+03 -0.67200460609E+03  0.69692202846E+03  0.12500000000E+03 0.  0.
</event>
<event>
 5    0  0.5641283E-005  0.2736846E+03  0.7546771E-02  0.1099189E+00
         21   -1    0    0  502  501  0.00000000000E+00  0.00000000000E+00  0.22342391435E+04  0.22342391435E+04  0.00000000000E+00 0.  1.
         21   -1    0    0  501  502 -0.00000000000E+00 -0.00000000000E+00 -0.33525175857E+02  0.33525175857E+02  0.00000000000E+00 0.  1.
         25    1    1    2    0    0 -0.33694823522E+02 -0.85890072628E+02  0.31268213413E+03  0.34915263526E+03  0.12500000000E+03 0.  0.
         25    1    1    2    0    0 -0.81390393288E+02  0.80104278749E+02  0.84194378227E+03  0.85879882633E+03  0.12500000000E+03 0.  0.
         25    1    1    2    0    0  0.11508521681E+03  0.57857938785E+01  0.10460880513E+04  0.10598128578E+04  0.12500000000E+03 0.  0.
</event>
<event>
 5    0  0.5641283E-005  0.2505307E+03  0.7546771E-02  0.1112970E+00
         21   -1    0    0  502  501  0.00000000000E+00  0.00000000000E+00  0.11538402205E+03  0.11538402205E+03  0.00000000000E+00 0.  1.
         21   -1    0    0  501  502 -0.00000000000E+00 -0.00000000000E+00 -0.54397176702E+03  0.54397176702E+03  0.00000000000E+00 0.  1.
         25    1    1    2    0    0 -0.90217409956E+02  0.87677335131E+02 -0.21604405992E+03  0.27951123766E+03  0.12500000000E+03 0.  0.
         25    1    1    2    0    0 -0.24911170059E+02 -0.48523727936E+02 -0.63504151948E+02  0.15044233407E+03  0.12500000000E+03 0.  0.
         25    1    1    2    0    0  0.11512858002E+03 -0.39153607196E+02 -0.14903953310E+03  0.22940221734E+03  0.12500000000E+03 0.  0.
</event>
<event>
 5    0  0.5641283E-005  0.2987353E+03  0.7546771E-02  0.1085875E+00
         21   -1    0    0  502  501  0.00000000000E+00  0.00000000000E+00  0.12817684589E+03  0.12817684589E+03  0.00000000000E+00 0. -1.
         21   -1    0    0  501  502 -0.00000000000E+00 -0.00000000000E+00 -0.69624742398E+03  0.69624742398E+03  0.00000000000E+00 0. -1.
         25    1    1    2    0    0  0.44726397188E+02 -0.13544061720E+03 -0.15093611835E+03  0.24238672244E+03  0.12500000000E+03 0.  0.
         25    1    1    2    0    0 -0.35512833674E+01  0.21256162833E+03 -0.20465706364E+03  0.32047553908E+03  0.12500000000E+03 0.  0.
         25    1    1    2    0    0 -0.41175113821E+02 -0.77121011125E+02 -0.21247739611E+03  0.26156200835E+03  0.12500000000E+03 0.  0.
</event>
<event>
 5    0  0.5641283E-005  0.3101973E+03  0.7546771E-02  0.1080251E+00
         21   -1    0    0  502  501  0.00000000000E+00  0.00000000000E+00  0.11180456442E+03  0.11180456442E+03  0.00000000000E+00 0. -1.
         21   -1    0    0  501  502 -0.00000000000E+00 -0.00000000000E+00 -0.86062989456E+03  0.86062989456E+03  0.00000000000E+00 0. -1.
         25    1    1    2    0    0  0.61209702880E+02  0.14585259137E+02 -0.32248745975E+03  0.35154305455E+03  0.12500000000E+03 0.  0.
         25    1    1    2    0    0  0.11544680566E+03  0.20172108888E+02 -0.34841717037E+03  0.38827104389E+03  0.12500000000E+03 0.  0.
         25    1    1    2    0    0 -0.17665650854E+03 -0.34757368026E+02 -0.77920700025E+02  0.23262036053E+03  0.12500000000E+03 0.  0.
</event>
<event>
 5    0  0.5641283E-005  0.3015797E+03  0.7546771E-02  0.1084454E+00
         21   -1    0    0  502  501  0.00000000000E+00  0.00000000000E+00  0.54699392581E+03  0.54699392581E+03  0.00000000000E+00 0. -1.
         21   -1    0    0  501  502 -0.00000000000E+00 -0.00000000000E+00 -0.16627302016E+03  0.16627302016E+03  0.00000000000E+00 0. -1.
         25    1    1    2    0    0  0.28381140962E+02  0.13909916204E+02 -0.27164096982E+02  0.13176442272E+03  0.12500000000E+03 0.  0.
         25    1    1    2    0    0 -0.31867271039E+02 -0.17040581996E+03  0.19758204594E+03  0.29106241825E+03  0.12500000000E+03 0.  0.
         25    1    1    2    0    0  0.34861300766E+01  0.15649590376E+03  0.21030295669E+03  0.29044010499E+03  0.12500000000E+03 0.  0.
</event>
<event>
 5    0  0.5641283E-005  0.3464456E+03  0.7546771E-02  0.1064083E+00
         21   -1    0    0  502  501  0.00000000000E+00  0.00000000000E+00  0.54799428359E+03  0.54799428359E+03  0.00000000000E+00 0. -1.
         21   -1    0    0  501  502 -0.00000000000E+00 -0.00000000000E+00 -0.21902520919E+03  0.21902520919E+03  0.00000000000E+00 0. -1.
         25    1    1    2    0    0 -0.18425935478E+03 -0.77110706692E+02  0.27891678161E+03  0.36512620006E+03  0.12500000000E+03 0.  0.
         25    1    1    2    0    0 -0.39291394719E+02  0.33218550428E+01  0.30893185187E+02  0.13466342232E+03  0.12500000000E+03 0.  0.
         25    1    1    2    0    0  0.22355074950E+03  0.73788851649E+02  0.19159107609E+02  0.26722987040E+03  0.12500000000E+03 0.  0.
</event>
<event>
 5    0  0.5641283E-005  0.2497056E+03  0.7546771E-02  0.1113491E+00
         21   -1    0    0  502  501  0.00000000000E+00  0.00000000000E+00  0.73706976071E+03  0.73706976071E+03  0.00000000000E+00 0. -1.
         21   -1    0    0  501  502 -0.00000000000E+00 -0.00000000000E+00 -0.84595656928E+02  0.84595656928E+02  0.00000000000E+00 0. -1.
         25    1    1    2    0    0  0.46037761206E+02  0.10387230220E+02  0.25866656955E+03  0.29113701965E+03  0.12500000000E+03 0.  0.
         25    1    1    2    0    0 -0.11539229937E+03  0.22453059944E+02  0.91378769951E+02  0.19440833895E+03  0.12500000000E+03 0.  0.
         25    1    1    2    0    0  0.69354538168E+02 -0.32840290163E+02  0.30242876428E+03  0.33612005904E+03  0.12500000000E+03 0.  0.
</event>
<event>
 5    0  0.5641283E-005  0.2136167E+03  0.7546771E-02  0.1138734E+00
         21   -1    0    0  502  501  0.00000000000E+00  0.00000000000E+00  0.82289397935E+03  0.82289397935E+03  0.00000000000E+00 0.  1.
         21   -1    0    0  501  502 -0.00000000000E+00 -0.00000000000E+00 -0.55453198455E+02  0.55453198455E+02  0.00000000000E+00 0.  1.
         25    1    1    2    0    0 -0.68563419610E+02  0.51881862497E+02  0.33183967659E+03  0.36487702192E+03  0.12500000000E+03 0.  0.
         25    1    1    2    0    0  0.50524081080E+02 -0.54760777433E+02  0.23429416338E+03  0.27580823140E+03  0.12500000000E+03 0.  0.
         25    1    1    2    0    0  0.18039338530E+02  0.28789149351E+01  0.20130694092E+03  0.23766192448E+03  0.12500000000E+03 0.  0.
</event>
<event>
 5    0  0.5641283E-005  0.2552834E+03  0.7546771E-02  0.1110011E+00
         21   -1    0    0  502  501  0.00000000000E+00  0.00000000000E+00  0.51471662699E+03  0.51471662699E+03  0.00000000000E+00 0. -1.
         21   -1    0    0  501  502 -0.00000000000E+00 -0.00000000000E+00 -0.12661265113E+03  0.12661265113E+03  0.00000000000E+00 0. -1.
         25    1    1    2    0    0  0.11430792747E+03  0.16001717100E+02  0.15708841961E+03  0.23156884248E+03  0.12500000000E+03 0.  0.
         25    1    1    2    0    0  0.49761416547E+01 -0.83677392798E+02  0.79587309109E+02  0.17025218889E+03  0.12500000000E+03 0.  0.
         25    1    1    2    0    0 -0.11928406913E+03  0.67675675698E+02  0.15142824714E+03  0.23950824675E+03  0.12500000000E+03 0.  0.
</event>
<event>
 5    0  0.5641283E-005  0.2516632E+03  0.7546771E-02  0.1112258E+00
         21   -1    0    0  502  501  0.00000000000E+00  0.00000000000E+00  0.31625223104E+03  0.31625223104E+03  0.00000000000E+00 0.  1.
         21   -1    0    0  501  502 -0.00000000000E+00 -0.00000000000E+00 -0.20026539963E+03  0.20026539963E+03  0.00000000000E+00 0.  1.
         25    1    1    2    0    0 -0.47925546496E+02  0.14412307097E+03  0.38964004578E+01  0.19674475731E+03  0.12500000000E+03 0.  0.
         25    1    1    2    0    0 -0.13166270508E+01 -0.51892150093E+02  0.64974045802E+02  0.15013712191E+03  0.12500000000E+03 0.  0.
         25    1    1    2    0    0  0.49242173546E+02 -0.92230920878E+02  0.47116385152E+02  0.16963575145E+03  0.12500000000E+03 0.  0.
</event>
<event>
 5    0  0.5641283E-005  0.3905774E+03  0.7546771E-02  0.1047092E+00
         21   -1    0    0  502  501  0.00000000000E+00  0.00000000000E+00  0.60072587107E+03  0.60072587107E+03  0.00000000000E+00 0. -1.
         21   -1    0    0  501  502 -0.00000000000E+00 -0.00000000000E+00 -0.25394389624E+03  0.25394389624E+03  0.00000000000E+00 0. -1.
         25    1    1    2    0    0 -0.11755618989E+03 -0.12289164012E+03 -0.13568504415E+01  0.21106552072E+03  0.12500000000E+03 0.  0.
         25    1    1    2    0    0  0.18832334666E+03  0.21188078947E+03  0.69153285005E+02  0.31743712554E+03  0.12500000000E+03 0.  0.
         25    1    1    2    0    0 -0.70767156764E+02 -0.88989149351E+02  0.27898554027E+03  0.32616712106E+03  0.12500000000E+03 0.  0.
</event>
<event>
 5    0  0.5641283E-005  0.2999819E+03  0.7546771E-02  0.1085250E+00
         21   -1    0    0  502  501  0.00000000000E+00  0.00000000000E+00  0.23441680084E+03  0.23441680084E+03  0.00000000000E+00 0. -1.
         21   -1    0    0  501  502 -0.00000000000E+00 -0.00000000000E+00 -0.38388523278E+03  0.38388523278E+03  0.00000000000E+00 0. -1.
         25    1    1    2    0    0  0.29611104280E+02 -0.82706272485E+02  0.10848563045E+03  0.18738003367E+03  0.12500000000E+03 0.  0.
         25    1    1    2    0    0  0.23661026904E+02  0.41578185204E+02 -0.25607538912E+03  0.28894323766E+03  0.12500000000E+03 0.  0.
         25    1    1    2    0    0 -0.53272131184E+02  0.41128087281E+02 -0.18786732717E+01  0.14197876228E+03  0.12500000000E+03 0.  0.
</event>
<event>
 5    0  0.5641283E-005  0.3900923E+03  0.7546771E-02  0.1047265E+00
         21   -1    0    0  502  501  0.00000000000E+00  0.00000000000E+00  0.12230132478E+04  0.12230132478E+04  0.00000000000E+00 0. -1.
         21   -1    0    0  501  502 -0.00000000000E+00 -0.00000000000E+00 -0.12442386821E+03  0.12442386821E+03  0.00000000000E+00 0. -1.
         25    1    1    2    0    0  0.15399904605E+03 -0.73892229382E+01  0.89828001442E+03  0.91994689581E+03  0.12500000000E+03 0.  0.
         25    1    1    2    0    0 -0.17165415926E+03  0.16139288089E+02  0.29616354817E+02  0.21500640800E+03  0.12500000000E+03 0.  0.
         25    1    1    2    0    0  0.17655113208E+02 -0.87500651505E+01  0.17069301035E+03  0.21248381219E+03  0.12500000000E+03 0.  0.
</event>
<event>
 5    0  0.5641283E-005  0.3024234E+03  0.7546771E-02  0.1084035E+00
         21   -1    0    0  502  501  0.00000000000E+00  0.00000000000E+00  0.12317719255E+04  0.12317719255E+04  0.00000000000E+00 0. -1.
         21   -1    0    0  501  502 -0.00000000000E+00 -0.00000000000E+00 -0.74250697955E+02  0.74250697955E+02  0.00000000000E+00 0. -1.
         25    1    1    2    0    0 -0.22926815629E+02 -0.90013804843E+02  0.50159209774E+02  0.16361256144E+03  0.12500000000E+03 0.  0.
         25    1    1    2    0    0 -0.22369980069E+02  0.37766710837E+02  0.64573428603E+03  0.65918473027E+03  0.12500000000E+03 0.  0.
         25    1    1    2    0    0  0.45296795698E+02  0.52247094006E+02  0.46162773176E+03  0.48322533177E+03  0.12500000000E+03 0.  0.
</event>
<event>
 5    0  0.5641283E-005  0.3856172E+03  0.7546771E-02  0.1048877E+00
         21   -1    0    0  502  501  0.00000000000E+00  0.00000000000E+00  0.70455969389E+02  0.70455969389E+02  0.00000000000E+00 0. -1.
         21   -1    0    0  501  502 -0.00000000000E+00 -0.00000000000E+00 -0.21105467207E+04  0.21105467207E+04  0.00000000000E+00 0. -1.
         25    1    1    2    0    0  0.10171196780E+03  0.13234097421E+03 -0.15045904260E+04  0.15189722867E+04  0.12500000000E+03 0.  0.
         25    1    1    2    0    0 -0.31402105914E+02 -0.27898072978E+02 -0.43244614074E+02  0.13877856959E+03  0.12500000000E+03 0.  0.
         25    1    1    2    0    0 -0.70309861883E+02 -0.10444290123E+03 -0.49225571127E+03  0.52325183379E+03  0.12500000000E+03 0.  0.
</event>
<event>
 5    0  0.5641283E-005  0.5712440E+03  0.7546771E-02  0.9966930E-01
         21   -1    0    0  502  501  0.00000000000E+00  0.00000000000E+00  0.73963214866E+03  0.73963214866E+03  0.00000000000E+00 0.  1.
         21   -1    0    0  501  502 -0.00000000000E+00 -0.00000000000E+00 -0.44119192481E+03  0.44119192481E+03  0.00000000000E+00 0.  1.
         25    1    1    2    0    0 -0.37600238874E+03 -0.28223976891E+03  0.31175809662E+03  0.57780203729E+03  0.12500000000E+03 0.  0.
         25    1    1    2    0    0  0.77048333087E+02  0.21497796661E+03 -0.64332882192E+02  0.26817101165E+03  0.12500000000E+03 0.  0.
         25    1    1    2    0    0  0.29895405565E+03  0.67261802301E+02  0.51015009411E+02  0.33485102452E+03  0.12500000000E+03 0.  0.
</event>
<event>
 5    0  0.5641283E-005  0.2488803E+03  0.7546771E-02  0.1114014E+00
         21   -1    0    0  502  501  0.00000000000E+00  0.00000000000E+00  0.46130072969E+03  0.46130072969E+03  0.00000000000E+00 0.  1.
         21   -1    0    0  501  502 -0.00000000000E+00 -0.00000000000E+00 -0.13427556599E+03  0.13427556599E+03  0.00000000000E+00 0.  1.
         25    1    1    2    0    0  0.52079348530E+01  0.61170739878E+02  0.12315412778E+03  0.18590567821E+03  0.12500000000E+03 0.  0.
         25    1    1    2    0    0 -0.73662242228E+01 -0.10720737320E+03 -0.15282210866E+01  0.16484846856E+03  0.12500000000E+03 0.  0.
         25    1    1    2    0    0  0.21582893698E+01  0.46036633319E+02  0.20539925700E+03  0.24482214891E+03  0.12500000000E+03 0.  0.
</event>
<event>
 5    0  0.5641283E-005  0.3055130E+03  0.7546771E-02  0.1082517E+00
         21   -1    0    0  502  501  0.00000000000E+00  0.00000000000E+00  0.62469073722E+02  0.62469073722E+02  0.00000000000E+00 0. -1.
         21   -1    0    0  501  502 -0.00000000000E+00 -0.00000000000E+00 -0.14941499860E+04  0.14941499860E+04  0.00000000000E+00 0. -1.
         25    1    1    2    0    0 -0.12863506491E+03 -0.86149866465E+02 -0.46750500618E+03  0.50808927387E+03  0.12500000000E+03 0.  0.
         25    1    1    2    0    0  0.10200289797E+03  0.10059102226E+03 -0.20924929929E+03  0.28272497980E+03  0.12500000000E+03 0.  0.
         25    1    1    2    0    0  0.26632166943E+02 -0.14441155793E+02 -0.75492660679E+03  0.76580480602E+03  0.12500000000E+03 0.  0.
</event>
<event>
 5    0  0.5641283E-005  0.2577680E+03  0.7546771E-02  0.1108492E+00
         21   -1    0    0  502  501  0.00000000000E+00  0.00000000000E+00  0.24754496645E+03  0.24754496645E+03  0.00000000000E+00 0.  1.
         21   -1    0    0  501  502 -0.00000000000E+00 -0.00000000000E+00 -0.26841327169E+03  0.26841327169E+03  0.00000000000E+00 0.  1.
         25    1    1    2    0    0  0.63934980423E+02 -0.30577181756E+02 -0.57706210742E+02  0.15484719088E+03  0.12500000000E+03 0.  0.
         25    1    1    2    0    0 -0.10512399717E+03  0.94166375706E+02 -0.44675468248E+02  0.19375050595E+03  0.12500000000E+03 0.  0.
         25    1    1    2    0    0  0.41189016744E+02 -0.63589193950E+02  0.81513373744E+02  0.16736054131E+03  0.12500000000E+03 0.  0.
</event>
<event>
 5    0  0.5641283E-005  0.3462095E+03  0.7546771E-02  0.1064182E+00
         21   -1    0    0  502  501  0.00000000000E+00  0.00000000000E+00  0.17801926108E+04  0.17801926108E+04  0.00000000000E+00 0. -1.
         21   -1    0    0  501  502 -0.00000000000E+00 -0.00000000000E+00 -0.67330360324E+02  0.67330360324E+02  0.00000000000E+00 0. -1.
         25    1    1    2    0    0 -0.15118261582E+02  0.66436170413E+02  0.42570139117E+03  0.44887526220E+03  0.12500000000E+03 0.  0.
         25    1    1    2    0    0 -0.16636749087E+03 -0.16401263609E+03  0.93571693755E+03  0.97250679896E+03  0.12500000000E+03 0.  0.
         25    1    1    2    0    0  0.18148575245E+03  0.97576465681E+02  0.35144392174E+03  0.42614090994E+03  0.12500000000E+03 0.  0.
</event>
<event>
 5    0  0.5641283E-005  0.2911737E+03  0.7546771E-02  0.1089738E+00
         21   -1    0    0  502  501  0.00000000000E+00  0.00000000000E+00  0.34713594239E+03  0.34713594239E+03  0.00000000000E+00 0.  1.
         21   -1    0    0  501  502 -0.00000000000E+00 -0.00000000000E+00 -0.24423317618E+03  0.24423317618E+03  0.00000000000E+00 0.  1.
         25    1    1    2    0    0 -0.68802806646E+02 -0.12924581933E+03  0.67474036915E+02  0.20400013155E+03  0.12500000000E+03 0.  0.
         25    1    1    2    0    0 -0.30502817443E+02 -0.56284221582E+02  0.22834695319E+02  0.14228407775E+03  0.12500000000E+03 0.  0.
         25    1    1    2    0    0  0.99305624089E+02  0.18553004091E+03  0.12594033978E+02  0.24508490926E+03  0.12500000000E+03 0.  0.
</event>
<event>
 5    0  0.5641283E-005  0.3339301E+03  0.7546771E-02  0.1069411E+00
         21   -1    0    0  502  501  0.00000000000E+00  0.00000000000E+00  0.46093893406E+03  0.46093893406E+03  0.00000000000E+00 0.  1.
         21   -1    0    0  501  502 -0.00000000000E+00 -0.00000000000E+00 -0.24191781698E+03  0.24191781698E+03  0.00000000000E+00 0.  1.
         25    1    1    2    0    0  0.42060398086E+02 -0.54856317670E+01 -0.40797388548E+02  0.13816148579E+03  0.12500000000E+03 0.  0.
         25    1    1    2    0    0 -0.82082732381E+02  0.10127917453E+03  0.33886978610E+03  0.38399580476E+03  0.12500000000E+03 0.  0.
         25    1    1    2    0    0  0.40022334295E+02 -0.95793542760E+02 -0.79051280472E+02  0.18069946049E+03  0.12500000000E+03 0.  0.
</event>
<event>
 5    0  0.5641283E-005  0.2271817E+03  0.7546771E-02  0.1128639E+00
         21   -1    0    0  502  501  0.00000000000E+00  0.00000000000E+00  0.10448656030E+03  0.10448656030E+03  0.00000000000E+00 0.  1.
         21   -1    0    0  501  502 -0.00000000000E+00 -0.00000000000E+00 -0.49395366207E+03  0.49395366207E+03  0.00000000000E+00 0.  1.
         25    1    1    2    0    0  0.18225986873E+01 -0.30826239701E+02 -0.18225542079E+03  0.22314931622E+03  0.12500000000E+03 0.  0.
         25    1    1    2    0    0 -0.54444619952E+02  0.71369694133E+01 -0.12885504985E+02  0.13713565989E+03  0.12500000000E+03 0.  0.
         25    1    1    2    0    0  0.52622021265E+02  0.23689270288E+02 -0.19432617599E+03  0.23815524626E+03  0.12500000000E+03 0.  0.
</event>
<event>
 5    0  0.5641283E-005  0.4839418E+03  0.7546771E-02  0.1018057E+00
         21   -1    0    0  502  501  0.00000000000E+00  0.00000000000E+00  0.19884252306E+03  0.19884252306E+03  0.00000000000E+00 0.  1.
         21   -1    0    0  501  502 -0.00000000000E+00 -0.00000000000E+00 -0.11778148481E+04  0.11778148481E+04  0.00000000000E+00 0.  1.
         25    1    1    2    0    0  0.26081522412E+03 -0.32404762110E+03 -0.46922916195E+03  0.63940006904E+03  0.12500000000E+03 0.  0.
         25    1    1    2    0    0 -0.88603231292E+02  0.13339536982E+03 -0.74019191910E+02  0.21621447235E+03  0.12500000000E+03 0.  0.
         25    1    1    2    0    0 -0.17221199283E+03  0.19065225128E+03 -0.43572397118E+03  0.52104282977E+03  0.12500000000E+03 0.  0.
</event>
<event>
 5    0  0.5641283E-005  0.2709700E+03  0.7546771E-02  0.1100726E+00
         21   -1    0    0  502  501  0.00000000000E+00  0.00000000000E+00  0.43165914954E+03  0.43165914954E+03  0.00000000000E+00 0.  1.
         21   -1    0    0  501  502 -0.00000000000E+00 -0.00000000000E+00 -0.17009888159E+03  0.17009888159E+03  0.00000000000E+00 0.  1.
         25    1    1    2    0    0 -0.31197831150E+02  0.12433642984E+03  0.95781416033E+02  0.20305647518E+03  0.12500000000E+03 0.  0.
         25    1    1    2    0    0  0.10128348109E+03 -0.15828370312E+02  0.11929531445E+02  0.16209933550E+03  0.12500000000E+03 0.  0.
         25    1    1    2    0    0 -0.70085649943E+02 -0.10850805953E+03  0.15384932047E+03  0.23660222045E+03  0.12500000000E+03 0.  0.
</event>
<event>
 5    0  0.5641283E-005  0.3316087E+03  0.7546771E-02  0.1070427E+00
         21   -1    0    0  502  501  0.00000000000E+00  0.00000000000E+00  0.19849486065E+03  0.19849486065E+03  0.00000000000E+00 0.  1.
         21   -1    0    0  501  502 -0.00000000000E+00 -0.00000000000E+00 -0.55399068390E+03  0.55399068390E+03  0.00000000000E+00 0.  1.
         25    1    1    2    0    0  0.68800483470E+02  0.72672673498E+02 -0.27178453087E+03  0.31544675497E+03  0.12500000000E+03 0.  0.
         25    1    1    2    0    0 -0.51247979618E+02  0.45556763871E+00 -0.20622612000E+03  0.24653757427E+03  0.12500000000E+03 0.  0.
         25    1    1    2    0    0 -0.17552503852E+02 -0.73128241136E+02  0.12251482763E+03  0.19050121530E+03  0.12500000000E+03 0.  0.
</event>
<event>
 5    0  0.5641283E-005  0.3230581E+03  0.7546771E-02  0.1074250E+00
         21   -1    0    0  502  501  0.00000000000E+00  0.00000000000E+00  0.38570981884E+03  0.38570981884E+03  0.00000000000E+00 0. -1.
         21   -1    0    0  501  502 -0.00000000000E+00 -0.00000000000E+00 -0.27058296462E+03  0.27058296462E+03  0.00000000000E+00 0. -1.
         25    1    1    2    0    0  0.14419786458E+03  0.10047038163E+03  0.72498274620E+02  0.22752652935E+03  0.12500000000E+03 0.  0.
         25    1    1    2    0    0 -0.77279247247E+01 -0.14756066868E+03  0.11432707150E+03  0.22478779113E+03  0.12500000000E+03 0.  0.
         25    1    1    2    0    0 -0.13646993986E+03  0.47090287046E+02 -0.71698491901E+02  0.20397846298E+03  0.12500000000E+03 0.  0.
</event>
<event>
 5    0  0.5641283E-005  0.2286527E+03  0.7546771E-02  0.1127592E+00
         21   -1    0    0  502  501  0.00000000000E+00  0.00000000000E+00  0.11334974983E+03  0.11334974983E+03  0.00000000000E+00 0.  1.
         21   -1    0    0  501  502 -0.00000000000E+00 -0.00000000000E+00 -0.46124552875E+03  0.46124552875E+03  0.00000000000E+00 0.  1.
         25    1    1    2    0    0 -0.43025063790E+02  0.44980120399E+01 -0.11265724312E+03  0.17374706516E+03  0.12500000000E+03 0.  0.
         25    1    1    2    0    0  0.82044908021E+02 -0.35532859103E+02 -0.21571694438E+03  0.26486364624E+03  0.12500000000E+03 0.  0.
         25    1    1    2    0    0 -0.39019844232E+02  0.31034847063E+02 -0.19521591417E+02  0.13598456717E+03  0.12500000000E+03 0.  0.
</event>
<event>
 5    0  0.5641283E-005  0.2460003E+03  0.7546771E-02  0.1115859E+00
         21   -1    0    0  502  501  0.00000000000E+00  0.00000000000E+00  0.25059164144E+03  0.25059164144E+03  0.00000000000E+00 0.  1.
         21   -1    0    0  501  502 -0.00000000000E+00 -0.00000000000E+00 -0.24149314657E+03  0.24149314657E+03  0.00000000000E+00 0.  1.
         25    1    1    2    0    0  0.47627177857E+02 -0.22979790425E+02  0.39645302475E+02  0.14139720240E+03  0.12500000000E+03 0.  0.
         25    1    1    2    0    0  0.20221058183E+02  0.11219315816E+03 -0.61418583867E+02  0.17998177234E+03  0.12500000000E+03 0.  0.
         25    1    1    2    0    0 -0.67848236041E+02 -0.89213367730E+02  0.30871776259E+02  0.17070581327E+03  0.12500000000E+03 0.  0.
</event>
<event>
 5    0  0.5641283E-005  0.3425317E+03  0.7546771E-02  0.1065723E+00
         21   -1    0    0  502  501  0.00000000000E+00  0.00000000000E+00  0.40126244707E+03  0.40126244707E+03  0.00000000000E+00 0. -1.
         21   -1    0    0  501  502 -0.00000000000E+00 -0.00000000000E+00 -0.29239714205E+03  0.29239714205E+03  0.00000000000E+00 0. -1.
         25    1    1    2    0    0  0.11987938746E+03 -0.51434517664E+01  0.46825787357E+02  0.17948586851E+03  0.12500000000E+03 0.  0.
         25    1    1    2    0    0 -0.28414542959E+02 -0.20680897899E+03  0.64223783594E+02  0.25164863286E+03  0.12500000000E+03 0.  0.
         25    1    1    2    0    0 -0.91464844498E+02  0.21195243075E+03 -0.21842659368E+01  0.26252508775E+03  0.12500000000E+03 0.  0.
</event>
<event>
 5    0  0.5641283E-005  0.3314628E+03  0.7546771E-02  0.1070491E+00
         21   -1    0    0  502  501  0.00000000000E+00  0.00000000000E+00  0.13534159686E+04  0.13534159686E+04  0.00000000000E+00 0.  1.
         21   -1    0    0  501  502 -0.00000000000E+00 -0.00000000000E+00 -0.81177978942E+02  0.81177978942E+02  0.00000000000E+00 0.  1.
         25    1    1    2    0    0 -0.21257510271E+03  0.39894825321E+02  0.68345036538E+03  0.72767380969E+03  0.12500000000E+03 0.  0.
         25    1    1    2    0    0  0.17603932432E+03 -0.73565683395E+02  0.48852901579E+03  0.53915429401E+03  0.12500000000E+03 0.  0.
         25    1    1    2    0    0  0.36535778396E+02  0.33670858074E+02  0.10025860852E+03  0.16776584387E+03  0.12500000000E+03 0.  0.
</event>
<event>
 5    0  0.6045351E-005  0.4007092E+03  0.7546771E-02  0.1043534E+00
         21   -1    0    0  502  501  0.00000000000E+00  0.00000000000E+00  0.17396291028E+03  0.17396291028E+03  0.00000000000E+00 0.  1.
         21   -1    0    0  501  502 -0.00000000000E+00 -0.00000000000E+00 -0.92300048469E+03  0.92300048469E+03  0.00000000000E+00 0.  1.
         25    1    1    2    0    0 -0.13992673234E+02 -0.53431833976E+02  0.73634680056E+02  0.15523473159E+03  0.12500000000E+03 0.  0.
         25    1    1    2    0    0 -0.15523588436E+03  0.12147660693E+03 -0.48275407035E+03  0.53621939378E+03  0.12500000000E+03 0.  0.
         25    1    1    2    0    0  0.16922855759E+03 -0.68044772955E+02 -0.33991818412E+03  0.40550926959E+03  0.12500000000E+03 0.  0.
</event>
<event>
 5    0  0.5641283E-005  0.2818998E+03  0.7546771E-02  0.1094656E+00
         21   -1    0    0  502  501  0.00000000000E+00  0.00000000000E+00  0.10280230374E+04  0.10280230374E+04  0.00000000000E+00 0. -1.
         21   -1    0    0  501  502 -0.00000000000E+00 -0.00000000000E+00 -0.77301286522E+02  0.77301286522E+02  0.00000000000E+00 0. -1.
         25    1    1    2    0    0  0.60815136283E+02  0.39603645222E+02  0.62314966972E+03  0.63969323929E+03  0.12500000000E+03 0.  0.
         25    1    1    2    0    0 -0.10896580343E+03  0.36687344737E+02  0.12404392178E+03  0.21031262946E+03  0.12500000000E+03 0.  0.
         25    1    1    2    0    0  0.48150667151E+02 -0.76290989960E+02  0.20352815943E+03  0.25531845522E+03  0.12500000000E+03 0.  0.
</event>
<event>
 5    0  0.5641283E-005  0.4809319E+03  0.7546771E-02  0.1018879E+00
         21   -1    0    0  502  501  0.00000000000E+00  0.00000000000E+00  0.11606105847E+04  0.11606105847E+04  0.00000000000E+00 0.  1.
         21   -1    0    0  501  502 -0.00000000000E+00 -0.00000000000E+00 -0.19928773087E+03  0.19928773087E+03  0.00000000000E+00 0.  1.
         25    1    1    2    0    0  0.17514679842E+03 -0.45383171766E+02  0.46076712064E+03  0.51055594477E+03  0.12500000000E+03 0.  0.
         25    1    1    2    0    0 -0.38170469859E+03 -0.48808337425E+02  0.19641186747E+03  0.44975921604E+03  0.12500000000E+03 0.  0.
         25    1    1    2    0    0  0.20655790017E+03  0.94191509191E+02  0.30414386573E+03  0.39958315479E+03  0.12500000000E+03 0.  0.
</event>
<event>
 5    0  0.5641283E-005  0.2815938E+03  0.7546771E-02  0.1094822E+00
         21   -1    0    0  502  501  0.00000000000E+00  0.00000000000E+00  0.31204071230E+03  0.31204071230E+03  0.00000000000E+00 0.  1.
         21   -1    0    0  501  502 -0.00000000000E+00 -0.00000000000E+00 -0.25411763633E+03  0.25411763633E+03  0.00000000000E+00 0.  1.
         25    1    1    2    0    0  0.13580150777E+03  0.11203349708E+01  0.39316455570E+02  0.18871695298E+03  0.12500000000E+03 0.  0.
         25    1    1    2    0    0 -0.55578842843E+01  0.98746368872E+02 -0.37288699519E+02  0.16369845007E+03  0.12500000000E+03 0.  0.
         25    1    1    2    0    0 -0.13024362349E+03 -0.99866703843E+02  0.55895319915E+02  0.21374294558E+03  0.12500000000E+03 0.  0.
</event>
<event>
 5    0  0.5641283E-005  0.2475238E+03  0.7546771E-02  0.1114880E+00
         21   -1    0    0  502  501  0.00000000000E+00  0.00000000000E+00  0.34909813464E+03  0.34909813464E+03  0.00000000000E+00 0. -1.
         21   -1    0    0  501  502 -0.00000000000E+00 -0.00000000000E+00 -0.17550381882E+03  0.17550381882E+03  0.00000000000E+00 0. -1.
         25    1    1    2    0    0 -0.33546720714E+01  0.44876730017E+02  0.23073723488E+02  0.13484276561E+03  0.12500000000E+03 0.  0.
         25    1    1    2    0    0  0.60839673105E+02  0.90928885387E+02  0.65331440083E+02  0.17850133076E+03  0.12500000000E+03 0.  0.
         25    1    1    2    0    0 -0.57485001034E+02 -0.13580561540E+03  0.85189152249E+02  0.21125785708E+03  0.12500000000E+03 0.  0.
</event>
<event>
 5    0  0.5641283E-005  0.3853370E+03  0.7546771E-02  0.1048979E+00
         21   -1    0    0  502  501  0.00000000000E+00  0.00000000000E+00  0.16297018638E+03  0.16297018638E+03  0.00000000000E+00 0. -1.
         21   -1    0    0  501  502 -0.00000000000E+00 -0.00000000000E+00 -0.91111496099E+03  0.91111496099E+03  0.00000000000E+00 0. -1.
         25    1    1    2    0    0  0.23796493552E+03  0.26685631505E+02 -0.30666415919E+03  0.40866531539E+03  0.12500000000E+03 0.  0.
         25    1    1    2    0    0  0.56631607776E+02 -0.74907157741E+02 -0.23250570480E+03  0.28018230501E+03  0.12500000000E+03 0.  0.
         25    1    1    2    0    0 -0.29459654330E+03  0.48221526237E+02 -0.20897491062E+03  0.38523752697E+03  0.12500000000E+03 0.  0.
</event>
<event>
 5    0  0.5641283E-005  0.1975368E+03  0.7546771E-02  0.1151834E+00
         21   -1    0    0  502  501  0.00000000000E+00  0.00000000000E+00  0.27358278951E+02  0.27358278951E+02  0.00000000000E+00 0. -1.
         21   -1    0    0  501  502 -0.00000000000E+00 -0.00000000000E+00 -0.14262882732E+04  0.14262882732E+04  0.00000000000E+00 0. -1.
         25    1    1    2    0    0  0.13565470048E+02  0.29807664527E+02 -0.36151221056E+03  0.38391222594E+03  0.12500000000E+03 0.  0.
         25    1    1    2    0    0  0.55258668225E+01  0.15749544370E+02 -0.53315576207E+03  0.54786736531E+03  0.12500000000E+03 0.  0.
         25    1    1    2    0    0 -0.19091336870E+02 -0.45557208898E+02 -0.50426202167E+03  0.52186696094E+03  0.12500000000E+03 0.  0.
</event>
<event>
 5    0  0.5692878E-005  0.6092425E+03  0.7546771E-02  0.9886414E-01
         21   -1    0    0  502  501  0.00000000000E+00  0.00000000000E+00  0.25015484941E+03  0.25015484941E+03  0.00000000000E+00 0.  1.
         21   -1    0    0  501  502 -0.00000000000E+00 -0.00000000000E+00 -0.14837867205E+04  0.14837867205E+04  0.00000000000E+00 0.  1.
         25    1    1    2    0    0  0.19321213990E+03 -0.25663948529E+03 -0.82876362241E+03  0.89759060727E+03  0.12500000000E+03 0.  0.
         25    1    1    2    0    0 -0.24832019976E+03 -0.12109949889E+03 -0.28752479118E+03  0.41787978628E+03  0.12500000000E+03 0.  0.
         25    1    1    2    0    0  0.55108059859E+02  0.37773898418E+03 -0.11734345752E+03  0.41847117637E+03  0.12500000000E+03 0.  0.
</event>
<event>
 5    0  0.5641283E-005  0.2281978E+03  0.7546771E-02  0.1127915E+00
         21   -1    0    0  502  501  0.00000000000E+00  0.00000000000E+00  0.67772160593E+03  0.67772160593E+03  0.00000000000E+00 0. -1.
         21   -1    0    0  501  502 -0.00000000000E+00 -0.00000000000E+00 -0.76837216163E+02  0.76837216163E+02  0.00000000000E+00 0. -1.
         25    1    1    2    0    0 -0.54511991699E+02  0.18280921329E+02  0.15642831875E+03  0.20832803035E+03  0.12500000000E+03 0.  0.
         25    1    1    2    0    0  0.41761415050E+02  0.53955054188E+02  0.10440000253E+03  0.17657724709E+03  0.12500000000E+03 0.  0.
         25    1    1    2    0    0  0.12750576649E+02 -0.72235975517E+02  0.34005606848E+03  0.36965354465E+03  0.12500000000E+03 0.  0.
</event>
<event>
 5    0  0.5641283E-005  0.3182241E+03  0.7546771E-02  0.1076470E+00
         21   -1    0    0  502  501  0.00000000000E+00  0.00000000000E+00  0.13144624468E+03  0.13144624468E+03  0.00000000000E+00 0. -1.
         21   -1    0    0  501  502 -0.00000000000E+00 -0.00000000000E+00 -0.77040302846E+03  0.77040302846E+03  0.00000000000E+00 0. -1.
         25    1    1    2    0    0  0.32795803927E+02  0.32681423282E+02 -0.57609824902E+01  0.13342349532E+03  0.12500000000E+03 0.  0.
         25    1    1    2    0    0 -0.46448516848E+01  0.33568148345E+02 -0.60844134684E+03  0.62207255829E+03  0.12500000000E+03 0.  0.
         25    1    1    2    0    0 -0.28150952242E+02 -0.66249571627E+02 -0.24754454443E+02  0.14635321953E+03  0.12500000000E+03 0.  0.
</event>
<event>
 5    0  0.5641283E-005  0.4101553E+03  0.7546771E-02  0.1040319E+00
         21   -1    0    0  502  501  0.00000000000E+00  0.00000000000E+00  0.93950461293E+02  0.93950461293E+02  0.00000000000E+00 0. -1.
         21   -1    0    0  501  502 -0.00000000000E+00 -0.00000000000E+00 -0.17905969184E+04  0.17905969184E+04  0.00000000000E+00 0. -1.
         25    1    1    2    0    0 -0.69129718878E+02  0.15778124094E+03 -0.80965757543E+03  0.83716439693E+03  0.12500000000E+03 0.  0.
         25    1    1    2    0    0 -0.35924047017E+02  0.12567886631E+03 -0.54457977382E+03  0.57382736485E+03  0.12500000000E+03 0.  0.
         25    1    1    2    0    0  0.10505376589E+03 -0.28346010725E+03 -0.34240910787E+03  0.47355561794E+03  0.12500000000E+03 0.  0.
</event>
<event>
 5    0  0.5641283E-005  0.5869070E+03  0.7546771E-02  0.9932948E-01
         21   -1    0    0  502  501  0.00000000000E+00  0.00000000000E+00  0.33325799226E+04  0.33325799226E+04  0.00000000000E+00 0.  1.
         21   -1    0    0  501  502 -0.00000000000E+00 -0.00000000000E+00 -0.10336132639E+03  0.10336132639E+03  0.00000000000E+00 0.  1.
         25    1    1    2    0    0 -0.26878336265E+03  0.41880708266E+02  0.13098107412E+04  0.13435876107E+04  0.12500000000E+03 0.  0.
         25    1    1    2    0    0  0.74450724704E+02 -0.26278016447E+03  0.16415583830E+04  0.16688125270E+04  0.12500000000E+03 0.  0.
         25    1    1    2    0    0  0.19433263795E+03  0.22089945620E+03  0.27784947195E+03  0.42354111133E+03  0.12500000000E+03 0.  0.
</event>
<event>
 5    0  0.6112138E-005  0.5482622E+03  0.7546771E-02  0.1001897E+00
         21   -1    0    0  502  501  0.00000000000E+00  0.00000000000E+00  0.92121453441E+03  0.92121453441E+03  0.00000000000E+00 0. -1.
         21   -1    0    0  501  502 -0.00000000000E+00 -0.00000000000E+00 -0.32629905314E+03  0.32629905314E+03  0.00000000000E+00 0. -1.
         25    1    1    2    0    0 -0.32948798430E+03 -0.15206781425E+02  0.51538622616E+03  0.62453305766E+03  0.12500000000E+03 0.  0.
         25    1    1    2    0    0  0.18797872621E+03 -0.14229903940E+03  0.21460409713E+03  0.34243968320E+03  0.12500000000E+03 0.  0.
         25    1    1    2    0    0  0.14150925809E+03  0.15750582082E+03 -0.13507484202E+03  0.28054084669E+03  0.12500000000E+03 0.  0.
</event>
<event>
 5    0  0.5641283E-005  0.3570502E+03  0.7546771E-02  0.1059758E+00
         21   -1    0    0  502  501  0.00000000000E+00  0.00000000000E+00  0.21451942834E+03  0.21451942834E+03  0.00000000000E+00 0. -1.
         21   -1    0    0  501  502 -0.00000000000E+00 -0.00000000000E+00 -0.59428122656E+03  0.59428122656E+03  0.00000000000E+00 0. -1.
         25    1    1    2    0    0 -0.14388833964E+03  0.14842814966E+02  0.55008372754E+02  0.19893487506E+03  0.12500000000E+03 0.  0.
         25    1    1    2    0    0  0.13756115178E+02  0.41920654461E+02  0.34074371322E+01  0.13260159352E+03  0.12500000000E+03 0.  0.
         25    1    1    2    0    0  0.13013222446E+03 -0.56763469427E+02 -0.43817760811E+03  0.47726418633E+03  0.12500000000E+03 0.  0.
</event>
<event>
 5    0  0.5641283E-005  0.3696440E+03  0.7546771E-02  0.1054829E+00
         21   -1    0    0  502  501  0.00000000000E+00  0.00000000000E+00  0.77963282024E+03  0.77963282024E+03  0.00000000000E+00 0.  1.
         21   -1    0    0  501  502 -0.00000000000E+00 -0.00000000000E+00 -0.17525770143E+03  0.17525770143E+03  0.00000000000E+00 0.  1.
         25    1    1    2    0    0  0.14664024211E+03  0.78047139307E+02  0.45329278566E+03  0.49869235616E+03  0.12500000000E+03 0.  0.
         25    1    1    2    0    0  0.81984811379E+02  0.17799954712E+02  0.30974635542E+02  0.15369702577E+03  0.12500000000E+03 0.  0.
         25    1    1    2    0    0 -0.22862505349E+03 -0.95847094020E+02  0.12010769760E+03  0.30250113973E+03  0.12500000000E+03 0.  0.
</event>
<event>
 5    0  0.5641283E-005  0.4879819E+03  0.7546771E-02  0.1016964E+00
         21   -1    0    0  502  501  0.00000000000E+00  0.00000000000E+00  0.12668981809E+03  0.12668981809E+03  0.00000000000E+00 0.  1.
         21   -1    0    0  501  502 -0.00000000000E+00 -0.00000000000E+00 -0.18796010209E+04  0.18796010209E+04  0.00000000000E+00 0.  1.
         25    1    1    2    0    0 -0.50996540805E+02 -0.30763315849E+03 -0.11545564665E+04  0.12024410346E+04  0.12500000000E+03 0.  0.
         25    1    1    2    0    0 -0.46033577587E+02  0.15226219959E+03 -0.53686454673E+03  0.57371718575E+03  0.12500000000E+03 0.  0.
         25    1    1    2    0    0  0.97030118391E+02  0.15537095891E+03 -0.61490189589E+02  0.23013261864E+03  0.12500000000E+03 0.  0.
</event>
<event>
 5    0  0.5641283E-005  0.4422059E+03  0.7546771E-02  0.1030072E+00
         21   -1    0    0  502  501  0.00000000000E+00  0.00000000000E+00  0.89081622515E+03  0.89081622515E+03  0.00000000000E+00 0.  1.
         21   -1    0    0  501  502 -0.00000000000E+00 -0.00000000000E+00 -0.21951334935E+03  0.21951334935E+03  0.00000000000E+00 0.  1.
         25    1    1    2    0    0 -0.68844153271E+02 -0.27641247444E+03  0.15334722449E+03  0.34681946993E+03  0.12500000000E+03 0.  0.
         25    1    1    2    0    0 -0.14240088095E+03  0.24658850439E+03  0.25101004429E+03  0.39964352081E+03  0.12500000000E+03 0.  0.
         25    1    1    2    0    0  0.21124503422E+03  0.29823970054E+02  0.26694560701E+03  0.36386658376E+03  0.12500000000E+03 0.  0.
</event>
<event>
 5    0  0.5641283E-005  0.4073609E+03  0.7546771E-02  0.1041260E+00
         21   -1    0    0  502  501  0.00000000000E+00  0.00000000000E+00  0.22310155875E+03  0.22310155875E+03  0.00000000000E+00 0. -1.
         21   -1    0    0  501  502 -0.00000000000E+00 -0.00000000000E+00 -0.74379979979E+03  0.74379979979E+03  0.00000000000E+00 0. -1.
         25    1    1    2    0    0  0.24325764772E+03  0.16259097368E+03 -0.38720739027E+03  0.50116331767E+03  0.12500000000E+03 0.  0.
         25    1    1    2    0    0 -0.49064261518E+02 -0.95042451765E+02  0.39737895690E+02  0.16924677176E+03  0.12500000000E+03 0.  0.
         25    1    1    2    0    0 -0.19419338620E+03 -0.67548521911E+02 -0.17322874646E+03  0.29649126911E+03  0.12500000000E+03 0.  0.
</event>
<event>
 5    0  0.5641283E-005  0.3836802E+03  0.7546771E-02  0.1049582E+00
         21   -1    0    0  502  501  0.00000000000E+00  0.00000000000E+00  0.50779454647E+03  0.50779454647E+03  0.00000000000E+00 0.  1.
         21   -1    0    0  501  502 -0.00000000000E+00 -0.00000000000E+00 -0.28990170654E+03  0.28990170654E+03  0.00000000000E+00 0.  1.
         25    1    1    2    0    0  0.28199657661E+03  0.67819730107E+02 -0.13860599020E+01  0.31582986903E+03  0.12500000000E+03 0.  0.
         25    1    1    2    0    0 -0.73688491985E+02 -0.24207427717E+02  0.17914591282E+03  0.23180649579E+03  0.12500000000E+03 0.  0.
         25    1    1    2    0    0 -0.20830808462E+03 -0.43612302390E+02  0.40132987011E+02  0.25005988820E+03  0.12500000000E+03 0.  0.
</event>
<event>
 5    0  0.5641283E-005  0.2233258E+03  0.7546771E-02  0.1131428E+00
         21   -1    0    0  502  501  0.00000000000E+00  0.00000000000E+00  0.41981072238E+03  0.41981072238E+03  0.00000000000E+00 0. -1.
         21   -1    0    0  501  502 -0.00000000000E+00 -0.00000000000E+00 -0.11880215840E+03  0.11880215840E+03  0.00000000000E+00 0. -1.
         25    1    1    2    0    0  0.63638529328E+02  0.73154405310E+02  0.11351156335E+03  0.19470825469E+03  0.12500000000E+03 0.  0.
         25    1    1    2    0    0 -0.62221917810E+02  0.36449579409E+01  0.71746534031E+02  0.15702680637E+03  0.12500000000E+03 0.  0.
         25    1    1    2    0    0 -0.14166115182E+01 -0.76799363251E+02  0.11575046659E+03  0.18687781971E+03  0.12500000000E+03 0.  0.
</event>
<event>
 5    0  0.5641283E-005  0.2745731E+03  0.7546771E-02  0.1098690E+00
         21   -1    0    0  502  501  0.00000000000E+00  0.00000000000E+00  0.20940268448E+03  0.20940268448E+03  0.00000000000E+00 0.  1.
         21   -1    0    0  501  502 -0.00000000000E+00 -0.00000000000E+00 -0.36002581601E+03  0.36002581601E+03  0.00000000000E+00 0.  1.
         25    1    1    2    0    0  0.87639777725E+01  0.10029238717E+03 -0.13745320293E+03  0.21131434695E+03  0.12500000000E+03 0.  0.
         25    1    1    2    0    0  0.49550474965E+02 -0.91580615173E+02  0.89743429297E+02  0.18579865916E+03  0.12500000000E+03 0.  0.
         25    1    1    2    0    0 -0.58314452737E+02 -0.87117719983E+01 -0.10291335789E+03  0.17231549438E+03  0.12500000000E+03 0.  0.
</event>
<event>
 5    0  0.5641283E-005  0.4206730E+03  0.7546771E-02  0.1036848E+00
         21   -1    0    0  502  501  0.00000000000E+00  0.00000000000E+00  0.96526314726E+03  0.96526314726E+03  0.00000000000E+00 0. -1.
         21   -1    0    0  501  502 -0.00000000000E+00 -0.00000000000E+00 -0.18333419103E+03  0.18333419103E+03  0.00000000000E+00 0. -1.
         25    1    1    2    0    0  0.34829853494E+02 -0.14312709819E+03  0.58237935777E+03  0.61358715867E+03  0.12500000000E+03 0.  0.
         25    1    1    2    0    0 -0.17475645270E+03  0.16571678886E+03  0.16396599407E+02  0.27183767278E+03  0.12500000000E+03 0.  0.
         25    1    1    2    0    0  0.13992659921E+03 -0.22589690666E+02  0.18315299905E+03  0.26317250683E+03  0.12500000000E+03 0.  0.
</event>
<event>
 5    0  0.5641283E-005  0.3110640E+03  0.7546771E-02  0.1079837E+00
         21   -1    0    0  502  501  0.00000000000E+00  0.00000000000E+00  0.11137762239E+04  0.11137762239E+04  0.00000000000E+00 0. -1.
         21   -1    0    0  501  502 -0.00000000000E+00 -0.00000000000E+00 -0.86876343276E+02  0.86876343276E+02  0.00000000000E+00 0. -1.
         25    1    1    2    0    0 -0.44508372701E+02 -0.11374382762E+03  0.26257848192E+03  0.31542211833E+03  0.12500000000E+03 0.  0.
         25    1    1    2    0    0 -0.12827440943E+02 -0.12102971761E+03  0.29264136912E+03  0.34070031803E+03  0.12500000000E+03 0.  0.
         25    1    1    2    0    0  0.57335813645E+02  0.23477354523E+03  0.47168002961E+03  0.54453013084E+03  0.12500000000E+03 0.  0.
</event>
<event>
 5    0  0.5641283E-005  0.1303941E+04  0.7546771E-02  0.9026445E-01
         21   -1    0    0  502  501  0.00000000000E+00  0.00000000000E+00  0.91747328402E+03  0.91747328402E+03  0.00000000000E+00 0. -1.
         21   -1    0    0  501  502 -0.00000000000E+00 -0.00000000000E+00 -0.18532017552E+04  0.18532017552E+04  0.00000000000E+00 0. -1.
         25    1    1    2    0    0 -0.69304624142E+03  0.60983563495E+03 -0.25914917318E+03  0.96695185422E+03  0.12500000000E+03 0.  0.
         25    1    1    2    0    0 -0.13383183592E+02 -0.87969944418E+03 -0.23518040707E+03  0.91923068136E+03  0.12500000000E+03 0.  0.
         25    1    1    2    0    0  0.70642942501E+03  0.26986380922E+03 -0.44139889090E+03  0.88449250361E+03  0.12500000000E+03 0.  0.
</event>
<event>
 5    0  0.5641283E-005  0.3130402E+03  0.7546771E-02  0.1078898E+00
         21   -1    0    0  502  501  0.00000000000E+00  0.00000000000E+00  0.25933770790E+03  0.25933770790E+03  0.00000000000E+00 0. -1.
         21   -1    0    0  501  502 -0.00000000000E+00 -0.00000000000E+00 -0.37786317125E+03  0.37786317125E+03  0.00000000000E+00 0. -1.
         25    1    1    2    0    0 -0.15164554834E+03  0.69857435518E+02 -0.89605167006E+01  0.20876236368E+03  0.12500000000E+03 0.  0.
         25    1    1    2    0    0  0.91230513773E+01  0.99283378124E+02 -0.35225458509E+02  0.16372614991E+03  0.12500000000E+03 0.  0.
         25    1    1    2    0    0  0.14252249697E+03 -0.16914081364E+03 -0.74339488142E+02  0.26471236556E+03  0.12500000000E+03 0.  0.
</event>
<event>
 5    0  0.5641283E-005  0.2830482E+03  0.7546771E-02  0.1094036E+00
         21   -1    0    0  502  501  0.00000000000E+00  0.00000000000E+00  0.88433460684E+02  0.88433460684E+02  0.00000000000E+00 0.  1.
         21   -1    0    0  501  502 -0.00000000000E+00 -0.00000000000E+00 -0.90594986829E+03  0.90594986829E+03  0.00000000000E+00 0.  1.
         25    1    1    2    0    0 -0.12187614198E+02  0.21399589050E+02 -0.57551003892E+03  0.58944319934E+03  0.12500000000E+03 0.  0.
         25    1    1    2    0    0  0.24049879414E+02 -0.90851307565E+02 -0.20297887660E+03  0.25623774338E+03  0.12500000000E+03 0.  0.
         25    1    1    2    0    0 -0.11862265216E+02  0.69451718514E+02 -0.39027492093E+02  0.14870238626E+03  0.12500000000E+03 0.  0.
</event>
<event>
 5    0  0.5641283E-005  0.2678734E+03  0.7546771E-02  0.1102503E+00
         21   -1    0    0  502  501  0.00000000000E+00  0.00000000000E+00  0.13682077716E+03  0.13682077716E+03  0.00000000000E+00 0. -1.
         21   -1    0    0  501  502 -0.00000000000E+00 -0.00000000000E+00 -0.52445351265E+03  0.52445351265E+03  0.00000000000E+00 0. -1.
         25    1    1    2    0    0  0.13954646069E+03 -0.48889571858E+02 -0.88186245922E+02  0.21275624291E+03  0.12500000000E+03 0.  0.
         25    1    1    2    0    0 -0.14000359709E+03  0.58725895907E+02 -0.12264714215E+03  0.23176941025E+03  0.12500000000E+03 0.  0.
         25    1    1    2    0    0  0.45713640671E+00 -0.98363240484E+01 -0.17679934742E+03  0.21674863665E+03  0.12500000000E+03 0.  0.
</event>
<event>
 5    0  0.5641283E-005  0.4768749E+03  0.7546771E-02  0.1019998E+00
         21   -1    0    0  502  501  0.00000000000E+00  0.00000000000E+00  0.22735745698E+03  0.22735745698E+03  0.00000000000E+00 0.  1.
         21   -1    0    0  501  502 -0.00000000000E+00 -0.00000000000E+00 -0.10002297773E+04  0.10002297773E+04  0.00000000000E+00 0.  1.
         25    1    1    2    0    0 -0.10140414069E+02 -0.17948231386E+02  0.33842343724E+02  0.13113074100E+03  0.12500000000E+03 0.  0.
         25    1    1    2    0    0 -0.27136229354E+03  0.16293938449E+03 -0.18426420055E+03  0.38699487461E+03  0.12500000000E+03 0.  0.
         25    1    1    2    0    0  0.28150270760E+03 -0.14499115311E+03 -0.62245046350E+03  0.70946161868E+03  0.12500000000E+03 0.  0.
</event>
<event>
 5    0  0.5641283E-005  0.2317304E+03  0.7546771E-02  0.1125428E+00
         21   -1    0    0  502  501  0.00000000000E+00  0.00000000000E+00  0.96760183004E+03  0.96760183004E+03  0.00000000000E+00 0.  1.
         21   -1    0    0  501  502 -0.00000000000E+00 -0.00000000000E+00 -0.55496967293E+02  0.55496967293E+02  0.00000000000E+00 0.  1.
         25    1    1    2    0    0  0.40140550242E+02 -0.28031875932E+02  0.20398503958E+03  0.24419653195E+03  0.12500000000E+03 0.  0.
         25    1    1    2    0    0 -0.66789669436E+02 -0.40206898769E+02  0.52566899043E+03  0.54592155311E+03  0.12500000000E+03 0.  0.
         25    1    1    2    0    0  0.26649119194E+02  0.68238774702E+02  0.18245083274E+03  0.23298071228E+03  0.12500000000E+03 0.  0.
</event>
<event>
 5    0  0.5641283E-005  0.2538710E+03  0.7546771E-02  0.1110883E+00
         21   -1    0    0  502  501  0.00000000000E+00  0.00000000000E+00  0.24590462656E+04  0.24590462656E+04  0.00000000000E+00 0. -1.
         21   -1    0    0  501  502 -0.00000000000E+00 -0.00000000000E+00 -0.26209555393E+02  0.26209555393E+02  0.00000000000E+00 0. -1.
         25    1    1    2    0    0  0.43035205137E+00  0.22806473891E+02  0.35844926265E+03  0.38030408143E+03  0.12500000000E+03 0.  0.
         25    1    1    2    0    0  0.42710460269E+02 -0.90611699287E+02  0.15958948105E+04  0.16039139346E+04  0.12500000000E+03 0.  0.
         25    1    1    2    0    0 -0.43140812320E+02  0.67805225396E+02  0.47849263710E+03  0.50103780500E+03  0.12500000000E+03 0.  0.
</event>
<event>
 5    0  0.5641283E-005  0.4624693E+03  0.7546771E-02  0.1024067E+00
         21   -1    0    0  502  501  0.00000000000E+00  0.00000000000E+00  0.10795219274E+04  0.10795219274E+04  0.00000000000E+00 0.  1.
         21   -1    0    0  501  502 -0.00000000000E+00 -0.00000000000E+00 -0.19812278767E+03  0.19812278767E+03  0.00000000000E+00 0.  1.
         25    1    1    2    0    0  0.61226429875E+02 -0.12640341196E+03  0.46454183178E+03  0.50114929088E+03  0.12500000000E+03 0.  0.
         25    1    1    2    0    0  0.25934773718E+03  0.11975461416E+02  0.14049168989E+03  0.32057382205E+03  0.12500000000E+03 0.  0.
         25    1    1    2    0    0 -0.32057416705E+03  0.11442795054E+03  0.27636561803E+03  0.45592160212E+03  0.12500000000E+03 0.  0.
</event>
<event>
 5    0  0.5641283E-005  0.4027865E+03  0.7546771E-02  0.1042819E+00
         21   -1    0    0  502  501  0.00000000000E+00  0.00000000000E+00  0.34890858397E+03  0.34890858397E+03  0.00000000000E+00 0. -1.
         21   -1    0    0  501  502 -0.00000000000E+00 -0.00000000000E+00 -0.46498419115E+03  0.46498419115E+03  0.00000000000E+00 0. -1.
         25    1    1    2    0    0  0.62145857794E+02 -0.64852328426E+01 -0.25802386996E+03  0.29343735849E+03  0.12500000000E+03 0.  0.
         25    1    1    2    0    0  0.87305745269E+02  0.14033904897E+01  0.25354789280E+03  0.29586449028E+03  0.12500000000E+03 0.  0.
         25    1    1    2    0    0 -0.14945160306E+03  0.50818423529E+01 -0.11159963003E+03  0.22459092636E+03  0.12500000000E+03 0.  0.
</event>
<event>
 5    0  0.5641283E-005  0.2878927E+03  0.7546771E-02  0.1091455E+00
         21   -1    0    0  502  501  0.00000000000E+00  0.00000000000E+00  0.18548216844E+03  0.18548216844E+03  0.00000000000E+00 0.  1.
         21   -1    0    0  501  502 -0.00000000000E+00 -0.00000000000E+00 -0.44684716390E+03  0.44684716390E+03  0.00000000000E+00 0.  1.
         25    1    1    2    0    0 -0.23578796502E+02 -0.26401498281E+02 -0.14032745993E+03  0.19123230576E+03  0.12500000000E+03 0.  0.
         25    1    1    2    0    0  0.14559154838E+03  0.11566932604E+03 -0.34520800379E+02  0.22670019322E+03  0.12500000000E+03 0.  0.
         25    1    1    2    0    0 -0.12201275188E+03 -0.89267827758E+02 -0.86516735161E+02  0.21439683336E+03  0.12500000000E+03 0.  0.
</event>
<event>
 5    0  0.5641283E-005  0.2905447E+03  0.7546771E-02  0.1090065E+00
         21   -1    0    0  502  501  0.00000000000E+00  0.00000000000E+00  0.75782492750E+03  0.75782492750E+03  0.00000000000E+00 0. -1.
         21   -1    0    0  501  502 -0.00000000000E+00 -0.00000000000E+00 -0.11139280559E+03  0.11139280559E+03  0.00000000000E+00 0. -1.
         25    1    1    2    0    0 -0.16524381616E+03 -0.42547254594E+02  0.46912210986E+03  0.51460309133E+03  0.12500000000E+03 0.  0.
         25    1    1    2    0    0  0.97884507749E+02  0.99473319220E+01  0.11431200670E+03  0.19588915525E+03  0.12500000000E+03 0.  0.
         25    1    1    2    0    0  0.67359308407E+02  0.32599922672E+02  0.62998005341E+02  0.15872548650E+03  0.12500000000E+03 0.  0.
</event>
<event>
 5    0  0.5641283E-005  0.3846800E+03  0.7546771E-02  0.1049217E+00
         21   -1    0    0  502  501  0.00000000000E+00  0.00000000000E+00  0.17600307795E+03  0.17600307795E+03  0.00000000000E+00 0. -1.
         21   -1    0    0  501  502 -0.00000000000E+00 -0.00000000000E+00 -0.84077336424E+03  0.84077336424E+03  0.00000000000E+00 0. -1.
         25    1    1    2    0    0  0.27878045106E+01 -0.15025133675E+03 -0.38112686782E+03  0.42832922551E+03  0.12500000000E+03 0.  0.
         25    1    1    2    0    0  0.18367953637E+03  0.17672306572E+03 -0.20068255898E+03  0.34766032779E+03  0.12500000000E+03 0.  0.
         25    1    1    2    0    0 -0.18646734088E+03 -0.26471728969E+02 -0.82960859491E+02  0.24078688888E+03  0.12500000000E+03 0.  0.
</event>
<event>
 5    0  0.5641283E-005  0.3202972E+03  0.7546771E-02  0.1075513E+00
         21   -1    0    0  502  501  0.00000000000E+00  0.00000000000E+00  0.77313875726E+03  0.77313875726E+03  0.00000000000E+00 0.  1.
         21   -1    0    0  501  502 -0.00000000000E+00 -0.00000000000E+00 -0.13269326633E+03  0.13269326633E+03  0.00000000000E+00 0.  1.
         25    1    1    2    0    0  0.13274019008E+02 -0.26293713346E+01  0.59323360418E+03  0.60641093517E+03  0.12500000000E+03 0.  0.
         25    1    1    2    0    0 -0.32939602485E+02  0.75238728016E+02  0.18169443243E+02  0.15066855104E+03  0.12500000000E+03 0.  0.
         25    1    1    2    0    0  0.19665583477E+02 -0.72609356681E+02  0.29042443514E+02  0.14875253738E+03  0.12500000000E+03 0.  0.
</event>
<event>
 5    0  0.5641283E-005  0.2807367E+03  0.7546771E-02  0.1095287E+00
         21   -1    0    0  502  501  0.00000000000E+00  0.00000000000E+00  0.27363509686E+03  0.27363509686E+03  0.00000000000E+00 0. -1.
         21   -1    0    0  501  502 -0.00000000000E+00 -0.00000000000E+00 -0.28802270654E+03  0.28802270654E+03  0.00000000000E+00 0. -1.
         25    1    1    2    0    0 -0.49119679419E+02  0.10953452849E+03 -0.13124920837E+03  0.21739804630E+03  0.12500000000E+03 0.  0.
         25    1    1    2    0    0  0.83195651923E+02 -0.11895443129E+03  0.89800979995E+02  0.21156769420E+03  0.12500000000E+03 0.  0.
         25    1    1    2    0    0 -0.34075972505E+02  0.94199028064E+01  0.27060618691E+02  0.13269206289E+03  0.12500000000E+03 0.  0.
</event>
<event>
 5    0  0.5641283E-005  0.2257306E+03  0.7546771E-02  0.1129681E+00
         21   -1    0    0  502  501  0.00000000000E+00  0.00000000000E+00  0.11683141243E+03  0.11683141243E+03  0.00000000000E+00 0. -1.
         21   -1    0    0  501  502 -0.00000000000E+00 -0.00000000000E+00 -0.43613524844E+03  0.43613524844E+03  0.00000000000E+00 0. -1.
         25    1    1    2    0    0 -0.10176671737E+02 -0.24063645822E+02 -0.60678291480E+02  0.14138415312E+03  0.12500000000E+03 0.  0.
         25    1    1    2    0    0 -0.56563198755E+02 -0.42801451343E+02 -0.19553346740E+03  0.24267199377E+03  0.12500000000E+03 0.  0.
         25    1    1    2    0    0  0.66739870492E+02  0.66865097165E+02 -0.63092077140E+02  0.16891051397E+03  0.12500000000E+03 0.  0.
</event>
<event>
 5    0  0.5641283E-005  0.4175418E+03  0.7546771E-02  0.1037869E+00
         21   -1    0    0  502  501  0.00000000000E+00  0.00000000000E+00  0.46431686576E+03  0.46431686576E+03  0.00000000000E+00 0.  1.
         21   -1    0    0  501  502 -0.00000000000E+00 -0.00000000000E+00 -0.37547888159E+03  0.37547888159E+03  0.00000000000E+00 0.  1.
         25    1    1    2    0    0 -0.54793771067E+02  0.13629975180E+03 -0.40781107780E+02  0.19714988826E+03  0.12500000000E+03 0.  0.
         25    1    1    2    0    0  0.18730716762E+03 -0.12306938352E+03  0.29866805773E+03  0.39377361125E+03  0.12500000000E+03 0.  0.
         25    1    1    2    0    0 -0.13251339656E+03 -0.13230368274E+02 -0.16904896579E+03  0.24887224784E+03  0.12500000000E+03 0.  0.
</event>
<event>
 5    0  0.5641283E-005  0.2929568E+03  0.7546771E-02  0.1088815E+00
         21   -1    0    0  502  501  0.00000000000E+00  0.00000000000E+00  0.11231400058E+04  0.11231400058E+04  0.00000000000E+00 0. -1.
         21   -1    0    0  501  502 -0.00000000000E+00 -0.00000000000E+00 -0.76414079992E+02  0.76414079992E+02  0.00000000000E+00 0. -1.
         25    1    1    2    0    0 -0.10541605043E+03  0.87466775438E+02  0.37379994015E+03  0.41727014721E+03  0.12500000000E+03 0.  0.
         25    1    1    2    0    0 -0.17986301226E+02 -0.62770680450E+02  0.77332570061E+02  0.16083840259E+03  0.12500000000E+03 0.  0.
         25    1    1    2    0    0  0.12340235166E+03 -0.24696094988E+02  0.59559341559E+03  0.62144553599E+03  0.12500000000E+03 0.  0.
</event>
<event>
 5    0  0.5641283E-005  0.3754531E+03  0.7546771E-02  0.1052627E+00
         21   -1    0    0  502  501  0.00000000000E+00  0.00000000000E+00  0.49855390818E+03  0.49855390818E+03  0.00000000000E+00 0. -1.
         21   -1    0    0  501  502 -0.00000000000E+00 -0.00000000000E+00 -0.28274778163E+03  0.28274778163E+03  0.00000000000E+00 0. -1.
         25    1    1    2    0    0 -0.22203422277E+03 -0.84759848678E+02  0.13202263789E+03  0.29922968593E+03  0.12500000000E+03 0.  0.
         25    1    1    2    0    0 -0.28527036523E+02  0.13914950211E+03  0.41512328432E+02  0.19371280072E+03  0.12500000000E+03 0.  0.
         25    1    1    2    0    0  0.25056125929E+03 -0.54389653429E+02  0.42271160231E+02  0.28835920316E+03  0.12500000000E+03 0.  0.
</event>
<event>
 5    0  0.5641283E-005  0.6243864E+03  0.7546771E-02  0.9856065E-01
         21   -1    0    0  502  501  0.00000000000E+00  0.00000000000E+00  0.25312200200E+04  0.25312200200E+04  0.00000000000E+00 0.  1.
         21   -1    0    0  501  502 -0.00000000000E+00 -0.00000000000E+00 -0.15401994620E+03  0.15401994620E+03  0.00000000000E+00 0.  1.
         25    1    1    2    0    0 -0.69211301028E+02  0.17155202667E+02  0.11149262647E+03  0.18204425540E+03  0.12500000000E+03 0.  0.
         25    1    1    2    0    0 -0.47673324833E+03 -0.78222301596E+02  0.99163691298E+03  0.11101180504E+04  0.12500000000E+03 0.  0.
         25    1    1    2    0    0  0.54594454936E+03  0.61067098929E+02  0.12740705344E+04  0.13930776605E+04  0.12500000000E+03 0.  0.
</event>
<event>
 5    0  0.5641283E-005  0.4799649E+03  0.7546771E-02  0.1019145E+00
         21   -1    0    0  502  501  0.00000000000E+00  0.00000000000E+00  0.72656883830E+03  0.72656883830E+03  0.00000000000E+00 0.  1.
         21   -1    0    0  501  502 -0.00000000000E+00 -0.00000000000E+00 -0.31706052359E+03  0.31706052359E+03  0.00000000000E+00 0.  1.
         25    1    1    2    0    0 -0.19424558404E+03  0.93280232475E+02  0.14723901602E+02  0.24954827583E+03  0.12500000000E+03 0.  0.
         25    1    1    2    0    0  0.32568839964E+03 -0.26004833947E+03  0.19476409982E+03  0.47671388390E+03  0.12500000000E+03 0.  0.
         25    1    1    2    0    0 -0.13144281560E+03  0.16676810699E+03  0.20002031329E+03  0.31736720217E+03  0.12500000000E+03 0.  0.
</event>
<event>
 5    0  0.5641283E-005  0.3813178E+03  0.7546771E-02  0.1050448E+00
         21   -1    0    0  502  501  0.00000000000E+00  0.00000000000E+00  0.14004409836E+03  0.14004409836E+03  0.00000000000E+00 0. -1.
         21   -1    0    0  501  502 -0.00000000000E+00 -0.00000000000E+00 -0.10382677111E+04  0.10382677111E+04  0.00000000000E+00 0. -1.
         25    1    1    2    0    0 -0.21095121002E+03 -0.68554784570E+02 -0.24087502147E+03  0.35049386223E+03  0.12500000000E+03 0.  0.
         25    1    1    2    0    0  0.91046205618E+02  0.15221482201E+03 -0.58216702153E+03  0.62129075686E+03  0.12500000000E+03 0.  0.
         25    1    1    2    0    0  0.11990500440E+03 -0.83660037438E+02 -0.75181569772E+02  0.20652719041E+03  0.12500000000E+03 0.  0.
</event>
<event>
 5    0  0.5641283E-005  0.2503784E+03  0.7546771E-02  0.1113066E+00
         21   -1    0    0  502  501  0.00000000000E+00  0.00000000000E+00  0.13961458204E+04  0.13961458204E+04  0.00000000000E+00 0.  1.
         21   -1    0    0  501  502 -0.00000000000E+00 -0.00000000000E+00 -0.44901713889E+02  0.44901713889E+02  0.00000000000E+00 0.  1.
         25    1    1    2    0    0  0.95627905858E+02 -0.63945676607E+02  0.53876257625E+03  0.56491048804E+03  0.12500000000E+03 0.  0.
         25    1    1    2    0    0 -0.10349211988E+02  0.10880470836E+03  0.34823084933E+03  0.38579177697E+03  0.12500000000E+03 0.  0.
         25    1    1    2    0    0 -0.85278693870E+02 -0.44859031749E+02  0.46425068090E+03  0.49034526925E+03  0.12500000000E+03 0.  0.
</event>
<event>
 5    0  0.5641283E-005  0.2850523E+03  0.7546771E-02  0.1092961E+00
         21   -1    0    0  502  501  0.00000000000E+00  0.00000000000E+00  0.25227957902E+03  0.25227957902E+03  0.00000000000E+00 0. -1.
         21   -1    0    0  501  502 -0.00000000000E+00 -0.00000000000E+00 -0.32208231836E+03  0.32208231836E+03  0.00000000000E+00 0. -1.
         25    1    1    2    0    0 -0.38874898981E+02  0.10283093582E+02 -0.10418548115E+03  0.16762044704E+03  0.12500000000E+03 0.  0.
         25    1    1    2    0    0 -0.56458663856E+02 -0.52987816818E+02 -0.11426093304E+03  0.18621452756E+03  0.12500000000E+03 0.  0.
         25    1    1    2    0    0  0.95333562837E+02  0.42704723236E+02  0.14864367486E+03  0.22052692277E+03  0.12500000000E+03 0.  0.
</event>
<event>
 5    0  0.5641283E-005  0.2851316E+03  0.7546771E-02  0.1092919E+00
         21   -1    0    0  502  501  0.00000000000E+00  0.00000000000E+00  0.42589758360E+02  0.42589758360E+02  0.00000000000E+00 0.  1.
         21   -1    0    0  501  502 -0.00000000000E+00 -0.00000000000E+00 -0.19089105349E+04  0.19089105349E+04  0.00000000000E+00 0.  1.
         25    1    1    2    0    0 -0.11882016978E+02 -0.11965373480E+03 -0.12001059644E+04  0.12125747500E+04  0.12500000000E+03 0.  0.
         25    1    1    2    0    0 -0.30085342188E+02  0.39827300539E+02 -0.47290510525E+03  0.49168646539E+03  0.12500000000E+03 0.  0.
         25    1    1    2    0    0  0.41967359166E+02  0.79826434265E+02 -0.19330970693E+03  0.24723907789E+03  0.12500000000E+03 0.  0.
</event>
<event>
 5    0  0.5641283E-005  0.2535221E+03  0.7546771E-02  0.1111099E+00
         21   -1    0    0  502  501  0.00000000000E+00  0.00000000000E+00  0.76069724289E+03  0.76069724289E+03  0.00000000000E+00 0.  1.
         21   -1    0    0  501  502 -0.00000000000E+00 -0.00000000000E+00 -0.84492835337E+02  0.84492835337E+02  0.00000000000E+00 0.  1.
         25    1    1    2    0    0 -0.11750543256E+02  0.55072850925E+02  0.45593755102E+03  0.47610413211E+03  0.12500000000E+03 0.  0.
         25    1    1    2    0    0  0.73142123805E+02 -0.23969292603E+02  0.15054836383E+03  0.21027150809E+03  0.12500000000E+03 0.  0.
         25    1    1    2    0    0 -0.61391580549E+02 -0.31103558321E+02  0.69718492698E+02  0.15881443803E+03  0.12500000000E+03 0.  0.
</event>
<event>
 5    0  0.5641283E-005  0.2821469E+03  0.7546771E-02  0.1094522E+00
         21   -1    0    0  502  501  0.00000000000E+00  0.00000000000E+00  0.70794839304E+02  0.70794839304E+02  0.00000000000E+00 0. -1.
         21   -1    0    0  501  502 -0.00000000000E+00 -0.00000000000E+00 -0.11244727738E+04  0.11244727738E+04  0.00000000000E+00 0. -1.
         25    1    1    2    0    0  0.10933821945E+03 -0.91909145716E+01 -0.14449951527E+03  0.22032800334E+03  0.12500000000E+03 0.  0.
         25    1    1    2    0    0 -0.95783318986E+01  0.32034315361E+02 -0.69348858613E+03  0.70545684552E+03  0.12500000000E+03 0.  0.
         25    1    1    2    0    0 -0.99759887551E+02 -0.22843400790E+02 -0.21568983312E+03  0.26948276426E+03  0.12500000000E+03 0.  0.
</event>
<event>
 5    0  0.5641283E-005  0.3000935E+03  0.7546771E-02  0.1085194E+00
         21   -1    0    0  502  501  0.00000000000E+00  0.00000000000E+00  0.14071603767E+04  0.14071603767E+04  0.00000000000E+00 0. -1.
         21   -1    0    0  501  502 -0.00000000000E+00 -0.00000000000E+00 -0.63998476044E+02  0.63998476044E+02  0.00000000000E+00 0. -1.
         25    1    1    2    0    0  0.18675831003E+02  0.12972265543E+03  0.95577056990E+03  0.97277907886E+03  0.12500000000E+03 0.  0.
         25    1    1    2    0    0 -0.53131570169E+02 -0.75605201263E+02  0.12020334950E+03  0.19650179500E+03  0.12500000000E+03 0.  0.
         25    1    1    2    0    0  0.34455739167E+02 -0.54117454167E+02  0.26718798129E+03  0.30187797891E+03  0.12500000000E+03 0.  0.
</event>
<event>
 5    0  0.5641283E-005  0.3229912E+03  0.7546771E-02  0.1074281E+00
         21   -1    0    0  502  501  0.00000000000E+00  0.00000000000E+00  0.42687740806E+03  0.42687740806E+03  0.00000000000E+00 0. -1.
         21   -1    0    0  501  502 -0.00000000000E+00 -0.00000000000E+00 -0.24438711916E+03  0.24438711916E+03  0.00000000000E+00 0. -1.
         25    1    1    2    0    0  0.10136395347E+03  0.92370500004E+02 -0.21628241609E+02  0.18681472418E+03  0.12500000000E+03 0.  0.
         25    1    1    2    0    0 -0.57196823906E+02  0.11129795606E+03  0.16894164319E+02  0.17767702292E+03  0.12500000000E+03 0.  0.
         25    1    1    2    0    0 -0.44167129567E+02 -0.20366845606E+03  0.18722436619E+03  0.30677278012E+03  0.12500000000E+03 0.  0.
</event>
<event>
 5    0  0.5641283E-005  0.2803654E+03  0.7546771E-02  0.1095490E+00
         21   -1    0    0  502  501  0.00000000000E+00  0.00000000000E+00  0.10813584809E+03  0.10813584809E+03  0.00000000000E+00 0.  1.
         21   -1    0    0  501  502 -0.00000000000E+00 -0.00000000000E+00 -0.72690769751E+03  0.72690769751E+03  0.00000000000E+00 0.  1.
         25    1    1    2    0    0 -0.45913422969E+02  0.11673783472E+03 -0.99646933998E+02  0.20320008838E+03  0.12500000000E+03 0.  0.
         25    1    1    2    0    0 -0.44640522796E+02 -0.11445556822E+03 -0.40046180435E+03  0.43713557406E+03  0.12500000000E+03 0.  0.
         25    1    1    2    0    0  0.90553945765E+02 -0.22822664966E+01 -0.11866311107E+03  0.19470788316E+03  0.12500000000E+03 0.  0.
</event>
<event>
 5    0  0.5641283E-005  0.4130285E+03  0.7546771E-02  0.1039359E+00
         21   -1    0    0  502  501  0.00000000000E+00  0.00000000000E+00  0.43099258000E+03  0.43099258000E+03  0.00000000000E+00 0.  1.
         21   -1    0    0  501  502 -0.00000000000E+00 -0.00000000000E+00 -0.39581314542E+03  0.39581314542E+03  0.00000000000E+00 0.  1.
         25    1    1    2    0    0 -0.74190070726E+02  0.11126310326E+03 -0.22715038082E+03  0.29172922420E+03  0.12500000000E+03 0.  0.
         25    1    1    2    0    0  0.14255782066E+03 -0.21671776743E+03  0.18048660021E+03  0.33983780809E+03  0.12500000000E+03 0.  0.
         25    1    1    2    0    0 -0.68367749938E+02  0.10545466417E+03  0.81843215192E+02  0.19523869314E+03  0.12500000000E+03 0.  0.
</event>
<event>
 5    0  0.5641283E-005  0.3440950E+03  0.7546771E-02  0.1065065E+00
         21   -1    0    0  502  501  0.00000000000E+00  0.00000000000E+00  0.23835194565E+03  0.23835194565E+03  0.00000000000E+00 0.  1.
         21   -1    0    0  501  502 -0.00000000000E+00 -0.00000000000E+00 -0.49675029753E+03  0.49675029753E+03  0.00000000000E+00 0.  1.
         25    1    1    2    0    0  0.10042506528E+03  0.11768890335E+03 -0.67044391965E+01  0.19901211323E+03  0.12500000000E+03 0.  0.
         25    1    1    2    0    0 -0.13569988769E+03 -0.22255567639E+03 -0.87736119805E+02  0.30210613256E+03  0.12500000000E+03 0.  0.
         25    1    1    2    0    0  0.35274822412E+02  0.10486677304E+03 -0.16395779288E+03  0.23398399738E+03  0.12500000000E+03 0.  0.
</event>
<event>
 5    0  0.5641283E-005  0.5218005E+03  0.7546771E-02  0.1008240E+00
         21   -1    0    0  502  501  0.00000000000E+00  0.00000000000E+00  0.13300492701E+04  0.13300492701E+04  0.00000000000E+00 0.  1.
         21   -1    0    0  501  502 -0.00000000000E+00 -0.00000000000E+00 -0.20471105810E+03  0.20471105810E+03  0.00000000000E+00 0.  1.
         25    1    1    2    0    0 -0.38540024466E+01  0.18238073089E+03  0.29049138150E+02  0.22303909246E+03  0.12500000000E+03 0.  0.
         25    1    1    2    0    0 -0.43643022761E+02 -0.12845562838E+03 -0.20548888639E+02  0.18561470503E+03  0.12500000000E+03 0.  0.
         25    1    1    2    0    0  0.47497025207E+02 -0.53925102512E+02  0.11168379625E+04  0.11261065307E+04  0.12500000000E+03 0.  0.
</event>
<event>
 5    0  0.6954754E-005  0.3550016E+03  0.7546771E-02  0.1060581E+00
         21   -1    0    0  502  501  0.00000000000E+00  0.00000000000E+00  0.65501626017E+03  0.65501626017E+03  0.00000000000E+00 0. -1.
         21   -1    0    0  501  502 -0.00000000000E+00 -0.00000000000E+00 -0.19240153638E+03  0.19240153638E+03  0.00000000000E+00 0. -1.
         25    1    1    2    0    0  0.17974802131E+03  0.70501412876E+01  0.43131251764E+03  0.48375049719E+03  0.12500000000E+03 0.  0.
         25    1    1    2    0    0 -0.98596989504E+01 -0.30316370331E+02 -0.47269676108E+02  0.13738893060E+03  0.12500000000E+03 0.  0.
         25    1    1    2    0    0 -0.16988832236E+03  0.23266229043E+02  0.78571882262E+02  0.22627836876E+03  0.12500000000E+03 0.  0.
</event>
<event>
 5    0  0.5641283E-005  0.3249088E+03  0.7546771E-02  0.1073412E+00
         21   -1    0    0  502  501  0.00000000000E+00  0.00000000000E+00  0.87415326943E+02  0.87415326943E+02  0.00000000000E+00 0.  1.
         21   -1    0    0  501  502 -0.00000000000E+00 -0.00000000000E+00 -0.12076343887E+04  0.12076343887E+04  0.00000000000E+00 0.  1.
         25    1    1    2    0    0  0.64726630355E+02 -0.19582333566E+03 -0.43290316233E+03  0.49554663092E+03  0.12500000000E+03 0.  0.
         25    1    1    2    0    0 -0.50301576981E+02  0.14402618289E+02 -0.89961206358E+02  0.16265209101E+03  0.12500000000E+03 0.  0.
         25    1    1    2    0    0 -0.14425053374E+02  0.18142071737E+03 -0.59735469310E+03  0.63685099374E+03  0.12500000000E+03 0.  0.
</event>
<event>
 5    0  0.5641283E-005  0.3316163E+03  0.7546771E-02  0.1070424E+00
         21   -1    0    0  502  501  0.00000000000E+00  0.00000000000E+00  0.47430508272E+03  0.47430508272E+03  0.00000000000E+00 0.  1.
         21   -1    0    0  501  502 -0.00000000000E+00 -0.00000000000E+00 -0.23185372575E+03  0.23185372575E+03  0.00000000000E+00 0.  1.
         25    1    1    2    0    0  0.86120370781E+01 -0.23667901188E+03  0.54874011134E+02  0.27336290704E+03  0.12500000000E+03 0.  0.
         25    1    1    2    0    0 -0.74679309942E+01  0.94376815240E+02 -0.12476511530E+02  0.15730040238E+03  0.12500000000E+03 0.  0.
         25    1    1    2    0    0 -0.11441060840E+01  0.14230219664E+03  0.20005385737E+03  0.27549549905E+03  0.12500000000E+03 0.  0.
</event>
<event>
 5    0  0.5641283E-005  0.2114203E+03  0.7546771E-02  0.1140446E+00
         21   -1    0    0  502  501  0.00000000000E+00  0.00000000000E+00  0.93376868544E+03  0.93376868544E+03  0.00000000000E+00 0.  1.
         21   -1    0    0  501  502 -0.00000000000E+00 -0.00000000000E+00 -0.47868982834E+02  0.47868982834E+02  0.00000000000E+00 0.  1.
         25    1    1    2    0    0  0.45464075559E+02 -0.25977901744E+02  0.23075963893E+03  0.26761323679E+03  0.12500000000E+03 0.  0.
         25    1    1    2    0    0 -0.64684433445E+02  0.44826349837E+01  0.22746989623E+03  0.26752892112E+03  0.12500000000E+03 0.  0.
         25    1    1    2    0    0  0.19220357886E+02  0.21495266761E+02  0.42767016745E+03  0.44649551037E+03  0.12500000000E+03 0.  0.
</event>
<event>
 5    0  0.5641283E-005  0.3500949E+03  0.7546771E-02  0.1062576E+00
         21   -1    0    0  502  501  0.00000000000E+00  0.00000000000E+00  0.33736766205E+03  0.33736766205E+03  0.00000000000E+00 0.  1.
         21   -1    0    0  501  502 -0.00000000000E+00 -0.00000000000E+00 -0.36330236242E+03  0.36330236242E+03  0.00000000000E+00 0.  1.
         25    1    1    2    0    0  0.22836087381E+02  0.36013188762E+02  0.20580056858E+03  0.24453488642E+03  0.12500000000E+03 0.  0.
         25    1    1    2    0    0  0.10794464805E+03  0.90855678994E+01 -0.89832390893E+01  0.16565111884E+03  0.12500000000E+03 0.  0.
         25    1    1    2    0    0 -0.13078073543E+03 -0.45098756662E+02 -0.22275202986E+03  0.29048401921E+03  0.12500000000E+03 0.  0.
</event>
<event>
 5    0  0.5641283E-005  0.2712394E+03  0.7546771E-02  0.1100572E+00
         21   -1    0    0  502  501  0.00000000000E+00  0.00000000000E+00  0.67351276794E+03  0.67351276794E+03  0.00000000000E+00 0. -1.
         21   -1    0    0  501  502 -0.00000000000E+00 -0.00000000000E+00 -0.10923449394E+03  0.10923449394E+03  0.00000000000E+00 0. -1.
         25    1    1    2    0    0 -0.38243181516E+02 -0.38446414012E+02  0.16550560019E+03  0.21437763730E+03  0.12500000000E+03 0.  0.
         25    1    1    2    0    0 -0.91100415515E+02 -0.88776848262E+02  0.12923072752E+03  0.22024122100E+03  0.12500000000E+03 0.  0.
         25    1    1    2    0    0  0.12934359703E+03  0.12722326227E+03  0.26954194631E+03  0.34812840357E+03  0.12500000000E+03 0.  0.
</event>
<event>
 5    0  0.5641283E-005  0.2725109E+03  0.7546771E-02  0.1099851E+00
         21   -1    0    0  502  501  0.00000000000E+00  0.00000000000E+00  0.51503857220E+02  0.51503857220E+02  0.00000000000E+00 0.  1.
         21   -1    0    0  501  502 -0.00000000000E+00 -0.00000000000E+00 -0.14418764719E+04  0.14418764719E+04  0.00000000000E+00 0.  1.
         25    1    1    2    0    0 -0.78365404064E+02  0.10308266117E+03 -0.57740312937E+03  0.60480289797E+03  0.12500000000E+03 0.  0.
         25    1    1    2    0    0  0.60468558383E+02 -0.83672510340E+02 -0.69841049856E+03  0.71697960922E+03  0.12500000000E+03 0.  0.
         25    1    1    2    0    0  0.17896845681E+02 -0.19410150827E+02 -0.11455898671E+03  0.17159782188E+03  0.12500000000E+03 0.  0.
</event>
<event>
 5    0  0.5641283E-005  0.3998935E+03  0.7546771E-02  0.1043817E+00
         21   -1    0    0  502  501  0.00000000000E+00  0.00000000000E+00  0.29132616339E+03  0.29132616339E+03  0.00000000000E+00 0.  1.
         21   -1    0    0  501  502 -0.00000000000E+00 -0.00000000000E+00 -0.54892010453E+03  0.54892010453E+03  0.00000000000E+00 0.  1.
         25    1    1    2    0    0 -0.18206167128E+03 -0.10252599404E+03 -0.24254603020E+02  0.24468616097E+03  0.12500000000E+03 0.  0.
         25    1    1    2    0    0 -0.11261249510E+01 -0.14528399113E+03 -0.17173983424E+03  0.25734855139E+03  0.12500000000E+03 0.  0.
         25    1    1    2    0    0  0.18318779623E+03  0.24780998517E+03 -0.61599503889E+02  0.33821155556E+03  0.12500000000E+03 0.  0.
</event>
<event>
 5    0  0.5785982E-005  0.3902042E+03  0.7546771E-02  0.1047225E+00
         21   -1    0    0  502  501  0.00000000000E+00  0.00000000000E+00  0.33238553997E+03  0.33238553997E+03  0.00000000000E+00 0. -1.
         21   -1    0    0  501  502 -0.00000000000E+00 -0.00000000000E+00 -0.45808048091E+03  0.45808048091E+03  0.00000000000E+00 0. -1.
         25    1    1    2    0    0  0.85009005982E+02  0.15261260665E+03 -0.31569440190E+01  0.21483041010E+03  0.12500000000E+03 0.  0.
         25    1    1    2    0    0  0.62492605156E+02 -0.11677296151E+03  0.15250046024E+03  0.23753450405E+03  0.12500000000E+03 0.  0.
         25    1    1    2    0    0 -0.14750161114E+03 -0.35839645143E+02 -0.27503845717E+03  0.33810110673E+03  0.12500000000E+03 0.  0.
</event>
<event>
 5    0  0.6036799E-005  0.2884185E+03  0.7546771E-02  0.1091178E+00
         21   -1    0    0  502  501  0.00000000000E+00  0.00000000000E+00  0.62116477966E+03  0.62116477966E+03  0.00000000000E+00 0. -1.
         21   -1    0    0  501  502 -0.00000000000E+00 -0.00000000000E+00 -0.13391818304E+03  0.13391818304E+03  0.00000000000E+00 0. -1.
         25    1    1    2    0    0 -0.55465860278E+02 -0.10728906487E+03  0.48248466922E+02  0.18038935572E+03  0.12500000000E+03 0.  0.
         25    1    1    2    0    0  0.41894565310E+01  0.17758316610E+03  0.23342728984E+03  0.31885205358E+03  0.12500000000E+03 0.  0.
         25    1    1    2    0    0  0.51276403747E+02 -0.70294101230E+02  0.20557083985E+03  0.25584155340E+03  0.12500000000E+03 0.  0.
</event>
<event>
 5    0  0.7562873E-005  0.6170823E+03  0.7546771E-02  0.9870586E-01
         21   -1    0    0  502  501  0.00000000000E+00  0.00000000000E+00  0.10231224549E+04  0.10231224549E+04  0.00000000000E+00 0.  1.
         21   -1    0    0  501  502 -0.00000000000E+00 -0.00000000000E+00 -0.37218472577E+03  0.37218472577E+03  0.00000000000E+00 0.  1.
         25    1    1    2    0    0  0.72417371352E+02 -0.52098736851E+02 -0.23389173291E+03  0.27980153105E+03  0.12500000000E+03 0.  0.
         25    1    1    2    0    0 -0.35063444690E+03  0.30728707493E+02  0.48282742009E+03  0.61043925693E+03  0.12500000000E+03 0.  0.
         25    1    1    2    0    0  0.27821707555E+03  0.21370029359E+02  0.40200204191E+03  0.50506639265E+03  0.12500000000E+03 0.  0.
</event>
<event>
 5    0  0.5641283E-005  0.5046773E+03  0.7546771E-02  0.1012565E+00
         21   -1    0    0  502  501  0.00000000000E+00  0.00000000000E+00  0.38455564168E+03  0.38455564168E+03  0.00000000000E+00 0. -1.
         21   -1    0    0  501  502 -0.00000000000E+00 -0.00000000000E+00 -0.66232073098E+03  0.66232073098E+03  0.00000000000E+00 0. -1.
         25    1    1    2    0    0 -0.18738619361E+02  0.32479555583E+02  0.18791340739E+03  0.22878484667E+03  0.12500000000E+03 0.  0.
         25    1    1    2    0    0 -0.17229675394E+02  0.10828361006E+03  0.11790933636E+03  0.20383771369E+03  0.12500000000E+03 0.  0.
         25    1    1    2    0    0  0.35968294756E+02 -0.14076316565E+03 -0.58358783305E+03  0.61425381229E+03  0.12500000000E+03 0.  0.
</event>
<event>
 5    0  0.5641283E-005  0.3268338E+03  0.7546771E-02  0.1072546E+00
         21   -1    0    0  502  501  0.00000000000E+00  0.00000000000E+00  0.70360895895E+02  0.70360895895E+02  0.00000000000E+00 0. -1.
         21   -1    0    0  501  502 -0.00000000000E+00 -0.00000000000E+00 -0.15181775151E+04  0.15181775151E+04  0.00000000000E+00 0. -1.
         25    1    1    2    0    0 -0.97024739629E+02  0.10182670089E+03 -0.52534352895E+03  0.55802625433E+03  0.12500000000E+03 0.  0.
         25    1    1    2    0    0 -0.96608842972E+02  0.41279667293E+02 -0.52087085331E+03  0.54586511640E+03  0.12500000000E+03 0.  0.
         25    1    1    2    0    0  0.19363358260E+03 -0.14310636818E+03 -0.40160223699E+03  0.48464704031E+03  0.12500000000E+03 0.  0.
</event>
<event>
 5    0  0.5641283E-005  0.3700899E+03  0.7546771E-02  0.1054659E+00
         21   -1    0    0  502  501  0.00000000000E+00  0.00000000000E+00  0.52313346483E+03  0.52313346483E+03  0.00000000000E+00 0. -1.
         21   -1    0    0  501  502 -0.00000000000E+00 -0.00000000000E+00 -0.26181954013E+03  0.26181954013E+03  0.00000000000E+00 0. -1.
         25    1    1    2    0    0 -0.21212703572E+03 -0.37997665285E+02  0.11039460540E+02  0.24937636524E+03  0.12500000000E+03 0.  0.
         25    1    1    2    0    0  0.89358043481E+02 -0.81932146523E+02  0.27113024720E+03  0.32223337430E+03  0.12500000000E+03 0.  0.
         25    1    1    2    0    0  0.12276899224E+03  0.11992981181E+03 -0.20855783034E+02  0.21334326542E+03  0.12500000000E+03 0.  0.
</event>
<event>
 5    0  0.5641283E-005  0.3422027E+03  0.7546771E-02  0.1065862E+00
         21   -1    0    0  502  501  0.00000000000E+00  0.00000000000E+00  0.40581464547E+03  0.40581464547E+03  0.00000000000E+00 0. -1.
         21   -1    0    0  501  502 -0.00000000000E+00 -0.00000000000E+00 -0.28856202156E+03  0.28856202156E+03  0.00000000000E+00 0. -1.
         25    1    1    2    0    0  0.22964361376E+02  0.10341995577E+02  0.28187403392E+03  0.30937402891E+03  0.12500000000E+03 0.  0.
         25    1    1    2    0    0  0.54386662650E+02  0.87579628725E+02 -0.12329950986E+03  0.20360714519E+03  0.12500000000E+03 0.  0.
         25    1    1    2    0    0 -0.77351024026E+02 -0.97921624302E+02 -0.41321900158E+02  0.18139549293E+03  0.12500000000E+03 0.  0.
</event>
<event>
 5    0  0.5641283E-005  0.3022614E+03  0.7546771E-02  0.1084116E+00
         21   -1    0    0  502  501  0.00000000000E+00  0.00000000000E+00  0.12115767248E+03  0.12115767248E+03  0.00000000000E+00 0. -1.
         21   -1    0    0  501  502 -0.00000000000E+00 -0.00000000000E+00 -0.75407490525E+03  0.75407490525E+03  0.00000000000E+00 0. -1.
         25    1    1    2    0    0  0.76499594836E+01  0.95202085384E+02 -0.47370726364E+02  0.16428921041E+03  0.12500000000E+03 0.  0.
         25    1    1    2    0    0  0.49251632339E+02 -0.11634607975E+03 -0.95879167690E+02  0.20194045746E+03  0.12500000000E+03 0.  0.
         25    1    1    2    0    0 -0.56901591823E+02  0.21143994363E+02 -0.48966733871E+03  0.50900290986E+03  0.12500000000E+03 0.  0.
</event>
<event>
 5    0  0.5641283E-005  0.2653719E+03  0.7546771E-02  0.1103958E+00
         21   -1    0    0  502  501  0.00000000000E+00  0.00000000000E+00  0.35483975483E+03  0.35483975483E+03  0.00000000000E+00 0. -1.
         21   -1    0    0  501  502 -0.00000000000E+00 -0.00000000000E+00 -0.19846210010E+03  0.19846210010E+03  0.00000000000E+00 0. -1.
         25    1    1    2    0    0  0.12759770588E+03 -0.73076556354E+02  0.30669347880E+02  0.19541485750E+03  0.12500000000E+03 0.  0.
         25    1    1    2    0    0 -0.93534440370E+02 -0.39941685050E+02  0.41293624421E+02  0.16635562256E+03  0.12500000000E+03 0.  0.
         25    1    1    2    0    0 -0.34063265508E+02  0.11301824140E+03  0.84414682438E+02  0.19153137487E+03  0.12500000000E+03 0.  0.
</event>
<event>
 5    0  0.5641283E-005  0.3289546E+03  0.7546771E-02  0.1071600E+00
         21   -1    0    0  502  501  0.00000000000E+00  0.00000000000E+00  0.13020308822E+03  0.13020308822E+03  0.00000000000E+00 0. -1.
         21   -1    0    0  501  502 -0.00000000000E+00 -0.00000000000E+00 -0.83109491824E+03  0.83109491824E+03  0.00000000000E+00 0. -1.
         25    1    1    2    0    0 -0.58868546446E+02  0.15812426975E+03 -0.20983073287E+03  0.29685472356E+03  0.12500000000E+03 0.  0.
         25    1    1    2    0    0  0.13066047364E+03 -0.81767552065E+02 -0.65972125765E+02  0.20913013489E+03  0.12500000000E+03 0.  0.
         25    1    1    2    0    0 -0.71791927194E+02 -0.76356717686E+02 -0.42508897139E+03  0.45531314800E+03  0.12500000000E+03 0.  0.
</event>
<event>
 5    0  0.5641283E-005  0.3231320E+03  0.7546771E-02  0.1074217E+00
         21   -1    0    0  502  501  0.00000000000E+00  0.00000000000E+00  0.96476094743E+03  0.96476094743E+03  0.00000000000E+00 0. -1.
         21   -1    0    0  501  502 -0.00000000000E+00 -0.00000000000E+00 -0.10822814524E+03  0.10822814524E+03  0.00000000000E+00 0. -1.
         25    1    1    2    0    0 -0.12939862543E+03 -0.10900607015E+03  0.41183528640E+03  0.46244959803E+03  0.12500000000E+03 0.  0.
         25    1    1    2    0    0  0.78054649082E+02 -0.35635744986E+02  0.36843426615E+03  0.39841089724E+03  0.12500000000E+03 0.  0.
         25    1    1    2    0    0  0.51343976344E+02  0.14464181513E+03  0.76263249640E+02  0.21212859741E+03  0.12500000000E+03 0.  0.
</event>
<event>
 5    0  0.5641283E-005  0.3595308E+03  0.7546771E-02  0.1058770E+00
         21   -1    0    0  502  501  0.00000000000E+00  0.00000000000E+00  0.72135272416E+03  0.72135272416E+03  0.00000000000E+00 0.  1.
         21   -1    0    0  501  502 -0.00000000000E+00 -0.00000000000E+00 -0.17919442463E+03  0.17919442463E+03  0.00000000000E+00 0.  1.
         25    1    1    2    0    0 -0.48566867397E+01 -0.16875517322E+03 -0.38516515372E+02  0.21356595668E+03  0.12500000000E+03 0.  0.
         25    1    1    2    0    0  0.66889695517E+02  0.11344442870E+03  0.16616691869E+03  0.24613068609E+03  0.12500000000E+03 0.  0.
         25    1    1    2    0    0 -0.62033008777E+02  0.55310744515E+02  0.41450789622E+03  0.44085050603E+03  0.12500000000E+03 0.  0.
</event>
<event>
 5    0  0.5641283E-005  0.3289045E+03  0.7546771E-02  0.1071623E+00
         21   -1    0    0  502  501  0.00000000000E+00  0.00000000000E+00  0.33895176804E+03  0.33895176804E+03  0.00000000000E+00 0. -1.
         21   -1    0    0  501  502 -0.00000000000E+00 -0.00000000000E+00 -0.31915505891E+03  0.31915505891E+03  0.00000000000E+00 0. -1.
         25    1    1    2    0    0 -0.18577991971E+02 -0.11871251916E+03 -0.11031797734E+03  0.20550635055E+03  0.12500000000E+03 0.  0.
         25    1    1    2    0    0  0.13765780673E+02  0.40964792518E+02  0.23646007620E+03  0.27093537713E+03  0.12500000000E+03 0.  0.
         25    1    1    2    0    0  0.48122112982E+01  0.77747726646E+02 -0.10634538973E+03  0.18166509927E+03  0.12500000000E+03 0.  0.
</event>
<event>
 5    0  0.5641283E-005  0.4116563E+03  0.7546771E-02  0.1039817E+00
         21   -1    0    0  502  501  0.00000000000E+00  0.00000000000E+00  0.27910057815E+03  0.27910057815E+03  0.00000000000E+00 0.  1.
         21   -1    0    0  501  502 -0.00000000000E+00 -0.00000000000E+00 -0.60716780828E+03  0.60716780828E+03  0.00000000000E+00 0.  1.
         25    1    1    2    0    0 -0.26843490340E+02 -0.20040244807E+03 -0.10953162421E+03  0.26173247959E+03  0.12500000000E+03 0.  0.
         25    1    1    2    0    0 -0.51297967154E+02 -0.12124331242E+03  0.40536139809E+02  0.18600967951E+03  0.12500000000E+03 0.  0.
         25    1    1    2    0    0  0.78141457494E+02  0.32164576050E+03 -0.25907174572E+03  0.43852622733E+03  0.12500000000E+03 0.  0.
</event>
<event>
 5    0  0.5641283E-005  0.3792213E+03  0.7546771E-02  0.1051222E+00
         21   -1    0    0  502  501  0.00000000000E+00  0.00000000000E+00  0.27408639041E+03  0.27408639041E+03  0.00000000000E+00 0. -1.
         21   -1    0    0  501  502 -0.00000000000E+00 -0.00000000000E+00 -0.52468429798E+03  0.52468429798E+03  0.00000000000E+00 0. -1.
         25    1    1    2    0    0 -0.10939896644E+03 -0.22888884752E+03 -0.30870547912E+03  0.41866730373E+03  0.12500000000E+03 0.  0.
         25    1    1    2    0    0  0.93929478888E+02  0.13653718637E+03  0.79858684189E+02  0.22241303853E+03  0.12500000000E+03 0.  0.
         25    1    1    2    0    0  0.15469487550E+02  0.92351661146E+02 -0.21751112644E+02  0.15769034613E+03  0.12500000000E+03 0.  0.
</event>
<event>
 5    0  0.5641283E-005  0.2371726E+03  0.7546771E-02  0.1121691E+00
         21   -1    0    0  502  501  0.00000000000E+00  0.00000000000E+00  0.21614876944E+03  0.21614876944E+03  0.00000000000E+00 0. -1.
         21   -1    0    0  501  502 -0.00000000000E+00 -0.00000000000E+00 -0.26024129366E+03  0.26024129366E+03  0.00000000000E+00 0. -1.
         25    1    1    2    0    0 -0.51949308391E+02  0.83039940050E+02  0.28324435255E+02  0.16131223115E+03  0.12500000000E+03 0.  0.
         25    1    1    2    0    0 -0.32184540473E+02  0.84792268584E+01 -0.43212892581E+02  0.13638216899E+03  0.12500000000E+03 0.  0.
         25    1    1    2    0    0  0.84133848865E+02 -0.91519166909E+02 -0.29204066900E+02  0.17869566296E+03  0.12500000000E+03 0.  0.
</event>
<event>
 5    0  0.5641283E-005  0.2527840E+03  0.7546771E-02  0.1111558E+00
         21   -1    0    0  502  501  0.00000000000E+00  0.00000000000E+00  0.16477765616E+03  0.16477765616E+03  0.00000000000E+00 0.  1.
         21   -1    0    0  501  502 -0.00000000000E+00 -0.00000000000E+00 -0.38779379625E+03  0.38779379625E+03  0.00000000000E+00 0.  1.
         25    1    1    2    0    0 -0.33327885977E+02 -0.38014694827E+02 -0.16579155321E+03  0.21370003304E+03  0.12500000000E+03 0.  0.
         25    1    1    2    0    0  0.11971376279E+03  0.29384965312E+02  0.19894089873E+01  0.17556713512E+03  0.12500000000E+03 0.  0.
         25    1    1    2    0    0 -0.86385876809E+02  0.86297295153E+01 -0.59213995865E+02  0.16330428424E+03  0.12500000000E+03 0.  0.
</event>
<event>
 5    0  0.5641283E-005  0.4373858E+03  0.7546771E-02  0.1031552E+00
         21   -1    0    0  502  501  0.00000000000E+00  0.00000000000E+00  0.19427999567E+04  0.19427999567E+04  0.00000000000E+00 0. -1.
         21   -1    0    0  501  502 -0.00000000000E+00 -0.00000000000E+00 -0.98469393325E+02  0.98469393325E+02  0.00000000000E+00 0. -1.
         25    1    1    2    0    0 -0.64629245971E+02 -0.75815986778E+02  0.78108302489E+01  0.16003440991E+03  0.12500000000E+03 0.  0.
         25    1    1    2    0    0  0.77644627186E+02 -0.10839854940E+03  0.91968920747E+03  0.93767380894E+03  0.12500000000E+03 0.  0.
         25    1    1    2    0    0 -0.13015381215E+02  0.18421453617E+03  0.91683052569E+03  0.94356113120E+03  0.12500000000E+03 0.  0.
</event>
<event>
 5    0  0.5641283E-005  0.4003975E+03  0.7546771E-02  0.1043642E+00
         21   -1    0    0  502  501  0.00000000000E+00  0.00000000000E+00  0.13341553222E+03  0.13341553222E+03  0.00000000000E+00 0.  1.
         21   -1    0    0  501  502 -0.00000000000E+00 -0.00000000000E+00 -0.12016451870E+04  0.12016451870E+04  0.00000000000E+00 0.  1.
         25    1    1    2    0    0  0.58665971738E+01  0.58162204051E+02  0.23355222238E+02  0.13995615509E+03  0.12500000000E+03 0.  0.
         25    1    1    2    0    0 -0.19463804659E+03 -0.18333748332E+02 -0.36046435171E+03  0.42869528148E+03  0.12500000000E+03 0.  0.
         25    1    1    2    0    0  0.18877144942E+03 -0.39828455719E+02 -0.73112052536E+03  0.76640928269E+03  0.12500000000E+03 0.  0.
</event>
<event>
 5    0  0.5641283E-005  0.2355063E+03  0.7546771E-02  0.1122823E+00
         21   -1    0    0  502  501  0.00000000000E+00  0.00000000000E+00  0.12482600396E+04  0.12482600396E+04  0.00000000000E+00 0. -1.
         21   -1    0    0  501  502 -0.00000000000E+00 -0.00000000000E+00 -0.44432403958E+02  0.44432403958E+02  0.00000000000E+00 0. -1.
         25    1    1    2    0    0 -0.12086948930E+03 -0.12363795940E+02  0.36337657222E+03  0.40302584301E+03  0.12500000000E+03 0.  0.
         25    1    1    2    0    0  0.59967705667E+02 -0.74853860233E+01  0.28918170873E+03  0.32078531355E+03  0.12500000000E+03 0.  0.
         25    1    1    2    0    0  0.60901783632E+02  0.19849181963E+02  0.55126935471E+03  0.56888128701E+03  0.12500000000E+03 0.  0.
</event>
<event>
 5    0  0.5641283E-005  0.2976910E+03  0.7546771E-02  0.1086401E+00
         21   -1    0    0  502  501  0.00000000000E+00  0.00000000000E+00  0.13013741394E+03  0.13013741394E+03  0.00000000000E+00 0. -1.
         21   -1    0    0  501  502 -0.00000000000E+00 -0.00000000000E+00 -0.68097219073E+03  0.68097219073E+03  0.00000000000E+00 0. -1.
         25    1    1    2    0    0 -0.12472613952E+03  0.44398152530E+02 -0.25826554602E+03  0.31599667418E+03  0.12500000000E+03 0.  0.
         25    1    1    2    0    0 -0.61468829986E+01  0.90261895287E+02 -0.19671286843E+03  0.25001189275E+03  0.12500000000E+03 0.  0.
         25    1    1    2    0    0  0.13087302252E+03 -0.13466004782E+03 -0.95856362339E+02  0.24510103774E+03  0.12500000000E+03 0.  0.
</event>
<event>
 5    0  0.5641283E-005  0.3741608E+03  0.7546771E-02  0.1053113E+00
         21   -1    0    0  502  501  0.00000000000E+00  0.00000000000E+00  0.14791928374E+03  0.14791928374E+03  0.00000000000E+00 0.  1.
         21   -1    0    0  501  502 -0.00000000000E+00 -0.00000000000E+00 -0.94643730953E+03  0.94643730953E+03  0.00000000000E+00 0.  1.
         25    1    1    2    0    0 -0.67620683066E+02 -0.39435396998E+02  0.60986736987E+02  0.15959977883E+03  0.12500000000E+03 0.  0.
         25    1    1    2    0    0  0.12068289177E+03  0.83712412356E+02 -0.67150527768E+03  0.69865332341E+03  0.12500000000E+03 0.  0.
         25    1    1    2    0    0 -0.53062208708E+02 -0.44277015358E+02 -0.18799948510E+03  0.23610349103E+03  0.12500000000E+03 0.  0.
</event>
<event>
 5    0  0.5641283E-005  0.2930043E+03  0.7546771E-02  0.1088791E+00
         21   -1    0    0  502  501  0.00000000000E+00  0.00000000000E+00  0.12089962644E+04  0.12089962644E+04  0.00000000000E+00 0.  1.
         21   -1    0    0  501  502 -0.00000000000E+00 -0.00000000000E+00 -0.71010593345E+02  0.71010593345E+02  0.00000000000E+00 0.  1.
         25    1    1    2    0    0 -0.10373891052E+03 -0.19616830503E+02  0.35008582078E+03  0.38643455268E+03  0.12500000000E+03 0.  0.
         25    1    1    2    0    0  0.70645023639E+02  0.16857675577E+03  0.36473248035E+03  0.42668914232E+03  0.12500000000E+03 0.  0.
         25    1    1    2    0    0  0.33093886881E+02 -0.14895992526E+03  0.42316736992E+03  0.46688316274E+03  0.12500000000E+03 0.  0.
</event>
<event>
 5    0  0.5641283E-005  0.4744705E+03  0.7546771E-02  0.1020666E+00
         21   -1    0    0  502  501  0.00000000000E+00  0.00000000000E+00  0.29356348821E+03  0.29356348821E+03  0.00000000000E+00 0.  1.
         21   -1    0    0  501  502 -0.00000000000E+00 -0.00000000000E+00 -0.76686057544E+03  0.76686057544E+03  0.00000000000E+00 0.  1.
         25    1    1    2    0    0 -0.22096844663E+03  0.13533876719E+03  0.15587851171E+03  0.32721055412E+03  0.12500000000E+03 0.  0.
         25    1    1    2    0    0  0.51603343945E+02 -0.32093257341E+02 -0.28043597249E+03  0.31298916425E+03  0.12500000000E+03 0.  0.
         25    1    1    2    0    0  0.16936510269E+03 -0.10324550985E+03 -0.34873962645E+03  0.42022434529E+03  0.12500000000E+03 0.  0.
</event>
<event>
 5    0  0.5641283E-005  0.2007534E+03  0.7546771E-02  0.1149105E+00
         21   -1    0    0  502  501  0.00000000000E+00  0.00000000000E+00  0.35135281535E+02  0.35135281535E+02  0.00000000000E+00 0. -1.
         21   -1    0    0  501  502 -0.00000000000E+00 -0.00000000000E+00 -0.11470502015E+04  0.11470502015E+04  0.00000000000E+00 0. -1.
         25    1    1    2    0    0 -0.56298067390E+02 -0.95280097049E+01 -0.37630778615E+03  0.40061553299E+03  0.12500000000E+03 0.  0.
         25    1    1    2    0    0  0.34456420572E+02 -0.23352993567E+02 -0.33092157061E+03  0.35618351045E+03  0.12500000000E+03 0.  0.
         25    1    1    2    0    0  0.21841646818E+02  0.32881003272E+02 -0.40468556321E+03  0.42538643958E+03  0.12500000000E+03 0.  0.
</event>
<event>
 5    0  0.5641283E-005  0.3866808E+03  0.7546771E-02  0.1048492E+00
         21   -1    0    0  502  501  0.00000000000E+00  0.00000000000E+00  0.13475814338E+03  0.13475814338E+03  0.00000000000E+00 0. -1.
         21   -1    0    0  501  502 -0.00000000000E+00 -0.00000000000E+00 -0.11095586075E+04  0.11095586075E+04  0.00000000000E+00 0. -1.
         25    1    1    2    0    0 -0.56264193748E+02 -0.31742453916E+03 -0.38430966684E+03  0.51695543095E+03  0.12500000000E+03 0.  0.
         25    1    1    2    0    0  0.20236753340E+02  0.11158038628E+03 -0.33078214374E+03  0.37135095988E+03  0.12500000000E+03 0.  0.
         25    1    1    2    0    0  0.36027440408E+02  0.20584415288E+03 -0.25970865358E+03  0.35601036008E+03  0.12500000000E+03 0.  0.
</event>
